                         Program Version 4.2.1 -  RELEASE  -
|  1> ! wB97X-D3 SP def2-SVP
|  2> %pal
|  3> nprocs 16
|  4> end
|  5>
|  6> * xyz 0 1
|  7> S 	 -51.8768 	 27.9878 	 98.5762
|  8> C 	 -51.1051 	 26.6163 	 97.8113
|  9> C 	 -51.423 	 26.5398 	 96.4526
| 10> C 	 -52.4184 	 27.5499 	 96.1129
| 11> C 	 -52.6876 	 28.4645 	 97.0653
| 12> H 	 -52.9442 	 27.5258 	 95.1897
| 13> C 	 -51.062 	 25.4248 	 95.5675
| 14> H 	 -51.9366 	 24.7658 	 95.4863
| 15> H 	 -50.2334 	 24.8921 	 96.0556
| 16> C 	 -50.5883 	 25.8915 	 94.2109
| 17> H 	 -51.2475 	 26.6895 	 93.9519
| 18> H 	 -49.5038 	 26.2832 	 94.2657
| 19> C 	 -50.396 	 24.7067 	 93.1918
| 20> H 	 -50.0929 	 25.0773 	 92.3168
| 21> H 	 -49.7633 	 23.9548 	 93.6022
| 22> H 	 -51.346 	 24.2508 	 93.0365
| 23> S 	 -55.179 	 29.328 	 97.7261
| 24> C 	 -55.9736 	 30.6575 	 96.8564
| 25> C 	 -55.0813 	 31.2215 	 95.9866
| 26> C 	 -53.8216 	 30.5992 	 95.9684
| 27> C 	 -53.6758 	 29.5469 	 96.8809
| 28> H 	 -55.3908 	 32.0532 	 95.322
| 29> C 	 -52.749 	 31.1596 	 95.0081
| 30> H 	 -52.8094 	 32.2814 	 94.9771
| 31> H 	 -53.1877 	 30.6336 	 94.1403
| 32> C 	 -51.2599 	 30.7726 	 95.2258
| 33> H 	 -51.0082 	 29.7905 	 94.8873
| 34> H 	 -50.9172 	 30.6977 	 96.3133
| 35> C 	 -50.2989 	 31.6301 	 94.4244
| 36> H 	 -50.8364 	 31.9581 	 93.4985
| 37> H 	 -49.4251 	 31.091 	 94.0229
| 38> H 	 -49.8318 	 32.4889 	 94.9305
| 39> H 	 -50.5337 	 25.8932 	 98.3519
| 40> H 	 -56.9359 	 31.0742 	 96.9668
| 41> *
| 42>
| 43>                          ****END OF INPUT****

CARTESIAN COORDINATES (ANGSTROEM)
---------------------------------
  S    -51.876800   27.987800   98.576200
  C    -51.105100   26.616300   97.811300
  C    -51.423000   26.539800   96.452600
  C    -52.418400   27.549900   96.112900
  C    -52.687600   28.464500   97.065300
  H    -52.944200   27.525800   95.189700
  C    -51.062000   25.424800   95.567500
  H    -51.936600   24.765800   95.486300
  H    -50.233400   24.892100   96.055600
  C    -50.588300   25.891500   94.210900
  H    -51.247500   26.689500   93.951900
  H    -49.503800   26.283200   94.265700
  C    -50.396000   24.706700   93.191800
  H    -50.092900   25.077300   92.316800
  H    -49.763300   23.954800   93.602200
  H    -51.346000   24.250800   93.036500
  S    -55.179000   29.328000   97.726100
  C    -55.973600   30.657500   96.856400
  C    -55.081300   31.221500   95.986600
  C    -53.821600   30.599200   95.968400
  C    -53.675800   29.546900   96.880900
  H    -55.390800   32.053200   95.322000
  C    -52.749000   31.159600   95.008100
  H    -52.809400   32.281400   94.977100
  H    -53.187700   30.633600   94.140300
  C    -51.259900   30.772600   95.225800
  H    -51.008200   29.790500   94.887300
  H    -50.917200   30.697700   96.313300
  C    -50.298900   31.630100   94.424400
  H    -50.836400   31.958100   93.498500
  H    -49.425100   31.091000   94.022900
  H    -49.831800   32.488900   94.930500
  H    -50.533700   25.893200   98.351900
  H    -56.935900   31.074200   96.966800

 Total Charge           Charge          ....    0
 Multiplicity           Mult            ....    1
 Number of Electrons    NEL             ....  134
 Basis Dimension        Dim             ....  322

ORBITAL ENERGIES
----------------

  NO   OCC          E(Eh)            E(eV)
   0   2.0000     -88.965034     -2420.8616
   1   2.0000     -88.963081     -2420.8085
   2   2.0000     -10.330683      -281.1122
   3   2.0000     -10.327517      -281.0260
   4   2.0000     -10.315886      -280.7095
   5   2.0000     -10.315751      -280.7059
   6   2.0000     -10.305625      -280.4303
   7   2.0000     -10.301643      -280.3220
   8   2.0000     -10.300403      -280.2882
   9   2.0000     -10.292151      -280.0637
  10   2.0000     -10.290753      -280.0256
  11   2.0000     -10.290695      -280.0240
  12   2.0000     -10.289549      -279.9929
  13   2.0000     -10.283952      -279.8406
  14   2.0000     -10.276765      -279.6450
  15   2.0000     -10.268287      -279.4143
  16   2.0000      -8.079269      -219.8481
  17   2.0000      -8.077581      -219.8022
  18   2.0000      -6.037894      -164.2994
  19   2.0000      -6.036214      -164.2537
  20   2.0000      -6.033839      -164.1891
  21   2.0000      -6.031969      -164.1382
  22   2.0000      -6.029933      -164.0828
  23   2.0000      -6.028351      -164.0398
  24   2.0000      -1.005078       -27.3496
  25   2.0000      -0.983948       -26.7746
  26   2.0000      -0.917724       -24.9725
  27   2.0000      -0.901676       -24.5358
  28   2.0000      -0.872694       -23.7472
  29   2.0000      -0.849436       -23.1143
  30   2.0000      -0.847702       -23.0672
  31   2.0000      -0.820428       -22.3250
  32   2.0000      -0.780955       -21.2509
  33   2.0000      -0.767335       -20.8803
  34   2.0000      -0.713362       -19.4116
  35   2.0000      -0.699268       -19.0281
  36   2.0000      -0.686230       -18.6733
  37   2.0000      -0.657934       -17.9033
  38   2.0000      -0.644373       -17.5343
  39   2.0000      -0.626291       -17.0423
  40   2.0000      -0.590075       -16.0568
  41   2.0000      -0.571320       -15.5464
  42   2.0000      -0.566695       -15.4206
  43   2.0000      -0.563529       -15.3344
  44   2.0000      -0.533733       -14.5236
  45   2.0000      -0.523722       -14.2512
  46   2.0000      -0.522080       -14.2065
  47   2.0000      -0.509692       -13.8694
  48   2.0000      -0.507378       -13.8065
  49   2.0000      -0.501248       -13.6396
  50   2.0000      -0.498169       -13.5559
  51   2.0000      -0.480387       -13.0720
  52   2.0000      -0.473434       -12.8828
  53   2.0000      -0.466545       -12.6953
  54   2.0000      -0.455266       -12.3884
  55   2.0000      -0.452130       -12.3031
  56   2.0000      -0.442598       -12.0437
  57   2.0000      -0.436776       -11.8853
  58   2.0000      -0.427433       -11.6310
  59   2.0000      -0.424417       -11.5490
  60   2.0000      -0.416145       -11.3239
  61   2.0000      -0.408714       -11.1217
  62   2.0000      -0.405102       -11.0234
  63   2.0000      -0.344392        -9.3714
  64   2.0000      -0.326149        -8.8750
  65   2.0000      -0.322700        -8.7811
  66   2.0000      -0.301743        -8.2108
  67   0.0000       0.036750         1.0000
  68   0.0000       0.065649         1.7864
  69   0.0000       0.116247         3.1632
  70   0.0000       0.125758         3.4220
  71   0.0000       0.127234         3.4622

MULLIKEN ATOMIC CHARGES
-----------------------
   0 S :    0.101271
   1 C :   -0.113302
   2 C :   -0.093857
   3 C :    0.038207
   4 C :   -0.143916
   5 H :    0.010784
   6 C :    0.074677
   7 H :    0.046178
   8 H :    0.016629
   9 C :   -0.144186
  10 H :    0.025312
  11 H :    0.040293
  12 C :    0.046347
  13 H :    0.008067
  14 H :    0.025847
  15 H :    0.010597
  16 S :    0.099331
  17 C :   -0.063800
  18 C :   -0.063185
  19 C :   -0.037866
  20 C :   -0.159307
  21 H :    0.030665
  22 C :    0.027715
  23 H :    0.054286
  24 H :    0.049695
  25 C :   -0.057103
  26 H :    0.019861
  27 H :    0.046793
  28 C :   -0.069599
  29 H :    0.027326
  30 H :    0.025601
  31 H :    0.039427
  32 H :    0.042432
  33 H :    0.038782
Sum of atomic charges:    0.0000000

LOEWDIN ATOMIC CHARGES
----------------------
   0 S :    0.387211
   1 C :   -0.187698
   2 C :   -0.063133
   3 C :   -0.054637
   4 C :   -0.191040
   5 H :    0.025801
   6 C :   -0.039024
   7 H :    0.036842
   8 H :    0.031803
   9 C :   -0.038818
  10 H :    0.014442
  11 H :    0.034849
  12 C :   -0.043675
  13 H :    0.008606
  14 H :    0.025328
  15 H :    0.019827
  16 S :    0.405420
  17 C :   -0.170712
  18 C :   -0.080185
  19 C :   -0.057838
  20 C :   -0.208829
  21 H :    0.038990
  22 C :   -0.035245
  23 H :    0.039731
  24 H :    0.046123
  25 C :   -0.056169
  26 H :    0.022343
  27 H :    0.035482
  28 C :   -0.074457
  29 H :    0.028075
  30 H :    0.026738
  31 H :    0.024700
  32 H :    0.023966
  33 H :    0.025182

  Mayer bond orders larger than 0.100000
B(  0-S ,  1-C ) :   1.1358 B(  0-S ,  4-C ) :   1.1225 B(  1-C ,  2-C ) :   1.6206
B(  1-C , 32-H ) :   0.9711 B(  2-C ,  3-C ) :   1.2072 B(  2-C ,  6-C ) :   1.0459
B(  3-C ,  4-C ) :   1.6210 B(  3-C ,  5-H ) :   0.9908 B(  4-C , 20-C ) :   1.0043
B(  6-C ,  7-H ) :   0.9379 B(  6-C ,  8-H ) :   0.9315 B(  6-C ,  9-C ) :   1.0548
B(  9-C , 10-H ) :   0.9657 B(  9-C , 11-H ) :   0.9551 B(  9-C , 12-C ) :   1.0742
B( 12-C , 13-H ) :   0.9733 B( 12-C , 14-H ) :   0.9728 B( 12-C , 15-H ) :   0.9738
B( 16-S , 17-C ) :   1.1567 B( 16-S , 20-C ) :   1.1422 B( 17-C , 18-C ) :   1.6049
B( 17-C , 33-H ) :   0.9695 B( 18-C , 19-C ) :   1.2720 B( 18-C , 21-H ) :   0.9842
B( 19-C , 20-C ) :   1.5933 B( 19-C , 22-C ) :   0.9918 B( 22-C , 23-H ) :   0.9555
B( 22-C , 24-H ) :   0.9248 B( 22-C , 25-C ) :   1.0695 B( 25-C , 26-H ) :   0.9482
B( 25-C , 27-H ) :   0.9560 B( 25-C , 28-C ) :   1.0749 B( 28-C , 29-H ) :   0.9719
B( 28-C , 30-H ) :   0.9770 B( 28-C , 31-H ) :   0.9756

Dispersion correction           -0.014531245
FINAL SINGLE POINT ENERGY     -1339.857785737046

DIPOLE MOMENT
-------------
                                X             Y             Z
Electronic contribution:    -17.23535       3.34079      24.06254
Nuclear contribution   :     17.34982      -3.51883     -24.78591
                        -----------------------------------------
Total Dipole Moment    :      0.11447      -0.17804      -0.72337
                        -----------------------------------------
Magnitude (a.u.)       :      0.75370
Magnitude (Debye)      :      1.91576

Rotational constants in cm-1:     0.016899     0.009004     0.007389
Rotational constants in MHz :   506.605221   269.938928   221.521299

                             ****ORCA TERMINATED NORMALLY****
TOTAL RUN TIME: 0 days 0 hours 0 minutes 31 seconds 558 msec
