                         Program Version 4.2.1 -  RELEASE  -
|  1> ! wB97X-D3 SP def2-SVP
|  2> %pal
|  3> nprocs 16
|  4> end
|  5>
|  6> * xyz 0 1
|  7> S 	 70.3128 	 21.9503 	 74.526
|  8> C 	 69.2135 	 20.6169 	 74.6933
|  9> C 	 67.8905 	 20.9814 	 74.5573
| 10> C 	 67.7526 	 22.3639 	 74.2129
| 11> C 	 68.9386 	 23.0154 	 74.2905
| 12> H 	 66.7743 	 22.8473 	 73.9489
| 13> C 	 66.7186 	 20.0109 	 74.5369
| 14> H 	 67.0507 	 19.3259 	 73.9128
| 15> H 	 65.8942 	 20.4867 	 74.0648
| 16> C 	 66.415 	 19.4282 	 75.9343
| 17> H 	 67.3265 	 19.3201 	 76.5922
| 18> H 	 65.6651 	 20.1383 	 76.4162
| 19> C 	 65.6421 	 18.1345 	 75.9761
| 20> H 	 65.2158 	 17.8825 	 76.9798
| 21> H 	 64.8646 	 18.2083 	 75.1852
| 22> H 	 66.2519 	 17.2809 	 75.6994
| 23> S 	 68.4359 	 25.5329 	 75.3277
| 24> C 	 68.7398 	 26.9366 	 74.3198
| 25> C 	 69.2795 	 26.4915 	 73.152
| 26> C 	 69.4505 	 25.0786 	 72.9286
| 27> C 	 69.1034 	 24.4274 	 74.0547
| 28> H 	 69.5507 	 27.325 	 72.5328
| 29> C 	 70.1004 	 24.4813 	 71.7252
| 30> H 	 70.9039 	 23.9536 	 72.0911
| 31> H 	 70.6191 	 25.2562 	 71.2199
| 32> C 	 69.2329 	 23.5341 	 70.8274
| 33> H 	 68.6692 	 22.7846 	 71.3435
| 34> H 	 69.8603 	 23.0035 	 70.0373
| 35> C 	 68.2556 	 24.4215 	 69.9908
| 36> H 	 68.8682 	 24.94 	 69.2558
| 37> H 	 67.6613 	 25.1464 	 70.6071
| 38> H 	 67.4755 	 23.7429 	 69.5956
| 39> H 	 69.518 	 19.565 	 74.7401
| 40> H 	 68.5969 	 28.0161 	 74.5598
| 41> *
| 42>
| 43>                          ****END OF INPUT****

CARTESIAN COORDINATES (ANGSTROEM)
---------------------------------
  S     70.312800   21.950300   74.526000
  C     69.213500   20.616900   74.693300
  C     67.890500   20.981400   74.557300
  C     67.752600   22.363900   74.212900
  C     68.938600   23.015400   74.290500
  H     66.774300   22.847300   73.948900
  C     66.718600   20.010900   74.536900
  H     67.050700   19.325900   73.912800
  H     65.894200   20.486700   74.064800
  C     66.415000   19.428200   75.934300
  H     67.326500   19.320100   76.592200
  H     65.665100   20.138300   76.416200
  C     65.642100   18.134500   75.976100
  H     65.215800   17.882500   76.979800
  H     64.864600   18.208300   75.185200
  H     66.251900   17.280900   75.699400
  S     68.435900   25.532900   75.327700
  C     68.739800   26.936600   74.319800
  C     69.279500   26.491500   73.152000
  C     69.450500   25.078600   72.928600
  C     69.103400   24.427400   74.054700
  H     69.550700   27.325000   72.532800
  C     70.100400   24.481300   71.725200
  H     70.903900   23.953600   72.091100
  H     70.619100   25.256200   71.219900
  C     69.232900   23.534100   70.827400
  H     68.669200   22.784600   71.343500
  H     69.860300   23.003500   70.037300
  C     68.255600   24.421500   69.990800
  H     68.868200   24.940000   69.255800
  H     67.661300   25.146400   70.607100
  H     67.475500   23.742900   69.595600
  H     69.518000   19.565000   74.740100
  H     68.596900   28.016100   74.559800

 Total Charge           Charge          ....    0
 Multiplicity           Mult            ....    1
 Number of Electrons    NEL             ....  134
 Basis Dimension        Dim             ....  322

ORBITAL ENERGIES
----------------

  NO   OCC          E(Eh)            E(eV)
   0   2.0000     -88.968850     -2420.9655
   1   2.0000     -88.958376     -2420.6805
   2   2.0000     -10.322258      -280.8829
   3   2.0000     -10.320428      -280.8331
   4   2.0000     -10.316304      -280.7209
   5   2.0000     -10.311995      -280.6037
   6   2.0000     -10.300392      -280.2879
   7   2.0000     -10.298477      -280.2358
   8   2.0000     -10.294978      -280.1406
   9   2.0000     -10.292839      -280.0824
  10   2.0000     -10.291392      -280.0430
  11   2.0000     -10.287063      -279.9252
  12   2.0000     -10.283387      -279.8252
  13   2.0000     -10.281452      -279.7725
  14   2.0000     -10.280419      -279.7444
  15   2.0000     -10.278179      -279.6835
  16   2.0000      -8.083494      -219.9630
  17   2.0000      -8.072439      -219.6622
  18   2.0000      -6.041972      -164.4104
  19   2.0000      -6.038111      -164.3054
  20   2.0000      -6.034217      -164.1994
  21   2.0000      -6.031141      -164.1157
  22   2.0000      -6.027054      -164.0045
  23   2.0000      -6.023006      -163.8943
  24   2.0000      -1.008260       -27.4362
  25   2.0000      -0.983673       -26.7671
  26   2.0000      -0.914738       -24.8913
  27   2.0000      -0.905912       -24.6511
  28   2.0000      -0.869887       -23.6708
  29   2.0000      -0.853558       -23.2265
  30   2.0000      -0.844585       -22.9823
  31   2.0000      -0.813827       -22.1454
  32   2.0000      -0.785767       -21.3818
  33   2.0000      -0.773805       -21.0563
  34   2.0000      -0.706935       -19.2367
  35   2.0000      -0.695273       -18.9194
  36   2.0000      -0.690188       -18.7810
  37   2.0000      -0.656039       -17.8517
  38   2.0000      -0.639746       -17.4084
  39   2.0000      -0.617209       -16.7951
  40   2.0000      -0.591489       -16.0952
  41   2.0000      -0.574900       -15.6438
  42   2.0000      -0.555270       -15.1097
  43   2.0000      -0.551045       -14.9947
  44   2.0000      -0.543149       -14.7798
  45   2.0000      -0.528981       -14.3943
  46   2.0000      -0.523351       -14.2411
  47   2.0000      -0.516185       -14.0461
  48   2.0000      -0.505593       -13.7579
  49   2.0000      -0.495901       -13.4942
  50   2.0000      -0.485892       -13.2218
  51   2.0000      -0.478812       -13.0291
  52   2.0000      -0.473398       -12.8818
  53   2.0000      -0.463201       -12.6043
  54   2.0000      -0.458949       -12.4886
  55   2.0000      -0.446050       -12.1376
  56   2.0000      -0.439924       -11.9710
  57   2.0000      -0.435176       -11.8417
  58   2.0000      -0.425779       -11.5860
  59   2.0000      -0.423763       -11.5312
  60   2.0000      -0.418183       -11.3794
  61   2.0000      -0.414806       -11.2874
  62   2.0000      -0.411353       -11.1935
  63   2.0000      -0.339101        -9.2274
  64   2.0000      -0.327311        -8.9066
  65   2.0000      -0.323680        -8.8078
  66   2.0000      -0.306408        -8.3378
  67   0.0000       0.040949         1.1143
  68   0.0000       0.061797         1.6816
  69   0.0000       0.109573         2.9816
  70   0.0000       0.115863         3.1528
  71   0.0000       0.128664         3.5011

MULLIKEN ATOMIC CHARGES
-----------------------
   0 S :    0.124405
   1 C :   -0.128139
   2 C :   -0.130473
   3 C :    0.023518
   4 C :   -0.180415
   5 H :    0.037808
   6 C :    0.184943
   7 H :   -0.013449
   8 H :    0.008606
   9 C :   -0.122809
  10 H :    0.049843
  11 H :    0.040162
  12 C :   -0.056531
  13 H :    0.046400
  14 H :    0.027960
  15 H :    0.023588
  16 S :    0.088690
  17 C :   -0.108092
  18 C :   -0.046403
  19 C :    0.000606
  20 C :   -0.186719
  21 H :    0.003861
  22 C :    0.156555
  23 H :   -0.000104
  24 H :   -0.001255
  25 C :   -0.075959
  26 H :    0.040263
  27 H :    0.038777
  28 C :   -0.076432
  29 H :    0.036041
  30 H :    0.039445
  31 H :    0.033786
  32 H :    0.049840
  33 H :    0.071681
Sum of atomic charges:   -0.0000000

LOEWDIN ATOMIC CHARGES
----------------------
   0 S :    0.412956
   1 C :   -0.207552
   2 C :   -0.055317
   3 C :   -0.062147
   4 C :   -0.198029
   5 H :    0.043785
   6 C :   -0.016256
   7 H :    0.010771
   8 H :    0.028276
   9 C :   -0.048087
  10 H :    0.030558
  11 H :    0.034498
  12 C :   -0.073264
  13 H :    0.032415
  14 H :    0.026146
  15 H :    0.017792
  16 S :    0.367976
  17 C :   -0.190995
  18 C :   -0.078755
  19 C :   -0.051198
  20 C :   -0.175104
  21 H :    0.025306
  22 C :   -0.025022
  23 H :    0.021781
  24 H :    0.029177
  25 C :   -0.031725
  26 H :    0.020942
  27 H :    0.032667
  28 C :   -0.071440
  29 H :    0.023030
  30 H :    0.026659
  31 H :    0.025977
  32 H :    0.029944
  33 H :    0.044237

  Mayer bond orders larger than 0.100000
B(  0-S ,  1-C ) :   1.1374 B(  0-S ,  4-C ) :   1.1490 B(  1-C ,  2-C ) :   1.6269
B(  1-C , 32-H ) :   0.9631 B(  2-C ,  3-C ) :   1.2430 B(  2-C ,  6-C ) :   1.0019
B(  3-C ,  4-C ) :   1.5992 B(  3-C ,  5-H ) :   0.9860 B(  4-C , 20-C ) :   1.0077
B(  6-C ,  7-H ) :   0.9314 B(  6-C ,  8-H ) :   0.9328 B(  6-C ,  9-C ) :   1.0468
B(  9-C , 10-H ) :   0.9649 B(  9-C , 11-H ) :   0.9557 B(  9-C , 12-C ) :   1.0802
B( 12-C , 13-H ) :   0.9748 B( 12-C , 14-H ) :   0.9708 B( 12-C , 15-H ) :   0.9747
B( 16-S , 17-C ) :   1.1256 B( 16-S , 20-C ) :   1.1247 B( 17-C , 18-C ) :   1.6687
B( 17-C , 33-H ) :   0.9600 B( 18-C , 19-C ) :   1.1778 B( 18-C , 21-H ) :   0.9869
B( 19-C , 20-C ) :   1.6439 B( 19-C , 22-C ) :   1.0248 B( 22-C , 23-H ) :   0.9216
B( 22-C , 24-H ) :   0.9270 B( 22-C , 25-C ) :   1.0542 B( 25-C , 26-H ) :   0.9644
B( 25-C , 27-H ) :   0.9578 B( 25-C , 28-C ) :   1.0615 B( 28-C , 29-H ) :   0.9799
B( 28-C , 30-H ) :   0.9793 B( 28-C , 31-H ) :   0.9760

Dispersion correction           -0.014909500
FINAL SINGLE POINT ENERGY     -1339.858372210403

DIPOLE MOMENT
-------------
                                X             Y             Z
Electronic contribution:     12.44194      14.18109      11.20551
Nuclear contribution   :    -12.63715     -14.42357     -11.67805
                        -----------------------------------------
Total Dipole Moment    :     -0.19521      -0.24248      -0.47254
                        -----------------------------------------
Magnitude (a.u.)       :      0.56586
Magnitude (Debye)      :      1.43829

Rotational constants in cm-1:     0.021145     0.007770     0.006956
Rotational constants in MHz :   633.905213   232.925076   208.546374

                             ****ORCA TERMINATED NORMALLY****
TOTAL RUN TIME: 0 days 0 hours 0 minutes 30 seconds 149 msec
