                         Program Version 4.2.1 -  RELEASE  -
|  1> ! wB97X-D3 SP def2-SVP
|  2> %pal
|  3> nprocs 16
|  4> end
|  5>
|  6> * xyz 0 1
|  7> S 	 -29.1982 	 62.8592 	 108.373
|  8> C 	 -28.5372 	 63.9034 	 107.004
|  9> C 	 -29.537 	 64.0994 	 106.051
| 10> C 	 -30.8614 	 63.5971 	 106.508
| 11> C 	 -30.8533 	 62.9095 	 107.691
| 12> H 	 -31.8235 	 63.6247 	 105.922
| 13> C 	 -29.277 	 64.5854 	 104.655
| 14> H 	 -28.5275 	 65.4043 	 104.68
| 15> H 	 -30.2174 	 64.9925 	 104.221
| 16> C 	 -28.7236 	 63.4889 	 103.781
| 17> H 	 -27.7867 	 63.1795 	 104.375
| 18> H 	 -29.3366 	 62.5811 	 103.893
| 19> C 	 -28.2972 	 63.7863 	 102.334
| 20> H 	 -29.1829 	 63.8838 	 101.709
| 21> H 	 -27.7105 	 64.7168 	 102.339
| 22> H 	 -27.6836 	 62.9362 	 101.934
| 23> S 	 -32.2555 	 62.1923 	 109.817
| 24> C 	 -33.5477 	 61.0129 	 109.78
| 25> C 	 -33.5434 	 60.3287 	 108.585
| 26> C 	 -32.7398 	 61.06 	 107.619
| 27> C 	 -31.8984 	 62.0448 	 108.197
| 28> H 	 -34.2069 	 59.4946 	 108.42
| 29> C 	 -32.7125 	 60.6174 	 106.181
| 30> H 	 -31.7751 	 60.9883 	 105.768
| 31> H 	 -33.4848 	 61.2255 	 105.68
| 32> C 	 -32.8676 	 59.0335 	 106.017
| 33> H 	 -33.9122 	 58.8529 	 106.369
| 34> H 	 -32.2136 	 58.437 	 106.699
| 35> C 	 -32.7854 	 58.6232 	 104.544
| 36> H 	 -33.1371 	 57.5912 	 104.384
| 37> H 	 -31.7816 	 58.6742 	 104.175
| 38> H 	 -33.4451 	 59.2609 	 103.978
| 39> H 	 -27.4739 	 64.054 	 106.806
| 40> H 	 -34.057 	 60.7988 	 110.71
| 41> *
| 42>
| 43>                          ****END OF INPUT****

CARTESIAN COORDINATES (ANGSTROEM)
---------------------------------
  S    -29.198200   62.859200  108.373000
  C    -28.537200   63.903400  107.004000
  C    -29.537000   64.099400  106.051000
  C    -30.861400   63.597100  106.508000
  C    -30.853300   62.909500  107.691000
  H    -31.823500   63.624700  105.922000
  C    -29.277000   64.585400  104.655000
  H    -28.527500   65.404300  104.680000
  H    -30.217400   64.992500  104.221000
  C    -28.723600   63.488900  103.781000
  H    -27.786700   63.179500  104.375000
  H    -29.336600   62.581100  103.893000
  C    -28.297200   63.786300  102.334000
  H    -29.182900   63.883800  101.709000
  H    -27.710500   64.716800  102.339000
  H    -27.683600   62.936200  101.934000
  S    -32.255500   62.192300  109.817000
  C    -33.547700   61.012900  109.780000
  C    -33.543400   60.328700  108.585000
  C    -32.739800   61.060000  107.619000
  C    -31.898400   62.044800  108.197000
  H    -34.206900   59.494600  108.420000
  C    -32.712500   60.617400  106.181000
  H    -31.775100   60.988300  105.768000
  H    -33.484800   61.225500  105.680000
  C    -32.867600   59.033500  106.017000
  H    -33.912200   58.852900  106.369000
  H    -32.213600   58.437000  106.699000
  C    -32.785400   58.623200  104.544000
  H    -33.137100   57.591200  104.384000
  H    -31.781600   58.674200  104.175000
  H    -33.445100   59.260900  103.978000
  H    -27.473900   64.054000  106.806000
  H    -34.057000   60.798800  110.710000

 Total Charge           Charge          ....    0
 Multiplicity           Mult            ....    1
 Number of Electrons    NEL             ....  134
 Basis Dimension        Dim             ....  322

ORBITAL ENERGIES
----------------

  NO   OCC          E(Eh)            E(eV)
   0   2.0000     -88.964780     -2420.8547
   1   2.0000     -88.959959     -2420.7236
   2   2.0000     -10.334206      -281.2080
   3   2.0000     -10.324890      -280.9545
   4   2.0000     -10.322477      -280.8889
   5   2.0000     -10.317680      -280.7584
   6   2.0000     -10.312449      -280.6160
   7   2.0000     -10.308234      -280.5013
   8   2.0000     -10.303645      -280.3764
   9   2.0000     -10.298682      -280.2414
  10   2.0000     -10.298510      -280.2367
  11   2.0000     -10.297482      -280.2087
  12   2.0000     -10.293996      -280.1139
  13   2.0000     -10.291752      -280.0528
  14   2.0000     -10.287635      -279.9408
  15   2.0000     -10.277926      -279.6766
  16   2.0000      -8.077666      -219.8045
  17   2.0000      -8.076832      -219.7818
  18   2.0000      -6.036587      -164.2639
  19   2.0000      -6.035145      -164.2246
  20   2.0000      -6.032565      -164.1544
  21   2.0000      -6.030826      -164.1071
  22   2.0000      -6.027933      -164.0284
  23   2.0000      -6.027876      -164.0268
  24   2.0000      -1.010214       -27.4893
  25   2.0000      -0.975153       -26.5353
  26   2.0000      -0.915478       -24.9114
  27   2.0000      -0.904425       -24.6107
  28   2.0000      -0.871398       -23.7119
  29   2.0000      -0.849953       -23.1284
  30   2.0000      -0.838758       -22.8238
  31   2.0000      -0.818273       -22.2663
  32   2.0000      -0.780278       -21.2324
  33   2.0000      -0.766615       -20.8607
  34   2.0000      -0.709180       -19.2978
  35   2.0000      -0.698969       -19.0199
  36   2.0000      -0.693604       -18.8739
  37   2.0000      -0.657108       -17.8808
  38   2.0000      -0.637976       -17.3602
  39   2.0000      -0.613959       -16.7067
  40   2.0000      -0.595271       -16.1981
  41   2.0000      -0.568031       -15.4569
  42   2.0000      -0.564016       -15.3477
  43   2.0000      -0.560959       -15.2645
  44   2.0000      -0.528739       -14.3877
  45   2.0000      -0.524812       -14.2809
  46   2.0000      -0.521096       -14.1797
  47   2.0000      -0.513228       -13.9657
  48   2.0000      -0.508319       -13.8321
  49   2.0000      -0.500586       -13.6216
  50   2.0000      -0.489201       -13.3118
  51   2.0000      -0.478556       -13.0222
  52   2.0000      -0.470981       -12.8160
  53   2.0000      -0.464610       -12.6427
  54   2.0000      -0.456005       -12.4085
  55   2.0000      -0.455355       -12.3908
  56   2.0000      -0.444995       -12.1089
  57   2.0000      -0.440221       -11.9790
  58   2.0000      -0.435297       -11.8450
  59   2.0000      -0.421621       -11.4729
  60   2.0000      -0.419151       -11.4057
  61   2.0000      -0.410680       -11.1752
  62   2.0000      -0.406136       -11.0515
  63   2.0000      -0.351569        -9.5667
  64   2.0000      -0.327125        -8.9015
  65   2.0000      -0.323873        -8.8130
  66   2.0000      -0.293841        -7.9958
  67   0.0000       0.029827         0.8116
  68   0.0000       0.064769         1.7624
  69   0.0000       0.099554         2.7090
  70   0.0000       0.117649         3.2014
  71   0.0000       0.123017         3.3475

MULLIKEN ATOMIC CHARGES
-----------------------
   0 S :    0.080397
   1 C :   -0.116067
   2 C :   -0.112066
   3 C :    0.001392
   4 C :   -0.101292
   5 H :    0.037401
   6 C :    0.063594
   7 H :    0.030090
   8 H :    0.027050
   9 C :   -0.126581
  10 H :    0.018083
  11 H :    0.030189
  12 C :   -0.020088
  13 H :    0.036395
  14 H :    0.034926
  15 H :    0.049731
  16 S :    0.102650
  17 C :   -0.094557
  18 C :   -0.026880
  19 C :   -0.072392
  20 C :   -0.155494
  21 H :    0.028730
  22 C :    0.049677
  23 H :    0.026877
  24 H :    0.041773
  25 C :   -0.127245
  26 H :    0.035168
  27 H :    0.051519
  28 C :   -0.009373
  29 H :    0.032870
  30 H :    0.033689
  31 H :    0.023346
  32 H :    0.065142
  33 H :    0.061349
Sum of atomic charges:   -0.0000000

LOEWDIN ATOMIC CHARGES
----------------------
   0 S :    0.345631
   1 C :   -0.173608
   2 C :   -0.051915
   3 C :   -0.072408
   4 C :   -0.179322
   5 H :    0.041107
   6 C :   -0.039495
   7 H :    0.032954
   8 H :    0.029237
   9 C :   -0.054250
  10 H :    0.026927
  11 H :    0.023297
  12 C :   -0.066045
  13 H :    0.024489
  14 H :    0.027931
  15 H :    0.037267
  16 S :    0.444846
  17 C :   -0.179617
  18 C :   -0.070203
  19 C :   -0.052531
  20 C :   -0.238234
  21 H :    0.033560
  22 C :   -0.037908
  23 H :    0.026068
  24 H :    0.035711
  25 C :   -0.040171
  26 H :    0.024008
  27 H :    0.030873
  28 C :   -0.062325
  29 H :    0.028747
  30 H :    0.022757
  31 H :    0.024076
  32 H :    0.032903
  33 H :    0.025641

  Mayer bond orders larger than 0.100000
B(  0-S ,  1-C ) :   1.0954 B(  0-S ,  4-C ) :   1.1215 B(  1-C ,  2-C ) :   1.6600
B(  1-C , 32-H ) :   0.9639 B(  2-C ,  3-C ) :   1.1782 B(  2-C ,  6-C ) :   1.0423
B(  3-C ,  4-C ) :   1.6277 B(  3-C ,  5-H ) :   0.9875 B(  4-C , 20-C ) :   1.0343
B(  6-C ,  7-H ) :   0.9346 B(  6-C ,  8-H ) :   0.9377 B(  6-C ,  9-C ) :   1.0605
B(  9-C , 10-H ) :   0.9519 B(  9-C , 11-H ) :   0.9537 B(  9-C , 12-C ) :   1.0735
B( 12-C , 13-H ) :   0.9746 B( 12-C , 14-H ) :   0.9720 B( 12-C , 15-H ) :   0.9729
B( 16-S , 17-C ) :   1.1835 B( 16-S , 20-C ) :   1.1663 B( 17-C , 18-C ) :   1.5684
B( 17-C , 33-H ) :   0.9693 B( 18-C , 19-C ) :   1.2547 B( 18-C , 21-H ) :   0.9923
B( 19-C , 20-C ) :   1.5455 B( 19-C , 22-C ) :   1.0418 B( 22-C , 23-H ) :   0.9424
B( 22-C , 24-H ) :   0.9239 B( 22-C , 25-C ) :   1.0544 B( 25-C , 26-H ) :   0.9461
B( 25-C , 27-H ) :   0.9631 B( 25-C , 28-C ) :   1.0845 B( 28-C , 29-H ) :   0.9730
B( 28-C , 30-H ) :   0.9764 B( 28-C , 31-H ) :   0.9714

Dispersion correction           -0.013834143
FINAL SINGLE POINT ENERGY     -1339.872844846908

DIPOLE MOMENT
-------------
                                X             Y             Z
Electronic contribution:     -0.97555       7.42594      30.59856
Nuclear contribution   :      0.78042      -7.79275     -31.38225
                        -----------------------------------------
Total Dipole Moment    :     -0.19513      -0.36682      -0.78369
                        -----------------------------------------
Magnitude (a.u.)       :      0.88701
Magnitude (Debye)      :      2.25461

Rotational constants in cm-1:     0.017066     0.008931     0.006327
Rotational constants in MHz :   511.633003   267.744966   189.668591

                             ****ORCA TERMINATED NORMALLY****
TOTAL RUN TIME: 0 days 0 hours 0 minutes 29 seconds 680 msec
