                         Program Version 4.2.1 -  RELEASE  -
|  1> ! wB97X-D3 SP def2-SVP
|  2> %pal
|  3> nprocs 16
|  4> end
|  5>
|  6> * xyz 0 1
|  7> S 	 7.80093 	 24.5348 	 39.5411
|  8> C 	 6.47997 	 25.2684 	 38.7411
|  9> C 	 5.8275 	 24.4273 	 37.9042
| 10> C 	 6.55524 	 23.1637 	 37.7282
| 11> C 	 7.62967 	 23.0302 	 38.6232
| 12> H 	 6.27458 	 22.3843 	 37.0925
| 13> C 	 4.49429 	 24.6809 	 37.1198
| 14> H 	 4.7423 	 24.2812 	 36.1609
| 15> H 	 4.40631 	 25.7315 	 36.9003
| 16> C 	 3.21985 	 24.075 	 37.8333
| 17> H 	 2.53737 	 23.742 	 37.0179
| 18> H 	 3.37153 	 23.1676 	 38.3504
| 19> C 	 2.4768 	 25.1051 	 38.662
| 20> H 	 2.57589 	 26.19 	 38.3186
| 21> H 	 1.42547 	 24.8209 	 38.6749
| 22> H 	 2.84713 	 25.0865 	 39.6576
| 23> S 	 10.2982 	 22.26 	 38.4342
| 24> C 	 10.6659 	 20.5042 	 38.5624
| 25> C 	 9.59508 	 19.7394 	 39.028
| 26> C 	 8.45497 	 20.5826 	 39.0868
| 27> C 	 8.61054 	 21.9271 	 38.7724
| 28> H 	 9.72627 	 18.7112 	 39.1888
| 29> C 	 7.15723 	 20.0256 	 39.5795
| 30> H 	 6.65973 	 19.4994 	 38.7333
| 31> H 	 6.39394 	 20.7958 	 39.8366
| 32> C 	 7.29847 	 19.0277 	 40.7813
| 33> H 	 7.91438 	 19.4802 	 41.6004
| 34> H 	 7.84391 	 18.1946 	 40.4189
| 35> C 	 5.94627 	 18.5358 	 41.3726
| 36> H 	 5.19504 	 19.3535 	 41.5376
| 37> H 	 6.02088 	 18.0038 	 42.2537
| 38> H 	 5.42065 	 17.8782 	 40.6888
| 39> H 	 6.21401 	 26.2429 	 38.8653
| 40> H 	 11.6948 	 20.0927 	 38.4012
| 41> *
| 42>
| 43>                          ****END OF INPUT****

CARTESIAN COORDINATES (ANGSTROEM)
---------------------------------
  S      7.800930   24.534800   39.541100
  C      6.479970   25.268400   38.741100
  C      5.827500   24.427300   37.904200
  C      6.555240   23.163700   37.728200
  C      7.629670   23.030200   38.623200
  H      6.274580   22.384300   37.092500
  C      4.494290   24.680900   37.119800
  H      4.742300   24.281200   36.160900
  H      4.406310   25.731500   36.900300
  C      3.219850   24.075000   37.833300
  H      2.537370   23.742000   37.017900
  H      3.371530   23.167600   38.350400
  C      2.476800   25.105100   38.662000
  H      2.575890   26.190000   38.318600
  H      1.425470   24.820900   38.674900
  H      2.847130   25.086500   39.657600
  S     10.298200   22.260000   38.434200
  C     10.665900   20.504200   38.562400
  C      9.595080   19.739400   39.028000
  C      8.454970   20.582600   39.086800
  C      8.610540   21.927100   38.772400
  H      9.726270   18.711200   39.188800
  C      7.157230   20.025600   39.579500
  H      6.659730   19.499400   38.733300
  H      6.393940   20.795800   39.836600
  C      7.298470   19.027700   40.781300
  H      7.914380   19.480200   41.600400
  H      7.843910   18.194600   40.418900
  C      5.946270   18.535800   41.372600
  H      5.195040   19.353500   41.537600
  H      6.020880   18.003800   42.253700
  H      5.420650   17.878200   40.688800
  H      6.214010   26.242900   38.865300
  H     11.694800   20.092700   38.401200

 Total Charge           Charge          ....    0
 Multiplicity           Mult            ....    1
 Number of Electrons    NEL             ....  134
 Basis Dimension        Dim             ....  322

ORBITAL ENERGIES
----------------

  NO   OCC          E(Eh)            E(eV)
   0   2.0000     -88.965699     -2420.8798
   1   2.0000     -88.961861     -2420.7753
   2   2.0000     -10.334277      -281.2100
   3   2.0000     -10.327434      -281.0238
   4   2.0000     -10.327248      -281.0187
   5   2.0000     -10.303970      -280.3853
   6   2.0000     -10.301672      -280.3227
   7   2.0000     -10.300580      -280.2930
   8   2.0000     -10.296153      -280.1726
   9   2.0000     -10.295227      -280.1474
  10   2.0000     -10.294804      -280.1358
  11   2.0000     -10.290673      -280.0234
  12   2.0000     -10.289662      -279.9959
  13   2.0000     -10.289483      -279.9911
  14   2.0000     -10.278908      -279.7033
  15   2.0000     -10.275547      -279.6119
  16   2.0000      -8.079728      -219.8606
  17   2.0000      -8.077215      -219.7922
  18   2.0000      -6.038269      -164.3097
  19   2.0000      -6.035729      -164.2405
  20   2.0000      -6.034405      -164.2045
  21   2.0000      -6.031598      -164.1281
  22   2.0000      -6.030409      -164.0958
  23   2.0000      -6.027975      -164.0295
  24   2.0000      -1.001503       -27.2523
  25   2.0000      -0.981990       -26.7213
  26   2.0000      -0.904029       -24.5999
  27   2.0000      -0.900629       -24.5074
  28   2.0000      -0.868965       -23.6458
  29   2.0000      -0.847788       -23.0695
  30   2.0000      -0.844817       -22.9886
  31   2.0000      -0.816644       -22.2220
  32   2.0000      -0.780062       -21.2266
  33   2.0000      -0.768548       -20.9133
  34   2.0000      -0.708358       -19.2754
  35   2.0000      -0.701778       -19.0963
  36   2.0000      -0.695330       -18.9209
  37   2.0000      -0.659638       -17.9497
  38   2.0000      -0.649182       -17.6651
  39   2.0000      -0.617563       -16.8047
  40   2.0000      -0.594139       -16.1673
  41   2.0000      -0.572292       -15.5729
  42   2.0000      -0.557604       -15.1732
  43   2.0000      -0.552642       -15.0381
  44   2.0000      -0.537484       -14.6257
  45   2.0000      -0.519844       -14.1457
  46   2.0000      -0.518077       -14.0976
  47   2.0000      -0.512533       -13.9467
  48   2.0000      -0.503267       -13.6946
  49   2.0000      -0.497747       -13.5444
  50   2.0000      -0.483013       -13.1435
  51   2.0000      -0.476931       -12.9780
  52   2.0000      -0.470587       -12.8053
  53   2.0000      -0.465481       -12.6664
  54   2.0000      -0.456608       -12.4249
  55   2.0000      -0.451019       -12.2729
  56   2.0000      -0.447045       -12.1647
  57   2.0000      -0.437643       -11.9089
  58   2.0000      -0.430694       -11.7198
  59   2.0000      -0.429052       -11.6751
  60   2.0000      -0.425238       -11.5713
  61   2.0000      -0.414007       -11.2657
  62   2.0000      -0.404790       -11.0149
  63   2.0000      -0.344489        -9.3740
  64   2.0000      -0.327675        -8.9165
  65   2.0000      -0.324758        -8.8371
  66   2.0000      -0.297282        -8.0894
  67   0.0000       0.034048         0.9265
  68   0.0000       0.065889         1.7929
  69   0.0000       0.112821         3.0700
  70   0.0000       0.123802         3.3688
  71   0.0000       0.131273         3.5721

MULLIKEN ATOMIC CHARGES
-----------------------
   0 S :    0.104374
   1 C :   -0.074096
   2 C :   -0.121336
   3 C :    0.067460
   4 C :   -0.171033
   5 H :   -0.008472
   6 C :    0.086234
   7 H :    0.017708
   8 H :    0.015022
   9 C :   -0.046953
  10 H :    0.027020
  11 H :    0.025175
  12 C :   -0.056954
  13 H :    0.039778
  14 H :    0.036907
  15 H :    0.032389
  16 S :    0.103689
  17 C :   -0.116331
  18 C :   -0.015461
  19 C :   -0.012029
  20 C :   -0.140546
  21 H :    0.013378
  22 C :    0.033375
  23 H :    0.031843
  24 H :    0.033048
  25 C :   -0.097060
  26 H :    0.046496
  27 H :    0.024491
  28 C :   -0.024372
  29 H :    0.030441
  30 H :    0.021388
  31 H :    0.018325
  32 H :    0.004637
  33 H :    0.071464
Sum of atomic charges:   -0.0000000

LOEWDIN ATOMIC CHARGES
----------------------
   0 S :    0.405984
   1 C :   -0.195016
   2 C :   -0.061684
   3 C :   -0.050247
   4 C :   -0.187928
   5 H :    0.020557
   6 C :   -0.022693
   7 H :    0.026824
   8 H :    0.026126
   9 C :   -0.037161
  10 H :    0.027726
  11 H :    0.021536
  12 C :   -0.067237
  13 H :    0.032773
  14 H :    0.028346
  15 H :    0.021618
  16 S :    0.388761
  17 C :   -0.164096
  18 C :   -0.065346
  19 C :   -0.052999
  20 C :   -0.209334
  21 H :    0.029551
  22 C :   -0.039120
  23 H :    0.033202
  24 H :    0.030858
  25 C :   -0.037295
  26 H :    0.031012
  27 H :    0.014897
  28 C :   -0.064074
  29 H :    0.030474
  30 H :    0.016087
  31 H :    0.023356
  32 H :    0.009306
  33 H :    0.035236

  Mayer bond orders larger than 0.100000
B(  0-S ,  1-C ) :   1.1385 B(  0-S ,  4-C ) :   1.1479 B(  1-C ,  2-C ) :   1.6377
B(  1-C , 32-H ) :   0.9779 B(  2-C ,  3-C ) :   1.2203 B(  2-C ,  6-C ) :   1.0089
B(  3-C ,  4-C ) :   1.5895 B(  3-C ,  5-H ) :   1.0014 B(  4-C , 20-C ) :   1.0181
B(  6-C ,  7-H ) :   0.9436 B(  6-C ,  8-H ) :   0.9502 B(  6-C ,  9-C ) :   1.0419
B(  9-C , 10-H ) :   0.9618 B(  9-C , 11-H ) :   0.9610 B(  9-C , 12-C ) :   1.0709
B( 12-C , 13-H ) :   0.9781 B( 12-C , 14-H ) :   0.9754 B( 12-C , 15-H ) :   0.9771
B( 16-S , 17-C ) :   1.1678 B( 16-S , 20-C ) :   1.1204 B( 17-C , 18-C ) :   1.6021
B( 17-C , 33-H ) :   0.9584 B( 18-C , 19-C ) :   1.2198 B( 18-C , 21-H ) :   1.0035
B( 19-C , 20-C ) :   1.6130 B( 19-C , 22-C ) :   1.0473 B( 22-C , 23-H ) :   0.9272
B( 22-C , 24-H ) :   0.9424 B( 22-C , 25-C ) :   1.0550 B( 25-C , 26-H ) :   0.9634
B( 25-C , 27-H ) :   0.9479 B( 25-C , 28-C ) :   1.0834 B( 28-C , 29-H ) :   0.9757
B( 28-C , 30-H ) :   0.9753 B( 28-C , 31-H ) :   0.9734

Dispersion correction           -0.013713156
FINAL SINGLE POINT ENERGY     -1339.867268605310

DIPOLE MOMENT
-------------
                                X             Y             Z
Electronic contribution:     27.03795       9.39122      -3.43463
Nuclear contribution   :    -27.58508      -9.83204       3.31170
                        -----------------------------------------
Total Dipole Moment    :     -0.54713      -0.44081      -0.12294
                        -----------------------------------------
Magnitude (a.u.)       :      0.71329
Magnitude (Debye)      :      1.81304

Rotational constants in cm-1:     0.017849     0.008275     0.006303
Rotational constants in MHz :   535.098691   248.067901   188.962123

                             ****ORCA TERMINATED NORMALLY****
TOTAL RUN TIME: 0 days 0 hours 0 minutes 33 seconds 553 msec
