                         Program Version 4.2.1 -  RELEASE  -
|  1> ! wB97X-D3 SP def2-SVP
|  2> %pal
|  3> nprocs 16
|  4> end
|  5>
|  6> * xyz 0 1
|  7> S 	 9.89742 	 -6.66316 	 99.9523
|  8> C 	 8.67061 	 -7.83269 	 100.193
|  9> C 	 8.341 	 -8.59521 	 99.0916
| 10> C 	 9.22315 	 -8.28108 	 98.02
| 11> C 	 10.0986 	 -7.22905 	 98.2686
| 12> H 	 9.17734 	 -8.55946 	 96.9922
| 13> C 	 7.34676 	 -9.73344 	 99.0639
| 14> H 	 7.61338 	 -10.2202 	 99.9634
| 15> H 	 7.50166 	 -10.2924 	 98.1261
| 16> C 	 5.80876 	 -9.3293 	 99.1977
| 17> H 	 5.18409 	 -10.2199 	 99.3336
| 18> H 	 5.65747 	 -8.58359 	 100.064
| 19> C 	 5.21804 	 -8.58751 	 98.0155
| 20> H 	 5.76002 	 -7.6499 	 97.8019
| 21> H 	 5.16022 	 -9.21137 	 97.1755
| 22> H 	 4.23543 	 -8.22146 	 98.3708
| 23> S 	 11.1944 	 -4.75323 	 97.5344
| 24> C 	 11.661 	 -4.5163 	 95.829
| 25> C 	 11.8809 	 -5.74919 	 95.2524
| 26> C 	 11.5441 	 -6.89419 	 96.0912
| 27> C 	 10.923 	 -6.49706 	 97.3153
| 28> H 	 12.1633 	 -5.82352 	 94.2121
| 29> C 	 11.3892 	 -8.31904 	 95.5415
| 30> H 	 10.4294 	 -8.34053 	 95.0306
| 31> H 	 11.2724 	 -8.96469 	 96.3826
| 32> C 	 12.4988 	 -8.88559 	 94.5666
| 33> H 	 13.4704 	 -8.79038 	 95.036
| 34> H 	 12.5176 	 -8.37399 	 93.6008
| 35> C 	 12.0985 	 -10.3595 	 94.1606
| 36> H 	 12.66 	 -10.8726 	 93.2986
| 37> H 	 11.0177 	 -10.22 	 93.7537
| 38> H 	 12.0767 	 -11.069 	 94.9933
| 39> H 	 8.15133 	 -7.89809 	 101.09
| 40> H 	 12.2412 	 -3.69107 	 95.4845
| 41> *
| 42>
| 43>                          ****END OF INPUT****

CARTESIAN COORDINATES (ANGSTROEM)
---------------------------------
  S      9.897420   -6.663160   99.952300
  C      8.670610   -7.832690  100.193000
  C      8.341000   -8.595210   99.091600
  C      9.223150   -8.281080   98.020000
  C     10.098600   -7.229050   98.268600
  H      9.177340   -8.559460   96.992200
  C      7.346760   -9.733440   99.063900
  H      7.613380  -10.220200   99.963400
  H      7.501660  -10.292400   98.126100
  C      5.808760   -9.329300   99.197700
  H      5.184090  -10.219900   99.333600
  H      5.657470   -8.583590  100.064000
  C      5.218040   -8.587510   98.015500
  H      5.760020   -7.649900   97.801900
  H      5.160220   -9.211370   97.175500
  H      4.235430   -8.221460   98.370800
  S     11.194400   -4.753230   97.534400
  C     11.661000   -4.516300   95.829000
  C     11.880900   -5.749190   95.252400
  C     11.544100   -6.894190   96.091200
  C     10.923000   -6.497060   97.315300
  H     12.163300   -5.823520   94.212100
  C     11.389200   -8.319040   95.541500
  H     10.429400   -8.340530   95.030600
  H     11.272400   -8.964690   96.382600
  C     12.498800   -8.885590   94.566600
  H     13.470400   -8.790380   95.036000
  H     12.517600   -8.373990   93.600800
  C     12.098500  -10.359500   94.160600
  H     12.660000  -10.872600   93.298600
  H     11.017700  -10.220000   93.753700
  H     12.076700  -11.069000   94.993300
  H      8.151330   -7.898090  101.090000
  H     12.241200   -3.691070   95.484500

 Total Charge           Charge          ....    0
 Multiplicity           Mult            ....    1
 Number of Electrons    NEL             ....  134
 Basis Dimension        Dim             ....  322

ORBITAL ENERGIES
----------------

  NO   OCC          E(Eh)            E(eV)
   0   2.0000     -88.969802     -2420.9914
   1   2.0000     -88.962428     -2420.7907
   2   2.0000     -10.337473      -281.2969
   3   2.0000     -10.335277      -281.2372
   4   2.0000     -10.315774      -280.7065
   5   2.0000     -10.311104      -280.5794
   6   2.0000     -10.310161      -280.5537
   7   2.0000     -10.303813      -280.3810
   8   2.0000     -10.298918      -280.2478
   9   2.0000     -10.297543      -280.2104
  10   2.0000     -10.297491      -280.2090
  11   2.0000     -10.297184      -280.2006
  12   2.0000     -10.296597      -280.1846
  13   2.0000     -10.296447      -280.1806
  14   2.0000     -10.295606      -280.1577
  15   2.0000     -10.274036      -279.5707
  16   2.0000      -8.084708      -219.9961
  17   2.0000      -8.076397      -219.7699
  18   2.0000      -6.043109      -164.4414
  19   2.0000      -6.039264      -164.3367
  20   2.0000      -6.035510      -164.2346
  21   2.0000      -6.035121      -164.2240
  22   2.0000      -6.031086      -164.1142
  23   2.0000      -6.026884      -163.9998
  24   2.0000      -1.005132       -27.3510
  25   2.0000      -0.979353       -26.6495
  26   2.0000      -0.909232       -24.7415
  27   2.0000      -0.900583       -24.5061
  28   2.0000      -0.871806       -23.7230
  29   2.0000      -0.857083       -23.3224
  30   2.0000      -0.839672       -22.8486
  31   2.0000      -0.819417       -22.2975
  32   2.0000      -0.781990       -21.2790
  33   2.0000      -0.765146       -20.8207
  34   2.0000      -0.706863       -19.2347
  35   2.0000      -0.704516       -19.1709
  36   2.0000      -0.694537       -18.8993
  37   2.0000      -0.657594       -17.8940
  38   2.0000      -0.644152       -17.5283
  39   2.0000      -0.614733       -16.7277
  40   2.0000      -0.588873       -16.0241
  41   2.0000      -0.577513       -15.7149
  42   2.0000      -0.569149       -15.4873
  43   2.0000      -0.550925       -14.9914
  44   2.0000      -0.544218       -14.8089
  45   2.0000      -0.526689       -14.3319
  46   2.0000      -0.518764       -14.1163
  47   2.0000      -0.513500       -13.9730
  48   2.0000      -0.503654       -13.7051
  49   2.0000      -0.491647       -13.3784
  50   2.0000      -0.484991       -13.1973
  51   2.0000      -0.482986       -13.1427
  52   2.0000      -0.472973       -12.8702
  53   2.0000      -0.464392       -12.6367
  54   2.0000      -0.455451       -12.3934
  55   2.0000      -0.448436       -12.2026
  56   2.0000      -0.444149       -12.0859
  57   2.0000      -0.435056       -11.8385
  58   2.0000      -0.431011       -11.7284
  59   2.0000      -0.426984       -11.6188
  60   2.0000      -0.425845       -11.5878
  61   2.0000      -0.422429       -11.4949
  62   2.0000      -0.408778       -11.1234
  63   2.0000      -0.360039        -9.7972
  64   2.0000      -0.335259        -9.1229
  65   2.0000      -0.324485        -8.8297
  66   2.0000      -0.283517        -7.7149
  67   0.0000       0.012031         0.3274
  68   0.0000       0.073500         2.0000
  69   0.0000       0.097196         2.6448
  70   0.0000       0.114511         3.1160
  71   0.0000       0.131331         3.5737

MULLIKEN ATOMIC CHARGES
-----------------------
   0 S :    0.117284
   1 C :   -0.091430
   2 C :   -0.087869
   3 C :    0.004704
   4 C :   -0.144520
   5 H :   -0.001641
   6 C :    0.104630
   7 H :    0.033716
   8 H :    0.032062
   9 C :   -0.119850
  10 H :    0.039130
  11 H :    0.036468
  12 C :   -0.041780
  13 H :    0.040220
  14 H :    0.025134
  15 H :    0.033192
  16 S :    0.074450
  17 C :   -0.068278
  18 C :   -0.064525
  19 C :   -0.021085
  20 C :   -0.130792
  21 H :    0.029717
  22 C :   -0.017462
  23 H :    0.049547
  24 H :    0.030498
  25 C :   -0.042929
  26 H :    0.042376
  27 H :    0.036749
  28 C :   -0.114710
  29 H :    0.053679
  30 H :    0.034553
  31 H :    0.042514
  32 H :    0.020691
  33 H :    0.065557
Sum of atomic charges:    0.0000000

LOEWDIN ATOMIC CHARGES
----------------------
   0 S :    0.409026
   1 C :   -0.190243
   2 C :   -0.063878
   3 C :   -0.059324
   4 C :   -0.179885
   5 H :    0.027522
   6 C :   -0.026655
   7 H :    0.033296
   8 H :    0.034463
   9 C :   -0.043370
  10 H :    0.024753
  11 H :    0.030592
  12 C :   -0.065792
  13 H :    0.029068
  14 H :    0.013460
  15 H :    0.031591
  16 S :    0.370344
  17 C :   -0.184595
  18 C :   -0.064455
  19 C :   -0.060817
  20 C :   -0.179264
  21 H :    0.030565
  22 C :   -0.036002
  23 H :    0.030876
  24 H :    0.025960
  25 C :   -0.036140
  26 H :    0.023890
  27 H :    0.025331
  28 C :   -0.080773
  29 H :    0.033876
  30 H :    0.032735
  31 H :    0.021269
  32 H :    0.012681
  33 H :    0.029895

  Mayer bond orders larger than 0.100000
B(  0-S ,  1-C ) :   1.1599 B(  0-S ,  4-C ) :   1.1334 B(  1-C ,  2-C ) :   1.6025
B(  1-C , 32-H ) :   0.9694 B(  2-C ,  3-C ) :   1.2400 B(  2-C ,  6-C ) :   1.0029
B(  3-C ,  4-C ) :   1.5675 B(  3-C ,  5-H ) :   0.9853 B(  4-C , 20-C ) :   1.0973
B(  6-C ,  7-H ) :   0.9368 B(  6-C ,  8-H ) :   0.9467 B(  6-C ,  9-C ) :   1.0600
B(  9-C , 10-H ) :   0.9587 B(  9-C , 11-H ) :   0.9616 B(  9-C , 12-C ) :   1.0786
B( 12-C , 13-H ) :   0.9746 B( 12-C , 14-H ) :   0.9771 B( 12-C , 15-H ) :   0.9722
B( 16-S , 17-C ) :   1.1265 B( 16-S , 20-C ) :   1.1352 B( 17-C , 18-C ) :   1.6332
B( 17-C , 33-H ) :   0.9594 B( 18-C , 19-C ) :   1.2385 B( 18-C , 21-H ) :   0.9844
B( 19-C , 20-C ) :   1.5424 B( 19-C , 22-C ) :   1.0539 B( 22-C , 23-H ) :   0.9335
B( 22-C , 24-H ) :   0.9341 B( 22-C , 25-C ) :   1.0493 B( 25-C , 26-H ) :   0.9622
B( 25-C , 27-H ) :   0.9546 B( 25-C , 28-C ) :   1.0616 B( 28-C , 29-H ) :   0.9762
B( 28-C , 30-H ) :   0.9733 B( 28-C , 31-H ) :   0.9790

Dispersion correction           -0.013562702
FINAL SINGLE POINT ENERGY     -1339.858090323050

DIPOLE MOMENT
-------------
                                X             Y             Z
Electronic contribution:     11.33137      21.71054      13.95224
Nuclear contribution   :    -11.65620     -22.28723     -14.32246
                        -----------------------------------------
Total Dipole Moment    :     -0.32482      -0.57669      -0.37023
                        -----------------------------------------
Magnitude (a.u.)       :      0.75838
Magnitude (Debye)      :      1.92766

Rotational constants in cm-1:     0.016332     0.008584     0.006504
Rotational constants in MHz :   489.629290   257.339292   194.998630

                             ****ORCA TERMINATED NORMALLY****
TOTAL RUN TIME: 0 days 0 hours 0 minutes 33 seconds 206 msec
