                         Program Version 4.2.1 -  RELEASE  -
|  1> ! wB97X-D3 SP def2-SVP
|  2> %pal
|  3> nprocs 16
|  4> end
|  5>
|  6> * xyz 0 1
|  7> S 	 44.2322 	 18.7274 	 86.8879
|  8> C 	 42.7016 	 19.4376 	 87.1491
|  9> C 	 41.8297 	 18.9767 	 86.1842
| 10> C 	 42.4687 	 18.1324 	 85.2256
| 11> C 	 43.7354 	 17.8585 	 85.5241
| 12> H 	 42.0773 	 17.6485 	 84.374
| 13> C 	 40.4159 	 19.53 	 86.0034
| 14> H 	 39.848 	 18.6335 	 85.8522
| 15> H 	 40.3909 	 19.9906 	 84.9978
| 16> C 	 39.9121 	 20.5666 	 87.0095
| 17> H 	 40.0951 	 20.1821 	 88.0119
| 18> H 	 40.4541 	 21.4223 	 86.8274
| 19> C 	 38.4275 	 20.9836 	 86.7984
| 20> H 	 38.2177 	 21.4608 	 85.8258
| 21> H 	 37.8792 	 20.0523 	 87.0264
| 22> H 	 38.2668 	 21.7799 	 87.5753
| 23> S 	 46.3804 	 17.6655 	 84.4133
| 24> C 	 46.6894 	 16.4252 	 83.2199
| 25> C 	 45.7397 	 15.4039 	 83.2067
| 26> C 	 44.6147 	 15.8038 	 83.9582
| 27> C 	 44.6608 	 17.0544 	 84.6129
| 28> H 	 45.907 	 14.5461 	 82.5629
| 29> C 	 43.3425 	 15.0148 	 83.847
| 30> H 	 43.474 	 14.1798 	 83.2412
| 31> H 	 42.6839 	 15.715 	 83.2423
| 32> C 	 42.8423 	 14.4477 	 85.2291
| 33> H 	 42.6574 	 15.2672 	 85.9786
| 34> H 	 43.5613 	 13.8269 	 85.7514
| 35> C 	 41.5092 	 13.6862 	 85.0125
| 36> H 	 41.6131 	 12.8212 	 84.4504
| 37> H 	 40.7347 	 14.3741 	 84.6607
| 38> H 	 41.0994 	 13.3472 	 86.0092
| 39> H 	 42.3668 	 20.1765 	 87.8644
| 40> H 	 47.6468 	 16.2547 	 82.7221
| 41> *
| 42>
| 43>                          ****END OF INPUT****

CARTESIAN COORDINATES (ANGSTROEM)
---------------------------------
  S     44.232200   18.727400   86.887900
  C     42.701600   19.437600   87.149100
  C     41.829700   18.976700   86.184200
  C     42.468700   18.132400   85.225600
  C     43.735400   17.858500   85.524100
  H     42.077300   17.648500   84.374000
  C     40.415900   19.530000   86.003400
  H     39.848000   18.633500   85.852200
  H     40.390900   19.990600   84.997800
  C     39.912100   20.566600   87.009500
  H     40.095100   20.182100   88.011900
  H     40.454100   21.422300   86.827400
  C     38.427500   20.983600   86.798400
  H     38.217700   21.460800   85.825800
  H     37.879200   20.052300   87.026400
  H     38.266800   21.779900   87.575300
  S     46.380400   17.665500   84.413300
  C     46.689400   16.425200   83.219900
  C     45.739700   15.403900   83.206700
  C     44.614700   15.803800   83.958200
  C     44.660800   17.054400   84.612900
  H     45.907000   14.546100   82.562900
  C     43.342500   15.014800   83.847000
  H     43.474000   14.179800   83.241200
  H     42.683900   15.715000   83.242300
  C     42.842300   14.447700   85.229100
  H     42.657400   15.267200   85.978600
  H     43.561300   13.826900   85.751400
  C     41.509200   13.686200   85.012500
  H     41.613100   12.821200   84.450400
  H     40.734700   14.374100   84.660700
  H     41.099400   13.347200   86.009200
  H     42.366800   20.176500   87.864400
  H     47.646800   16.254700   82.722100

 Total Charge           Charge          ....    0
 Multiplicity           Mult            ....    1
 Number of Electrons    NEL             ....  134
 Basis Dimension        Dim             ....  322

ORBITAL ENERGIES
----------------

  NO   OCC          E(Eh)            E(eV)
   0   2.0000     -88.965390     -2420.8713
   1   2.0000     -88.963855     -2420.8296
   2   2.0000     -10.338166      -281.3158
   3   2.0000     -10.326200      -280.9902
   4   2.0000     -10.320445      -280.8336
   5   2.0000     -10.307243      -280.4743
   6   2.0000     -10.306562      -280.4558
   7   2.0000     -10.298276      -280.2303
   8   2.0000     -10.295566      -280.1566
   9   2.0000     -10.291221      -280.0384
  10   2.0000     -10.289632      -279.9951
  11   2.0000     -10.289625      -279.9949
  12   2.0000     -10.289373      -279.9881
  13   2.0000     -10.285133      -279.8727
  14   2.0000     -10.282497      -279.8010
  15   2.0000     -10.275039      -279.5980
  16   2.0000      -8.080233      -219.8743
  17   2.0000      -8.078887      -219.8377
  18   2.0000      -6.038739      -164.3225
  19   2.0000      -6.037396      -164.2859
  20   2.0000      -6.034430      -164.2052
  21   2.0000      -6.033662      -164.1843
  22   2.0000      -6.030961      -164.1108
  23   2.0000      -6.029631      -164.0746
  24   2.0000      -1.014696       -27.6113
  25   2.0000      -0.983358       -26.7585
  26   2.0000      -0.913509       -24.8578
  27   2.0000      -0.902622       -24.5616
  28   2.0000      -0.865700       -23.5569
  29   2.0000      -0.854229       -23.2448
  30   2.0000      -0.847263       -23.0552
  31   2.0000      -0.817476       -22.2447
  32   2.0000      -0.779209       -21.2034
  33   2.0000      -0.767068       -20.8730
  34   2.0000      -0.714735       -19.4489
  35   2.0000      -0.703605       -19.1461
  36   2.0000      -0.683962       -18.6115
  37   2.0000      -0.661980       -18.0134
  38   2.0000      -0.643791       -17.5184
  39   2.0000      -0.611161       -16.6305
  40   2.0000      -0.588023       -16.0009
  41   2.0000      -0.581292       -15.8178
  42   2.0000      -0.574148       -15.6234
  43   2.0000      -0.560718       -15.2579
  44   2.0000      -0.525553       -14.3010
  45   2.0000      -0.521150       -14.1812
  46   2.0000      -0.517785       -14.0896
  47   2.0000      -0.512167       -13.9368
  48   2.0000      -0.507155       -13.8004
  49   2.0000      -0.500985       -13.6325
  50   2.0000      -0.487552       -13.2670
  51   2.0000      -0.485744       -13.2178
  52   2.0000      -0.477856       -13.0031
  53   2.0000      -0.464354       -12.6357
  54   2.0000      -0.460138       -12.5210
  55   2.0000      -0.451588       -12.2883
  56   2.0000      -0.441016       -12.0007
  57   2.0000      -0.436600       -11.8805
  58   2.0000      -0.435080       -11.8391
  59   2.0000      -0.426408       -11.6031
  60   2.0000      -0.415576       -11.3084
  61   2.0000      -0.412895       -11.2354
  62   2.0000      -0.405235       -11.0270
  63   2.0000      -0.351641        -9.5686
  64   2.0000      -0.331513        -9.0209
  65   2.0000      -0.325286        -8.8515
  66   2.0000      -0.291106        -7.9214
  67   0.0000       0.028753         0.7824
  68   0.0000       0.073188         1.9916
  69   0.0000       0.113337         3.0840
  70   0.0000       0.125711         3.4208
  71   0.0000       0.131548         3.5796

MULLIKEN ATOMIC CHARGES
-----------------------
   0 S :    0.114477
   1 C :   -0.122569
   2 C :   -0.100569
   3 C :    0.010597
   4 C :   -0.093226
   5 H :   -0.017753
   6 C :    0.069048
   7 H :    0.017042
   8 H :    0.029973
   9 C :   -0.087741
  10 H :    0.039837
  11 H :    0.019994
  12 C :   -0.055942
  13 H :    0.045865
  14 H :    0.046020
  15 H :    0.042146
  16 S :    0.086155
  17 C :   -0.090001
  18 C :   -0.041841
  19 C :   -0.033520
  20 C :   -0.143465
  21 H :    0.028788
  22 C :    0.042102
  23 H :   -0.005817
  24 H :    0.055792
  25 C :   -0.096527
  26 H :    0.050263
  27 H :    0.032882
  28 C :   -0.033991
  29 H :    0.023763
  30 H :    0.031401
  31 H :    0.027849
  32 H :    0.048063
  33 H :    0.060906
Sum of atomic charges:    0.0000000

LOEWDIN ATOMIC CHARGES
----------------------
   0 S :    0.439117
   1 C :   -0.222146
   2 C :   -0.060879
   3 C :   -0.069330
   4 C :   -0.205300
   5 H :    0.024069
   6 C :   -0.035878
   7 H :    0.025413
   8 H :    0.036227
   9 C :   -0.039816
  10 H :    0.024148
  11 H :    0.015242
  12 C :   -0.062144
  13 H :    0.028582
  14 H :    0.029989
  15 H :    0.033139
  16 S :    0.371222
  17 C :   -0.176871
  18 C :   -0.078309
  19 C :   -0.054200
  20 C :   -0.171215
  21 H :    0.037657
  22 C :   -0.033571
  23 H :    0.017149
  24 H :    0.042322
  25 C :   -0.038476
  26 H :    0.030848
  27 H :    0.025462
  28 C :   -0.064662
  29 H :    0.011833
  30 H :    0.026224
  31 H :    0.030631
  32 H :    0.032725
  33 H :    0.030797

  Mayer bond orders larger than 0.100000
B(  0-S ,  1-C ) :   1.1322 B(  0-S ,  4-C ) :   1.1594 B(  1-C ,  2-C ) :   1.6209
B(  1-C , 32-H ) :   0.9594 B(  2-C ,  3-C ) :   1.2336 B(  2-C ,  6-C ) :   1.0083
B(  3-C ,  4-C ) :   1.5840 B(  3-C ,  5-H ) :   1.0095 B(  4-C , 20-C ) :   1.0145
B(  6-C ,  7-H ) :   0.9331 B(  6-C ,  8-H ) :   0.9389 B(  6-C ,  9-C ) :   1.0741
B(  9-C , 10-H ) :   0.9539 B(  9-C , 11-H ) :   0.9461 B(  9-C , 12-C ) :   1.0832
B( 12-C , 13-H ) :   0.9747 B( 12-C , 14-H ) :   0.9782 B( 12-C , 15-H ) :   0.9747
B( 16-S , 17-C ) :   1.1786 B( 16-S , 20-C ) :   1.1086 B( 17-C , 18-C ) :   1.6001
B( 17-C , 20-C ) :   0.1074 B( 17-C , 33-H ) :   0.9584 B( 18-C , 19-C ) :   1.2535
B( 18-C , 21-H ) :   0.9924 B( 19-C , 20-C ) :   1.5869 B( 19-C , 22-C ) :   1.0337
B( 22-C , 23-H ) :   0.9336 B( 22-C , 24-H ) :   0.9459 B( 22-C , 25-C ) :   1.0378
B( 25-C , 26-H ) :   0.9591 B( 25-C , 27-H ) :   0.9574 B( 25-C , 28-C ) :   1.0841
B( 28-C , 29-H ) :   0.9767 B( 28-C , 30-H ) :   0.9757 B( 28-C , 31-H ) :   0.9730

Dispersion correction           -0.013952955
FINAL SINGLE POINT ENERGY     -1339.853466665909

DIPOLE MOMENT
-------------
                                X             Y             Z
Electronic contribution:     28.79329       4.37283      -1.09294
Nuclear contribution   :    -29.34490      -4.57746       0.82326
                        -----------------------------------------
Total Dipole Moment    :     -0.55161      -0.20462      -0.26967
                        -----------------------------------------
Magnitude (a.u.)       :      0.64720
Magnitude (Debye)      :      1.64505

Rotational constants in cm-1:     0.020336     0.007804     0.006192
Rotational constants in MHz :   609.669283   233.954587   185.633607

                             ****ORCA TERMINATED NORMALLY****
TOTAL RUN TIME: 0 days 0 hours 0 minutes 29 seconds 953 msec
