                         Program Version 4.2.1 -  RELEASE  -
|  1> ! wB97X-D3 SP def2-SVP
|  2> %pal
|  3> nprocs 16
|  4> end
|  5>
|  6> * xyz 0 1
|  7> S 	 5.73774 	 26.1971 	 68.7021
|  8> C 	 5.26212 	 25.328 	 67.208
|  9> C 	 5.99781 	 24.1229 	 67.0883
| 10> C 	 6.88452 	 23.9373 	 68.1554
| 11> C 	 6.82561 	 24.8826 	 69.1529
| 12> H 	 7.49418 	 23.1026 	 68.2301
| 13> C 	 6.11855 	 23.0994 	 65.8855
| 14> H 	 7.13571 	 23.0274 	 65.5406
| 15> H 	 5.72472 	 23.5263 	 64.9813
| 16> C 	 5.3545 	 21.8237 	 66.0565
| 17> H 	 5.54787 	 21.2796 	 65.1538
| 18> H 	 5.72026 	 21.2372 	 66.9363
| 19> C 	 3.8568 	 22.0212 	 66.157
| 20> H 	 3.20331 	 21.1192 	 66.1077
| 21> H 	 3.54552 	 22.6797 	 66.975
| 22> H 	 3.65981 	 22.5654 	 65.2199
| 23> S 	 7.50561 	 23.4626 	 71.5444
| 24> C 	 8.65101 	 24.2059 	 72.6925
| 25> C 	 9.01154 	 25.4212 	 72.2035
| 26> C 	 8.38467 	 25.8409 	 70.9862
| 27> C 	 7.54453 	 24.8935 	 70.4591
| 28> H 	 9.75948 	 25.9751 	 72.7538
| 29> C 	 8.77462 	 27.1503 	 70.3115
| 30> H 	 9.17864 	 27.806 	 71.0313
| 31> H 	 7.8029 	 27.616 	 70.0045
| 32> C 	 9.86306 	 26.9154 	 69.245
| 33> H 	 10.0919 	 27.904 	 68.8536
| 34> H 	 9.34792 	 26.3804 	 68.46
| 35> C 	 11.1774 	 26.1667 	 69.6322
| 36> H 	 11.0288 	 25.1952 	 70.0971
| 37> H 	 11.8344 	 26.697 	 70.343
| 38> H 	 11.7914 	 26.0365 	 68.778
| 39> H 	 4.40499 	 25.5595 	 66.5729
| 40> H 	 9.12161 	 23.7184 	 73.5514
| 41> *
| 42>
| 43>                          ****END OF INPUT****

CARTESIAN COORDINATES (ANGSTROEM)
---------------------------------
  S      5.737740   26.197100   68.702100
  C      5.262120   25.328000   67.208000
  C      5.997810   24.122900   67.088300
  C      6.884520   23.937300   68.155400
  C      6.825610   24.882600   69.152900
  H      7.494180   23.102600   68.230100
  C      6.118550   23.099400   65.885500
  H      7.135710   23.027400   65.540600
  H      5.724720   23.526300   64.981300
  C      5.354500   21.823700   66.056500
  H      5.547870   21.279600   65.153800
  H      5.720260   21.237200   66.936300
  C      3.856800   22.021200   66.157000
  H      3.203310   21.119200   66.107700
  H      3.545520   22.679700   66.975000
  H      3.659810   22.565400   65.219900
  S      7.505610   23.462600   71.544400
  C      8.651010   24.205900   72.692500
  C      9.011540   25.421200   72.203500
  C      8.384670   25.840900   70.986200
  C      7.544530   24.893500   70.459100
  H      9.759480   25.975100   72.753800
  C      8.774620   27.150300   70.311500
  H      9.178640   27.806000   71.031300
  H      7.802900   27.616000   70.004500
  C      9.863060   26.915400   69.245000
  H     10.091900   27.904000   68.853600
  H      9.347920   26.380400   68.460000
  C     11.177400   26.166700   69.632200
  H     11.028800   25.195200   70.097100
  H     11.834400   26.697000   70.343000
  H     11.791400   26.036500   68.778000
  H      4.404990   25.559500   66.572900
  H      9.121610   23.718400   73.551400

 Total Charge           Charge          ....    0
 Multiplicity           Mult            ....    1
 Number of Electrons    NEL             ....  134
 Basis Dimension        Dim             ....  322

ORBITAL ENERGIES
----------------

  NO   OCC          E(Eh)            E(eV)
   0   2.0000     -88.972323     -2421.0600
   1   2.0000     -88.963310     -2420.8147
   2   2.0000     -10.335034      -281.2306
   3   2.0000     -10.330725      -281.1133
   4   2.0000     -10.324359      -280.9401
   5   2.0000     -10.319268      -280.8016
   6   2.0000     -10.307030      -280.4686
   7   2.0000     -10.299956      -280.2761
   8   2.0000     -10.294315      -280.1226
   9   2.0000     -10.290931      -280.0305
  10   2.0000     -10.289096      -279.9805
  11   2.0000     -10.286961      -279.9225
  12   2.0000     -10.285528      -279.8835
  13   2.0000     -10.285523      -279.8833
  14   2.0000     -10.278408      -279.6897
  15   2.0000     -10.276350      -279.6337
  16   2.0000      -8.085580      -220.0198
  17   2.0000      -8.076775      -219.7802
  18   2.0000      -6.044155      -164.4698
  19   2.0000      -6.040267      -164.3640
  20   2.0000      -6.036396      -164.2587
  21   2.0000      -6.035548      -164.2356
  22   2.0000      -6.031425      -164.1234
  23   2.0000      -6.027358      -164.0127
  24   2.0000      -1.000350       -27.2209
  25   2.0000      -0.979598       -26.6562
  26   2.0000      -0.916748       -24.9460
  27   2.0000      -0.903202       -24.5774
  28   2.0000      -0.864495       -23.5241
  29   2.0000      -0.849723       -23.1221
  30   2.0000      -0.838202       -22.8086
  31   2.0000      -0.811564       -22.0838
  32   2.0000      -0.786700       -21.4072
  33   2.0000      -0.778093       -21.1730
  34   2.0000      -0.709086       -19.2952
  35   2.0000      -0.695284       -18.9196
  36   2.0000      -0.689089       -18.7511
  37   2.0000      -0.663750       -18.0615
  38   2.0000      -0.638404       -17.3719
  39   2.0000      -0.625557       -17.0223
  40   2.0000      -0.589302       -16.0357
  41   2.0000      -0.573247       -15.5988
  42   2.0000      -0.553804       -15.0698
  43   2.0000      -0.552508       -15.0345
  44   2.0000      -0.546284       -14.8652
  45   2.0000      -0.540718       -14.7137
  46   2.0000      -0.510359       -13.8876
  47   2.0000      -0.509540       -13.8653
  48   2.0000      -0.496854       -13.5201
  49   2.0000      -0.488725       -13.2989
  50   2.0000      -0.483814       -13.1652
  51   2.0000      -0.479621       -13.0512
  52   2.0000      -0.471885       -12.8406
  53   2.0000      -0.463348       -12.6083
  54   2.0000      -0.462229       -12.5779
  55   2.0000      -0.453177       -12.3316
  56   2.0000      -0.446858       -12.1596
  57   2.0000      -0.440252       -11.9799
  58   2.0000      -0.431521       -11.7423
  59   2.0000      -0.417512       -11.3611
  60   2.0000      -0.413922       -11.2634
  61   2.0000      -0.412552       -11.2261
  62   2.0000      -0.409311       -11.1379
  63   2.0000      -0.344657        -9.3786
  64   2.0000      -0.338175        -9.2022
  65   2.0000      -0.329182        -8.9575
  66   2.0000      -0.294546        -8.0150
  67   0.0000       0.026468         0.7202
  68   0.0000       0.066232         1.8023
  69   0.0000       0.102730         2.7954
  70   0.0000       0.115720         3.1489
  71   0.0000       0.132537         3.6065

MULLIKEN ATOMIC CHARGES
-----------------------
   0 S :    0.106682
   1 C :   -0.128538
   2 C :   -0.090065
   3 C :    0.054629
   4 C :   -0.154759
   5 H :   -0.013891
   6 C :    0.052290
   7 H :    0.034632
   8 H :   -0.001091
   9 C :   -0.044853
  10 H :    0.025384
  11 H :    0.035772
  12 C :   -0.069162
  13 H :    0.047444
  14 H :    0.047448
  15 H :    0.009596
  16 S :    0.088528
  17 C :   -0.097665
  18 C :   -0.034329
  19 C :   -0.065099
  20 C :   -0.141611
  21 H :    0.015308
  22 C :    0.097518
  23 H :    0.002586
  24 H :    0.036324
  25 C :   -0.048091
  26 H :    0.027781
  27 H :    0.033371
  28 C :   -0.048660
  29 H :    0.044335
  30 H :    0.022528
  31 H :    0.029049
  32 H :    0.059899
  33 H :    0.066710
Sum of atomic charges:    0.0000000

LOEWDIN ATOMIC CHARGES
----------------------
   0 S :    0.397324
   1 C :   -0.191571
   2 C :   -0.056570
   3 C :   -0.057476
   4 C :   -0.180549
   5 H :    0.021075
   6 C :   -0.029076
   7 H :    0.034405
   8 H :    0.024959
   9 C :   -0.043410
  10 H :    0.025047
  11 H :    0.023380
  12 C :   -0.070299
  13 H :    0.032032
  14 H :    0.026971
  15 H :    0.023087
  16 S :    0.367861
  17 C :   -0.176502
  18 C :   -0.073368
  19 C :   -0.060344
  20 C :   -0.186117
  21 H :    0.029839
  22 C :   -0.031663
  23 H :    0.019825
  24 H :    0.031359
  25 C :   -0.031596
  26 H :    0.024046
  27 H :    0.024953
  28 C :   -0.065630
  29 H :    0.027840
  30 H :    0.024653
  31 H :    0.024890
  32 H :    0.032341
  33 H :    0.038284

  Mayer bond orders larger than 0.100000
B(  0-S ,  1-C ) :   1.1395 B(  0-S ,  4-C ) :   1.1507 B(  1-C ,  2-C ) :   1.5979
B(  1-C ,  4-C ) :   0.1067 B(  1-C , 32-H ) :   0.9651 B(  2-C ,  3-C ) :   1.2580
B(  2-C ,  6-C ) :   1.0048 B(  3-C ,  4-C ) :   1.5650 B(  3-C ,  5-H ) :   1.0068
B(  4-C , 20-C ) :   1.0246 B(  6-C ,  7-H ) :   0.9484 B(  6-C ,  8-H ) :   0.9373
B(  6-C ,  9-C ) :   1.0748 B(  9-C , 10-H ) :   0.9518 B(  9-C , 11-H ) :   0.9554
B(  9-C , 12-C ) :   1.0697 B( 12-C , 13-H ) :   0.9746 B( 12-C , 14-H ) :   0.9743
B( 12-C , 15-H ) :   0.9717 B( 16-S , 17-C ) :   1.1313 B( 16-S , 20-C ) :   1.1228
B( 17-C , 18-C ) :   1.6362 B( 17-C , 33-H ) :   0.9641 B( 18-C , 19-C ) :   1.2311
B( 18-C , 21-H ) :   0.9880 B( 19-C , 20-C ) :   1.6042 B( 19-C , 22-C ) :   1.0376
B( 22-C , 23-H ) :   0.9283 B( 22-C , 24-H ) :   0.9327 B( 22-C , 25-C ) :   1.0613
B( 25-C , 26-H ) :   0.9566 B( 25-C , 27-H ) :   0.9580 B( 25-C , 28-C ) :   1.0729
B( 28-C , 29-H ) :   0.9720 B( 28-C , 30-H ) :   0.9744 B( 28-C , 31-H ) :   0.9735

Dispersion correction           -0.015373518
FINAL SINGLE POINT ENERGY     -1339.875954302403

DIPOLE MOMENT
-------------
                                X             Y             Z
Electronic contribution:     -5.69870       3.29196      14.71281
Nuclear contribution   :      6.09250      -3.33752     -15.08850
                        -----------------------------------------
Total Dipole Moment    :      0.39380      -0.04556      -0.37568
                        -----------------------------------------
Magnitude (a.u.)       :      0.54616
Magnitude (Debye)      :      1.38823

Rotational constants in cm-1:     0.022102     0.008014     0.007190
Rotational constants in MHz :   662.586637   240.256598   215.541707

                             ****ORCA TERMINATED NORMALLY****
TOTAL RUN TIME: 0 days 0 hours 0 minutes 33 seconds 626 msec
