                         Program Version 4.2.1 -  RELEASE  -
|  1> ! wB97X-D3 SP def2-SVP
|  2> %pal
|  3> nprocs 16
|  4> end
|  5>
|  6> * xyz 0 1
|  7> S 	 -8.82079 	 42.3318 	 36.4137
|  8> C 	 -9.52227 	 40.7973 	 36.0309
|  9> C 	 -8.95873 	 39.7678 	 36.8145
| 10> C 	 -8.00493 	 40.3226 	 37.7783
| 11> C 	 -7.84647 	 41.6904 	 37.7381
| 12> H 	 -7.50183 	 39.7877 	 38.5395
| 13> C 	 -9.44745 	 38.3052 	 36.844
| 14> H 	 -9.59361 	 37.9786 	 35.808
| 15> H 	 -10.4135 	 38.4354 	 37.3998
| 16> C 	 -8.49973 	 37.1986 	 37.5207
| 17> H 	 -7.6046 	 36.9954 	 36.981
| 18> H 	 -8.29105 	 37.24 	 38.6143
| 19> C 	 -9.34673 	 35.9181 	 37.4902
| 20> H 	 -9.80876 	 35.8523 	 36.4939
| 21> H 	 -8.86374 	 34.9743 	 37.7648
| 22> H 	 -10.1437 	 36.0631 	 38.2772
| 23> S 	 -6.75026 	 42.3879 	 40.2639
| 24> C 	 -5.49775 	 43.5838 	 40.4183
| 25> C 	 -5.42895 	 44.2145 	 39.168
| 26> C 	 -6.1369 	 43.5431 	 38.0695
| 27> C 	 -6.95408 	 42.5471 	 38.4712
| 28> H 	 -4.77201 	 45.051 	 39.1557
| 29> C 	 -5.8997 	 43.9756 	 36.6606
| 30> H 	 -6.72006 	 44.0845 	 36.0208
| 31> H 	 -5.26881 	 43.1543 	 36.2855
| 32> C 	 -5.26414 	 45.3887 	 36.4439
| 33> H 	 -4.23264 	 45.3834 	 36.7952
| 34> H 	 -5.73616 	 46.1101 	 37.1239
| 35> C 	 -5.38749 	 45.9723 	 35.025
| 36> H 	 -6.41496 	 46.3816 	 34.9683
| 37> H 	 -5.0042 	 45.3617 	 34.2576
| 38> H 	 -4.79154 	 46.9045 	 35.0407
| 39> H 	 -10.3663 	 40.6591 	 35.3819
| 40> H 	 -5.20497 	 43.917 	 41.3292
| 41> *
| 42>
| 43>                          ****END OF INPUT****

CARTESIAN COORDINATES (ANGSTROEM)
---------------------------------
  S     -8.820790   42.331800   36.413700
  C     -9.522270   40.797300   36.030900
  C     -8.958730   39.767800   36.814500
  C     -8.004930   40.322600   37.778300
  C     -7.846470   41.690400   37.738100
  H     -7.501830   39.787700   38.539500
  C     -9.447450   38.305200   36.844000
  H     -9.593610   37.978600   35.808000
  H    -10.413500   38.435400   37.399800
  C     -8.499730   37.198600   37.520700
  H     -7.604600   36.995400   36.981000
  H     -8.291050   37.240000   38.614300
  C     -9.346730   35.918100   37.490200
  H     -9.808760   35.852300   36.493900
  H     -8.863740   34.974300   37.764800
  H    -10.143700   36.063100   38.277200
  S     -6.750260   42.387900   40.263900
  C     -5.497750   43.583800   40.418300
  C     -5.428950   44.214500   39.168000
  C     -6.136900   43.543100   38.069500
  C     -6.954080   42.547100   38.471200
  H     -4.772010   45.051000   39.155700
  C     -5.899700   43.975600   36.660600
  H     -6.720060   44.084500   36.020800
  H     -5.268810   43.154300   36.285500
  C     -5.264140   45.388700   36.443900
  H     -4.232640   45.383400   36.795200
  H     -5.736160   46.110100   37.123900
  C     -5.387490   45.972300   35.025000
  H     -6.414960   46.381600   34.968300
  H     -5.004200   45.361700   34.257600
  H     -4.791540   46.904500   35.040700
  H    -10.366300   40.659100   35.381900
  H     -5.204970   43.917000   41.329200

 Total Charge           Charge          ....    0
 Multiplicity           Mult            ....    1
 Number of Electrons    NEL             ....  134
 Basis Dimension        Dim             ....  322

ORBITAL ENERGIES
----------------

  NO   OCC          E(Eh)            E(eV)
   0   2.0000     -88.965513     -2420.8747
   1   2.0000     -88.957427     -2420.6547
   2   2.0000     -10.330123      -281.0969
   3   2.0000     -10.327359      -281.0217
   4   2.0000     -10.315502      -280.6991
   5   2.0000     -10.314203      -280.6637
   6   2.0000     -10.309744      -280.5424
   7   2.0000     -10.308989      -280.5218
   8   2.0000     -10.304204      -280.3917
   9   2.0000     -10.296596      -280.1846
  10   2.0000     -10.294660      -280.1320
  11   2.0000     -10.294511      -280.1279
  12   2.0000     -10.285706      -279.8883
  13   2.0000     -10.284337      -279.8510
  14   2.0000     -10.281936      -279.7857
  15   2.0000     -10.278918      -279.7036
  16   2.0000      -8.079911      -219.8656
  17   2.0000      -8.071795      -219.6447
  18   2.0000      -6.038502      -164.3160
  19   2.0000      -6.034314      -164.2020
  20   2.0000      -6.030764      -164.1054
  21   2.0000      -6.030473      -164.0975
  22   2.0000      -6.026239      -163.9823
  23   2.0000      -6.022496      -163.8804
  24   2.0000      -1.003101       -27.2958
  25   2.0000      -0.979488       -26.6532
  26   2.0000      -0.908032       -24.7088
  27   2.0000      -0.905029       -24.6271
  28   2.0000      -0.875585       -23.8259
  29   2.0000      -0.848362       -23.0851
  30   2.0000      -0.844996       -22.9935
  31   2.0000      -0.813264       -22.1300
  32   2.0000      -0.780312       -21.2334
  33   2.0000      -0.766153       -20.8481
  34   2.0000      -0.709626       -19.3099
  35   2.0000      -0.704381       -19.1672
  36   2.0000      -0.691773       -18.8241
  37   2.0000      -0.661144       -17.9906
  38   2.0000      -0.638661       -17.3788
  39   2.0000      -0.617462       -16.8020
  40   2.0000      -0.600780       -16.3480
  41   2.0000      -0.575951       -15.6724
  42   2.0000      -0.571315       -15.5463
  43   2.0000      -0.566209       -15.4073
  44   2.0000      -0.538420       -14.6512
  45   2.0000      -0.529563       -14.4101
  46   2.0000      -0.521918       -14.2021
  47   2.0000      -0.512510       -13.9461
  48   2.0000      -0.501564       -13.6483
  49   2.0000      -0.497188       -13.5292
  50   2.0000      -0.492514       -13.4020
  51   2.0000      -0.475808       -12.9474
  52   2.0000      -0.469481       -12.7752
  53   2.0000      -0.457415       -12.4469
  54   2.0000      -0.456021       -12.4090
  55   2.0000      -0.448100       -12.1934
  56   2.0000      -0.444364       -12.0918
  57   2.0000      -0.432896       -11.7797
  58   2.0000      -0.429729       -11.6935
  59   2.0000      -0.428477       -11.6594
  60   2.0000      -0.417886       -11.3713
  61   2.0000      -0.409187       -11.1345
  62   2.0000      -0.400458       -10.8970
  63   2.0000      -0.355282        -9.6677
  64   2.0000      -0.326859        -8.8943
  65   2.0000      -0.321176        -8.7397
  66   2.0000      -0.290491        -7.9047
  67   0.0000       0.025826         0.7028
  68   0.0000       0.071369         1.9421
  69   0.0000       0.116063         3.1582
  70   0.0000       0.117447         3.1959
  71   0.0000       0.135109         3.6765

MULLIKEN ATOMIC CHARGES
-----------------------
   0 S :    0.108138
   1 C :   -0.114655
   2 C :   -0.079707
   3 C :    0.036395
   4 C :   -0.165272
   5 H :   -0.000589
   6 C :   -0.001803
   7 H :    0.043743
   8 H :    0.066471
   9 C :   -0.068781
  10 H :    0.039477
  11 H :    0.047014
  12 C :   -0.080256
  13 H :    0.027403
  14 H :    0.038499
  15 H :    0.032917
  16 S :    0.071112
  17 C :   -0.047211
  18 C :   -0.047175
  19 C :   -0.056470
  20 C :   -0.104561
  21 H :    0.014203
  22 C :    0.092445
  23 H :    0.015802
  24 H :    0.048221
  25 C :   -0.144226
  26 H :    0.026097
  27 H :    0.029901
  28 C :   -0.015251
  29 H :    0.042620
  30 H :    0.040617
  31 H :    0.027049
  32 H :    0.045497
  33 H :    0.032336
Sum of atomic charges:   -0.0000000

LOEWDIN ATOMIC CHARGES
----------------------
   0 S :    0.420531
   1 C :   -0.206015
   2 C :   -0.062854
   3 C :   -0.055660
   4 C :   -0.186936
   5 H :    0.023865
   6 C :   -0.031505
   7 H :    0.034899
   8 H :    0.047495
   9 C :   -0.042396
  10 H :    0.021315
  11 H :    0.032046
  12 C :   -0.069848
  13 H :    0.020572
  14 H :    0.023468
  15 H :    0.027982
  16 S :    0.375250
  17 C :   -0.166431
  18 C :   -0.066816
  19 C :   -0.059214
  20 C :   -0.180520
  21 H :    0.023652
  22 C :   -0.038135
  23 H :    0.013006
  24 H :    0.044784
  25 C :   -0.044539
  26 H :    0.015868
  27 H :    0.025095
  28 C :   -0.063642
  29 H :    0.033985
  30 H :    0.020468
  31 H :    0.033499
  32 H :    0.026598
  33 H :    0.010134

  Mayer bond orders larger than 0.100000
B(  0-S ,  1-C ) :   1.1520 B(  0-S ,  4-C ) :   1.1443 B(  1-C ,  2-C ) :   1.5953
B(  1-C , 32-H ) :   0.9760 B(  2-C ,  3-C ) :   1.2387 B(  2-C ,  6-C ) :   0.9997
B(  3-C ,  4-C ) :   1.5748 B(  3-C ,  5-H ) :   0.9980 B(  4-C , 20-C ) :   1.0633
B(  6-C ,  7-H ) :   0.9441 B(  6-C ,  8-H ) :   0.9478 B(  6-C ,  9-C ) :   1.0629
B(  9-C , 10-H ) :   0.9608 B(  9-C , 11-H ) :   0.9574 B(  9-C , 12-C ) :   1.0673
B( 12-C , 13-H ) :   0.9730 B( 12-C , 14-H ) :   0.9739 B( 12-C , 15-H ) :   0.9815
B( 16-S , 17-C ) :   1.1575 B( 16-S , 20-C ) :   1.1087 B( 17-C , 18-C ) :   1.6005
B( 17-C , 33-H ) :   0.9771 B( 18-C , 19-C ) :   1.2118 B( 18-C , 21-H ) :   0.9930
B( 19-C , 20-C ) :   1.6211 B( 19-C , 22-C ) :   1.0399 B( 22-C , 23-H ) :   0.9403
B( 22-C , 24-H ) :   0.9133 B( 22-C , 25-C ) :   1.0677 B( 25-C , 26-H ) :   0.9481
B( 25-C , 27-H ) :   0.9570 B( 25-C , 28-C ) :   1.0911 B( 28-C , 29-H ) :   0.9704
B( 28-C , 30-H ) :   0.9758 B( 28-C , 31-H ) :   0.9684

Dispersion correction           -0.013206443
FINAL SINGLE POINT ENERGY     -1339.850989669759

DIPOLE MOMENT
-------------
                                X             Y             Z
Electronic contribution:     -2.61733       7.74316      10.65552
Nuclear contribution   :      2.69761      -7.87169     -10.86522
                        -----------------------------------------
Total Dipole Moment    :      0.08028      -0.12854      -0.20969
                        -----------------------------------------
Magnitude (a.u.)       :      0.25872
Magnitude (Debye)      :      0.65762

Rotational constants in cm-1:     0.021457     0.007157     0.005798
Rotational constants in MHz :   643.258170   214.572395   173.824085

                             ****ORCA TERMINATED NORMALLY****
TOTAL RUN TIME: 0 days 0 hours 0 minutes 30 seconds 537 msec
