                         Program Version 4.2.1 -  RELEASE  -
|  1> ! wB97X-D3 SP def2-SVP
|  2> %pal
|  3> nprocs 16
|  4> end
|  5>
|  6> * xyz 0 1
|  7> S 	 -42.3704 	 53.0637 	 101.184
|  8> C 	 -41.9537 	 51.5313 	 100.462
|  9> C 	 -41.4922 	 50.6128 	 101.351
| 10> C 	 -41.2512 	 51.228 	 102.637
| 11> C 	 -41.5806 	 52.588 	 102.669
| 12> H 	 -40.9217 	 50.662 	 103.459
| 13> C 	 -41.5078 	 49.0536 	 101.255
| 14> H 	 -40.4712 	 48.8243 	 100.976
| 15> H 	 -42.1145 	 48.784 	 100.381
| 16> C 	 -41.9326 	 48.2816 	 102.47
| 17> H 	 -41.8333 	 47.2233 	 102.227
| 18> H 	 -41.1931 	 48.4043 	 103.307
| 19> C 	 -43.3358 	 48.561 	 102.926
| 20> H 	 -43.5074 	 49.639 	 103.188
| 21> H 	 -43.9784 	 48.3763 	 102.109
| 22> H 	 -43.5462 	 47.9477 	 103.811
| 23> S 	 -41.1482 	 55.2129 	 103.484
| 24> C 	 -41.255 	 55.6101 	 105.145
| 25> C 	 -41.368 	 54.4919 	 105.902
| 26> C 	 -41.475 	 53.3017 	 105.118
| 27> C 	 -41.4565 	 53.5046 	 103.776
| 28> H 	 -41.4692 	 54.5987 	 106.959
| 29> C 	 -41.4905 	 51.9709 	 105.87
| 30> H 	 -40.4522 	 51.9399 	 106.143
| 31> H 	 -41.5915 	 51.1833 	 105.173
| 32> C 	 -42.2065 	 51.9407 	 107.194
| 33> H 	 -41.5681 	 52.4983 	 107.905
| 34> H 	 -42.047 	 50.9273 	 107.71
| 35> C 	 -43.6815 	 52.3715 	 107.367
| 36> H 	 -43.8488 	 53.4321 	 107.066
| 37> H 	 -44.0489 	 52.252 	 108.383
| 38> H 	 -44.2367 	 51.7537 	 106.684
| 39> H 	 -42.2927 	 51.2937 	 99.4282
| 40> H 	 -41.2542 	 56.6119 	 105.523
| 41> *
| 42>
| 43>                          ****END OF INPUT****

CARTESIAN COORDINATES (ANGSTROEM)
---------------------------------
  S    -42.370400   53.063700  101.184000
  C    -41.953700   51.531300  100.462000
  C    -41.492200   50.612800  101.351000
  C    -41.251200   51.228000  102.637000
  C    -41.580600   52.588000  102.669000
  H    -40.921700   50.662000  103.459000
  C    -41.507800   49.053600  101.255000
  H    -40.471200   48.824300  100.976000
  H    -42.114500   48.784000  100.381000
  C    -41.932600   48.281600  102.470000
  H    -41.833300   47.223300  102.227000
  H    -41.193100   48.404300  103.307000
  C    -43.335800   48.561000  102.926000
  H    -43.507400   49.639000  103.188000
  H    -43.978400   48.376300  102.109000
  H    -43.546200   47.947700  103.811000
  S    -41.148200   55.212900  103.484000
  C    -41.255000   55.610100  105.145000
  C    -41.368000   54.491900  105.902000
  C    -41.475000   53.301700  105.118000
  C    -41.456500   53.504600  103.776000
  H    -41.469200   54.598700  106.959000
  C    -41.490500   51.970900  105.870000
  H    -40.452200   51.939900  106.143000
  H    -41.591500   51.183300  105.173000
  C    -42.206500   51.940700  107.194000
  H    -41.568100   52.498300  107.905000
  H    -42.047000   50.927300  107.710000
  C    -43.681500   52.371500  107.367000
  H    -43.848800   53.432100  107.066000
  H    -44.048900   52.252000  108.383000
  H    -44.236700   51.753700  106.684000
  H    -42.292700   51.293700   99.428200
  H    -41.254200   56.611900  105.523000

 Total Charge           Charge          ....    0
 Multiplicity           Mult            ....    1
 Number of Electrons    NEL             ....  134
 Basis Dimension        Dim             ....  322

ORBITAL ENERGIES
----------------

  NO   OCC          E(Eh)            E(eV)
   0   2.0000     -88.966169     -2420.8925
   1   2.0000     -88.959032     -2420.6983
   2   2.0000     -10.331136      -281.1245
   3   2.0000     -10.320890      -280.8457
   4   2.0000     -10.312575      -280.6194
   5   2.0000     -10.310654      -280.5672
   6   2.0000     -10.300406      -280.2883
   7   2.0000     -10.299590      -280.2661
   8   2.0000     -10.297018      -280.1961
   9   2.0000     -10.295397      -280.1520
  10   2.0000     -10.291303      -280.0406
  11   2.0000     -10.290788      -280.0266
  12   2.0000     -10.288023      -279.9513
  13   2.0000     -10.285717      -279.8886
  14   2.0000     -10.279514      -279.7198
  15   2.0000     -10.276071      -279.6261
  16   2.0000      -8.081082      -219.8974
  17   2.0000      -8.074758      -219.7253
  18   2.0000      -6.039661      -164.3475
  19   2.0000      -6.035706      -164.2399
  20   2.0000      -6.033331      -164.1753
  21   2.0000      -6.031626      -164.1289
  22   2.0000      -6.029122      -164.0608
  23   2.0000      -6.025384      -163.9590
  24   2.0000      -1.011064       -27.5124
  25   2.0000      -0.987780       -26.8789
  26   2.0000      -0.917671       -24.9711
  27   2.0000      -0.912590       -24.8328
  28   2.0000      -0.874865       -23.8063
  29   2.0000      -0.850479       -23.1427
  30   2.0000      -0.840572       -22.8731
  31   2.0000      -0.814725       -22.1698
  32   2.0000      -0.791568       -21.5397
  33   2.0000      -0.780921       -21.2499
  34   2.0000      -0.711989       -19.3742
  35   2.0000      -0.698225       -18.9997
  36   2.0000      -0.692951       -18.8562
  37   2.0000      -0.659249       -17.9391
  38   2.0000      -0.635249       -17.2860
  39   2.0000      -0.628449       -17.1010
  40   2.0000      -0.597846       -16.2682
  41   2.0000      -0.568165       -15.4606
  42   2.0000      -0.559635       -15.2284
  43   2.0000      -0.557008       -15.1570
  44   2.0000      -0.541197       -14.7267
  45   2.0000      -0.537551       -14.6275
  46   2.0000      -0.521156       -14.1814
  47   2.0000      -0.512031       -13.9331
  48   2.0000      -0.504001       -13.7146
  49   2.0000      -0.496836       -13.5196
  50   2.0000      -0.492634       -13.4053
  51   2.0000      -0.484843       -13.1932
  52   2.0000      -0.475915       -12.9503
  53   2.0000      -0.462166       -12.5762
  54   2.0000      -0.459932       -12.5154
  55   2.0000      -0.453581       -12.3426
  56   2.0000      -0.446121       -12.1396
  57   2.0000      -0.440593       -11.9891
  58   2.0000      -0.436827       -11.8867
  59   2.0000      -0.431833       -11.7508
  60   2.0000      -0.415964       -11.3190
  61   2.0000      -0.411508       -11.1977
  62   2.0000      -0.402688       -10.9577
  63   2.0000      -0.356367        -9.6972
  64   2.0000      -0.328654        -8.9431
  65   2.0000      -0.325814        -8.8659
  66   2.0000      -0.287264        -7.8168
  67   0.0000       0.027604         0.7512
  68   0.0000       0.086697         2.3591
  69   0.0000       0.099981         2.7206
  70   0.0000       0.117445         3.1959
  71   0.0000       0.132689         3.6107

MULLIKEN ATOMIC CHARGES
-----------------------
   0 S :    0.115270
   1 C :   -0.152139
   2 C :   -0.084344
   3 C :    0.007922
   4 C :   -0.128476
   5 H :   -0.013401
   6 C :    0.075632
   7 H :    0.038753
   8 H :    0.020897
   9 C :   -0.098033
  10 H :    0.031653
  11 H :    0.029817
  12 C :   -0.030683
  13 H :    0.048886
  14 H :    0.021088
  15 H :    0.040833
  16 S :    0.095889
  17 C :   -0.075734
  18 C :   -0.038943
  19 C :   -0.074515
  20 C :   -0.133853
  21 H :    0.012044
  22 C :    0.140862
  23 H :    0.034936
  24 H :   -0.002156
  25 C :   -0.124639
  26 H :    0.017472
  27 H :    0.029665
  28 C :   -0.018685
  29 H :    0.038292
  30 H :    0.037927
  31 H :    0.031085
  32 H :    0.056633
  33 H :    0.050047
Sum of atomic charges:   -0.0000000

LOEWDIN ATOMIC CHARGES
----------------------
   0 S :    0.408227
   1 C :   -0.206107
   2 C :   -0.064467
   3 C :   -0.062155
   4 C :   -0.183609
   5 H :    0.016126
   6 C :   -0.028994
   7 H :    0.036699
   8 H :    0.029052
   9 C :   -0.050840
  10 H :    0.030624
  11 H :    0.024476
  12 C :   -0.063199
  13 H :    0.033250
  14 H :    0.020455
  15 H :    0.030140
  16 S :    0.404322
  17 C :   -0.182644
  18 C :   -0.076669
  19 C :   -0.050280
  20 C :   -0.204519
  21 H :    0.028301
  22 C :   -0.029604
  23 H :    0.046373
  24 H :    0.017372
  25 C :   -0.055381
  26 H :    0.020842
  27 H :    0.035026
  28 C :   -0.065055
  29 H :    0.029381
  30 H :    0.028487
  31 H :    0.024480
  32 H :    0.031578
  33 H :    0.028311

  Mayer bond orders larger than 0.100000
B(  0-S ,  1-C ) :   1.1314 B(  0-S ,  4-C ) :   1.1556 B(  1-C ,  2-C ) :   1.6460
B(  1-C , 32-H ) :   0.9574 B(  2-C ,  3-C ) :   1.2429 B(  2-C ,  6-C ) :   0.9911
B(  3-C ,  4-C ) :   1.5509 B(  3-C ,  5-H ) :   0.9938 B(  4-C , 20-C ) :   1.0754
B(  6-C ,  7-H ) :   0.9289 B(  6-C ,  8-H ) :   0.9477 B(  6-C ,  9-C ) :   1.0963
B(  9-C , 10-H ) :   0.9452 B(  9-C , 11-H ) :   0.9430 B(  9-C , 12-C ) :   1.0812
B( 12-C , 13-H ) :   0.9701 B( 12-C , 14-H ) :   0.9715 B( 12-C , 15-H ) :   0.9721
B( 16-S , 17-C ) :   1.1613 B( 16-S , 20-C ) :   1.1151 B( 17-C , 18-C ) :   1.6115
B( 17-C , 33-H ) :   0.9687 B( 18-C , 19-C ) :   1.2225 B( 18-C , 21-H ) :   0.9955
B( 19-C , 20-C ) :   1.6249 B( 19-C , 22-C ) :   1.0249 B( 22-C , 23-H ) :   0.9232
B( 22-C , 24-H ) :   0.9284 B( 22-C , 25-C ) :   1.0754 B( 25-C , 26-H ) :   0.9424
B( 25-C , 27-H ) :   0.9464 B( 25-C , 28-C ) :   1.0782 B( 28-C , 29-H ) :   0.9698
B( 28-C , 30-H ) :   0.9730 B( 28-C , 31-H ) :   0.9759

Dispersion correction           -0.015022816
FINAL SINGLE POINT ENERGY     -1339.878327731959

DIPOLE MOMENT
-------------
                                X             Y             Z
Electronic contribution:      6.40040      23.40040     -15.60109
Nuclear contribution   :     -6.48436     -24.05748      16.11498
                        -----------------------------------------
Total Dipole Moment    :     -0.08396      -0.65707       0.51389
                        -----------------------------------------
Magnitude (a.u.)       :      0.83837
Magnitude (Debye)      :      2.13098

Rotational constants in cm-1:     0.018006     0.010274     0.007155
Rotational constants in MHz :   539.791734   307.994914   214.504777

                             ****ORCA TERMINATED NORMALLY****
TOTAL RUN TIME: 0 days 0 hours 0 minutes 32 seconds 594 msec
