                         Program Version 4.2.1 -  RELEASE  -
|  1> ! wB97X-D3 SP def2-SVP
|  2> %pal
|  3> nprocs 16
|  4> end
|  5>
|  6> * xyz 0 1
|  7> S 	 7.76222 	 -12.137 	 66.5906
|  8> C 	 9.17135 	 -11.2545 	 67.1846
|  9> C 	 8.8103 	 -10.1115 	 67.8759
| 10> C 	 7.40836 	 -10.0993 	 68.0646
| 11> C 	 6.71637 	 -11.1369 	 67.5248
| 12> H 	 6.96499 	 -9.31826 	 68.5979
| 13> C 	 9.66069 	 -9.11229 	 68.5257
| 14> H 	 10.6269 	 -9.23832 	 67.9483
| 15> H 	 9.88212 	 -9.47147 	 69.5831
| 16> C 	 9.31059 	 -7.6473 	 68.7779
| 17> H 	 8.5396 	 -7.54615 	 69.5966
| 18> H 	 10.1604 	 -7.18228 	 69.177
| 19> C 	 8.71886 	 -6.90811 	 67.5458
| 20> H 	 7.64688 	 -7.10941 	 67.4105
| 21> H 	 8.85291 	 -5.80723 	 67.5013
| 22> H 	 9.09462 	 -7.3024 	 66.6324
| 23> S 	 4.43357 	 -11.4687 	 65.9465
| 24> C 	 2.88567 	 -11.3851 	 66.7077
| 25> C 	 2.94823 	 -11.1769 	 68.0741
| 26> C 	 4.29405 	 -11.0262 	 68.5519
| 27> C 	 5.25563 	 -11.2565 	 67.5483
| 28> H 	 2.05878 	 -11.2244 	 68.636
| 29> C 	 4.60137 	 -11.0056 	 70.0721
| 30> H 	 3.78784 	 -10.5076 	 70.6109
| 31> H 	 5.51159 	 -10.3888 	 70.2017
| 32> C 	 4.69985 	 -12.3995 	 70.6882
| 33> H 	 3.75756 	 -12.9692 	 70.6398
| 34> H 	 4.84508 	 -12.3666 	 71.7943
| 35> C 	 5.71368 	 -13.3542 	 70.029
| 36> H 	 5.79918 	 -14.2517 	 70.6111
| 37> H 	 6.70119 	 -12.8849 	 69.9833
| 38> H 	 5.35824 	 -13.5901 	 69.0598
| 39> H 	 10.2247 	 -11.5938 	 67.1144
| 40> H 	 2.00858 	 -11.4661 	 66.1626
| 41> *
| 42>
| 43>                          ****END OF INPUT****

CARTESIAN COORDINATES (ANGSTROEM)
---------------------------------
  S      7.762220  -12.137000   66.590600
  C      9.171350  -11.254500   67.184600
  C      8.810300  -10.111500   67.875900
  C      7.408360  -10.099300   68.064600
  C      6.716370  -11.136900   67.524800
  H      6.964990   -9.318260   68.597900
  C      9.660690   -9.112290   68.525700
  H     10.626900   -9.238320   67.948300
  H      9.882120   -9.471470   69.583100
  C      9.310590   -7.647300   68.777900
  H      8.539600   -7.546150   69.596600
  H     10.160400   -7.182280   69.177000
  C      8.718860   -6.908110   67.545800
  H      7.646880   -7.109410   67.410500
  H      8.852910   -5.807230   67.501300
  H      9.094620   -7.302400   66.632400
  S      4.433570  -11.468700   65.946500
  C      2.885670  -11.385100   66.707700
  C      2.948230  -11.176900   68.074100
  C      4.294050  -11.026200   68.551900
  C      5.255630  -11.256500   67.548300
  H      2.058780  -11.224400   68.636000
  C      4.601370  -11.005600   70.072100
  H      3.787840  -10.507600   70.610900
  H      5.511590  -10.388800   70.201700
  C      4.699850  -12.399500   70.688200
  H      3.757560  -12.969200   70.639800
  H      4.845080  -12.366600   71.794300
  C      5.713680  -13.354200   70.029000
  H      5.799180  -14.251700   70.611100
  H      6.701190  -12.884900   69.983300
  H      5.358240  -13.590100   69.059800
  H     10.224700  -11.593800   67.114400
  H      2.008580  -11.466100   66.162600

 Total Charge           Charge          ....    0
 Multiplicity           Mult            ....    1
 Number of Electrons    NEL             ....  134
 Basis Dimension        Dim             ....  322

ORBITAL ENERGIES
----------------

  NO   OCC          E(Eh)            E(eV)
   0   2.0000     -88.968733     -2420.9623
   1   2.0000     -88.965058     -2420.8623
   2   2.0000     -10.333931      -281.2006
   3   2.0000     -10.326839      -281.0076
   4   2.0000     -10.317195      -280.7452
   5   2.0000     -10.311917      -280.6015
   6   2.0000     -10.308889      -280.5191
   7   2.0000     -10.299861      -280.2735
   8   2.0000     -10.297708      -280.2149
   9   2.0000     -10.296469      -280.1812
  10   2.0000     -10.295167      -280.1457
  11   2.0000     -10.292034      -280.0605
  12   2.0000     -10.285255      -279.8760
  13   2.0000     -10.282281      -279.7951
  14   2.0000     -10.276790      -279.6457
  15   2.0000     -10.262673      -279.2615
  16   2.0000      -8.083561      -219.9649
  17   2.0000      -8.079475      -219.8537
  18   2.0000      -6.042184      -164.4162
  19   2.0000      -6.038085      -164.3046
  20   2.0000      -6.037964      -164.3013
  21   2.0000      -6.034172      -164.1982
  22   2.0000      -6.034055      -164.1950
  23   2.0000      -6.030263      -164.0918
  24   2.0000      -1.008276       -27.4366
  25   2.0000      -0.982415       -26.7329
  26   2.0000      -0.916357       -24.9353
  27   2.0000      -0.903981       -24.5986
  28   2.0000      -0.868471       -23.6323
  29   2.0000      -0.850136       -23.1334
  30   2.0000      -0.842411       -22.9232
  31   2.0000      -0.813123       -22.1262
  32   2.0000      -0.786296       -21.3962
  33   2.0000      -0.775753       -21.1093
  34   2.0000      -0.714350       -19.4385
  35   2.0000      -0.700344       -19.0573
  36   2.0000      -0.690292       -18.7838
  37   2.0000      -0.659868       -17.9559
  38   2.0000      -0.635540       -17.2939
  39   2.0000      -0.627187       -17.0666
  40   2.0000      -0.592502       -16.1228
  41   2.0000      -0.564266       -15.3545
  42   2.0000      -0.553541       -15.0626
  43   2.0000      -0.548442       -14.9239
  44   2.0000      -0.543322       -14.7845
  45   2.0000      -0.541462       -14.7339
  46   2.0000      -0.519882       -14.1467
  47   2.0000      -0.508985       -13.8502
  48   2.0000      -0.504371       -13.7246
  49   2.0000      -0.498088       -13.5537
  50   2.0000      -0.492228       -13.3942
  51   2.0000      -0.474163       -12.9026
  52   2.0000      -0.468488       -12.7482
  53   2.0000      -0.463590       -12.6149
  54   2.0000      -0.456896       -12.4328
  55   2.0000      -0.449847       -12.2409
  56   2.0000      -0.445285       -12.1168
  57   2.0000      -0.437579       -11.9071
  58   2.0000      -0.434756       -11.8303
  59   2.0000      -0.428601       -11.6628
  60   2.0000      -0.415473       -11.3056
  61   2.0000      -0.413327       -11.2472
  62   2.0000      -0.406075       -11.0499
  63   2.0000      -0.349218        -9.5027
  64   2.0000      -0.332822        -9.0565
  65   2.0000      -0.329599        -8.9688
  66   2.0000      -0.286664        -7.8005
  67   0.0000       0.027613         0.7514
  68   0.0000       0.066083         1.7982
  69   0.0000       0.108465         2.9515
  70   0.0000       0.116908         3.1812
  71   0.0000       0.126678         3.4471

MULLIKEN ATOMIC CHARGES
-----------------------
   0 S :    0.115680
   1 C :   -0.148283
   2 C :   -0.055318
   3 C :    0.022389
   4 C :   -0.114757
   5 H :   -0.014864
   6 C :   -0.001908
   7 H :    0.032634
   8 H :    0.054739
   9 C :   -0.041834
  10 H :    0.033405
  11 H :    0.024099
  12 C :   -0.056479
  13 H :    0.031370
  14 H :    0.042454
  15 H :    0.021694
  16 S :    0.092480
  17 C :   -0.065383
  18 C :   -0.017163
  19 C :   -0.057151
  20 C :   -0.153492
  21 H :    0.006434
  22 C :    0.084267
  23 H :    0.023764
  24 H :    0.028139
  25 C :   -0.097663
  26 H :    0.020337
  27 H :    0.030828
  28 C :   -0.028344
  29 H :    0.024381
  30 H :    0.035905
  31 H :    0.038439
  32 H :    0.055954
  33 H :    0.033247
Sum of atomic charges:    0.0000000

LOEWDIN ATOMIC CHARGES
----------------------
   0 S :    0.411620
   1 C :   -0.198624
   2 C :   -0.068440
   3 C :   -0.057694
   4 C :   -0.201078
   5 H :    0.018295
   6 C :   -0.046229
   7 H :    0.037359
   8 H :    0.047911
   9 C :   -0.038307
  10 H :    0.028973
  11 H :    0.023408
  12 C :   -0.074413
  13 H :    0.029025
  14 H :    0.030797
  15 H :    0.021039
  16 S :    0.386535
  17 C :   -0.174953
  18 C :   -0.066111
  19 C :   -0.054572
  20 C :   -0.174630
  21 H :    0.026207
  22 C :   -0.031029
  23 H :    0.032524
  24 H :    0.030437
  25 C :   -0.046560
  26 H :    0.024243
  27 H :    0.025535
  28 C :   -0.059179
  29 H :    0.023306
  30 H :    0.025056
  31 H :    0.020593
  32 H :    0.034943
  33 H :    0.014013

  Mayer bond orders larger than 0.100000
B(  0-S ,  1-C ) :   1.1326 B(  0-S ,  4-C ) :   1.1469 B(  1-C ,  2-C ) :   1.5986
B(  1-C , 32-H ) :   0.9631 B(  2-C ,  3-C ) :   1.2512 B(  2-C ,  6-C ) :   1.0279
B(  3-C ,  4-C ) :   1.5631 B(  3-C ,  5-H ) :   1.0022 B(  4-C , 20-C ) :   1.0372
B(  6-C ,  7-H ) :   0.9354 B(  6-C ,  8-H ) :   0.9303 B(  6-C ,  9-C ) :   1.0854
B(  9-C , 10-H ) :   0.9505 B(  9-C , 11-H ) :   0.9501 B(  9-C , 12-C ) :   1.0666
B( 12-C , 13-H ) :   0.9708 B( 12-C , 14-H ) :   0.9778 B( 12-C , 15-H ) :   0.9781
B( 16-S , 17-C ) :   1.1599 B( 16-S , 20-C ) :   1.1301 B( 17-C , 18-C ) :   1.6089
B( 17-C , 20-C ) :   0.1028 B( 17-C , 33-H ) :   0.9748 B( 18-C , 19-C ) :   1.2248
B( 18-C , 21-H ) :   0.9994 B( 19-C , 20-C ) :   1.6007 B( 19-C , 22-C ) :   1.0454
B( 22-C , 23-H ) :   0.9321 B( 22-C , 24-H ) :   0.9367 B( 22-C , 25-C ) :   1.0693
B( 25-C , 26-H ) :   0.9537 B( 25-C , 27-H ) :   0.9555 B( 25-C , 28-C ) :   1.0835
B( 28-C , 29-H ) :   0.9709 B( 28-C , 30-H ) :   0.9755 B( 28-C , 31-H ) :   0.9714

Dispersion correction           -0.015787140
FINAL SINGLE POINT ENERGY     -1339.876457827989

DIPOLE MOMENT
-------------
                                X             Y             Z
Electronic contribution:     -6.55080     -10.24640     -17.84064
Nuclear contribution   :      6.60231      10.55683      18.41223
                        -----------------------------------------
Total Dipole Moment    :      0.05151       0.31043       0.57159
                        -----------------------------------------
Magnitude (a.u.)       :      0.65249
Magnitude (Debye)      :      1.65849

Rotational constants in cm-1:     0.018968     0.008950     0.008518
Rotational constants in MHz :   568.633202   268.306567   255.355224

                             ****ORCA TERMINATED NORMALLY****
TOTAL RUN TIME: 0 days 0 hours 0 minutes 37 seconds 469 msec
