                         Program Version 4.2.1 -  RELEASE  -
|  1> ! wB97X-D3 SP def2-SVP
|  2> %pal
|  3> nprocs 16
|  4> end
|  5>
|  6> * xyz 0 1
|  7> S 	 -5.45773 	 31.7503 	 49.7918
|  8> C 	 -6.38105 	 30.4426 	 50.4204
|  9> C 	 -7.74371 	 30.9071 	 50.6299
| 10> C 	 -7.97695 	 32.2434 	 50.1594
| 11> C 	 -6.8055 	 32.8761 	 49.7518
| 12> H 	 -8.86321 	 32.7792 	 49.9501
| 13> C 	 -8.7736 	 29.953 	 51.1443
| 14> H 	 -8.41488 	 28.9274 	 50.9804
| 15> H 	 -9.58609 	 30.0541 	 50.4744
| 16> C 	 -9.15399 	 30.1768 	 52.6526
| 17> H 	 -9.34879 	 31.1797 	 52.7501
| 18> H 	 -9.93746 	 29.5892 	 53.0436
| 19> C 	 -8.02283 	 29.7469 	 53.5736
| 20> H 	 -7.66136 	 28.7118 	 53.3392
| 21> H 	 -7.0886 	 30.242 	 53.4398
| 22> H 	 -8.26819 	 29.6747 	 54.683
| 23> S 	 -7.9755 	 34.7035 	 48.0138
| 24> C 	 -7.25978 	 36.2587 	 47.7343
| 25> C 	 -6.0064 	 36.264 	 48.2792
| 26> C 	 -5.58374 	 35.0567 	 48.9282
| 27> C 	 -6.68081 	 34.1759 	 49.0821
| 28> H 	 -5.39179 	 37.1891 	 48.1712
| 29> C 	 -4.24417 	 34.9251 	 49.4959
| 30> H 	 -3.84078 	 33.9483 	 49.298
| 31> H 	 -4.3745 	 35.0096 	 50.5872
| 32> C 	 -3.11413 	 35.8749 	 49.0294
| 33> H 	 -3.26628 	 36.882 	 49.2601
| 34> H 	 -3.00924 	 35.7906 	 47.9345
| 35> C 	 -1.70112 	 35.4984 	 49.5595
| 36> H 	 -1.65209 	 35.4519 	 50.5845
| 37> H 	 -0.965096 	 36.2693 	 49.2642
| 38> H 	 -1.42974 	 34.5077 	 49.1517
| 39> H 	 -6.0049 	 29.491 	 50.794
| 40> H 	 -7.76405 	 37.1366 	 47.3644
| 41> *
| 42>
| 43>                          ****END OF INPUT****

CARTESIAN COORDINATES (ANGSTROEM)
---------------------------------
  S     -5.457730   31.750300   49.791800
  C     -6.381050   30.442600   50.420400
  C     -7.743710   30.907100   50.629900
  C     -7.976950   32.243400   50.159400
  C     -6.805500   32.876100   49.751800
  H     -8.863210   32.779200   49.950100
  C     -8.773600   29.953000   51.144300
  H     -8.414880   28.927400   50.980400
  H     -9.586090   30.054100   50.474400
  C     -9.153990   30.176800   52.652600
  H     -9.348790   31.179700   52.750100
  H     -9.937460   29.589200   53.043600
  C     -8.022830   29.746900   53.573600
  H     -7.661360   28.711800   53.339200
  H     -7.088600   30.242000   53.439800
  H     -8.268190   29.674700   54.683000
  S     -7.975500   34.703500   48.013800
  C     -7.259780   36.258700   47.734300
  C     -6.006400   36.264000   48.279200
  C     -5.583740   35.056700   48.928200
  C     -6.680810   34.175900   49.082100
  H     -5.391790   37.189100   48.171200
  C     -4.244170   34.925100   49.495900
  H     -3.840780   33.948300   49.298000
  H     -4.374500   35.009600   50.587200
  C     -3.114130   35.874900   49.029400
  H     -3.266280   36.882000   49.260100
  H     -3.009240   35.790600   47.934500
  C     -1.701120   35.498400   49.559500
  H     -1.652090   35.451900   50.584500
  H     -0.965096   36.269300   49.264200
  H     -1.429740   34.507700   49.151700
  H     -6.004900   29.491000   50.794000
  H     -7.764050   37.136600   47.364400

 Total Charge           Charge          ....    0
 Multiplicity           Mult            ....    1
 Number of Electrons    NEL             ....  134
 Basis Dimension        Dim             ....  322

ORBITAL ENERGIES
----------------

  NO   OCC          E(Eh)            E(eV)
   0   2.0000     -88.969983     -2420.9963
   1   2.0000     -88.964575     -2420.8492
   2   2.0000     -10.333703      -281.1943
   3   2.0000     -10.331343      -281.1301
   4   2.0000     -10.320959      -280.8476
   5   2.0000     -10.313191      -280.6362
   6   2.0000     -10.310561      -280.5646
   7   2.0000     -10.305406      -280.4244
   8   2.0000     -10.297659      -280.2136
   9   2.0000     -10.294072      -280.1159
  10   2.0000     -10.289480      -279.9910
  11   2.0000     -10.289078      -279.9801
  12   2.0000     -10.286067      -279.8981
  13   2.0000     -10.278731      -279.6985
  14   2.0000     -10.276745      -279.6445
  15   2.0000     -10.276357      -279.6339
  16   2.0000      -8.084272      -219.9842
  17   2.0000      -8.079239      -219.8473
  18   2.0000      -6.042756      -164.4318
  19   2.0000      -6.038574      -164.3180
  20   2.0000      -6.037854      -164.2984
  21   2.0000      -6.035374      -164.2309
  22   2.0000      -6.033730      -164.1861
  23   2.0000      -6.029937      -164.0829
  24   2.0000      -1.006506       -27.3884
  25   2.0000      -0.984338       -26.7852
  26   2.0000      -0.912933       -24.8422
  27   2.0000      -0.911446       -24.8017
  28   2.0000      -0.869374       -23.6569
  29   2.0000      -0.855438       -23.2777
  30   2.0000      -0.847466       -23.0607
  31   2.0000      -0.815470       -22.1901
  32   2.0000      -0.782542       -21.2941
  33   2.0000      -0.767372       -20.8813
  34   2.0000      -0.712360       -19.3843
  35   2.0000      -0.709330       -19.3019
  36   2.0000      -0.692541       -18.8450
  37   2.0000      -0.661348       -17.9962
  38   2.0000      -0.635258       -17.2863
  39   2.0000      -0.616592       -16.7783
  40   2.0000      -0.601185       -16.3591
  41   2.0000      -0.576933       -15.6991
  42   2.0000      -0.572442       -15.5769
  43   2.0000      -0.551929       -15.0187
  44   2.0000      -0.545825       -14.8527
  45   2.0000      -0.528453       -14.3799
  46   2.0000      -0.518570       -14.1110
  47   2.0000      -0.515658       -14.0318
  48   2.0000      -0.508477       -13.8364
  49   2.0000      -0.494557       -13.4576
  50   2.0000      -0.489324       -13.3152
  51   2.0000      -0.476325       -12.9615
  52   2.0000      -0.470659       -12.8073
  53   2.0000      -0.465898       -12.6777
  54   2.0000      -0.458051       -12.4642
  55   2.0000      -0.450546       -12.2600
  56   2.0000      -0.446150       -12.1404
  57   2.0000      -0.442802       -12.0493
  58   2.0000      -0.433048       -11.7838
  59   2.0000      -0.424380       -11.5480
  60   2.0000      -0.420754       -11.4493
  61   2.0000      -0.417733       -11.3671
  62   2.0000      -0.408627       -11.1193
  63   2.0000      -0.353300        -9.6138
  64   2.0000      -0.331270        -9.0143
  65   2.0000      -0.326392        -8.8816
  66   2.0000      -0.283698        -7.7198
  67   0.0000       0.016455         0.4478
  68   0.0000       0.079431         2.1614
  69   0.0000       0.104001         2.8300
  70   0.0000       0.122518         3.3339
  71   0.0000       0.129736         3.5303

MULLIKEN ATOMIC CHARGES
-----------------------
   0 S :    0.103011
   1 C :   -0.101707
   2 C :   -0.129357
   3 C :    0.027362
   4 C :   -0.137327
   5 H :    0.006998
   6 C :    0.063868
   7 H :    0.017901
   8 H :    0.021149
   9 C :    0.028582
  10 H :    0.015596
  11 H :    0.025028
  12 C :   -0.106133
  13 H :    0.009772
  14 H :    0.027423
  15 H :    0.047054
  16 S :    0.090528
  17 C :   -0.077177
  18 C :   -0.066379
  19 C :   -0.035378
  20 C :   -0.128302
  21 H :    0.035077
  22 C :    0.049039
  23 H :    0.024518
  24 H :    0.050232
  25 C :   -0.096312
  26 H :    0.022233
  27 H :    0.036605
  28 C :   -0.029623
  29 H :    0.013945
  30 H :    0.037881
  31 H :    0.034572
  32 H :    0.061575
  33 H :    0.057748
Sum of atomic charges:    0.0000000

LOEWDIN ATOMIC CHARGES
----------------------
   0 S :    0.432447
   1 C :   -0.216173
   2 C :   -0.053732
   3 C :   -0.064604
   4 C :   -0.189718
   5 H :    0.025021
   6 C :   -0.028091
   7 H :    0.029604
   8 H :    0.026842
   9 C :   -0.024600
  10 H :    0.014729
  11 H :    0.023605
  12 C :   -0.077185
  13 H :    0.023221
  14 H :    0.016624
  15 H :    0.033633
  16 S :    0.406753
  17 C :   -0.195514
  18 C :   -0.075933
  19 C :   -0.058740
  20 C :   -0.194650
  21 H :    0.037930
  22 C :   -0.043383
  23 H :    0.022860
  24 H :    0.043422
  25 C :   -0.035138
  26 H :    0.011316
  27 H :    0.029188
  28 C :   -0.055522
  29 H :    0.010225
  30 H :    0.032664
  31 H :    0.027671
  32 H :    0.032292
  33 H :    0.032936

  Mayer bond orders larger than 0.100000
B(  0-S ,  1-C ) :   1.1621 B(  0-S ,  4-C ) :   1.1626 B(  1-C ,  2-C ) :   1.5454
B(  1-C ,  4-C ) :   0.1039 B(  1-C , 32-H ) :   0.9675 B(  2-C ,  3-C ) :   1.2589
B(  2-C ,  6-C ) :   1.0311 B(  3-C ,  4-C ) :   1.5305 B(  3-C ,  5-H ) :   0.9996
B(  4-C , 20-C ) :   1.0772 B(  6-C ,  7-H ) :   0.9490 B(  6-C ,  8-H ) :   0.9390
B(  6-C ,  9-C ) :   1.0578 B(  9-C , 10-H ) :   0.9582 B(  9-C , 11-H ) :   0.9587
B(  9-C , 12-C ) :   1.0640 B( 12-C , 13-H ) :   0.9709 B( 12-C , 14-H ) :   0.9756
B( 12-C , 15-H ) :   0.9760 B( 16-S , 17-C ) :   1.1460 B( 16-S , 20-C ) :   1.1425
B( 17-C , 18-C ) :   1.6076 B( 17-C , 33-H ) :   0.9651 B( 18-C , 19-C ) :   1.2583
B( 18-C , 21-H ) :   0.9775 B( 19-C , 20-C ) :   1.5320 B( 19-C , 22-C ) :   1.0578
B( 22-C , 23-H ) :   0.9252 B( 22-C , 24-H ) :   0.9202 B( 22-C , 25-C ) :   1.0795
B( 25-C , 26-H ) :   0.9471 B( 25-C , 27-H ) :   0.9592 B( 25-C , 28-C ) :   1.0888
B( 28-C , 29-H ) :   0.9761 B( 28-C , 30-H ) :   0.9733 B( 28-C , 31-H ) :   0.9751

Dispersion correction           -0.013776421
FINAL SINGLE POINT ENERGY     -1339.864260957238

DIPOLE MOMENT
-------------
                                X             Y             Z
Electronic contribution:     -8.38024       4.02542     -13.86685
Nuclear contribution   :      8.51309      -3.94259      14.07195
                        -----------------------------------------
Total Dipole Moment    :      0.13285       0.08283       0.20510
                        -----------------------------------------
Magnitude (a.u.)       :      0.25802
Magnitude (Debye)      :      0.65584

Rotational constants in cm-1:     0.021551     0.007538     0.006052
Rotational constants in MHz :   646.088723   225.971095   181.424056

                             ****ORCA TERMINATED NORMALLY****
TOTAL RUN TIME: 0 days 0 hours 0 minutes 31 seconds 371 msec
