                         Program Version 4.2.1 -  RELEASE  -
|  1> ! wB97X-D3 SP def2-SVP
|  2> %pal
|  3> nprocs 16
|  4> end
|  5>
|  6> * xyz 0 1
|  7> S 	 -35.3482 	 51.4237 	 103.828
|  8> C 	 -36.1182 	 50.7014 	 102.357
|  9> C 	 -35.8206 	 51.4293 	 101.191
| 10> C 	 -35.0862 	 52.6119 	 101.487
| 11> C 	 -34.8979 	 52.854 	 102.89
| 12> H 	 -34.6789 	 53.3339 	 100.786
| 13> C 	 -36.3223 	 51.0714 	 99.7714
| 14> H 	 -37.1733 	 51.7646 	 99.6203
| 15> H 	 -36.6614 	 50.0452 	 99.6526
| 16> C 	 -35.321 	 51.4104 	 98.6163
| 17> H 	 -35.0675 	 52.4837 	 98.8769
| 18> H 	 -34.4828 	 50.7094 	 98.7509
| 19> C 	 -35.9113 	 51.3046 	 97.2002
| 20> H 	 -35.1661 	 51.3765 	 96.4008
| 21> H 	 -36.1091 	 50.2828 	 97.0122
| 22> H 	 -36.7723 	 51.8733 	 97.0776
| 23> S 	 -32.3575 	 53.4156 	 103.921
| 24> C 	 -32.1799 	 54.9737 	 104.664
| 25> C 	 -33.2688 	 55.7996 	 104.549
| 26> C 	 -34.3728 	 55.1282 	 103.953
| 27> C 	 -34.0768 	 53.8298 	 103.557
| 28> H 	 -33.2583 	 56.793 	 104.942
| 29> C 	 -35.6876 	 55.8537 	 103.697
| 30> H 	 -36.1283 	 55.4259 	 102.752
| 31> H 	 -35.5432 	 56.9018 	 103.526
| 32> C 	 -36.7198 	 55.6202 	 104.79
| 33> H 	 -36.3456 	 55.8881 	 105.771
| 34> H 	 -36.9838 	 54.5769 	 104.86
| 35> C 	 -38.0837 	 56.2074 	 104.42
| 36> H 	 -38.2076 	 57.2084 	 104.055
| 37> H 	 -38.6686 	 56.1438 	 105.33
| 38> H 	 -38.6492 	 55.6427 	 103.617
| 39> H 	 -36.4708 	 49.6838 	 102.307
| 40> H 	 -31.3389 	 55.4865 	 105.05
| 41> *
| 42>
| 43>                          ****END OF INPUT****

CARTESIAN COORDINATES (ANGSTROEM)
---------------------------------
  S    -35.348200   51.423700  103.828000
  C    -36.118200   50.701400  102.357000
  C    -35.820600   51.429300  101.191000
  C    -35.086200   52.611900  101.487000
  C    -34.897900   52.854000  102.890000
  H    -34.678900   53.333900  100.786000
  C    -36.322300   51.071400   99.771400
  H    -37.173300   51.764600   99.620300
  H    -36.661400   50.045200   99.652600
  C    -35.321000   51.410400   98.616300
  H    -35.067500   52.483700   98.876900
  H    -34.482800   50.709400   98.750900
  C    -35.911300   51.304600   97.200200
  H    -35.166100   51.376500   96.400800
  H    -36.109100   50.282800   97.012200
  H    -36.772300   51.873300   97.077600
  S    -32.357500   53.415600  103.921000
  C    -32.179900   54.973700  104.664000
  C    -33.268800   55.799600  104.549000
  C    -34.372800   55.128200  103.953000
  C    -34.076800   53.829800  103.557000
  H    -33.258300   56.793000  104.942000
  C    -35.687600   55.853700  103.697000
  H    -36.128300   55.425900  102.752000
  H    -35.543200   56.901800  103.526000
  C    -36.719800   55.620200  104.790000
  H    -36.345600   55.888100  105.771000
  H    -36.983800   54.576900  104.860000
  C    -38.083700   56.207400  104.420000
  H    -38.207600   57.208400  104.055000
  H    -38.668600   56.143800  105.330000
  H    -38.649200   55.642700  103.617000
  H    -36.470800   49.683800  102.307000
  H    -31.338900   55.486500  105.050000

 Total Charge           Charge          ....    0
 Multiplicity           Mult            ....    1
 Number of Electrons    NEL             ....  134
 Basis Dimension        Dim             ....  322

ORBITAL ENERGIES
----------------

  NO   OCC          E(Eh)            E(eV)
   0   2.0000     -88.968500     -2420.9560
   1   2.0000     -88.968100     -2420.9451
   2   2.0000     -10.333197      -281.1806
   3   2.0000     -10.324354      -280.9400
   4   2.0000     -10.319476      -280.8072
   5   2.0000     -10.311121      -280.5799
   6   2.0000     -10.310253      -280.5562
   7   2.0000     -10.303109      -280.3618
   8   2.0000     -10.301530      -280.3189
   9   2.0000     -10.299581      -280.2658
  10   2.0000     -10.296144      -280.1723
  11   2.0000     -10.288340      -279.9600
  12   2.0000     -10.287036      -279.9245
  13   2.0000     -10.280341      -279.7423
  14   2.0000     -10.275188      -279.6021
  15   2.0000     -10.274374      -279.5799
  16   2.0000      -8.082395      -219.9331
  17   2.0000      -8.081389      -219.9058
  18   2.0000      -6.040939      -164.3823
  19   2.0000      -6.039847      -164.3526
  20   2.0000      -6.037160      -164.2795
  21   2.0000      -6.036137      -164.2516
  22   2.0000      -6.033004      -164.1664
  23   2.0000      -6.032234      -164.1454
  24   2.0000      -0.998841       -27.1799
  25   2.0000      -0.974322       -26.5126
  26   2.0000      -0.908429       -24.7196
  27   2.0000      -0.907443       -24.6928
  28   2.0000      -0.868651       -23.6372
  29   2.0000      -0.849349       -23.1120
  30   2.0000      -0.843072       -22.9412
  31   2.0000      -0.810056       -22.0427
  32   2.0000      -0.786240       -21.3947
  33   2.0000      -0.770143       -20.9567
  34   2.0000      -0.711992       -19.3743
  35   2.0000      -0.695561       -18.9272
  36   2.0000      -0.689422       -18.7601
  37   2.0000      -0.658784       -17.9264
  38   2.0000      -0.638374       -17.3711
  39   2.0000      -0.616966       -16.7885
  40   2.0000      -0.593050       -16.1377
  41   2.0000      -0.578001       -15.7282
  42   2.0000      -0.565836       -15.3972
  43   2.0000      -0.555921       -15.1274
  44   2.0000      -0.525430       -14.2977
  45   2.0000      -0.522603       -14.2208
  46   2.0000      -0.508432       -13.8351
  47   2.0000      -0.504598       -13.7308
  48   2.0000      -0.502662       -13.6781
  49   2.0000      -0.499616       -13.5952
  50   2.0000      -0.492724       -13.4077
  51   2.0000      -0.476276       -12.9601
  52   2.0000      -0.471161       -12.8210
  53   2.0000      -0.467177       -12.7125
  54   2.0000      -0.459781       -12.5113
  55   2.0000      -0.454763       -12.3747
  56   2.0000      -0.442284       -12.0352
  57   2.0000      -0.438038       -11.9196
  58   2.0000      -0.431571       -11.7436
  59   2.0000      -0.425498       -11.5784
  60   2.0000      -0.417926       -11.3723
  61   2.0000      -0.411220       -11.1899
  62   2.0000      -0.408336       -11.1114
  63   2.0000      -0.337389        -9.1808
  64   2.0000      -0.328413        -8.9366
  65   2.0000      -0.319923        -8.7056
  66   2.0000      -0.302581        -8.2336
  67   0.0000       0.030689         0.8351
  68   0.0000       0.049318         1.3420
  69   0.0000       0.107259         2.9187
  70   0.0000       0.113130         3.0784
  71   0.0000       0.125303         3.4097

MULLIKEN ATOMIC CHARGES
-----------------------
   0 S :    0.103517
   1 C :   -0.117509
   2 C :   -0.071752
   3 C :    0.031869
   4 C :   -0.189085
   5 H :    0.025237
   6 C :    0.049411
   7 H :    0.044774
   8 H :    0.023176
   9 C :   -0.137037
  10 H :    0.042827
  11 H :    0.042536
  12 C :    0.014648
  13 H :    0.030825
  14 H :    0.006410
  15 H :    0.027605
  16 S :    0.128196
  17 C :   -0.047810
  18 C :   -0.059510
  19 C :    0.004296
  20 C :   -0.193444
  21 H :    0.011290
  22 C :    0.072761
  23 H :    0.025668
  24 H :    0.020064
  25 C :   -0.050710
  26 H :    0.024713
  27 H :    0.029766
  28 C :   -0.061880
  29 H :    0.018731
  30 H :    0.030170
  31 H :    0.035732
  32 H :    0.049840
  33 H :    0.034676
Sum of atomic charges:    0.0000000

LOEWDIN ATOMIC CHARGES
----------------------
   0 S :    0.388003
   1 C :   -0.184937
   2 C :   -0.060414
   3 C :   -0.057271
   4 C :   -0.192934
   5 H :    0.032013
   6 C :   -0.030515
   7 H :    0.036773
   8 H :    0.024257
   9 C :   -0.042199
  10 H :    0.026355
  11 H :    0.027260
  12 C :   -0.062009
  13 H :    0.034586
  14 H :    0.023191
  15 H :    0.018098
  16 S :    0.395124
  17 C :   -0.182105
  18 C :   -0.073162
  19 C :   -0.042385
  20 C :   -0.205375
  21 H :    0.029286
  22 C :   -0.030338
  23 H :    0.036090
  24 H :    0.025109
  25 C :   -0.036962
  26 H :    0.021081
  27 H :    0.029924
  28 C :   -0.072912
  29 H :    0.015697
  30 H :    0.027551
  31 H :    0.032106
  32 H :    0.025466
  33 H :    0.025551

  Mayer bond orders larger than 0.100000
B(  0-S ,  1-C ) :   1.1393 B(  0-S ,  4-C ) :   1.1550 B(  1-C ,  2-C ) :   1.6031
B(  1-C ,  4-C ) :   0.1135 B(  1-C , 32-H ) :   0.9653 B(  2-C ,  3-C ) :   1.2480
B(  2-C ,  6-C ) :   1.0118 B(  3-C ,  4-C ) :   1.5628 B(  3-C ,  5-H ) :   0.9859
B(  4-C , 20-C ) :   1.0459 B(  6-C ,  7-H ) :   0.9420 B(  6-C ,  8-H ) :   0.9490
B(  6-C ,  9-C ) :   1.0488 B(  9-C , 10-H ) :   0.9524 B(  9-C , 11-H ) :   0.9608
B(  9-C , 12-C ) :   1.0901 B( 12-C , 13-H ) :   0.9683 B( 12-C , 14-H ) :   0.9653
B( 12-C , 15-H ) :   0.9755 B( 16-S , 17-C ) :   1.1487 B( 16-S , 20-C ) :   1.1142
B( 17-C , 18-C ) :   1.6409 B( 17-C , 33-H ) :   0.9592 B( 18-C , 19-C ) :   1.2335
B( 18-C , 21-H ) :   0.9902 B( 19-C , 20-C ) :   1.6181 B( 19-C , 22-C ) :   1.0389
B( 22-C , 23-H ) :   0.9285 B( 22-C , 24-H ) :   0.9412 B( 22-C , 25-C ) :   1.0722
B( 25-C , 26-H ) :   0.9593 B( 25-C , 27-H ) :   0.9500 B( 25-C , 28-C ) :   1.0710
B( 28-C , 29-H ) :   0.9764 B( 28-C , 30-H ) :   0.9739 B( 28-C , 31-H ) :   0.9757

Dispersion correction           -0.013738108
FINAL SINGLE POINT ENERGY     -1339.860751803641

DIPOLE MOMENT
-------------
                                X             Y             Z
Electronic contribution:     17.10662      -6.95805      16.72103
Nuclear contribution   :    -17.29998       7.16375     -17.22288
                        -----------------------------------------
Total Dipole Moment    :     -0.19335       0.20570      -0.50185
                        -----------------------------------------
Magnitude (a.u.)       :      0.57581
Magnitude (Debye)      :      1.46358

Rotational constants in cm-1:     0.017420     0.007839     0.006894
Rotational constants in MHz :   522.233153   235.018015   206.677029

                             ****ORCA TERMINATED NORMALLY****
TOTAL RUN TIME: 0 days 0 hours 0 minutes 29 seconds 239 msec
