                         Program Version 4.2.1 -  RELEASE  -
|  1> ! wB97X-D3 SP def2-SVP
|  2> %pal
|  3> nprocs 16
|  4> end
|  5>
|  6> * xyz 0 1
|  7> S 	 -31.939 	 37.8643 	 101.238
|  8> C 	 -32.3714 	 36.421 	 100.311
|  9> C 	 -32.4734 	 36.7285 	 98.9455
| 10> C 	 -32.2176 	 38.1337 	 98.7217
| 11> C 	 -31.9923 	 38.8539 	 99.9041
| 12> H 	 -32.3218 	 38.8105 	 97.8232
| 13> C 	 -32.9518 	 35.811 	 97.7789
| 14> H 	 -32.3462 	 34.9599 	 97.635
| 15> H 	 -32.7886 	 36.3465 	 96.8154
| 16> C 	 -34.433 	 35.3278 	 97.7356
| 17> H 	 -34.6611 	 34.8127 	 98.7503
| 18> H 	 -35.0617 	 36.2682 	 97.8413
| 19> C 	 -34.9978 	 34.7023 	 96.4027
| 20> H 	 -34.6815 	 35.2126 	 95.5293
| 21> H 	 -34.6876 	 33.6463 	 96.2183
| 22> H 	 -36.1249 	 34.7463 	 96.4268
| 23> S 	 -30.0403 	 40.5154 	 99.1978
| 24> C 	 -30.2354 	 42.2042 	 99.5987
| 25> C 	 -31.3237 	 42.4596 	 100.365
| 26> C 	 -32.1143 	 41.2843 	 100.608
| 27> C 	 -31.6183 	 40.224 	 99.9094
| 28> H 	 -31.5263 	 43.506 	 100.731
| 29> C 	 -33.4563 	 41.2725 	 101.454
| 30> H 	 -33.6766 	 42.3047 	 101.695
| 31> H 	 -33.2465 	 40.6307 	 102.305
| 32> C 	 -34.7356 	 40.8713 	 100.758
| 33> H 	 -34.6254 	 39.8422 	 100.505
| 34> H 	 -34.9069 	 41.2667 	 99.795
| 35> C 	 -35.9747 	 41.1448 	 101.668
| 36> H 	 -36.8326 	 40.5902 	 101.326
| 37> H 	 -36.1792 	 42.2387 	 101.782
| 38> H 	 -35.8669 	 40.7481 	 102.673
| 39> H 	 -32.6283 	 35.4229 	 100.749
| 40> H 	 -29.5273 	 42.9723 	 99.256
| 41> *
| 42>
| 43>                          ****END OF INPUT****

CARTESIAN COORDINATES (ANGSTROEM)
---------------------------------
  S    -31.939000   37.864300  101.238000
  C    -32.371400   36.421000  100.311000
  C    -32.473400   36.728500   98.945500
  C    -32.217600   38.133700   98.721700
  C    -31.992300   38.853900   99.904100
  H    -32.321800   38.810500   97.823200
  C    -32.951800   35.811000   97.778900
  H    -32.346200   34.959900   97.635000
  H    -32.788600   36.346500   96.815400
  C    -34.433000   35.327800   97.735600
  H    -34.661100   34.812700   98.750300
  H    -35.061700   36.268200   97.841300
  C    -34.997800   34.702300   96.402700
  H    -34.681500   35.212600   95.529300
  H    -34.687600   33.646300   96.218300
  H    -36.124900   34.746300   96.426800
  S    -30.040300   40.515400   99.197800
  C    -30.235400   42.204200   99.598700
  C    -31.323700   42.459600  100.365000
  C    -32.114300   41.284300  100.608000
  C    -31.618300   40.224000   99.909400
  H    -31.526300   43.506000  100.731000
  C    -33.456300   41.272500  101.454000
  H    -33.676600   42.304700  101.695000
  H    -33.246500   40.630700  102.305000
  C    -34.735600   40.871300  100.758000
  H    -34.625400   39.842200  100.505000
  H    -34.906900   41.266700   99.795000
  C    -35.974700   41.144800  101.668000
  H    -36.832600   40.590200  101.326000
  H    -36.179200   42.238700  101.782000
  H    -35.866900   40.748100  102.673000
  H    -32.628300   35.422900  100.749000
  H    -29.527300   42.972300   99.256000

 Total Charge           Charge          ....    0
 Multiplicity           Mult            ....    1
 Number of Electrons    NEL             ....  134
 Basis Dimension        Dim             ....  322

ORBITAL ENERGIES
----------------

  NO   OCC          E(Eh)            E(eV)
   0   2.0000     -88.969763     -2420.9903
   1   2.0000     -88.963689     -2420.8251
   2   2.0000     -10.322048      -280.8772
   3   2.0000     -10.317706      -280.7591
   4   2.0000     -10.317297      -280.7479
   5   2.0000     -10.314503      -280.6719
   6   2.0000     -10.313508      -280.6448
   7   2.0000     -10.304755      -280.4066
   8   2.0000     -10.302618      -280.3485
   9   2.0000     -10.296959      -280.1945
  10   2.0000     -10.296416      -280.1797
  11   2.0000     -10.295700      -280.1602
  12   2.0000     -10.293869      -280.1104
  13   2.0000     -10.290417      -280.0165
  14   2.0000     -10.279211      -279.7116
  15   2.0000     -10.276410      -279.6353
  16   2.0000      -8.085339      -220.0133
  17   2.0000      -8.078726      -219.8333
  18   2.0000      -6.043691      -164.4572
  19   2.0000      -6.039554      -164.3446
  20   2.0000      -6.037171      -164.2798
  21   2.0000      -6.036378      -164.2582
  22   2.0000      -6.033401      -164.1772
  23   2.0000      -6.029304      -164.0657
  24   2.0000      -1.014505       -27.6061
  25   2.0000      -0.985236       -26.8096
  26   2.0000      -0.906579       -24.6693
  27   2.0000      -0.901303       -24.5257
  28   2.0000      -0.869671       -23.6649
  29   2.0000      -0.849290       -23.1103
  30   2.0000      -0.842800       -22.9338
  31   2.0000      -0.806440       -21.9444
  32   2.0000      -0.785123       -21.3643
  33   2.0000      -0.773580       -21.0502
  34   2.0000      -0.708497       -19.2792
  35   2.0000      -0.697615       -18.9831
  36   2.0000      -0.690341       -18.7851
  37   2.0000      -0.661507       -18.0005
  38   2.0000      -0.639644       -17.4056
  39   2.0000      -0.606433       -16.5019
  40   2.0000      -0.593375       -16.1465
  41   2.0000      -0.570663       -15.5285
  42   2.0000      -0.563614       -15.3367
  43   2.0000      -0.546619       -14.8743
  44   2.0000      -0.521598       -14.1934
  45   2.0000      -0.516564       -14.0564
  46   2.0000      -0.514335       -13.9958
  47   2.0000      -0.507097       -13.7988
  48   2.0000      -0.499307       -13.5868
  49   2.0000      -0.497176       -13.5288
  50   2.0000      -0.490196       -13.3389
  51   2.0000      -0.483617       -13.1599
  52   2.0000      -0.473204       -12.8765
  53   2.0000      -0.467112       -12.7108
  54   2.0000      -0.460106       -12.5201
  55   2.0000      -0.448638       -12.2081
  56   2.0000      -0.447588       -12.1795
  57   2.0000      -0.437231       -11.8977
  58   2.0000      -0.434609       -11.8263
  59   2.0000      -0.422891       -11.5074
  60   2.0000      -0.417817       -11.3694
  61   2.0000      -0.412531       -11.2255
  62   2.0000      -0.404439       -11.0054
  63   2.0000      -0.340324        -9.2607
  64   2.0000      -0.332047        -9.0355
  65   2.0000      -0.329759        -8.9732
  66   2.0000      -0.301402        -8.2016
  67   0.0000       0.034797         0.9469
  68   0.0000       0.070127         1.9083
  69   0.0000       0.103684         2.8214
  70   0.0000       0.118116         3.2141
  71   0.0000       0.128091         3.4855

MULLIKEN ATOMIC CHARGES
-----------------------
   0 S :    0.135982
   1 C :   -0.156329
   2 C :   -0.051410
   3 C :   -0.012920
   4 C :   -0.180697
   5 H :    0.038572
   6 C :    0.083349
   7 H :    0.022435
   8 H :    0.016170
   9 C :   -0.128447
  10 H :    0.041618
  11 H :    0.033820
  12 C :   -0.054942
  13 H :    0.026859
  14 H :    0.039797
  15 H :    0.049944
  16 S :    0.120783
  17 C :   -0.096605
  18 C :   -0.050747
  19 C :   -0.031242
  20 C :   -0.182264
  21 H :    0.036787
  22 C :    0.083907
  23 H :    0.011550
  24 H :    0.040094
  25 C :   -0.041264
  26 H :    0.020951
  27 H :    0.018095
  28 C :   -0.058471
  29 H :    0.030039
  30 H :    0.043158
  31 H :    0.022365
  32 H :    0.068807
  33 H :    0.060257
Sum of atomic charges:   -0.0000000

LOEWDIN ATOMIC CHARGES
----------------------
   0 S :    0.448125
   1 C :   -0.208383
   2 C :   -0.055898
   3 C :   -0.079237
   4 C :   -0.239559
   5 H :    0.042360
   6 C :   -0.036168
   7 H :    0.022050
   8 H :    0.032565
   9 C :   -0.056288
  10 H :    0.030134
  11 H :    0.028846
  12 C :   -0.068801
  13 H :    0.020758
  14 H :    0.027195
  15 H :    0.037725
  16 S :    0.408169
  17 C :   -0.185863
  18 C :   -0.079160
  19 C :   -0.052144
  20 C :   -0.202042
  21 H :    0.041947
  22 C :   -0.022273
  23 H :    0.027203
  24 H :    0.032304
  25 C :   -0.039350
  26 H :    0.020297
  27 H :    0.020900
  28 C :   -0.065726
  29 H :    0.026345
  30 H :    0.029643
  31 H :    0.023808
  32 H :    0.038833
  33 H :    0.031683

  Mayer bond orders larger than 0.100000
B(  0-S ,  1-C ) :   1.1467 B(  0-S ,  4-C ) :   1.1830 B(  1-C ,  2-C ) :   1.5846
B(  1-C , 32-H ) :   0.9672 B(  2-C ,  3-C ) :   1.2499 B(  2-C ,  6-C ) :   1.0187
B(  3-C ,  4-C ) :   1.5326 B(  3-C ,  5-H ) :   0.9871 B(  4-C , 20-C ) :   1.0538
B(  6-C ,  7-H ) :   0.9403 B(  6-C ,  8-H ) :   0.9430 B(  6-C ,  9-C ) :   1.0543
B(  9-C , 10-H ) :   0.9574 B(  9-C , 11-H ) :   0.9587 B(  9-C , 12-C ) :   1.0611
B( 12-C , 13-H ) :   0.9737 B( 12-C , 14-H ) :   0.9770 B( 12-C , 15-H ) :   0.9780
B( 16-S , 17-C ) :   1.1418 B( 16-S , 20-C ) :   1.1370 B( 17-C , 18-C ) :   1.6468
B( 17-C , 33-H ) :   0.9616 B( 18-C , 19-C ) :   1.2201 B( 18-C , 21-H ) :   0.9808
B( 19-C , 20-C ) :   1.6233 B( 19-C , 22-C ) :   1.0198 B( 22-C , 23-H ) :   0.9454
B( 22-C , 24-H ) :   0.9287 B( 22-C , 25-C ) :   1.0721 B( 25-C , 26-H ) :   0.9463
B( 25-C , 27-H ) :   0.9548 B( 25-C , 28-C ) :   1.0836 B( 28-C , 29-H ) :   0.9730
B( 28-C , 30-H ) :   0.9760 B( 28-C , 31-H ) :   0.9739

Dispersion correction           -0.014152224
FINAL SINGLE POINT ENERGY     -1339.863059083419

DIPOLE MOMENT
-------------
                                X             Y             Z
Electronic contribution:     24.62791       7.11163       6.64585
Nuclear contribution   :    -25.06826      -7.05632      -6.80807
                        -----------------------------------------
Total Dipole Moment    :     -0.44034       0.05531      -0.16222
                        -----------------------------------------
Magnitude (a.u.)       :      0.47252
Magnitude (Debye)      :      1.20106

Rotational constants in cm-1:     0.018203     0.008131     0.006778
Rotational constants in MHz :   545.718229   243.763617   203.204739

                             ****ORCA TERMINATED NORMALLY****
TOTAL RUN TIME: 0 days 0 hours 0 minutes 30 seconds 467 msec
