                         Program Version 4.2.1 -  RELEASE  -
|  1> ! wB97X-D3 SP def2-SVP
|  2> %pal
|  3> nprocs 16
|  4> end
|  5>
|  6> * xyz 0 1
|  7> S 	 -97.297 	 43.7616 	 118.753
|  8> C 	 -97.4075 	 44.9632 	 120.02
|  9> C 	 -96.2893 	 45.1012 	 120.751
| 10> C 	 -95.3552 	 44.063 	 120.479
| 11> C 	 -95.6683 	 43.2625 	 119.361
| 12> H 	 -94.427 	 43.8958 	 120.959
| 13> C 	 -95.9547 	 46.1101 	 121.819
| 14> H 	 -95.2481 	 45.7432 	 122.513
| 15> H 	 -96.8585 	 46.3268 	 122.466
| 16> C 	 -95.4255 	 47.442 	 121.097
| 17> H 	 -94.3571 	 47.2165 	 120.789
| 18> H 	 -95.993 	 47.4865 	 120.173
| 19> C 	 -95.5875 	 48.7099 	 122.025
| 20> H 	 -96.6878 	 48.8231 	 122.24
| 21> H 	 -95.0709 	 48.5182 	 122.97
| 22> H 	 -95.2741 	 49.6638 	 121.593
| 23> S 	 -95.7407 	 40.6948 	 118.48
| 24> C 	 -94.4307 	 40.1657 	 117.421
| 25> C 	 -93.5789 	 41.1397 	 117.057
| 26> C 	 -93.8902 	 42.3506 	 117.786
| 27> C 	 -94.9082 	 42.2789 	 118.69
| 28> H 	 -92.7453 	 40.9619 	 116.363
| 29> C 	 -93.0329 	 43.6026 	 117.498
| 30> H 	 -91.9944 	 43.2518 	 117.417
| 31> H 	 -93.1485 	 44.1651 	 118.402
| 32> C 	 -93.4026 	 44.6321 	 116.417
| 33> H 	 -93.2029 	 44.1129 	 115.411
| 34> H 	 -92.562 	 45.3891 	 116.588
| 35> C 	 -94.8187 	 45.1416 	 116.472
| 36> H 	 -95.1814 	 45.4379 	 115.526
| 37> H 	 -95.1129 	 45.977 	 117.091
| 38> H 	 -95.41 	 44.2562 	 116.632
| 39> H 	 -98.2384 	 45.6748 	 120.085
| 40> H 	 -94.5195 	 39.1704 	 116.96
| 41> *
| 42>
| 43>                          ****END OF INPUT****

CARTESIAN COORDINATES (ANGSTROEM)
---------------------------------
  S    -97.297000   43.761600  118.753000
  C    -97.407500   44.963200  120.020000
  C    -96.289300   45.101200  120.751000
  C    -95.355200   44.063000  120.479000
  C    -95.668300   43.262500  119.361000
  H    -94.427000   43.895800  120.959000
  C    -95.954700   46.110100  121.819000
  H    -95.248100   45.743200  122.513000
  H    -96.858500   46.326800  122.466000
  C    -95.425500   47.442000  121.097000
  H    -94.357100   47.216500  120.789000
  H    -95.993000   47.486500  120.173000
  C    -95.587500   48.709900  122.025000
  H    -96.687800   48.823100  122.240000
  H    -95.070900   48.518200  122.970000
  H    -95.274100   49.663800  121.593000
  S    -95.740700   40.694800  118.480000
  C    -94.430700   40.165700  117.421000
  C    -93.578900   41.139700  117.057000
  C    -93.890200   42.350600  117.786000
  C    -94.908200   42.278900  118.690000
  H    -92.745300   40.961900  116.363000
  C    -93.032900   43.602600  117.498000
  H    -91.994400   43.251800  117.417000
  H    -93.148500   44.165100  118.402000
  C    -93.402600   44.632100  116.417000
  H    -93.202900   44.112900  115.411000
  H    -92.562000   45.389100  116.588000
  C    -94.818700   45.141600  116.472000
  H    -95.181400   45.437900  115.526000
  H    -95.112900   45.977000  117.091000
  H    -95.410000   44.256200  116.632000
  H    -98.238400   45.674800  120.085000
  H    -94.519500   39.170400  116.960000

 Total Charge           Charge          ....    0
 Multiplicity           Mult            ....    1
 Number of Electrons    NEL             ....  134
 Basis Dimension        Dim             ....  322

ORBITAL ENERGIES
----------------

  NO   OCC          E(Eh)            E(eV)
   0   2.0000     -88.965289     -2420.8686
   1   2.0000     -88.959210     -2420.7032
   2   2.0000     -10.330887      -281.1177
   3   2.0000     -10.323549      -280.9180
   4   2.0000     -10.319892      -280.8186
   5   2.0000     -10.311975      -280.6031
   6   2.0000     -10.306907      -280.4652
   7   2.0000     -10.298860      -280.2462
   8   2.0000     -10.296676      -280.1868
   9   2.0000     -10.296241      -280.1750
  10   2.0000     -10.295927      -280.1664
  11   2.0000     -10.295866      -280.1647
  12   2.0000     -10.293398      -280.0976
  13   2.0000     -10.289347      -279.9874
  14   2.0000     -10.286019      -279.8968
  15   2.0000     -10.264353      -279.3073
  16   2.0000      -8.078854      -219.8368
  17   2.0000      -8.073844      -219.7005
  18   2.0000      -6.037407      -164.2862
  19   2.0000      -6.033577      -164.1820
  20   2.0000      -6.032436      -164.1509
  21   2.0000      -6.029558      -164.0726
  22   2.0000      -6.028577      -164.0459
  23   2.0000      -6.024289      -163.9292
  24   2.0000      -1.004588       -27.3362
  25   2.0000      -0.982214       -26.7274
  26   2.0000      -0.905455       -24.6387
  27   2.0000      -0.904178       -24.6039
  28   2.0000      -0.872226       -23.7345
  29   2.0000      -0.847047       -23.0493
  30   2.0000      -0.841664       -22.9029
  31   2.0000      -0.813339       -22.1321
  32   2.0000      -0.784683       -21.3523
  33   2.0000      -0.771724       -20.9997
  34   2.0000      -0.710909       -19.3448
  35   2.0000      -0.701704       -19.0943
  36   2.0000      -0.685872       -18.6635
  37   2.0000      -0.662112       -18.0170
  38   2.0000      -0.643212       -17.5027
  39   2.0000      -0.614361       -16.7176
  40   2.0000      -0.590488       -16.0680
  41   2.0000      -0.572631       -15.5821
  42   2.0000      -0.554843       -15.0980
  43   2.0000      -0.551300       -15.0016
  44   2.0000      -0.539563       -14.6823
  45   2.0000      -0.520225       -14.1561
  46   2.0000      -0.514324       -13.9955
  47   2.0000      -0.509226       -13.8567
  48   2.0000      -0.504628       -13.7316
  49   2.0000      -0.495443       -13.4817
  50   2.0000      -0.492937       -13.4135
  51   2.0000      -0.474797       -12.9199
  52   2.0000      -0.472953       -12.8697
  53   2.0000      -0.460350       -12.5268
  54   2.0000      -0.458859       -12.4862
  55   2.0000      -0.448302       -12.1989
  56   2.0000      -0.442074       -12.0295
  57   2.0000      -0.440036       -11.9740
  58   2.0000      -0.430481       -11.7140
  59   2.0000      -0.425394       -11.5756
  60   2.0000      -0.421121       -11.4593
  61   2.0000      -0.407442       -11.0870
  62   2.0000      -0.403129       -10.9697
  63   2.0000      -0.340004        -9.2520
  64   2.0000      -0.332084        -9.0365
  65   2.0000      -0.328017        -8.9258
  66   2.0000      -0.298303        -8.1172
  67   0.0000       0.030323         0.8251
  68   0.0000       0.055157         1.5009
  69   0.0000       0.108367         2.9488
  70   0.0000       0.118703         3.2301
  71   0.0000       0.123895         3.3713

MULLIKEN ATOMIC CHARGES
-----------------------
   0 S :    0.106941
   1 C :   -0.122013
   2 C :   -0.081193
   3 C :    0.062579
   4 C :   -0.168516
   5 H :   -0.000840
   6 C :    0.047308
   7 H :    0.018565
   8 H :    0.034275
   9 C :   -0.093784
  10 H :    0.039720
  11 H :    0.036190
  12 C :   -0.054295
  13 H :    0.037717
  14 H :    0.039708
  15 H :    0.043980
  16 S :    0.068655
  17 C :   -0.088419
  18 C :   -0.014303
  19 C :   -0.070333
  20 C :   -0.155091
  21 H :    0.033594
  22 C :    0.067814
  23 H :    0.029167
  24 H :    0.004859
  25 C :   -0.084695
  26 H :    0.030465
  27 H :    0.042185
  28 C :    0.007418
  29 H :    0.006378
  30 H :    0.038052
  31 H :    0.022853
  32 H :    0.048325
  33 H :    0.066733
Sum of atomic charges:   -0.0000000

LOEWDIN ATOMIC CHARGES
----------------------
   0 S :    0.389037
   1 C :   -0.193052
   2 C :   -0.071371
   3 C :   -0.048009
   4 C :   -0.178566
   5 H :    0.025046
   6 C :   -0.028730
   7 H :    0.021504
   8 H :    0.034119
   9 C :   -0.038042
  10 H :    0.028919
  11 H :    0.019932
  12 C :   -0.070807
  13 H :    0.030952
  14 H :    0.026906
  15 H :    0.026084
  16 S :    0.365408
  17 C :   -0.161642
  18 C :   -0.079477
  19 C :   -0.043884
  20 C :   -0.196979
  21 H :    0.040675
  22 C :   -0.039131
  23 H :    0.031635
  24 H :    0.024297
  25 C :   -0.041804
  26 H :    0.027406
  27 H :    0.032929
  28 C :   -0.070490
  29 H :    0.023432
  30 H :    0.028507
  31 H :    0.023874
  32 H :    0.030227
  33 H :    0.031094

  Mayer bond orders larger than 0.100000
B(  0-S ,  1-C ) :   1.1306 B(  0-S ,  4-C ) :   1.1256 B(  1-C ,  2-C ) :   1.6449
B(  1-C , 32-H ) :   0.9590 B(  2-C ,  3-C ) :   1.2208 B(  2-C ,  6-C ) :   1.0287
B(  3-C ,  4-C ) :   1.5917 B(  3-C ,  5-H ) :   0.9955 B(  4-C , 20-C ) :   1.0735
B(  6-C ,  7-H ) :   0.9431 B(  6-C ,  8-H ) :   0.9500 B(  6-C ,  9-C ) :   1.0272
B(  9-C , 10-H ) :   0.9565 B(  9-C , 11-H ) :   0.9685 B(  9-C , 12-C ) :   1.0623
B( 12-C , 13-H ) :   0.9771 B( 12-C , 14-H ) :   0.9757 B( 12-C , 15-H ) :   0.9769
B( 16-S , 17-C ) :   1.1532 B( 16-S , 20-C ) :   1.0904 B( 17-C , 18-C ) :   1.6405
B( 17-C , 33-H ) :   0.9592 B( 18-C , 19-C ) :   1.1944 B( 18-C , 21-H ) :   0.9924
B( 19-C , 20-C ) :   1.6426 B( 19-C , 22-C ) :   1.0233 B( 22-C , 23-H ) :   0.9401
B( 22-C , 24-H ) :   0.9295 B( 22-C , 25-C ) :   1.0692 B( 25-C , 26-H ) :   0.9557
B( 25-C , 27-H ) :   0.9530 B( 25-C , 28-C ) :   1.0748 B( 28-C , 29-H ) :   0.9647
B( 28-C , 30-H ) :   0.9737 B( 28-C , 31-H ) :   0.9628

Dispersion correction           -0.015730879
FINAL SINGLE POINT ENERGY     -1339.864975804769

DIPOLE MOMENT
-------------
                                X             Y             Z
Electronic contribution:     -9.48011     -25.81012      -2.92187
Nuclear contribution   :      9.88534      26.29798       2.84975
                        -----------------------------------------
Total Dipole Moment    :      0.40523       0.48786      -0.07213
                        -----------------------------------------
Magnitude (a.u.)       :      0.63830
Magnitude (Debye)      :      1.62242

Rotational constants in cm-1:     0.023098     0.008402     0.007239
Rotational constants in MHz :   692.474005   251.887495   217.032716

                             ****ORCA TERMINATED NORMALLY****
TOTAL RUN TIME: 0 days 0 hours 0 minutes 35 seconds 939 msec
