                         Program Version 4.2.1 -  RELEASE  -
|  1> ! wB97X-D3 SP def2-SVP
|  2> %pal
|  3> nprocs 16
|  4> end
|  5>
|  6> * xyz 0 1
|  7> S 	 -46.3723 	 31.1799 	 89.7139
|  8> C 	 -47.4984 	 30.9152 	 90.9755
|  9> C 	 -48.6335 	 31.7098 	 90.8785
| 10> C 	 -48.49 	 32.5352 	 89.7023
| 11> C 	 -47.3249 	 32.5107 	 89.0511
| 12> H 	 -49.2611 	 33.1619 	 89.2355
| 13> C 	 -49.8281 	 31.7064 	 91.8397
| 14> H 	 -50.7504 	 31.4523 	 91.3337
| 15> H 	 -49.9337 	 32.7774 	 92.0529
| 16> C 	 -49.5614 	 30.7922 	 93.0564
| 17> H 	 -49.2914 	 29.7375 	 92.7632
| 18> H 	 -48.6114 	 31.1613 	 93.5742
| 19> C 	 -50.6494 	 30.7916 	 94.0817
| 20> H 	 -50.2739 	 30.7461 	 95.0751
| 21> H 	 -51.2283 	 31.7549 	 94.0192
| 22> H 	 -51.4284 	 30.0078 	 94.0034
| 23> S 	 -46.1857 	 32.0792 	 86.6689
| 24> C 	 -45.9246 	 33.3818 	 85.5191
| 25> C 	 -46.3962 	 34.6319 	 85.97
| 26> C 	 -46.9202 	 34.4323 	 87.2917
| 27> C 	 -46.7279 	 33.1759 	 87.864
| 28> H 	 -46.43 	 35.4054 	 85.2115
| 29> C 	 -47.4885 	 35.605 	 87.9929
| 30> H 	 -46.7848 	 36.3938 	 88.2601
| 31> H 	 -47.8008 	 35.2136 	 88.948
| 32> C 	 -48.7538 	 36.1585 	 87.3628
| 33> H 	 -49.4919 	 35.4248 	 87.4422
| 34> H 	 -48.5031 	 36.4024 	 86.3837
| 35> C 	 -49.284 	 37.3778 	 88.2271
| 36> H 	 -48.7356 	 38.3399 	 88.0811
| 37> H 	 -49.3723 	 37.138 	 89.2555
| 38> H 	 -50.2815 	 37.5216 	 87.7796
| 39> H 	 -47.4628 	 30.0574 	 91.651
| 40> H 	 -45.7972 	 33.3176 	 84.4239
| 41> *
| 42>
| 43>                          ****END OF INPUT****

CARTESIAN COORDINATES (ANGSTROEM)
---------------------------------
  S    -46.372300   31.179900   89.713900
  C    -47.498400   30.915200   90.975500
  C    -48.633500   31.709800   90.878500
  C    -48.490000   32.535200   89.702300
  C    -47.324900   32.510700   89.051100
  H    -49.261100   33.161900   89.235500
  C    -49.828100   31.706400   91.839700
  H    -50.750400   31.452300   91.333700
  H    -49.933700   32.777400   92.052900
  C    -49.561400   30.792200   93.056400
  H    -49.291400   29.737500   92.763200
  H    -48.611400   31.161300   93.574200
  C    -50.649400   30.791600   94.081700
  H    -50.273900   30.746100   95.075100
  H    -51.228300   31.754900   94.019200
  H    -51.428400   30.007800   94.003400
  S    -46.185700   32.079200   86.668900
  C    -45.924600   33.381800   85.519100
  C    -46.396200   34.631900   85.970000
  C    -46.920200   34.432300   87.291700
  C    -46.727900   33.175900   87.864000
  H    -46.430000   35.405400   85.211500
  C    -47.488500   35.605000   87.992900
  H    -46.784800   36.393800   88.260100
  H    -47.800800   35.213600   88.948000
  C    -48.753800   36.158500   87.362800
  H    -49.491900   35.424800   87.442200
  H    -48.503100   36.402400   86.383700
  C    -49.284000   37.377800   88.227100
  H    -48.735600   38.339900   88.081100
  H    -49.372300   37.138000   89.255500
  H    -50.281500   37.521600   87.779600
  H    -47.462800   30.057400   91.651000
  H    -45.797200   33.317600   84.423900

 Total Charge           Charge          ....    0
 Multiplicity           Mult            ....    1
 Number of Electrons    NEL             ....  134
 Basis Dimension        Dim             ....  322

ORBITAL ENERGIES
----------------

  NO   OCC          E(Eh)            E(eV)
   0   2.0000     -88.969083     -2420.9718
   1   2.0000     -88.958196     -2420.6756
   2   2.0000     -10.328779      -281.0604
   3   2.0000     -10.328023      -281.0398
   4   2.0000     -10.320622      -280.8384
   5   2.0000     -10.310432      -280.5611
   6   2.0000     -10.304427      -280.3977
   7   2.0000     -10.304404      -280.3971
   8   2.0000     -10.300499      -280.2908
   9   2.0000     -10.298811      -280.2449
  10   2.0000     -10.298807      -280.2448
  11   2.0000     -10.292925      -280.0847
  12   2.0000     -10.281305      -279.7685
  13   2.0000     -10.280095      -279.7356
  14   2.0000     -10.278630      -279.6957
  15   2.0000     -10.276155      -279.6284
  16   2.0000      -8.084181      -219.9817
  17   2.0000      -8.073975      -219.7040
  18   2.0000      -6.042681      -164.4297
  19   2.0000      -6.038592      -164.3184
  20   2.0000      -6.034916      -164.2184
  21   2.0000      -6.032466      -164.1517
  22   2.0000      -6.028396      -164.0410
  23   2.0000      -6.024621      -163.9383
  24   2.0000      -1.012623       -27.5549
  25   2.0000      -0.988164       -26.8893
  26   2.0000      -0.915774       -24.9195
  27   2.0000      -0.912356       -24.8265
  28   2.0000      -0.871035       -23.7021
  29   2.0000      -0.851683       -23.1755
  30   2.0000      -0.846309       -23.0292
  31   2.0000      -0.821896       -22.3649
  32   2.0000      -0.781320       -21.2608
  33   2.0000      -0.767701       -20.8902
  34   2.0000      -0.711057       -19.3488
  35   2.0000      -0.705328       -19.1929
  36   2.0000      -0.688790       -18.7429
  37   2.0000      -0.664025       -18.0690
  38   2.0000      -0.639777       -17.4092
  39   2.0000      -0.615120       -16.7383
  40   2.0000      -0.593037       -16.1374
  41   2.0000      -0.576100       -15.6765
  42   2.0000      -0.571495       -15.5512
  43   2.0000      -0.566102       -15.4044
  44   2.0000      -0.531208       -14.4549
  45   2.0000      -0.525944       -14.3117
  46   2.0000      -0.523254       -14.2385
  47   2.0000      -0.512038       -13.9333
  48   2.0000      -0.502487       -13.6734
  49   2.0000      -0.499007       -13.5787
  50   2.0000      -0.493308       -13.4236
  51   2.0000      -0.478790       -13.0285
  52   2.0000      -0.470621       -12.8062
  53   2.0000      -0.466260       -12.6876
  54   2.0000      -0.459067       -12.4919
  55   2.0000      -0.451463       -12.2849
  56   2.0000      -0.447436       -12.1754
  57   2.0000      -0.438703       -11.9377
  58   2.0000      -0.430037       -11.7019
  59   2.0000      -0.423945       -11.5361
  60   2.0000      -0.417062       -11.3488
  61   2.0000      -0.416055       -11.3214
  62   2.0000      -0.410238       -11.1631
  63   2.0000      -0.354165        -9.6373
  64   2.0000      -0.331039        -9.0080
  65   2.0000      -0.325182        -8.8487
  66   2.0000      -0.291440        -7.9305
  67   0.0000       0.030866         0.8399
  68   0.0000       0.071874         1.9558
  69   0.0000       0.102066         2.7774
  70   0.0000       0.119777         3.2593
  71   0.0000       0.134174         3.6511

MULLIKEN ATOMIC CHARGES
-----------------------
   0 S :    0.086152
   1 C :   -0.112517
   2 C :   -0.132603
   3 C :    0.007397
   4 C :   -0.154716
   5 H :    0.009785
   6 C :    0.107440
   7 H :    0.036936
   8 H :    0.037365
   9 C :   -0.155540
  10 H :    0.047359
  11 H :    0.045700
  12 C :   -0.016183
  13 H :    0.027381
  14 H :    0.025806
  15 H :    0.037053
  16 S :    0.111144
  17 C :   -0.096458
  18 C :   -0.044429
  19 C :   -0.072874
  20 C :   -0.059983
  21 H :    0.032539
  22 C :    0.057025
  23 H :    0.037360
  24 H :   -0.010951
  25 C :   -0.046288
  26 H :    0.014656
  27 H :    0.013170
  28 C :   -0.055526
  29 H :    0.043769
  30 H :    0.031642
  31 H :    0.032508
  32 H :    0.052005
  33 H :    0.063872
Sum of atomic charges:   -0.0000000

LOEWDIN ATOMIC CHARGES
----------------------
   0 S :    0.397975
   1 C :   -0.210319
   2 C :   -0.064484
   3 C :   -0.076032
   4 C :   -0.181973
   5 H :    0.032303
   6 C :   -0.028547
   7 H :    0.032249
   8 H :    0.038424
   9 C :   -0.054577
  10 H :    0.029751
  11 H :    0.035486
  12 C :   -0.070951
  13 H :    0.023682
  14 H :    0.031209
  15 H :    0.027737
  16 S :    0.431089
  17 C :   -0.190013
  18 C :   -0.068911
  19 C :   -0.053696
  20 C :   -0.218128
  21 H :    0.037092
  22 C :   -0.040474
  23 H :    0.031588
  24 H :    0.020536
  25 C :   -0.018672
  26 H :    0.016497
  27 H :    0.011290
  28 C :   -0.061919
  29 H :    0.029511
  30 H :    0.019271
  31 H :    0.028894
  32 H :    0.028651
  33 H :    0.035466

  Mayer bond orders larger than 0.100000
B(  0-S ,  1-C ) :   1.1415 B(  0-S ,  4-C ) :   1.1286 B(  1-C ,  2-C ) :   1.6424
B(  1-C , 32-H ) :   0.9546 B(  2-C ,  3-C ) :   1.2173 B(  2-C ,  6-C ) :   0.9990
B(  3-C ,  4-C ) :   1.6484 B(  3-C ,  5-H ) :   0.9862 B(  4-C , 20-C ) :   0.9839
B(  6-C ,  7-H ) :   0.9349 B(  6-C ,  8-H ) :   0.9322 B(  6-C ,  9-C ) :   1.0851
B(  9-C , 10-H ) :   0.9497 B(  9-C , 11-H ) :   0.9538 B(  9-C , 12-C ) :   1.0769
B( 12-C , 13-H ) :   0.9738 B( 12-C , 14-H ) :   0.9729 B( 12-C , 15-H ) :   0.9728
B( 16-S , 17-C ) :   1.1751 B( 16-S , 20-C ) :   1.1422 B( 17-C , 18-C ) :   1.6071
B( 17-C , 33-H ) :   0.9581 B( 18-C , 19-C ) :   1.2271 B( 18-C , 21-H ) :   0.9922
B( 19-C , 20-C ) :   1.5954 B( 19-C , 22-C ) :   1.0604 B( 22-C , 23-H ) :   0.9444
B( 22-C , 24-H ) :   0.9268 B( 22-C , 25-C ) :   1.0590 B( 25-C , 26-H ) :   0.9541
B( 25-C , 27-H ) :   0.9618 B( 25-C , 28-C ) :   1.0801 B( 28-C , 29-H ) :   0.9770
B( 28-C , 30-H ) :   0.9751 B( 28-C , 31-H ) :   0.9779

Dispersion correction           -0.013367410
FINAL SINGLE POINT ENERGY     -1339.853392174827

DIPOLE MOMENT
-------------
                                X             Y             Z
Electronic contribution:     20.75372     -13.11991     -15.64011
Nuclear contribution   :    -21.49950      13.43574      15.68073
                        -----------------------------------------
Total Dipole Moment    :     -0.74577       0.31583       0.04062
                        -----------------------------------------
Magnitude (a.u.)       :      0.81091
Magnitude (Debye)      :      2.06117

Rotational constants in cm-1:     0.019810     0.007755     0.005786
Rotational constants in MHz :   593.873914   232.494838   173.453622

                             ****ORCA TERMINATED NORMALLY****
TOTAL RUN TIME: 0 days 0 hours 0 minutes 28 seconds 986 msec
