                         Program Version 4.2.1 -  RELEASE  -
|  1> ! wB97X-D3 SP def2-SVP
|  2> %pal
|  3> nprocs 16
|  4> end
|  5>
|  6> * xyz 0 1
|  7> S 	 -31.4903 	 40.4743 	 96.8049
|  8> C 	 -32.5808 	 39.6317 	 95.7267
|  9> C 	 -32.4558 	 40.0196 	 94.3922
| 10> C 	 -31.5217 	 41.0714 	 94.2611
| 11> C 	 -30.9726 	 41.4538 	 95.4688
| 12> H 	 -31.1805 	 41.4113 	 93.2856
| 13> C 	 -33.0764 	 39.1824 	 93.2891
| 14> H 	 -33.9741 	 39.58 	 92.9513
| 15> H 	 -33.3478 	 38.1978 	 93.6998
| 16> C 	 -32.1481 	 38.9409 	 92.0896
| 17> H 	 -31.6885 	 39.8766 	 91.622
| 18> H 	 -31.2623 	 38.4646 	 92.4739
| 19> C 	 -32.8285 	 38.1544 	 90.9559
| 20> H 	 -33.5745 	 38.6756 	 90.3543
| 21> H 	 -32.0758 	 37.7402 	 90.317
| 22> H 	 -33.4962 	 37.3879 	 91.3649
| 23> S 	 -28.4334 	 41.9835 	 95.9894
| 24> C 	 -27.9716 	 43.638 	 96.3142
| 25> C 	 -28.9531 	 44.5445 	 96.4951
| 26> C 	 -30.1952 	 43.9247 	 96.0834
| 27> C 	 -30.0711 	 42.5769 	 95.7441
| 28> H 	 -28.7982 	 45.5481 	 96.8705
| 29> C 	 -31.5522 	 44.6206 	 96.0733
| 30> H 	 -31.2799 	 45.5587 	 96.529
| 31> H 	 -32.2383 	 44.0635 	 96.7688
| 32> C 	 -32.2372 	 44.8349 	 94.7044
| 33> H 	 -33.3135 	 45.1275 	 94.7388
| 34> H 	 -32.1562 	 43.8121 	 94.2362
| 35> C 	 -31.6079 	 45.6699 	 93.6926
| 36> H 	 -30.545 	 45.4979 	 93.7227
| 37> H 	 -31.7919 	 46.6971 	 93.7715
| 38> H 	 -31.9947 	 45.5182 	 92.6295
| 39> H 	 -32.9863 	 38.6818 	 96.0006
| 40> H 	 -26.9783 	 43.9793 	 96.6043
| 41> *
| 42>
| 43>                          ****END OF INPUT****

CARTESIAN COORDINATES (ANGSTROEM)
---------------------------------
  S    -31.490300   40.474300   96.804900
  C    -32.580800   39.631700   95.726700
  C    -32.455800   40.019600   94.392200
  C    -31.521700   41.071400   94.261100
  C    -30.972600   41.453800   95.468800
  H    -31.180500   41.411300   93.285600
  C    -33.076400   39.182400   93.289100
  H    -33.974100   39.580000   92.951300
  H    -33.347800   38.197800   93.699800
  C    -32.148100   38.940900   92.089600
  H    -31.688500   39.876600   91.622000
  H    -31.262300   38.464600   92.473900
  C    -32.828500   38.154400   90.955900
  H    -33.574500   38.675600   90.354300
  H    -32.075800   37.740200   90.317000
  H    -33.496200   37.387900   91.364900
  S    -28.433400   41.983500   95.989400
  C    -27.971600   43.638000   96.314200
  C    -28.953100   44.544500   96.495100
  C    -30.195200   43.924700   96.083400
  C    -30.071100   42.576900   95.744100
  H    -28.798200   45.548100   96.870500
  C    -31.552200   44.620600   96.073300
  H    -31.279900   45.558700   96.529000
  H    -32.238300   44.063500   96.768800
  C    -32.237200   44.834900   94.704400
  H    -33.313500   45.127500   94.738800
  H    -32.156200   43.812100   94.236200
  C    -31.607900   45.669900   93.692600
  H    -30.545000   45.497900   93.722700
  H    -31.791900   46.697100   93.771500
  H    -31.994700   45.518200   92.629500
  H    -32.986300   38.681800   96.000600
  H    -26.978300   43.979300   96.604300

 Total Charge           Charge          ....    0
 Multiplicity           Mult            ....    1
 Number of Electrons    NEL             ....  134
 Basis Dimension        Dim             ....  322

ORBITAL ENERGIES
----------------

  NO   OCC          E(Eh)            E(eV)
   0   2.0000     -88.968805     -2420.9643
   1   2.0000     -88.965094     -2420.8633
   2   2.0000     -10.328422      -281.0506
   3   2.0000     -10.322353      -280.8855
   4   2.0000     -10.312894      -280.6281
   5   2.0000     -10.309908      -280.5469
   6   2.0000     -10.306657      -280.4584
   7   2.0000     -10.300654      -280.2950
   8   2.0000     -10.295280      -280.1488
   9   2.0000     -10.294790      -280.1355
  10   2.0000     -10.292291      -280.0675
  11   2.0000     -10.291475      -280.0453
  12   2.0000     -10.290634      -280.0224
  13   2.0000     -10.281172      -279.7649
  14   2.0000     -10.279461      -279.7183
  15   2.0000     -10.264920      -279.3227
  16   2.0000      -8.083697      -219.9686
  17   2.0000      -8.080027      -219.8687
  18   2.0000      -6.041965      -164.4102
  19   2.0000      -6.038477      -164.3153
  20   2.0000      -6.038237      -164.3088
  21   2.0000      -6.034716      -164.2130
  22   2.0000      -6.034650      -164.2112
  23   2.0000      -6.030620      -164.1015
  24   2.0000      -1.008809       -27.4511
  25   2.0000      -0.985397       -26.8140
  26   2.0000      -0.913840       -24.8669
  27   2.0000      -0.907719       -24.7003
  28   2.0000      -0.871409       -23.7122
  29   2.0000      -0.851809       -23.1789
  30   2.0000      -0.849391       -23.1131
  31   2.0000      -0.819755       -22.3067
  32   2.0000      -0.785204       -21.3665
  33   2.0000      -0.767622       -20.8880
  34   2.0000      -0.713201       -19.4072
  35   2.0000      -0.696076       -18.9412
  36   2.0000      -0.680625       -18.5207
  37   2.0000      -0.660760       -17.9802
  38   2.0000      -0.644760       -17.5448
  39   2.0000      -0.624807       -17.0019
  40   2.0000      -0.585928       -15.9439
  41   2.0000      -0.571779       -15.5589
  42   2.0000      -0.558405       -15.1950
  43   2.0000      -0.558137       -15.1877
  44   2.0000      -0.540277       -14.7017
  45   2.0000      -0.530951       -14.4479
  46   2.0000      -0.513845       -13.9824
  47   2.0000      -0.508385       -13.8339
  48   2.0000      -0.501519       -13.6470
  49   2.0000      -0.498193       -13.5565
  50   2.0000      -0.486716       -13.2442
  51   2.0000      -0.473719       -12.8906
  52   2.0000      -0.469755       -12.7827
  53   2.0000      -0.466563       -12.6958
  54   2.0000      -0.460894       -12.5416
  55   2.0000      -0.458226       -12.4690
  56   2.0000      -0.448926       -12.2159
  57   2.0000      -0.443597       -12.0709
  58   2.0000      -0.434175       -11.8145
  59   2.0000      -0.425951       -11.5907
  60   2.0000      -0.415223       -11.2988
  61   2.0000      -0.411849       -11.2070
  62   2.0000      -0.393901       -10.7186
  63   2.0000      -0.340968        -9.2782
  64   2.0000      -0.332916        -9.0591
  65   2.0000      -0.318125        -8.6566
  66   2.0000      -0.306400        -8.3376
  67   0.0000       0.042484         1.1560
  68   0.0000       0.051127         1.3912
  69   0.0000       0.106145         2.8883
  70   0.0000       0.115222         3.1354
  71   0.0000       0.132122         3.5952

MULLIKEN ATOMIC CHARGES
-----------------------
   0 S :    0.130533
   1 C :   -0.118288
   2 C :   -0.100624
   3 C :    0.070165
   4 C :   -0.180312
   5 H :    0.016504
   6 C :    0.117665
   7 H :    0.017175
   8 H :    0.018315
   9 C :   -0.128065
  10 H :    0.039516
  11 H :    0.030650
  12 C :   -0.029406
  13 H :    0.029545
  14 H :    0.038463
  15 H :    0.018286
  16 S :    0.108958
  17 C :   -0.054073
  18 C :   -0.047432
  19 C :   -0.073001
  20 C :   -0.190618
  21 H :    0.027076
  22 C :    0.107100
  23 H :   -0.000341
  24 H :    0.050447
  25 C :   -0.075591
  26 H :    0.034293
  27 H :    0.033376
  28 C :   -0.042877
  29 H :    0.028439
  30 H :    0.007762
  31 H :    0.031450
  32 H :    0.041737
  33 H :    0.043169
Sum of atomic charges:   -0.0000000

LOEWDIN ATOMIC CHARGES
----------------------
   0 S :    0.420502
   1 C :   -0.198280
   2 C :   -0.058317
   3 C :   -0.059065
   4 C :   -0.209201
   5 H :    0.033308
   6 C :   -0.023067
   7 H :    0.021080
   8 H :    0.033222
   9 C :   -0.044747
  10 H :    0.028555
  11 H :    0.022930
  12 C :   -0.066812
  13 H :    0.026747
  14 H :    0.026899
  15 H :    0.024821
  16 S :    0.403447
  17 C :   -0.178293
  18 C :   -0.072528
  19 C :   -0.051318
  20 C :   -0.203588
  21 H :    0.037810
  22 C :   -0.031347
  23 H :    0.020432
  24 H :    0.043081
  25 C :   -0.053003
  26 H :    0.029219
  27 H :    0.033616
  28 C :   -0.070826
  29 H :    0.023913
  30 H :    0.011081
  31 H :    0.035443
  32 H :    0.018058
  33 H :    0.026227

  Mayer bond orders larger than 0.100000
B(  0-S ,  1-C ) :   1.1472 B(  0-S ,  4-C ) :   1.1767 B(  1-C ,  2-C ) :   1.6002
B(  1-C ,  4-C ) :   0.1047 B(  1-C , 32-H ) :   0.9643 B(  2-C ,  3-C ) :   1.2761
B(  2-C ,  6-C ) :   1.0136 B(  3-C ,  4-C ) :   1.5637 B(  3-C ,  5-H ) :   0.9876
B(  4-C , 20-C ) :   0.9898 B(  6-C ,  7-H ) :   0.9300 B(  6-C ,  8-H ) :   0.9403
B(  6-C ,  9-C ) :   1.0646 B(  9-C , 10-H ) :   0.9501 B(  9-C , 11-H ) :   0.9596
B(  9-C , 12-C ) :   1.0792 B( 12-C , 13-H ) :   0.9737 B( 12-C , 14-H ) :   0.9740
B( 12-C , 15-H ) :   0.9725 B( 16-S , 17-C ) :   1.1475 B( 16-S , 20-C ) :   1.1404
B( 17-C , 18-C ) :   1.6605 B( 17-C , 33-H ) :   0.9543 B( 18-C , 19-C ) :   1.2089
B( 18-C , 21-H ) :   0.9911 B( 19-C , 20-C ) :   1.6336 B( 19-C , 22-C ) :   1.0281
B( 22-C , 23-H ) :   0.9304 B( 22-C , 24-H ) :   0.9321 B( 22-C , 25-C ) :   1.0634
B( 25-C , 26-H ) :   0.9536 B( 25-C , 27-H ) :   0.9533 B( 25-C , 28-C ) :   1.0918
B( 28-C , 29-H ) :   0.9713 B( 28-C , 30-H ) :   0.9694 B( 28-C , 31-H ) :   0.9683

Dispersion correction           -0.014501514
FINAL SINGLE POINT ENERGY     -1339.860469762230

DIPOLE MOMENT
-------------
                                X             Y             Z
Electronic contribution:     13.77816      -2.99939      21.21250
Nuclear contribution   :    -13.94560       2.99634     -21.50112
                        -----------------------------------------
Total Dipole Moment    :     -0.16744      -0.00305      -0.28863
                        -----------------------------------------
Magnitude (a.u.)       :      0.33369
Magnitude (Debye)      :      0.84818

Rotational constants in cm-1:     0.019380     0.008237     0.007214
Rotational constants in MHz :   581.010093   246.930564   216.281720

                             ****ORCA TERMINATED NORMALLY****
TOTAL RUN TIME: 0 days 0 hours 0 minutes 30 seconds 571 msec
