                         Program Version 4.2.1 -  RELEASE  -
|  1> ! wB97X-D3 SP def2-SVP
|  2> %pal
|  3> nprocs 16
|  4> end
|  5>
|  6> * xyz 0 1
|  7> S 	 -18.7385 	 56.8479 	 64.538
|  8> C 	 -17.8313 	 55.9291 	 63.3891
|  9> C 	 -17.9738 	 56.2552 	 62.114
| 10> C 	 -18.7962 	 57.4587 	 62.0489
| 11> C 	 -19.3135 	 57.8496 	 63.2568
| 12> H 	 -19.1064 	 58.0089 	 61.2096
| 13> C 	 -17.2952 	 55.7032 	 60.909
| 14> H 	 -17.99 	 55.0923 	 60.4303
| 15> H 	 -16.5175 	 55.007 	 61.2743
| 16> C 	 -16.7675 	 56.6683 	 59.8699
| 17> H 	 -17.6096 	 57.2798 	 59.451
| 18> H 	 -15.9837 	 57.3117 	 60.3034
| 19> C 	 -16.2035 	 55.9598 	 58.6411
| 20> H 	 -15.8408 	 56.7727 	 57.9752
| 21> H 	 -15.3809 	 55.3041 	 58.8099
| 22> H 	 -16.9356 	 55.3551 	 58.1277
| 23> S 	 -21.8556 	 58.8288 	 62.9999
| 24> C 	 -22.1795 	 60.4991 	 63.5014
| 25> C 	 -20.9925 	 61.1744 	 63.6692
| 26> C 	 -19.8338 	 60.281 	 63.6857
| 27> C 	 -20.1769 	 58.9923 	 63.372
| 28> H 	 -20.9305 	 62.2582 	 63.8684
| 29> C 	 -18.5123 	 60.8899 	 64.0807
| 30> H 	 -18.4828 	 61.8977 	 63.9085
| 31> H 	 -17.6497 	 60.484 	 63.4741
| 32> C 	 -18.2441 	 60.7029 	 65.6203
| 33> H 	 -18.3496 	 59.6669 	 65.8729
| 34> H 	 -19.0492 	 61.2598 	 66.1356
| 35> C 	 -16.8179 	 61.3133 	 66.0707
| 36> H 	 -16.6991 	 61.3266 	 67.16
| 37> H 	 -16.7933 	 62.366 	 65.6921
| 38> H 	 -16.0026 	 60.8594 	 65.62
| 39> H 	 -17.3976 	 54.954 	 63.6138
| 40> H 	 -23.1654 	 60.8206 	 63.7809
| 41> *
| 42>
| 43>                          ****END OF INPUT****

CARTESIAN COORDINATES (ANGSTROEM)
---------------------------------
  S    -18.738500   56.847900   64.538000
  C    -17.831300   55.929100   63.389100
  C    -17.973800   56.255200   62.114000
  C    -18.796200   57.458700   62.048900
  C    -19.313500   57.849600   63.256800
  H    -19.106400   58.008900   61.209600
  C    -17.295200   55.703200   60.909000
  H    -17.990000   55.092300   60.430300
  H    -16.517500   55.007000   61.274300
  C    -16.767500   56.668300   59.869900
  H    -17.609600   57.279800   59.451000
  H    -15.983700   57.311700   60.303400
  C    -16.203500   55.959800   58.641100
  H    -15.840800   56.772700   57.975200
  H    -15.380900   55.304100   58.809900
  H    -16.935600   55.355100   58.127700
  S    -21.855600   58.828800   62.999900
  C    -22.179500   60.499100   63.501400
  C    -20.992500   61.174400   63.669200
  C    -19.833800   60.281000   63.685700
  C    -20.176900   58.992300   63.372000
  H    -20.930500   62.258200   63.868400
  C    -18.512300   60.889900   64.080700
  H    -18.482800   61.897700   63.908500
  H    -17.649700   60.484000   63.474100
  C    -18.244100   60.702900   65.620300
  H    -18.349600   59.666900   65.872900
  H    -19.049200   61.259800   66.135600
  C    -16.817900   61.313300   66.070700
  H    -16.699100   61.326600   67.160000
  H    -16.793300   62.366000   65.692100
  H    -16.002600   60.859400   65.620000
  H    -17.397600   54.954000   63.613800
  H    -23.165400   60.820600   63.780900

 Total Charge           Charge          ....    0
 Multiplicity           Mult            ....    1
 Number of Electrons    NEL             ....  134
 Basis Dimension        Dim             ....  322

ORBITAL ENERGIES
----------------

  NO   OCC          E(Eh)            E(eV)
   0   2.0000     -88.965509     -2420.8746
   1   2.0000     -88.961267     -2420.7591
   2   2.0000     -10.318757      -280.7877
   3   2.0000     -10.318426      -280.7786
   4   2.0000     -10.317654      -280.7576
   5   2.0000     -10.303850      -280.3820
   6   2.0000     -10.301034      -280.3054
   7   2.0000     -10.297417      -280.2070
   8   2.0000     -10.293720      -280.1064
   9   2.0000     -10.292440      -280.0715
  10   2.0000     -10.288852      -279.9739
  11   2.0000     -10.287316      -279.9321
  12   2.0000     -10.286922      -279.9214
  13   2.0000     -10.285285      -279.8768
  14   2.0000     -10.278465      -279.6913
  15   2.0000     -10.277631      -279.6686
  16   2.0000      -8.080831      -219.8906
  17   2.0000      -8.076437      -219.7710
  18   2.0000      -6.039279      -164.3371
  19   2.0000      -6.035412      -164.2319
  20   2.0000      -6.035015      -164.2211
  21   2.0000      -6.031468      -164.1246
  22   2.0000      -6.030939      -164.1102
  23   2.0000      -6.027041      -164.0041
  24   2.0000      -1.011499       -27.5243
  25   2.0000      -0.986754       -26.8510
  26   2.0000      -0.919042       -25.0084
  27   2.0000      -0.899185       -24.4681
  28   2.0000      -0.875858       -23.8333
  29   2.0000      -0.851901       -23.1814
  30   2.0000      -0.838993       -22.8302
  31   2.0000      -0.813216       -22.1287
  32   2.0000      -0.786048       -21.3894
  33   2.0000      -0.772483       -21.0203
  34   2.0000      -0.710372       -19.3302
  35   2.0000      -0.699142       -19.0246
  36   2.0000      -0.689357       -18.7583
  37   2.0000      -0.664702       -18.0875
  38   2.0000      -0.644890       -17.5483
  39   2.0000      -0.615865       -16.7585
  40   2.0000      -0.596300       -16.2261
  41   2.0000      -0.578399       -15.7391
  42   2.0000      -0.563887       -15.3442
  43   2.0000      -0.557835       -15.1795
  44   2.0000      -0.528061       -14.3693
  45   2.0000      -0.521843       -14.2001
  46   2.0000      -0.514828       -14.0092
  47   2.0000      -0.508708       -13.8426
  48   2.0000      -0.504202       -13.7200
  49   2.0000      -0.499735       -13.5985
  50   2.0000      -0.492920       -13.4130
  51   2.0000      -0.480802       -13.0833
  52   2.0000      -0.466591       -12.6966
  53   2.0000      -0.464962       -12.6523
  54   2.0000      -0.458455       -12.4752
  55   2.0000      -0.449992       -12.2449
  56   2.0000      -0.438909       -11.9433
  57   2.0000      -0.436423       -11.8757
  58   2.0000      -0.431788       -11.7496
  59   2.0000      -0.429533       -11.6882
  60   2.0000      -0.424075       -11.5397
  61   2.0000      -0.422561       -11.4985
  62   2.0000      -0.415561       -11.3080
  63   2.0000      -0.333750        -9.0818
  64   2.0000      -0.330434        -8.9916
  65   2.0000      -0.323031        -8.7901
  66   2.0000      -0.306848        -8.3497
  67   0.0000       0.049473         1.3462
  68   0.0000       0.059543         1.6203
  69   0.0000       0.109482         2.9792
  70   0.0000       0.123180         3.3519
  71   0.0000       0.134875         3.6701

MULLIKEN ATOMIC CHARGES
-----------------------
   0 S :    0.126846
   1 C :   -0.132720
   2 C :   -0.053462
   3 C :    0.029258
   4 C :   -0.167304
   5 H :   -0.010142
   6 C :    0.120997
   7 H :    0.010296
   8 H :    0.013941
   9 C :   -0.108921
  10 H :    0.044867
  11 H :    0.042608
  12 C :   -0.040002
  13 H :    0.039583
  14 H :    0.022103
  15 H :    0.025584
  16 S :    0.105462
  17 C :   -0.099972
  18 C :   -0.026661
  19 C :   -0.030152
  20 C :   -0.198212
  21 H :    0.032699
  22 C :    0.101319
  23 H :   -0.011890
  24 H :    0.035770
  25 C :   -0.083005
  26 H :    0.024132
  27 H :    0.028342
  28 C :   -0.035261
  29 H :    0.043909
  30 H :    0.024162
  31 H :    0.023393
  32 H :    0.041232
  33 H :    0.061198
Sum of atomic charges:   -0.0000000

LOEWDIN ATOMIC CHARGES
----------------------
   0 S :    0.420168
   1 C :   -0.203850
   2 C :   -0.062131
   3 C :   -0.050124
   4 C :   -0.206404
   5 H :    0.020250
   6 C :   -0.032547
   7 H :    0.026189
   8 H :    0.032766
   9 C :   -0.039826
  10 H :    0.032358
  11 H :    0.028655
  12 C :   -0.062756
  13 H :    0.033933
  14 H :    0.017916
  15 H :    0.022218
  16 S :    0.400177
  17 C :   -0.174683
  18 C :   -0.067563
  19 C :   -0.051596
  20 C :   -0.210818
  21 H :    0.035251
  22 C :   -0.028206
  23 H :    0.013264
  24 H :    0.036375
  25 C :   -0.027716
  26 H :    0.011157
  27 H :    0.024662
  28 C :   -0.063254
  29 H :    0.028553
  30 H :    0.027973
  31 H :    0.013737
  32 H :    0.028526
  33 H :    0.027348

  Mayer bond orders larger than 0.100000
B(  0-S ,  1-C ) :   1.1250 B(  0-S ,  4-C ) :   1.1372 B(  1-C ,  2-C ) :   1.6946
B(  1-C , 32-H ) :   0.9473 B(  2-C ,  3-C ) :   1.1786 B(  2-C ,  6-C ) :   1.0223
B(  3-C ,  4-C ) :   1.6384 B(  3-C ,  5-H ) :   0.9975 B(  4-C , 20-C ) :   1.0224
B(  6-C ,  7-H ) :   0.9132 B(  6-C ,  8-H ) :   0.9384 B(  6-C ,  9-C ) :   1.0801
B(  9-C , 10-H ) :   0.9429 B(  9-C , 11-H ) :   0.9580 B(  9-C , 12-C ) :   1.0894
B( 12-C , 13-H ) :   0.9736 B( 12-C , 14-H ) :   0.9746 B( 12-C , 15-H ) :   0.9734
B( 16-S , 17-C ) :   1.1439 B( 16-S , 20-C ) :   1.1385 B( 17-C , 18-C ) :   1.6170
B( 17-C , 33-H ) :   0.9728 B( 18-C , 19-C ) :   1.2233 B( 18-C , 21-H ) :   0.9816
B( 19-C , 20-C ) :   1.6264 B( 19-C , 22-C ) :   1.0619 B( 22-C , 23-H ) :   0.9262
B( 22-C , 24-H ) :   0.9306 B( 22-C , 25-C ) :   1.0524 B( 25-C , 26-H ) :   0.9607
B( 25-C , 27-H ) :   0.9574 B( 25-C , 28-C ) :   1.0677 B( 28-C , 29-H ) :   0.9778
B( 28-C , 30-H ) :   0.9747 B( 28-C , 31-H ) :   0.9794

Dispersion correction           -0.014202230
FINAL SINGLE POINT ENERGY     -1339.873751140163

DIPOLE MOMENT
-------------
                                X             Y             Z
Electronic contribution:    -20.48666      -4.82518       7.98586
Nuclear contribution   :     20.82853       4.97605      -8.27582
                        -----------------------------------------
Total Dipole Moment    :      0.34187       0.15087      -0.28996
                        -----------------------------------------
Magnitude (a.u.)       :      0.47298
Magnitude (Debye)      :      1.20223

Rotational constants in cm-1:     0.017634     0.008132     0.007115
Rotational constants in MHz :   528.662396   243.777244   213.311889

                             ****ORCA TERMINATED NORMALLY****
TOTAL RUN TIME: 0 days 0 hours 0 minutes 33 seconds 271 msec
