                         Program Version 4.2.1 -  RELEASE  -
|  1> ! wB97X-D3 SP def2-SVP
|  2> %pal
|  3> nprocs 16
|  4> end
|  5>
|  6> * xyz 0 1
|  7> S 	 -5.00407 	 -14.8523 	 81.9744
|  8> C 	 -3.87052 	 -14.529 	 83.2818
|  9> C 	 -4.28416 	 -13.4924 	 84.1052
| 10> C 	 -5.6508 	 -13.1922 	 83.8364
| 11> C 	 -6.19125 	 -13.912 	 82.8165
| 12> H 	 -6.12063 	 -12.4564 	 84.3972
| 13> C 	 -3.4141 	 -12.7702 	 85.1629
| 14> H 	 -4.07494 	 -12.1241 	 85.7318
| 15> H 	 -2.74096 	 -12.0554 	 84.6334
| 16> C 	 -2.6193 	 -13.6654 	 86.1495
| 17> H 	 -3.21742 	 -14.4155 	 86.6275
| 18> H 	 -1.8363 	 -14.2152 	 85.5638
| 19> C 	 -1.86038 	 -12.8298 	 87.1707
| 20> H 	 -2.41361 	 -12.7856 	 88.0829
| 21> H 	 -0.958267 	 -13.4108 	 87.471
| 22> H 	 -1.56404 	 -11.7994 	 86.9512
| 23> S 	 -8.06612 	 -14.5983 	 80.9663
| 24> C 	 -9.74521 	 -14.0879 	 81.1622
| 25> C 	 -10.0009 	 -13.7428 	 82.473
| 26> C 	 -8.81522 	 -13.4839 	 83.2276
| 27> C 	 -7.65159 	 -13.9636 	 82.5045
| 28> H 	 -10.9716 	 -13.5721 	 82.8498
| 29> C 	 -8.85142 	 -13.1635 	 84.6519
| 30> H 	 -7.958 	 -13.6003 	 85.086
| 31> H 	 -9.75165 	 -13.6196 	 85.0763
| 32> C 	 -8.96295 	 -11.6866 	 84.9513
| 33> H 	 -9.82845 	 -11.3002 	 84.4533
| 34> H 	 -8.25944 	 -11.1985 	 84.3412
| 35> C 	 -8.85289 	 -11.3239 	 86.376
| 36> H 	 -9.06036 	 -10.2378 	 86.3033
| 37> H 	 -7.84697 	 -11.518 	 86.7185
| 38> H 	 -9.65153 	 -11.7371 	 87.0199
| 39> H 	 -2.7816 	 -14.7981 	 83.2977
| 40> H 	 -10.4719 	 -14.4548 	 80.4331
| 41> *
| 42>
| 43>                          ****END OF INPUT****

CARTESIAN COORDINATES (ANGSTROEM)
---------------------------------
  S     -5.004070  -14.852300   81.974400
  C     -3.870520  -14.529000   83.281800
  C     -4.284160  -13.492400   84.105200
  C     -5.650800  -13.192200   83.836400
  C     -6.191250  -13.912000   82.816500
  H     -6.120630  -12.456400   84.397200
  C     -3.414100  -12.770200   85.162900
  H     -4.074940  -12.124100   85.731800
  H     -2.740960  -12.055400   84.633400
  C     -2.619300  -13.665400   86.149500
  H     -3.217420  -14.415500   86.627500
  H     -1.836300  -14.215200   85.563800
  C     -1.860380  -12.829800   87.170700
  H     -2.413610  -12.785600   88.082900
  H     -0.958267  -13.410800   87.471000
  H     -1.564040  -11.799400   86.951200
  S     -8.066120  -14.598300   80.966300
  C     -9.745210  -14.087900   81.162200
  C    -10.000900  -13.742800   82.473000
  C     -8.815220  -13.483900   83.227600
  C     -7.651590  -13.963600   82.504500
  H    -10.971600  -13.572100   82.849800
  C     -8.851420  -13.163500   84.651900
  H     -7.958000  -13.600300   85.086000
  H     -9.751650  -13.619600   85.076300
  C     -8.962950  -11.686600   84.951300
  H     -9.828450  -11.300200   84.453300
  H     -8.259440  -11.198500   84.341200
  C     -8.852890  -11.323900   86.376000
  H     -9.060360  -10.237800   86.303300
  H     -7.846970  -11.518000   86.718500
  H     -9.651530  -11.737100   87.019900
  H     -2.781600  -14.798100   83.297700
  H    -10.471900  -14.454800   80.433100

 Total Charge           Charge          ....    0
 Multiplicity           Mult            ....    1
 Number of Electrons    NEL             ....  134
 Basis Dimension        Dim             ....  322

ORBITAL ENERGIES
----------------

  NO   OCC          E(Eh)            E(eV)
   0   2.0000     -88.969548     -2420.9845
   1   2.0000     -88.964928     -2420.8588
   2   2.0000     -10.332072      -281.1500
   3   2.0000     -10.329857      -281.0897
   4   2.0000     -10.317082      -280.7421
   5   2.0000     -10.314433      -280.6700
   6   2.0000     -10.302623      -280.3486
   7   2.0000     -10.301313      -280.3130
   8   2.0000     -10.300776      -280.2984
   9   2.0000     -10.294071      -280.1159
  10   2.0000     -10.293198      -280.0922
  11   2.0000     -10.285409      -279.8802
  12   2.0000     -10.281577      -279.7759
  13   2.0000     -10.279642      -279.7233
  14   2.0000     -10.279254      -279.7127
  15   2.0000     -10.272595      -279.5315
  16   2.0000      -8.084310      -219.9853
  17   2.0000      -8.080229      -219.8742
  18   2.0000      -6.042968      -164.4375
  19   2.0000      -6.039097      -164.3322
  20   2.0000      -6.038585      -164.3183
  21   2.0000      -6.034728      -164.2133
  22   2.0000      -6.034639      -164.2109
  23   2.0000      -6.031095      -164.1144
  24   2.0000      -1.008317       -27.4377
  25   2.0000      -0.984915       -26.8009
  26   2.0000      -0.924005       -25.1434
  27   2.0000      -0.909664       -24.7532
  28   2.0000      -0.868488       -23.6328
  29   2.0000      -0.858937       -23.3729
  30   2.0000      -0.851223       -23.1630
  31   2.0000      -0.815956       -22.2033
  32   2.0000      -0.782912       -21.3041
  33   2.0000      -0.768442       -20.9104
  34   2.0000      -0.707971       -19.2649
  35   2.0000      -0.704618       -19.1736
  36   2.0000      -0.688878       -18.7453
  37   2.0000      -0.668078       -18.1793
  38   2.0000      -0.632715       -17.2170
  39   2.0000      -0.625532       -17.0216
  40   2.0000      -0.599447       -16.3118
  41   2.0000      -0.573597       -15.6084
  42   2.0000      -0.567769       -15.4498
  43   2.0000      -0.560320       -15.2471
  44   2.0000      -0.531690       -14.4680
  45   2.0000      -0.525937       -14.3115
  46   2.0000      -0.518707       -14.1147
  47   2.0000      -0.517102       -14.0711
  48   2.0000      -0.504138       -13.7183
  49   2.0000      -0.494625       -13.4594
  50   2.0000      -0.489724       -13.3261
  51   2.0000      -0.486755       -13.2453
  52   2.0000      -0.470464       -12.8020
  53   2.0000      -0.464759       -12.6467
  54   2.0000      -0.461676       -12.5629
  55   2.0000      -0.457922       -12.4607
  56   2.0000      -0.448371       -12.2008
  57   2.0000      -0.443011       -12.0549
  58   2.0000      -0.435304       -11.8452
  59   2.0000      -0.426183       -11.5970
  60   2.0000      -0.421745       -11.4763
  61   2.0000      -0.413249       -11.2451
  62   2.0000      -0.412157       -11.2154
  63   2.0000      -0.358216        -9.7476
  64   2.0000      -0.336048        -9.1443
  65   2.0000      -0.324944        -8.8422
  66   2.0000      -0.278377        -7.5750
  67   0.0000       0.017358         0.4723
  68   0.0000       0.075609         2.0574
  69   0.0000       0.096043         2.6135
  70   0.0000       0.111055         3.0220
  71   0.0000       0.132582         3.6077

MULLIKEN ATOMIC CHARGES
-----------------------
   0 S :    0.114397
   1 C :   -0.143484
   2 C :   -0.093280
   3 C :   -0.011383
   4 C :   -0.046033
   5 H :   -0.035180
   6 C :    0.064877
   7 H :    0.010626
   8 H :    0.048079
   9 C :   -0.078648
  10 H :    0.036738
  11 H :    0.032904
  12 C :   -0.050428
  13 H :    0.024249
  14 H :    0.031691
  15 H :    0.036981
  16 S :    0.083748
  17 C :   -0.095841
  18 C :    0.004211
  19 C :   -0.076753
  20 C :   -0.123476
  21 H :    0.006777
  22 C :    0.049244
  23 H :    0.025227
  24 H :    0.020071
  25 C :   -0.077537
  26 H :    0.001199
  27 H :    0.003223
  28 C :    0.005350
  29 H :    0.034623
  30 H :    0.032532
  31 H :    0.038065
  32 H :    0.059838
  33 H :    0.067391
Sum of atomic charges:    0.0000000

LOEWDIN ATOMIC CHARGES
----------------------
   0 S :    0.402139
   1 C :   -0.206129
   2 C :   -0.059629
   3 C :   -0.066316
   4 C :   -0.188918
   5 H :    0.017223
   6 C :   -0.030297
   7 H :    0.023408
   8 H :    0.039095
   9 C :   -0.038446
  10 H :    0.026124
  11 H :    0.025733
  12 C :   -0.070962
  13 H :    0.022224
  14 H :    0.032897
  15 H :    0.026980
  16 S :    0.410487
  17 C :   -0.187920
  18 C :   -0.056015
  19 C :   -0.057534
  20 C :   -0.196273
  21 H :    0.025702
  22 C :   -0.036299
  23 H :    0.028798
  24 H :    0.031994
  25 C :   -0.048722
  26 H :    0.020571
  27 H :    0.016386
  28 C :   -0.059746
  29 H :    0.036382
  30 H :    0.024099
  31 H :    0.029523
  32 H :    0.034834
  33 H :    0.028610

  Mayer bond orders larger than 0.100000
B(  0-S ,  1-C ) :   1.1252 B(  0-S ,  4-C ) :   1.1370 B(  1-C ,  2-C ) :   1.6279
B(  1-C , 32-H ) :   0.9572 B(  2-C ,  3-C ) :   1.2591 B(  2-C ,  6-C ) :   1.0070
B(  3-C ,  4-C ) :   1.5528 B(  3-C ,  5-H ) :   1.0083 B(  4-C , 20-C ) :   1.0550
B(  6-C ,  7-H ) :   0.9466 B(  6-C ,  8-H ) :   0.9343 B(  6-C ,  9-C ) :   1.0652
B(  9-C , 10-H ) :   0.9604 B(  9-C , 11-H ) :   0.9595 B(  9-C , 12-C ) :   1.0741
B( 12-C , 13-H ) :   0.9756 B( 12-C , 14-H ) :   0.9751 B( 12-C , 15-H ) :   0.9765
B( 16-S , 17-C ) :   1.1582 B( 16-S , 20-C ) :   1.1625 B( 17-C , 18-C ) :   1.5772
B( 17-C , 20-C ) :   0.1020 B( 17-C , 33-H ) :   0.9639 B( 18-C , 19-C ) :   1.2803
B( 18-C , 21-H ) :   0.9880 B( 19-C , 20-C ) :   1.5165 B( 19-C , 22-C ) :   1.0570
B( 22-C , 23-H ) :   0.9381 B( 22-C , 24-H ) :   0.9313 B( 22-C , 25-C ) :   1.0535
B( 25-C , 26-H ) :   0.9447 B( 25-C , 27-H ) :   0.9443 B( 25-C , 28-C ) :   1.0862
B( 28-C , 29-H ) :   0.9702 B( 28-C , 30-H ) :   0.9707 B( 28-C , 31-H ) :   0.9693

Dispersion correction           -0.013781370
FINAL SINGLE POINT ENERGY     -1339.863082212205

DIPOLE MOMENT
-------------
                                X             Y             Z
Electronic contribution:     -6.51009     -14.37231     -28.91849
Nuclear contribution   :      6.48975      14.72871      29.59107
                        -----------------------------------------
Total Dipole Moment    :     -0.02034       0.35640       0.67258
                        -----------------------------------------
Magnitude (a.u.)       :      0.76145
Magnitude (Debye)      :      1.93545

Rotational constants in cm-1:     0.018556     0.008636     0.006040
Rotational constants in MHz :   556.288096   258.898189   181.086033

                             ****ORCA TERMINATED NORMALLY****
TOTAL RUN TIME: 0 days 0 hours 0 minutes 34 seconds 30 msec
