                         Program Version 4.2.1 -  RELEASE  -
|  1> ! wB97X-D3 SP def2-SVP
|  2> %pal
|  3> nprocs 16
|  4> end
|  5>
|  6> * xyz 0 1
|  7> S 	 37.6349 	 13.1721 	 80.6445
|  8> C 	 36.7158 	 14.5689 	 81.102
|  9> C 	 37.0507 	 15.7233 	 80.365
| 10> C 	 37.9891 	 15.3548 	 79.3841
| 11> C 	 38.4857 	 14.1102 	 79.5315
| 12> H 	 38.3382 	 15.9604 	 78.5529
| 13> C 	 36.4261 	 17.1105 	 80.5441
| 14> H 	 35.4171 	 16.9293 	 81.0241
| 15> H 	 36.1773 	 17.5478 	 79.5763
| 16> C 	 37.2951 	 18.0513 	 81.3055
| 17> H 	 37.7697 	 17.6208 	 82.1383
| 18> H 	 38.0122 	 18.2519 	 80.5586
| 19> C 	 36.4718 	 19.3036 	 81.7257
| 20> H 	 36.3234 	 19.9432 	 80.8346
| 21> H 	 35.5077 	 18.9111 	 81.99
| 22> H 	 36.9184 	 19.8137 	 82.6175
| 23> S 	 39.2196 	 11.9699 	 77.9268
| 24> C 	 40.7062 	 11.9991 	 77.0613
| 25> C 	 41.402 	 13.1849 	 77.1948
| 26> C 	 40.7474 	 13.9953 	 78.195
| 27> C 	 39.5436 	 13.5254 	 78.6872
| 28> H 	 42.3934 	 13.2773 	 76.7339
| 29> C 	 41.3566 	 15.3628 	 78.6145
| 30> H 	 40.7035 	 16.0344 	 79.1296
| 31> H 	 41.6627 	 15.7517 	 77.6559
| 32> C 	 42.4923 	 15.1142 	 79.6021
| 33> H 	 43.0887 	 16.0327 	 79.6529
| 34> H 	 43.153 	 14.4165 	 79.1143
| 35> C 	 42.1513 	 14.7434 	 81.0245
| 36> H 	 41.6614 	 15.5511 	 81.5643
| 37> H 	 43.0144 	 14.4828 	 81.669
| 38> H 	 41.508 	 13.8841 	 81.0552
| 39> H 	 35.8182 	 14.4863 	 81.7382
| 40> H 	 41.0932 	 11.071 	 76.6723
| 41> *
| 42>
| 43>                          ****END OF INPUT****

CARTESIAN COORDINATES (ANGSTROEM)
---------------------------------
  S     37.634900   13.172100   80.644500
  C     36.715800   14.568900   81.102000
  C     37.050700   15.723300   80.365000
  C     37.989100   15.354800   79.384100
  C     38.485700   14.110200   79.531500
  H     38.338200   15.960400   78.552900
  C     36.426100   17.110500   80.544100
  H     35.417100   16.929300   81.024100
  H     36.177300   17.547800   79.576300
  C     37.295100   18.051300   81.305500
  H     37.769700   17.620800   82.138300
  H     38.012200   18.251900   80.558600
  C     36.471800   19.303600   81.725700
  H     36.323400   19.943200   80.834600
  H     35.507700   18.911100   81.990000
  H     36.918400   19.813700   82.617500
  S     39.219600   11.969900   77.926800
  C     40.706200   11.999100   77.061300
  C     41.402000   13.184900   77.194800
  C     40.747400   13.995300   78.195000
  C     39.543600   13.525400   78.687200
  H     42.393400   13.277300   76.733900
  C     41.356600   15.362800   78.614500
  H     40.703500   16.034400   79.129600
  H     41.662700   15.751700   77.655900
  C     42.492300   15.114200   79.602100
  H     43.088700   16.032700   79.652900
  H     43.153000   14.416500   79.114300
  C     42.151300   14.743400   81.024500
  H     41.661400   15.551100   81.564300
  H     43.014400   14.482800   81.669000
  H     41.508000   13.884100   81.055200
  H     35.818200   14.486300   81.738200
  H     41.093200   11.071000   76.672300

 Total Charge           Charge          ....    0
 Multiplicity           Mult            ....    1
 Number of Electrons    NEL             ....  134
 Basis Dimension        Dim             ....  322

ORBITAL ENERGIES
----------------

  NO   OCC          E(Eh)            E(eV)
   0   2.0000     -88.968993     -2420.9694
   1   2.0000     -88.959150     -2420.7015
   2   2.0000     -10.324095      -280.9329
   3   2.0000     -10.320675      -280.8399
   4   2.0000     -10.315926      -280.7106
   5   2.0000     -10.315627      -280.7025
   6   2.0000     -10.305580      -280.4291
   7   2.0000     -10.303777      -280.3800
   8   2.0000     -10.299137      -280.2538
   9   2.0000     -10.296022      -280.1690
  10   2.0000     -10.287563      -279.9388
  11   2.0000     -10.286240      -279.9028
  12   2.0000     -10.283547      -279.8295
  13   2.0000     -10.278223      -279.6847
  14   2.0000     -10.276853      -279.6474
  15   2.0000     -10.270584      -279.4768
  16   2.0000      -8.085135      -220.0077
  17   2.0000      -8.074860      -219.7281
  18   2.0000      -6.043316      -164.4470
  19   2.0000      -6.039508      -164.3434
  20   2.0000      -6.036102      -164.2507
  21   2.0000      -6.033233      -164.1726
  22   2.0000      -6.029204      -164.0630
  23   2.0000      -6.025743      -163.9688
  24   2.0000      -1.015579       -27.6353
  25   2.0000      -0.989107       -26.9150
  26   2.0000      -0.921366       -25.0717
  27   2.0000      -0.908469       -24.7207
  28   2.0000      -0.868468       -23.6322
  29   2.0000      -0.855646       -23.2833
  30   2.0000      -0.842944       -22.9377
  31   2.0000      -0.813010       -22.1231
  32   2.0000      -0.783498       -21.3201
  33   2.0000      -0.773072       -21.0364
  34   2.0000      -0.706833       -19.2339
  35   2.0000      -0.695235       -18.9183
  36   2.0000      -0.689450       -18.7609
  37   2.0000      -0.659716       -17.9518
  38   2.0000      -0.644618       -17.5410
  39   2.0000      -0.623497       -16.9662
  40   2.0000      -0.599536       -16.3142
  41   2.0000      -0.582039       -15.8381
  42   2.0000      -0.563200       -15.3255
  43   2.0000      -0.551344       -15.0028
  44   2.0000      -0.539162       -14.6714
  45   2.0000      -0.525466       -14.2987
  46   2.0000      -0.519764       -14.1435
  47   2.0000      -0.506852       -13.7921
  48   2.0000      -0.498468       -13.5640
  49   2.0000      -0.495825       -13.4921
  50   2.0000      -0.492261       -13.3951
  51   2.0000      -0.477447       -12.9920
  52   2.0000      -0.468555       -12.7500
  53   2.0000      -0.468216       -12.7408
  54   2.0000      -0.462106       -12.5746
  55   2.0000      -0.453120       -12.3300
  56   2.0000      -0.448292       -12.1987
  57   2.0000      -0.444913       -12.1067
  58   2.0000      -0.435161       -11.8413
  59   2.0000      -0.425788       -11.5863
  60   2.0000      -0.420494       -11.4422
  61   2.0000      -0.417857       -11.3705
  62   2.0000      -0.397072       -10.8049
  63   2.0000      -0.344692        -9.3795
  64   2.0000      -0.335683        -9.1344
  65   2.0000      -0.328910        -8.9501
  66   2.0000      -0.293029        -7.9737
  67   0.0000       0.030938         0.8419
  68   0.0000       0.076480         2.0811
  69   0.0000       0.109198         2.9714
  70   0.0000       0.120599         3.2817
  71   0.0000       0.130636         3.5548

MULLIKEN ATOMIC CHARGES
-----------------------
   0 S :    0.129537
   1 C :   -0.136797
   2 C :   -0.088519
   3 C :    0.016007
   4 C :   -0.141900
   5 H :    0.019093
   6 C :    0.028067
   7 H :    0.021447
   8 H :    0.026255
   9 C :   -0.024896
  10 H :    0.024540
  11 H :    0.015080
  12 C :   -0.042343
  13 H :    0.037443
  14 H :    0.019550
  15 H :    0.050864
  16 S :    0.084636
  17 C :   -0.097219
  18 C :   -0.031182
  19 C :   -0.102430
  20 C :   -0.125782
  21 H :    0.037264
  22 C :    0.102285
  23 H :    0.011166
  24 H :    0.023621
  25 C :   -0.063269
  26 H :    0.019512
  27 H :    0.009314
  28 C :   -0.032789
  29 H :    0.026932
  30 H :    0.034965
  31 H :    0.029200
  32 H :    0.058239
  33 H :    0.062109
Sum of atomic charges:   -0.0000000

LOEWDIN ATOMIC CHARGES
----------------------
   0 S :    0.443513
   1 C :   -0.209212
   2 C :   -0.056451
   3 C :   -0.064381
   4 C :   -0.217591
   5 H :    0.034043
   6 C :   -0.030636
   7 H :    0.028254
   8 H :    0.029828
   9 C :   -0.035295
  10 H :    0.019140
  11 H :    0.020620
  12 C :   -0.062606
  13 H :    0.029882
  14 H :    0.019493
  15 H :    0.033653
  16 S :    0.399053
  17 C :   -0.183084
  18 C :   -0.079386
  19 C :   -0.054219
  20 C :   -0.200949
  21 H :    0.039435
  22 C :   -0.022201
  23 H :    0.020950
  24 H :    0.030250
  25 C :   -0.042341
  26 H :    0.022438
  27 H :    0.016863
  28 C :   -0.065270
  29 H :    0.025203
  30 H :    0.032750
  31 H :    0.022426
  32 H :    0.029494
  33 H :    0.026334

  Mayer bond orders larger than 0.100000
B(  0-S ,  1-C ) :   1.1588 B(  0-S ,  4-C ) :   1.1724 B(  1-C ,  2-C ) :   1.5840
B(  1-C , 32-H ) :   0.9635 B(  2-C ,  3-C ) :   1.2618 B(  2-C ,  6-C ) :   1.0208
B(  3-C ,  4-C ) :   1.5697 B(  3-C ,  5-H ) :   0.9927 B(  4-C , 20-C ) :   1.0064
B(  6-C ,  7-H ) :   0.9403 B(  6-C ,  8-H ) :   0.9452 B(  6-C ,  9-C ) :   1.0507
B(  9-C , 10-H ) :   0.9600 B(  9-C , 11-H ) :   0.9556 B(  9-C , 12-C ) :   1.0727
B( 12-C , 13-H ) :   0.9741 B( 12-C , 14-H ) :   0.9781 B( 12-C , 15-H ) :   0.9769
B( 16-S , 17-C ) :   1.1813 B( 16-S , 20-C ) :   1.1235 B( 17-C , 18-C ) :   1.5956
B( 17-C , 33-H ) :   0.9652 B( 18-C , 19-C ) :   1.2359 B( 18-C , 21-H ) :   0.9870
B( 19-C , 20-C ) :   1.6302 B( 19-C , 22-C ) :   1.0247 B( 22-C , 23-H ) :   0.9420
B( 22-C , 24-H ) :   0.9334 B( 22-C , 25-C ) :   1.0745 B( 25-C , 26-H ) :   0.9516
B( 25-C , 27-H ) :   0.9554 B( 25-C , 28-C ) :   1.0812 B( 28-C , 29-H ) :   0.9713
B( 28-C , 30-H ) :   0.9709 B( 28-C , 31-H ) :   0.9741

Dispersion correction           -0.014605481
FINAL SINGLE POINT ENERGY     -1339.877386416675

DIPOLE MOMENT
-------------
                                X             Y             Z
Electronic contribution:     -5.77543     -25.73175      -9.67839
Nuclear contribution   :      5.92437      26.25316       9.67329
                        -----------------------------------------
Total Dipole Moment    :      0.14894       0.52141      -0.00511
                        -----------------------------------------
Magnitude (a.u.)       :      0.54229
Magnitude (Debye)      :      1.37839

Rotational constants in cm-1:     0.020690     0.008515     0.006979
Rotational constants in MHz :   620.265207   255.271677   209.220414

                             ****ORCA TERMINATED NORMALLY****
TOTAL RUN TIME: 0 days 0 hours 0 minutes 31 seconds 127 msec
