                         Program Version 4.2.1 -  RELEASE  -
|  1> ! wB97X-D3 SP def2-SVP
|  2> %pal
|  3> nprocs 16
|  4> end
|  5>
|  6> * xyz 0 1
|  7> S 	 44.4559 	 8.07955 	 82.9136
|  8> C 	 45.0319 	 8.90323 	 81.4823
|  9> C 	 45.149 	 10.283 	 81.6862
| 10> C 	 44.7567 	 10.58 	 82.9698
| 11> C 	 44.1451 	 9.62557 	 83.637
| 12> H 	 44.6674 	 11.5482 	 83.3417
| 13> C 	 45.6871 	 11.3681 	 80.733
| 14> H 	 45.8989 	 10.9473 	 79.7265
| 15> H 	 46.6395 	 11.6885 	 81.1446
| 16> C 	 44.7955 	 12.5342 	 80.3955
| 17> H 	 43.8629 	 12.0626 	 79.997
| 18> H 	 44.5577 	 13.05 	 81.3263
| 19> C 	 45.4156 	 13.4429 	 79.3778
| 20> H 	 44.8553 	 14.4066 	 79.1875
| 21> H 	 46.3858 	 13.7488 	 79.7429
| 22> H 	 45.4736 	 13.076 	 78.3986
| 23> S 	 44.1312 	 9.14255 	 86.4193
| 24> C 	 42.7244 	 9.65264 	 87.3063
| 25> C 	 41.6654 	 10.0388 	 86.4613
| 26> C 	 42.1309 	 10.2375 	 85.1206
| 27> C 	 43.4274 	 9.77391 	 84.9113
| 28> H 	 40.6223 	 10.1161 	 86.8154
| 29> C 	 41.2315 	 10.6181 	 83.9556
| 30> H 	 40.5253 	 9.81907 	 83.8193
| 31> H 	 41.8232 	 10.695 	 83.0196
| 32> C 	 40.3886 	 11.9033 	 84.1583
| 33> H 	 41.0406 	 12.6938 	 84.5811
| 34> H 	 39.6853 	 11.6276 	 84.9434
| 35> C 	 39.5035 	 12.2531 	 82.9315
| 36> H 	 39.1029 	 13.2524 	 83.0136
| 37> H 	 38.5935 	 11.6122 	 82.9488
| 38> H 	 40.0263 	 12.1839 	 81.9979
| 39> H 	 45.4944 	 8.37915 	 80.6478
| 40> H 	 42.6594 	 9.51435 	 88.3844
| 41> *
| 42>
| 43>                          ****END OF INPUT****

CARTESIAN COORDINATES (ANGSTROEM)
---------------------------------
  S     44.455900    8.079550   82.913600
  C     45.031900    8.903230   81.482300
  C     45.149000   10.283000   81.686200
  C     44.756700   10.580000   82.969800
  C     44.145100    9.625570   83.637000
  H     44.667400   11.548200   83.341700
  C     45.687100   11.368100   80.733000
  H     45.898900   10.947300   79.726500
  H     46.639500   11.688500   81.144600
  C     44.795500   12.534200   80.395500
  H     43.862900   12.062600   79.997000
  H     44.557700   13.050000   81.326300
  C     45.415600   13.442900   79.377800
  H     44.855300   14.406600   79.187500
  H     46.385800   13.748800   79.742900
  H     45.473600   13.076000   78.398600
  S     44.131200    9.142550   86.419300
  C     42.724400    9.652640   87.306300
  C     41.665400   10.038800   86.461300
  C     42.130900   10.237500   85.120600
  C     43.427400    9.773910   84.911300
  H     40.622300   10.116100   86.815400
  C     41.231500   10.618100   83.955600
  H     40.525300    9.819070   83.819300
  H     41.823200   10.695000   83.019600
  C     40.388600   11.903300   84.158300
  H     41.040600   12.693800   84.581100
  H     39.685300   11.627600   84.943400
  C     39.503500   12.253100   82.931500
  H     39.102900   13.252400   83.013600
  H     38.593500   11.612200   82.948800
  H     40.026300   12.183900   81.997900
  H     45.494400    8.379150   80.647800
  H     42.659400    9.514350   88.384400

 Total Charge           Charge          ....    0
 Multiplicity           Mult            ....    1
 Number of Electrons    NEL             ....  134
 Basis Dimension        Dim             ....  322

ORBITAL ENERGIES
----------------

  NO   OCC          E(Eh)            E(eV)
   0   2.0000     -88.966302     -2420.8962
   1   2.0000     -88.964141     -2420.8373
   2   2.0000     -10.325188      -280.9626
   3   2.0000     -10.321773      -280.8697
   4   2.0000     -10.318154      -280.7713
   5   2.0000     -10.313714      -280.6504
   6   2.0000     -10.304871      -280.4098
   7   2.0000     -10.300977      -280.3038
   8   2.0000     -10.298081      -280.2250
   9   2.0000     -10.293377      -280.0970
  10   2.0000     -10.287807      -279.9455
  11   2.0000     -10.287275      -279.9310
  12   2.0000     -10.287107      -279.9264
  13   2.0000     -10.279289      -279.7137
  14   2.0000     -10.277657      -279.6693
  15   2.0000     -10.274215      -279.5756
  16   2.0000      -8.080772      -219.8890
  17   2.0000      -8.079410      -219.8519
  18   2.0000      -6.039217      -164.3355
  19   2.0000      -6.037730      -164.2950
  20   2.0000      -6.035359      -164.2305
  21   2.0000      -6.034036      -164.1945
  22   2.0000      -6.031584      -164.1277
  23   2.0000      -6.030149      -164.0887
  24   2.0000      -1.012339       -27.5472
  25   2.0000      -0.984591       -26.7921
  26   2.0000      -0.917881       -24.9768
  27   2.0000      -0.904109       -24.6021
  28   2.0000      -0.867565       -23.6077
  29   2.0000      -0.855612       -23.2824
  30   2.0000      -0.847186       -23.0531
  31   2.0000      -0.813091       -22.1253
  32   2.0000      -0.783740       -21.3267
  33   2.0000      -0.770691       -20.9716
  34   2.0000      -0.702307       -19.1108
  35   2.0000      -0.696655       -18.9569
  36   2.0000      -0.692034       -18.8312
  37   2.0000      -0.654265       -17.8035
  38   2.0000      -0.646850       -17.6017
  39   2.0000      -0.627392       -17.0722
  40   2.0000      -0.595371       -16.2009
  41   2.0000      -0.578630       -15.7453
  42   2.0000      -0.566489       -15.4149
  43   2.0000      -0.559894       -15.2355
  44   2.0000      -0.525674       -14.3043
  45   2.0000      -0.520866       -14.1735
  46   2.0000      -0.515495       -14.0273
  47   2.0000      -0.507958       -13.8222
  48   2.0000      -0.505180       -13.7467
  49   2.0000      -0.496560       -13.5121
  50   2.0000      -0.492250       -13.3948
  51   2.0000      -0.476992       -12.9796
  52   2.0000      -0.470534       -12.8039
  53   2.0000      -0.469661       -12.7801
  54   2.0000      -0.461189       -12.5496
  55   2.0000      -0.452445       -12.3116
  56   2.0000      -0.446736       -12.1563
  57   2.0000      -0.433846       -11.8055
  58   2.0000      -0.429238       -11.6802
  59   2.0000      -0.426002       -11.5921
  60   2.0000      -0.422018       -11.4837
  61   2.0000      -0.416936       -11.3454
  62   2.0000      -0.416485       -11.3331
  63   2.0000      -0.339324        -9.2335
  64   2.0000      -0.329579        -8.9683
  65   2.0000      -0.325485        -8.8569
  66   2.0000      -0.300771        -8.1844
  67   0.0000       0.041082         1.1179
  68   0.0000       0.054962         1.4956
  69   0.0000       0.110289         3.0011
  70   0.0000       0.119492         3.2515
  71   0.0000       0.133364         3.6290

MULLIKEN ATOMIC CHARGES
-----------------------
   0 S :    0.116114
   1 C :   -0.125652
   2 C :   -0.075388
   3 C :    0.073297
   4 C :   -0.187678
   5 H :   -0.015908
   6 C :    0.054568
   7 H :    0.012126
   8 H :    0.032518
   9 C :   -0.071759
  10 H :    0.033636
  11 H :    0.028949
  12 C :   -0.030600
  13 H :    0.035252
  14 H :    0.022771
  15 H :    0.023708
  16 S :    0.111456
  17 C :   -0.106206
  18 C :   -0.042558
  19 C :   -0.014029
  20 C :   -0.169459
  21 H :    0.040015
  22 C :    0.055119
  23 H :    0.028868
  24 H :    0.038677
  25 C :   -0.116431
  26 H :    0.040909
  27 H :    0.022633
  28 C :   -0.027268
  29 H :    0.030753
  30 H :    0.034862
  31 H :    0.033129
  32 H :    0.048322
  33 H :    0.065256
Sum of atomic charges:   -0.0000000

LOEWDIN ATOMIC CHARGES
----------------------
   0 S :    0.408816
   1 C :   -0.195809
   2 C :   -0.062649
   3 C :   -0.060436
   4 C :   -0.195234
   5 H :    0.022775
   6 C :   -0.031309
   7 H :    0.029999
   8 H :    0.029455
   9 C :   -0.045203
  10 H :    0.030269
  11 H :    0.020788
  12 C :   -0.064198
  13 H :    0.035736
  14 H :    0.024446
  15 H :    0.018889
  16 S :    0.399188
  17 C :   -0.184540
  18 C :   -0.074683
  19 C :   -0.050278
  20 C :   -0.196967
  21 H :    0.038054
  22 C :   -0.031781
  23 H :    0.030582
  24 H :    0.031721
  25 C :   -0.045145
  26 H :    0.025357
  27 H :    0.021155
  28 C :   -0.063829
  29 H :    0.026764
  30 H :    0.031741
  31 H :    0.021337
  32 H :    0.026486
  33 H :    0.028505

  Mayer bond orders larger than 0.100000
B(  0-S ,  1-C ) :   1.1484 B(  0-S ,  4-C ) :   1.1429 B(  1-C ,  2-C ) :   1.6026
B(  1-C , 32-H ) :   0.9656 B(  2-C ,  3-C ) :   1.2528 B(  2-C ,  6-C ) :   1.0172
B(  3-C ,  4-C ) :   1.6133 B(  3-C ,  5-H ) :   0.9972 B(  4-C , 20-C ) :   1.0108
B(  6-C ,  7-H ) :   0.9450 B(  6-C ,  8-H ) :   0.9351 B(  6-C ,  9-C ) :   1.0637
B(  9-C , 10-H ) :   0.9523 B(  9-C , 11-H ) :   0.9520 B(  9-C , 12-C ) :   1.0937
B( 12-C , 13-H ) :   0.9707 B( 12-C , 14-H ) :   0.9704 B( 12-C , 15-H ) :   0.9730
B( 16-S , 17-C ) :   1.1737 B( 16-S , 20-C ) :   1.1369 B( 17-C , 18-C ) :   1.5892
B( 17-C , 20-C ) :   0.1038 B( 17-C , 33-H ) :   0.9672 B( 18-C , 19-C ) :   1.2381
B( 18-C , 21-H ) :   0.9856 B( 19-C , 20-C ) :   1.6037 B( 19-C , 22-C ) :   1.0498
B( 22-C , 23-H ) :   0.9364 B( 22-C , 24-H ) :   0.9347 B( 22-C , 25-C ) :   1.0480
B( 25-C , 26-H ) :   0.9658 B( 25-C , 27-H ) :   0.9561 B( 25-C , 28-C ) :   1.0754
B( 28-C , 29-H ) :   0.9738 B( 28-C , 30-H ) :   0.9745 B( 28-C , 31-H ) :   0.9785

Dispersion correction           -0.013914771
FINAL SINGLE POINT ENERGY     -1339.873491144833

DIPOLE MOMENT
-------------
                                X             Y             Z
Electronic contribution:     10.43967     -23.05207      19.06845
Nuclear contribution   :    -10.73573      23.49343     -19.34429
                        -----------------------------------------
Total Dipole Moment    :     -0.29606       0.44136      -0.27584
                        -----------------------------------------
Magnitude (a.u.)       :      0.59878
Magnitude (Debye)      :      1.52197

Rotational constants in cm-1:     0.016167     0.009149     0.006751
Rotational constants in MHz :   484.667384   274.273567   202.401759

                             ****ORCA TERMINATED NORMALLY****
TOTAL RUN TIME: 0 days 0 hours 0 minutes 28 seconds 718 msec
