                         Program Version 4.2.1 -  RELEASE  -
|  1> ! wB97X-D3 SP def2-SVP
|  2> %pal
|  3> nprocs 16
|  4> end
|  5>
|  6> * xyz 0 1
|  7> S 	 65.1433 	 23.9017 	 73.6811
|  8> C 	 66.2225 	 22.6161 	 73.4064
|  9> C 	 67.2786 	 22.7549 	 74.3125
| 10> C 	 67.1328 	 23.8046 	 75.3037
| 11> C 	 65.9854 	 24.5072 	 75.0746
| 12> H 	 67.7165 	 24.0286 	 76.1488
| 13> C 	 68.3946 	 21.7171 	 74.4301
| 14> H 	 69.2395 	 22.1818 	 74.9365
| 15> H 	 68.79 	 21.6227 	 73.3832
| 16> C 	 67.9866 	 20.3577 	 74.9427
| 17> H 	 67.8684 	 20.3153 	 76.0308
| 18> H 	 67.0459 	 20.1337 	 74.4424
| 19> C 	 68.9133 	 19.1549 	 74.5902
| 20> H 	 69.9036 	 19.3871 	 74.9101
| 21> H 	 68.6167 	 18.2057 	 75.1108
| 22> H 	 68.8661 	 18.917 	 73.5088
| 23> S 	 65.012 	 27.0765 	 74.8378
| 24> C 	 64.3627 	 27.9148 	 76.2555
| 25> C 	 64.4693 	 27.0674 	 77.3683
| 26> C 	 65.1154 	 25.8108 	 77.1731
| 27> C 	 65.4223 	 25.6557 	 75.8233
| 28> H 	 64.1297 	 27.3993 	 78.3389
| 29> C 	 65.4744 	 24.8507 	 78.2774
| 30> H 	 65.6976 	 23.853 	 77.8203
| 31> H 	 64.6106 	 24.747 	 78.9076
| 32> C 	 66.7421 	 25.3138 	 78.9451
| 33> H 	 66.5179 	 26.3596 	 79.1539
| 34> H 	 67.5463 	 25.2241 	 78.1606
| 35> C 	 67.1939 	 24.6029 	 80.2279
| 36> H 	 68.1439 	 25.0392 	 80.6385
| 37> H 	 67.4165 	 23.486 	 80.0313
| 38> H 	 66.3934 	 24.7282 	 80.9741
| 39> H 	 66.1258 	 21.8814 	 72.6337
| 40> H 	 63.8647 	 28.8324 	 76.2345
| 41> *
| 42>
| 43>                          ****END OF INPUT****

CARTESIAN COORDINATES (ANGSTROEM)
---------------------------------
  S     65.143300   23.901700   73.681100
  C     66.222500   22.616100   73.406400
  C     67.278600   22.754900   74.312500
  C     67.132800   23.804600   75.303700
  C     65.985400   24.507200   75.074600
  H     67.716500   24.028600   76.148800
  C     68.394600   21.717100   74.430100
  H     69.239500   22.181800   74.936500
  H     68.790000   21.622700   73.383200
  C     67.986600   20.357700   74.942700
  H     67.868400   20.315300   76.030800
  H     67.045900   20.133700   74.442400
  C     68.913300   19.154900   74.590200
  H     69.903600   19.387100   74.910100
  H     68.616700   18.205700   75.110800
  H     68.866100   18.917000   73.508800
  S     65.012000   27.076500   74.837800
  C     64.362700   27.914800   76.255500
  C     64.469300   27.067400   77.368300
  C     65.115400   25.810800   77.173100
  C     65.422300   25.655700   75.823300
  H     64.129700   27.399300   78.338900
  C     65.474400   24.850700   78.277400
  H     65.697600   23.853000   77.820300
  H     64.610600   24.747000   78.907600
  C     66.742100   25.313800   78.945100
  H     66.517900   26.359600   79.153900
  H     67.546300   25.224100   78.160600
  C     67.193900   24.602900   80.227900
  H     68.143900   25.039200   80.638500
  H     67.416500   23.486000   80.031300
  H     66.393400   24.728200   80.974100
  H     66.125800   21.881400   72.633700
  H     63.864700   28.832400   76.234500

 Total Charge           Charge          ....    0
 Multiplicity           Mult            ....    1
 Number of Electrons    NEL             ....  134
 Basis Dimension        Dim             ....  322

ORBITAL ENERGIES
----------------

  NO   OCC          E(Eh)            E(eV)
   0   2.0000     -88.966862     -2420.9114
   1   2.0000     -88.964208     -2420.8392
   2   2.0000     -10.330784      -281.1149
   3   2.0000     -10.327807      -281.0339
   4   2.0000     -10.318557      -280.7822
   5   2.0000     -10.312968      -280.6301
   6   2.0000     -10.304867      -280.4097
   7   2.0000     -10.304730      -280.4060
   8   2.0000     -10.297379      -280.2059
   9   2.0000     -10.293266      -280.0940
  10   2.0000     -10.292779      -280.0807
  11   2.0000     -10.292440      -280.0715
  12   2.0000     -10.290836      -280.0279
  13   2.0000     -10.290805      -280.0271
  14   2.0000     -10.286306      -279.9046
  15   2.0000     -10.281396      -279.7710
  16   2.0000      -8.080759      -219.8886
  17   2.0000      -8.080064      -219.8697
  18   2.0000      -6.039361      -164.3394
  19   2.0000      -6.038463      -164.3149
  20   2.0000      -6.035314      -164.2293
  21   2.0000      -6.034206      -164.1991
  22   2.0000      -6.031542      -164.1266
  23   2.0000      -6.031052      -164.1133
  24   2.0000      -1.008815       -27.4513
  25   2.0000      -0.983754       -26.7693
  26   2.0000      -0.916180       -24.9305
  27   2.0000      -0.908462       -24.7205
  28   2.0000      -0.867846       -23.6153
  29   2.0000      -0.851399       -23.1677
  30   2.0000      -0.846478       -23.0338
  31   2.0000      -0.815514       -22.1913
  32   2.0000      -0.782746       -21.2996
  33   2.0000      -0.768927       -20.9236
  34   2.0000      -0.700827       -19.0705
  35   2.0000      -0.698274       -19.0010
  36   2.0000      -0.692003       -18.8304
  37   2.0000      -0.666182       -18.1277
  38   2.0000      -0.651544       -17.7294
  39   2.0000      -0.615130       -16.7385
  40   2.0000      -0.597273       -16.2526
  41   2.0000      -0.573900       -15.6166
  42   2.0000      -0.571980       -15.5644
  43   2.0000      -0.554717       -15.0946
  44   2.0000      -0.524951       -14.2846
  45   2.0000      -0.524209       -14.2644
  46   2.0000      -0.519332       -14.1317
  47   2.0000      -0.518700       -14.1146
  48   2.0000      -0.513720       -13.9790
  49   2.0000      -0.502427       -13.6717
  50   2.0000      -0.495042       -13.4708
  51   2.0000      -0.481044       -13.0899
  52   2.0000      -0.473153       -12.8751
  53   2.0000      -0.462268       -12.5789
  54   2.0000      -0.460533       -12.5317
  55   2.0000      -0.448901       -12.2152
  56   2.0000      -0.443251       -12.0615
  57   2.0000      -0.433789       -11.8040
  58   2.0000      -0.430704       -11.7201
  59   2.0000      -0.423229       -11.5166
  60   2.0000      -0.418168       -11.3789
  61   2.0000      -0.416758       -11.3406
  62   2.0000      -0.409477       -11.1424
  63   2.0000      -0.347873        -9.4661
  64   2.0000      -0.333173        -9.0661
  65   2.0000      -0.327278        -8.9057
  66   2.0000      -0.294837        -8.0229
  67   0.0000       0.033025         0.8986
  68   0.0000       0.066078         1.7981
  69   0.0000       0.114463         3.1147
  70   0.0000       0.125143         3.4053
  71   0.0000       0.128533         3.4976

MULLIKEN ATOMIC CHARGES
-----------------------
   0 S :    0.120606
   1 C :   -0.112516
   2 C :   -0.111039
   3 C :    0.057888
   4 C :   -0.140179
   5 H :   -0.013808
   6 C :    0.054257
   7 H :    0.015923
   8 H :    0.025081
   9 C :   -0.048560
  10 H :    0.032901
  11 H :    0.021833
  12 C :   -0.069900
  13 H :    0.028070
  14 H :    0.039511
  15 H :    0.036111
  16 S :    0.104096
  17 C :   -0.073385
  18 C :   -0.037962
  19 C :   -0.031032
  20 C :   -0.179423
  21 H :    0.011729
  22 C :    0.084347
  23 H :    0.029203
  24 H :    0.023243
  25 C :   -0.099441
  26 H :    0.026209
  27 H :    0.036284
  28 C :   -0.051271
  29 H :    0.048082
  30 H :    0.042993
  31 H :    0.037181
  32 H :    0.050210
  33 H :    0.042756
Sum of atomic charges:    0.0000000

LOEWDIN ATOMIC CHARGES
----------------------
   0 S :    0.435995
   1 C :   -0.212455
   2 C :   -0.059316
   3 C :   -0.062151
   4 C :   -0.195110
   5 H :    0.024303
   6 C :   -0.042980
   7 H :    0.025417
   8 H :    0.035332
   9 C :   -0.041929
  10 H :    0.025968
  11 H :    0.023668
  12 C :   -0.067364
  13 H :    0.017234
  14 H :    0.031874
  15 H :    0.025453
  16 S :    0.390901
  17 C :   -0.174765
  18 C :   -0.066172
  19 C :   -0.054583
  20 C :   -0.186674
  21 H :    0.026122
  22 C :   -0.031030
  23 H :    0.033949
  24 H :    0.027193
  25 C :   -0.046912
  26 H :    0.024048
  27 H :    0.027304
  28 C :   -0.074056
  29 H :    0.033132
  30 H :    0.033150
  31 H :    0.025786
  32 H :    0.028847
  33 H :    0.019822

  Mayer bond orders larger than 0.100000
B(  0-S ,  1-C ) :   1.1516 B(  0-S ,  4-C ) :   1.1775 B(  1-C ,  2-C ) :   1.5748
B(  1-C , 32-H ) :   0.9791 B(  2-C ,  3-C ) :   1.2366 B(  2-C ,  6-C ) :   1.0348
B(  3-C ,  4-C ) :   1.5614 B(  3-C ,  5-H ) :   1.0085 B(  4-C , 20-C ) :   1.0037
B(  6-C ,  7-H ) :   0.9378 B(  6-C ,  8-H ) :   0.9376 B(  6-C ,  9-C ) :   1.0598
B(  9-C , 10-H ) :   0.9563 B(  9-C , 11-H ) :   0.9566 B(  9-C , 12-C ) :   1.0790
B( 12-C , 13-H ) :   0.9777 B( 12-C , 14-H ) :   0.9756 B( 12-C , 15-H ) :   0.9767
B( 16-S , 17-C ) :   1.1408 B( 16-S , 20-C ) :   1.1552 B( 17-C , 18-C ) :   1.6008
B( 17-C , 20-C ) :   0.1077 B( 17-C , 33-H ) :   0.9784 B( 18-C , 19-C ) :   1.2431
B( 18-C , 21-H ) :   0.9825 B( 19-C , 20-C ) :   1.5918 B( 19-C , 22-C ) :   1.0526
B( 22-C , 23-H ) :   0.9244 B( 22-C , 24-H ) :   0.9292 B( 22-C , 25-C ) :   1.0617
B( 25-C , 26-H ) :   0.9560 B( 25-C , 27-H ) :   0.9483 B( 25-C , 28-C ) :   1.0815
B( 28-C , 29-H ) :   0.9729 B( 28-C , 30-H ) :   0.9714 B( 28-C , 31-H ) :   0.9733

Dispersion correction           -0.013985627
FINAL SINGLE POINT ENERGY     -1339.888112231461

DIPOLE MOMENT
-------------
                                X             Y             Z
Electronic contribution:    -16.24711      19.94182     -17.00772
Nuclear contribution   :     16.46257     -20.23597      17.51430
                        -----------------------------------------
Total Dipole Moment    :      0.21546      -0.29415       0.50658
                        -----------------------------------------
Magnitude (a.u.)       :      0.62416
Magnitude (Debye)      :      1.58648

Rotational constants in cm-1:     0.018688     0.008478     0.006148
Rotational constants in MHz :   560.265361   254.152900   184.321744

                             ****ORCA TERMINATED NORMALLY****
TOTAL RUN TIME: 0 days 0 hours 0 minutes 28 seconds 227 msec
