                         Program Version 4.2.1 -  RELEASE  -
|  1> ! wB97X-D3 SP def2-SVP
|  2> %pal
|  3> nprocs 16
|  4> end
|  5>
|  6> * xyz 0 1
|  7> S 	 -6.66048 	 63.9156 	 52.273
|  8> C 	 -7.08528 	 63.3363 	 53.853
|  9> C 	 -6.08248 	 62.5066 	 54.3488
| 10> C 	 -4.91055 	 62.2793 	 53.4752
| 11> C 	 -5.03774 	 63.2426 	 52.464
| 12> H 	 -4.10776 	 61.5786 	 53.6015
| 13> C 	 -6.16735 	 61.6648 	 55.6394
| 14> H 	 -5.61151 	 60.7589 	 55.5427
| 15> H 	 -7.19043 	 61.4222 	 55.93
| 16> C 	 -5.44324 	 62.3314 	 56.845
| 17> H 	 -4.37217 	 62.316 	 56.6923
| 18> H 	 -5.80533 	 63.3376 	 56.8828
| 19> C 	 -5.67225 	 61.7068 	 58.1792
| 20> H 	 -6.68899 	 61.5273 	 58.4523
| 21> H 	 -5.07147 	 60.7794 	 58.3564
| 22> H 	 -5.29052 	 62.4617 	 58.8572
| 23> S 	 -3.42682 	 62.0955 	 50.5967
| 24> C 	 -2.66022 	 63.0141 	 49.3493
| 25> C 	 -2.90727 	 64.3647 	 49.5569
| 26> C 	 -3.62101 	 64.6354 	 50.7485
| 27> C 	 -4.01442 	 63.5035 	 51.4347
| 28> H 	 -2.50556 	 65.0356 	 48.8202
| 29> C 	 -3.85989 	 66.0326 	 51.1947
| 30> H 	 -2.98296 	 66.637 	 50.9425
| 31> H 	 -4.03261 	 66.0282 	 52.1978
| 32> C 	 -5.07669 	 66.6177 	 50.5497
| 33> H 	 -5.86872 	 66.4125 	 51.2065
| 34> H 	 -5.29574 	 66.0418 	 49.6043
| 35> C 	 -5.04265 	 68.0894 	 50.4046
| 36> H 	 -5.00276 	 68.5717 	 51.4094
| 37> H 	 -5.84896 	 68.5173 	 49.861
| 38> H 	 -4.11548 	 68.3342 	 49.8235
| 39> H 	 -8.10966 	 63.4546 	 54.2234
| 40> H 	 -1.97488 	 62.6797 	 48.6299
| 41> *
| 42>
| 43>                          ****END OF INPUT****

CARTESIAN COORDINATES (ANGSTROEM)
---------------------------------
  S     -6.660480   63.915600   52.273000
  C     -7.085280   63.336300   53.853000
  C     -6.082480   62.506600   54.348800
  C     -4.910550   62.279300   53.475200
  C     -5.037740   63.242600   52.464000
  H     -4.107760   61.578600   53.601500
  C     -6.167350   61.664800   55.639400
  H     -5.611510   60.758900   55.542700
  H     -7.190430   61.422200   55.930000
  C     -5.443240   62.331400   56.845000
  H     -4.372170   62.316000   56.692300
  H     -5.805330   63.337600   56.882800
  C     -5.672250   61.706800   58.179200
  H     -6.688990   61.527300   58.452300
  H     -5.071470   60.779400   58.356400
  H     -5.290520   62.461700   58.857200
  S     -3.426820   62.095500   50.596700
  C     -2.660220   63.014100   49.349300
  C     -2.907270   64.364700   49.556900
  C     -3.621010   64.635400   50.748500
  C     -4.014420   63.503500   51.434700
  H     -2.505560   65.035600   48.820200
  C     -3.859890   66.032600   51.194700
  H     -2.982960   66.637000   50.942500
  H     -4.032610   66.028200   52.197800
  C     -5.076690   66.617700   50.549700
  H     -5.868720   66.412500   51.206500
  H     -5.295740   66.041800   49.604300
  C     -5.042650   68.089400   50.404600
  H     -5.002760   68.571700   51.409400
  H     -5.848960   68.517300   49.861000
  H     -4.115480   68.334200   49.823500
  H     -8.109660   63.454600   54.223400
  H     -1.974880   62.679700   48.629900

 Total Charge           Charge          ....    0
 Multiplicity           Mult            ....    1
 Number of Electrons    NEL             ....  134
 Basis Dimension        Dim             ....  322

ORBITAL ENERGIES
----------------

  NO   OCC          E(Eh)            E(eV)
   0   2.0000     -88.970687     -2421.0155
   1   2.0000     -88.961354     -2420.7615
   2   2.0000     -10.337592      -281.3002
   3   2.0000     -10.321162      -280.8531
   4   2.0000     -10.316596      -280.7288
   5   2.0000     -10.311685      -280.5952
   6   2.0000     -10.311087      -280.5790
   7   2.0000     -10.304809      -280.4081
   8   2.0000     -10.297688      -280.2143
   9   2.0000     -10.289802      -279.9997
  10   2.0000     -10.287168      -279.9281
  11   2.0000     -10.277719      -279.6710
  12   2.0000     -10.273458      -279.5550
  13   2.0000     -10.273166      -279.5471
  14   2.0000     -10.272578      -279.5310
  15   2.0000     -10.269002      -279.4337
  16   2.0000      -8.084897      -220.0012
  17   2.0000      -8.076609      -219.7757
  18   2.0000      -6.043442      -164.4504
  19   2.0000      -6.039595      -164.3457
  20   2.0000      -6.035523      -164.2349
  21   2.0000      -6.035098      -164.2234
  22   2.0000      -6.030861      -164.1081
  23   2.0000      -6.027552      -164.0180
  24   2.0000      -1.008092       -27.4316
  25   2.0000      -0.984106       -26.7789
  26   2.0000      -0.921130       -25.0652
  27   2.0000      -0.909843       -24.7581
  28   2.0000      -0.869979       -23.6733
  29   2.0000      -0.854626       -23.2555
  30   2.0000      -0.849711       -23.1218
  31   2.0000      -0.814011       -22.1504
  32   2.0000      -0.782085       -21.2816
  33   2.0000      -0.769968       -20.9519
  34   2.0000      -0.701286       -19.0830
  35   2.0000      -0.690995       -18.8029
  36   2.0000      -0.689838       -18.7714
  37   2.0000      -0.667556       -18.1651
  38   2.0000      -0.647518       -17.6199
  39   2.0000      -0.614036       -16.7088
  40   2.0000      -0.601356       -16.3637
  41   2.0000      -0.576348       -15.6832
  42   2.0000      -0.570288       -15.5183
  43   2.0000      -0.561645       -15.2831
  44   2.0000      -0.529163       -14.3993
  45   2.0000      -0.524394       -14.2695
  46   2.0000      -0.521562       -14.1924
  47   2.0000      -0.518068       -14.0973
  48   2.0000      -0.507834       -13.8189
  49   2.0000      -0.499619       -13.5953
  50   2.0000      -0.497903       -13.5486
  51   2.0000      -0.477962       -13.0060
  52   2.0000      -0.470691       -12.8082
  53   2.0000      -0.466091       -12.6830
  54   2.0000      -0.464789       -12.6476
  55   2.0000      -0.449740       -12.2381
  56   2.0000      -0.444931       -12.1072
  57   2.0000      -0.431788       -11.7496
  58   2.0000      -0.427581       -11.6351
  59   2.0000      -0.420848       -11.4518
  60   2.0000      -0.417241       -11.3537
  61   2.0000      -0.410773       -11.1777
  62   2.0000      -0.408904       -11.1269
  63   2.0000      -0.346813        -9.4373
  64   2.0000      -0.330422        -8.9912
  65   2.0000      -0.323130        -8.7928
  66   2.0000      -0.292185        -7.9508
  67   0.0000       0.026264         0.7147
  68   0.0000       0.070760         1.9255
  69   0.0000       0.096299         2.6204
  70   0.0000       0.114273         3.1095
  71   0.0000       0.137679         3.7464

MULLIKEN ATOMIC CHARGES
-----------------------
   0 S :    0.123732
   1 C :   -0.134607
   2 C :   -0.073732
   3 C :    0.014389
   4 C :   -0.125345
   5 H :    0.031570
   6 C :    0.077734
   7 H :    0.009886
   8 H :    0.016990
   9 C :   -0.088598
  10 H :    0.027085
  11 H :    0.021605
  12 C :   -0.033942
  13 H :    0.023279
  14 H :    0.034915
  15 H :    0.030234
  16 S :    0.095030
  17 C :   -0.072810
  18 C :   -0.045063
  19 C :   -0.088347
  20 C :   -0.136310
  21 H :    0.013776
  22 C :    0.139765
  23 H :    0.019304
  24 H :   -0.002356
  25 C :   -0.078787
  26 H :    0.010914
  27 H :    0.036888
  28 C :   -0.037830
  29 H :    0.034544
  30 H :    0.028404
  31 H :    0.024224
  32 H :    0.062268
  33 H :    0.041188
Sum of atomic charges:    0.0000000

LOEWDIN ATOMIC CHARGES
----------------------
   0 S :    0.422967
   1 C :   -0.216537
   2 C :   -0.048817
   3 C :   -0.053363
   4 C :   -0.178594
   5 H :    0.034192
   6 C :   -0.030825
   7 H :    0.024046
   8 H :    0.024332
   9 C :   -0.039770
  10 H :    0.024294
  11 H :    0.018837
  12 C :   -0.065849
  13 H :    0.017904
  14 H :    0.028152
  15 H :    0.031164
  16 S :    0.418750
  17 C :   -0.184254
  18 C :   -0.069584
  19 C :   -0.057373
  20 C :   -0.210328
  21 H :    0.029972
  22 C :   -0.021438
  23 H :    0.031146
  24 H :    0.018493
  25 C :   -0.049592
  26 H :    0.006726
  27 H :    0.027268
  28 C :   -0.063130
  29 H :    0.030965
  30 H :    0.021079
  31 H :    0.024426
  32 H :    0.032711
  33 H :    0.022029

  Mayer bond orders larger than 0.100000
B(  0-S ,  1-C ) :   1.1179 B(  0-S ,  4-C ) :   1.1677 B(  1-C ,  2-C ) :   1.6192
B(  1-C , 32-H ) :   0.9700 B(  2-C ,  3-C ) :   1.2084 B(  2-C ,  6-C ) :   1.0397
B(  3-C ,  4-C ) :   1.5455 B(  3-C ,  5-H ) :   0.9997 B(  4-C , 20-C ) :   1.0337
B(  6-C ,  7-H ) :   0.9406 B(  6-C ,  8-H ) :   0.9476 B(  6-C ,  9-C ) :   1.0580
B(  9-C , 10-H ) :   0.9547 B(  9-C , 11-H ) :   0.9590 B(  9-C , 12-C ) :   1.0957
B( 12-C , 13-H ) :   0.9731 B( 12-C , 14-H ) :   0.9730 B( 12-C , 15-H ) :   0.9715
B( 16-S , 17-C ) :   1.1705 B( 16-S , 20-C ) :   1.1392 B( 17-C , 18-C ) :   1.5878
B( 17-C , 33-H ) :   0.9726 B( 18-C , 19-C ) :   1.2479 B( 18-C , 21-H ) :   0.9980
B( 19-C , 20-C ) :   1.5787 B( 19-C , 22-C ) :   1.0592 B( 22-C , 23-H ) :   0.9431
B( 22-C , 24-H ) :   0.9161 B( 22-C , 25-C ) :   1.0451 B( 25-C , 26-H ) :   0.9366
B( 25-C , 27-H ) :   0.9637 B( 25-C , 28-C ) :   1.0943 B( 28-C , 29-H ) :   0.9675
B( 28-C , 30-H ) :   0.9708 B( 28-C , 31-H ) :   0.9765

Dispersion correction           -0.014037990
FINAL SINGLE POINT ENERGY     -1339.861327458482

DIPOLE MOMENT
-------------
                                X             Y             Z
Electronic contribution:      1.67316      -9.80774     -15.91637
Nuclear contribution   :     -1.65359       9.89165      16.15156
                        -----------------------------------------
Total Dipole Moment    :      0.01957       0.08391       0.23519
                        -----------------------------------------
Magnitude (a.u.)       :      0.25047
Magnitude (Debye)      :      0.63666

Rotational constants in cm-1:     0.020967     0.007690     0.006389
Rotational constants in MHz :   628.570370   230.549748   191.538244

                             ****ORCA TERMINATED NORMALLY****
TOTAL RUN TIME: 0 days 0 hours 0 minutes 31 seconds 908 msec
