                         Program Version 4.2.1 -  RELEASE  -
|  1> ! wB97X-D3 SP def2-SVP
|  2> %pal
|  3> nprocs 16
|  4> end
|  5>
|  6> * xyz 0 1
|  7> S 	 15.0179 	 18.6042 	 41.0817
|  8> C 	 16.2427 	 18.1014 	 39.8981
|  9> C 	 15.7135 	 17.1421 	 39.0626
| 10> C 	 14.3029 	 16.9104 	 39.2296
| 11> C 	 13.7564 	 17.8447 	 40.124
| 12> H 	 13.7215 	 16.3309 	 38.593
| 13> C 	 16.5836 	 16.4423 	 38.0444
| 14> H 	 16.5279 	 15.3807 	 38.1524
| 15> H 	 17.6222 	 16.5755 	 38.3999
| 16> C 	 16.5665 	 16.9315 	 36.6584
| 17> H 	 15.575 	 16.887 	 36.1433
| 18> H 	 16.954 	 17.9696 	 36.6312
| 19> C 	 17.522 	 16.1819 	 35.7274
| 20> H 	 17.6191 	 16.9382 	 34.8416
| 21> H 	 18.5033 	 16.1982 	 36.3075
| 22> H 	 17.2133 	 15.2116 	 35.4122
| 23> S 	 11.2132 	 17.739 	 39.3501
| 24> C 	 9.92669 	 17.9455 	 40.4815
| 25> C 	 10.3548 	 18.033 	 41.8155
| 26> C 	 11.7741 	 17.8927 	 41.9181
| 27> C 	 12.4163 	 17.8638 	 40.6431
| 28> H 	 9.65928 	 18.1507 	 42.6784
| 29> C 	 12.405 	 17.8822 	 43.3329
| 30> H 	 12.7554 	 18.8341 	 43.7509
| 31> H 	 13.3646 	 17.3746 	 43.1416
| 32> C 	 11.5106 	 17.2399 	 44.4187
| 33> H 	 10.9344 	 16.4129 	 43.9787
| 34> H 	 10.7854 	 17.9871 	 44.6985
| 35> C 	 12.3724 	 16.9775 	 45.6362
| 36> H 	 11.6641 	 17.0249 	 46.455
| 37> H 	 12.9796 	 17.8696 	 45.8615
| 38> H 	 12.9195 	 16.0894 	 45.563
| 39> H 	 17.2832 	 18.3111 	 40.0136
| 40> H 	 8.91287 	 18.095 	 40.2685
| 41> *
| 42>
| 43>                          ****END OF INPUT****

CARTESIAN COORDINATES (ANGSTROEM)
---------------------------------
  S     15.017900   18.604200   41.081700
  C     16.242700   18.101400   39.898100
  C     15.713500   17.142100   39.062600
  C     14.302900   16.910400   39.229600
  C     13.756400   17.844700   40.124000
  H     13.721500   16.330900   38.593000
  C     16.583600   16.442300   38.044400
  H     16.527900   15.380700   38.152400
  H     17.622200   16.575500   38.399900
  C     16.566500   16.931500   36.658400
  H     15.575000   16.887000   36.143300
  H     16.954000   17.969600   36.631200
  C     17.522000   16.181900   35.727400
  H     17.619100   16.938200   34.841600
  H     18.503300   16.198200   36.307500
  H     17.213300   15.211600   35.412200
  S     11.213200   17.739000   39.350100
  C      9.926690   17.945500   40.481500
  C     10.354800   18.033000   41.815500
  C     11.774100   17.892700   41.918100
  C     12.416300   17.863800   40.643100
  H      9.659280   18.150700   42.678400
  C     12.405000   17.882200   43.332900
  H     12.755400   18.834100   43.750900
  H     13.364600   17.374600   43.141600
  C     11.510600   17.239900   44.418700
  H     10.934400   16.412900   43.978700
  H     10.785400   17.987100   44.698500
  C     12.372400   16.977500   45.636200
  H     11.664100   17.024900   46.455000
  H     12.979600   17.869600   45.861500
  H     12.919500   16.089400   45.563000
  H     17.283200   18.311100   40.013600
  H      8.912870   18.095000   40.268500

 Total Charge           Charge          ....    0
 Multiplicity           Mult            ....    1
 Number of Electrons    NEL             ....  134
 Basis Dimension        Dim             ....  322

ORBITAL ENERGIES
----------------

  NO   OCC          E(Eh)            E(eV)
   0   2.0000     -88.967917     -2420.9401
   1   2.0000     -88.965471     -2420.8735
   2   2.0000     -10.333705      -281.1944
   3   2.0000     -10.329928      -281.0916
   4   2.0000     -10.312769      -280.6247
   5   2.0000     -10.312548      -280.6187
   6   2.0000     -10.309345      -280.5315
   7   2.0000     -10.301984      -280.3312
   8   2.0000     -10.296700      -280.1875
   9   2.0000     -10.294505      -280.1277
  10   2.0000     -10.291339      -280.0416
  11   2.0000     -10.287388      -279.9340
  12   2.0000     -10.286091      -279.8988
  13   2.0000     -10.285382      -279.8795
  14   2.0000     -10.285177      -279.8739
  15   2.0000     -10.274278      -279.5773
  16   2.0000      -8.082520      -219.9365
  17   2.0000      -8.079644      -219.8583
  18   2.0000      -6.041027      -164.3847
  19   2.0000      -6.038202      -164.3078
  20   2.0000      -6.036979      -164.2745
  21   2.0000      -6.034374      -164.2037
  22   2.0000      -6.033388      -164.1768
  23   2.0000      -6.030253      -164.0915
  24   2.0000      -1.004171       -27.3249
  25   2.0000      -0.979654       -26.6577
  26   2.0000      -0.919437       -25.0191
  27   2.0000      -0.911201       -24.7950
  28   2.0000      -0.871132       -23.7047
  29   2.0000      -0.854501       -23.2521
  30   2.0000      -0.843957       -22.9652
  31   2.0000      -0.811587       -22.0844
  32   2.0000      -0.781698       -21.2711
  33   2.0000      -0.766934       -20.8693
  34   2.0000      -0.709450       -19.3051
  35   2.0000      -0.700254       -19.0549
  36   2.0000      -0.688110       -18.7244
  37   2.0000      -0.659793       -17.9539
  38   2.0000      -0.639751       -17.4085
  39   2.0000      -0.618211       -16.8224
  40   2.0000      -0.598802       -16.2942
  41   2.0000      -0.574334       -15.6284
  42   2.0000      -0.572912       -15.5897
  43   2.0000      -0.563375       -15.3302
  44   2.0000      -0.531776       -14.4704
  45   2.0000      -0.525370       -14.2960
  46   2.0000      -0.518532       -14.1100
  47   2.0000      -0.509318       -13.8593
  48   2.0000      -0.507135       -13.7998
  49   2.0000      -0.504693       -13.7334
  50   2.0000      -0.486572       -13.2403
  51   2.0000      -0.476893       -12.9769
  52   2.0000      -0.472193       -12.8490
  53   2.0000      -0.465661       -12.6713
  54   2.0000      -0.455526       -12.3955
  55   2.0000      -0.450378       -12.2554
  56   2.0000      -0.442208       -12.0331
  57   2.0000      -0.435563       -11.8523
  58   2.0000      -0.432424       -11.7668
  59   2.0000      -0.423431       -11.5221
  60   2.0000      -0.414266       -11.2727
  61   2.0000      -0.411491       -11.1972
  62   2.0000      -0.406547       -11.0627
  63   2.0000      -0.352883        -9.6024
  64   2.0000      -0.331804        -9.0288
  65   2.0000      -0.329846        -8.9756
  66   2.0000      -0.281128        -7.6499
  67   0.0000       0.019556         0.5322
  68   0.0000       0.070343         1.9141
  69   0.0000       0.095930         2.6104
  70   0.0000       0.123028         3.3478
  71   0.0000       0.130728         3.5573

MULLIKEN ATOMIC CHARGES
-----------------------
   0 S :    0.085753
   1 C :   -0.099615
   2 C :   -0.090093
   3 C :    0.063932
   4 C :   -0.128091
   5 H :   -0.002580
   6 C :    0.070457
   7 H :    0.020038
   8 H :   -0.001465
   9 C :   -0.072628
  10 H :    0.035584
  11 H :    0.030781
  12 C :   -0.077363
  13 H :    0.047656
  14 H :    0.031740
  15 H :    0.041728
  16 S :    0.104915
  17 C :   -0.052454
  18 C :   -0.072773
  19 C :   -0.029532
  20 C :   -0.164968
  21 H :    0.040610
  22 C :    0.033397
  23 H :    0.036499
  24 H :    0.022967
  25 C :   -0.121650
  26 H :    0.043413
  27 H :    0.028642
  28 C :    0.014104
  29 H :    0.017654
  30 H :    0.024699
  31 H :    0.041965
  32 H :    0.042787
  33 H :    0.033892
Sum of atomic charges:    0.0000000

LOEWDIN ATOMIC CHARGES
----------------------
   0 S :    0.397711
   1 C :   -0.187927
   2 C :   -0.053684
   3 C :   -0.056097
   4 C :   -0.184304
   5 H :    0.017239
   6 C :   -0.043355
   7 H :    0.028223
   8 H :    0.030743
   9 C :   -0.050038
  10 H :    0.025734
  11 H :    0.029985
  12 C :   -0.067002
  13 H :    0.039669
  14 H :    0.028260
  15 H :    0.016477
  16 S :    0.420564
  17 C :   -0.188730
  18 C :   -0.075113
  19 C :   -0.057034
  20 C :   -0.195634
  21 H :    0.039802
  22 C :   -0.042035
  23 H :    0.030451
  24 H :    0.023548
  25 C :   -0.042071
  26 H :    0.027008
  27 H :    0.020922
  28 C :   -0.052998
  29 H :    0.026711
  30 H :    0.031032
  31 H :    0.021096
  32 H :    0.023039
  33 H :    0.017810

  Mayer bond orders larger than 0.100000
B(  0-S ,  1-C ) :   1.1199 B(  0-S ,  4-C ) :   1.1557 B(  1-C ,  2-C ) :   1.6153
B(  1-C , 32-H ) :   0.9710 B(  2-C ,  3-C ) :   1.2522 B(  2-C ,  6-C ) :   1.0294
B(  3-C ,  4-C ) :   1.5296 B(  3-C ,  5-H ) :   0.9941 B(  4-C , 20-C ) :   1.0693
B(  6-C ,  7-H ) :   0.9348 B(  6-C ,  8-H ) :   0.9263 B(  6-C ,  9-C ) :   1.0775
B(  9-C , 10-H ) :   0.9531 B(  9-C , 11-H ) :   0.9532 B(  9-C , 12-C ) :   1.0717
B( 12-C , 13-H ) :   0.9779 B( 12-C , 14-H ) :   0.9726 B( 12-C , 15-H ) :   0.9773
B( 16-S , 17-C ) :   1.1670 B( 16-S , 20-C ) :   1.1449 B( 17-C , 18-C ) :   1.5920
B( 17-C , 20-C ) :   0.1022 B( 17-C , 33-H ) :   0.9687 B( 18-C , 19-C ) :   1.2647
B( 18-C , 21-H ) :   0.9770 B( 19-C , 20-C ) :   1.5489 B( 19-C , 22-C ) :   1.0202
B( 22-C , 23-H ) :   0.9349 B( 22-C , 24-H ) :   0.9386 B( 22-C , 25-C ) :   1.0616
B( 25-C , 26-H ) :   0.9622 B( 25-C , 27-H ) :   0.9458 B( 25-C , 28-C ) :   1.0836
B( 28-C , 29-H ) :   0.9711 B( 28-C , 30-H ) :   0.9644 B( 28-C , 31-H ) :   0.9787

Dispersion correction           -0.013151468
FINAL SINGLE POINT ENERGY     -1339.852946375916

DIPOLE MOMENT
-------------
                                X             Y             Z
Electronic contribution:    -10.08174       7.80279      -2.70021
Nuclear contribution   :     10.14387      -8.03789       2.89417
                        -----------------------------------------
Total Dipole Moment    :      0.06213      -0.23509       0.19396
                        -----------------------------------------
Magnitude (a.u.)       :      0.31104
Magnitude (Debye)      :      0.79061

Rotational constants in cm-1:     0.023803     0.006897     0.005722
Rotational constants in MHz :   713.598720   206.764807   171.550950

                             ****ORCA TERMINATED NORMALLY****
TOTAL RUN TIME: 0 days 0 hours 0 minutes 33 seconds 244 msec
