                         Program Version 4.2.1 -  RELEASE  -
|  1> ! wB97X-D3 SP def2-SVP
|  2> %pal
|  3> nprocs 16
|  4> end
|  5>
|  6> * xyz 0 1
|  7> S 	 -10.5263 	 -11.6608 	 87.5271
|  8> C 	 -11.7913 	 -12.7508 	 87.1193
|  9> C 	 -12.7235 	 -12.102 	 86.3197
| 10> C 	 -12.433 	 -10.7917 	 86.1057
| 11> C 	 -11.3029 	 -10.3202 	 86.7956
| 12> H 	 -12.95 	 -10.2629 	 85.3973
| 13> C 	 -14.0121 	 -12.6713 	 85.8238
| 14> H 	 -14.6746 	 -11.7791 	 85.7187
| 15> H 	 -14.5287 	 -13.3154 	 86.5285
| 16> C 	 -13.9476 	 -13.153 	 84.3699
| 17> H 	 -13.3951 	 -12.3016 	 83.8861
| 18> H 	 -13.3963 	 -14.0641 	 84.3944
| 19> C 	 -15.3079 	 -13.3444 	 83.7536
| 20> H 	 -15.7338 	 -14.2765 	 84.0846
| 21> H 	 -16.0906 	 -12.5521 	 84.0308
| 22> H 	 -15.2466 	 -13.4338 	 82.6803
| 23> S 	 -9.05357 	 -8.78763 	 86.4402
| 24> C 	 -9.21195 	 -6.98079 	 86.5391
| 25> C 	 -10.4947 	 -6.61152 	 86.9198
| 26> C 	 -11.4232 	 -7.72796 	 86.9232
| 27> C 	 -10.7654 	 -8.94556 	 86.8269
| 28> H 	 -10.7709 	 -5.57696 	 87.1089
| 29> C 	 -12.9168 	 -7.62503 	 87.1163
| 30> H 	 -13.1684 	 -8.366 	 87.8847
| 31> H 	 -13.4933 	 -8.04342 	 86.3261
| 32> C 	 -13.4575 	 -6.22635 	 87.4904
| 33> H 	 -13.4612 	 -5.67678 	 86.5424
| 34> H 	 -12.8485 	 -5.75499 	 88.2864
| 35> C 	 -14.8625 	 -6.22152 	 88.0919
| 36> H 	 -15.4462 	 -5.30631 	 88.0331
| 37> H 	 -14.9661 	 -6.52872 	 89.0816
| 38> H 	 -15.4256 	 -6.87588 	 87.5171
| 39> H 	 -11.8334 	 -13.8324 	 87.2972
| 40> H 	 -8.46317 	 -6.22639 	 86.3996
| 41> *
| 42>
| 43>                          ****END OF INPUT****

CARTESIAN COORDINATES (ANGSTROEM)
---------------------------------
  S    -10.526300  -11.660800   87.527100
  C    -11.791300  -12.750800   87.119300
  C    -12.723500  -12.102000   86.319700
  C    -12.433000  -10.791700   86.105700
  C    -11.302900  -10.320200   86.795600
  H    -12.950000  -10.262900   85.397300
  C    -14.012100  -12.671300   85.823800
  H    -14.674600  -11.779100   85.718700
  H    -14.528700  -13.315400   86.528500
  C    -13.947600  -13.153000   84.369900
  H    -13.395100  -12.301600   83.886100
  H    -13.396300  -14.064100   84.394400
  C    -15.307900  -13.344400   83.753600
  H    -15.733800  -14.276500   84.084600
  H    -16.090600  -12.552100   84.030800
  H    -15.246600  -13.433800   82.680300
  S     -9.053570   -8.787630   86.440200
  C     -9.211950   -6.980790   86.539100
  C    -10.494700   -6.611520   86.919800
  C    -11.423200   -7.727960   86.923200
  C    -10.765400   -8.945560   86.826900
  H    -10.770900   -5.576960   87.108900
  C    -12.916800   -7.625030   87.116300
  H    -13.168400   -8.366000   87.884700
  H    -13.493300   -8.043420   86.326100
  C    -13.457500   -6.226350   87.490400
  H    -13.461200   -5.676780   86.542400
  H    -12.848500   -5.754990   88.286400
  C    -14.862500   -6.221520   88.091900
  H    -15.446200   -5.306310   88.033100
  H    -14.966100   -6.528720   89.081600
  H    -15.425600   -6.875880   87.517100
  H    -11.833400  -13.832400   87.297200
  H     -8.463170   -6.226390   86.399600

 Total Charge           Charge          ....    0
 Multiplicity           Mult            ....    1
 Number of Electrons    NEL             ....  134
 Basis Dimension        Dim             ....  322

ORBITAL ENERGIES
----------------

  NO   OCC          E(Eh)            E(eV)
   0   2.0000     -88.969638     -2420.9869
   1   2.0000     -88.967205     -2420.9207
   2   2.0000     -10.329581      -281.0822
   3   2.0000     -10.327736      -281.0320
   4   2.0000     -10.321787      -280.8701
   5   2.0000     -10.311444      -280.5887
   6   2.0000     -10.306589      -280.4565
   7   2.0000     -10.299339      -280.2593
   8   2.0000     -10.291434      -280.0442
   9   2.0000     -10.289815      -280.0001
  10   2.0000     -10.289791      -279.9994
  11   2.0000     -10.288395      -279.9615
  12   2.0000     -10.286598      -279.9126
  13   2.0000     -10.281679      -279.7787
  14   2.0000     -10.280965      -279.7593
  15   2.0000     -10.266783      -279.3734
  16   2.0000      -8.085120      -220.0073
  17   2.0000      -8.080585      -219.8839
  18   2.0000      -6.043408      -164.4495
  19   2.0000      -6.039393      -164.3402
  20   2.0000      -6.039320      -164.3382
  21   2.0000      -6.036198      -164.2533
  22   2.0000      -6.035430      -164.2324
  23   2.0000      -6.031036      -164.1128
  24   2.0000      -1.012453       -27.5502
  25   2.0000      -0.981884       -26.7184
  26   2.0000      -0.919636       -25.0246
  27   2.0000      -0.908744       -24.7282
  28   2.0000      -0.868750       -23.6399
  29   2.0000      -0.858336       -23.3565
  30   2.0000      -0.848530       -23.0897
  31   2.0000      -0.814999       -22.1773
  32   2.0000      -0.783790       -21.3280
  33   2.0000      -0.773349       -21.0439
  34   2.0000      -0.709385       -19.3033
  35   2.0000      -0.702687       -19.1211
  36   2.0000      -0.697423       -18.9779
  37   2.0000      -0.655367       -17.8334
  38   2.0000      -0.640848       -17.4384
  39   2.0000      -0.629387       -17.1265
  40   2.0000      -0.599455       -16.3120
  41   2.0000      -0.574420       -15.6308
  42   2.0000      -0.570404       -15.5215
  43   2.0000      -0.565165       -15.3789
  44   2.0000      -0.529245       -14.4015
  45   2.0000      -0.522317       -14.2130
  46   2.0000      -0.517297       -14.0764
  47   2.0000      -0.515600       -14.0302
  48   2.0000      -0.503709       -13.7066
  49   2.0000      -0.500007       -13.6059
  50   2.0000      -0.493666       -13.4333
  51   2.0000      -0.481533       -13.1032
  52   2.0000      -0.472535       -12.8583
  53   2.0000      -0.466426       -12.6921
  54   2.0000      -0.460719       -12.5368
  55   2.0000      -0.456699       -12.4274
  56   2.0000      -0.449407       -12.2290
  57   2.0000      -0.432525       -11.7696
  58   2.0000      -0.427949       -11.6451
  59   2.0000      -0.426544       -11.6068
  60   2.0000      -0.423574       -11.5260
  61   2.0000      -0.418670       -11.3926
  62   2.0000      -0.417070       -11.3491
  63   2.0000      -0.348023        -9.4702
  64   2.0000      -0.333526        -9.0757
  65   2.0000      -0.326610        -8.8875
  66   2.0000      -0.286648        -7.8001
  67   0.0000       0.025807         0.7022
  68   0.0000       0.070375         1.9150
  69   0.0000       0.105428         2.8688
  70   0.0000       0.119852         3.2613
  71   0.0000       0.136545         3.7156

MULLIKEN ATOMIC CHARGES
-----------------------
   0 S :    0.130385
   1 C :   -0.128807
   2 C :   -0.077266
   3 C :    0.041474
   4 C :   -0.149527
   5 H :   -0.022177
   6 C :    0.027465
   7 H :    0.010925
   8 H :    0.028940
   9 C :   -0.061944
  10 H :    0.035521
  11 H :    0.027531
  12 C :   -0.038277
  13 H :    0.021182
  14 H :    0.037736
  15 H :    0.036132
  16 S :    0.096705
  17 C :   -0.073283
  18 C :   -0.041017
  19 C :   -0.047575
  20 C :   -0.127797
  21 H :    0.028512
  22 C :    0.049612
  23 H :    0.032571
  24 H :    0.020624
  25 C :   -0.091574
  26 H :    0.040971
  27 H :    0.044545
  28 C :    0.006059
  29 H :    0.024701
  30 H :    0.020962
  31 H :   -0.003485
  32 H :    0.051544
  33 H :    0.048633
Sum of atomic charges:   -0.0000000

LOEWDIN ATOMIC CHARGES
----------------------
   0 S :    0.448962
   1 C :   -0.216584
   2 C :   -0.070291
   3 C :   -0.059495
   4 C :   -0.206583
   5 H :    0.014941
   6 C :   -0.033617
   7 H :    0.030361
   8 H :    0.026022
   9 C :   -0.038469
  10 H :    0.031076
  11 H :    0.021027
  12 C :   -0.070293
  13 H :    0.023008
  14 H :    0.032594
  15 H :    0.025985
  16 S :    0.373615
  17 C :   -0.166113
  18 C :   -0.065213
  19 C :   -0.051662
  20 C :   -0.192855
  21 H :    0.033673
  22 C :   -0.038740
  23 H :    0.038033
  24 H :    0.026610
  25 C :   -0.039321
  26 H :    0.029115
  27 H :    0.028524
  28 C :   -0.059859
  29 H :    0.029734
  30 H :    0.018907
  31 H :    0.014621
  32 H :    0.034634
  33 H :    0.027653

  Mayer bond orders larger than 0.100000
B(  0-S ,  1-C ) :   1.1635 B(  0-S ,  4-C ) :   1.1961 B(  1-C ,  2-C ) :   1.5404
B(  1-C ,  4-C ) :   0.1123 B(  1-C , 32-H ) :   0.9691 B(  2-C ,  3-C ) :   1.3475
B(  2-C ,  6-C ) :   1.0172 B(  3-C ,  4-C ) :   1.4716 B(  3-C ,  5-H ) :   1.0017
B(  4-C , 20-C ) :   1.0334 B(  6-C ,  7-H ) :   0.9438 B(  6-C ,  8-H ) :   0.9478
B(  6-C ,  9-C ) :   1.0477 B(  9-C , 10-H ) :   0.9571 B(  9-C , 11-H ) :   0.9546
B(  9-C , 12-C ) :   1.0846 B( 12-C , 13-H ) :   0.9703 B( 12-C , 14-H ) :   0.9726
B( 12-C , 15-H ) :   0.9729 B( 16-S , 17-C ) :   1.1244 B( 16-S , 20-C ) :   1.1275
B( 17-C , 18-C ) :   1.6417 B( 17-C , 33-H ) :   0.9645 B( 18-C , 19-C ) :   1.2214
B( 18-C , 21-H ) :   0.9795 B( 19-C , 20-C ) :   1.6259 B( 19-C , 22-C ) :   1.0402
B( 22-C , 23-H ) :   0.9291 B( 22-C , 24-H ) :   0.9210 B( 22-C , 25-C ) :   1.0706
B( 25-C , 26-H ) :   0.9506 B( 25-C , 27-H ) :   0.9575 B( 25-C , 28-C ) :   1.0858
B( 28-C , 29-H ) :   0.9702 B( 28-C , 30-H ) :   0.9746 B( 28-C , 31-H ) :   0.9681

Dispersion correction           -0.013472092
FINAL SINGLE POINT ENERGY     -1339.862821770787

DIPOLE MOMENT
-------------
                                X             Y             Z
Electronic contribution:     29.57235      -2.29219       6.32385
Nuclear contribution   :    -30.30279       2.39600      -6.51293
                        -----------------------------------------
Total Dipole Moment    :     -0.73044       0.10381      -0.18908
                        -----------------------------------------
Magnitude (a.u.)       :      0.76162
Magnitude (Debye)      :      1.93589

Rotational constants in cm-1:     0.016513     0.008442     0.006346
Rotational constants in MHz :   495.049211   253.098958   190.250938

                             ****ORCA TERMINATED NORMALLY****
TOTAL RUN TIME: 0 days 0 hours 0 minutes 33 seconds 569 msec
