                         Program Version 4.2.1 -  RELEASE  -
|  1> ! wB97X-D3 SP def2-SVP
|  2> %pal
|  3> nprocs 16
|  4> end
|  5>
|  6> * xyz 0 1
|  7> S 	 -45.6052 	 51.569 	 103.901
|  8> C 	 -44.2315 	 52.5566 	 104.245
|  9> C 	 -43.1365 	 51.8327 	 104.659
| 10> C 	 -43.3902 	 50.426 	 104.648
| 11> C 	 -44.5914 	 50.0666 	 104.046
| 12> H 	 -42.666 	 49.6254 	 104.876
| 13> C 	 -41.8354 	 52.4873 	 105.227
| 14> H 	 -41.4785 	 51.6924 	 105.846
| 15> H 	 -42.1409 	 53.3662 	 105.786
| 16> C 	 -40.7719 	 52.9211 	 104.182
| 17> H 	 -41.1482 	 53.7846 	 103.612
| 18> H 	 -39.9241 	 53.2543 	 104.802
| 19> C 	 -40.3434 	 51.7575 	 103.334
| 20> H 	 -40.1727 	 50.884 	 104.019
| 21> H 	 -41.2145 	 51.5425 	 102.728
| 22> H 	 -39.6012 	 52.0676 	 102.587
| 23> S 	 -45.9535 	 48.7375 	 102.076
| 24> C 	 -45.9646 	 46.9435 	 102.151
| 25> C 	 -45.3508 	 46.4457 	 103.286
| 26> C 	 -44.8169 	 47.5096 	 104.156
| 27> C 	 -45.0477 	 48.7705 	 103.643
| 28> H 	 -45.1943 	 45.3424 	 103.39
| 29> C 	 -44.1514 	 47.0984 	 105.48
| 30> H 	 -43.9199 	 47.9593 	 106.131
| 31> H 	 -43.2163 	 46.5946 	 105.198
| 32> C 	 -44.9964 	 46.2434 	 106.41
| 33> H 	 -45.4985 	 45.4286 	 105.801
| 34> H 	 -45.8842 	 46.8486 	 106.793
| 35> C 	 -44.2011 	 45.7817 	 107.667
| 36> H 	 -44.7445 	 45.1952 	 108.422
| 37> H 	 -43.808 	 46.5976 	 108.215
| 38> H 	 -43.3619 	 45.1496 	 107.344
| 39> H 	 -44.1394 	 53.6182 	 104.133
| 40> H 	 -46.4045 	 46.2735 	 101.465
| 41> *
| 42>
| 43>                          ****END OF INPUT****

CARTESIAN COORDINATES (ANGSTROEM)
---------------------------------
  S    -45.605200   51.569000  103.901000
  C    -44.231500   52.556600  104.245000
  C    -43.136500   51.832700  104.659000
  C    -43.390200   50.426000  104.648000
  C    -44.591400   50.066600  104.046000
  H    -42.666000   49.625400  104.876000
  C    -41.835400   52.487300  105.227000
  H    -41.478500   51.692400  105.846000
  H    -42.140900   53.366200  105.786000
  C    -40.771900   52.921100  104.182000
  H    -41.148200   53.784600  103.612000
  H    -39.924100   53.254300  104.802000
  C    -40.343400   51.757500  103.334000
  H    -40.172700   50.884000  104.019000
  H    -41.214500   51.542500  102.728000
  H    -39.601200   52.067600  102.587000
  S    -45.953500   48.737500  102.076000
  C    -45.964600   46.943500  102.151000
  C    -45.350800   46.445700  103.286000
  C    -44.816900   47.509600  104.156000
  C    -45.047700   48.770500  103.643000
  H    -45.194300   45.342400  103.390000
  C    -44.151400   47.098400  105.480000
  H    -43.919900   47.959300  106.131000
  H    -43.216300   46.594600  105.198000
  C    -44.996400   46.243400  106.410000
  H    -45.498500   45.428600  105.801000
  H    -45.884200   46.848600  106.793000
  C    -44.201100   45.781700  107.667000
  H    -44.744500   45.195200  108.422000
  H    -43.808000   46.597600  108.215000
  H    -43.361900   45.149600  107.344000
  H    -44.139400   53.618200  104.133000
  H    -46.404500   46.273500  101.465000

 Total Charge           Charge          ....    0
 Multiplicity           Mult            ....    1
 Number of Electrons    NEL             ....  134
 Basis Dimension        Dim             ....  322

ORBITAL ENERGIES
----------------

  NO   OCC          E(Eh)            E(eV)
   0   2.0000     -88.967553     -2420.9302
   1   2.0000     -88.966313     -2420.8965
   2   2.0000     -10.333408      -281.1863
   3   2.0000     -10.333088      -281.1776
   4   2.0000     -10.321211      -280.8544
   5   2.0000     -10.313022      -280.6316
   6   2.0000     -10.309231      -280.5284
   7   2.0000     -10.303927      -280.3841
   8   2.0000     -10.299660      -280.2680
   9   2.0000     -10.298851      -280.2460
  10   2.0000     -10.298192      -280.2281
  11   2.0000     -10.298085      -280.2252
  12   2.0000     -10.292826      -280.0820
  13   2.0000     -10.286543      -279.9111
  14   2.0000     -10.281922      -279.7853
  15   2.0000     -10.276484      -279.6373
  16   2.0000      -8.080737      -219.8880
  17   2.0000      -8.080329      -219.8769
  18   2.0000      -6.039533      -164.3441
  19   2.0000      -6.038960      -164.3285
  20   2.0000      -6.035652      -164.2385
  21   2.0000      -6.035085      -164.2230
  22   2.0000      -6.031058      -164.1134
  23   2.0000      -6.030857      -164.1080
  24   2.0000      -0.999524       -27.1984
  25   2.0000      -0.975365       -26.5410
  26   2.0000      -0.910705       -24.7815
  27   2.0000      -0.907176       -24.6855
  28   2.0000      -0.871715       -23.7206
  29   2.0000      -0.848567       -23.0907
  30   2.0000      -0.840449       -22.8698
  31   2.0000      -0.813862       -22.1463
  32   2.0000      -0.782493       -21.2927
  33   2.0000      -0.771378       -20.9903
  34   2.0000      -0.708597       -19.2819
  35   2.0000      -0.698010       -18.9938
  36   2.0000      -0.692857       -18.8536
  37   2.0000      -0.660252       -17.9664
  38   2.0000      -0.635444       -17.2913
  39   2.0000      -0.611306       -16.6345
  40   2.0000      -0.594461       -16.1761
  41   2.0000      -0.574199       -15.6248
  42   2.0000      -0.563459       -15.3325
  43   2.0000      -0.552011       -15.0210
  44   2.0000      -0.539852       -14.6901
  45   2.0000      -0.518308       -14.1039
  46   2.0000      -0.515822       -14.0362
  47   2.0000      -0.511523       -13.9192
  48   2.0000      -0.507962       -13.8224
  49   2.0000      -0.501656       -13.6508
  50   2.0000      -0.482753       -13.1364
  51   2.0000      -0.475453       -12.9377
  52   2.0000      -0.473932       -12.8964
  53   2.0000      -0.461840       -12.5673
  54   2.0000      -0.456931       -12.4337
  55   2.0000      -0.453818       -12.3490
  56   2.0000      -0.441287       -12.0080
  57   2.0000      -0.437845       -11.9144
  58   2.0000      -0.432283       -11.7630
  59   2.0000      -0.427321       -11.6280
  60   2.0000      -0.422550       -11.4982
  61   2.0000      -0.411473       -11.1967
  62   2.0000      -0.407354       -11.0847
  63   2.0000      -0.355118        -9.6632
  64   2.0000      -0.331670        -9.0252
  65   2.0000      -0.329552        -8.9676
  66   2.0000      -0.285552        -7.7703
  67   0.0000       0.019342         0.5263
  68   0.0000       0.070265         1.9120
  69   0.0000       0.098744         2.6869
  70   0.0000       0.110867         3.0169
  71   0.0000       0.129835         3.5330

MULLIKEN ATOMIC CHARGES
-----------------------
   0 S :    0.106018
   1 C :   -0.098435
   2 C :   -0.128907
   3 C :    0.015132
   4 C :   -0.156776
   5 H :    0.025416
   6 C :    0.062759
   7 H :    0.018541
   8 H :    0.033741
   9 C :   -0.072454
  10 H :    0.031134
  11 H :    0.032411
  12 C :   -0.048638
  13 H :    0.038430
  14 H :    0.038232
  15 H :    0.042234
  16 S :    0.093837
  17 C :   -0.065870
  18 C :   -0.064569
  19 C :   -0.030992
  20 C :   -0.134863
  21 H :    0.048274
  22 C :    0.041580
  23 H :    0.031549
  24 H :    0.039891
  25 C :   -0.113270
  26 H :    0.035161
  27 H :    0.044835
  28 C :   -0.036811
  29 H :    0.039652
  30 H :    0.023930
  31 H :    0.029027
  32 H :    0.037210
  33 H :    0.042594
Sum of atomic charges:   -0.0000000

LOEWDIN ATOMIC CHARGES
----------------------
   0 S :    0.382414
   1 C :   -0.201236
   2 C :   -0.069579
   3 C :   -0.066998
   4 C :   -0.172553
   5 H :    0.033911
   6 C :   -0.023128
   7 H :    0.025015
   8 H :    0.031298
   9 C :   -0.042604
  10 H :    0.023438
  11 H :    0.023657
  12 C :   -0.071048
  13 H :    0.031905
  14 H :    0.027970
  15 H :    0.030417
  16 S :    0.361221
  17 C :   -0.161610
  18 C :   -0.073431
  19 C :   -0.049232
  20 C :   -0.178261
  21 H :    0.041533
  22 C :   -0.038482
  23 H :    0.033036
  24 H :    0.033418
  25 C :   -0.047851
  26 H :    0.023899
  27 H :    0.033501
  28 C :   -0.066524
  29 H :    0.030598
  30 H :    0.020669
  31 H :    0.025972
  32 H :    0.025994
  33 H :    0.022672

  Mayer bond orders larger than 0.100000
B(  0-S ,  1-C ) :   1.1326 B(  0-S ,  4-C ) :   1.1223 B(  1-C ,  2-C ) :   1.6344
B(  1-C , 32-H ) :   0.9638 B(  2-C ,  3-C ) :   1.2400 B(  2-C ,  6-C ) :   0.9929
B(  3-C ,  4-C ) :   1.5885 B(  3-C ,  5-H ) :   0.9795 B(  4-C , 20-C ) :   1.0924
B(  6-C ,  7-H ) :   0.9441 B(  6-C ,  8-H ) :   0.9464 B(  6-C ,  9-C ) :   1.0740
B(  9-C , 10-H ) :   0.9551 B(  9-C , 11-H ) :   0.9542 B(  9-C , 12-C ) :   1.0782
B( 12-C , 13-H ) :   0.9731 B( 12-C , 14-H ) :   0.9689 B( 12-C , 15-H ) :   0.9698
B( 16-S , 17-C ) :   1.1193 B( 16-S , 20-C ) :   1.0962 B( 17-C , 18-C ) :   1.6804
B( 17-C , 33-H ) :   0.9677 B( 18-C , 19-C ) :   1.1776 B( 18-C , 21-H ) :   0.9729
B( 19-C , 20-C ) :   1.6528 B( 19-C , 22-C ) :   1.0316 B( 22-C , 23-H ) :   0.9405
B( 22-C , 24-H ) :   0.9344 B( 22-C , 25-C ) :   1.0545 B( 25-C , 26-H ) :   0.9573
B( 25-C , 27-H ) :   0.9551 B( 25-C , 28-C ) :   1.0698 B( 28-C , 29-H ) :   0.9754
B( 28-C , 30-H ) :   0.9735 B( 28-C , 31-H ) :   0.9763

Dispersion correction           -0.013919149
FINAL SINGLE POINT ENERGY     -1339.874785005227

DIPOLE MOMENT
-------------
                                X             Y             Z
Electronic contribution:    -19.88283       5.85232     -14.99170
Nuclear contribution   :     20.42836      -6.13683      15.32582
                        -----------------------------------------
Total Dipole Moment    :      0.54553      -0.28451       0.33412
                        -----------------------------------------
Magnitude (a.u.)       :      0.70014
Magnitude (Debye)      :      1.77960

Rotational constants in cm-1:     0.017100     0.008370     0.006793
Rotational constants in MHz :   512.632006   250.929658   203.635772

                             ****ORCA TERMINATED NORMALLY****
TOTAL RUN TIME: 0 days 0 hours 0 minutes 29 seconds 500 msec
