                         Program Version 4.2.1 -  RELEASE  -
|  1> ! wB97X-D3 SP def2-SVP
|  2> %pal
|  3> nprocs 16
|  4> end
|  5>
|  6> * xyz 0 1
|  7> S 	 9.99936 	 -6.73182 	 63.8741
|  8> C 	 8.47775 	 -6.79209 	 64.7879
|  9> C 	 8.05743 	 -8.02656 	 65.1669
| 10> C 	 9.20446 	 -8.93883 	 64.9526
| 11> C 	 10.208 	 -8.42366 	 64.1947
| 12> H 	 9.28121 	 -9.94867 	 65.2901
| 13> C 	 6.75796 	 -8.31472 	 65.8521
| 14> H 	 6.78421 	 -9.39399 	 65.9147
| 15> H 	 5.93299 	 -7.86808 	 65.2604
| 16> C 	 6.65553 	 -7.70219 	 67.2485
| 17> H 	 7.51275 	 -7.91769 	 67.8682
| 18> H 	 6.52742 	 -6.59815 	 67.0639
| 19> C 	 5.49276 	 -8.24576 	 67.9751
| 20> H 	 5.48508 	 -7.99106 	 69.0457
| 21> H 	 4.60612 	 -8.05877 	 67.381
| 22> H 	 5.58164 	 -9.33068 	 67.9915
| 23> S 	 11.7128 	 -10.6027 	 64.6246
| 24> C 	 13.3704 	 -10.8641 	 64.061
| 25> C 	 13.6536 	 -9.76184 	 63.1995
| 26> C 	 12.6407 	 -8.7757 	 63.1095
| 27> C 	 11.4872 	 -9.0894 	 63.8343
| 28> H 	 14.5797 	 -9.78399 	 62.6097
| 29> C 	 12.8321 	 -7.59617 	 62.2318
| 30> H 	 13.8458 	 -7.15494 	 62.3917
| 31> H 	 12.0686 	 -6.8445 	 62.3848
| 32> C 	 12.712 	 -8.06588 	 60.7608
| 33> H 	 11.6933 	 -8.46232 	 60.5878
| 34> H 	 13.3485 	 -8.91612 	 60.6186
| 35> C 	 12.9318 	 -6.91733 	 59.7355
| 36> H 	 13.1146 	 -7.34513 	 58.7716
| 37> H 	 13.8049 	 -6.34096 	 60.031
| 38> H 	 12.049 	 -6.26828 	 59.6771
| 39> H 	 7.83392 	 -5.91748 	 64.8564
| 40> H 	 14.0636 	 -11.7231 	 64.1899
| 41> *
| 42>
| 43>                          ****END OF INPUT****

CARTESIAN COORDINATES (ANGSTROEM)
---------------------------------
  S      9.999360   -6.731820   63.874100
  C      8.477750   -6.792090   64.787900
  C      8.057430   -8.026560   65.166900
  C      9.204460   -8.938830   64.952600
  C     10.208000   -8.423660   64.194700
  H      9.281210   -9.948670   65.290100
  C      6.757960   -8.314720   65.852100
  H      6.784210   -9.393990   65.914700
  H      5.932990   -7.868080   65.260400
  C      6.655530   -7.702190   67.248500
  H      7.512750   -7.917690   67.868200
  H      6.527420   -6.598150   67.063900
  C      5.492760   -8.245760   67.975100
  H      5.485080   -7.991060   69.045700
  H      4.606120   -8.058770   67.381000
  H      5.581640   -9.330680   67.991500
  S     11.712800  -10.602700   64.624600
  C     13.370400  -10.864100   64.061000
  C     13.653600   -9.761840   63.199500
  C     12.640700   -8.775700   63.109500
  C     11.487200   -9.089400   63.834300
  H     14.579700   -9.783990   62.609700
  C     12.832100   -7.596170   62.231800
  H     13.845800   -7.154940   62.391700
  H     12.068600   -6.844500   62.384800
  C     12.712000   -8.065880   60.760800
  H     11.693300   -8.462320   60.587800
  H     13.348500   -8.916120   60.618600
  C     12.931800   -6.917330   59.735500
  H     13.114600   -7.345130   58.771600
  H     13.804900   -6.340960   60.031000
  H     12.049000   -6.268280   59.677100
  H      7.833920   -5.917480   64.856400
  H     14.063600  -11.723100   64.189900

 Total Charge           Charge          ....    0
 Multiplicity           Mult            ....    1
 Number of Electrons    NEL             ....  134
 Basis Dimension        Dim             ....  322

ORBITAL ENERGIES
----------------

  NO   OCC          E(Eh)            E(eV)
   0   2.0000     -88.965691     -2420.8795
   1   2.0000     -88.964132     -2420.8371
   2   2.0000     -10.331627      -281.1379
   3   2.0000     -10.329888      -281.0905
   4   2.0000     -10.326332      -280.9938
   5   2.0000     -10.310578      -280.5651
   6   2.0000     -10.303564      -280.3742
   7   2.0000     -10.302003      -280.3318
   8   2.0000     -10.298076      -280.2249
   9   2.0000     -10.296547      -280.1833
  10   2.0000     -10.294779      -280.1352
  11   2.0000     -10.290221      -280.0111
  12   2.0000     -10.285770      -279.8900
  13   2.0000     -10.283489      -279.8280
  14   2.0000     -10.275469      -279.6097
  15   2.0000     -10.275232      -279.6033
  16   2.0000      -8.080154      -219.8722
  17   2.0000      -8.078699      -219.8326
  18   2.0000      -6.038776      -164.3235
  19   2.0000      -6.037339      -164.2844
  20   2.0000      -6.034980      -164.2201
  21   2.0000      -6.033039      -164.1673
  22   2.0000      -6.030549      -164.0996
  23   2.0000      -6.029527      -164.0718
  24   2.0000      -1.008422       -27.4406
  25   2.0000      -0.983850       -26.7719
  26   2.0000      -0.924682       -25.1619
  27   2.0000      -0.910358       -24.7721
  28   2.0000      -0.871951       -23.7270
  29   2.0000      -0.854651       -23.2562
  30   2.0000      -0.842331       -22.9210
  31   2.0000      -0.813171       -22.1275
  32   2.0000      -0.782448       -21.2915
  33   2.0000      -0.769986       -20.9524
  34   2.0000      -0.702234       -19.1087
  35   2.0000      -0.697886       -18.9904
  36   2.0000      -0.692797       -18.8520
  37   2.0000      -0.668572       -18.1928
  38   2.0000      -0.635478       -17.2922
  39   2.0000      -0.619861       -16.8673
  40   2.0000      -0.595975       -16.2173
  41   2.0000      -0.579586       -15.7713
  42   2.0000      -0.569002       -15.4833
  43   2.0000      -0.561094       -15.2681
  44   2.0000      -0.535384       -14.5685
  45   2.0000      -0.521253       -14.1840
  46   2.0000      -0.518839       -14.1183
  47   2.0000      -0.514233       -13.9930
  48   2.0000      -0.505588       -13.7578
  49   2.0000      -0.503911       -13.7121
  50   2.0000      -0.492376       -13.3982
  51   2.0000      -0.477712       -12.9992
  52   2.0000      -0.468898       -12.7594
  53   2.0000      -0.466147       -12.6845
  54   2.0000      -0.460792       -12.5388
  55   2.0000      -0.452246       -12.3062
  56   2.0000      -0.443447       -12.0668
  57   2.0000      -0.438117       -11.9218
  58   2.0000      -0.433548       -11.7974
  59   2.0000      -0.426697       -11.6110
  60   2.0000      -0.420422       -11.4403
  61   2.0000      -0.418495       -11.3878
  62   2.0000      -0.406601       -11.0642
  63   2.0000      -0.359348        -9.7784
  64   2.0000      -0.331787        -9.0284
  65   2.0000      -0.324416        -8.8278
  66   2.0000      -0.283713        -7.7202
  67   0.0000       0.023160         0.6302
  68   0.0000       0.079938         2.1752
  69   0.0000       0.106246         2.8911
  70   0.0000       0.123845         3.3700
  71   0.0000       0.129760         3.5309

MULLIKEN ATOMIC CHARGES
-----------------------
   0 S :    0.080264
   1 C :   -0.120577
   2 C :   -0.067128
   3 C :   -0.040950
   4 C :   -0.066747
   5 H :    0.015396
   6 C :    0.063485
   7 H :    0.019179
   8 H :    0.045342
   9 C :   -0.087869
  10 H :    0.031891
  11 H :    0.034958
  12 C :   -0.011505
  13 H :    0.043450
  14 H :    0.020308
  15 H :    0.012669
  16 S :    0.063620
  17 C :   -0.095896
  18 C :   -0.068453
  19 C :   -0.061114
  20 C :   -0.101597
  21 H :    0.029864
  22 C :    0.053948
  23 H :    0.037018
  24 H :    0.022403
  25 C :   -0.103777
  26 H :    0.030739
  27 H :    0.018800
  28 C :   -0.012861
  29 H :    0.029267
  30 H :    0.025121
  31 H :    0.040639
  32 H :    0.043402
  33 H :    0.076711
Sum of atomic charges:    0.0000000

LOEWDIN ATOMIC CHARGES
----------------------
   0 S :    0.396946
   1 C :   -0.182947
   2 C :   -0.053992
   3 C :   -0.072873
   4 C :   -0.187275
   5 H :    0.017637
   6 C :   -0.029978
   7 H :    0.029696
   8 H :    0.041626
   9 C :   -0.041279
  10 H :    0.024970
  11 H :    0.027427
  12 C :   -0.066603
  13 H :    0.031660
  14 H :    0.023531
  15 H :    0.023123
  16 S :    0.421580
  17 C :   -0.196422
  18 C :   -0.072782
  19 C :   -0.069998
  20 C :   -0.197011
  21 H :    0.032467
  22 C :   -0.035378
  23 H :    0.035834
  24 H :    0.012997
  25 C :   -0.036164
  26 H :    0.028460
  27 H :    0.015677
  28 C :   -0.062121
  29 H :    0.023874
  30 H :    0.022519
  31 H :    0.028849
  32 H :    0.022074
  33 H :    0.043874

  Mayer bond orders larger than 0.100000
B(  0-S ,  1-C ) :   1.1167 B(  0-S ,  4-C ) :   1.1188 B(  1-C ,  2-C ) :   1.6652
B(  1-C , 32-H ) :   0.9612 B(  2-C ,  3-C ) :   1.1844 B(  2-C ,  6-C ) :   1.0340
B(  3-C ,  4-C ) :   1.6375 B(  3-C ,  5-H ) :   0.9730 B(  4-C , 20-C ) :   1.0550
B(  6-C ,  7-H ) :   0.9359 B(  6-C ,  8-H ) :   0.9288 B(  6-C ,  9-C ) :   1.0787
B(  9-C , 10-H ) :   0.9559 B(  9-C , 11-H ) :   0.9483 B(  9-C , 12-C ) :   1.0977
B( 12-C , 13-H ) :   0.9706 B( 12-C , 14-H ) :   0.9667 B( 12-C , 15-H ) :   0.9695
B( 16-S , 17-C ) :   1.1585 B( 16-S , 20-C ) :   1.1525 B( 17-C , 18-C ) :   1.5738
B( 17-C , 20-C ) :   0.1048 B( 17-C , 33-H ) :   0.9662 B( 18-C , 19-C ) :   1.2767
B( 18-C , 21-H ) :   0.9814 B( 19-C , 20-C ) :   1.5449 B( 19-C , 22-C ) :   1.0561
B( 22-C , 23-H ) :   0.9254 B( 22-C , 24-H ) :   0.9362 B( 22-C , 25-C ) :   1.0570
B( 25-C , 26-H ) :   0.9521 B( 25-C , 27-H ) :   0.9628 B( 25-C , 28-C ) :   1.0749
B( 28-C , 29-H ) :   0.9741 B( 28-C , 30-H ) :   0.9746 B( 28-C , 31-H ) :   0.9763

Dispersion correction           -0.013314875
FINAL SINGLE POINT ENERGY     -1339.877288145582

DIPOLE MOMENT
-------------
                                X             Y             Z
Electronic contribution:      8.85324      -5.77197       2.00646
Nuclear contribution   :     -8.99837       5.74262      -2.04244
                        -----------------------------------------
Total Dipole Moment    :     -0.14514      -0.02934      -0.03598
                        -----------------------------------------
Magnitude (a.u.)       :      0.15238
Magnitude (Debye)      :      0.38733

Rotational constants in cm-1:     0.024667     0.007103     0.005741
Rotational constants in MHz :   739.494793   212.938413   172.107384

                             ****ORCA TERMINATED NORMALLY****
TOTAL RUN TIME: 0 days 0 hours 0 minutes 34 seconds 839 msec
