                         Program Version 4.2.1 -  RELEASE  -
|  1> ! wB97X-D3 SP def2-SVP
|  2> %pal
|  3> nprocs 16
|  4> end
|  5>
|  6> * xyz 0 1
|  7> S 	 -56.5877 	 27.1023 	 95.2355
|  8> C 	 -55.4006 	 25.7981 	 95.4153
|  9> C 	 -55.434 	 24.9706 	 94.3299
| 10> C 	 -56.4533 	 25.3305 	 93.4494
| 11> C 	 -57.1389 	 26.4856 	 93.7179
| 12> H 	 -56.7086 	 24.7369 	 92.6345
| 13> C 	 -54.469 	 23.8147 	 94.0464
| 14> H 	 -54.9914 	 22.8301 	 93.9285
| 15> H 	 -53.9599 	 23.6787 	 94.9787
| 16> C 	 -53.5823 	 24.1059 	 92.8239
| 17> H 	 -54.2651 	 24.5207 	 92.1152
| 18> H 	 -52.8622 	 24.9047 	 93.1137
| 19> C 	 -52.9152 	 22.832 	 92.2762
| 20> H 	 -53.6798 	 22.0998 	 91.8601
| 21> H 	 -52.1513 	 23.0961 	 91.5346
| 22> H 	 -52.208 	 22.2451 	 92.9761
| 23> S 	 -59.7027 	 27.6064 	 93.5552
| 24> C 	 -60.0979 	 28.4534 	 92.1296
| 25> C 	 -59.3036 	 28.1032 	 91.082
| 26> C 	 -58.142 	 27.3679 	 91.4436
| 27> C 	 -58.1509 	 27.1043 	 92.8535
| 28> H 	 -59.5841 	 28.5853 	 90.1858
| 29> C 	 -57.0909 	 26.977 	 90.4508
| 30> H 	 -57.6451 	 26.664 	 89.5814
| 31> H 	 -56.4673 	 26.1216 	 90.709
| 32> C 	 -56.0446 	 28.0344 	 90.1069
| 33> H 	 -56.5369 	 28.8196 	 89.5683
| 34> H 	 -55.272 	 27.6937 	 89.3786
| 35> C 	 -55.4078 	 28.6778 	 91.3132
| 36> H 	 -54.3633 	 29.096 	 91.1147
| 37> H 	 -55.3363 	 27.9328 	 92.1316
| 38> H 	 -56.1066 	 29.5077 	 91.6323
| 39> H 	 -54.7884 	 25.5917 	 96.2991
| 40> H 	 -60.8922 	 29.1361 	 91.9538
| 41> *
| 42>
| 43>                          ****END OF INPUT****

CARTESIAN COORDINATES (ANGSTROEM)
---------------------------------
  S    -56.587700   27.102300   95.235500
  C    -55.400600   25.798100   95.415300
  C    -55.434000   24.970600   94.329900
  C    -56.453300   25.330500   93.449400
  C    -57.138900   26.485600   93.717900
  H    -56.708600   24.736900   92.634500
  C    -54.469000   23.814700   94.046400
  H    -54.991400   22.830100   93.928500
  H    -53.959900   23.678700   94.978700
  C    -53.582300   24.105900   92.823900
  H    -54.265100   24.520700   92.115200
  H    -52.862200   24.904700   93.113700
  C    -52.915200   22.832000   92.276200
  H    -53.679800   22.099800   91.860100
  H    -52.151300   23.096100   91.534600
  H    -52.208000   22.245100   92.976100
  S    -59.702700   27.606400   93.555200
  C    -60.097900   28.453400   92.129600
  C    -59.303600   28.103200   91.082000
  C    -58.142000   27.367900   91.443600
  C    -58.150900   27.104300   92.853500
  H    -59.584100   28.585300   90.185800
  C    -57.090900   26.977000   90.450800
  H    -57.645100   26.664000   89.581400
  H    -56.467300   26.121600   90.709000
  C    -56.044600   28.034400   90.106900
  H    -56.536900   28.819600   89.568300
  H    -55.272000   27.693700   89.378600
  C    -55.407800   28.677800   91.313200
  H    -54.363300   29.096000   91.114700
  H    -55.336300   27.932800   92.131600
  H    -56.106600   29.507700   91.632300
  H    -54.788400   25.591700   96.299100
  H    -60.892200   29.136100   91.953800

 Total Charge           Charge          ....    0
 Multiplicity           Mult            ....    1
 Number of Electrons    NEL             ....  134
 Basis Dimension        Dim             ....  322

ORBITAL ENERGIES
----------------

  NO   OCC          E(Eh)            E(eV)
   0   2.0000     -88.967020     -2420.9157
   1   2.0000     -88.966266     -2420.8952
   2   2.0000     -10.333247      -281.1819
   3   2.0000     -10.327290      -281.0198
   4   2.0000     -10.315479      -280.6984
   5   2.0000     -10.311707      -280.5958
   6   2.0000     -10.309274      -280.5296
   7   2.0000     -10.294669      -280.1322
   8   2.0000     -10.293459      -280.0993
   9   2.0000     -10.293285      -280.0945
  10   2.0000     -10.292277      -280.0671
  11   2.0000     -10.289063      -279.9796
  12   2.0000     -10.287538      -279.9381
  13   2.0000     -10.281386      -279.7707
  14   2.0000     -10.279625      -279.7228
  15   2.0000     -10.277582      -279.6672
  16   2.0000      -8.082099      -219.9251
  17   2.0000      -8.080848      -219.8910
  18   2.0000      -6.040436      -164.3686
  19   2.0000      -6.039347      -164.3390
  20   2.0000      -6.036629      -164.2650
  21   2.0000      -6.035304      -164.2290
  22   2.0000      -6.032952      -164.1650
  23   2.0000      -6.031673      -164.1302
  24   2.0000      -1.009255       -27.4632
  25   2.0000      -0.990028       -26.9400
  26   2.0000      -0.913683       -24.8626
  27   2.0000      -0.912189       -24.8219
  28   2.0000      -0.869797       -23.6684
  29   2.0000      -0.849427       -23.1141
  30   2.0000      -0.845012       -22.9939
  31   2.0000      -0.815968       -22.2036
  32   2.0000      -0.783507       -21.3203
  33   2.0000      -0.772166       -21.0117
  34   2.0000      -0.711815       -19.3695
  35   2.0000      -0.697262       -18.9735
  36   2.0000      -0.688341       -18.7307
  37   2.0000      -0.654046       -17.7975
  38   2.0000      -0.640781       -17.4365
  39   2.0000      -0.629841       -17.1388
  40   2.0000      -0.599922       -16.3247
  41   2.0000      -0.573596       -15.6084
  42   2.0000      -0.562266       -15.3000
  43   2.0000      -0.553669       -15.0661
  44   2.0000      -0.543359       -14.7856
  45   2.0000      -0.520450       -14.1622
  46   2.0000      -0.516051       -14.0424
  47   2.0000      -0.506087       -13.7713
  48   2.0000      -0.501311       -13.6414
  49   2.0000      -0.498209       -13.5570
  50   2.0000      -0.494865       -13.4660
  51   2.0000      -0.474233       -12.9045
  52   2.0000      -0.472309       -12.8522
  53   2.0000      -0.465814       -12.6755
  54   2.0000      -0.460858       -12.5406
  55   2.0000      -0.451382       -12.2827
  56   2.0000      -0.444652       -12.0996
  57   2.0000      -0.436437       -11.8761
  58   2.0000      -0.430540       -11.7156
  59   2.0000      -0.423672       -11.5287
  60   2.0000      -0.418154       -11.3785
  61   2.0000      -0.416333       -11.3290
  62   2.0000      -0.405718       -11.0402
  63   2.0000      -0.343118        -9.3367
  64   2.0000      -0.334642        -9.1061
  65   2.0000      -0.331551        -9.0220
  66   2.0000      -0.291733        -7.9385
  67   0.0000       0.023110         0.6289
  68   0.0000       0.077749         2.1156
  69   0.0000       0.107107         2.9145
  70   0.0000       0.120693         3.2842
  71   0.0000       0.132854         3.6151

MULLIKEN ATOMIC CHARGES
-----------------------
   0 S :    0.115052
   1 C :   -0.138725
   2 C :   -0.090253
   3 C :    0.027225
   4 C :   -0.136357
   5 H :   -0.012698
   6 C :    0.079587
   7 H :    0.032524
   8 H :    0.002516
   9 C :   -0.050288
  10 H :    0.025901
  11 H :    0.041593
  12 C :   -0.087823
  13 H :    0.051139
  14 H :    0.035750
  15 H :    0.039083
  16 S :    0.122863
  17 C :   -0.077318
  18 C :   -0.040516
  19 C :   -0.006313
  20 C :   -0.179076
  21 H :    0.003293
  22 C :    0.080517
  23 H :    0.024819
  24 H :    0.018975
  25 C :   -0.070325
  26 H :    0.011127
  27 H :    0.031772
  28 C :   -0.084500
  29 H :    0.045469
  30 H :    0.041923
  31 H :    0.049822
  32 H :    0.052308
  33 H :    0.040935
Sum of atomic charges:    0.0000000

LOEWDIN ATOMIC CHARGES
----------------------
   0 S :    0.408615
   1 C :   -0.191358
   2 C :   -0.068271
   3 C :   -0.061857
   4 C :   -0.205214
   5 H :    0.018364
   6 C :   -0.029469
   7 H :    0.033667
   8 H :    0.021878
   9 C :   -0.038978
  10 H :    0.021525
  11 H :    0.033624
  12 C :   -0.082826
  13 H :    0.033819
  14 H :    0.027298
  15 H :    0.033661
  16 S :    0.415601
  17 C :   -0.190457
  18 C :   -0.072788
  19 C :   -0.043012
  20 C :   -0.191312
  21 H :    0.026752
  22 C :   -0.034696
  23 H :    0.034166
  24 H :    0.028757
  25 C :   -0.047824
  26 H :    0.014974
  27 H :    0.026503
  28 C :   -0.075008
  29 H :    0.033325
  30 H :    0.025686
  31 H :    0.035085
  32 H :    0.033611
  33 H :    0.026159

  Mayer bond orders larger than 0.100000
B(  0-S ,  1-C ) :   1.1380 B(  0-S ,  4-C ) :   1.1498 B(  1-C ,  2-C ) :   1.6126
B(  1-C , 32-H ) :   0.9624 B(  2-C ,  3-C ) :   1.2598 B(  2-C ,  6-C ) :   1.0184
B(  3-C ,  4-C ) :   1.5489 B(  3-C ,  5-H ) :   1.0059 B(  4-C , 20-C ) :   1.0583
B(  6-C ,  7-H ) :   0.9448 B(  6-C ,  8-H ) :   0.9334 B(  6-C ,  9-C ) :   1.0473
B(  9-C , 10-H ) :   0.9607 B(  9-C , 11-H ) :   0.9512 B(  9-C , 12-C ) :   1.0777
B( 12-C , 13-H ) :   0.9726 B( 12-C , 14-H ) :   0.9730 B( 12-C , 15-H ) :   0.9735
B( 16-S , 17-C ) :   1.1583 B( 16-S , 20-C ) :   1.1538 B( 17-C , 18-C ) :   1.6279
B( 17-C , 33-H ) :   0.9663 B( 18-C , 19-C ) :   1.2321 B( 18-C , 21-H ) :   0.9949
B( 19-C , 20-C ) :   1.5450 B( 19-C , 22-C ) :   1.0443 B( 22-C , 23-H ) :   0.9283
B( 22-C , 24-H ) :   0.9366 B( 22-C , 25-C ) :   1.0752 B( 25-C , 26-H ) :   0.9572
B( 25-C , 27-H ) :   0.9584 B( 25-C , 28-C ) :   1.0661 B( 28-C , 29-H ) :   0.9729
B( 28-C , 30-H ) :   0.9790 B( 28-C , 31-H ) :   0.9708

Dispersion correction           -0.015617893
FINAL SINGLE POINT ENERGY     -1339.873542315817

DIPOLE MOMENT
-------------
                                X             Y             Z
Electronic contribution:    -22.44857       9.58909      16.20787
Nuclear contribution   :     22.77588      -9.83164     -16.72967
                        -----------------------------------------
Total Dipole Moment    :      0.32731      -0.24255      -0.52180
                        -----------------------------------------
Magnitude (a.u.)       :      0.66200
Magnitude (Debye)      :      1.68266

Rotational constants in cm-1:     0.020050     0.009233     0.007380
Rotational constants in MHz :   601.088990   276.793685   221.235097

                             ****ORCA TERMINATED NORMALLY****
TOTAL RUN TIME: 0 days 0 hours 0 minutes 31 seconds 894 msec
