                         Program Version 4.2.1 -  RELEASE  -
|  1> ! wB97X-D3 SP def2-SVP
|  2> %pal
|  3> nprocs 16
|  4> end
|  5>
|  6> * xyz 0 1
|  7> S 	 33.8868 	 16.7585 	 48.6612
|  8> C 	 33.8119 	 17.8084 	 50.0765
|  9> C 	 33.9474 	 17.1313 	 51.2424
| 10> C 	 33.9745 	 15.6938 	 51.0512
| 11> C 	 33.9246 	 15.3073 	 49.7014
| 12> H 	 33.994 	 15.1075 	 51.9385
| 13> C 	 34.0118 	 17.7345 	 52.6224
| 14> H 	 33.1236 	 17.3237 	 53.0805
| 15> H 	 33.962 	 18.8035 	 52.5194
| 16> C 	 35.2559 	 17.2132 	 53.3743
| 17> H 	 35.1088 	 16.1337 	 53.4596
| 18> H 	 36.0746 	 17.4747 	 52.7297
| 19> C 	 35.4997 	 17.9221 	 54.711
| 20> H 	 34.7704 	 17.8109 	 55.5276
| 21> H 	 36.4006 	 17.5879 	 55.1464
| 22> H 	 35.5377 	 19.0151 	 54.6067
| 23> S 	 32.8841 	 13.6466 	 47.6807
| 24> C 	 33.3392 	 11.961 	 47.6127
| 25> C 	 34.2128 	 11.6745 	 48.6668
| 26> C 	 34.4479 	 12.7762 	 49.5494
| 27> C 	 33.8353 	 13.9603 	 49.1184
| 28> H 	 34.6078 	 10.7109 	 48.8654
| 29> C 	 35.3986 	 12.6415 	 50.7554
| 30> H 	 35.4072 	 11.603 	 51.0598
| 31> H 	 35.0862 	 13.1827 	 51.6833
| 32> C 	 36.8755 	 13.1546 	 50.5553
| 33> H 	 37.2345 	 13.1192 	 49.4704
| 34> H 	 37.5734 	 12.5387 	 51.1547
| 35> C 	 37.0793 	 14.6222 	 51.0365
| 36> H 	 38.1458 	 14.8201 	 50.8992
| 37> H 	 36.9499 	 14.7833 	 52.1041
| 38> H 	 36.5808 	 15.3999 	 50.4866
| 39> H 	 33.6229 	 18.8271 	 49.9565
| 40> H 	 33.0345 	 11.2093 	 46.8798
| 41> *
| 42>
| 43>                          ****END OF INPUT****

CARTESIAN COORDINATES (ANGSTROEM)
---------------------------------
  S     33.886800   16.758500   48.661200
  C     33.811900   17.808400   50.076500
  C     33.947400   17.131300   51.242400
  C     33.974500   15.693800   51.051200
  C     33.924600   15.307300   49.701400
  H     33.994000   15.107500   51.938500
  C     34.011800   17.734500   52.622400
  H     33.123600   17.323700   53.080500
  H     33.962000   18.803500   52.519400
  C     35.255900   17.213200   53.374300
  H     35.108800   16.133700   53.459600
  H     36.074600   17.474700   52.729700
  C     35.499700   17.922100   54.711000
  H     34.770400   17.810900   55.527600
  H     36.400600   17.587900   55.146400
  H     35.537700   19.015100   54.606700
  S     32.884100   13.646600   47.680700
  C     33.339200   11.961000   47.612700
  C     34.212800   11.674500   48.666800
  C     34.447900   12.776200   49.549400
  C     33.835300   13.960300   49.118400
  H     34.607800   10.710900   48.865400
  C     35.398600   12.641500   50.755400
  H     35.407200   11.603000   51.059800
  H     35.086200   13.182700   51.683300
  C     36.875500   13.154600   50.555300
  H     37.234500   13.119200   49.470400
  H     37.573400   12.538700   51.154700
  C     37.079300   14.622200   51.036500
  H     38.145800   14.820100   50.899200
  H     36.949900   14.783300   52.104100
  H     36.580800   15.399900   50.486600
  H     33.622900   18.827100   49.956500
  H     33.034500   11.209300   46.879800

 Total Charge           Charge          ....    0
 Multiplicity           Mult            ....    1
 Number of Electrons    NEL             ....  134
 Basis Dimension        Dim             ....  322

ORBITAL ENERGIES
----------------

  NO   OCC          E(Eh)            E(eV)
   0   2.0000     -88.969945     -2420.9953
   1   2.0000     -88.964381     -2420.8439
   2   2.0000     -10.339259      -281.3455
   3   2.0000     -10.330504      -281.1073
   4   2.0000     -10.322750      -280.8963
   5   2.0000     -10.307213      -280.4735
   6   2.0000     -10.306163      -280.4449
   7   2.0000     -10.296993      -280.1954
   8   2.0000     -10.296973      -280.1949
   9   2.0000     -10.296315      -280.1770
  10   2.0000     -10.295164      -280.1456
  11   2.0000     -10.294699      -280.1330
  12   2.0000     -10.291554      -280.0474
  13   2.0000     -10.289738      -279.9980
  14   2.0000     -10.279089      -279.7082
  15   2.0000     -10.268776      -279.4276
  16   2.0000      -8.084201      -219.9823
  17   2.0000      -8.078485      -219.8267
  18   2.0000      -6.042759      -164.4318
  19   2.0000      -6.038623      -164.3193
  20   2.0000      -6.037173      -164.2798
  21   2.0000      -6.035082      -164.2229
  22   2.0000      -6.033146      -164.1703
  23   2.0000      -6.029046      -164.0587
  24   2.0000      -1.001679       -27.2571
  25   2.0000      -0.981088       -26.6968
  26   2.0000      -0.915301       -24.9066
  27   2.0000      -0.897219       -24.4146
  28   2.0000      -0.867838       -23.6151
  29   2.0000      -0.846812       -23.0429
  30   2.0000      -0.843876       -22.9630
  31   2.0000      -0.814200       -22.1555
  32   2.0000      -0.782280       -21.2869
  33   2.0000      -0.772427       -21.0188
  34   2.0000      -0.714248       -19.4357
  35   2.0000      -0.697315       -18.9749
  36   2.0000      -0.688097       -18.7241
  37   2.0000      -0.663179       -18.0460
  38   2.0000      -0.639960       -17.4142
  39   2.0000      -0.628649       -17.1064
  40   2.0000      -0.595532       -16.2052
  41   2.0000      -0.574976       -15.6459
  42   2.0000      -0.561946       -15.2913
  43   2.0000      -0.547450       -14.8969
  44   2.0000      -0.532979       -14.5031
  45   2.0000      -0.522628       -14.2214
  46   2.0000      -0.515477       -14.0268
  47   2.0000      -0.510410       -13.8890
  48   2.0000      -0.507433       -13.8080
  49   2.0000      -0.499418       -13.5899
  50   2.0000      -0.487528       -13.2663
  51   2.0000      -0.480892       -13.0857
  52   2.0000      -0.472200       -12.8492
  53   2.0000      -0.467890       -12.7319
  54   2.0000      -0.458432       -12.4746
  55   2.0000      -0.453490       -12.3401
  56   2.0000      -0.438971       -11.9450
  57   2.0000      -0.434637       -11.8271
  58   2.0000      -0.429291       -11.6816
  59   2.0000      -0.422558       -11.4984
  60   2.0000      -0.421307       -11.4644
  61   2.0000      -0.418958       -11.4004
  62   2.0000      -0.413184       -11.2433
  63   2.0000      -0.353373        -9.6158
  64   2.0000      -0.332434        -9.0460
  65   2.0000      -0.327049        -8.8995
  66   2.0000      -0.285662        -7.7732
  67   0.0000       0.020695         0.5632
  68   0.0000       0.080278         2.1845
  69   0.0000       0.106716         2.9039
  70   0.0000       0.119929         3.2634
  71   0.0000       0.129387         3.5208

MULLIKEN ATOMIC CHARGES
-----------------------
   0 S :    0.088174
   1 C :   -0.124699
   2 C :   -0.099199
   3 C :    0.025751
   4 C :   -0.130509
   5 H :   -0.003046
   6 C :    0.105804
   7 H :    0.032444
   8 H :    0.012500
   9 C :   -0.099735
  10 H :    0.039053
  11 H :    0.040061
  12 C :   -0.021608
  13 H :    0.024175
  14 H :    0.023956
  15 H :    0.026988
  16 S :    0.118496
  17 C :   -0.096941
  18 C :   -0.016448
  19 C :   -0.039057
  20 C :   -0.132501
  21 H :    0.004263
  22 C :    0.065504
  23 H :    0.015177
  24 H :    0.021461
  25 C :   -0.089122
  26 H :    0.049046
  27 H :    0.031607
  28 C :   -0.061020
  29 H :    0.018435
  30 H :    0.020785
  31 H :    0.056807
  32 H :    0.024471
  33 H :    0.068927
Sum of atomic charges:   -0.0000000

LOEWDIN ATOMIC CHARGES
----------------------
   0 S :    0.375463
   1 C :   -0.185260
   2 C :   -0.060435
   3 C :   -0.055874
   4 C :   -0.170685
   5 H :    0.020697
   6 C :   -0.023360
   7 H :    0.032233
   8 H :    0.025118
   9 C :   -0.033063
  10 H :    0.023557
  11 H :    0.028412
  12 C :   -0.067378
  13 H :    0.025834
  14 H :    0.020741
  15 H :    0.028131
  16 S :    0.416264
  17 C :   -0.192174
  18 C :   -0.065460
  19 C :   -0.054804
  20 C :   -0.203702
  21 H :    0.024557
  22 C :   -0.037105
  23 H :    0.027080
  24 H :    0.032320
  25 C :   -0.039156
  26 H :    0.033816
  27 H :    0.025614
  28 C :   -0.072815
  29 H :    0.025712
  30 H :    0.018625
  31 H :    0.024569
  32 H :    0.014689
  33 H :    0.037840

  Mayer bond orders larger than 0.100000
B(  0-S ,  1-C ) :   1.1120 B(  0-S ,  4-C ) :   1.1403 B(  1-C ,  2-C ) :   1.6386
B(  1-C , 32-H ) :   0.9759 B(  2-C ,  3-C ) :   1.2306 B(  2-C ,  6-C ) :   1.0224
B(  3-C ,  4-C ) :   1.5597 B(  3-C ,  5-H ) :   0.9949 B(  4-C , 20-C ) :   1.0700
B(  6-C ,  7-H ) :   0.9306 B(  6-C ,  8-H ) :   0.9425 B(  6-C ,  9-C ) :   1.0619
B(  9-C , 10-H ) :   0.9480 B(  9-C , 11-H ) :   0.9572 B(  9-C , 12-C ) :   1.0899
B( 12-C , 13-H ) :   0.9732 B( 12-C , 14-H ) :   0.9740 B( 12-C , 15-H ) :   0.9721
B( 16-S , 17-C ) :   1.1595 B( 16-S , 20-C ) :   1.1472 B( 17-C , 18-C ) :   1.5695
B( 17-C , 20-C ) :   0.1020 B( 17-C , 33-H ) :   0.9682 B( 18-C , 19-C ) :   1.2875
B( 18-C , 21-H ) :   0.9903 B( 19-C , 20-C ) :   1.5498 B( 19-C , 22-C ) :   1.0459
B( 22-C , 23-H ) :   0.9340 B( 22-C , 24-H ) :   0.9432 B( 22-C , 25-C ) :   1.0434
B( 25-C , 26-H ) :   0.9607 B( 25-C , 27-H ) :   0.9569 B( 25-C , 28-C ) :   1.0871
B( 28-C , 29-H ) :   0.9678 B( 28-C , 30-H ) :   0.9702 B( 28-C , 31-H ) :   0.9733

Dispersion correction           -0.016018297
FINAL SINGLE POINT ENERGY     -1339.885876538238

DIPOLE MOMENT
-------------
                                X             Y             Z
Electronic contribution:    -16.58180      -4.29451     -26.67031
Nuclear contribution   :     16.87081       4.18251      27.33417
                        -----------------------------------------
Total Dipole Moment    :      0.28901      -0.11200       0.66386
                        -----------------------------------------
Magnitude (a.u.)       :      0.73265
Magnitude (Debye)      :      1.86226

Rotational constants in cm-1:     0.021781     0.009097     0.007120
Rotational constants in MHz :   652.984082   272.728510   213.437640

                             ****ORCA TERMINATED NORMALLY****
TOTAL RUN TIME: 0 days 0 hours 0 minutes 38 seconds 161 msec
