                         Program Version 4.2.1 -  RELEASE  -
|  1> ! wB97X-D3 SP def2-SVP
|  2> %pal
|  3> nprocs 16
|  4> end
|  5>
|  6> * xyz 0 1
|  7> S 	 -32.7138 	 70.7883 	 147.416
|  8> C 	 -31.1404 	 70.6456 	 146.7
|  9> C 	 -30.5935 	 69.385 	 146.82
| 10> C 	 -31.3747 	 68.5724 	 147.77
| 11> C 	 -32.55 	 69.1743 	 148.1
| 12> H 	 -31.1444 	 67.5787 	 148.22
| 13> C 	 -29.371 	 68.8719 	 146.105
| 14> H 	 -29.0871 	 67.8681 	 146.299
| 15> H 	 -28.5229 	 69.477 	 146.419
| 16> C 	 -29.47 	 68.841 	 144.535
| 17> H 	 -29.3542 	 69.8368 	 144.037
| 18> H 	 -28.6141 	 68.2242 	 144.175
| 19> C 	 -30.7538 	 68.205 	 143.983
| 20> H 	 -30.8921 	 67.1868 	 144.369
| 21> H 	 -31.6842 	 68.668 	 144.405
| 22> H 	 -30.8967 	 68.1834 	 142.936
| 23> S 	 -34.9821 	 67.8941 	 147.669
| 24> C 	 -35.676 	 66.9051 	 148.92
| 25> C 	 -35.0229 	 67.1008 	 150.053
| 26> C 	 -33.8766 	 67.9607 	 149.965
| 27> C 	 -33.6655 	 68.449 	 148.67
| 28> H 	 -35.2835 	 66.5504 	 150.897
| 29> C 	 -32.9775 	 68.3604 	 151.155
| 30> H 	 -32.0148 	 68.0612 	 150.817
| 31> H 	 -33.1269 	 67.6972 	 151.989
| 32> C 	 -33.0187 	 69.8332 	 151.532
| 33> H 	 -32.9173 	 70.5377 	 150.727
| 34> H 	 -32.1573 	 69.9494 	 152.207
| 35> C 	 -34.3384 	 70.1191 	 152.332
| 36> H 	 -34.3075 	 71.1872 	 152.703
| 37> H 	 -34.4428 	 69.418 	 153.147
| 38> H 	 -35.2071 	 70.1643 	 151.627
| 39> H 	 -30.7933 	 71.4407 	 145.986
| 40> H 	 -36.6039 	 66.3009 	 148.768
| 41> *
| 42>
| 43>                          ****END OF INPUT****

CARTESIAN COORDINATES (ANGSTROEM)
---------------------------------
  S    -32.713800   70.788300  147.416000
  C    -31.140400   70.645600  146.700000
  C    -30.593500   69.385000  146.820000
  C    -31.374700   68.572400  147.770000
  C    -32.550000   69.174300  148.100000
  H    -31.144400   67.578700  148.220000
  C    -29.371000   68.871900  146.105000
  H    -29.087100   67.868100  146.299000
  H    -28.522900   69.477000  146.419000
  C    -29.470000   68.841000  144.535000
  H    -29.354200   69.836800  144.037000
  H    -28.614100   68.224200  144.175000
  C    -30.753800   68.205000  143.983000
  H    -30.892100   67.186800  144.369000
  H    -31.684200   68.668000  144.405000
  H    -30.896700   68.183400  142.936000
  S    -34.982100   67.894100  147.669000
  C    -35.676000   66.905100  148.920000
  C    -35.022900   67.100800  150.053000
  C    -33.876600   67.960700  149.965000
  C    -33.665500   68.449000  148.670000
  H    -35.283500   66.550400  150.897000
  C    -32.977500   68.360400  151.155000
  H    -32.014800   68.061200  150.817000
  H    -33.126900   67.697200  151.989000
  C    -33.018700   69.833200  151.532000
  H    -32.917300   70.537700  150.727000
  H    -32.157300   69.949400  152.207000
  C    -34.338400   70.119100  152.332000
  H    -34.307500   71.187200  152.703000
  H    -34.442800   69.418000  153.147000
  H    -35.207100   70.164300  151.627000
  H    -30.793300   71.440700  145.986000
  H    -36.603900   66.300900  148.768000

 Total Charge           Charge          ....    0
 Multiplicity           Mult            ....    1
 Number of Electrons    NEL             ....  134
 Basis Dimension        Dim             ....  322

ORBITAL ENERGIES
----------------

  NO   OCC          E(Eh)            E(eV)
   0   2.0000     -88.967881     -2420.9391
   1   2.0000     -88.957644     -2420.6606
   2   2.0000     -10.326747      -281.0051
   3   2.0000     -10.321585      -280.8646
   4   2.0000     -10.318217      -280.7730
   5   2.0000     -10.312618      -280.6206
   6   2.0000     -10.309154      -280.5263
   7   2.0000     -10.301747      -280.3248
   8   2.0000     -10.300529      -280.2916
   9   2.0000     -10.295317      -280.1498
  10   2.0000     -10.293998      -280.1139
  11   2.0000     -10.284427      -279.8535
  12   2.0000     -10.282685      -279.8061
  13   2.0000     -10.281625      -279.7772
  14   2.0000     -10.279333      -279.7149
  15   2.0000     -10.272741      -279.5355
  16   2.0000      -8.082730      -219.9423
  17   2.0000      -8.073124      -219.6809
  18   2.0000      -6.041190      -164.3891
  19   2.0000      -6.037355      -164.2848
  20   2.0000      -6.033402      -164.1772
  21   2.0000      -6.031629      -164.1290
  22   2.0000      -6.027466      -164.0157
  23   2.0000      -6.023891      -163.9184
  24   2.0000      -1.008295       -27.4371
  25   2.0000      -0.986300       -26.8386
  26   2.0000      -0.908742       -24.7281
  27   2.0000      -0.903844       -24.5949
  28   2.0000      -0.872307       -23.7367
  29   2.0000      -0.846267       -23.0281
  30   2.0000      -0.837576       -22.7916
  31   2.0000      -0.816305       -22.2128
  32   2.0000      -0.783578       -21.3223
  33   2.0000      -0.769536       -20.9401
  34   2.0000      -0.704512       -19.1707
  35   2.0000      -0.699450       -19.0330
  36   2.0000      -0.686008       -18.6672
  37   2.0000      -0.658077       -17.9072
  38   2.0000      -0.643208       -17.5026
  39   2.0000      -0.607716       -16.5368
  40   2.0000      -0.594569       -16.1790
  41   2.0000      -0.577286       -15.7088
  42   2.0000      -0.555477       -15.1153
  43   2.0000      -0.550522       -14.9805
  44   2.0000      -0.541747       -14.7417
  45   2.0000      -0.533816       -14.5259
  46   2.0000      -0.516027       -14.0418
  47   2.0000      -0.507517       -13.8102
  48   2.0000      -0.498323       -13.5601
  49   2.0000      -0.490000       -13.3336
  50   2.0000      -0.484912       -13.1951
  51   2.0000      -0.474497       -12.9117
  52   2.0000      -0.468396       -12.7457
  53   2.0000      -0.467589       -12.7238
  54   2.0000      -0.465013       -12.6537
  55   2.0000      -0.449211       -12.2236
  56   2.0000      -0.440514       -11.9870
  57   2.0000      -0.440032       -11.9739
  58   2.0000      -0.427696       -11.6382
  59   2.0000      -0.420577       -11.4445
  60   2.0000      -0.417602       -11.3635
  61   2.0000      -0.412679       -11.2296
  62   2.0000      -0.405709       -11.0399
  63   2.0000      -0.344523        -9.3750
  64   2.0000      -0.327437        -8.9100
  65   2.0000      -0.322619        -8.7789
  66   2.0000      -0.302820        -8.2402
  67   0.0000       0.041512         1.1296
  68   0.0000       0.060065         1.6345
  69   0.0000       0.116710         3.1758
  70   0.0000       0.117276         3.1913
  71   0.0000       0.135193         3.6788

MULLIKEN ATOMIC CHARGES
-----------------------
   0 S :    0.113125
   1 C :   -0.130330
   2 C :   -0.107012
   3 C :    0.044274
   4 C :   -0.186537
   5 H :    0.038997
   6 C :    0.099376
   7 H :    0.012391
   8 H :    0.041828
   9 C :   -0.108116
  10 H :    0.035021
  11 H :    0.035912
  12 C :   -0.056164
  13 H :    0.018412
  14 H :    0.040003
  15 H :    0.033344
  16 S :    0.097153
  17 C :   -0.106388
  18 C :    0.004666
  19 C :   -0.074274
  20 C :   -0.162242
  21 H :   -0.010462
  22 C :    0.122780
  23 H :    0.005463
  24 H :    0.003792
  25 C :   -0.050060
  26 H :    0.032312
  27 H :    0.028423
  28 C :   -0.078703
  29 H :    0.036408
  30 H :    0.032404
  31 H :    0.047564
  32 H :    0.071874
  33 H :    0.074766
Sum of atomic charges:   -0.0000000

LOEWDIN ATOMIC CHARGES
----------------------
   0 S :    0.403942
   1 C :   -0.205041
   2 C :   -0.061149
   3 C :   -0.051269
   4 C :   -0.198446
   5 H :    0.043226
   6 C :   -0.030526
   7 H :    0.026958
   8 H :    0.038252
   9 C :   -0.042272
  10 H :    0.022564
  11 H :    0.027802
  12 C :   -0.075194
  13 H :    0.024268
  14 H :    0.032503
  15 H :    0.020526
  16 S :    0.402732
  17 C :   -0.188278
  18 C :   -0.077710
  19 C :   -0.052468
  20 C :   -0.208021
  21 H :    0.021680
  22 C :   -0.029708
  23 H :    0.025474
  24 H :    0.025341
  25 C :   -0.033165
  26 H :    0.020376
  27 H :    0.025965
  28 C :   -0.069668
  29 H :    0.029873
  30 H :    0.019621
  31 H :    0.031219
  32 H :    0.037728
  33 H :    0.042865

  Mayer bond orders larger than 0.100000
B(  0-S ,  1-C ) :   1.1312 B(  0-S ,  4-C ) :   1.1342 B(  1-C ,  2-C ) :   1.6381
B(  1-C , 32-H ) :   0.9607 B(  2-C ,  3-C ) :   1.2008 B(  2-C ,  6-C ) :   1.0255
B(  3-C ,  4-C ) :   1.6321 B(  3-C ,  5-H ) :   0.9807 B(  4-C , 20-C ) :   1.0191
B(  6-C ,  7-H ) :   0.9460 B(  6-C ,  8-H ) :   0.9383 B(  6-C ,  9-C ) :   1.0604
B(  9-C , 10-H ) :   0.9581 B(  9-C , 11-H ) :   0.9608 B(  9-C , 12-C ) :   1.0736
B( 12-C , 13-H ) :   0.9734 B( 12-C , 14-H ) :   0.9681 B( 12-C , 15-H ) :   0.9772
B( 16-S , 17-C ) :   1.1528 B( 16-S , 20-C ) :   1.1442 B( 17-C , 18-C ) :   1.6123
B( 17-C , 33-H ) :   0.9607 B( 18-C , 19-C ) :   1.2439 B( 18-C , 21-H ) :   1.0045
B( 19-C , 20-C ) :   1.5933 B( 19-C , 22-C ) :   1.0261 B( 22-C , 23-H ) :   0.9199
B( 22-C , 24-H ) :   0.9340 B( 22-C , 25-C ) :   1.0743 B( 25-C , 26-H ) :   0.9578
B( 25-C , 27-H ) :   0.9535 B( 25-C , 28-C ) :   1.0701 B( 28-C , 29-H ) :   0.9745
B( 28-C , 30-H ) :   0.9767 B( 28-C , 31-H ) :   0.9771

Dispersion correction           -0.015482050
FINAL SINGLE POINT ENERGY     -1339.879450129630

DIPOLE MOMENT
-------------
                                X             Y             Z
Electronic contribution:    -11.45347       1.47852      -3.14590
Nuclear contribution   :     11.86122      -1.79760       3.23839
                        -----------------------------------------
Total Dipole Moment    :      0.40775      -0.31908       0.09249
                        -----------------------------------------
Magnitude (a.u.)       :      0.52595
Magnitude (Debye)      :      1.33687

Rotational constants in cm-1:     0.022686     0.008432     0.007270
Rotational constants in MHz :   680.119076   252.797493   217.962718

                             ****ORCA TERMINATED NORMALLY****
TOTAL RUN TIME: 0 days 0 hours 0 minutes 34 seconds 671 msec
