                         Program Version 4.2.1 -  RELEASE  -
|  1> ! wB97X-D3 SP def2-SVP
|  2> %pal
|  3> nprocs 16
|  4> end
|  5>
|  6> * xyz 0 1
|  7> S 	 1.63488 	 -6.09783 	 87.9215
|  8> C 	 0.0541717 	 -5.99251 	 88.5044
|  9> C 	 -0.389053 	 -7.15602 	 89.066
| 10> C 	 0.612769 	 -8.15442 	 89.088
| 11> C 	 1.85383 	 -7.72039 	 88.6649
| 12> H 	 0.584769 	 -9.17036 	 89.4615
| 13> C 	 -1.74682 	 -7.32508 	 89.6635
| 14> H 	 -2.16878 	 -8.1152 	 89.0428
| 15> H 	 -2.30732 	 -6.39911 	 89.4311
| 16> C 	 -1.85093 	 -7.78706 	 91.0856
| 17> H 	 -1.07673 	 -8.46052 	 91.2823
| 18> H 	 -1.58984 	 -6.94741 	 91.7096
| 19> C 	 -3.20858 	 -8.2374 	 91.3711
| 20> H 	 -3.4279 	 -8.45296 	 92.4193
| 21> H 	 -3.87074 	 -7.42098 	 91.1993
| 22> H 	 -3.30168 	 -9.16921 	 90.7868
| 23> S 	 4.09911 	 -8.6704 	 87.2071
| 24> C 	 4.95628 	 -9.99416 	 87.8287
| 25> C 	 4.66262 	 -10.1752 	 89.1593
| 26> C 	 3.58434 	 -9.34561 	 89.5915
| 27> C 	 3.1338 	 -8.46254 	 88.6614
| 28> H 	 5.25327 	 -10.9501 	 89.7394
| 29> C 	 3.05656 	 -9.56011 	 90.9943
| 30> H 	 3.60126 	 -10.4118 	 91.3376
| 31> H 	 2.01335 	 -9.90547 	 90.8695
| 32> C 	 3.27308 	 -8.30621 	 91.9189
| 33> H 	 2.97869 	 -7.47981 	 91.2927
| 34> H 	 4.3492 	 -8.12645 	 92.1219
| 35> C 	 2.48123 	 -8.18585 	 93.269
| 36> H 	 2.63972 	 -8.96475 	 94.0092
| 37> H 	 1.40891 	 -7.92854 	 93.0579
| 38> H 	 2.85269 	 -7.20584 	 93.8047
| 39> H 	 -0.537457 	 -5.10415 	 88.3637
| 40> H 	 5.62865 	 -10.4847 	 87.161
| 41> *
| 42>
| 43>                          ****END OF INPUT****

CARTESIAN COORDINATES (ANGSTROEM)
---------------------------------
  S      1.634880   -6.097830   87.921500
  C      0.054172   -5.992510   88.504400
  C     -0.389053   -7.156020   89.066000
  C      0.612769   -8.154420   89.088000
  C      1.853830   -7.720390   88.664900
  H      0.584769   -9.170360   89.461500
  C     -1.746820   -7.325080   89.663500
  H     -2.168780   -8.115200   89.042800
  H     -2.307320   -6.399110   89.431100
  C     -1.850930   -7.787060   91.085600
  H     -1.076730   -8.460520   91.282300
  H     -1.589840   -6.947410   91.709600
  C     -3.208580   -8.237400   91.371100
  H     -3.427900   -8.452960   92.419300
  H     -3.870740   -7.420980   91.199300
  H     -3.301680   -9.169210   90.786800
  S      4.099110   -8.670400   87.207100
  C      4.956280   -9.994160   87.828700
  C      4.662620  -10.175200   89.159300
  C      3.584340   -9.345610   89.591500
  C      3.133800   -8.462540   88.661400
  H      5.253270  -10.950100   89.739400
  C      3.056560   -9.560110   90.994300
  H      3.601260  -10.411800   91.337600
  H      2.013350   -9.905470   90.869500
  C      3.273080   -8.306210   91.918900
  H      2.978690   -7.479810   91.292700
  H      4.349200   -8.126450   92.121900
  C      2.481230   -8.185850   93.269000
  H      2.639720   -8.964750   94.009200
  H      1.408910   -7.928540   93.057900
  H      2.852690   -7.205840   93.804700
  H     -0.537457   -5.104150   88.363700
  H      5.628650  -10.484700   87.161000

 Total Charge           Charge          ....    0
 Multiplicity           Mult            ....    1
 Number of Electrons    NEL             ....  134
 Basis Dimension        Dim             ....  322

ORBITAL ENERGIES
----------------

  NO   OCC          E(Eh)            E(eV)
   0   2.0000     -88.961815     -2420.7741
   1   2.0000     -88.961720     -2420.7715
   2   2.0000     -10.334175      -281.2072
   3   2.0000     -10.325072      -280.9595
   4   2.0000     -10.315756      -280.7060
   5   2.0000     -10.306427      -280.4521
   6   2.0000     -10.300603      -280.2937
   7   2.0000     -10.298604      -280.2393
   8   2.0000     -10.295251      -280.1480
   9   2.0000     -10.293805      -280.1087
  10   2.0000     -10.292103      -280.0624
  11   2.0000     -10.290404      -280.0161
  12   2.0000     -10.289602      -279.9943
  13   2.0000     -10.287023      -279.9241
  14   2.0000     -10.274260      -279.5768
  15   2.0000     -10.273052      -279.5439
  16   2.0000      -8.077988      -219.8132
  17   2.0000      -8.077320      -219.7951
  18   2.0000      -6.036427      -164.2595
  19   2.0000      -6.035711      -164.2400
  20   2.0000      -6.032130      -164.1426
  21   2.0000      -6.031793      -164.1334
  22   2.0000      -6.028866      -164.0538
  23   2.0000      -6.028092      -164.0327
  24   2.0000      -1.012457       -27.5504
  25   2.0000      -0.994231       -27.0544
  26   2.0000      -0.927024       -25.2256
  27   2.0000      -0.903888       -24.5961
  28   2.0000      -0.873310       -23.7640
  29   2.0000      -0.856424       -23.3045
  30   2.0000      -0.845440       -23.0056
  31   2.0000      -0.818641       -22.2764
  32   2.0000      -0.781121       -21.2554
  33   2.0000      -0.770481       -20.9658
  34   2.0000      -0.711252       -19.3542
  35   2.0000      -0.700235       -19.0544
  36   2.0000      -0.691127       -18.8065
  37   2.0000      -0.665512       -18.1095
  38   2.0000      -0.646403       -17.5895
  39   2.0000      -0.622370       -16.9355
  40   2.0000      -0.593356       -16.1460
  41   2.0000      -0.583154       -15.8684
  42   2.0000      -0.569678       -15.5017
  43   2.0000      -0.557775       -15.1778
  44   2.0000      -0.527108       -14.3433
  45   2.0000      -0.524259       -14.2658
  46   2.0000      -0.515438       -14.0258
  47   2.0000      -0.512571       -13.9478
  48   2.0000      -0.509676       -13.8690
  49   2.0000      -0.496747       -13.5172
  50   2.0000      -0.496391       -13.5075
  51   2.0000      -0.486220       -13.2307
  52   2.0000      -0.477249       -12.9866
  53   2.0000      -0.473321       -12.8797
  54   2.0000      -0.459930       -12.5153
  55   2.0000      -0.447147       -12.1675
  56   2.0000      -0.442460       -12.0400
  57   2.0000      -0.431938       -11.7536
  58   2.0000      -0.424977       -11.5642
  59   2.0000      -0.422934       -11.5086
  60   2.0000      -0.419338       -11.4108
  61   2.0000      -0.417431       -11.3589
  62   2.0000      -0.412544       -11.2259
  63   2.0000      -0.355899        -9.6845
  64   2.0000      -0.331454        -9.0193
  65   2.0000      -0.327591        -8.9142
  66   2.0000      -0.289985        -7.8909
  67   0.0000       0.030543         0.8311
  68   0.0000       0.071125         1.9354
  69   0.0000       0.116992         3.1835
  70   0.0000       0.125509         3.4153
  71   0.0000       0.129495         3.5237

MULLIKEN ATOMIC CHARGES
-----------------------
   0 S :    0.100597
   1 C :   -0.116820
   2 C :   -0.078155
   3 C :    0.023601
   4 C :   -0.175295
   5 H :    0.011011
   6 C :    0.059560
   7 H :    0.021947
   8 H :    0.016258
   9 C :   -0.029827
  10 H :    0.008325
  11 H :    0.013895
  12 C :   -0.017527
  13 H :    0.025412
  14 H :    0.024807
  15 H :    0.037150
  16 S :    0.097126
  17 C :   -0.098918
  18 C :   -0.040419
  19 C :   -0.117594
  20 C :   -0.100822
  21 H :    0.045494
  22 C :    0.123888
  23 H :    0.001760
  24 H :    0.023213
  25 C :   -0.072470
  26 H :    0.038040
  27 H :    0.035206
  28 C :   -0.089061
  29 H :    0.044998
  30 H :    0.046437
  31 H :    0.038239
  32 H :    0.043276
  33 H :    0.056668
Sum of atomic charges:    0.0000000

LOEWDIN ATOMIC CHARGES
----------------------
   0 S :    0.401513
   1 C :   -0.209824
   2 C :   -0.070524
   3 C :   -0.061999
   4 C :   -0.171578
   5 H :    0.030547
   6 C :   -0.029958
   7 H :    0.032221
   8 H :    0.030795
   9 C :   -0.043273
  10 H :    0.014259
  11 H :    0.022979
  12 C :   -0.058669
  13 H :    0.026529
  14 H :    0.025820
  15 H :    0.031872
  16 S :    0.422095
  17 C :   -0.186313
  18 C :   -0.086253
  19 C :   -0.058756
  20 C :   -0.207812
  21 H :    0.044130
  22 C :   -0.027835
  23 H :    0.022338
  24 H :    0.030546
  25 C :   -0.041144
  26 H :    0.026636
  27 H :    0.029545
  28 C :   -0.079714
  29 H :    0.021414
  30 H :    0.029998
  31 H :    0.038613
  32 H :    0.026786
  33 H :    0.025017

  Mayer bond orders larger than 0.100000
B(  0-S ,  1-C ) :   1.1491 B(  0-S ,  4-C ) :   1.1427 B(  1-C ,  2-C ) :   1.6120
B(  1-C , 32-H ) :   0.9671 B(  2-C ,  3-C ) :   1.2256 B(  2-C ,  6-C ) :   1.0234
B(  3-C ,  4-C ) :   1.5902 B(  3-C ,  5-H ) :   0.9910 B(  4-C , 20-C ) :   1.0301
B(  6-C ,  7-H ) :   0.9304 B(  6-C ,  8-H ) :   0.9362 B(  6-C ,  9-C ) :   1.0633
B(  9-C , 10-H ) :   0.9525 B(  9-C , 11-H ) :   0.9425 B(  9-C , 12-C ) :   1.0912
B( 12-C , 13-H ) :   0.9691 B( 12-C , 14-H ) :   0.9692 B( 12-C , 15-H ) :   0.9748
B( 16-S , 17-C ) :   1.1993 B( 16-S , 20-C ) :   1.1245 B( 17-C , 18-C ) :   1.5637
B( 17-C , 33-H ) :   0.9742 B( 18-C , 19-C ) :   1.2608 B( 18-C , 21-H ) :   0.9849
B( 19-C , 20-C ) :   1.6018 B( 19-C , 22-C ) :   1.0337 B( 22-C , 23-H ) :   0.9254
B( 22-C , 24-H ) :   0.9321 B( 22-C , 25-C ) :   1.0442 B( 25-C , 26-H ) :   0.9632
B( 25-C , 27-H ) :   0.9566 B( 25-C , 28-C ) :   1.0779 B( 28-C , 29-H ) :   0.9774
B( 28-C , 30-H ) :   0.9747 B( 28-C , 31-H ) :   0.9720

Dispersion correction           -0.014696103
FINAL SINGLE POINT ENERGY     -1339.870959768955

DIPOLE MOMENT
-------------
                                X             Y             Z
Electronic contribution:     17.44304       4.60168     -25.94876
Nuclear contribution   :    -17.70452      -4.96549      26.42772
                        -----------------------------------------
Total Dipole Moment    :     -0.26148      -0.36381       0.47896
                        -----------------------------------------
Magnitude (a.u.)       :      0.65584
Magnitude (Debye)      :      1.66703

Rotational constants in cm-1:     0.018467     0.009201     0.007140
Rotational constants in MHz :   553.628491   275.826130   214.047021

                             ****ORCA TERMINATED NORMALLY****
TOTAL RUN TIME: 0 days 0 hours 0 minutes 35 seconds 787 msec
