                         Program Version 4.2.1 -  RELEASE  -
|  1> ! wB97X-D3 SP def2-SVP
|  2> %pal
|  3> nprocs 16
|  4> end
|  5>
|  6> * xyz 0 1
|  7> S 	 11.3712 	 -14.3312 	 87.0054
|  8> C 	 13.074 	 -14.7082 	 87.0214
|  9> C 	 13.6886 	 -14.2974 	 88.211
| 10> C 	 12.7717 	 -13.6499 	 89.099
| 11> C 	 11.4952 	 -13.4649 	 88.5082
| 12> H 	 12.971 	 -13.2363 	 90.0517
| 13> C 	 15.1326 	 -14.3975 	 88.6322
| 14> H 	 15.6751 	 -13.5253 	 88.2453
| 15> H 	 15.5859 	 -15.2185 	 88.0796
| 16> C 	 15.5062 	 -14.5789 	 90.1081
| 17> H 	 16.5952 	 -14.6727 	 90.3712
| 18> H 	 15.1192 	 -13.7096 	 90.6656
| 19> C 	 14.7736 	 -15.8158 	 90.661
| 20> H 	 15.1419 	 -16.7103 	 90.1793
| 21> H 	 14.9873 	 -15.8743 	 91.7389
| 22> H 	 13.6308 	 -15.8122 	 90.6451
| 23> S 	 9.04756 	 -13.8938 	 89.3517
| 24> C 	 8.23094 	 -12.7871 	 90.3903
| 25> C 	 8.96014 	 -11.6341 	 90.5477
| 26> C 	 10.2123 	 -11.6823 	 89.7901
| 27> C 	 10.3571 	 -12.8576 	 89.0977
| 28> H 	 8.6332 	 -10.7052 	 91.0491
| 29> C 	 11.2388 	 -10.5618 	 89.8686
| 30> H 	 12.2211 	 -10.9815 	 89.9982
| 31> H 	 11.1959 	 -9.95013 	 90.7534
| 32> C 	 11.1078 	 -9.64792 	 88.6315
| 33> H 	 10.1284 	 -9.39585 	 88.2956
| 34> H 	 11.607 	 -10.1421 	 87.8265
| 35> C 	 11.6721 	 -8.14203 	 88.808
| 36> H 	 11.0458 	 -7.64972 	 89.5197
| 37> H 	 11.5065 	 -7.62298 	 87.8741
| 38> H 	 12.6568 	 -8.00065 	 89.2614
| 39> H 	 13.6558 	 -15.2225 	 86.2499
| 40> H 	 7.23307 	 -13.0168 	 90.7599
| 41> *
| 42>
| 43>                          ****END OF INPUT****

CARTESIAN COORDINATES (ANGSTROEM)
---------------------------------
  S     11.371200  -14.331200   87.005400
  C     13.074000  -14.708200   87.021400
  C     13.688600  -14.297400   88.211000
  C     12.771700  -13.649900   89.099000
  C     11.495200  -13.464900   88.508200
  H     12.971000  -13.236300   90.051700
  C     15.132600  -14.397500   88.632200
  H     15.675100  -13.525300   88.245300
  H     15.585900  -15.218500   88.079600
  C     15.506200  -14.578900   90.108100
  H     16.595200  -14.672700   90.371200
  H     15.119200  -13.709600   90.665600
  C     14.773600  -15.815800   90.661000
  H     15.141900  -16.710300   90.179300
  H     14.987300  -15.874300   91.738900
  H     13.630800  -15.812200   90.645100
  S      9.047560  -13.893800   89.351700
  C      8.230940  -12.787100   90.390300
  C      8.960140  -11.634100   90.547700
  C     10.212300  -11.682300   89.790100
  C     10.357100  -12.857600   89.097700
  H      8.633200  -10.705200   91.049100
  C     11.238800  -10.561800   89.868600
  H     12.221100  -10.981500   89.998200
  H     11.195900   -9.950130   90.753400
  C     11.107800   -9.647920   88.631500
  H     10.128400   -9.395850   88.295600
  H     11.607000  -10.142100   87.826500
  C     11.672100   -8.142030   88.808000
  H     11.045800   -7.649720   89.519700
  H     11.506500   -7.622980   87.874100
  H     12.656800   -8.000650   89.261400
  H     13.655800  -15.222500   86.249900
  H      7.233070  -13.016800   90.759900

 Total Charge           Charge          ....    0
 Multiplicity           Mult            ....    1
 Number of Electrons    NEL             ....  134
 Basis Dimension        Dim             ....  322

ORBITAL ENERGIES
----------------

  NO   OCC          E(Eh)            E(eV)
   0   2.0000     -88.970229     -2421.0030
   1   2.0000     -88.961009     -2420.7521
   2   2.0000     -10.327905      -281.0366
   3   2.0000     -10.317207      -280.7455
   4   2.0000     -10.316044      -280.7138
   5   2.0000     -10.315427      -280.6971
   6   2.0000     -10.304551      -280.4011
   7   2.0000     -10.302935      -280.3571
   8   2.0000     -10.299003      -280.2501
   9   2.0000     -10.295446      -280.1533
  10   2.0000     -10.293405      -280.0978
  11   2.0000     -10.291880      -280.0563
  12   2.0000     -10.289539      -279.9926
  13   2.0000     -10.283612      -279.8313
  14   2.0000     -10.278246      -279.6853
  15   2.0000     -10.276273      -279.6316
  16   2.0000      -8.084867      -220.0004
  17   2.0000      -8.077906      -219.8110
  18   2.0000      -6.043317      -164.4470
  19   2.0000      -6.039375      -164.3397
  20   2.0000      -6.036333      -164.2570
  21   2.0000      -6.035723      -164.2404
  22   2.0000      -6.031973      -164.1383
  23   2.0000      -6.028734      -164.0502
  24   2.0000      -1.016026       -27.6475
  25   2.0000      -0.985298       -26.8113
  26   2.0000      -0.913573       -24.8596
  27   2.0000      -0.903449       -24.5841
  28   2.0000      -0.873607       -23.7720
  29   2.0000      -0.847487       -23.0613
  30   2.0000      -0.841432       -22.8965
  31   2.0000      -0.811734       -22.0884
  32   2.0000      -0.782819       -21.3016
  33   2.0000      -0.772534       -21.0217
  34   2.0000      -0.709424       -19.3044
  35   2.0000      -0.699944       -19.0464
  36   2.0000      -0.692172       -18.8350
  37   2.0000      -0.667444       -18.1621
  38   2.0000      -0.637872       -17.3574
  39   2.0000      -0.623780       -16.9739
  40   2.0000      -0.601626       -16.3711
  41   2.0000      -0.561843       -15.2885
  42   2.0000      -0.554145       -15.0790
  43   2.0000      -0.550215       -14.9721
  44   2.0000      -0.538537       -14.6543
  45   2.0000      -0.531912       -14.4741
  46   2.0000      -0.515230       -14.0201
  47   2.0000      -0.508662       -13.8414
  48   2.0000      -0.508111       -13.8264
  49   2.0000      -0.505517       -13.7558
  50   2.0000      -0.493449       -13.4274
  51   2.0000      -0.481270       -13.0960
  52   2.0000      -0.468324       -12.7438
  53   2.0000      -0.462341       -12.5809
  54   2.0000      -0.455130       -12.3847
  55   2.0000      -0.449202       -12.2234
  56   2.0000      -0.443133       -12.0583
  57   2.0000      -0.440719       -11.9926
  58   2.0000      -0.431456       -11.7405
  59   2.0000      -0.423141       -11.5143
  60   2.0000      -0.418647       -11.3920
  61   2.0000      -0.417169       -11.3517
  62   2.0000      -0.408755       -11.1228
  63   2.0000      -0.348578        -9.4853
  64   2.0000      -0.330161        -8.9841
  65   2.0000      -0.325303        -8.8519
  66   2.0000      -0.291689        -7.9373
  67   0.0000       0.032353         0.8804
  68   0.0000       0.071060         1.9336
  69   0.0000       0.112431         3.0594
  70   0.0000       0.118930         3.2362
  71   0.0000       0.134366         3.6563

MULLIKEN ATOMIC CHARGES
-----------------------
   0 S :    0.123208
   1 C :   -0.116500
   2 C :   -0.097790
   3 C :    0.047615
   4 C :   -0.175715
   5 H :    0.001865
   6 C :    0.079478
   7 H :    0.045128
   8 H :    0.011496
   9 C :   -0.092572
  10 H :    0.050274
  11 H :    0.028702
  12 C :   -0.086096
  13 H :    0.031048
  14 H :    0.028829
  15 H :    0.057545
  16 S :    0.108076
  17 C :   -0.096047
  18 C :   -0.024269
  19 C :   -0.088570
  20 C :   -0.127738
  21 H :    0.031796
  22 C :    0.115009
  23 H :    0.011142
  24 H :    0.003607
  25 C :   -0.065134
  26 H :    0.028180
  27 H :    0.036114
  28 C :   -0.067492
  29 H :    0.015735
  30 H :    0.038471
  31 H :    0.032690
  32 H :    0.047953
  33 H :    0.063962
Sum of atomic charges:   -0.0000000

LOEWDIN ATOMIC CHARGES
----------------------
   0 S :    0.421019
   1 C :   -0.210789
   2 C :   -0.057635
   3 C :   -0.054909
   4 C :   -0.197815
   5 H :    0.021921
   6 C :   -0.039434
   7 H :    0.036701
   8 H :    0.026720
   9 C :   -0.045999
  10 H :    0.037563
  11 H :    0.020994
  12 C :   -0.074572
  13 H :    0.020924
  14 H :    0.024613
  15 H :    0.036495
  16 S :    0.440836
  17 C :   -0.191832
  18 C :   -0.072057
  19 C :   -0.051995
  20 C :   -0.229864
  21 H :    0.036844
  22 C :   -0.030180
  23 H :    0.028373
  24 H :    0.025016
  25 C :   -0.026658
  26 H :    0.023327
  27 H :    0.022128
  28 C :   -0.069477
  29 H :    0.017522
  30 H :    0.027108
  31 H :    0.022237
  32 H :    0.032685
  33 H :    0.030190

  Mayer bond orders larger than 0.100000
B(  0-S ,  1-C ) :   1.1362 B(  0-S ,  4-C ) :   1.1658 B(  1-C ,  2-C ) :   1.6064
B(  1-C ,  4-C ) :   0.1050 B(  1-C , 32-H ) :   0.9650 B(  2-C ,  3-C ) :   1.2518
B(  2-C ,  6-C ) :   1.0133 B(  3-C ,  4-C ) :   1.5476 B(  3-C ,  5-H ) :   0.9912
B(  4-C , 20-C ) :   1.0314 B(  6-C ,  7-H ) :   0.9331 B(  6-C ,  8-H ) :   0.9375
B(  6-C ,  9-C ) :   1.0746 B(  9-C , 10-H ) :   0.9554 B(  9-C , 11-H ) :   0.9474
B(  9-C , 12-C ) :   1.0784 B( 12-C , 13-H ) :   0.9772 B( 12-C , 14-H ) :   0.9739
B( 12-C , 15-H ) :   0.9705 B( 16-S , 17-C ) :   1.1683 B( 16-S , 20-C ) :   1.1567
B( 17-C , 18-C ) :   1.5816 B( 17-C , 33-H ) :   0.9712 B( 18-C , 19-C ) :   1.2522
B( 18-C , 21-H ) :   0.9875 B( 19-C , 20-C ) :   1.5994 B( 19-C , 22-C ) :   1.0494
B( 22-C , 23-H ) :   0.9279 B( 22-C , 24-H ) :   0.9416 B( 22-C , 25-C ) :   1.0464
B( 25-C , 26-H ) :   0.9640 B( 25-C , 27-H ) :   0.9620 B( 25-C , 28-C ) :   1.0680
B( 28-C , 29-H ) :   0.9773 B( 28-C , 30-H ) :   0.9783 B( 28-C , 31-H ) :   0.9780

Dispersion correction           -0.014462320
FINAL SINGLE POINT ENERGY     -1339.875131635039

DIPOLE MOMENT
-------------
                                X             Y             Z
Electronic contribution:    -19.08222     -12.42269      -8.82440
Nuclear contribution   :     19.47047      12.73844       9.18847
                        -----------------------------------------
Total Dipole Moment    :      0.38825       0.31575       0.36407
                        -----------------------------------------
Magnitude (a.u.)       :      0.61886
Magnitude (Debye)      :      1.57301

Rotational constants in cm-1:     0.016686     0.009189     0.007763
Rotational constants in MHz :   500.239680   275.470271   232.722960

                             ****ORCA TERMINATED NORMALLY****
TOTAL RUN TIME: 0 days 0 hours 0 minutes 33 seconds 697 msec
