                         Program Version 4.2.1 -  RELEASE  -
|  1> ! wB97X-D3 SP def2-SVP
|  2> %pal
|  3> nprocs 16
|  4> end
|  5>
|  6> * xyz 0 1
|  7> S 	 19.2429 	 1.30328 	 86.9121
|  8> C 	 19.4216 	 2.97254 	 86.4933
|  9> C 	 18.2423 	 3.69947 	 86.7211
| 10> C 	 17.1864 	 2.85204 	 87.1973
| 11> C 	 17.5723 	 1.54224 	 87.2967
| 12> H 	 16.23 	 3.18136 	 87.6274
| 13> C 	 18.1207 	 5.19182 	 86.5511
| 14> H 	 19.0082 	 5.7428 	 86.883
| 15> H 	 17.2258 	 5.66997 	 86.9928
| 16> C 	 17.9417 	 5.53331 	 85.0363
| 17> H 	 18.7694 	 5.15253 	 84.4458
| 18> H 	 16.9778 	 5.1615 	 84.7572
| 19> C 	 17.7608 	 7.0695 	 84.8684
| 20> H 	 17.7654 	 7.26835 	 83.8438
| 21> H 	 16.795 	 7.48774 	 85.242
| 22> H 	 18.5879 	 7.59433 	 85.3325
| 23> S 	 17.2547 	 -0.262426 	 89.3686
| 24> C 	 16.0716 	 -1.52794 	 89.2225
| 25> C 	 15.215 	 -1.29781 	 88.1792
| 26> C 	 15.6532 	 -0.25695 	 87.3088
| 27> C 	 16.7569 	 0.419394 	 87.8329
| 28> H 	 14.3756 	 -1.89346 	 88.0967
| 29> C 	 15.0135 	 0.14572 	 85.9723
| 30> H 	 15.3488 	 -0.589772 	 85.3023
| 31> H 	 15.3538 	 1.09776 	 85.5953
| 32> C 	 13.4498 	 0.325157 	 86.1195
| 33> H 	 13.3612 	 1.11892 	 86.8053
| 34> H 	 13.0288 	 -0.57497 	 86.6072
| 35> C 	 12.7518 	 0.660123 	 84.7395
| 36> H 	 13.1101 	 1.59854 	 84.4158
| 37> H 	 11.7454 	 0.947042 	 84.9712
| 38> H 	 12.9042 	 -0.106411 	 83.9731
| 39> H 	 20.3562 	 3.45993 	 86.2574
| 40> H 	 15.9092 	 -2.27961 	 89.9778
| 41> *
| 42>
| 43>                          ****END OF INPUT****

CARTESIAN COORDINATES (ANGSTROEM)
---------------------------------
  S     19.242900    1.303280   86.912100
  C     19.421600    2.972540   86.493300
  C     18.242300    3.699470   86.721100
  C     17.186400    2.852040   87.197300
  C     17.572300    1.542240   87.296700
  H     16.230000    3.181360   87.627400
  C     18.120700    5.191820   86.551100
  H     19.008200    5.742800   86.883000
  H     17.225800    5.669970   86.992800
  C     17.941700    5.533310   85.036300
  H     18.769400    5.152530   84.445800
  H     16.977800    5.161500   84.757200
  C     17.760800    7.069500   84.868400
  H     17.765400    7.268350   83.843800
  H     16.795000    7.487740   85.242000
  H     18.587900    7.594330   85.332500
  S     17.254700   -0.262426   89.368600
  C     16.071600   -1.527940   89.222500
  C     15.215000   -1.297810   88.179200
  C     15.653200   -0.256950   87.308800
  C     16.756900    0.419394   87.832900
  H     14.375600   -1.893460   88.096700
  C     15.013500    0.145720   85.972300
  H     15.348800   -0.589772   85.302300
  H     15.353800    1.097760   85.595300
  C     13.449800    0.325157   86.119500
  H     13.361200    1.118920   86.805300
  H     13.028800   -0.574970   86.607200
  C     12.751800    0.660123   84.739500
  H     13.110100    1.598540   84.415800
  H     11.745400    0.947042   84.971200
  H     12.904200   -0.106411   83.973100
  H     20.356200    3.459930   86.257400
  H     15.909200   -2.279610   89.977800

 Total Charge           Charge          ....    0
 Multiplicity           Mult            ....    1
 Number of Electrons    NEL             ....  134
 Basis Dimension        Dim             ....  322

ORBITAL ENERGIES
----------------

  NO   OCC          E(Eh)            E(eV)
   0   2.0000     -88.967228     -2420.9214
   1   2.0000     -88.961816     -2420.7741
   2   2.0000     -10.325587      -280.9735
   3   2.0000     -10.323248      -280.9098
   4   2.0000     -10.313496      -280.6445
   5   2.0000     -10.312295      -280.6118
   6   2.0000     -10.303309      -280.3673
   7   2.0000     -10.303014      -280.3593
   8   2.0000     -10.294279      -280.1216
   9   2.0000     -10.293508      -280.1006
  10   2.0000     -10.289022      -279.9785
  11   2.0000     -10.287659      -279.9414
  12   2.0000     -10.285579      -279.8848
  13   2.0000     -10.284739      -279.8620
  14   2.0000     -10.277511      -279.6653
  15   2.0000     -10.274915      -279.5947
  16   2.0000      -8.082420      -219.9338
  17   2.0000      -8.076911      -219.7839
  18   2.0000      -6.040812      -164.3788
  19   2.0000      -6.036844      -164.2709
  20   2.0000      -6.035321      -164.2294
  21   2.0000      -6.033297      -164.1744
  22   2.0000      -6.031326      -164.1207
  23   2.0000      -6.027807      -164.0250
  24   2.0000      -1.006236       -27.3811
  25   2.0000      -0.985050       -26.8046
  26   2.0000      -0.910527       -24.7767
  27   2.0000      -0.900893       -24.5146
  28   2.0000      -0.865332       -23.5469
  29   2.0000      -0.849756       -23.1230
  30   2.0000      -0.845291       -23.0015
  31   2.0000      -0.815591       -22.1934
  32   2.0000      -0.781482       -21.2652
  33   2.0000      -0.768616       -20.9151
  34   2.0000      -0.705761       -19.2047
  35   2.0000      -0.696248       -18.9459
  36   2.0000      -0.694642       -18.9022
  37   2.0000      -0.656767       -17.8715
  38   2.0000      -0.644288       -17.5320
  39   2.0000      -0.618390       -16.8273
  40   2.0000      -0.595978       -16.2174
  41   2.0000      -0.577225       -15.7071
  42   2.0000      -0.567572       -15.4444
  43   2.0000      -0.560969       -15.2647
  44   2.0000      -0.528093       -14.3701
  45   2.0000      -0.520475       -14.1629
  46   2.0000      -0.517881       -14.0922
  47   2.0000      -0.505346       -13.7512
  48   2.0000      -0.499251       -13.5853
  49   2.0000      -0.497854       -13.5473
  50   2.0000      -0.490763       -13.3544
  51   2.0000      -0.476251       -12.9595
  52   2.0000      -0.468947       -12.7607
  53   2.0000      -0.465762       -12.6740
  54   2.0000      -0.461190       -12.5496
  55   2.0000      -0.452558       -12.3147
  56   2.0000      -0.448722       -12.2104
  57   2.0000      -0.441937       -12.0257
  58   2.0000      -0.431688       -11.7468
  59   2.0000      -0.429445       -11.6858
  60   2.0000      -0.426350       -11.6016
  61   2.0000      -0.419518       -11.4157
  62   2.0000      -0.407161       -11.0794
  63   2.0000      -0.338622        -9.2144
  64   2.0000      -0.328968        -8.9517
  65   2.0000      -0.324660        -8.8344
  66   2.0000      -0.299569        -8.1517
  67   0.0000       0.039539         1.0759
  68   0.0000       0.065506         1.7825
  69   0.0000       0.117496         3.1972
  70   0.0000       0.123354         3.3566
  71   0.0000       0.133402         3.6301

MULLIKEN ATOMIC CHARGES
-----------------------
   0 S :    0.133367
   1 C :   -0.120791
   2 C :   -0.071666
   3 C :    0.042504
   4 C :   -0.171517
   5 H :    0.023565
   6 C :    0.040321
   7 H :    0.029528
   8 H :    0.024601
   9 C :   -0.087890
  10 H :    0.038300
  11 H :    0.023023
  12 C :   -0.033181
  13 H :    0.020575
  14 H :    0.034667
  15 H :    0.023916
  16 S :    0.108230
  17 C :   -0.089003
  18 C :   -0.021705
  19 C :   -0.026257
  20 C :   -0.191933
  21 H :   -0.009168
  22 C :    0.122773
  23 H :    0.024947
  24 H :    0.016238
  25 C :   -0.124091
  26 H :    0.023145
  27 H :    0.035796
  28 C :    0.001280
  29 H :    0.008702
  30 H :    0.024745
  31 H :    0.048885
  32 H :    0.044450
  33 H :    0.053645
Sum of atomic charges:    0.0000000

LOEWDIN ATOMIC CHARGES
----------------------
   0 S :    0.430981
   1 C :   -0.209072
   2 C :   -0.059158
   3 C :   -0.064824
   4 C :   -0.204874
   5 H :    0.037547
   6 C :   -0.035423
   7 H :    0.028491
   8 H :    0.032547
   9 C :   -0.028739
  10 H :    0.022059
  11 H :    0.020839
  12 C :   -0.064586
  13 H :    0.017697
  14 H :    0.028667
  15 H :    0.020265
  16 S :    0.405159
  17 C :   -0.180690
  18 C :   -0.067232
  19 C :   -0.049319
  20 C :   -0.206520
  21 H :    0.018824
  22 C :   -0.020892
  23 H :    0.024425
  24 H :    0.026474
  25 C :   -0.030448
  26 H :    0.018104
  27 H :    0.020434
  28 C :   -0.060081
  29 H :    0.019347
  30 H :    0.026528
  31 H :    0.030356
  32 H :    0.025967
  33 H :    0.027145

  Mayer bond orders larger than 0.100000
B(  0-S ,  1-C ) :   1.1488 B(  0-S ,  4-C ) :   1.1736 B(  1-C ,  2-C ) :   1.5899
B(  1-C , 32-H ) :   0.9684 B(  2-C ,  3-C ) :   1.2534 B(  2-C ,  6-C ) :   1.0316
B(  3-C ,  4-C ) :   1.5770 B(  3-C ,  5-H ) :   0.9906 B(  4-C , 20-C ) :   0.9966
B(  6-C ,  7-H ) :   0.9430 B(  6-C ,  8-H ) :   0.9493 B(  6-C ,  9-C ) :   1.0566
B(  9-C , 10-H ) :   0.9620 B(  9-C , 11-H ) :   0.9574 B(  9-C , 12-C ) :   1.0818
B( 12-C , 13-H ) :   0.9737 B( 12-C , 14-H ) :   0.9743 B( 12-C , 15-H ) :   0.9744
B( 16-S , 17-C ) :   1.1594 B( 16-S , 20-C ) :   1.1555 B( 17-C , 18-C ) :   1.6139
B( 17-C , 33-H ) :   0.9661 B( 18-C , 19-C ) :   1.2272 B( 18-C , 21-H ) :   1.0027
B( 19-C , 20-C ) :   1.6030 B( 19-C , 22-C ) :   1.0294 B( 22-C , 23-H ) :   0.9317
B( 22-C , 24-H ) :   0.9385 B( 22-C , 25-C ) :   1.0452 B( 25-C , 26-H ) :   0.9602
B( 25-C , 27-H ) :   0.9624 B( 25-C , 28-C ) :   1.0807 B( 28-C , 29-H ) :   0.9698
B( 28-C , 30-H ) :   0.9714 B( 28-C , 31-H ) :   0.9782

Dispersion correction           -0.013563411
FINAL SINGLE POINT ENERGY     -1339.879768832714

DIPOLE MOMENT
-------------
                                X             Y             Z
Electronic contribution:     16.15967     -18.84626      17.57603
Nuclear contribution   :    -16.59681      19.22122     -17.80705
                        -----------------------------------------
Total Dipole Moment    :     -0.43714       0.37496      -0.23102
                        -----------------------------------------
Magnitude (a.u.)       :      0.62053
Magnitude (Debye)      :      1.57726

Rotational constants in cm-1:     0.017446     0.008303     0.006139
Rotational constants in MHz :   523.027163   248.906332   184.041479

                             ****ORCA TERMINATED NORMALLY****
TOTAL RUN TIME: 0 days 0 hours 0 minutes 33 seconds 337 msec
