                         Program Version 4.2.1 -  RELEASE  -
|  1> ! wB97X-D3 SP def2-SVP
|  2> %pal
|  3> nprocs 16
|  4> end
|  5>
|  6> * xyz 0 1
|  7> S 	 50.788 	 7.20802 	 81.8945
|  8> C 	 50.526 	 8.08999 	 83.4283
|  9> C 	 49.5535 	 7.47591 	 84.215
| 10> C 	 49.0145 	 6.33139 	 83.6039
| 11> C 	 49.5028 	 6.04796 	 82.3457
| 12> H 	 48.2395 	 5.70962 	 84.0828
| 13> C 	 49.1456 	 8.00065 	 85.5586
| 14> H 	 48.0388 	 7.88339 	 85.7225
| 15> H 	 49.2913 	 9.05864 	 85.714
| 16> C 	 49.7779 	 7.32099 	 86.8252
| 17> H 	 49.3191 	 7.60168 	 87.7817
| 18> H 	 49.5026 	 6.29697 	 86.7171
| 19> C 	 51.3524 	 7.54538 	 86.8681
| 20> H 	 51.7818 	 8.43215 	 86.3688
| 21> H 	 51.6968 	 7.64448 	 87.9043
| 22> H 	 51.7895 	 6.67293 	 86.4449
| 23> S 	 47.9151 	 5.13 	 80.1582
| 24> C 	 47.9041 	 3.4132 	 79.866
| 25> C 	 48.7284 	 2.72431 	 80.7266
| 26> C 	 49.414 	 3.56375 	 81.6364
| 27> C 	 49.0545 	 4.89719 	 81.5222
| 28> H 	 48.9694 	 1.66191 	 80.5902
| 29> C 	 50.4737 	 3.02419 	 82.6349
| 30> H 	 50.8961 	 3.84467 	 83.2015
| 31> H 	 51.3145 	 2.6757 	 82.0216
| 32> C 	 50.0138 	 1.96228 	 83.6301
| 33> H 	 49.7915 	 0.97595 	 83.1708
| 34> H 	 49.2144 	 2.30093 	 84.2325
| 35> C 	 51.2774 	 1.5916 	 84.4447
| 36> H 	 51.4166 	 2.42618 	 85.0371
| 37> H 	 52.2162 	 1.4006 	 83.8994
| 38> H 	 51.0129 	 0.796621 	 85.1974
| 39> H 	 51.085 	 8.96922 	 83.7307
| 40> H 	 47.3348 	 2.90756 	 79.1439
| 41> *
| 42>
| 43>                          ****END OF INPUT****

CARTESIAN COORDINATES (ANGSTROEM)
---------------------------------
  S     50.788000    7.208020   81.894500
  C     50.526000    8.089990   83.428300
  C     49.553500    7.475910   84.215000
  C     49.014500    6.331390   83.603900
  C     49.502800    6.047960   82.345700
  H     48.239500    5.709620   84.082800
  C     49.145600    8.000650   85.558600
  H     48.038800    7.883390   85.722500
  H     49.291300    9.058640   85.714000
  C     49.777900    7.320990   86.825200
  H     49.319100    7.601680   87.781700
  H     49.502600    6.296970   86.717100
  C     51.352400    7.545380   86.868100
  H     51.781800    8.432150   86.368800
  H     51.696800    7.644480   87.904300
  H     51.789500    6.672930   86.444900
  S     47.915100    5.130000   80.158200
  C     47.904100    3.413200   79.866000
  C     48.728400    2.724310   80.726600
  C     49.414000    3.563750   81.636400
  C     49.054500    4.897190   81.522200
  H     48.969400    1.661910   80.590200
  C     50.473700    3.024190   82.634900
  H     50.896100    3.844670   83.201500
  H     51.314500    2.675700   82.021600
  C     50.013800    1.962280   83.630100
  H     49.791500    0.975950   83.170800
  H     49.214400    2.300930   84.232500
  C     51.277400    1.591600   84.444700
  H     51.416600    2.426180   85.037100
  H     52.216200    1.400600   83.899400
  H     51.012900    0.796621   85.197400
  H     51.085000    8.969220   83.730700
  H     47.334800    2.907560   79.143900

 Total Charge           Charge          ....    0
 Multiplicity           Mult            ....    1
 Number of Electrons    NEL             ....  134
 Basis Dimension        Dim             ....  322

ORBITAL ENERGIES
----------------

  NO   OCC          E(Eh)            E(eV)
   0   2.0000     -88.969508     -2420.9834
   1   2.0000     -88.966277     -2420.8955
   2   2.0000     -10.333152      -281.1794
   3   2.0000     -10.327384      -281.0224
   4   2.0000     -10.319984      -280.8211
   5   2.0000     -10.314559      -280.6734
   6   2.0000     -10.302043      -280.3328
   7   2.0000     -10.301627      -280.3215
   8   2.0000     -10.295988      -280.1681
   9   2.0000     -10.294706      -280.1332
  10   2.0000     -10.291324      -280.0412
  11   2.0000     -10.291164      -280.0368
  12   2.0000     -10.291067      -280.0342
  13   2.0000     -10.286270      -279.9036
  14   2.0000     -10.278370      -279.6887
  15   2.0000     -10.275461      -279.6095
  16   2.0000      -8.082760      -219.9431
  17   2.0000      -8.080437      -219.8799
  18   2.0000      -6.041268      -164.3913
  19   2.0000      -6.038928      -164.3276
  20   2.0000      -6.037545      -164.2900
  21   2.0000      -6.035055      -164.2222
  22   2.0000      -6.033539      -164.1810
  23   2.0000      -6.031216      -164.1177
  24   2.0000      -0.999258       -27.1912
  25   2.0000      -0.980559       -26.6824
  26   2.0000      -0.909972       -24.7616
  27   2.0000      -0.904024       -24.5998
  28   2.0000      -0.862109       -23.4592
  29   2.0000      -0.849363       -23.1123
  30   2.0000      -0.843839       -22.9620
  31   2.0000      -0.810790       -22.0627
  32   2.0000      -0.780716       -21.2443
  33   2.0000      -0.770211       -20.9585
  34   2.0000      -0.707288       -19.2463
  35   2.0000      -0.700820       -19.0703
  36   2.0000      -0.696614       -18.9558
  37   2.0000      -0.656768       -17.8716
  38   2.0000      -0.638428       -17.3725
  39   2.0000      -0.619855       -16.8671
  40   2.0000      -0.597377       -16.2554
  41   2.0000      -0.572796       -15.5866
  42   2.0000      -0.567201       -15.4343
  43   2.0000      -0.540940       -14.7197
  44   2.0000      -0.536283       -14.5930
  45   2.0000      -0.525692       -14.3048
  46   2.0000      -0.511162       -13.9094
  47   2.0000      -0.510161       -13.8822
  48   2.0000      -0.502982       -13.6868
  49   2.0000      -0.492188       -13.3931
  50   2.0000      -0.488469       -13.2919
  51   2.0000      -0.477285       -12.9876
  52   2.0000      -0.470012       -12.7897
  53   2.0000      -0.466184       -12.6855
  54   2.0000      -0.458800       -12.4846
  55   2.0000      -0.452114       -12.3026
  56   2.0000      -0.446757       -12.1569
  57   2.0000      -0.444310       -12.0903
  58   2.0000      -0.430074       -11.7029
  59   2.0000      -0.424862       -11.5611
  60   2.0000      -0.419636       -11.4189
  61   2.0000      -0.412862       -11.2345
  62   2.0000      -0.408175       -11.1070
  63   2.0000      -0.337805        -9.1921
  64   2.0000      -0.331060        -9.0086
  65   2.0000      -0.323142        -8.7931
  66   2.0000      -0.307548        -8.3688
  67   0.0000       0.040061         1.0901
  68   0.0000       0.053139         1.4460
  69   0.0000       0.113465         3.0875
  70   0.0000       0.119997         3.2653
  71   0.0000       0.121869         3.3162

MULLIKEN ATOMIC CHARGES
-----------------------
   0 S :    0.109511
   1 C :   -0.128588
   2 C :   -0.044521
   3 C :    0.035985
   4 C :   -0.172520
   5 H :    0.023707
   6 C :    0.021478
   7 H :    0.032477
   8 H :    0.025132
   9 C :   -0.063770
  10 H :    0.033554
  11 H :    0.016140
  12 C :   -0.063920
  13 H :    0.032617
  14 H :    0.031758
  15 H :    0.038139
  16 S :    0.113386
  17 C :   -0.067484
  18 C :   -0.037907
  19 C :   -0.001387
  20 C :   -0.197010
  21 H :    0.026850
  22 C :    0.052389
  23 H :    0.020874
  24 H :    0.033215
  25 C :   -0.064122
  26 H :    0.033778
  27 H :    0.031235
  28 C :   -0.046209
  29 H :    0.004216
  30 H :    0.043780
  31 H :    0.036603
  32 H :    0.052207
  33 H :    0.038405
Sum of atomic charges:   -0.0000000

LOEWDIN ATOMIC CHARGES
----------------------
   0 S :    0.377973
   1 C :   -0.176648
   2 C :   -0.069348
   3 C :   -0.056185
   4 C :   -0.186651
   5 H :    0.038118
   6 C :   -0.036026
   7 H :    0.035526
   8 H :    0.026034
   9 C :   -0.034214
  10 H :    0.024257
  11 H :    0.016388
  12 C :   -0.071235
  13 H :    0.025541
  14 H :    0.027030
  15 H :    0.024679
  16 S :    0.394774
  17 C :   -0.173543
  18 C :   -0.077320
  19 C :   -0.050086
  20 C :   -0.198477
  21 H :    0.035658
  22 C :   -0.028713
  23 H :    0.028132
  24 H :    0.035353
  25 C :   -0.033658
  26 H :    0.025170
  27 H :    0.021423
  28 C :   -0.065298
  29 H :    0.011354
  30 H :    0.030324
  31 H :    0.030909
  32 H :    0.027987
  33 H :    0.020774

  Mayer bond orders larger than 0.100000
B(  0-S ,  1-C ) :   1.1389 B(  0-S ,  4-C ) :   1.1336 B(  1-C ,  2-C ) :   1.5993
B(  1-C , 32-H ) :   0.9665 B(  2-C ,  3-C ) :   1.2487 B(  2-C ,  6-C ) :   1.0304
B(  3-C ,  4-C ) :   1.5889 B(  3-C ,  5-H ) :   0.9892 B(  4-C , 20-C ) :   1.0236
B(  6-C ,  7-H ) :   0.9429 B(  6-C ,  8-H ) :   0.9504 B(  6-C ,  9-C ) :   1.0645
B(  9-C , 10-H ) :   0.9650 B(  9-C , 11-H ) :   0.9632 B(  9-C , 12-C ) :   1.0459
B( 12-C , 13-H ) :   0.9820 B( 12-C , 14-H ) :   0.9795 B( 12-C , 15-H ) :   0.9795
B( 16-S , 17-C ) :   1.1618 B( 16-S , 20-C ) :   1.1257 B( 17-C , 18-C ) :   1.6101
B( 17-C , 33-H ) :   0.9700 B( 18-C , 19-C ) :   1.2516 B( 18-C , 21-H ) :   0.9839
B( 19-C , 20-C ) :   1.6159 B( 19-C , 22-C ) :   1.0246 B( 22-C , 23-H ) :   0.9354
B( 22-C , 24-H ) :   0.9358 B( 22-C , 25-C ) :   1.0708 B( 25-C , 26-H ) :   0.9556
B( 25-C , 27-H ) :   0.9574 B( 25-C , 28-C ) :   1.0719 B( 28-C , 29-H ) :   0.9744
B( 28-C , 30-H ) :   0.9738 B( 28-C , 31-H ) :   0.9727

Dispersion correction           -0.014461440
FINAL SINGLE POINT ENERGY     -1339.877590862423

DIPOLE MOMENT
-------------
                                X             Y             Z
Electronic contribution:     -8.71409       8.76685     -27.21231
Nuclear contribution   :      8.80527      -9.09617      27.80427
                        -----------------------------------------
Total Dipole Moment    :      0.09118      -0.32933       0.59196
                        -----------------------------------------
Magnitude (a.u.)       :      0.68351
Magnitude (Debye)      :      1.73734

Rotational constants in cm-1:     0.017313     0.009079     0.006878
Rotational constants in MHz :   519.039563   272.176546   206.197712

                             ****ORCA TERMINATED NORMALLY****
TOTAL RUN TIME: 0 days 0 hours 0 minutes 30 seconds 86 msec
