                         Program Version 4.2.1 -  RELEASE  -
|  1> ! wB97X-D3 SP def2-SVP
|  2> %pal
|  3> nprocs 16
|  4> end
|  5>
|  6> * xyz 0 1
|  7> S 	 -23.6864 	 46.4007 	 60.5863
|  8> C 	 -24.1225 	 48.0513 	 61.0904
|  9> C 	 -24.204 	 48.9998 	 60.0632
| 10> C 	 -23.9137 	 48.3317 	 58.8319
| 11> C 	 -23.6407 	 46.9487 	 58.9354
| 12> H 	 -23.7052 	 48.763 	 57.829
| 13> C 	 -24.4182 	 50.4882 	 60.0463
| 14> H 	 -23.5969 	 50.8375 	 59.4282
| 15> H 	 -24.1508 	 50.7541 	 61.0542
| 16> C 	 -25.7023 	 51.1436 	 59.6209
| 17> H 	 -25.6608 	 52.2048 	 59.872
| 18> H 	 -25.71 	 51.2658 	 58.5322
| 19> C 	 -26.9625 	 50.4249 	 60.0697
| 20> H 	 -27.0179 	 50.2331 	 61.1322
| 21> H 	 -27.8112 	 50.9923 	 59.7324
| 22> H 	 -27.1818 	 49.5567 	 59.4556
| 23> S 	 -21.4435 	 45.683 	 57.866
| 24> C 	 -21.4861 	 45.0557 	 56.2639
| 25> C 	 -22.7205 	 45.3013 	 55.6883
| 26> C 	 -23.6642 	 45.9157 	 56.5676
| 27> C 	 -23.1127 	 46.1806 	 57.7979
| 28> H 	 -22.9477 	 45.0355 	 54.7051
| 29> C 	 -25.0562 	 46.2955 	 56.0923
| 30> H 	 -25.171 	 46.2047 	 55.0446
| 31> H 	 -25.3177 	 47.3032 	 56.3958
| 32> C 	 -26.1658 	 45.4743 	 56.7579
| 33> H 	 -27.0942 	 45.9136 	 56.609
| 34> H 	 -26.0132 	 45.4948 	 57.8955
| 35> C 	 -26.2305 	 43.896 	 56.5254
| 36> H 	 -25.3351 	 43.5014 	 57.0782
| 37> H 	 -26.1358 	 43.7841 	 55.4586
| 38> H 	 -27.1779 	 43.3039 	 56.7782
| 39> H 	 -24.183 	 48.3842 	 62.1082
| 40> H 	 -20.6904 	 44.4617 	 55.7828
| 41> *
| 42>
| 43>                          ****END OF INPUT****

CARTESIAN COORDINATES (ANGSTROEM)
---------------------------------
  S    -23.686400   46.400700   60.586300
  C    -24.122500   48.051300   61.090400
  C    -24.204000   48.999800   60.063200
  C    -23.913700   48.331700   58.831900
  C    -23.640700   46.948700   58.935400
  H    -23.705200   48.763000   57.829000
  C    -24.418200   50.488200   60.046300
  H    -23.596900   50.837500   59.428200
  H    -24.150800   50.754100   61.054200
  C    -25.702300   51.143600   59.620900
  H    -25.660800   52.204800   59.872000
  H    -25.710000   51.265800   58.532200
  C    -26.962500   50.424900   60.069700
  H    -27.017900   50.233100   61.132200
  H    -27.811200   50.992300   59.732400
  H    -27.181800   49.556700   59.455600
  S    -21.443500   45.683000   57.866000
  C    -21.486100   45.055700   56.263900
  C    -22.720500   45.301300   55.688300
  C    -23.664200   45.915700   56.567600
  C    -23.112700   46.180600   57.797900
  H    -22.947700   45.035500   54.705100
  C    -25.056200   46.295500   56.092300
  H    -25.171000   46.204700   55.044600
  H    -25.317700   47.303200   56.395800
  C    -26.165800   45.474300   56.757900
  H    -27.094200   45.913600   56.609000
  H    -26.013200   45.494800   57.895500
  C    -26.230500   43.896000   56.525400
  H    -25.335100   43.501400   57.078200
  H    -26.135800   43.784100   55.458600
  H    -27.177900   43.303900   56.778200
  H    -24.183000   48.384200   62.108200
  H    -20.690400   44.461700   55.782800

 Total Charge           Charge          ....    0
 Multiplicity           Mult            ....    1
 Number of Electrons    NEL             ....  134
 Basis Dimension        Dim             ....  322

ORBITAL ENERGIES
----------------

  NO   OCC          E(Eh)            E(eV)
   0   2.0000     -88.973995     -2421.1055
   1   2.0000     -88.964323     -2420.8423
   2   2.0000     -10.328494      -281.0526
   3   2.0000     -10.322908      -280.9006
   4   2.0000     -10.318484      -280.7802
   5   2.0000     -10.316514      -280.7266
   6   2.0000     -10.305103      -280.4161
   7   2.0000     -10.300093      -280.2798
   8   2.0000     -10.295305      -280.1495
   9   2.0000     -10.290373      -280.0153
  10   2.0000     -10.289661      -279.9959
  11   2.0000     -10.288505      -279.9645
  12   2.0000     -10.287844      -279.9465
  13   2.0000     -10.281955      -279.7862
  14   2.0000     -10.280787      -279.7544
  15   2.0000     -10.273964      -279.5688
  16   2.0000      -8.087801      -220.0802
  17   2.0000      -8.079728      -219.8606
  18   2.0000      -6.046295      -164.5281
  19   2.0000      -6.042512      -164.4251
  20   2.0000      -6.038564      -164.3177
  21   2.0000      -6.038179      -164.3072
  22   2.0000      -6.034059      -164.1951
  23   2.0000      -6.030594      -164.1008
  24   2.0000      -1.006399       -27.3855
  25   2.0000      -0.982506       -26.7354
  26   2.0000      -0.917815       -24.9750
  27   2.0000      -0.904808       -24.6211
  28   2.0000      -0.866868       -23.5887
  29   2.0000      -0.850391       -23.1403
  30   2.0000      -0.841086       -22.8871
  31   2.0000      -0.806780       -21.9536
  32   2.0000      -0.789404       -21.4808
  33   2.0000      -0.776633       -21.1333
  34   2.0000      -0.710569       -19.3356
  35   2.0000      -0.702190       -19.1076
  36   2.0000      -0.683220       -18.5914
  37   2.0000      -0.665301       -18.1038
  38   2.0000      -0.635751       -17.2997
  39   2.0000      -0.613173       -16.6853
  40   2.0000      -0.595571       -16.2063
  41   2.0000      -0.562733       -15.3128
  42   2.0000      -0.561226       -15.2717
  43   2.0000      -0.546882       -14.8814
  44   2.0000      -0.545275       -14.8377
  45   2.0000      -0.541917       -14.7463
  46   2.0000      -0.516976       -14.0676
  47   2.0000      -0.509516       -13.8646
  48   2.0000      -0.499734       -13.5984
  49   2.0000      -0.490765       -13.3544
  50   2.0000      -0.488190       -13.2843
  51   2.0000      -0.478754       -13.0275
  52   2.0000      -0.471006       -12.8167
  53   2.0000      -0.463517       -12.6129
  54   2.0000      -0.459390       -12.5006
  55   2.0000      -0.451172       -12.2770
  56   2.0000      -0.441588       -12.0162
  57   2.0000      -0.437879       -11.9153
  58   2.0000      -0.434501       -11.8234
  59   2.0000      -0.432720       -11.7749
  60   2.0000      -0.417157       -11.3514
  61   2.0000      -0.407587       -11.0910
  62   2.0000      -0.398722       -10.8498
  63   2.0000      -0.337838        -9.1930
  64   2.0000      -0.331293        -9.0149
  65   2.0000      -0.329384        -8.9630
  66   2.0000      -0.297155        -8.0860
  67   0.0000       0.032364         0.8807
  68   0.0000       0.066773         1.8170
  69   0.0000       0.110732         3.0132
  70   0.0000       0.121548         3.3075
  71   0.0000       0.122965         3.3460

MULLIKEN ATOMIC CHARGES
-----------------------
   0 S :    0.129656
   1 C :   -0.114001
   2 C :   -0.104666
   3 C :    0.010090
   4 C :   -0.181866
   5 H :    0.033380
   6 C :    0.095376
   7 H :    0.030362
   8 H :    0.007366
   9 C :   -0.050279
  10 H :    0.027599
  11 H :    0.013707
  12 C :   -0.014653
  13 H :    0.040348
  14 H :    0.015993
  15 H :    0.031549
  16 S :    0.118516
  17 C :   -0.102357
  18 C :   -0.018362
  19 C :   -0.042853
  20 C :   -0.181284
  21 H :   -0.008867
  22 C :    0.150644
  23 H :    0.009618
  24 H :    0.022025
  25 C :   -0.114774
  26 H :    0.013565
  27 H :    0.043354
  28 C :   -0.091311
  29 H :    0.056151
  30 H :    0.017669
  31 H :    0.053619
  32 H :    0.034580
  33 H :    0.070103
Sum of atomic charges:   -0.0000000

LOEWDIN ATOMIC CHARGES
----------------------
   0 S :    0.407690
   1 C :   -0.188479
   2 C :   -0.058649
   3 C :   -0.061647
   4 C :   -0.210235
   5 H :    0.036015
   6 C :   -0.033319
   7 H :    0.038686
   8 H :    0.026896
   9 C :   -0.044525
  10 H :    0.029069
  11 H :    0.025206
  12 C :   -0.065351
  13 H :    0.025729
  14 H :    0.027103
  15 H :    0.032422
  16 S :    0.424157
  17 C :   -0.200022
  18 C :   -0.066357
  19 C :   -0.056641
  20 C :   -0.206498
  21 H :    0.019099
  22 C :   -0.020764
  23 H :    0.022933
  24 H :    0.035787
  25 C :   -0.040415
  26 H :    0.008732
  27 H :    0.031573
  28 C :   -0.081205
  29 H :    0.033646
  30 H :    0.013397
  31 H :    0.036780
  32 H :    0.021184
  33 H :    0.038000

  Mayer bond orders larger than 0.100000
B(  0-S ,  1-C ) :   1.1400 B(  0-S ,  4-C ) :   1.1446 B(  1-C ,  2-C ) :   1.6153
B(  1-C , 32-H ) :   0.9612 B(  2-C ,  3-C ) :   1.2352 B(  2-C ,  6-C ) :   1.0120
B(  3-C ,  4-C ) :   1.5865 B(  3-C ,  5-H ) :   0.9768 B(  4-C , 20-C ) :   1.0203
B(  6-C ,  7-H ) :   0.9366 B(  6-C ,  8-H ) :   0.9296 B(  6-C ,  9-C ) :   1.0771
B(  9-C , 10-H ) :   0.9502 B(  9-C , 11-H ) :   0.9457 B(  9-C , 12-C ) :   1.0935
B( 12-C , 13-H ) :   0.9791 B( 12-C , 14-H ) :   0.9654 B( 12-C , 15-H ) :   0.9623
B( 16-S , 17-C ) :   1.1661 B( 16-S , 20-C ) :   1.1570 B( 17-C , 18-C ) :   1.5819
B( 17-C , 33-H ) :   0.9653 B( 18-C , 19-C ) :   1.2606 B( 18-C , 21-H ) :   0.9995
B( 19-C , 20-C ) :   1.5912 B( 19-C , 22-C ) :   1.0479 B( 22-C , 23-H ) :   0.9348
B( 22-C , 24-H ) :   0.9227 B( 22-C , 25-C ) :   1.0669 B( 25-C , 26-H ) :   0.9617
B( 25-C , 27-H ) :   0.9643 B( 25-C , 28-C ) :   1.0446 B( 28-C , 29-H ) :   0.9782
B( 28-C , 30-H ) :   0.9793 B( 28-C , 31-H ) :   0.9774

Dispersion correction           -0.015083498
FINAL SINGLE POINT ENERGY     -1339.867225149850

DIPOLE MOMENT
-------------
                                X             Y             Z
Electronic contribution:     21.58283     -10.44148       6.15340
Nuclear contribution   :    -21.84164      10.98636      -6.47622
                        -----------------------------------------
Total Dipole Moment    :     -0.25882       0.54489      -0.32282
                        -----------------------------------------
Magnitude (a.u.)       :      0.68418
Magnitude (Debye)      :      1.73905

Rotational constants in cm-1:     0.019403     0.008758     0.007480
Rotational constants in MHz :   581.692618   262.556908   224.240157

                             ****ORCA TERMINATED NORMALLY****
TOTAL RUN TIME: 0 days 0 hours 0 minutes 35 seconds 618 msec
