                         Program Version 4.2.1 -  RELEASE  -
|  1> ! wB97X-D3 SP def2-SVP
|  2> %pal
|  3> nprocs 16
|  4> end
|  5>
|  6> * xyz 0 1
|  7> S 	 -43.605 	 36.8401 	 76.0592
|  8> C 	 -44.7395 	 36.8039 	 77.4204
|  9> C 	 -44.1123 	 36.9374 	 78.6707
| 10> C 	 -42.6769 	 37.1886 	 78.5131
| 11> C 	 -42.2942 	 37.2495 	 77.1789
| 12> H 	 -42.0602 	 37.4011 	 79.3219
| 13> C 	 -44.8543 	 37.0622 	 79.9539
| 14> H 	 -44.9721 	 36.1057 	 80.4733
| 15> H 	 -45.8901 	 37.2455 	 79.7493
| 16> C 	 -44.2643 	 38.1259 	 80.789
| 17> H 	 -43.2392 	 37.7423 	 81.1158
| 18> H 	 -44.1762 	 38.9937 	 80.182
| 19> C 	 -45.1418 	 38.4504 	 81.9743
| 20> H 	 -44.8257 	 39.3768 	 82.4215
| 21> H 	 -46.2132 	 38.5662 	 81.8051
| 22> H 	 -45.0207 	 37.61 	 82.6783
| 23> S 	 -40.8704 	 39.2597 	 75.9069
| 24> C 	 -39.0503 	 39.245 	 76.0512
| 25> C 	 -38.6783 	 38.1274 	 76.7602
| 26> C 	 -39.7426 	 37.3249 	 77.2563
| 27> C 	 -40.975 	 37.7571 	 76.7928
| 28> H 	 -37.6176 	 37.922 	 76.8599
| 29> C 	 -39.3461 	 35.9936 	 77.9819
| 30> H 	 -40.0995 	 35.7138 	 78.7336
| 31> H 	 -38.3888 	 36.0863 	 78.5256
| 32> C 	 -39.2298 	 34.6854 	 77.0978
| 33> H 	 -40.2552 	 34.5448 	 76.7122
| 34> H 	 -38.8579 	 33.833 	 77.6847
| 35> C 	 -38.2721 	 34.8548 	 75.9304
| 36> H 	 -38.32 	 35.8047 	 75.4024
| 37> H 	 -38.3672 	 34.0163 	 75.24
| 38> H 	 -37.2687 	 34.846 	 76.2898
| 39> H 	 -45.7892 	 36.7391 	 77.3313
| 40> H 	 -38.3294 	 39.7588 	 75.4154
| 41> *
| 42>
| 43>                          ****END OF INPUT****

CARTESIAN COORDINATES (ANGSTROEM)
---------------------------------
  S    -43.605000   36.840100   76.059200
  C    -44.739500   36.803900   77.420400
  C    -44.112300   36.937400   78.670700
  C    -42.676900   37.188600   78.513100
  C    -42.294200   37.249500   77.178900
  H    -42.060200   37.401100   79.321900
  C    -44.854300   37.062200   79.953900
  H    -44.972100   36.105700   80.473300
  H    -45.890100   37.245500   79.749300
  C    -44.264300   38.125900   80.789000
  H    -43.239200   37.742300   81.115800
  H    -44.176200   38.993700   80.182000
  C    -45.141800   38.450400   81.974300
  H    -44.825700   39.376800   82.421500
  H    -46.213200   38.566200   81.805100
  H    -45.020700   37.610000   82.678300
  S    -40.870400   39.259700   75.906900
  C    -39.050300   39.245000   76.051200
  C    -38.678300   38.127400   76.760200
  C    -39.742600   37.324900   77.256300
  C    -40.975000   37.757100   76.792800
  H    -37.617600   37.922000   76.859900
  C    -39.346100   35.993600   77.981900
  H    -40.099500   35.713800   78.733600
  H    -38.388800   36.086300   78.525600
  C    -39.229800   34.685400   77.097800
  H    -40.255200   34.544800   76.712200
  H    -38.857900   33.833000   77.684700
  C    -38.272100   34.854800   75.930400
  H    -38.320000   35.804700   75.402400
  H    -38.367200   34.016300   75.240000
  H    -37.268700   34.846000   76.289800
  H    -45.789200   36.739100   77.331300
  H    -38.329400   39.758800   75.415400

 Total Charge           Charge          ....    0
 Multiplicity           Mult            ....    1
 Number of Electrons    NEL             ....  134
 Basis Dimension        Dim             ....  322

ORBITAL ENERGIES
----------------

  NO   OCC          E(Eh)            E(eV)
   0   2.0000     -88.970681     -2421.0153
   1   2.0000     -88.966436     -2420.8998
   2   2.0000     -10.332634      -281.1653
   3   2.0000     -10.330397      -281.1044
   4   2.0000     -10.320107      -280.8244
   5   2.0000     -10.314655      -280.6760
   6   2.0000     -10.305271      -280.4207
   7   2.0000     -10.303764      -280.3797
   8   2.0000     -10.297433      -280.2074
   9   2.0000     -10.295484      -280.1543
  10   2.0000     -10.293949      -280.1126
  11   2.0000     -10.287128      -279.9270
  12   2.0000     -10.285395      -279.8798
  13   2.0000     -10.284888      -279.8660
  14   2.0000     -10.277302      -279.6596
  15   2.0000     -10.266437      -279.3639
  16   2.0000      -8.084429      -219.9885
  17   2.0000      -8.080101      -219.8707
  18   2.0000      -6.043086      -164.4407
  19   2.0000      -6.039136      -164.3332
  20   2.0000      -6.038832      -164.3250
  21   2.0000      -6.035042      -164.2218
  22   2.0000      -6.034765      -164.2143
  23   2.0000      -6.030655      -164.1025
  24   2.0000      -1.000397       -27.2222
  25   2.0000      -0.976909       -26.5831
  26   2.0000      -0.925744       -25.1908
  27   2.0000      -0.897757       -24.4292
  28   2.0000      -0.869566       -23.6621
  29   2.0000      -0.849427       -23.1141
  30   2.0000      -0.841996       -22.9119
  31   2.0000      -0.814924       -22.1752
  32   2.0000      -0.781439       -21.2640
  33   2.0000      -0.771565       -20.9954
  34   2.0000      -0.715235       -19.4625
  35   2.0000      -0.694604       -18.9011
  36   2.0000      -0.682025       -18.5589
  37   2.0000      -0.658986       -17.9319
  38   2.0000      -0.643281       -17.5046
  39   2.0000      -0.624628       -16.9970
  40   2.0000      -0.587435       -15.9849
  41   2.0000      -0.580531       -15.7970
  42   2.0000      -0.563231       -15.3263
  43   2.0000      -0.553123       -15.0513
  44   2.0000      -0.538143       -14.6436
  45   2.0000      -0.529545       -14.4097
  46   2.0000      -0.517322       -14.0770
  47   2.0000      -0.511774       -13.9261
  48   2.0000      -0.504129       -13.7180
  49   2.0000      -0.497418       -13.5354
  50   2.0000      -0.481236       -13.0951
  51   2.0000      -0.478473       -13.0199
  52   2.0000      -0.471992       -12.8435
  53   2.0000      -0.468494       -12.7484
  54   2.0000      -0.458523       -12.4770
  55   2.0000      -0.445666       -12.1272
  56   2.0000      -0.439710       -11.9651
  57   2.0000      -0.435132       -11.8405
  58   2.0000      -0.430910       -11.7257
  59   2.0000      -0.425106       -11.5677
  60   2.0000      -0.420586       -11.4447
  61   2.0000      -0.414152       -11.2697
  62   2.0000      -0.413563       -11.2536
  63   2.0000      -0.345502        -9.4016
  64   2.0000      -0.330433        -8.9915
  65   2.0000      -0.325957        -8.8697
  66   2.0000      -0.295771        -8.0484
  67   0.0000       0.024804         0.6750
  68   0.0000       0.067533         1.8377
  69   0.0000       0.111492         3.0339
  70   0.0000       0.113505         3.0886
  71   0.0000       0.124908         3.3989

MULLIKEN ATOMIC CHARGES
-----------------------
   0 S :    0.115285
   1 C :   -0.111899
   2 C :   -0.090656
   3 C :    0.062294
   4 C :   -0.155615
   5 H :   -0.003849
   6 C :    0.092640
   7 H :    0.029851
   8 H :   -0.003078
   9 C :   -0.119783
  10 H :    0.048231
  11 H :    0.036652
  12 C :   -0.020364
  13 H :    0.030043
  14 H :    0.030106
  15 H :    0.027590
  16 S :    0.098801
  17 C :   -0.099806
  18 C :   -0.046827
  19 C :   -0.022864
  20 C :   -0.151339
  21 H :    0.024911
  22 C :    0.039806
  23 H :    0.026527
  24 H :    0.025996
  25 C :   -0.068576
  26 H :    0.038905
  27 H :    0.039257
  28 C :   -0.051244
  29 H :    0.039049
  30 H :    0.034449
  31 H :    0.006990
  32 H :    0.032586
  33 H :    0.065933
Sum of atomic charges:    0.0000000

LOEWDIN ATOMIC CHARGES
----------------------
   0 S :    0.387082
   1 C :   -0.185984
   2 C :   -0.050428
   3 C :   -0.041193
   4 C :   -0.189788
   5 H :    0.019851
   6 C :   -0.039485
   7 H :    0.033625
   8 H :    0.025690
   9 C :   -0.041800
  10 H :    0.033617
  11 H :    0.023658
  12 C :   -0.062820
  13 H :    0.024688
  14 H :    0.025294
  15 H :    0.028252
  16 S :    0.380620
  17 C :   -0.177486
  18 C :   -0.064731
  19 C :   -0.064103
  20 C :   -0.191985
  21 H :    0.032283
  22 C :   -0.032533
  23 H :    0.028763
  24 H :    0.028018
  25 C :   -0.035594
  26 H :    0.026343
  27 H :    0.028797
  28 C :   -0.071385
  29 H :    0.025861
  30 H :    0.027081
  31 H :    0.016804
  32 H :    0.017876
  33 H :    0.035111

  Mayer bond orders larger than 0.100000
B(  0-S ,  1-C ) :   1.1223 B(  0-S ,  4-C ) :   1.1361 B(  1-C ,  2-C ) :   1.6335
B(  1-C , 32-H ) :   0.9703 B(  2-C ,  3-C ) :   1.2189 B(  2-C ,  6-C ) :   1.0307
B(  3-C ,  4-C ) :   1.5835 B(  3-C ,  5-H ) :   0.9955 B(  4-C , 20-C ) :   1.0288
B(  6-C ,  7-H ) :   0.9178 B(  6-C ,  8-H ) :   0.9362 B(  6-C ,  9-C ) :   1.0759
B(  9-C , 10-H ) :   0.9415 B(  9-C , 11-H ) :   0.9605 B(  9-C , 12-C ) :   1.0890
B( 12-C , 13-H ) :   0.9730 B( 12-C , 14-H ) :   0.9741 B( 12-C , 15-H ) :   0.9719
B( 16-S , 17-C ) :   1.1191 B( 16-S , 20-C ) :   1.1482 B( 17-C , 18-C ) :   1.6453
B( 17-C , 33-H ) :   0.9596 B( 18-C , 19-C ) :   1.2293 B( 18-C , 21-H ) :   0.9816
B( 19-C , 20-C ) :   1.6002 B( 19-C , 22-C ) :   1.0390 B( 22-C , 23-H ) :   0.9368
B( 22-C , 24-H ) :   0.9435 B( 22-C , 25-C ) :   1.0672 B( 25-C , 26-H ) :   0.9584
B( 25-C , 27-H ) :   0.9561 B( 25-C , 28-C ) :   1.0808 B( 28-C , 29-H ) :   0.9718
B( 28-C , 30-H ) :   0.9734 B( 28-C , 31-H ) :   0.9731

Dispersion correction           -0.014474024
FINAL SINGLE POINT ENERGY     -1339.871476707875

DIPOLE MOMENT
-------------
                                X             Y             Z
Electronic contribution:     -2.74657       9.06955     -18.34966
Nuclear contribution   :      2.79844      -9.25816      18.90358
                        -----------------------------------------
Total Dipole Moment    :      0.05187      -0.18860       0.55391
                        -----------------------------------------
Magnitude (a.u.)       :      0.58744
Magnitude (Debye)      :      1.49314

Rotational constants in cm-1:     0.019756     0.007678     0.007423
Rotational constants in MHz :   592.276923   230.168775   222.545763

                             ****ORCA TERMINATED NORMALLY****
TOTAL RUN TIME: 0 days 0 hours 0 minutes 30 seconds 721 msec
