                         Program Version 4.2.1 -  RELEASE  -
|  1> ! wB97X-D3 SP def2-SVP
|  2> %pal
|  3> nprocs 16
|  4> end
|  5>
|  6> * xyz 0 1
|  7> S 	 0.865447 	 17.0173 	 54.3668
|  8> C 	 0.141464 	 15.7471 	 53.386
|  9> C 	 -0.414632 	 16.3199 	 52.2916
| 10> C 	 -0.377898 	 17.7614 	 52.2828
| 11> C 	 0.363853 	 18.2949 	 53.281
| 12> H 	 -0.749729 	 18.4031 	 51.477
| 13> C 	 -1.21014 	 15.5249 	 51.1919
| 14> H 	 -0.520367 	 15.1224 	 50.369
| 15> H 	 -1.93532 	 16.2136 	 50.7053
| 16> C 	 -2.12519 	 14.4808 	 51.8539
| 17> H 	 -1.50632 	 13.9047 	 52.5144
| 18> H 	 -2.98101 	 14.9122 	 52.4261
| 19> C 	 -2.81429 	 13.573 	 50.8314
| 20> H 	 -3.72602 	 13.1032 	 51.2359
| 21> H 	 -3.22104 	 14.1118 	 50.0063
| 22> H 	 -2.19178 	 12.7466 	 50.5931
| 23> S 	 0.423688 	 20.284 	 55.0079
| 24> C 	 0.825478 	 21.9313 	 54.3706
| 25> C 	 1.23583 	 21.9577 	 53.0781
| 26> C 	 1.1398 	 20.6362 	 52.5156
| 27> C 	 0.833343 	 19.6584 	 53.4638
| 28> H 	 1.66007 	 22.8302 	 52.539
| 29> C 	 1.3616 	 20.5256 	 51.0671
| 30> H 	 0.780849 	 21.3035 	 50.5342
| 31> H 	 1.01411 	 19.6372 	 50.5908
| 32> C 	 2.76256 	 20.7032 	 50.5671
| 33> H 	 3.24237 	 21.6048 	 50.9818
| 34> H 	 2.62529 	 20.7398 	 49.4772
| 35> C 	 3.86658 	 19.6452 	 50.7729
| 36> H 	 4.87465 	 20.0769 	 50.9605
| 37> H 	 3.94071 	 18.8815 	 49.9678
| 38> H 	 3.6573 	 19.1281 	 51.695
| 39> H 	 -0.00748686 	 14.7431 	 53.6297
| 40> H 	 0.660811 	 22.9129 	 54.8867
| 41> *
| 42>
| 43>                          ****END OF INPUT****

CARTESIAN COORDINATES (ANGSTROEM)
---------------------------------
  S      0.865447   17.017300   54.366800
  C      0.141464   15.747100   53.386000
  C     -0.414632   16.319900   52.291600
  C     -0.377898   17.761400   52.282800
  C      0.363853   18.294900   53.281000
  H     -0.749729   18.403100   51.477000
  C     -1.210140   15.524900   51.191900
  H     -0.520367   15.122400   50.369000
  H     -1.935320   16.213600   50.705300
  C     -2.125190   14.480800   51.853900
  H     -1.506320   13.904700   52.514400
  H     -2.981010   14.912200   52.426100
  C     -2.814290   13.573000   50.831400
  H     -3.726020   13.103200   51.235900
  H     -3.221040   14.111800   50.006300
  H     -2.191780   12.746600   50.593100
  S      0.423688   20.284000   55.007900
  C      0.825478   21.931300   54.370600
  C      1.235830   21.957700   53.078100
  C      1.139800   20.636200   52.515600
  C      0.833343   19.658400   53.463800
  H      1.660070   22.830200   52.539000
  C      1.361600   20.525600   51.067100
  H      0.780849   21.303500   50.534200
  H      1.014110   19.637200   50.590800
  C      2.762560   20.703200   50.567100
  H      3.242370   21.604800   50.981800
  H      2.625290   20.739800   49.477200
  C      3.866580   19.645200   50.772900
  H      4.874650   20.076900   50.960500
  H      3.940710   18.881500   49.967800
  H      3.657300   19.128100   51.695000
  H     -0.007487   14.743100   53.629700
  H      0.660811   22.912900   54.886700

 Total Charge           Charge          ....    0
 Multiplicity           Mult            ....    1
 Number of Electrons    NEL             ....  134
 Basis Dimension        Dim             ....  322

ORBITAL ENERGIES
----------------

  NO   OCC          E(Eh)            E(eV)
   0   2.0000     -88.970311     -2421.0052
   1   2.0000     -88.960546     -2420.7395
   2   2.0000     -10.326450      -280.9970
   3   2.0000     -10.325807      -280.9795
   4   2.0000     -10.325376      -280.9678
   5   2.0000     -10.307276      -280.4752
   6   2.0000     -10.305516      -280.4273
   7   2.0000     -10.302056      -280.3332
   8   2.0000     -10.300009      -280.2775
   9   2.0000     -10.299047      -280.2513
  10   2.0000     -10.289895      -280.0023
  11   2.0000     -10.288134      -279.9544
  12   2.0000     -10.287266      -279.9307
  13   2.0000     -10.285661      -279.8871
  14   2.0000     -10.274714      -279.5892
  15   2.0000     -10.271971      -279.5145
  16   2.0000      -8.084804      -219.9987
  17   2.0000      -8.075429      -219.7436
  18   2.0000      -6.043492      -164.4518
  19   2.0000      -6.039463      -164.3421
  20   2.0000      -6.035243      -164.2273
  21   2.0000      -6.034176      -164.1983
  22   2.0000      -6.029853      -164.0807
  23   2.0000      -6.025988      -163.9755
  24   2.0000      -1.011404       -27.5217
  25   2.0000      -0.985838       -26.8260
  26   2.0000      -0.917937       -24.9783
  27   2.0000      -0.908031       -24.7088
  28   2.0000      -0.875360       -23.8197
  29   2.0000      -0.849945       -23.1282
  30   2.0000      -0.841338       -22.8940
  31   2.0000      -0.819085       -22.2884
  32   2.0000      -0.783818       -21.3288
  33   2.0000      -0.772625       -21.0242
  34   2.0000      -0.709835       -19.3156
  35   2.0000      -0.697524       -18.9806
  36   2.0000      -0.684494       -18.6260
  37   2.0000      -0.665673       -18.1139
  38   2.0000      -0.640373       -17.4254
  39   2.0000      -0.616829       -16.7848
  40   2.0000      -0.602424       -16.3928
  41   2.0000      -0.577342       -15.7103
  42   2.0000      -0.562378       -15.3031
  43   2.0000      -0.547719       -14.9042
  44   2.0000      -0.542900       -14.7731
  45   2.0000      -0.519238       -14.1292
  46   2.0000      -0.514853       -14.0099
  47   2.0000      -0.514366       -13.9966
  48   2.0000      -0.507674       -13.8145
  49   2.0000      -0.503726       -13.7071
  50   2.0000      -0.496327       -13.5058
  51   2.0000      -0.478419       -13.0184
  52   2.0000      -0.476133       -12.9562
  53   2.0000      -0.461505       -12.5582
  54   2.0000      -0.457702       -12.4547
  55   2.0000      -0.451943       -12.2980
  56   2.0000      -0.445764       -12.1299
  57   2.0000      -0.441225       -12.0063
  58   2.0000      -0.424670       -11.5559
  59   2.0000      -0.420780       -11.4500
  60   2.0000      -0.415976       -11.3193
  61   2.0000      -0.409983       -11.1562
  62   2.0000      -0.401100       -10.9145
  63   2.0000      -0.356825        -9.7097
  64   2.0000      -0.329976        -8.9791
  65   2.0000      -0.327738        -8.9182
  66   2.0000      -0.294926        -8.0253
  67   0.0000       0.030646         0.8339
  68   0.0000       0.073967         2.0127
  69   0.0000       0.096850         2.6354
  70   0.0000       0.113918         3.0999
  71   0.0000       0.134642         3.6638

MULLIKEN ATOMIC CHARGES
-----------------------
   0 S :    0.087817
   1 C :   -0.094148
   2 C :   -0.087587
   3 C :    0.011472
   4 C :   -0.133126
   5 H :    0.017686
   6 C :    0.033118
   7 H :    0.062544
   8 H :    0.026218
   9 C :   -0.111278
  10 H :    0.020084
  11 H :    0.047084
  12 C :   -0.025069
  13 H :    0.021082
  14 H :    0.023184
  15 H :    0.028292
  16 S :    0.107700
  17 C :   -0.094435
  18 C :   -0.044185
  19 C :   -0.049867
  20 C :   -0.100181
  21 H :    0.046414
  22 C :    0.079834
  23 H :    0.030377
  24 H :    0.002475
  25 C :   -0.099737
  26 H :    0.025758
  27 H :    0.030861
  28 C :   -0.058072
  29 H :    0.036243
  30 H :    0.037051
  31 H :    0.026357
  32 H :    0.027499
  33 H :    0.068535
Sum of atomic charges:   -0.0000000

LOEWDIN ATOMIC CHARGES
----------------------
   0 S :    0.388284
   1 C :   -0.188048
   2 C :   -0.060941
   3 C :   -0.075074
   4 C :   -0.190022
   5 H :    0.032628
   6 C :   -0.035723
   7 H :    0.041190
   8 H :    0.029380
   9 C :   -0.042490
  10 H :    0.013895
  11 H :    0.034072
  12 C :   -0.065158
  13 H :    0.028123
  14 H :    0.021104
  15 H :    0.021059
  16 S :    0.403084
  17 C :   -0.168022
  18 C :   -0.067809
  19 C :   -0.050574
  20 C :   -0.211598
  21 H :    0.044278
  22 C :   -0.040612
  23 H :    0.042010
  24 H :    0.024626
  25 C :   -0.043915
  26 H :    0.023005
  27 H :    0.028524
  28 C :   -0.074303
  29 H :    0.031350
  30 H :    0.026108
  31 H :    0.024193
  32 H :    0.018362
  33 H :    0.039013

  Mayer bond orders larger than 0.100000
B(  0-S ,  1-C ) :   1.1118 B(  0-S ,  4-C ) :   1.1398 B(  1-C ,  2-C ) :   1.6439
B(  1-C , 32-H ) :   0.9787 B(  2-C ,  3-C ) :   1.2294 B(  2-C ,  6-C ) :   0.9940
B(  3-C ,  4-C ) :   1.6161 B(  3-C ,  5-H ) :   0.9892 B(  4-C , 20-C ) :   0.9932
B(  6-C ,  7-H ) :   0.9451 B(  6-C ,  8-H ) :   0.9498 B(  6-C ,  9-C ) :   1.0574
B(  9-C , 10-H ) :   0.9592 B(  9-C , 11-H ) :   0.9625 B(  9-C , 12-C ) :   1.0861
B( 12-C , 13-H ) :   0.9739 B( 12-C , 14-H ) :   0.9725 B( 12-C , 15-H ) :   0.9764
B( 16-S , 17-C ) :   1.1337 B( 16-S , 20-C ) :   1.1286 B( 17-C , 18-C ) :   1.6574
B( 17-C , 33-H ) :   0.9560 B( 18-C , 19-C ) :   1.2033 B( 18-C , 21-H ) :   0.9806
B( 19-C , 20-C ) :   1.6247 B( 19-C , 22-C ) :   1.0614 B( 22-C , 23-H ) :   0.9255
B( 22-C , 24-H ) :   0.9290 B( 22-C , 25-C ) :   1.0786 B( 25-C , 26-H ) :   0.9609
B( 25-C , 27-H ) :   0.9567 B( 25-C , 28-C ) :   1.0673 B( 28-C , 29-H ) :   0.9779
B( 28-C , 30-H ) :   0.9778 B( 28-C , 31-H ) :   0.9745

Dispersion correction           -0.013778085
FINAL SINGLE POINT ENERGY     -1339.858250780152

DIPOLE MOMENT
-------------
                                X             Y             Z
Electronic contribution:      2.17383      10.02247      23.35763
Nuclear contribution   :     -2.43647      -9.83816     -24.05196
                        -----------------------------------------
Total Dipole Moment    :     -0.26264       0.18431      -0.69433
                        -----------------------------------------
Magnitude (a.u.)       :      0.76488
Magnitude (Debye)      :      1.94417

Rotational constants in cm-1:     0.021216     0.007574     0.006475
Rotational constants in MHz :   636.029142   227.048845   194.123002

                             ****ORCA TERMINATED NORMALLY****
TOTAL RUN TIME: 0 days 0 hours 0 minutes 34 seconds 401 msec
