                         Program Version 4.2.1 -  RELEASE  -
|  1> ! wB97X-D3 SP def2-SVP
|  2> %pal
|  3> nprocs 16
|  4> end
|  5>
|  6> * xyz 0 1
|  7> S 	 -29.0831 	 61.7917 	 106.476
|  8> C 	 -30.4107 	 62.6628 	 105.804
|  9> C 	 -31.6148 	 62.1379 	 106.263
| 10> C 	 -31.451 	 61.1739 	 107.274
| 11> C 	 -30.1339 	 60.7743 	 107.403
| 12> H 	 -32.2518 	 60.8521 	 107.895
| 13> C 	 -32.9814 	 62.6341 	 105.78
| 14> H 	 -33.6858 	 61.919 	 106.114
| 15> H 	 -32.7662 	 62.5747 	 104.673
| 16> C 	 -33.46 	 63.948 	 106.428
| 17> H 	 -33.2099 	 64.0327 	 107.476
| 18> H 	 -32.8747 	 64.7295 	 105.927
| 19> C 	 -34.9679 	 64.1945 	 106.122
| 20> H 	 -35.7262 	 63.6902 	 106.705
| 21> H 	 -35.2239 	 65.2719 	 106.205
| 22> H 	 -35.1437 	 64.0348 	 105.045
| 23> S 	 -30.2485 	 60.2533 	 110.187
| 24> C 	 -29.1404 	 59.113 	 110.85
| 25> C 	 -28.482 	 58.413 	 109.835
| 26> C 	 -28.7891 	 58.9257 	 108.521
| 27> C 	 -29.6927 	 60.0052 	 108.543
| 28> H 	 -27.8602 	 57.5213 	 110.077
| 29> C 	 -28.1091 	 58.3025 	 107.328
| 30> H 	 -27.0459 	 58.246 	 107.358
| 31> H 	 -28.4696 	 58.8615 	 106.532
| 32> C 	 -28.7338 	 56.9828 	 107.007
| 33> H 	 -29.8178 	 56.9783 	 107.04
| 34> H 	 -28.5053 	 56.3592 	 107.857
| 35> C 	 -28.3515 	 56.3679 	 105.589
| 36> H 	 -28.8121 	 55.3926 	 105.365
| 37> H 	 -27.2901 	 56.1841 	 105.765
| 38> H 	 -28.4267 	 57.0173 	 104.687
| 39> H 	 -30.4511 	 63.4685 	 105.12
| 40> H 	 -29.0363 	 58.8089 	 111.859
| 41> *
| 42>
| 43>                          ****END OF INPUT****

CARTESIAN COORDINATES (ANGSTROEM)
---------------------------------
  S    -29.083100   61.791700  106.476000
  C    -30.410700   62.662800  105.804000
  C    -31.614800   62.137900  106.263000
  C    -31.451000   61.173900  107.274000
  C    -30.133900   60.774300  107.403000
  H    -32.251800   60.852100  107.895000
  C    -32.981400   62.634100  105.780000
  H    -33.685800   61.919000  106.114000
  H    -32.766200   62.574700  104.673000
  C    -33.460000   63.948000  106.428000
  H    -33.209900   64.032700  107.476000
  H    -32.874700   64.729500  105.927000
  C    -34.967900   64.194500  106.122000
  H    -35.726200   63.690200  106.705000
  H    -35.223900   65.271900  106.205000
  H    -35.143700   64.034800  105.045000
  S    -30.248500   60.253300  110.187000
  C    -29.140400   59.113000  110.850000
  C    -28.482000   58.413000  109.835000
  C    -28.789100   58.925700  108.521000
  C    -29.692700   60.005200  108.543000
  H    -27.860200   57.521300  110.077000
  C    -28.109100   58.302500  107.328000
  H    -27.045900   58.246000  107.358000
  H    -28.469600   58.861500  106.532000
  C    -28.733800   56.982800  107.007000
  H    -29.817800   56.978300  107.040000
  H    -28.505300   56.359200  107.857000
  C    -28.351500   56.367900  105.589000
  H    -28.812100   55.392600  105.365000
  H    -27.290100   56.184100  105.765000
  H    -28.426700   57.017300  104.687000
  H    -30.451100   63.468500  105.120000
  H    -29.036300   58.808900  111.859000

 Total Charge           Charge          ....    0
 Multiplicity           Mult            ....    1
 Number of Electrons    NEL             ....  134
 Basis Dimension        Dim             ....  322

ORBITAL ENERGIES
----------------

  NO   OCC          E(Eh)            E(eV)
   0   2.0000     -88.971195     -2421.0293
   1   2.0000     -88.968407     -2420.9534
   2   2.0000     -10.325378      -280.9678
   3   2.0000     -10.324717      -280.9498
   4   2.0000     -10.313814      -280.6531
   5   2.0000     -10.308989      -280.5218
   6   2.0000     -10.301253      -280.3113
   7   2.0000     -10.295165      -280.1457
   8   2.0000     -10.295063      -280.1429
   9   2.0000     -10.292289      -280.0674
  10   2.0000     -10.292128      -280.0630
  11   2.0000     -10.288705      -279.9699
  12   2.0000     -10.282684      -279.8060
  13   2.0000     -10.281662      -279.7782
  14   2.0000     -10.280437      -279.7449
  15   2.0000     -10.276475      -279.6371
  16   2.0000      -8.085869      -220.0277
  17   2.0000      -8.082924      -219.9475
  18   2.0000      -6.044381      -164.4760
  19   2.0000      -6.041516      -164.3980
  20   2.0000      -6.040290      -164.3646
  21   2.0000      -6.037393      -164.2858
  22   2.0000      -6.036697      -164.2669
  23   2.0000      -6.033697      -164.1852
  24   2.0000      -1.010452       -27.4958
  25   2.0000      -0.986027       -26.8312
  26   2.0000      -0.914148       -24.8752
  27   2.0000      -0.910497       -24.7759
  28   2.0000      -0.869952       -23.6726
  29   2.0000      -0.852413       -23.1953
  30   2.0000      -0.840295       -22.8656
  31   2.0000      -0.812117       -22.0988
  32   2.0000      -0.782123       -21.2827
  33   2.0000      -0.769704       -20.9447
  34   2.0000      -0.707017       -19.2389
  35   2.0000      -0.706285       -19.2190
  36   2.0000      -0.696917       -18.9641
  37   2.0000      -0.659625       -17.9493
  38   2.0000      -0.640246       -17.4220
  39   2.0000      -0.613320       -16.6893
  40   2.0000      -0.596211       -16.2237
  41   2.0000      -0.575570       -15.6620
  42   2.0000      -0.570408       -15.5216
  43   2.0000      -0.561902       -15.2901
  44   2.0000      -0.530472       -14.4349
  45   2.0000      -0.519848       -14.1458
  46   2.0000      -0.514100       -13.9894
  47   2.0000      -0.507201       -13.8016
  48   2.0000      -0.504280       -13.7222
  49   2.0000      -0.496279       -13.5044
  50   2.0000      -0.491209       -13.3665
  51   2.0000      -0.485602       -13.2139
  52   2.0000      -0.475250       -12.9322
  53   2.0000      -0.470076       -12.7914
  54   2.0000      -0.461373       -12.5546
  55   2.0000      -0.450032       -12.2460
  56   2.0000      -0.447752       -12.1840
  57   2.0000      -0.441326       -12.0091
  58   2.0000      -0.429381       -11.6841
  59   2.0000      -0.421388       -11.4665
  60   2.0000      -0.415023       -11.2934
  61   2.0000      -0.411536       -11.1985
  62   2.0000      -0.402447       -10.9511
  63   2.0000      -0.345154        -9.3921
  64   2.0000      -0.332807        -9.0561
  65   2.0000      -0.328017        -8.9258
  66   2.0000      -0.288643        -7.8544
  67   0.0000       0.031316         0.8521
  68   0.0000       0.065228         1.7749
  69   0.0000       0.109438         2.9779
  70   0.0000       0.120496         3.2789
  71   0.0000       0.129277         3.5178

MULLIKEN ATOMIC CHARGES
-----------------------
   0 S :    0.139605
   1 C :   -0.099213
   2 C :   -0.134929
   3 C :   -0.003150
   4 C :   -0.127368
   5 H :    0.005984
   6 C :    0.058699
   7 H :    0.008949
   8 H :    0.055569
   9 C :   -0.047230
  10 H :    0.038982
  11 H :    0.021856
  12 C :   -0.062976
  13 H :    0.042703
  14 H :    0.029205
  15 H :    0.029585
  16 S :    0.121573
  17 C :   -0.081377
  18 C :   -0.050182
  19 C :   -0.089828
  20 C :   -0.133163
  21 H :    0.037243
  22 C :    0.164537
  23 H :    0.033318
  24 H :   -0.013035
  25 C :   -0.106112
  26 H :    0.027524
  27 H :    0.009576
  28 C :   -0.061727
  29 H :    0.042487
  30 H :    0.023649
  31 H :    0.049601
  32 H :    0.024193
  33 H :    0.045454
Sum of atomic charges:   -0.0000000

LOEWDIN ATOMIC CHARGES
----------------------
   0 S :    0.442949
   1 C :   -0.208401
   2 C :   -0.063420
   3 C :   -0.059088
   4 C :   -0.204134
   5 H :    0.026758
   6 C :   -0.035318
   7 H :    0.022235
   8 H :    0.044965
   9 C :   -0.036791
  10 H :    0.026828
  11 H :    0.025239
  12 C :   -0.074007
  13 H :    0.023516
  14 H :    0.029760
  15 H :    0.029237
  16 S :    0.421641
  17 C :   -0.193849
  18 C :   -0.077116
  19 C :   -0.048467
  20 C :   -0.206475
  21 H :    0.036976
  22 C :   -0.027953
  23 H :    0.028858
  24 H :    0.016864
  25 C :   -0.036777
  26 H :    0.022737
  27 H :    0.015627
  28 C :   -0.073513
  29 H :    0.028960
  30 H :    0.024147
  31 H :    0.031048
  32 H :    0.021819
  33 H :    0.025146

  Mayer bond orders larger than 0.100000
B(  0-S ,  1-C ) :   1.1519 B(  0-S ,  4-C ) :   1.1633 B(  1-C ,  2-C ) :   1.5797
B(  1-C , 32-H ) :   0.9727 B(  2-C ,  3-C ) :   1.2791 B(  2-C ,  6-C ) :   1.0062
B(  3-C ,  4-C ) :   1.5097 B(  3-C ,  5-H ) :   1.0066 B(  4-C , 20-C ) :   1.0652
B(  6-C ,  7-H ) :   0.9436 B(  6-C ,  8-H ) :   0.9411 B(  6-C ,  9-C ) :   1.0540
B(  9-C , 10-H ) :   0.9601 B(  9-C , 11-H ) :   0.9528 B(  9-C , 12-C ) :   1.0768
B( 12-C , 13-H ) :   0.9784 B( 12-C , 14-H ) :   0.9748 B( 12-C , 15-H ) :   0.9724
B( 16-S , 17-C ) :   1.1667 B( 16-S , 20-C ) :   1.1302 B( 17-C , 18-C ) :   1.5935
B( 17-C , 33-H ) :   0.9699 B( 18-C , 19-C ) :   1.2560 B( 18-C , 21-H ) :   0.9820
B( 19-C , 20-C ) :   1.5569 B( 19-C , 22-C ) :   1.0552 B( 22-C , 23-H ) :   0.9415
B( 22-C , 24-H ) :   0.9064 B( 22-C , 25-C ) :   1.0517 B( 25-C , 26-H ) :   0.9555
B( 25-C , 27-H ) :   0.9592 B( 25-C , 28-C ) :   1.0618 B( 28-C , 29-H ) :   0.9766
B( 28-C , 30-H ) :   0.9759 B( 28-C , 31-H ) :   0.9780

Dispersion correction           -0.013737668
FINAL SINGLE POINT ENERGY     -1339.857704995100

DIPOLE MOMENT
-------------
                                X             Y             Z
Electronic contribution:     10.53695       3.80790      13.26350
Nuclear contribution   :    -10.80622      -3.84172     -13.38938
                        -----------------------------------------
Total Dipole Moment    :     -0.26927      -0.03382      -0.12588
                        -----------------------------------------
Magnitude (a.u.)       :      0.29916
Magnitude (Debye)      :      0.76039

Rotational constants in cm-1:     0.020868     0.007370     0.006281
Rotational constants in MHz :   625.596385   220.955466   188.287332

                             ****ORCA TERMINATED NORMALLY****
TOTAL RUN TIME: 0 days 0 hours 0 minutes 27 seconds 291 msec
