                         Program Version 4.2.1 -  RELEASE  -
|  1> ! wB97X-D3 SP def2-SVP
|  2> %pal
|  3> nprocs 16
|  4> end
|  5>
|  6> * xyz 0 1
|  7> S 	 -117.318 	 44.6291 	 133.189
|  8> C 	 -117.89 	 45.3556 	 134.673
|  9> C 	 -116.854 	 46.1229 	 135.152
| 10> C 	 -115.767 	 46.296 	 134.299
| 11> C 	 -115.903 	 45.7138 	 133.06
| 12> H 	 -114.944 	 46.8597 	 134.591
| 13> C 	 -116.644 	 46.5379 	 136.633
| 14> H 	 -117.461 	 47.168 	 136.841
| 15> H 	 -115.791 	 47.2144 	 136.678
| 16> C 	 -116.726 	 45.3674 	 137.554
| 17> H 	 -116.687 	 45.6685 	 138.601
| 18> H 	 -117.778 	 44.9426 	 137.357
| 19> C 	 -115.624 	 44.374 	 137.309
| 20> H 	 -114.739 	 44.9214 	 136.99
| 21> H 	 -115.383 	 43.7298 	 138.071
| 22> H 	 -115.993 	 43.7404 	 136.486
| 23> S 	 -114.506 	 44.2397 	 131.276
| 24> C 	 -114.104 	 45.0409 	 129.768
| 25> C 	 -113.947 	 46.3375 	 129.97
| 26> C 	 -114.473 	 46.8334 	 131.209
| 27> C 	 -114.928 	 45.7587 	 131.994
| 28> H 	 -113.573 	 47.0007 	 129.146
| 29> C 	 -114.566 	 48.2868 	 131.463
| 30> H 	 -113.559 	 48.6372 	 131.482
| 31> H 	 -114.917 	 48.4402 	 132.459
| 32> C 	 -115.317 	 49.1525 	 130.406
| 33> H 	 -115.042 	 48.8745 	 129.39
| 34> H 	 -115.001 	 50.1834 	 130.52
| 35> C 	 -116.81 	 48.8511 	 130.629
| 36> H 	 -117.216 	 48.5309 	 131.565
| 37> H 	 -116.955 	 47.9399 	 130.04
| 38> H 	 -117.449 	 49.6853 	 130.338
| 39> H 	 -118.785 	 45.0293 	 135.13
| 40> H 	 -113.703 	 44.564 	 128.954
| 41> *
| 42>
| 43>                          ****END OF INPUT****

CARTESIAN COORDINATES (ANGSTROEM)
---------------------------------
  S    -117.318000   44.629100  133.189000
  C    -117.890000   45.355600  134.673000
  C    -116.854000   46.122900  135.152000
  C    -115.767000   46.296000  134.299000
  C    -115.903000   45.713800  133.060000
  H    -114.944000   46.859700  134.591000
  C    -116.644000   46.537900  136.633000
  H    -117.461000   47.168000  136.841000
  H    -115.791000   47.214400  136.678000
  C    -116.726000   45.367400  137.554000
  H    -116.687000   45.668500  138.601000
  H    -117.778000   44.942600  137.357000
  C    -115.624000   44.374000  137.309000
  H    -114.739000   44.921400  136.990000
  H    -115.383000   43.729800  138.071000
  H    -115.993000   43.740400  136.486000
  S    -114.506000   44.239700  131.276000
  C    -114.104000   45.040900  129.768000
  C    -113.947000   46.337500  129.970000
  C    -114.473000   46.833400  131.209000
  C    -114.928000   45.758700  131.994000
  H    -113.573000   47.000700  129.146000
  C    -114.566000   48.286800  131.463000
  H    -113.559000   48.637200  131.482000
  H    -114.917000   48.440200  132.459000
  C    -115.317000   49.152500  130.406000
  H    -115.042000   48.874500  129.390000
  H    -115.001000   50.183400  130.520000
  C    -116.810000   48.851100  130.629000
  H    -117.216000   48.530900  131.565000
  H    -116.955000   47.939900  130.040000
  H    -117.449000   49.685300  130.338000
  H    -118.785000   45.029300  135.130000
  H    -113.703000   44.564000  128.954000

 Total Charge           Charge          ....    0
 Multiplicity           Mult            ....    1
 Number of Electrons    NEL             ....  134
 Basis Dimension        Dim             ....  322

ORBITAL ENERGIES
----------------

  NO   OCC          E(Eh)            E(eV)
   0   2.0000     -88.964254     -2420.8404
   1   2.0000     -88.960327     -2420.7336
   2   2.0000     -10.330608      -281.1101
   3   2.0000     -10.325649      -280.9752
   4   2.0000     -10.313107      -280.6339
   5   2.0000     -10.305734      -280.4333
   6   2.0000     -10.304738      -280.4062
   7   2.0000     -10.294678      -280.1324
   8   2.0000     -10.291423      -280.0438
   9   2.0000     -10.289386      -279.9884
  10   2.0000     -10.286385      -279.9068
  11   2.0000     -10.284660      -279.8598
  12   2.0000     -10.283553      -279.8297
  13   2.0000     -10.282667      -279.8056
  14   2.0000     -10.268820      -279.4288
  15   2.0000     -10.263911      -279.2952
  16   2.0000      -8.078274      -219.8210
  17   2.0000      -8.075919      -219.7569
  18   2.0000      -6.036852      -164.2711
  19   2.0000      -6.034498      -164.2070
  20   2.0000      -6.032908      -164.1638
  21   2.0000      -6.030477      -164.0976
  22   2.0000      -6.028933      -164.0556
  23   2.0000      -6.026385      -163.9863
  24   2.0000      -1.011192       -27.5159
  25   2.0000      -0.990315       -26.9478
  26   2.0000      -0.917273       -24.9603
  27   2.0000      -0.912739       -24.8369
  28   2.0000      -0.875687       -23.8287
  29   2.0000      -0.849542       -23.1172
  30   2.0000      -0.843301       -22.9474
  31   2.0000      -0.819450       -22.2984
  32   2.0000      -0.783665       -21.3246
  33   2.0000      -0.773734       -21.0544
  34   2.0000      -0.713750       -19.4221
  35   2.0000      -0.707064       -19.2402
  36   2.0000      -0.693098       -18.8601
  37   2.0000      -0.657690       -17.8967
  38   2.0000      -0.646496       -17.5921
  39   2.0000      -0.617723       -16.8091
  40   2.0000      -0.603197       -16.4138
  41   2.0000      -0.576197       -15.6791
  42   2.0000      -0.560816       -15.2606
  43   2.0000      -0.558035       -15.1849
  44   2.0000      -0.546792       -14.8790
  45   2.0000      -0.531665       -14.4673
  46   2.0000      -0.520910       -14.1747
  47   2.0000      -0.515135       -14.0175
  48   2.0000      -0.506858       -13.7923
  49   2.0000      -0.497474       -13.5369
  50   2.0000      -0.490498       -13.3471
  51   2.0000      -0.481665       -13.1068
  52   2.0000      -0.472431       -12.8555
  53   2.0000      -0.469386       -12.7726
  54   2.0000      -0.459311       -12.4985
  55   2.0000      -0.447059       -12.1651
  56   2.0000      -0.444668       -12.1000
  57   2.0000      -0.438458       -11.9311
  58   2.0000      -0.426994       -11.6191
  59   2.0000      -0.424740       -11.5578
  60   2.0000      -0.417645       -11.3647
  61   2.0000      -0.407342       -11.0843
  62   2.0000      -0.402608       -10.9555
  63   2.0000      -0.351795        -9.5728
  64   2.0000      -0.328594        -8.9415
  65   2.0000      -0.326318        -8.8796
  66   2.0000      -0.288482        -7.8500
  67   0.0000       0.021678         0.5899
  68   0.0000       0.065649         1.7864
  69   0.0000       0.105704         2.8764
  70   0.0000       0.122007         3.3200
  71   0.0000       0.142101         3.8668

MULLIKEN ATOMIC CHARGES
-----------------------
   0 S :    0.100981
   1 C :   -0.134851
   2 C :   -0.085404
   3 C :    0.037379
   4 C :   -0.110885
   5 H :   -0.010573
   6 C :    0.099443
   7 H :    0.011121
   8 H :    0.014713
   9 C :   -0.093102
  10 H :    0.028747
  11 H :    0.030291
  12 C :   -0.004364
  13 H :    0.025191
  14 H :    0.017272
  15 H :    0.037043
  16 S :    0.088628
  17 C :   -0.048874
  18 C :   -0.050996
  19 C :   -0.050129
  20 C :   -0.179195
  21 H :    0.037206
  22 C :    0.087120
  23 H :    0.021348
  24 H :    0.007312
  25 C :   -0.049460
  26 H :    0.028115
  27 H :    0.027952
  28 C :   -0.053600
  29 H :    0.029836
  30 H :    0.037505
  31 H :    0.035860
  32 H :    0.043323
  33 H :    0.025046
Sum of atomic charges:    0.0000000

LOEWDIN ATOMIC CHARGES
----------------------
   0 S :    0.396639
   1 C :   -0.190680
   2 C :   -0.063591
   3 C :   -0.063126
   4 C :   -0.180374
   5 H :    0.019179
   6 C :   -0.028369
   7 H :    0.026010
   8 H :    0.024380
   9 C :   -0.043202
  10 H :    0.021548
  11 H :    0.029264
  12 C :   -0.060401
  13 H :    0.026769
  14 H :    0.012729
  15 H :    0.033948
  16 S :    0.396706
  17 C :   -0.164221
  18 C :   -0.072864
  19 C :   -0.048156
  20 C :   -0.202621
  21 H :    0.039300
  22 C :   -0.029133
  23 H :    0.031644
  24 H :    0.025840
  25 C :   -0.028965
  26 H :    0.022628
  27 H :    0.020935
  28 C :   -0.069995
  29 H :    0.023654
  30 H :    0.034865
  31 H :    0.025038
  32 H :    0.021441
  33 H :    0.013182

  Mayer bond orders larger than 0.100000
B(  0-S ,  1-C ) :   1.1415 B(  0-S ,  4-C ) :   1.1484 B(  1-C ,  2-C ) :   1.5542
B(  1-C ,  4-C ) :   0.1053 B(  1-C , 32-H ) :   0.9852 B(  2-C ,  3-C ) :   1.2934
B(  2-C ,  6-C ) :   1.0035 B(  3-C ,  4-C ) :   1.5120 B(  3-C ,  5-H ) :   1.0063
B(  4-C , 20-C ) :   1.0677 B(  6-C ,  7-H ) :   0.9255 B(  6-C ,  8-H ) :   0.9469
B(  6-C ,  9-C ) :   1.0840 B(  9-C , 10-H ) :   0.9550 B(  9-C , 11-H ) :   0.9530
B(  9-C , 12-C ) :   1.0692 B( 12-C , 13-H ) :   0.9761 B( 12-C , 14-H ) :   0.9754
B( 12-C , 15-H ) :   0.9686 B( 16-S , 17-C ) :   1.1282 B( 16-S , 20-C ) :   1.1390
B( 17-C , 18-C ) :   1.6545 B( 17-C , 33-H ) :   0.9710 B( 18-C , 19-C ) :   1.2207
B( 18-C , 21-H ) :   0.9767 B( 19-C , 20-C ) :   1.5755 B( 19-C , 22-C ) :   1.0558
B( 22-C , 23-H ) :   0.9179 B( 22-C , 24-H ) :   0.9328 B( 22-C , 25-C ) :   1.0755
B( 25-C , 26-H ) :   0.9608 B( 25-C , 27-H ) :   0.9596 B( 25-C , 28-C ) :   1.0422
B( 28-C , 29-H ) :   0.9822 B( 28-C , 30-H ) :   0.9763 B( 28-C , 31-H ) :   0.9773

Dispersion correction           -0.015471585
FINAL SINGLE POINT ENERGY     -1339.842411306148

DIPOLE MOMENT
-------------
                                X             Y             Z
Electronic contribution:      1.54137     -14.63180     -10.73259
Nuclear contribution   :     -1.34171      15.14074      10.90182
                        -----------------------------------------
Total Dipole Moment    :      0.19966       0.50893       0.16923
                        -----------------------------------------
Magnitude (a.u.)       :      0.57229
Magnitude (Debye)      :      1.45465

Rotational constants in cm-1:     0.022217     0.008608     0.007419
Rotational constants in MHz :   666.042993   258.066302   222.406120

                             ****ORCA TERMINATED NORMALLY****
TOTAL RUN TIME: 0 days 0 hours 0 minutes 35 seconds 589 msec
