                         Program Version 4.2.1 -  RELEASE  -
|  1> ! wB97X-D3 SP def2-SVP
|  2> %pal
|  3> nprocs 16
|  4> end
|  5>
|  6> * xyz 0 1
|  7> S 	 -20.0605 	 2.06857 	 74.0801
|  8> C 	 -18.7569 	 0.927773 	 74.4255
|  9> C 	 -19.205 	 -0.200966 	 75.0818
| 10> C 	 -20.5221 	 0.0556222 	 75.6031
| 11> C 	 -21.0754 	 1.25264 	 75.196
| 12> H 	 -21.1719 	 -0.611205 	 76.0264
| 13> C 	 -18.4978 	 -1.53286 	 75.1972
| 14> H 	 -18.2421 	 -1.54234 	 76.3185
| 15> H 	 -17.5197 	 -1.32504 	 74.7132
| 16> C 	 -19.2894 	 -2.78858 	 74.8355
| 17> H 	 -19.9954 	 -2.59198 	 74.0463
| 18> H 	 -18.6953 	 -3.59586 	 74.491
| 19> C 	 -20.0912 	 -3.40261 	 75.9859
| 20> H 	 -21.0216 	 -2.83148 	 76.1236
| 21> H 	 -20.385 	 -4.48065 	 75.8332
| 22> H 	 -19.5549 	 -3.41805 	 76.8692
| 23> S 	 -22.2626 	 3.26824 	 76.6484
| 24> C 	 -24.001 	 3.32418 	 76.5694
| 25> C 	 -24.5714 	 2.20661 	 76.0616
| 26> C 	 -23.6019 	 1.34146 	 75.4712
| 27> C 	 -22.3094 	 1.79915 	 75.707
| 28> H 	 -25.6299 	 2.21092 	 75.9795
| 29> C 	 -23.9843 	 0.334726 	 74.3915
| 30> H 	 -23.2093 	 -0.0441216 	 73.7733
| 31> H 	 -24.7483 	 0.677791 	 73.7017
| 32> C 	 -24.3829 	 -0.933446 	 75.1373
| 33> H 	 -25.2364 	 -0.810049 	 75.7591
| 34> H 	 -23.5629 	 -1.21537 	 75.8522
| 35> C 	 -24.5689 	 -2.09956 	 74.1912
| 36> H 	 -25.1666 	 -2.02909 	 73.2693
| 37> H 	 -25.0337 	 -2.87256 	 74.745
| 38> H 	 -23.5648 	 -2.50318 	 73.952
| 39> H 	 -17.7751 	 0.980211 	 73.986
| 40> H 	 -24.6054 	 4.05601 	 77.0085
| 41> *
| 42>
| 43>                          ****END OF INPUT****

CARTESIAN COORDINATES (ANGSTROEM)
---------------------------------
  S    -20.060500    2.068570   74.080100
  C    -18.756900    0.927773   74.425500
  C    -19.205000   -0.200966   75.081800
  C    -20.522100    0.055622   75.603100
  C    -21.075400    1.252640   75.196000
  H    -21.171900   -0.611205   76.026400
  C    -18.497800   -1.532860   75.197200
  H    -18.242100   -1.542340   76.318500
  H    -17.519700   -1.325040   74.713200
  C    -19.289400   -2.788580   74.835500
  H    -19.995400   -2.591980   74.046300
  H    -18.695300   -3.595860   74.491000
  C    -20.091200   -3.402610   75.985900
  H    -21.021600   -2.831480   76.123600
  H    -20.385000   -4.480650   75.833200
  H    -19.554900   -3.418050   76.869200
  S    -22.262600    3.268240   76.648400
  C    -24.001000    3.324180   76.569400
  C    -24.571400    2.206610   76.061600
  C    -23.601900    1.341460   75.471200
  C    -22.309400    1.799150   75.707000
  H    -25.629900    2.210920   75.979500
  C    -23.984300    0.334726   74.391500
  H    -23.209300   -0.044122   73.773300
  H    -24.748300    0.677791   73.701700
  C    -24.382900   -0.933446   75.137300
  H    -25.236400   -0.810049   75.759100
  H    -23.562900   -1.215370   75.852200
  C    -24.568900   -2.099560   74.191200
  H    -25.166600   -2.029090   73.269300
  H    -25.033700   -2.872560   74.745000
  H    -23.564800   -2.503180   73.952000
  H    -17.775100    0.980211   73.986000
  H    -24.605400    4.056010   77.008500

 Total Charge           Charge          ....    0
 Multiplicity           Mult            ....    1
 Number of Electrons    NEL             ....  134
 Basis Dimension        Dim             ....  322

ORBITAL ENERGIES
----------------

  NO   OCC          E(Eh)            E(eV)
   0   2.0000     -88.964578     -2420.8492
   1   2.0000     -88.964086     -2420.8359
   2   2.0000     -10.320113      -280.8245
   3   2.0000     -10.319685      -280.8129
   4   2.0000     -10.310452      -280.5617
   5   2.0000     -10.307931      -280.4931
   6   2.0000     -10.302467      -280.3444
   7   2.0000     -10.302090      -280.3341
   8   2.0000     -10.300508      -280.2911
   9   2.0000     -10.287422      -279.9350
  10   2.0000     -10.287401      -279.9344
  11   2.0000     -10.285498      -279.8826
  12   2.0000     -10.282839      -279.8103
  13   2.0000     -10.282443      -279.7995
  14   2.0000     -10.278858      -279.7019
  15   2.0000     -10.273756      -279.5631
  16   2.0000      -8.079729      -219.8606
  17   2.0000      -8.079233      -219.8471
  18   2.0000      -6.038122      -164.3056
  19   2.0000      -6.037744      -164.2954
  20   2.0000      -6.034334      -164.2026
  21   2.0000      -6.033824      -164.1887
  22   2.0000      -6.030421      -164.0961
  23   2.0000      -6.029830      -164.0800
  24   2.0000      -1.009187       -27.4614
  25   2.0000      -0.985740       -26.8233
  26   2.0000      -0.915216       -24.9043
  27   2.0000      -0.914613       -24.8879
  28   2.0000      -0.873056       -23.7571
  29   2.0000      -0.851378       -23.1672
  30   2.0000      -0.847803       -23.0699
  31   2.0000      -0.817636       -22.2490
  32   2.0000      -0.785509       -21.3748
  33   2.0000      -0.772133       -21.0108
  34   2.0000      -0.711510       -19.3612
  35   2.0000      -0.700209       -19.0537
  36   2.0000      -0.695244       -18.9186
  37   2.0000      -0.660293       -17.9675
  38   2.0000      -0.643918       -17.5219
  39   2.0000      -0.619877       -16.8677
  40   2.0000      -0.603755       -16.4290
  41   2.0000      -0.573820       -15.6144
  42   2.0000      -0.568613       -15.4727
  43   2.0000      -0.551561       -15.0087
  44   2.0000      -0.539319       -14.6756
  45   2.0000      -0.524415       -14.2700
  46   2.0000      -0.518018       -14.0960
  47   2.0000      -0.509378       -13.8609
  48   2.0000      -0.507306       -13.8045
  49   2.0000      -0.496410       -13.5080
  50   2.0000      -0.494073       -13.4444
  51   2.0000      -0.483447       -13.1553
  52   2.0000      -0.470770       -12.8103
  53   2.0000      -0.462547       -12.5865
  54   2.0000      -0.459160       -12.4944
  55   2.0000      -0.451135       -12.2760
  56   2.0000      -0.443969       -12.0810
  57   2.0000      -0.441658       -12.0181
  58   2.0000      -0.438338       -11.9278
  59   2.0000      -0.427648       -11.6369
  60   2.0000      -0.421682       -11.4745
  61   2.0000      -0.419220       -11.4076
  62   2.0000      -0.412306       -11.2194
  63   2.0000      -0.337851        -9.1934
  64   2.0000      -0.326250        -8.8777
  65   2.0000      -0.322524        -8.7763
  66   2.0000      -0.298316        -8.1176
  67   0.0000       0.035653         0.9702
  68   0.0000       0.069423         1.8891
  69   0.0000       0.103895         2.8271
  70   0.0000       0.114771         3.1231
  71   0.0000       0.125245         3.4081

MULLIKEN ATOMIC CHARGES
-----------------------
   0 S :    0.124965
   1 C :   -0.135205
   2 C :   -0.096537
   3 C :    0.090328
   4 C :   -0.182239
   5 H :   -0.058170
   6 C :    0.058572
   7 H :    0.050790
   8 H :    0.022707
   9 C :   -0.023206
  10 H :    0.033223
  11 H :    0.026914
  12 C :   -0.067031
  13 H :    0.035497
  14 H :    0.037717
  15 H :    0.016580
  16 S :    0.126362
  17 C :   -0.071825
  18 C :   -0.020402
  19 C :   -0.014319
  20 C :   -0.174048
  21 H :    0.009105
  22 C :    0.112790
  23 H :    0.009993
  24 H :    0.033951
  25 C :   -0.124488
  26 H :    0.018438
  27 H :    0.033653
  28 C :   -0.025538
  29 H :    0.037298
  30 H :    0.015129
  31 H :    0.029715
  32 H :    0.038957
  33 H :    0.030324
Sum of atomic charges:   -0.0000000

LOEWDIN ATOMIC CHARGES
----------------------
   0 S :    0.412417
   1 C :   -0.196991
   2 C :   -0.059154
   3 C :   -0.055718
   4 C :   -0.204107
   5 H :    0.008744
   6 C :   -0.037292
   7 H :    0.045058
   8 H :    0.034232
   9 C :   -0.038412
  10 H :    0.026822
  11 H :    0.025976
  12 C :   -0.060830
  13 H :    0.022825
  14 H :    0.034226
  15 H :    0.012490
  16 S :    0.410686
  17 C :   -0.172376
  18 C :   -0.066389
  19 C :   -0.046064
  20 C :   -0.205175
  21 H :    0.028644
  22 C :   -0.022873
  23 H :    0.025219
  24 H :    0.031161
  25 C :   -0.038873
  26 H :    0.013228
  27 H :    0.029472
  28 C :   -0.071932
  29 H :    0.027197
  30 H :    0.021388
  31 H :    0.027571
  32 H :    0.021823
  33 H :    0.017007

  Mayer bond orders larger than 0.100000
B(  0-S ,  1-C ) :   1.1354 B(  0-S ,  4-C ) :   1.1578 B(  1-C ,  2-C ) :   1.6212
B(  1-C , 32-H ) :   0.9629 B(  2-C ,  3-C ) :   1.2143 B(  2-C ,  6-C ) :   1.0212
B(  3-C ,  4-C ) :   1.5926 B(  3-C ,  5-H ) :   1.0003 B(  4-C , 20-C ) :   1.0305
B(  6-C ,  7-H ) :   0.9408 B(  6-C ,  8-H ) :   0.9366 B(  6-C ,  9-C ) :   1.0402
B(  9-C , 10-H ) :   0.9626 B(  9-C , 11-H ) :   0.9566 B(  9-C , 12-C ) :   1.0739
B( 12-C , 13-H ) :   0.9776 B( 12-C , 14-H ) :   0.9713 B( 12-C , 15-H ) :   0.9745
B( 16-S , 17-C ) :   1.1441 B( 16-S , 20-C ) :   1.1407 B( 17-C , 18-C ) :   1.6644
B( 17-C , 33-H ) :   0.9665 B( 18-C , 19-C ) :   1.2088 B( 18-C , 21-H ) :   0.9898
B( 19-C , 20-C ) :   1.6138 B( 19-C , 22-C ) :   1.0446 B( 22-C , 23-H ) :   0.9326
B( 22-C , 24-H ) :   0.9476 B( 22-C , 25-C ) :   1.0377 B( 25-C , 26-H ) :   0.9621
B( 25-C , 27-H ) :   0.9527 B( 25-C , 28-C ) :   1.0851 B( 28-C , 29-H ) :   0.9730
B( 28-C , 30-H ) :   0.9682 B( 28-C , 31-H ) :   0.9718

Dispersion correction           -0.015297849
FINAL SINGLE POINT ENERGY     -1339.854439733613

DIPOLE MOMENT
-------------
                                X             Y             Z
Electronic contribution:      5.18170      30.34146       2.43359
Nuclear contribution   :     -5.43064     -30.98504      -2.57098
                        -----------------------------------------
Total Dipole Moment    :     -0.24894      -0.64358      -0.13739
                        -----------------------------------------
Magnitude (a.u.)       :      0.70359
Magnitude (Debye)      :      1.78838

Rotational constants in cm-1:     0.016841     0.010565     0.007472
Rotational constants in MHz :   504.883098   316.718568   223.995903

                             ****ORCA TERMINATED NORMALLY****
TOTAL RUN TIME: 0 days 0 hours 0 minutes 36 seconds 238 msec
