                         Program Version 4.2.1 -  RELEASE  -
|  1> ! wB97X-D3 SP def2-SVP
|  2> %pal
|  3> nprocs 16
|  4> end
|  5>
|  6> * xyz 0 1
|  7> S 	 14.2782 	 -14.0077 	 79.6044
|  8> C 	 15.1582 	 -13.9942 	 78.0998
|  9> C 	 14.4559 	 -14.6441 	 77.1429
| 10> C 	 13.0531 	 -14.8209 	 77.4438
| 11> C 	 12.8409 	 -14.5625 	 78.8043
| 12> H 	 12.19 	 -15.0026 	 76.783
| 13> C 	 14.937 	 -14.9298 	 75.6708
| 14> H 	 14.2625 	 -15.6325 	 75.1693
| 15> H 	 15.884 	 -15.4686 	 75.6451
| 16> C 	 15.0765 	 -13.5743 	 74.8452
| 17> H 	 14.1518 	 -12.8873 	 74.9435
| 18> H 	 15.845 	 -12.9421 	 75.2717
| 19> C 	 15.0984 	 -13.7167 	 73.3186
| 20> H 	 16.0586 	 -14.0974 	 72.9934
| 21> H 	 14.3578 	 -14.4334 	 73.0501
| 22> H 	 15.0157 	 -12.7199 	 72.833
| 23> S 	 11.8877 	 -15.8684 	 80.9234
| 24> C 	 10.1499 	 -15.9506 	 81.1952
| 25> C 	 9.50148 	 -15.4343 	 80.1413
| 26> C 	 10.2805 	 -14.8666 	 79.1171
| 27> C 	 11.5995 	 -14.8515 	 79.5043
| 28> H 	 8.42837 	 -15.5108 	 80.0411
| 29> C 	 9.6611 	 -14.4104 	 77.7837
| 30> H 	 10.2045 	 -13.6489 	 77.3651
| 31> H 	 8.77938 	 -13.8202 	 78.0251
| 32> C 	 9.20768 	 -15.5731 	 76.7774
| 33> H 	 10.1768 	 -16.0522 	 76.5782
| 34> H 	 9.02911 	 -15.229 	 75.7308
| 35> C 	 7.97879 	 -16.4059 	 77.2307
| 36> H 	 8.1835 	 -17.0265 	 78.0935
| 37> H 	 7.67912 	 -17.1069 	 76.4812
| 38> H 	 7.24173 	 -15.6725 	 77.5085
| 39> H 	 16.2066 	 -13.6054 	 77.9867
| 40> H 	 9.73589 	 -16.374 	 82.139
| 41> *
| 42>
| 43>                          ****END OF INPUT****

CARTESIAN COORDINATES (ANGSTROEM)
---------------------------------
  S     14.278200  -14.007700   79.604400
  C     15.158200  -13.994200   78.099800
  C     14.455900  -14.644100   77.142900
  C     13.053100  -14.820900   77.443800
  C     12.840900  -14.562500   78.804300
  H     12.190000  -15.002600   76.783000
  C     14.937000  -14.929800   75.670800
  H     14.262500  -15.632500   75.169300
  H     15.884000  -15.468600   75.645100
  C     15.076500  -13.574300   74.845200
  H     14.151800  -12.887300   74.943500
  H     15.845000  -12.942100   75.271700
  C     15.098400  -13.716700   73.318600
  H     16.058600  -14.097400   72.993400
  H     14.357800  -14.433400   73.050100
  H     15.015700  -12.719900   72.833000
  S     11.887700  -15.868400   80.923400
  C     10.149900  -15.950600   81.195200
  C      9.501480  -15.434300   80.141300
  C     10.280500  -14.866600   79.117100
  C     11.599500  -14.851500   79.504300
  H      8.428370  -15.510800   80.041100
  C      9.661100  -14.410400   77.783700
  H     10.204500  -13.648900   77.365100
  H      8.779380  -13.820200   78.025100
  C      9.207680  -15.573100   76.777400
  H     10.176800  -16.052200   76.578200
  H      9.029110  -15.229000   75.730800
  C      7.978790  -16.405900   77.230700
  H      8.183500  -17.026500   78.093500
  H      7.679120  -17.106900   76.481200
  H      7.241730  -15.672500   77.508500
  H     16.206600  -13.605400   77.986700
  H      9.735890  -16.374000   82.139000

 Total Charge           Charge          ....    0
 Multiplicity           Mult            ....    1
 Number of Electrons    NEL             ....  134
 Basis Dimension        Dim             ....  322

ORBITAL ENERGIES
----------------

  NO   OCC          E(Eh)            E(eV)
   0   2.0000     -88.966875     -2420.9118
   1   2.0000     -88.959670     -2420.7157
   2   2.0000     -10.327041      -281.0131
   3   2.0000     -10.325180      -280.9624
   4   2.0000     -10.315703      -280.7046
   5   2.0000     -10.314277      -280.6658
   6   2.0000     -10.305211      -280.4191
   7   2.0000     -10.300868      -280.3009
   8   2.0000     -10.300636      -280.2946
   9   2.0000     -10.300024      -280.2779
  10   2.0000     -10.297971      -280.2220
  11   2.0000     -10.294133      -280.1176
  12   2.0000     -10.293856      -280.1101
  13   2.0000     -10.286228      -279.9025
  14   2.0000     -10.281411      -279.7714
  15   2.0000     -10.278245      -279.6853
  16   2.0000      -8.081935      -219.9206
  17   2.0000      -8.074629      -219.7218
  18   2.0000      -6.040455      -164.3691
  19   2.0000      -6.036477      -164.2609
  20   2.0000      -6.033157      -164.1705
  21   2.0000      -6.032562      -164.1544
  22   2.0000      -6.029320      -164.0661
  23   2.0000      -6.025119      -163.9518
  24   2.0000      -1.010114       -27.4866
  25   2.0000      -0.986647       -26.8480
  26   2.0000      -0.902749       -24.5651
  27   2.0000      -0.899713       -24.4824
  28   2.0000      -0.870521       -23.6881
  29   2.0000      -0.851601       -23.1732
  30   2.0000      -0.844220       -22.9724
  31   2.0000      -0.811705       -22.0876
  32   2.0000      -0.787578       -21.4311
  33   2.0000      -0.773576       -21.0501
  34   2.0000      -0.710746       -19.3404
  35   2.0000      -0.698297       -19.0016
  36   2.0000      -0.692789       -18.8518
  37   2.0000      -0.665670       -18.1138
  38   2.0000      -0.637796       -17.3553
  39   2.0000      -0.612507       -16.6672
  40   2.0000      -0.597372       -16.2553
  41   2.0000      -0.563307       -15.3284
  42   2.0000      -0.557564       -15.1721
  43   2.0000      -0.550282       -14.9739
  44   2.0000      -0.545787       -14.8516
  45   2.0000      -0.527222       -14.3464
  46   2.0000      -0.515700       -14.0329
  47   2.0000      -0.506838       -13.7918
  48   2.0000      -0.501785       -13.6543
  49   2.0000      -0.497155       -13.5283
  50   2.0000      -0.491448       -13.3730
  51   2.0000      -0.483273       -13.1505
  52   2.0000      -0.474697       -12.9172
  53   2.0000      -0.467736       -12.7278
  54   2.0000      -0.460844       -12.5402
  55   2.0000      -0.449759       -12.2386
  56   2.0000      -0.442997       -12.0546
  57   2.0000      -0.436865       -11.8877
  58   2.0000      -0.433978       -11.8091
  59   2.0000      -0.426319       -11.6007
  60   2.0000      -0.423540       -11.5251
  61   2.0000      -0.413384       -11.2487
  62   2.0000      -0.402884       -10.9630
  63   2.0000      -0.351965        -9.5774
  64   2.0000      -0.329727        -8.9723
  65   2.0000      -0.329101        -8.9553
  66   2.0000      -0.287881        -7.8336
  67   0.0000       0.027826         0.7572
  68   0.0000       0.073777         2.0076
  69   0.0000       0.105865         2.8807
  70   0.0000       0.125570         3.4169
  71   0.0000       0.126698         3.4476

MULLIKEN ATOMIC CHARGES
-----------------------
   0 S :    0.119370
   1 C :   -0.145465
   2 C :   -0.060959
   3 C :    0.007728
   4 C :   -0.155572
   5 H :    0.026349
   6 C :    0.061213
   7 H :    0.018283
   8 H :    0.033542
   9 C :   -0.118973
  10 H :    0.034239
  11 H :    0.026913
  12 C :   -0.027113
  13 H :    0.019004
  14 H :    0.029273
  15 H :    0.044101
  16 S :    0.077329
  17 C :   -0.100861
  18 C :   -0.018731
  19 C :   -0.042885
  20 C :   -0.131550
  21 H :    0.007944
  22 C :    0.076496
  23 H :    0.003624
  24 H :    0.015116
  25 C :   -0.083136
  26 H :    0.021374
  27 H :    0.031375
  28 C :   -0.024917
  29 H :    0.040717
  30 H :    0.037562
  31 H :    0.034185
  32 H :    0.073177
  33 H :    0.071246
Sum of atomic charges:    0.0000000

LOEWDIN ATOMIC CHARGES
----------------------
   0 S :    0.412887
   1 C :   -0.208233
   2 C :   -0.059422
   3 C :   -0.063227
   4 C :   -0.201408
   5 H :    0.036698
   6 C :   -0.029310
   7 H :    0.026439
   8 H :    0.029492
   9 C :   -0.048479
  10 H :    0.031831
  11 H :    0.018174
  12 C :   -0.065552
  13 H :    0.018059
  14 H :    0.021727
  15 H :    0.033618
  16 S :    0.383778
  17 C :   -0.185747
  18 C :   -0.071147
  19 C :   -0.062066
  20 C :   -0.175947
  21 H :    0.028953
  22 C :   -0.029857
  23 H :    0.019305
  24 H :    0.030666
  25 C :   -0.042154
  26 H :    0.019617
  27 H :    0.029060
  28 C :   -0.060342
  29 H :    0.027190
  30 H :    0.028184
  31 H :    0.026759
  32 H :    0.042494
  33 H :    0.037961

  Mayer bond orders larger than 0.100000
B(  0-S ,  1-C ) :   1.1225 B(  0-S ,  4-C ) :   1.1581 B(  1-C ,  2-C ) :   1.6357
B(  1-C , 32-H ) :   0.9650 B(  2-C ,  3-C ) :   1.2199 B(  2-C ,  6-C ) :   1.0251
B(  3-C ,  4-C ) :   1.5720 B(  3-C ,  5-H ) :   0.9835 B(  4-C , 20-C ) :   1.0332
B(  6-C ,  7-H ) :   0.9499 B(  6-C ,  8-H ) :   0.9437 B(  6-C ,  9-C ) :   1.0414
B(  9-C , 10-H ) :   0.9650 B(  9-C , 11-H ) :   0.9592 B(  9-C , 12-C ) :   1.0723
B( 12-C , 13-H ) :   0.9750 B( 12-C , 14-H ) :   0.9752 B( 12-C , 15-H ) :   0.9754
B( 16-S , 17-C ) :   1.1246 B( 16-S , 20-C ) :   1.1518 B( 17-C , 18-C ) :   1.6156
B( 17-C , 33-H ) :   0.9661 B( 18-C , 19-C ) :   1.2374 B( 18-C , 21-H ) :   0.9871
B( 19-C , 20-C ) :   1.6241 B( 19-C , 22-C ) :   1.0327 B( 22-C , 23-H ) :   0.9314
B( 22-C , 24-H ) :   0.9337 B( 22-C , 25-C ) :   1.0503 B( 25-C , 26-H ) :   0.9543
B( 25-C , 27-H ) :   0.9587 B( 25-C , 28-C ) :   1.0687 B( 28-C , 29-H ) :   0.9719
B( 28-C , 30-H ) :   0.9715 B( 28-C , 31-H ) :   0.9747

Dispersion correction           -0.014357652
FINAL SINGLE POINT ENERGY     -1339.854826009332

DIPOLE MOMENT
-------------
                                X             Y             Z
Electronic contribution:      7.49245      -0.37004      29.02366
Nuclear contribution   :     -7.77233       0.31201     -29.72780
                        -----------------------------------------
Total Dipole Moment    :     -0.27988      -0.05803      -0.70414
                        -----------------------------------------
Magnitude (a.u.)       :      0.75994
Magnitude (Debye)      :      1.93161

Rotational constants in cm-1:     0.018768     0.008639     0.006251
Rotational constants in MHz :   562.647978   259.003255   187.392298

                             ****ORCA TERMINATED NORMALLY****
TOTAL RUN TIME: 0 days 0 hours 0 minutes 29 seconds 953 msec
