                         Program Version 4.2.1 -  RELEASE  -
|  1> ! wB97X-D3 SP def2-SVP
|  2> %pal
|  3> nprocs 16
|  4> end
|  5>
|  6> * xyz 0 1
|  7> S 	 2.16247 	 -12.022 	 60.1347
|  8> C 	 2.86216 	 -11.1896 	 61.4886
|  9> C 	 2.59658 	 -11.7687 	 62.7044
| 10> C 	 1.95086 	 -13.04 	 62.5483
| 11> C 	 1.69953 	 -13.3664 	 61.2125
| 12> H 	 1.54494 	 -13.6885 	 63.3675
| 13> C 	 2.98803 	 -11.26 	 64.0099
| 14> H 	 3.83904 	 -10.6632 	 63.7814
| 15> H 	 3.30739 	 -12.1152 	 64.5816
| 16> C 	 1.81282 	 -10.4949 	 64.686
| 17> H 	 1.5512 	 -9.72679 	 63.9036
| 18> H 	 0.922641 	 -11.1398 	 64.7797
| 19> C 	 2.10406 	 -9.81891 	 66.0148
| 20> H 	 2.23234 	 -10.4792 	 66.847
| 21> H 	 3.01299 	 -9.15164 	 65.8662
| 22> H 	 1.27241 	 -9.19387 	 66.3061
| 23> S 	 -0.658463 	 -14.5388 	 60.598
| 24> C 	 -0.760916 	 -16.271 	 60.3146
| 25> C 	 0.476323 	 -16.871 	 60.3724
| 26> C 	 1.53419 	 -15.9232 	 60.6341
| 27> C 	 1.06512 	 -14.619 	 60.7366
| 28> H 	 0.747686 	 -17.8887 	 60.0146
| 29> C 	 3.01758 	 -16.202 	 60.5732
| 30> H 	 3.00133 	 -17.1371 	 61.1096
| 31> H 	 3.63189 	 -15.5431 	 61.1714
| 32> C 	 3.51392 	 -16.3717 	 59.0845
| 33> H 	 3.32648 	 -15.5344 	 58.3767
| 34> H 	 3.00806 	 -17.2599 	 58.5926
| 35> C 	 5.01751 	 -16.5927 	 59.025
| 36> H 	 5.49142 	 -16.5916 	 58.0285
| 37> H 	 5.2868 	 -17.5741 	 59.4124
| 38> H 	 5.52293 	 -15.7763 	 59.544
| 39> H 	 3.26831 	 -10.1877 	 61.4758
| 40> H 	 -1.67366 	 -16.8013 	 60.039
| 41> *
| 42>
| 43>                          ****END OF INPUT****

CARTESIAN COORDINATES (ANGSTROEM)
---------------------------------
  S      2.162470  -12.022000   60.134700
  C      2.862160  -11.189600   61.488600
  C      2.596580  -11.768700   62.704400
  C      1.950860  -13.040000   62.548300
  C      1.699530  -13.366400   61.212500
  H      1.544940  -13.688500   63.367500
  C      2.988030  -11.260000   64.009900
  H      3.839040  -10.663200   63.781400
  H      3.307390  -12.115200   64.581600
  C      1.812820  -10.494900   64.686000
  H      1.551200   -9.726790   63.903600
  H      0.922641  -11.139800   64.779700
  C      2.104060   -9.818910   66.014800
  H      2.232340  -10.479200   66.847000
  H      3.012990   -9.151640   65.866200
  H      1.272410   -9.193870   66.306100
  S     -0.658463  -14.538800   60.598000
  C     -0.760916  -16.271000   60.314600
  C      0.476323  -16.871000   60.372400
  C      1.534190  -15.923200   60.634100
  C      1.065120  -14.619000   60.736600
  H      0.747686  -17.888700   60.014600
  C      3.017580  -16.202000   60.573200
  H      3.001330  -17.137100   61.109600
  H      3.631890  -15.543100   61.171400
  C      3.513920  -16.371700   59.084500
  H      3.326480  -15.534400   58.376700
  H      3.008060  -17.259900   58.592600
  C      5.017510  -16.592700   59.025000
  H      5.491420  -16.591600   58.028500
  H      5.286800  -17.574100   59.412400
  H      5.522930  -15.776300   59.544000
  H      3.268310  -10.187700   61.475800
  H     -1.673660  -16.801300   60.039000

 Total Charge           Charge          ....    0
 Multiplicity           Mult            ....    1
 Number of Electrons    NEL             ....  134
 Basis Dimension        Dim             ....  322

ORBITAL ENERGIES
----------------

  NO   OCC          E(Eh)            E(eV)
   0   2.0000     -88.967337     -2420.9243
   1   2.0000     -88.962791     -2420.8006
   2   2.0000     -10.331714      -281.1402
   3   2.0000     -10.320526      -280.8358
   4   2.0000     -10.319943      -280.8199
   5   2.0000     -10.309578      -280.5379
   6   2.0000     -10.301321      -280.3132
   7   2.0000     -10.298768      -280.2437
   8   2.0000     -10.297816      -280.2178
   9   2.0000     -10.293557      -280.1019
  10   2.0000     -10.293495      -280.1002
  11   2.0000     -10.292969      -280.0859
  12   2.0000     -10.291277      -280.0399
  13   2.0000     -10.284468      -279.8546
  14   2.0000     -10.280279      -279.7406
  15   2.0000     -10.273811      -279.5646
  16   2.0000      -8.081574      -219.9108
  17   2.0000      -8.077892      -219.8106
  18   2.0000      -6.040126      -164.3602
  19   2.0000      -6.036380      -164.2582
  20   2.0000      -6.036231      -164.2542
  21   2.0000      -6.032280      -164.1467
  22   2.0000      -6.032251      -164.1459
  23   2.0000      -6.028724      -164.0499
  24   2.0000      -1.002986       -27.2926
  25   2.0000      -0.983538       -26.7634
  26   2.0000      -0.914773       -24.8922
  27   2.0000      -0.903107       -24.5748
  28   2.0000      -0.866083       -23.5673
  29   2.0000      -0.850536       -23.1443
  30   2.0000      -0.848515       -23.0893
  31   2.0000      -0.814291       -22.1580
  32   2.0000      -0.780352       -21.2344
  33   2.0000      -0.766047       -20.8452
  34   2.0000      -0.701835       -19.0979
  35   2.0000      -0.697567       -18.9818
  36   2.0000      -0.693457       -18.8699
  37   2.0000      -0.661097       -17.9894
  38   2.0000      -0.636332       -17.3155
  39   2.0000      -0.614687       -16.7265
  40   2.0000      -0.593841       -16.1592
  41   2.0000      -0.569094       -15.4858
  42   2.0000      -0.558491       -15.1973
  43   2.0000      -0.554600       -15.0914
  44   2.0000      -0.524861       -14.2822
  45   2.0000      -0.522710       -14.2237
  46   2.0000      -0.516533       -14.0556
  47   2.0000      -0.510659       -13.8957
  48   2.0000      -0.506290       -13.7768
  49   2.0000      -0.503894       -13.7116
  50   2.0000      -0.492441       -13.4000
  51   2.0000      -0.472910       -12.8685
  52   2.0000      -0.468985       -12.7617
  53   2.0000      -0.457483       -12.4487
  54   2.0000      -0.456519       -12.4225
  55   2.0000      -0.452443       -12.3116
  56   2.0000      -0.444482       -12.0950
  57   2.0000      -0.431983       -11.7548
  58   2.0000      -0.429718       -11.6932
  59   2.0000      -0.427200       -11.6247
  60   2.0000      -0.426255       -11.5990
  61   2.0000      -0.418909       -11.3991
  62   2.0000      -0.407061       -11.0767
  63   2.0000      -0.337829        -9.1928
  64   2.0000      -0.327691        -8.9169
  65   2.0000      -0.316667        -8.6170
  66   2.0000      -0.308507        -8.3949
  67   0.0000       0.045176         1.2293
  68   0.0000       0.055006         1.4968
  69   0.0000       0.117148         3.1878
  70   0.0000       0.120377         3.2756
  71   0.0000       0.126955         3.4546

MULLIKEN ATOMIC CHARGES
-----------------------
   0 S :    0.114897
   1 C :   -0.102980
   2 C :   -0.135436
   3 C :    0.038009
   4 C :   -0.182698
   5 H :    0.036881
   6 C :    0.116656
   7 H :    0.009117
   8 H :    0.020658
   9 C :   -0.108709
  10 H :    0.030610
  11 H :    0.033054
  12 C :   -0.017594
  13 H :    0.029815
  14 H :    0.035733
  15 H :    0.032654
  16 S :    0.109894
  17 C :   -0.095740
  18 C :   -0.032196
  19 C :   -0.060296
  20 C :   -0.171773
  21 H :    0.033880
  22 C :    0.089417
  23 H :    0.018191
  24 H :    0.031082
  25 C :   -0.086793
  26 H :    0.042946
  27 H :    0.030098
  28 C :   -0.050181
  29 H :    0.029983
  30 H :    0.025016
  31 H :    0.033073
  32 H :    0.038785
  33 H :    0.063944
Sum of atomic charges:    0.0000000

LOEWDIN ATOMIC CHARGES
----------------------
   0 S :    0.396455
   1 C :   -0.205106
   2 C :   -0.066849
   3 C :   -0.058979
   4 C :   -0.193787
   5 H :    0.042389
   6 C :   -0.031004
   7 H :    0.027528
   8 H :    0.029375
   9 C :   -0.041453
  10 H :    0.030246
  11 H :    0.025772
  12 C :   -0.068499
  13 H :    0.021203
  14 H :    0.032777
  15 H :    0.027454
  16 S :    0.413323
  17 C :   -0.182250
  18 C :   -0.078734
  19 C :   -0.054728
  20 C :   -0.213996
  21 H :    0.038328
  22 C :   -0.026939
  23 H :    0.031716
  24 H :    0.030829
  25 C :   -0.042012
  26 H :    0.030324
  27 H :    0.027511
  28 C :   -0.073617
  29 H :    0.027286
  30 H :    0.021325
  31 H :    0.025253
  32 H :    0.026487
  33 H :    0.032370

  Mayer bond orders larger than 0.100000
B(  0-S ,  1-C ) :   1.1336 B(  0-S ,  4-C ) :   1.1442 B(  1-C ,  2-C ) :   1.6358
B(  1-C , 32-H ) :   0.9567 B(  2-C ,  3-C ) :   1.2277 B(  2-C ,  6-C ) :   1.0306
B(  3-C ,  4-C ) :   1.5996 B(  3-C ,  5-H ) :   0.9841 B(  4-C , 20-C ) :   0.9870
B(  6-C ,  7-H ) :   0.9323 B(  6-C ,  8-H ) :   0.9322 B(  6-C ,  9-C ) :   1.0491
B(  9-C , 10-H ) :   0.9550 B(  9-C , 11-H ) :   0.9569 B(  9-C , 12-C ) :   1.0879
B( 12-C , 13-H ) :   0.9731 B( 12-C , 14-H ) :   0.9724 B( 12-C , 15-H ) :   0.9716
B( 16-S , 17-C ) :   1.1611 B( 16-S , 20-C ) :   1.1520 B( 17-C , 18-C ) :   1.6030
B( 17-C , 33-H ) :   0.9656 B( 18-C , 19-C ) :   1.2514 B( 18-C , 21-H ) :   0.9768
B( 19-C , 20-C ) :   1.6168 B( 19-C , 22-C ) :   1.0422 B( 22-C , 23-H ) :   0.9266
B( 22-C , 24-H ) :   0.9412 B( 22-C , 25-C ) :   1.0442 B( 25-C , 26-H ) :   0.9612
B( 25-C , 27-H ) :   0.9557 B( 25-C , 28-C ) :   1.0856 B( 28-C , 29-H ) :   0.9738
B( 28-C , 30-H ) :   0.9755 B( 28-C , 31-H ) :   0.9738

Dispersion correction           -0.014051448
FINAL SINGLE POINT ENERGY     -1339.881718814137

DIPOLE MOMENT
-------------
                                X             Y             Z
Electronic contribution:    -15.28249      -0.04002     -11.54670
Nuclear contribution   :     15.50608      -0.09834      11.88592
                        -----------------------------------------
Total Dipole Moment    :      0.22359      -0.13836       0.33923
                        -----------------------------------------
Magnitude (a.u.)       :      0.42920
Magnitude (Debye)      :      1.09094

Rotational constants in cm-1:     0.019908     0.007545     0.006512
Rotational constants in MHz :   596.828838   226.201539   195.232323

                             ****ORCA TERMINATED NORMALLY****
TOTAL RUN TIME: 0 days 0 hours 0 minutes 29 seconds 214 msec
