                         Program Version 4.2.1 -  RELEASE  -
|  1> ! wB97X-D3 SP def2-SVP
|  2> %pal
|  3> nprocs 16
|  4> end
|  5>
|  6> * xyz 0 1
|  7> S 	 -100.31 	 53.24 	 121.801
|  8> C 	 -99.8687 	 53.404 	 120.102
|  9> C 	 -100.831 	 53.9759 	 119.32
| 10> C 	 -101.998 	 54.3053 	 120.111
| 11> C 	 -101.947 	 53.9041 	 121.413
| 12> H 	 -102.928 	 54.8476 	 119.763
| 13> C 	 -100.754 	 54.2882 	 117.867
| 14> H 	 -101.778 	 54.3368 	 117.517
| 15> H 	 -100.287 	 53.4506 	 117.363
| 16> C 	 -99.9613 	 55.4927 	 117.388
| 17> H 	 -100.465 	 56.388 	 117.642
| 18> H 	 -98.9806 	 55.4914 	 117.934
| 19> C 	 -99.6236 	 55.6131 	 115.899
| 20> H 	 -98.9231 	 56.4438 	 115.705
| 21> H 	 -99.2634 	 54.6401 	 115.501
| 22> H 	 -100.56 	 55.8254 	 115.417
| 23> S 	 -102.394 	 54.7731 	 123.887
| 24> C 	 -104.023 	 54.6154 	 124.575
| 25> C 	 -104.893 	 53.8092 	 123.852
| 26> C 	 -104.248 	 53.4274 	 122.59
| 27> C 	 -102.904 	 53.8892 	 122.465
| 28> H 	 -105.846 	 53.63 	 124.223
| 29> C 	 -105.091 	 52.6085 	 121.552
| 30> H 	 -105.404 	 51.7014 	 122.099
| 31> H 	 -104.453 	 52.1706 	 120.846
| 32> C 	 -106.339 	 53.3106 	 121.078
| 33> H 	 -106.979 	 53.5968 	 121.986
| 34> H 	 -107.004 	 52.6614 	 120.469
| 35> C 	 -106.161 	 54.6158 	 120.24
| 36> H 	 -107.136 	 55.0656 	 120.139
| 37> H 	 -105.784 	 54.4341 	 119.266
| 38> H 	 -105.553 	 55.2938 	 120.745
| 39> H 	 -98.9371 	 53.0605 	 119.64
| 40> H 	 -104.357 	 55.0388 	 125.478
| 41> *
| 42>
| 43>                          ****END OF INPUT****

CARTESIAN COORDINATES (ANGSTROEM)
---------------------------------
  S    -100.310000   53.240000  121.801000
  C    -99.868700   53.404000  120.102000
  C    -100.831000   53.975900  119.320000
  C    -101.998000   54.305300  120.111000
  C    -101.947000   53.904100  121.413000
  H    -102.928000   54.847600  119.763000
  C    -100.754000   54.288200  117.867000
  H    -101.778000   54.336800  117.517000
  H    -100.287000   53.450600  117.363000
  C    -99.961300   55.492700  117.388000
  H    -100.465000   56.388000  117.642000
  H    -98.980600   55.491400  117.934000
  C    -99.623600   55.613100  115.899000
  H    -98.923100   56.443800  115.705000
  H    -99.263400   54.640100  115.501000
  H    -100.560000   55.825400  115.417000
  S    -102.394000   54.773100  123.887000
  C    -104.023000   54.615400  124.575000
  C    -104.893000   53.809200  123.852000
  C    -104.248000   53.427400  122.590000
  C    -102.904000   53.889200  122.465000
  H    -105.846000   53.630000  124.223000
  C    -105.091000   52.608500  121.552000
  H    -105.404000   51.701400  122.099000
  H    -104.453000   52.170600  120.846000
  C    -106.339000   53.310600  121.078000
  H    -106.979000   53.596800  121.986000
  H    -107.004000   52.661400  120.469000
  C    -106.161000   54.615800  120.240000
  H    -107.136000   55.065600  120.139000
  H    -105.784000   54.434100  119.266000
  H    -105.553000   55.293800  120.745000
  H    -98.937100   53.060500  119.640000
  H    -104.357000   55.038800  125.478000

 Total Charge           Charge          ....    0
 Multiplicity           Mult            ....    1
 Number of Electrons    NEL             ....  134
 Basis Dimension        Dim             ....  322

ORBITAL ENERGIES
----------------

  NO   OCC          E(Eh)            E(eV)
   0   2.0000     -88.967597     -2420.9314
   1   2.0000     -88.963615     -2420.8230
   2   2.0000     -10.329079      -281.0685
   3   2.0000     -10.328820      -281.0615
   4   2.0000     -10.318023      -280.7677
   5   2.0000     -10.317278      -280.7474
   6   2.0000     -10.314233      -280.6645
   7   2.0000     -10.299923      -280.2752
   8   2.0000     -10.298902      -280.2474
   9   2.0000     -10.296888      -280.1926
  10   2.0000     -10.296028      -280.1692
  11   2.0000     -10.291291      -280.0403
  12   2.0000     -10.289156      -279.9822
  13   2.0000     -10.283298      -279.8228
  14   2.0000     -10.281550      -279.7752
  15   2.0000     -10.268304      -279.4148
  16   2.0000      -8.081967      -219.9215
  17   2.0000      -8.077633      -219.8036
  18   2.0000      -6.040547      -164.3716
  19   2.0000      -6.036584      -164.2638
  20   2.0000      -6.036325      -164.2567
  21   2.0000      -6.032597      -164.1553
  22   2.0000      -6.032402      -164.1500
  23   2.0000      -6.028077      -164.0323
  24   2.0000      -1.002108       -27.2687
  25   2.0000      -0.976561       -26.5736
  26   2.0000      -0.914777       -24.8923
  27   2.0000      -0.904839       -24.6219
  28   2.0000      -0.874129       -23.7862
  29   2.0000      -0.847083       -23.0503
  30   2.0000      -0.843125       -22.9426
  31   2.0000      -0.817963       -22.2579
  32   2.0000      -0.787293       -21.4233
  33   2.0000      -0.773715       -21.0538
  34   2.0000      -0.709698       -19.3119
  35   2.0000      -0.698594       -19.0097
  36   2.0000      -0.692627       -18.8473
  37   2.0000      -0.662418       -18.0253
  38   2.0000      -0.640120       -17.4186
  39   2.0000      -0.616383       -16.7726
  40   2.0000      -0.593867       -16.1600
  41   2.0000      -0.572455       -15.5773
  42   2.0000      -0.564227       -15.3534
  43   2.0000      -0.550952       -14.9922
  44   2.0000      -0.540442       -14.7062
  45   2.0000      -0.526547       -14.3281
  46   2.0000      -0.517189       -14.0734
  47   2.0000      -0.512701       -13.9513
  48   2.0000      -0.505297       -13.7498
  49   2.0000      -0.499812       -13.6006
  50   2.0000      -0.497760       -13.5447
  51   2.0000      -0.476155       -12.9568
  52   2.0000      -0.467103       -12.7105
  53   2.0000      -0.461952       -12.5704
  54   2.0000      -0.456609       -12.4250
  55   2.0000      -0.452499       -12.3131
  56   2.0000      -0.447672       -12.1818
  57   2.0000      -0.441971       -12.0266
  58   2.0000      -0.432639       -11.7727
  59   2.0000      -0.423456       -11.5228
  60   2.0000      -0.416980       -11.3466
  61   2.0000      -0.414470       -11.2783
  62   2.0000      -0.412706       -11.2303
  63   2.0000      -0.348377        -9.4798
  64   2.0000      -0.330648        -8.9974
  65   2.0000      -0.328400        -8.9362
  66   2.0000      -0.290554        -7.9064
  67   0.0000       0.031752         0.8640
  68   0.0000       0.059892         1.6298
  69   0.0000       0.102061         2.7772
  70   0.0000       0.116750         3.1769
  71   0.0000       0.122731         3.3397

MULLIKEN ATOMIC CHARGES
-----------------------
   0 S :    0.091429
   1 C :   -0.109898
   2 C :   -0.092036
   3 C :    0.013367
   4 C :   -0.153855
   5 H :    0.033104
   6 C :    0.091177
   7 H :    0.014742
   8 H :    0.013228
   9 C :   -0.075271
  10 H :    0.016950
  11 H :    0.027047
  12 C :   -0.044086
  13 H :    0.048959
  14 H :    0.030529
  15 H :    0.023237
  16 S :    0.108237
  17 C :   -0.065515
  18 C :   -0.022567
  19 C :   -0.050665
  20 C :   -0.157347
  21 H :    0.003578
  22 C :    0.124051
  23 H :    0.028741
  24 H :    0.010186
  25 C :   -0.123877
  26 H :    0.034407
  27 H :    0.034715
  28 C :   -0.011771
  29 H :    0.025528
  30 H :    0.024745
  31 H :    0.027888
  32 H :    0.045209
  33 H :    0.035836
Sum of atomic charges:   -0.0000000

LOEWDIN ATOMIC CHARGES
----------------------
   0 S :    0.366053
   1 C :   -0.186185
   2 C :   -0.066238
   3 C :   -0.064661
   4 C :   -0.178314
   5 H :    0.043783
   6 C :   -0.034403
   7 H :    0.028985
   8 H :    0.031193
   9 C :   -0.041655
  10 H :    0.016999
  11 H :    0.026226
  12 C :   -0.063025
  13 H :    0.033593
  14 H :    0.024635
  15 H :    0.020722
  16 S :    0.399722
  17 C :   -0.162618
  18 C :   -0.059408
  19 C :   -0.039696
  20 C :   -0.212005
  21 H :    0.023030
  22 C :   -0.033078
  23 H :    0.040015
  24 H :    0.021846
  25 C :   -0.044479
  26 H :    0.029561
  27 H :    0.026741
  28 C :   -0.056729
  29 H :    0.027764
  30 H :    0.017880
  31 H :    0.015428
  32 H :    0.030755
  33 H :    0.017564

  Mayer bond orders larger than 0.100000
B(  0-S ,  1-C ) :   1.1186 B(  0-S ,  4-C ) :   1.1095 B(  1-C ,  2-C ) :   1.6649
B(  1-C , 32-H ) :   0.9605 B(  2-C ,  3-C ) :   1.1873 B(  2-C ,  6-C ) :   1.0346
B(  3-C ,  4-C ) :   1.6477 B(  3-C ,  5-H ) :   0.9827 B(  4-C , 20-C ) :   1.0355
B(  6-C ,  7-H ) :   0.9316 B(  6-C ,  8-H ) :   0.9288 B(  6-C ,  9-C ) :   1.0690
B(  9-C , 10-H ) :   0.9537 B(  9-C , 11-H ) :   0.9555 B(  9-C , 12-C ) :   1.0831
B( 12-C , 13-H ) :   0.9734 B( 12-C , 14-H ) :   0.9740 B( 12-C , 15-H ) :   0.9761
B( 16-S , 17-C ) :   1.1446 B( 16-S , 20-C ) :   1.1304 B( 17-C , 18-C ) :   1.6448
B( 17-C , 33-H ) :   0.9686 B( 18-C , 19-C ) :   1.1938 B( 18-C , 21-H ) :   0.9992
B( 19-C , 20-C ) :   1.6035 B( 19-C , 22-C ) :   1.0337 B( 22-C , 23-H ) :   0.9310
B( 22-C , 24-H ) :   0.9405 B( 22-C , 25-C ) :   1.0658 B( 25-C , 26-H ) :   0.9556
B( 25-C , 27-H ) :   0.9558 B( 25-C , 28-C ) :   1.0755 B( 28-C , 29-H ) :   0.9712
B( 28-C , 30-H ) :   0.9750 B( 28-C , 31-H ) :   0.9748

Dispersion correction           -0.014176589
FINAL SINGLE POINT ENERGY     -1339.871589658907

DIPOLE MOMENT
-------------
                                X             Y             Z
Electronic contribution:      9.93323      -4.19966      25.96848
Nuclear contribution   :    -10.46252       4.24418     -26.43824
                        -----------------------------------------
Total Dipole Moment    :     -0.52929       0.04452      -0.46976
                        -----------------------------------------
Magnitude (a.u.)       :      0.70909
Magnitude (Debye)      :      1.80235

Rotational constants in cm-1:     0.020018     0.007926     0.006333
Rotational constants in MHz :   600.126123   237.628495   189.855856

                             ****ORCA TERMINATED NORMALLY****
TOTAL RUN TIME: 0 days 0 hours 0 minutes 34 seconds 471 msec
