                         Program Version 4.2.1 -  RELEASE  -
|  1> ! wB97X-D3 SP def2-SVP
|  2> %pal
|  3> nprocs 16
|  4> end
|  5>
|  6> * xyz 0 1
|  7> S 	 -74.2484 	 49.043 	 139.549
|  8> C 	 -74.8939 	 50.6464 	 139.153
|  9> C 	 -73.9471 	 51.4262 	 138.497
| 10> C 	 -72.6707 	 50.7496 	 138.378
| 11> C 	 -72.6948 	 49.4116 	 138.791
| 12> H 	 -71.7847 	 51.1727 	 137.915
| 13> C 	 -74.1368 	 52.8791 	 138.128
| 14> H 	 -74.4142 	 53.473 	 138.995
| 15> H 	 -74.75 	 52.9415 	 137.292
| 16> C 	 -72.8558 	 53.5623 	 137.524
| 17> H 	 -72.0928 	 53.291 	 138.257
| 18> H 	 -72.65 	 52.9631 	 136.665
| 19> C 	 -72.7573 	 55.0532 	 137.103
| 20> H 	 -71.7344 	 55.4275 	 136.839
| 21> H 	 -73.4316 	 55.4108 	 136.328
| 22> H 	 -73.0085 	 55.6494 	 137.967
| 23> S 	 -71.7255 	 47.0197 	 139.79
| 24> C 	 -70.2465 	 46.3296 	 139.164
| 25> C 	 -69.7149 	 47.0528 	 138.085
| 26> C 	 -70.4969 	 48.2245 	 137.797
| 27> C 	 -71.6008 	 48.3645 	 138.638
| 28> H 	 -68.8548 	 46.7004 	 137.53
| 29> C 	 -69.9724 	 49.213 	 136.781
| 30> H 	 -70.7016 	 49.8053 	 136.352
| 31> H 	 -69.5378 	 48.5512 	 135.997
| 32> C 	 -68.8902 	 50.2042 	 137.306
| 33> H 	 -68.0759 	 49.5978 	 137.62
| 34> H 	 -69.1573 	 50.7462 	 138.163
| 35> C 	 -68.4707 	 51.0693 	 136.125
| 36> H 	 -68.01 	 50.5074 	 135.301
| 37> H 	 -67.6462 	 51.8913 	 136.401
| 38> H 	 -69.3509 	 51.6201 	 135.746
| 39> H 	 -75.8571 	 50.9411 	 139.32
| 40> H 	 -69.7398 	 45.3983 	 139.5
| 41> *
| 42>
| 43>                          ****END OF INPUT****

CARTESIAN COORDINATES (ANGSTROEM)
---------------------------------
  S    -74.248400   49.043000  139.549000
  C    -74.893900   50.646400  139.153000
  C    -73.947100   51.426200  138.497000
  C    -72.670700   50.749600  138.378000
  C    -72.694800   49.411600  138.791000
  H    -71.784700   51.172700  137.915000
  C    -74.136800   52.879100  138.128000
  H    -74.414200   53.473000  138.995000
  H    -74.750000   52.941500  137.292000
  C    -72.855800   53.562300  137.524000
  H    -72.092800   53.291000  138.257000
  H    -72.650000   52.963100  136.665000
  C    -72.757300   55.053200  137.103000
  H    -71.734400   55.427500  136.839000
  H    -73.431600   55.410800  136.328000
  H    -73.008500   55.649400  137.967000
  S    -71.725500   47.019700  139.790000
  C    -70.246500   46.329600  139.164000
  C    -69.714900   47.052800  138.085000
  C    -70.496900   48.224500  137.797000
  C    -71.600800   48.364500  138.638000
  H    -68.854800   46.700400  137.530000
  C    -69.972400   49.213000  136.781000
  H    -70.701600   49.805300  136.352000
  H    -69.537800   48.551200  135.997000
  C    -68.890200   50.204200  137.306000
  H    -68.075900   49.597800  137.620000
  H    -69.157300   50.746200  138.163000
  C    -68.470700   51.069300  136.125000
  H    -68.010000   50.507400  135.301000
  H    -67.646200   51.891300  136.401000
  H    -69.350900   51.620100  135.746000
  H    -75.857100   50.941100  139.320000
  H    -69.739800   45.398300  139.500000

 Total Charge           Charge          ....    0
 Multiplicity           Mult            ....    1
 Number of Electrons    NEL             ....  134
 Basis Dimension        Dim             ....  322

ORBITAL ENERGIES
----------------

  NO   OCC          E(Eh)            E(eV)
   0   2.0000     -88.969479     -2420.9826
   1   2.0000     -88.969420     -2420.9810
   2   2.0000     -10.340416      -281.3770
   3   2.0000     -10.336676      -281.2752
   4   2.0000     -10.324449      -280.9425
   5   2.0000     -10.312230      -280.6100
   6   2.0000     -10.307586      -280.4837
   7   2.0000     -10.306748      -280.4609
   8   2.0000     -10.298644      -280.2404
   9   2.0000     -10.297379      -280.2059
  10   2.0000     -10.292235      -280.0660
  11   2.0000     -10.291245      -280.0390
  12   2.0000     -10.290782      -280.0264
  13   2.0000     -10.288424      -279.9623
  14   2.0000     -10.286885      -279.9204
  15   2.0000     -10.283226      -279.8208
  16   2.0000      -8.083729      -219.9694
  17   2.0000      -8.083202      -219.9551
  18   2.0000      -6.042321      -164.4199
  19   2.0000      -6.041928      -164.4092
  20   2.0000      -6.038299      -164.3105
  21   2.0000      -6.037800      -164.2969
  22   2.0000      -6.034450      -164.2057
  23   2.0000      -6.033867      -164.1899
  24   2.0000      -0.999520       -27.1983
  25   2.0000      -0.979508       -26.6538
  26   2.0000      -0.914354       -24.8808
  27   2.0000      -0.909555       -24.7502
  28   2.0000      -0.862842       -23.4791
  29   2.0000      -0.853204       -23.2169
  30   2.0000      -0.841560       -22.9000
  31   2.0000      -0.814500       -22.1637
  32   2.0000      -0.784133       -21.3374
  33   2.0000      -0.771261       -20.9871
  34   2.0000      -0.711849       -19.3704
  35   2.0000      -0.705198       -19.1894
  36   2.0000      -0.690447       -18.7880
  37   2.0000      -0.663164       -18.0456
  38   2.0000      -0.640596       -17.4315
  39   2.0000      -0.622399       -16.9363
  40   2.0000      -0.596675       -16.2364
  41   2.0000      -0.581482       -15.8229
  42   2.0000      -0.570501       -15.5241
  43   2.0000      -0.562172       -15.2975
  44   2.0000      -0.519587       -14.1387
  45   2.0000      -0.516829       -14.0636
  46   2.0000      -0.512956       -13.9582
  47   2.0000      -0.507960       -13.8223
  48   2.0000      -0.505184       -13.7468
  49   2.0000      -0.500791       -13.6272
  50   2.0000      -0.497280       -13.5317
  51   2.0000      -0.481212       -13.0945
  52   2.0000      -0.475564       -12.9408
  53   2.0000      -0.467041       -12.7088
  54   2.0000      -0.459036       -12.4910
  55   2.0000      -0.458099       -12.4655
  56   2.0000      -0.453963       -12.3530
  57   2.0000      -0.437438       -11.9033
  58   2.0000      -0.431912       -11.7529
  59   2.0000      -0.427891       -11.6435
  60   2.0000      -0.426339       -11.6013
  61   2.0000      -0.415701       -11.3118
  62   2.0000      -0.402120       -10.9422
  63   2.0000      -0.355317        -9.6687
  64   2.0000      -0.336212        -9.1488
  65   2.0000      -0.329634        -8.9698
  66   2.0000      -0.284453        -7.7404
  67   0.0000       0.020561         0.5595
  68   0.0000       0.076194         2.0733
  69   0.0000       0.093583         2.5465
  70   0.0000       0.119373         3.2483
  71   0.0000       0.123703         3.3661

MULLIKEN ATOMIC CHARGES
-----------------------
   0 S :    0.097419
   1 C :   -0.082633
   2 C :   -0.112474
   3 C :   -0.018696
   4 C :   -0.085012
   5 H :    0.005790
   6 C :    0.127899
   7 H :    0.046639
   8 H :    0.020883
   9 C :   -0.163684
  10 H :    0.037671
  11 H :    0.024945
  12 C :   -0.011349
  13 H :    0.041599
  14 H :    0.033809
  15 H :    0.019631
  16 S :    0.096531
  17 C :   -0.094014
  18 C :   -0.043858
  19 C :   -0.044713
  20 C :   -0.127536
  21 H :    0.022989
  22 C :    0.034788
  23 H :    0.000018
  24 H :    0.029910
  25 C :   -0.006346
  26 H :    0.011300
  27 H :    0.028186
  28 C :   -0.092246
  29 H :    0.038171
  30 H :    0.048057
  31 H :    0.035222
  32 H :    0.011146
  33 H :    0.069959
Sum of atomic charges:    0.0000000

LOEWDIN ATOMIC CHARGES
----------------------
   0 S :    0.388018
   1 C :   -0.174135
   2 C :   -0.055402
   3 C :   -0.076623
   4 C :   -0.178381
   5 H :    0.028401
   6 C :   -0.023360
   7 H :    0.033914
   8 H :    0.025963
   9 C :   -0.046805
  10 H :    0.022125
  11 H :    0.015861
  12 C :   -0.068970
  13 H :    0.037160
  14 H :    0.025326
  15 H :    0.023160
  16 S :    0.395338
  17 C :   -0.188924
  18 C :   -0.071769
  19 C :   -0.055992
  20 C :   -0.184144
  21 H :    0.032971
  22 C :   -0.023880
  23 H :    0.012331
  24 H :    0.037597
  25 C :   -0.031878
  26 H :    0.020608
  27 H :    0.019632
  28 C :   -0.073789
  29 H :    0.025881
  30 H :    0.037254
  31 H :    0.023919
  32 H :    0.010053
  33 H :    0.038542

  Mayer bond orders larger than 0.100000
B(  0-S ,  1-C ) :   1.1266 B(  0-S ,  4-C ) :   1.1514 B(  1-C ,  2-C ) :   1.6232
B(  1-C , 32-H ) :   0.9857 B(  2-C ,  3-C ) :   1.2475 B(  2-C ,  6-C ) :   1.0141
B(  3-C ,  4-C ) :   1.5604 B(  3-C ,  5-H ) :   0.9823 B(  4-C , 20-C ) :   1.0312
B(  6-C ,  7-H ) :   0.9439 B(  6-C ,  8-H ) :   0.9233 B(  6-C ,  9-C ) :   1.0898
B(  9-C , 10-H ) :   0.9475 B(  9-C , 11-H ) :   0.9557 B(  9-C , 12-C ) :   1.0691
B( 12-C , 13-H ) :   0.9720 B( 12-C , 14-H ) :   0.9753 B( 12-C , 15-H ) :   0.9717
B( 16-S , 17-C ) :   1.1591 B( 16-S , 20-C ) :   1.1264 B( 17-C , 18-C ) :   1.6140
B( 17-C , 33-H ) :   0.9606 B( 18-C , 19-C ) :   1.2348 B( 18-C , 21-H ) :   0.9878
B( 19-C , 20-C ) :   1.6084 B( 19-C , 22-C ) :   1.0493 B( 22-C , 23-H ) :   0.9387
B( 22-C , 24-H ) :   0.9338 B( 22-C , 25-C ) :   1.0546 B( 25-C , 26-H ) :   0.9477
B( 25-C , 27-H ) :   0.9561 B( 25-C , 28-C ) :   1.0781 B( 28-C , 29-H ) :   0.9744
B( 28-C , 30-H ) :   0.9725 B( 28-C , 31-H ) :   0.9736

Dispersion correction           -0.013924889
FINAL SINGLE POINT ENERGY     -1339.862497272119

DIPOLE MOMENT
-------------
                                X             Y             Z
Electronic contribution:    -13.38109     -27.45658      16.72971
Nuclear contribution   :     13.78833      27.92603     -17.14457
                        -----------------------------------------
Total Dipole Moment    :      0.40724       0.46945      -0.41486
                        -----------------------------------------
Magnitude (a.u.)       :      0.74722
Magnitude (Debye)      :      1.89928

Rotational constants in cm-1:     0.016305     0.009887     0.006314
Rotational constants in MHz :   488.810631   296.413358   189.293292

                             ****ORCA TERMINATED NORMALLY****
TOTAL RUN TIME: 0 days 0 hours 0 minutes 35 seconds 584 msec
