                         Program Version 4.2.1 -  RELEASE  -
|  1> ! wB97X-D3 SP def2-SVP
|  2> %pal
|  3> nprocs 16
|  4> end
|  5>
|  6> * xyz 0 1
|  7> S 	 -3.07743 	 -11.8134 	 80.3589
|  8> C 	 -3.55242 	 -10.388 	 79.458
|  9> C 	 -4.8784 	 -10.2574 	 79.2094
| 10> C 	 -5.60177 	 -11.3344 	 79.7953
| 11> C 	 -4.79356 	 -12.23 	 80.3793
| 12> H 	 -6.64918 	 -11.5884 	 79.69
| 13> C 	 -5.46028 	 -9.1483 	 78.3609
| 14> H 	 -4.93149 	 -9.10912 	 77.4609
| 15> H 	 -5.43909 	 -8.31177 	 78.9941
| 16> C 	 -6.93424 	 -9.22695 	 78.0706
| 17> H 	 -7.17164 	 -10.2136 	 77.6396
| 18> H 	 -7.48696 	 -9.25675 	 78.9588
| 19> C 	 -7.44832 	 -8.16539 	 77.1092
| 20> H 	 -8.47068 	 -8.3528 	 76.7483
| 21> H 	 -7.36854 	 -7.0783 	 77.3904
| 22> H 	 -6.85839 	 -8.26721 	 76.183
| 23> S 	 -6.07571 	 -14.5457 	 79.6868
| 24> C 	 -6.37349 	 -15.8045 	 80.8344
| 25> C 	 -6.12705 	 -15.3444 	 82.125
| 26> C 	 -5.46882 	 -14.0784 	 82.1095
| 27> C 	 -5.27693 	 -13.5105 	 80.8397
| 28> H 	 -6.33535 	 -15.9679 	 82.9974
| 29> C 	 -4.90697 	 -13.4028 	 83.3383
| 30> H 	 -3.9356 	 -13.1109 	 82.9917
| 31> H 	 -4.80839 	 -14.0039 	 84.2069
| 32> C 	 -5.54115 	 -12.1014 	 83.7295
| 33> H 	 -5.59291 	 -11.5278 	 82.7924
| 34> H 	 -4.81182 	 -11.5555 	 84.3608
| 35> C 	 -6.9151 	 -11.9868 	 84.408
| 36> H 	 -7.65056 	 -12.1887 	 83.6062
| 37> H 	 -6.91841 	 -10.9361 	 84.5987
| 38> H 	 -7.16047 	 -12.6204 	 85.2389
| 39> H 	 -2.90391 	 -9.5205 	 79.1238
| 40> H 	 -6.81196 	 -16.7964 	 80.6339
| 41> *
| 42>
| 43>                          ****END OF INPUT****

CARTESIAN COORDINATES (ANGSTROEM)
---------------------------------
  S     -3.077430  -11.813400   80.358900
  C     -3.552420  -10.388000   79.458000
  C     -4.878400  -10.257400   79.209400
  C     -5.601770  -11.334400   79.795300
  C     -4.793560  -12.230000   80.379300
  H     -6.649180  -11.588400   79.690000
  C     -5.460280   -9.148300   78.360900
  H     -4.931490   -9.109120   77.460900
  H     -5.439090   -8.311770   78.994100
  C     -6.934240   -9.226950   78.070600
  H     -7.171640  -10.213600   77.639600
  H     -7.486960   -9.256750   78.958800
  C     -7.448320   -8.165390   77.109200
  H     -8.470680   -8.352800   76.748300
  H     -7.368540   -7.078300   77.390400
  H     -6.858390   -8.267210   76.183000
  S     -6.075710  -14.545700   79.686800
  C     -6.373490  -15.804500   80.834400
  C     -6.127050  -15.344400   82.125000
  C     -5.468820  -14.078400   82.109500
  C     -5.276930  -13.510500   80.839700
  H     -6.335350  -15.967900   82.997400
  C     -4.906970  -13.402800   83.338300
  H     -3.935600  -13.110900   82.991700
  H     -4.808390  -14.003900   84.206900
  C     -5.541150  -12.101400   83.729500
  H     -5.592910  -11.527800   82.792400
  H     -4.811820  -11.555500   84.360800
  C     -6.915100  -11.986800   84.408000
  H     -7.650560  -12.188700   83.606200
  H     -6.918410  -10.936100   84.598700
  H     -7.160470  -12.620400   85.238900
  H     -2.903910   -9.520500   79.123800
  H     -6.811960  -16.796400   80.633900

 Total Charge           Charge          ....    0
 Multiplicity           Mult            ....    1
 Number of Electrons    NEL             ....  134
 Basis Dimension        Dim             ....  322

ORBITAL ENERGIES
----------------

  NO   OCC          E(Eh)            E(eV)
   0   2.0000     -88.972765     -2421.0720
   1   2.0000     -88.963739     -2420.8264
   2   2.0000     -10.325378      -280.9678
   3   2.0000     -10.320453      -280.8338
   4   2.0000     -10.318321      -280.7758
   5   2.0000     -10.312979      -280.6304
   6   2.0000     -10.301487      -280.3177
   7   2.0000     -10.297033      -280.1965
   8   2.0000     -10.294249      -280.1207
   9   2.0000     -10.290458      -280.0176
  10   2.0000     -10.285571      -279.8846
  11   2.0000     -10.283450      -279.8269
  12   2.0000     -10.282622      -279.8044
  13   2.0000     -10.276184      -279.6292
  14   2.0000     -10.276049      -279.6255
  15   2.0000     -10.269401      -279.4446
  16   2.0000      -8.086800      -220.0530
  17   2.0000      -8.078720      -219.8331
  18   2.0000      -6.045324      -164.5016
  19   2.0000      -6.041681      -164.4025
  20   2.0000      -6.037314      -164.2837
  21   2.0000      -6.037165      -164.2796
  22   2.0000      -6.033029      -164.1671
  23   2.0000      -6.029697      -164.0764
  24   2.0000      -1.012325       -27.5468
  25   2.0000      -0.987622       -26.8746
  26   2.0000      -0.922434       -25.1007
  27   2.0000      -0.909067       -24.7370
  28   2.0000      -0.874663       -23.8008
  29   2.0000      -0.854536       -23.2531
  30   2.0000      -0.844504       -22.9801
  31   2.0000      -0.817714       -22.2511
  32   2.0000      -0.787836       -21.4381
  33   2.0000      -0.774601       -21.0780
  34   2.0000      -0.715794       -19.4777
  35   2.0000      -0.691986       -18.8299
  36   2.0000      -0.677065       -18.4239
  37   2.0000      -0.663544       -18.0560
  38   2.0000      -0.637343       -17.3430
  39   2.0000      -0.622205       -16.9311
  40   2.0000      -0.591956       -16.1080
  41   2.0000      -0.588928       -16.0255
  42   2.0000      -0.570802       -15.5323
  43   2.0000      -0.548390       -14.9225
  44   2.0000      -0.544656       -14.8208
  45   2.0000      -0.522040       -14.2054
  46   2.0000      -0.520052       -14.1513
  47   2.0000      -0.510577       -13.8935
  48   2.0000      -0.503661       -13.7053
  49   2.0000      -0.495061       -13.4713
  50   2.0000      -0.490369       -13.3436
  51   2.0000      -0.481306       -13.0970
  52   2.0000      -0.473200       -12.8764
  53   2.0000      -0.472257       -12.8508
  54   2.0000      -0.462608       -12.5882
  55   2.0000      -0.458819       -12.4851
  56   2.0000      -0.437740       -11.9115
  57   2.0000      -0.435347       -11.8464
  58   2.0000      -0.429839       -11.6965
  59   2.0000      -0.424140       -11.5414
  60   2.0000      -0.420888       -11.4529
  61   2.0000      -0.415939       -11.3183
  62   2.0000      -0.401106       -10.9146
  63   2.0000      -0.342407        -9.3174
  64   2.0000      -0.333366        -9.0714
  65   2.0000      -0.326469        -8.8837
  66   2.0000      -0.297372        -8.0919
  67   0.0000       0.038493         1.0474
  68   0.0000       0.057602         1.5674
  69   0.0000       0.105505         2.8709
  70   0.0000       0.119380         3.2485
  71   0.0000       0.132463         3.6045

MULLIKEN ATOMIC CHARGES
-----------------------
   0 S :    0.132520
   1 C :   -0.141876
   2 C :   -0.104073
   3 C :    0.009280
   4 C :   -0.156515
   5 H :    0.019130
   6 C :    0.146894
   7 H :    0.026993
   8 H :    0.025892
   9 C :   -0.096660
  10 H :    0.021268
  11 H :    0.016367
  12 C :   -0.049933
  13 H :    0.036583
  14 H :    0.042962
  15 H :    0.022594
  16 S :    0.113849
  17 C :   -0.107775
  18 C :   -0.043341
  19 C :   -0.038386
  20 C :   -0.181510
  21 H :    0.024077
  22 C :    0.155060
  23 H :    0.004728
  24 H :    0.004403
  25 C :   -0.138155
  26 H :    0.031860
  27 H :    0.022713
  28 C :   -0.013558
  29 H :    0.029367
  30 H :    0.031165
  31 H :    0.031804
  32 H :    0.054039
  33 H :    0.068237
Sum of atomic charges:   -0.0000000

LOEWDIN ATOMIC CHARGES
----------------------
   0 S :    0.400694
   1 C :   -0.205467
   2 C :   -0.061940
   3 C :   -0.063231
   4 C :   -0.189260
   5 H :    0.033091
   6 C :   -0.021027
   7 H :    0.027501
   8 H :    0.034583
   9 C :   -0.043287
  10 H :    0.024517
  11 H :    0.015029
  12 C :   -0.070521
  13 H :    0.030306
  14 H :    0.029818
  15 H :    0.026558
  16 S :    0.425480
  17 C :   -0.196975
  18 C :   -0.078142
  19 C :   -0.051305
  20 C :   -0.212452
  21 H :    0.034690
  22 C :   -0.032703
  23 H :    0.030076
  24 H :    0.020822
  25 C :   -0.046621
  26 H :    0.027964
  27 H :    0.022303
  28 C :   -0.063928
  29 H :    0.028257
  30 H :    0.028744
  31 H :    0.019259
  32 H :    0.040258
  33 H :    0.036909

  Mayer bond orders larger than 0.100000
B(  0-S ,  1-C ) :   1.1157 B(  0-S ,  4-C ) :   1.1315 B(  1-C ,  2-C ) :   1.6911
B(  1-C , 32-H ) :   0.9551 B(  2-C ,  3-C ) :   1.2028 B(  2-C ,  6-C ) :   0.9958
B(  3-C ,  4-C ) :   1.6075 B(  3-C ,  5-H ) :   0.9962 B(  4-C , 20-C ) :   1.0206
B(  6-C ,  7-H ) :   0.9410 B(  6-C ,  8-H ) :   0.9202 B(  6-C ,  9-C ) :   1.1050
B(  9-C , 10-H ) :   0.9468 B(  9-C , 11-H ) :   0.9439 B(  9-C , 12-C ) :   1.0848
B( 12-C , 13-H ) :   0.9715 B( 12-C , 14-H ) :   0.9752 B( 12-C , 15-H ) :   0.9712
B( 16-S , 17-C ) :   1.1838 B( 16-S , 20-C ) :   1.1438 B( 17-C , 18-C ) :   1.5618
B( 17-C , 20-C ) :   0.1063 B( 17-C , 33-H ) :   0.9647 B( 18-C , 19-C ) :   1.2724
B( 18-C , 21-H ) :   0.9936 B( 19-C , 20-C ) :   1.5516 B( 19-C , 22-C ) :   1.0406
B( 22-C , 23-H ) :   0.9164 B( 22-C , 24-H ) :   0.9380 B( 22-C , 25-C ) :   1.0784
B( 25-C , 26-H ) :   0.9525 B( 25-C , 27-H ) :   0.9565 B( 25-C , 28-C ) :   1.0688
B( 28-C , 29-H ) :   0.9756 B( 28-C , 30-H ) :   0.9727 B( 28-C , 31-H ) :   0.9775

Dispersion correction           -0.014670928
FINAL SINGLE POINT ENERGY     -1339.864808451046

DIPOLE MOMENT
-------------
                                X             Y             Z
Electronic contribution:     12.61250     -17.60751      -3.84422
Nuclear contribution   :    -12.90448      17.90072       3.86790
                        -----------------------------------------
Total Dipole Moment    :     -0.29198       0.29321       0.02369
                        -----------------------------------------
Magnitude (a.u.)       :      0.41447
Magnitude (Debye)      :      1.05351

Rotational constants in cm-1:     0.018535     0.008229     0.007799
Rotational constants in MHz :   555.663173   246.697572   233.811172

                             ****ORCA TERMINATED NORMALLY****
TOTAL RUN TIME: 0 days 0 hours 0 minutes 32 seconds 699 msec
