                         Program Version 4.2.1 -  RELEASE  -
|  1> ! wB97X-D3 SP def2-SVP
|  2> %pal
|  3> nprocs 16
|  4> end
|  5>
|  6> * xyz 0 1
|  7> S 	 2.03951 	 -21.5093 	 56.7481
|  8> C 	 0.817102 	 -22.7711 	 56.6434
|  9> C 	 1.43677 	 -23.9658 	 56.4089
| 10> C 	 2.84691 	 -23.8648 	 56.1165
| 11> C 	 3.35136 	 -22.5845 	 56.3
| 12> H 	 3.57776 	 -24.534 	 55.7932
| 13> C 	 0.723578 	 -25.3368 	 56.1347
| 14> H 	 0.536185 	 -25.3457 	 55.0941
| 15> H 	 -0.273986 	 -25.2373 	 56.62
| 16> C 	 1.48547 	 -26.6323 	 56.5187
| 17> H 	 2.52824 	 -26.7927 	 56.1208
| 18> H 	 1.75699 	 -26.6172 	 57.6277
| 19> C 	 0.490831 	 -27.7354 	 56.3677
| 20> H 	 1.00822 	 -28.7305 	 56.4925
| 21> H 	 -0.214816 	 -27.639 	 57.1243
| 22> H 	 0.0395228 	 -27.7989 	 55.3835
| 23> S 	 4.99588 	 -20.8516 	 55.0315
| 24> C 	 6.74013 	 -20.7633 	 55.4255
| 25> C 	 7.06056 	 -21.8437 	 56.1731
| 26> C 	 5.9328 	 -22.6827 	 56.4471
| 27> C 	 4.71794 	 -22.2106 	 56.0784
| 28> H 	 8.04714 	 -21.9542 	 56.5174
| 29> C 	 6.09941 	 -23.9413 	 57.2724
| 30> H 	 5.16329 	 -24.5078 	 57.1476
| 31> H 	 6.15737 	 -23.613 	 58.3658
| 32> C 	 7.32731 	 -24.7817 	 56.8595
| 33> H 	 7.27366 	 -25.639 	 57.5933
| 34> H 	 8.18399 	 -24.2492 	 57.1053
| 35> C 	 7.3769 	 -25.2724 	 55.3874
| 36> H 	 8.21873 	 -24.8327 	 55.0072
| 37> H 	 6.43849 	 -24.9293 	 54.9136
| 38> H 	 7.39336 	 -26.3752 	 55.284
| 39> H 	 -0.262747 	 -22.7248 	 56.6946
| 40> H 	 7.40869 	 -19.9346 	 55.1232
| 41> *
| 42>
| 43>                          ****END OF INPUT****

CARTESIAN COORDINATES (ANGSTROEM)
---------------------------------
  S      2.039510  -21.509300   56.748100
  C      0.817102  -22.771100   56.643400
  C      1.436770  -23.965800   56.408900
  C      2.846910  -23.864800   56.116500
  C      3.351360  -22.584500   56.300000
  H      3.577760  -24.534000   55.793200
  C      0.723578  -25.336800   56.134700
  H      0.536185  -25.345700   55.094100
  H     -0.273986  -25.237300   56.620000
  C      1.485470  -26.632300   56.518700
  H      2.528240  -26.792700   56.120800
  H      1.756990  -26.617200   57.627700
  C      0.490831  -27.735400   56.367700
  H      1.008220  -28.730500   56.492500
  H     -0.214816  -27.639000   57.124300
  H      0.039523  -27.798900   55.383500
  S      4.995880  -20.851600   55.031500
  C      6.740130  -20.763300   55.425500
  C      7.060560  -21.843700   56.173100
  C      5.932800  -22.682700   56.447100
  C      4.717940  -22.210600   56.078400
  H      8.047140  -21.954200   56.517400
  C      6.099410  -23.941300   57.272400
  H      5.163290  -24.507800   57.147600
  H      6.157370  -23.613000   58.365800
  C      7.327310  -24.781700   56.859500
  H      7.273660  -25.639000   57.593300
  H      8.183990  -24.249200   57.105300
  C      7.376900  -25.272400   55.387400
  H      8.218730  -24.832700   55.007200
  H      6.438490  -24.929300   54.913600
  H      7.393360  -26.375200   55.284000
  H     -0.262747  -22.724800   56.694600
  H      7.408690  -19.934600   55.123200

 Total Charge           Charge          ....    0
 Multiplicity           Mult            ....    1
 Number of Electrons    NEL             ....  134
 Basis Dimension        Dim             ....  322

ORBITAL ENERGIES
----------------

  NO   OCC          E(Eh)            E(eV)
   0   2.0000     -88.967762     -2420.9359
   1   2.0000     -88.956096     -2420.6184
   2   2.0000     -10.329566      -281.0818
   3   2.0000     -10.321601      -280.8650
   4   2.0000     -10.321111      -280.8517
   5   2.0000     -10.315812      -280.7075
   6   2.0000     -10.303829      -280.3814
   7   2.0000     -10.298263      -280.2300
   8   2.0000     -10.296745      -280.1887
   9   2.0000     -10.296478      -280.1814
  10   2.0000     -10.292469      -280.0723
  11   2.0000     -10.290581      -280.0209
  12   2.0000     -10.290341      -280.0144
  13   2.0000     -10.284973      -279.8684
  14   2.0000     -10.276200      -279.6296
  15   2.0000     -10.275599      -279.6133
  16   2.0000      -8.081871      -219.9189
  17   2.0000      -8.071158      -219.6274
  18   2.0000      -6.040641      -164.3742
  19   2.0000      -6.036320      -164.2566
  20   2.0000      -6.032495      -164.1525
  21   2.0000      -6.029805      -164.0793
  22   2.0000      -6.025603      -163.9650
  23   2.0000      -6.021733      -163.8597
  24   2.0000      -1.010397       -27.4943
  25   2.0000      -0.985507       -26.8170
  26   2.0000      -0.912761       -24.8375
  27   2.0000      -0.905979       -24.6530
  28   2.0000      -0.881029       -23.9740
  29   2.0000      -0.849197       -23.1078
  30   2.0000      -0.840333       -22.8666
  31   2.0000      -0.822393       -22.3785
  32   2.0000      -0.778189       -21.1756
  33   2.0000      -0.772350       -21.0167
  34   2.0000      -0.714874       -19.4527
  35   2.0000      -0.697945       -18.9920
  36   2.0000      -0.695912       -18.9367
  37   2.0000      -0.659781       -17.9536
  38   2.0000      -0.646866       -17.6021
  39   2.0000      -0.615543       -16.7498
  40   2.0000      -0.594720       -16.1831
  41   2.0000      -0.574679       -15.6378
  42   2.0000      -0.568911       -15.4809
  43   2.0000      -0.555459       -15.1148
  44   2.0000      -0.538430       -14.6514
  45   2.0000      -0.533075       -14.5057
  46   2.0000      -0.520549       -14.1649
  47   2.0000      -0.516011       -14.0414
  48   2.0000      -0.507541       -13.8109
  49   2.0000      -0.501767       -13.6538
  50   2.0000      -0.492477       -13.4010
  51   2.0000      -0.479914       -13.0591
  52   2.0000      -0.479072       -13.0362
  53   2.0000      -0.470101       -12.7921
  54   2.0000      -0.460148       -12.5213
  55   2.0000      -0.444216       -12.0877
  56   2.0000      -0.441080       -12.0024
  57   2.0000      -0.436339       -11.8734
  58   2.0000      -0.432073       -11.7573
  59   2.0000      -0.427078       -11.6214
  60   2.0000      -0.415633       -11.3099
  61   2.0000      -0.408645       -11.1198
  62   2.0000      -0.399594       -10.8735
  63   2.0000      -0.350759        -9.5446
  64   2.0000      -0.329118        -8.9558
  65   2.0000      -0.325340        -8.8530
  66   2.0000      -0.296580        -8.0704
  67   0.0000       0.025626         0.6973
  68   0.0000       0.079343         2.1590
  69   0.0000       0.113679         3.0934
  70   0.0000       0.124174         3.3790
  71   0.0000       0.128548         3.4980

MULLIKEN ATOMIC CHARGES
-----------------------
   0 S :    0.123710
   1 C :   -0.117456
   2 C :   -0.055671
   3 C :    0.037759
   4 C :   -0.147191
   5 H :   -0.009791
   6 C :    0.043053
   7 H :    0.039542
   8 H :    0.024723
   9 C :   -0.119628
  10 H :    0.046203
  11 H :    0.033900
  12 C :   -0.014377
  13 H :    0.030215
  14 H :    0.024727
  15 H :    0.029558
  16 S :    0.076051
  17 C :   -0.099980
  18 C :   -0.009880
  19 C :   -0.056150
  20 C :   -0.150240
  21 H :    0.003805
  22 C :    0.036317
  23 H :    0.012150
  24 H :    0.054758
  25 C :   -0.092360
  26 H :    0.035199
  27 H :    0.013897
  28 C :   -0.016344
  29 H :    0.023716
  30 H :    0.041287
  31 H :    0.040866
  32 H :    0.045584
  33 H :    0.072047
Sum of atomic charges:    0.0000000

LOEWDIN ATOMIC CHARGES
----------------------
   0 S :    0.405377
   1 C :   -0.199754
   2 C :   -0.061116
   3 C :   -0.057795
   4 C :   -0.191153
   5 H :    0.018387
   6 C :   -0.027819
   7 H :    0.028404
   8 H :    0.032736
   9 C :   -0.054976
  10 H :    0.028737
  11 H :    0.032095
  12 C :   -0.059085
  13 H :    0.031545
  14 H :    0.018629
  15 H :    0.023116
  16 S :    0.381085
  17 C :   -0.164502
  18 C :   -0.069981
  19 C :   -0.065439
  20 C :   -0.200812
  21 H :    0.025965
  22 C :   -0.037744
  23 H :    0.024369
  24 H :    0.043779
  25 C :   -0.040939
  26 H :    0.031026
  27 H :    0.008755
  28 C :   -0.057098
  29 H :    0.016882
  30 H :    0.030994
  31 H :    0.032245
  32 H :    0.034969
  33 H :    0.039120

  Mayer bond orders larger than 0.100000
B(  0-S ,  1-C ) :   1.1206 B(  0-S ,  4-C ) :   1.1400 B(  1-C ,  2-C ) :   1.6367
B(  1-C , 32-H ) :   0.9693 B(  2-C ,  3-C ) :   1.2043 B(  2-C ,  6-C ) :   1.0067
B(  3-C ,  4-C ) :   1.5855 B(  3-C ,  5-H ) :   0.9951 B(  4-C , 20-C ) :   1.0559
B(  6-C ,  7-H ) :   0.9439 B(  6-C ,  8-H ) :   0.9475 B(  6-C ,  9-C ) :   1.0486
B(  9-C , 10-H ) :   0.9541 B(  9-C , 11-H ) :   0.9567 B(  9-C , 12-C ) :   1.0812
B( 12-C , 13-H ) :   0.9699 B( 12-C , 14-H ) :   0.9759 B( 12-C , 15-H ) :   0.9739
B( 16-S , 17-C ) :   1.1388 B( 16-S , 20-C ) :   1.1240 B( 17-C , 18-C ) :   1.6264
B( 17-C , 33-H ) :   0.9652 B( 18-C , 19-C ) :   1.2007 B( 18-C , 21-H ) :   1.0057
B( 19-C , 20-C ) :   1.6208 B( 19-C , 22-C ) :   1.0418 B( 22-C , 23-H ) :   0.9384
B( 22-C , 24-H ) :   0.9326 B( 22-C , 25-C ) :   1.0765 B( 25-C , 26-H ) :   0.9572
B( 25-C , 27-H ) :   0.9623 B( 25-C , 28-C ) :   1.0490 B( 28-C , 29-H ) :   0.9770
B( 28-C , 30-H ) :   0.9818 B( 28-C , 31-H ) :   0.9781

Dispersion correction           -0.014293243
FINAL SINGLE POINT ENERGY     -1339.853549915721

DIPOLE MOMENT
-------------
                                X             Y             Z
Electronic contribution:     -2.44477      29.87816      -2.27787
Nuclear contribution   :      2.63077     -30.55004       2.37452
                        -----------------------------------------
Total Dipole Moment    :      0.18601      -0.67187       0.09665
                        -----------------------------------------
Magnitude (a.u.)       :      0.70382
Magnitude (Debye)      :      1.78896

Rotational constants in cm-1:     0.018186     0.009096     0.006514
Rotational constants in MHz :   545.201083   272.693899   195.298686

                             ****ORCA TERMINATED NORMALLY****
TOTAL RUN TIME: 0 days 0 hours 0 minutes 35 seconds 784 msec
