                         Program Version 4.2.1 -  RELEASE  -
|  1> ! wB97X-D3 SP def2-SVP
|  2> %pal
|  3> nprocs 16
|  4> end
|  5>
|  6> * xyz 0 1
|  7> S 	 48.3773 	 16.8232 	 85.0965
|  8> C 	 47.6538 	 18.3109 	 84.7427
|  9> C 	 48.1748 	 18.9438 	 83.6527
| 10> C 	 49.0779 	 18.0562 	 82.9368
| 11> C 	 49.2587 	 16.8351 	 83.5749
| 12> H 	 49.5852 	 18.1997 	 81.965
| 13> C 	 47.6692 	 20.2738 	 83.0821
| 14> H 	 48.0928 	 20.5756 	 82.083
| 15> H 	 47.8826 	 21.2054 	 83.6729
| 16> C 	 46.1251 	 20.2426 	 82.7932
| 17> H 	 45.7963 	 20.0262 	 83.8316
| 18> H 	 45.7944 	 21.1821 	 82.4265
| 19> C 	 45.643 	 19.1845 	 81.7248
| 20> H 	 45.8907 	 18.1446 	 81.9904
| 21> H 	 44.5457 	 19.1354 	 81.5437
| 22> H 	 46.2475 	 19.3001 	 80.8567
| 23> S 	 48.5928 	 14.2676 	 82.8841
| 24> C 	 49.6784 	 13.2462 	 81.9418
| 25> C 	 50.8443 	 13.9328 	 81.6155
| 26> C 	 50.7926 	 15.2589 	 82.1158
| 27> C 	 49.7589 	 15.5733 	 82.9953
| 28> H 	 51.6182 	 13.3688 	 81.0708
| 29> C 	 51.8594 	 16.1839 	 81.5568
| 30> H 	 51.4013 	 17.2085 	 81.6407
| 31> H 	 51.9957 	 16.0524 	 80.4682
| 32> C 	 53.2349 	 16.1182 	 82.2613
| 33> H 	 53.9897 	 16.7176 	 81.6901
| 34> H 	 53.5131 	 15.0854 	 82.2729
| 35> C 	 53.2322 	 16.7452 	 83.5994
| 36> H 	 52.4692 	 16.2815 	 84.2052
| 37> H 	 53.0927 	 17.8572 	 83.5304
| 38> H 	 54.1223 	 16.6045 	 84.2081
| 39> H 	 46.9727 	 18.8398 	 85.297
| 40> H 	 49.6203 	 12.1779 	 81.8608
| 41> *
| 42>
| 43>                          ****END OF INPUT****

CARTESIAN COORDINATES (ANGSTROEM)
---------------------------------
  S     48.377300   16.823200   85.096500
  C     47.653800   18.310900   84.742700
  C     48.174800   18.943800   83.652700
  C     49.077900   18.056200   82.936800
  C     49.258700   16.835100   83.574900
  H     49.585200   18.199700   81.965000
  C     47.669200   20.273800   83.082100
  H     48.092800   20.575600   82.083000
  H     47.882600   21.205400   83.672900
  C     46.125100   20.242600   82.793200
  H     45.796300   20.026200   83.831600
  H     45.794400   21.182100   82.426500
  C     45.643000   19.184500   81.724800
  H     45.890700   18.144600   81.990400
  H     44.545700   19.135400   81.543700
  H     46.247500   19.300100   80.856700
  S     48.592800   14.267600   82.884100
  C     49.678400   13.246200   81.941800
  C     50.844300   13.932800   81.615500
  C     50.792600   15.258900   82.115800
  C     49.758900   15.573300   82.995300
  H     51.618200   13.368800   81.070800
  C     51.859400   16.183900   81.556800
  H     51.401300   17.208500   81.640700
  H     51.995700   16.052400   80.468200
  C     53.234900   16.118200   82.261300
  H     53.989700   16.717600   81.690100
  H     53.513100   15.085400   82.272900
  C     53.232200   16.745200   83.599400
  H     52.469200   16.281500   84.205200
  H     53.092700   17.857200   83.530400
  H     54.122300   16.604500   84.208100
  H     46.972700   18.839800   85.297000
  H     49.620300   12.177900   81.860800

 Total Charge           Charge          ....    0
 Multiplicity           Mult            ....    1
 Number of Electrons    NEL             ....  134
 Basis Dimension        Dim             ....  322

ORBITAL ENERGIES
----------------

  NO   OCC          E(Eh)            E(eV)
   0   2.0000     -88.970939     -2421.0223
   1   2.0000     -88.964285     -2420.8413
   2   2.0000     -10.333673      -281.1935
   3   2.0000     -10.332736      -281.1680
   4   2.0000     -10.317169      -280.7444
   5   2.0000     -10.307531      -280.4822
   6   2.0000     -10.306684      -280.4591
   7   2.0000     -10.304639      -280.4035
   8   2.0000     -10.303841      -280.3818
   9   2.0000     -10.303550      -280.3738
  10   2.0000     -10.296705      -280.1876
  11   2.0000     -10.293137      -280.0905
  12   2.0000     -10.292198      -280.0649
  13   2.0000     -10.282433      -279.7992
  14   2.0000     -10.278207      -279.6842
  15   2.0000     -10.268294      -279.4145
  16   2.0000      -8.086421      -220.0427
  17   2.0000      -8.078697      -219.8325
  18   2.0000      -6.044866      -164.4892
  19   2.0000      -6.040791      -164.3783
  20   2.0000      -6.037322      -164.2839
  21   2.0000      -6.037222      -164.2812
  22   2.0000      -6.033135      -164.1700
  23   2.0000      -6.029437      -164.0693
  24   2.0000      -1.011462       -27.5233
  25   2.0000      -0.988655       -26.9027
  26   2.0000      -0.909712       -24.7545
  27   2.0000      -0.906022       -24.6541
  28   2.0000      -0.870840       -23.6968
  29   2.0000      -0.850282       -23.1374
  30   2.0000      -0.842972       -22.9384
  31   2.0000      -0.816056       -22.2060
  32   2.0000      -0.781324       -21.2609
  33   2.0000      -0.771426       -20.9916
  34   2.0000      -0.707654       -19.2563
  35   2.0000      -0.700527       -19.0623
  36   2.0000      -0.689037       -18.7496
  37   2.0000      -0.662294       -18.0219
  38   2.0000      -0.644446       -17.5363
  39   2.0000      -0.613124       -16.6839
  40   2.0000      -0.594391       -16.1742
  41   2.0000      -0.584042       -15.8926
  42   2.0000      -0.551125       -14.9969
  43   2.0000      -0.547433       -14.8964
  44   2.0000      -0.542703       -14.7677
  45   2.0000      -0.540760       -14.7148
  46   2.0000      -0.517881       -14.0923
  47   2.0000      -0.513405       -13.9705
  48   2.0000      -0.503482       -13.7004
  49   2.0000      -0.499704       -13.5976
  50   2.0000      -0.485885       -13.2216
  51   2.0000      -0.478819       -13.0293
  52   2.0000      -0.470800       -12.8111
  53   2.0000      -0.463443       -12.6109
  54   2.0000      -0.460559       -12.5324
  55   2.0000      -0.442607       -12.0439
  56   2.0000      -0.439187       -11.9509
  57   2.0000      -0.435284       -11.8447
  58   2.0000      -0.427726       -11.6390
  59   2.0000      -0.424938       -11.5631
  60   2.0000      -0.419036       -11.4025
  61   2.0000      -0.408826       -11.1247
  62   2.0000      -0.404256       -11.0004
  63   2.0000      -0.353436        -9.6175
  64   2.0000      -0.331054        -9.0084
  65   2.0000      -0.327370        -8.9082
  66   2.0000      -0.296370        -8.0646
  67   0.0000       0.023707         0.6451
  68   0.0000       0.069573         1.8932
  69   0.0000       0.106932         2.9098
  70   0.0000       0.112657         3.0655
  71   0.0000       0.131437         3.5766

MULLIKEN ATOMIC CHARGES
-----------------------
   0 S :    0.131554
   1 C :   -0.074065
   2 C :   -0.068559
   3 C :    0.027375
   4 C :   -0.178224
   5 H :    0.035668
   6 C :    0.007727
   7 H :    0.022926
   8 H :    0.048943
   9 C :   -0.075965
  10 H :    0.024701
  11 H :    0.029027
  12 C :   -0.055368
  13 H :    0.032333
  14 H :    0.051007
  15 H :    0.018941
  16 S :    0.092300
  17 C :   -0.090258
  18 C :   -0.049737
  19 C :   -0.074288
  20 C :   -0.091664
  21 H :    0.040485
  22 C :    0.029932
  23 H :    0.003764
  24 H :    0.037888
  25 C :   -0.031213
  26 H :    0.029714
  27 H :    0.018625
  28 C :   -0.055088
  29 H :    0.027018
  30 H :    0.035888
  31 H :    0.027128
  32 H :    0.015226
  33 H :    0.056262
Sum of atomic charges:   -0.0000000

LOEWDIN ATOMIC CHARGES
----------------------
   0 S :    0.432393
   1 C :   -0.194853
   2 C :   -0.064152
   3 C :   -0.052579
   4 C :   -0.199921
   5 H :    0.035938
   6 C :   -0.041361
   7 H :    0.028499
   8 H :    0.037531
   9 C :   -0.033076
  10 H :    0.020096
  11 H :    0.017836
  12 C :   -0.072774
  13 H :    0.028481
  14 H :    0.033648
  15 H :    0.020038
  16 S :    0.402125
  17 C :   -0.181106
  18 C :   -0.072561
  19 C :   -0.063251
  20 C :   -0.201215
  21 H :    0.040967
  22 C :   -0.035946
  23 H :    0.026155
  24 H :    0.034206
  25 C :   -0.039839
  26 H :    0.028192
  27 H :    0.018729
  28 C :   -0.070403
  29 H :    0.022538
  30 H :    0.031140
  31 H :    0.024755
  32 H :    0.012741
  33 H :    0.027031

  Mayer bond orders larger than 0.100000
B(  0-S ,  1-C ) :   1.1547 B(  0-S ,  4-C ) :   1.1465 B(  1-C ,  2-C ) :   1.6157
B(  1-C , 32-H ) :   0.9695 B(  2-C ,  3-C ) :   1.2373 B(  2-C ,  6-C ) :   1.0153
B(  3-C ,  4-C ) :   1.5892 B(  3-C ,  5-H ) :   0.9772 B(  4-C , 20-C ) :   1.0184
B(  6-C ,  7-H ) :   0.9518 B(  6-C ,  8-H ) :   0.9443 B(  6-C ,  9-C ) :   1.0640
B(  9-C , 10-H ) :   0.9616 B(  9-C , 11-H ) :   0.9594 B(  9-C , 12-C ) :   1.0591
B( 12-C , 13-H ) :   0.9744 B( 12-C , 14-H ) :   0.9776 B( 12-C , 15-H ) :   0.9740
B( 16-S , 17-C ) :   1.1634 B( 16-S , 20-C ) :   1.1318 B( 17-C , 18-C ) :   1.6085
B( 17-C , 20-C ) :   0.1009 B( 17-C , 33-H ) :   0.9625 B( 18-C , 19-C ) :   1.2425
B( 18-C , 21-H ) :   0.9881 B( 19-C , 20-C ) :   1.5919 B( 19-C , 22-C ) :   1.0327
B( 22-C , 23-H ) :   0.9343 B( 22-C , 24-H ) :   0.9423 B( 22-C , 25-C ) :   1.0681
B( 25-C , 26-H ) :   0.9527 B( 25-C , 27-H ) :   0.9543 B( 25-C , 28-C ) :   1.0910
B( 28-C , 29-H ) :   0.9730 B( 28-C , 30-H ) :   0.9717 B( 28-C , 31-H ) :   0.9698

Dispersion correction           -0.014981475
FINAL SINGLE POINT ENERGY     -1339.858808907245

DIPOLE MOMENT
-------------
                                X             Y             Z
Electronic contribution:     -5.68432     -15.74722       9.33727
Nuclear contribution   :      5.84893      16.03424      -9.74456
                        -----------------------------------------
Total Dipole Moment    :      0.16461       0.28702      -0.40730
                        -----------------------------------------
Magnitude (a.u.)       :      0.52476
Magnitude (Debye)      :      1.33382

Rotational constants in cm-1:     0.020165     0.008566     0.007595
Rotational constants in MHz :   604.529129   256.798380   227.693126

                             ****ORCA TERMINATED NORMALLY****
TOTAL RUN TIME: 0 days 0 hours 0 minutes 30 seconds 595 msec
