                         Program Version 4.2.1 -  RELEASE  -
|  1> ! wB97X-D3 SP def2-SVP
|  2> %pal
|  3> nprocs 16
|  4> end
|  5>
|  6> * xyz 0 1
|  7> S 	 -81.9474 	 36.4929 	 135.277
|  8> C 	 -80.3287 	 36.3239 	 136.076
|  9> C 	 -79.3619 	 36.0292 	 135.194
| 10> C 	 -79.8363 	 35.7971 	 133.88
| 11> C 	 -81.1482 	 36.2295 	 133.713
| 12> H 	 -79.4598 	 35.6588 	 132.939
| 13> C 	 -77.9216 	 35.6308 	 135.548
| 14> H 	 -77.5852 	 34.7224 	 135.075
| 15> H 	 -77.8992 	 35.4816 	 136.706
| 16> C 	 -76.894 	 36.8251 	 135.367
| 17> H 	 -77.1313 	 37.5838 	 136.043
| 18> H 	 -75.9382 	 36.4405 	 135.78
| 19> C 	 -76.5964 	 37.2133 	 133.932
| 20> H 	 -77.4862 	 37.716 	 133.537
| 21> H 	 -75.8429 	 37.9743 	 133.974
| 22> H 	 -76.3758 	 36.3663 	 133.293
| 23> S 	 -83.3581 	 35.3687 	 132.404
| 24> C 	 -83.5501 	 35.6605 	 130.685
| 25> C 	 -82.5443 	 36.4906 	 130.187
| 26> C 	 -81.6027 	 36.8463 	 131.21
| 27> C 	 -81.8546 	 36.319 	 132.444
| 28> H 	 -82.4684 	 36.7427 	 129.09
| 29> C 	 -80.3624 	 37.707 	 130.974
| 30> H 	 -80.1812 	 37.7473 	 129.894
| 31> H 	 -79.4039 	 37.1488 	 131.205
| 32> C 	 -80.3157 	 39.0796 	 131.639
| 33> H 	 -79.4829 	 39.6032 	 131.095
| 34> H 	 -80.0049 	 38.9552 	 132.689
| 35> C 	 -81.6707 	 39.8336 	 131.442
| 36> H 	 -82.5404 	 39.4582 	 131.953
| 37> H 	 -81.9602 	 39.9486 	 130.432
| 38> H 	 -81.4869 	 40.7816 	 131.895
| 39> H 	 -80.2086 	 36.3792 	 137.152
| 40> H 	 -84.3783 	 35.3025 	 130.133
| 41> *
| 42>
| 43>                          ****END OF INPUT****

CARTESIAN COORDINATES (ANGSTROEM)
---------------------------------
  S    -81.947400   36.492900  135.277000
  C    -80.328700   36.323900  136.076000
  C    -79.361900   36.029200  135.194000
  C    -79.836300   35.797100  133.880000
  C    -81.148200   36.229500  133.713000
  H    -79.459800   35.658800  132.939000
  C    -77.921600   35.630800  135.548000
  H    -77.585200   34.722400  135.075000
  H    -77.899200   35.481600  136.706000
  C    -76.894000   36.825100  135.367000
  H    -77.131300   37.583800  136.043000
  H    -75.938200   36.440500  135.780000
  C    -76.596400   37.213300  133.932000
  H    -77.486200   37.716000  133.537000
  H    -75.842900   37.974300  133.974000
  H    -76.375800   36.366300  133.293000
  S    -83.358100   35.368700  132.404000
  C    -83.550100   35.660500  130.685000
  C    -82.544300   36.490600  130.187000
  C    -81.602700   36.846300  131.210000
  C    -81.854600   36.319000  132.444000
  H    -82.468400   36.742700  129.090000
  C    -80.362400   37.707000  130.974000
  H    -80.181200   37.747300  129.894000
  H    -79.403900   37.148800  131.205000
  C    -80.315700   39.079600  131.639000
  H    -79.482900   39.603200  131.095000
  H    -80.004900   38.955200  132.689000
  C    -81.670700   39.833600  131.442000
  H    -82.540400   39.458200  131.953000
  H    -81.960200   39.948600  130.432000
  H    -81.486900   40.781600  131.895000
  H    -80.208600   36.379200  137.152000
  H    -84.378300   35.302500  130.133000

 Total Charge           Charge          ....    0
 Multiplicity           Mult            ....    1
 Number of Electrons    NEL             ....  134
 Basis Dimension        Dim             ....  322

ORBITAL ENERGIES
----------------

  NO   OCC          E(Eh)            E(eV)
   0   2.0000     -88.965404     -2420.8717
   1   2.0000     -88.963165     -2420.8108
   2   2.0000     -10.331283      -281.1285
   3   2.0000     -10.325113      -280.9606
   4   2.0000     -10.320320      -280.8302
   5   2.0000     -10.316204      -280.7182
   6   2.0000     -10.305365      -280.4233
   7   2.0000     -10.304006      -280.3863
   8   2.0000     -10.301785      -280.3258
   9   2.0000     -10.301373      -280.3146
  10   2.0000     -10.292416      -280.0709
  11   2.0000     -10.291362      -280.0422
  12   2.0000     -10.286460      -279.9088
  13   2.0000     -10.284601      -279.8582
  14   2.0000     -10.276093      -279.6267
  15   2.0000     -10.266846      -279.3751
  16   2.0000      -8.079035      -219.8417
  17   2.0000      -8.077804      -219.8082
  18   2.0000      -6.037637      -164.2925
  19   2.0000      -6.036281      -164.2556
  20   2.0000      -6.033920      -164.1913
  21   2.0000      -6.032285      -164.1468
  22   2.0000      -6.029543      -164.0722
  23   2.0000      -6.028626      -164.0473
  24   2.0000      -1.004747       -27.3406
  25   2.0000      -0.981106       -26.6973
  26   2.0000      -0.906132       -24.6571
  27   2.0000      -0.904316       -24.6077
  28   2.0000      -0.871089       -23.7035
  29   2.0000      -0.848214       -23.0811
  30   2.0000      -0.840625       -22.8746
  31   2.0000      -0.815567       -22.1927
  32   2.0000      -0.784317       -21.3424
  33   2.0000      -0.775494       -21.1023
  34   2.0000      -0.708824       -19.2881
  35   2.0000      -0.701504       -19.0889
  36   2.0000      -0.688751       -18.7419
  37   2.0000      -0.667249       -18.1568
  38   2.0000      -0.650329       -17.6963
  39   2.0000      -0.605481       -16.4760
  40   2.0000      -0.588953       -16.0262
  41   2.0000      -0.573234       -15.5985
  42   2.0000      -0.551211       -14.9992
  43   2.0000      -0.544014       -14.8034
  44   2.0000      -0.541448       -14.7335
  45   2.0000      -0.535523       -14.5723
  46   2.0000      -0.524391       -14.2694
  47   2.0000      -0.506695       -13.7879
  48   2.0000      -0.503075       -13.6894
  49   2.0000      -0.495065       -13.4714
  50   2.0000      -0.494121       -13.4457
  51   2.0000      -0.485477       -13.2105
  52   2.0000      -0.476994       -12.9797
  53   2.0000      -0.465292       -12.6612
  54   2.0000      -0.457006       -12.4358
  55   2.0000      -0.444094       -12.0844
  56   2.0000      -0.441617       -12.0170
  57   2.0000      -0.433716       -11.8020
  58   2.0000      -0.430660       -11.7189
  59   2.0000      -0.421431       -11.4677
  60   2.0000      -0.420941       -11.4544
  61   2.0000      -0.407355       -11.0847
  62   2.0000      -0.403748       -10.9866
  63   2.0000      -0.343972        -9.3599
  64   2.0000      -0.333597        -9.0776
  65   2.0000      -0.332349        -9.0437
  66   2.0000      -0.294415        -8.0114
  67   0.0000       0.025492         0.6937
  68   0.0000       0.066279         1.8035
  69   0.0000       0.099004         2.6940
  70   0.0000       0.120380         3.2757
  71   0.0000       0.122705         3.3390

MULLIKEN ATOMIC CHARGES
-----------------------
   0 S :    0.091095
   1 C :   -0.122042
   2 C :   -0.024890
   3 C :    0.090357
   4 C :   -0.175403
   5 H :   -0.030768
   6 C :    0.011749
   7 H :    0.038361
   8 H :    0.029997
   9 C :   -0.067261
  10 H :    0.015425
  11 H :    0.021151
  12 C :   -0.021793
  13 H :    0.028911
  14 H :    0.031039
  15 H :    0.035399
  16 S :    0.089683
  17 C :   -0.079910
  18 C :   -0.050558
  19 C :   -0.045911
  20 C :   -0.147841
  21 H :    0.044658
  22 C :    0.025719
  23 H :    0.005150
  24 H :    0.030090
  25 C :   -0.077778
  26 H :    0.037147
  27 H :    0.052791
  28 C :   -0.014968
  29 H :    0.040848
  30 H :    0.018887
  31 H :    0.023286
  32 H :    0.048207
  33 H :    0.049175
Sum of atomic charges:   -0.0000000

LOEWDIN ATOMIC CHARGES
----------------------
   0 S :    0.358536
   1 C :   -0.169980
   2 C :   -0.067175
   3 C :   -0.053725
   4 C :   -0.174383
   5 H :    0.017556
   6 C :   -0.026032
   7 H :    0.027438
   8 H :    0.037652
   9 C :   -0.037183
  10 H :    0.015481
  11 H :    0.023552
  12 C :   -0.063366
  13 H :    0.024628
  14 H :    0.026125
  15 H :    0.026212
  16 S :    0.391503
  17 C :   -0.171333
  18 C :   -0.078183
  19 C :   -0.060057
  20 C :   -0.188450
  21 H :    0.044286
  22 C :   -0.046991
  23 H :    0.025298
  24 H :    0.032953
  25 C :   -0.037339
  26 H :    0.032633
  27 H :    0.027762
  28 C :   -0.060479
  29 H :    0.028564
  30 H :    0.019688
  31 H :    0.024487
  32 H :    0.028558
  33 H :    0.021762

  Mayer bond orders larger than 0.100000
B(  0-S ,  1-C ) :   1.1048 B(  0-S ,  4-C ) :   1.1321 B(  1-C ,  2-C ) :   1.6715
B(  1-C , 32-H ) :   0.9651 B(  2-C ,  3-C ) :   1.1689 B(  2-C ,  6-C ) :   1.0055
B(  3-C ,  4-C ) :   1.6101 B(  3-C ,  5-H ) :   1.0008 B(  4-C , 20-C ) :   1.0408
B(  6-C ,  7-H ) :   0.9541 B(  6-C ,  8-H ) :   0.9474 B(  6-C ,  9-C ) :   1.0691
B(  9-C , 10-H ) :   0.9565 B(  9-C , 11-H ) :   0.9560 B(  9-C , 12-C ) :   1.0799
B( 12-C , 13-H ) :   0.9725 B( 12-C , 14-H ) :   0.9702 B( 12-C , 15-H ) :   0.9726
B( 16-S , 17-C ) :   1.1659 B( 16-S , 20-C ) :   1.1237 B( 17-C , 18-C ) :   1.6003
B( 17-C , 20-C ) :   0.1012 B( 17-C , 33-H ) :   0.9729 B( 18-C , 19-C ) :   1.2355
B( 18-C , 21-H ) :   0.9810 B( 19-C , 20-C ) :   1.6237 B( 19-C , 22-C ) :   1.0336
B( 22-C , 23-H ) :   0.9292 B( 22-C , 24-H ) :   0.9360 B( 22-C , 25-C ) :   1.0702
B( 25-C , 26-H ) :   0.9547 B( 25-C , 27-H ) :   0.9513 B( 25-C , 28-C ) :   1.0759
B( 28-C , 29-H ) :   0.9695 B( 28-C , 30-H ) :   0.9775 B( 28-C , 31-H ) :   0.9729

Dispersion correction           -0.016022472
FINAL SINGLE POINT ENERGY     -1339.862035858588

DIPOLE MOMENT
-------------
                                X             Y             Z
Electronic contribution:    -23.06242     -13.10359       4.57897
Nuclear contribution   :     23.65208      13.26841      -4.87595
                        -----------------------------------------
Total Dipole Moment    :      0.58966       0.16482      -0.29698
                        -----------------------------------------
Magnitude (a.u.)       :      0.68048
Magnitude (Debye)      :      1.72965

Rotational constants in cm-1:     0.019545     0.009766     0.007817
Rotational constants in MHz :   585.959128   292.774301   234.336667

                             ****ORCA TERMINATED NORMALLY****
TOTAL RUN TIME: 0 days 0 hours 0 minutes 37 seconds 614 msec
