                         Program Version 4.2.1 -  RELEASE  -
|  1> ! wB97X-D3 SP def2-SVP
|  2> %pal
|  3> nprocs 16
|  4> end
|  5>
|  6> * xyz 0 1
|  7> S 	 -44.3361 	 36.4302 	 78.7964
|  8> C 	 -44.7853 	 36.484 	 77.0504
|  9> C 	 -44.5319 	 35.2979 	 76.4676
| 10> C 	 -43.9017 	 34.3965 	 77.3736
| 11> C 	 -43.6063 	 34.886 	 78.61
| 12> H 	 -43.5694 	 33.3286 	 77.2328
| 13> C 	 -44.743 	 34.8783 	 74.9947
| 14> H 	 -43.7512 	 35.0568 	 74.5321
| 15> H 	 -45.5304 	 35.4101 	 74.5068
| 16> C 	 -45.0111 	 33.433 	 74.568
| 17> H 	 -44.7336 	 33.2747 	 73.5144
| 18> H 	 -44.465 	 32.8157 	 75.2376
| 19> C 	 -46.5117 	 33.1046 	 74.514
| 20> H 	 -46.6844 	 32.0696 	 74.2771
| 21> H 	 -47.1689 	 33.2972 	 75.4294
| 22> H 	 -46.8711 	 33.8019 	 73.7371
| 23> S 	 -42.9897 	 34.9091 	 81.329
| 24> C 	 -41.6575 	 33.9401 	 81.8822
| 25> C 	 -41.2216 	 33.0868 	 80.9067
| 26> C 	 -41.9642 	 33.1732 	 79.6693
| 27> C 	 -42.9151 	 34.2088 	 79.7153
| 28> H 	 -40.3924 	 32.5487 	 81.1291
| 29> C 	 -41.4424 	 32.4223 	 78.4502
| 30> H 	 -41.4968 	 33.2076 	 77.7142
| 31> H 	 -42.1188 	 31.6568 	 78.1607
| 32> C 	 -39.9896 	 32.1115 	 78.3902
| 33> H 	 -39.7633 	 31.388 	 79.1859
| 34> H 	 -39.4716 	 33.0561 	 78.5866
| 35> C 	 -39.488 	 31.6164 	 77.0594
| 36> H 	 -38.3777 	 31.3106 	 77.1654
| 37> H 	 -39.5388 	 32.3294 	 76.1699
| 38> H 	 -40.1095 	 30.6946 	 76.7578
| 39> H 	 -45.0576 	 37.3868 	 76.5026
| 40> H 	 -41.1014 	 34.1793 	 82.8073
| 41> *
| 42>
| 43>                          ****END OF INPUT****

CARTESIAN COORDINATES (ANGSTROEM)
---------------------------------
  S    -44.336100   36.430200   78.796400
  C    -44.785300   36.484000   77.050400
  C    -44.531900   35.297900   76.467600
  C    -43.901700   34.396500   77.373600
  C    -43.606300   34.886000   78.610000
  H    -43.569400   33.328600   77.232800
  C    -44.743000   34.878300   74.994700
  H    -43.751200   35.056800   74.532100
  H    -45.530400   35.410100   74.506800
  C    -45.011100   33.433000   74.568000
  H    -44.733600   33.274700   73.514400
  H    -44.465000   32.815700   75.237600
  C    -46.511700   33.104600   74.514000
  H    -46.684400   32.069600   74.277100
  H    -47.168900   33.297200   75.429400
  H    -46.871100   33.801900   73.737100
  S    -42.989700   34.909100   81.329000
  C    -41.657500   33.940100   81.882200
  C    -41.221600   33.086800   80.906700
  C    -41.964200   33.173200   79.669300
  C    -42.915100   34.208800   79.715300
  H    -40.392400   32.548700   81.129100
  C    -41.442400   32.422300   78.450200
  H    -41.496800   33.207600   77.714200
  H    -42.118800   31.656800   78.160700
  C    -39.989600   32.111500   78.390200
  H    -39.763300   31.388000   79.185900
  H    -39.471600   33.056100   78.586600
  C    -39.488000   31.616400   77.059400
  H    -38.377700   31.310600   77.165400
  H    -39.538800   32.329400   76.169900
  H    -40.109500   30.694600   76.757800
  H    -45.057600   37.386800   76.502600
  H    -41.101400   34.179300   82.807300

 Total Charge           Charge          ....    0
 Multiplicity           Mult            ....    1
 Number of Electrons    NEL             ....  134
 Basis Dimension        Dim             ....  322

ORBITAL ENERGIES
----------------

  NO   OCC          E(Eh)            E(eV)
   0   2.0000     -88.965751     -2420.8812
   1   2.0000     -88.962568     -2420.7946
   2   2.0000     -10.333533      -281.1897
   3   2.0000     -10.328489      -281.0525
   4   2.0000     -10.317384      -280.7503
   5   2.0000     -10.314918      -280.6832
   6   2.0000     -10.310557      -280.5645
   7   2.0000     -10.304846      -280.4091
   8   2.0000     -10.298554      -280.2379
   9   2.0000     -10.294317      -280.1226
  10   2.0000     -10.291684      -280.0510
  11   2.0000     -10.288913      -279.9756
  12   2.0000     -10.287824      -279.9459
  13   2.0000     -10.287757      -279.9441
  14   2.0000     -10.287495      -279.9370
  15   2.0000     -10.281228      -279.7664
  16   2.0000      -8.080740      -219.8881
  17   2.0000      -8.077423      -219.7979
  18   2.0000      -6.039327      -164.3385
  19   2.0000      -6.036112      -164.2509
  20   2.0000      -6.035191      -164.2259
  21   2.0000      -6.032107      -164.1420
  22   2.0000      -6.031430      -164.1236
  23   2.0000      -6.027780      -164.0242
  24   2.0000      -1.010025       -27.4842
  25   2.0000      -0.986664       -26.8485
  26   2.0000      -0.923176       -25.1209
  27   2.0000      -0.914546       -24.8861
  28   2.0000      -0.874988       -23.8096
  29   2.0000      -0.854304       -23.2468
  30   2.0000      -0.840183       -22.8625
  31   2.0000      -0.816963       -22.2307
  32   2.0000      -0.784790       -21.3552
  33   2.0000      -0.776629       -21.1332
  34   2.0000      -0.708542       -19.2804
  35   2.0000      -0.699527       -19.0351
  36   2.0000      -0.691752       -18.8235
  37   2.0000      -0.655917       -17.8484
  38   2.0000      -0.639103       -17.3909
  39   2.0000      -0.621940       -16.9239
  40   2.0000      -0.601500       -16.3676
  41   2.0000      -0.584896       -15.9158
  42   2.0000      -0.575228       -15.6528
  43   2.0000      -0.554488       -15.0884
  44   2.0000      -0.543209       -14.7815
  45   2.0000      -0.530784       -14.4434
  46   2.0000      -0.519443       -14.1348
  47   2.0000      -0.511357       -13.9147
  48   2.0000      -0.505895       -13.7661
  49   2.0000      -0.497835       -13.5468
  50   2.0000      -0.489545       -13.3212
  51   2.0000      -0.484649       -13.1880
  52   2.0000      -0.478764       -13.0278
  53   2.0000      -0.464653       -12.6439
  54   2.0000      -0.460015       -12.5177
  55   2.0000      -0.451672       -12.2906
  56   2.0000      -0.441233       -12.0066
  57   2.0000      -0.433423       -11.7940
  58   2.0000      -0.429262       -11.6808
  59   2.0000      -0.423806       -11.5323
  60   2.0000      -0.416919       -11.3449
  61   2.0000      -0.415726       -11.3125
  62   2.0000      -0.409074       -11.1315
  63   2.0000      -0.360979        -9.8227
  64   2.0000      -0.334438        -9.1005
  65   2.0000      -0.327970        -8.9245
  66   2.0000      -0.285686        -7.7739
  67   0.0000       0.018960         0.5159
  68   0.0000       0.085078         2.3151
  69   0.0000       0.099989         2.7208
  70   0.0000       0.123031         3.3479
  71   0.0000       0.136894         3.7251

MULLIKEN ATOMIC CHARGES
-----------------------
   0 S :    0.083949
   1 C :   -0.146724
   2 C :   -0.017312
   3 C :   -0.060455
   4 C :   -0.108369
   5 H :    0.024638
   6 C :    0.057411
   7 H :    0.048705
   8 H :    0.010845
   9 C :   -0.053548
  10 H :    0.035568
  11 H :    0.018487
  12 C :   -0.089429
  13 H :    0.036724
  14 H :    0.047059
  15 H :    0.030049
  16 S :    0.094209
  17 C :   -0.101751
  18 C :   -0.006630
  19 C :   -0.065883
  20 C :   -0.113081
  21 H :   -0.020361
  22 C :    0.053166
  23 H :    0.025037
  24 H :    0.042654
  25 C :   -0.066214
  26 H :    0.036981
  27 H :    0.036461
  28 C :   -0.099548
  29 H :    0.053433
  30 H :    0.049757
  31 H :    0.038803
  32 H :    0.051920
  33 H :    0.073448
Sum of atomic charges:    0.0000000

LOEWDIN ATOMIC CHARGES
----------------------
   0 S :    0.383459
   1 C :   -0.181247
   2 C :   -0.059838
   3 C :   -0.088158
   4 C :   -0.189699
   5 H :    0.037549
   6 C :   -0.029429
   7 H :    0.042999
   8 H :    0.022278
   9 C :   -0.036551
  10 H :    0.033710
  11 H :    0.012846
  12 C :   -0.073626
  13 H :    0.022098
  14 H :    0.031713
  15 H :    0.025133
  16 S :    0.398770
  17 C :   -0.187867
  18 C :   -0.062815
  19 C :   -0.046928
  20 C :   -0.191030
  21 H :    0.014274
  22 C :   -0.039577
  23 H :    0.035750
  24 H :    0.025517
  25 C :   -0.049086
  26 H :    0.023333
  27 H :    0.031753
  28 C :   -0.078116
  29 H :    0.038802
  30 H :    0.031081
  31 H :    0.030494
  32 H :    0.034056
  33 H :    0.038350

  Mayer bond orders larger than 0.100000
B(  0-S ,  1-C ) :   1.1056 B(  0-S ,  4-C ) :   1.1359 B(  1-C ,  2-C ) :   1.6563
B(  1-C , 32-H ) :   0.9691 B(  2-C ,  3-C ) :   1.2022 B(  2-C ,  6-C ) :   1.0061
B(  3-C ,  4-C ) :   1.6031 B(  3-C ,  5-H ) :   0.9749 B(  4-C , 20-C ) :   1.0772
B(  6-C ,  7-H ) :   0.9346 B(  6-C ,  8-H ) :   0.9492 B(  6-C ,  9-C ) :   1.0784
B(  9-C , 10-H ) :   0.9543 B(  9-C , 11-H ) :   0.9511 B(  9-C , 12-C ) :   1.0716
B( 12-C , 13-H ) :   0.9759 B( 12-C , 14-H ) :   0.9787 B( 12-C , 15-H ) :   0.9743
B( 16-S , 17-C ) :   1.1489 B( 16-S , 20-C ) :   1.1359 B( 17-C , 18-C ) :   1.6204
B( 17-C , 33-H ) :   0.9594 B( 18-C , 19-C ) :   1.2364 B( 18-C , 21-H ) :   1.0054
B( 19-C , 20-C ) :   1.5773 B( 19-C , 22-C ) :   1.0278 B( 22-C , 23-H ) :   0.9295
B( 22-C , 24-H ) :   0.9213 B( 22-C , 25-C ) :   1.0824 B( 25-C , 26-H ) :   0.9370
B( 25-C , 27-H ) :   0.9498 B( 25-C , 28-C ) :   1.0896 B( 28-C , 29-H ) :   0.9703
B( 28-C , 30-H ) :   0.9722 B( 28-C , 31-H ) :   0.9710

Dispersion correction           -0.013422889
FINAL SINGLE POINT ENERGY     -1339.854963196957

DIPOLE MOMENT
-------------
                                X             Y             Z
Electronic contribution:     -5.49447      17.73984      25.10082
Nuclear contribution   :      6.01478     -18.12140     -25.69888
                        -----------------------------------------
Total Dipole Moment    :      0.52031      -0.38156      -0.59806
                        -----------------------------------------
Magnitude (a.u.)       :      0.87977
Magnitude (Debye)      :      2.23619

Rotational constants in cm-1:     0.016340     0.009374     0.006508
Rotational constants in MHz :   489.853473   281.012197   195.116775

                             ****ORCA TERMINATED NORMALLY****
TOTAL RUN TIME: 0 days 0 hours 0 minutes 30 seconds 178 msec
