                         Program Version 4.2.1 -  RELEASE  -
|  1> ! wB97X-D3 SP def2-SVP
|  2> %pal
|  3> nprocs 16
|  4> end
|  5>
|  6> * xyz 0 1
|  7> S 	 -50.7737 	 65.8324 	 136.53
|  8> C 	 -50.0959 	 64.3438 	 136.006
|  9> C 	 -49.3254 	 63.6857 	 136.965
| 10> C 	 -49.1493 	 64.5076 	 138.076
| 11> C 	 -49.8011 	 65.7311 	 137.989
| 12> H 	 -48.476 	 64.2223 	 138.918
| 13> C 	 -48.5231 	 62.4423 	 136.732
| 14> H 	 -48.3123 	 62.3654 	 135.672
| 15> H 	 -49.3062 	 61.7124 	 136.886
| 16> C 	 -47.3121 	 62.1166 	 137.695
| 17> H 	 -46.7186 	 63.0253 	 137.809
| 18> H 	 -47.706 	 61.9903 	 138.696
| 19> C 	 -46.4964 	 60.8117 	 137.415
| 20> H 	 -46.2356 	 60.7362 	 136.383
| 21> H 	 -45.5856 	 60.7698 	 137.995
| 22> H 	 -47.1005 	 59.9434 	 137.553
| 23> S 	 -49.7778 	 68.4831 	 138.137
| 24> C 	 -49.6597 	 69.2775 	 139.691
| 25> C 	 -49.4668 	 68.3588 	 140.762
| 26> C 	 -49.5505 	 66.9673 	 140.321
| 27> C 	 -49.675 	 66.8784 	 138.892
| 28> H 	 -49.3491 	 68.6946 	 141.775
| 29> C 	 -49.46 	 65.794 	 141.326
| 30> H 	 -50.1003 	 65.0037 	 140.934
| 31> H 	 -49.8853 	 65.9187 	 142.285
| 32> C 	 -48.0658 	 65.322 	 141.515
| 33> H 	 -47.5234 	 66.0996 	 141.965
| 34> H 	 -47.5503 	 65.055 	 140.585
| 35> C 	 -47.9933 	 64.1702 	 142.456
| 36> H 	 -48.493 	 64.5452 	 143.354
| 37> H 	 -47.0294 	 63.9162 	 142.743
| 38> H 	 -48.5402 	 63.3036 	 141.998
| 39> H 	 -50.1846 	 63.9096 	 134.973
| 40> H 	 -49.6892 	 70.302 	 139.766
| 41> *
| 42>
| 43>                          ****END OF INPUT****

CARTESIAN COORDINATES (ANGSTROEM)
---------------------------------
  S    -50.773700   65.832400  136.530000
  C    -50.095900   64.343800  136.006000
  C    -49.325400   63.685700  136.965000
  C    -49.149300   64.507600  138.076000
  C    -49.801100   65.731100  137.989000
  H    -48.476000   64.222300  138.918000
  C    -48.523100   62.442300  136.732000
  H    -48.312300   62.365400  135.672000
  H    -49.306200   61.712400  136.886000
  C    -47.312100   62.116600  137.695000
  H    -46.718600   63.025300  137.809000
  H    -47.706000   61.990300  138.696000
  C    -46.496400   60.811700  137.415000
  H    -46.235600   60.736200  136.383000
  H    -45.585600   60.769800  137.995000
  H    -47.100500   59.943400  137.553000
  S    -49.777800   68.483100  138.137000
  C    -49.659700   69.277500  139.691000
  C    -49.466800   68.358800  140.762000
  C    -49.550500   66.967300  140.321000
  C    -49.675000   66.878400  138.892000
  H    -49.349100   68.694600  141.775000
  C    -49.460000   65.794000  141.326000
  H    -50.100300   65.003700  140.934000
  H    -49.885300   65.918700  142.285000
  C    -48.065800   65.322000  141.515000
  H    -47.523400   66.099600  141.965000
  H    -47.550300   65.055000  140.585000
  C    -47.993300   64.170200  142.456000
  H    -48.493000   64.545200  143.354000
  H    -47.029400   63.916200  142.743000
  H    -48.540200   63.303600  141.998000
  H    -50.184600   63.909600  134.973000
  H    -49.689200   70.302000  139.766000

 Total Charge           Charge          ....    0
 Multiplicity           Mult            ....    1
 Number of Electrons    NEL             ....  134
 Basis Dimension        Dim             ....  322

ORBITAL ENERGIES
----------------

  NO   OCC          E(Eh)            E(eV)
   0   2.0000     -88.970167     -2421.0013
   1   2.0000     -88.967853     -2420.9384
   2   2.0000     -10.333626      -281.1923
   3   2.0000     -10.328627      -281.0562
   4   2.0000     -10.316053      -280.7141
   5   2.0000     -10.313812      -280.6531
   6   2.0000     -10.311201      -280.5820
   7   2.0000     -10.300908      -280.3020
   8   2.0000     -10.296609      -280.1850
   9   2.0000     -10.296188      -280.1735
  10   2.0000     -10.293801      -280.1086
  11   2.0000     -10.291912      -280.0572
  12   2.0000     -10.288026      -279.9514
  13   2.0000     -10.280057      -279.7346
  14   2.0000     -10.274468      -279.5825
  15   2.0000     -10.273385      -279.5530
  16   2.0000      -8.084935      -220.0023
  17   2.0000      -8.081970      -219.9216
  18   2.0000      -6.043296      -164.4464
  19   2.0000      -6.040473      -164.3696
  20   2.0000      -6.039533      -164.3440
  21   2.0000      -6.036518      -164.2620
  22   2.0000      -6.035767      -164.2416
  23   2.0000      -6.032833      -164.1617
  24   2.0000      -1.004583       -27.3361
  25   2.0000      -0.976201       -26.5638
  26   2.0000      -0.923793       -25.1377
  27   2.0000      -0.908417       -24.7193
  28   2.0000      -0.863805       -23.5053
  29   2.0000      -0.854685       -23.2572
  30   2.0000      -0.847413       -23.0593
  31   2.0000      -0.812669       -22.1139
  32   2.0000      -0.785515       -21.3749
  33   2.0000      -0.770354       -20.9624
  34   2.0000      -0.718202       -19.5433
  35   2.0000      -0.699079       -19.0229
  36   2.0000      -0.690078       -18.7780
  37   2.0000      -0.663411       -18.0523
  38   2.0000      -0.632462       -17.2102
  39   2.0000      -0.622973       -16.9520
  40   2.0000      -0.600900       -16.3513
  41   2.0000      -0.579570       -15.7709
  42   2.0000      -0.563763       -15.3408
  43   2.0000      -0.558811       -15.2060
  44   2.0000      -0.533054       -14.5051
  45   2.0000      -0.527957       -14.3664
  46   2.0000      -0.513659       -13.9774
  47   2.0000      -0.509628       -13.8677
  48   2.0000      -0.504832       -13.7372
  49   2.0000      -0.499712       -13.5979
  50   2.0000      -0.489148       -13.3104
  51   2.0000      -0.479263       -13.0414
  52   2.0000      -0.472714       -12.8632
  53   2.0000      -0.471862       -12.8400
  54   2.0000      -0.456604       -12.4248
  55   2.0000      -0.453377       -12.3370
  56   2.0000      -0.444226       -12.0880
  57   2.0000      -0.439071       -11.9477
  58   2.0000      -0.434523       -11.8240
  59   2.0000      -0.428867       -11.6701
  60   2.0000      -0.424435       -11.5495
  61   2.0000      -0.423136       -11.5141
  62   2.0000      -0.417124       -11.3505
  63   2.0000      -0.348650        -9.4873
  64   2.0000      -0.332079        -9.0363
  65   2.0000      -0.330656        -8.9976
  66   2.0000      -0.276943        -7.5360
  67   0.0000       0.020198         0.5496
  68   0.0000       0.076208         2.0737
  69   0.0000       0.104763         2.8507
  70   0.0000       0.122586         3.3357
  71   0.0000       0.127123         3.4592

MULLIKEN ATOMIC CHARGES
-----------------------
   0 S :    0.131895
   1 C :   -0.160338
   2 C :   -0.081505
   3 C :   -0.022394
   4 C :   -0.118168
   5 H :    0.007274
   6 C :    0.076871
   7 H :    0.024092
   8 H :    0.032317
   9 C :   -0.109183
  10 H :    0.039315
  11 H :    0.031410
  12 C :    0.000021
  13 H :    0.018945
  14 H :    0.040928
  15 H :    0.025137
  16 S :    0.101086
  17 C :   -0.072279
  18 C :   -0.018514
  19 C :   -0.039359
  20 C :   -0.149809
  21 H :    0.017633
  22 C :    0.077102
  23 H :    0.020205
  24 H :    0.002120
  25 C :   -0.068774
  26 H :    0.006454
  27 H :    0.030509
  28 C :   -0.001833
  29 H :    0.016359
  30 H :    0.018870
  31 H :    0.034494
  32 H :    0.057063
  33 H :    0.032058
Sum of atomic charges:    0.0000000

LOEWDIN ATOMIC CHARGES
----------------------
   0 S :    0.421313
   1 C :   -0.223379
   2 C :   -0.065496
   3 C :   -0.071162
   4 C :   -0.193338
   5 H :    0.035205
   6 C :   -0.033626
   7 H :    0.030078
   8 H :    0.037890
   9 C :   -0.041201
  10 H :    0.023484
  11 H :    0.022834
  12 C :   -0.056082
  13 H :    0.021619
  14 H :    0.030767
  15 H :    0.024299
  16 S :    0.400656
  17 C :   -0.175687
  18 C :   -0.063512
  19 C :   -0.044238
  20 C :   -0.191381
  21 H :    0.028478
  22 C :   -0.029774
  23 H :    0.031135
  24 H :    0.024519
  25 C :   -0.041644
  26 H :    0.018360
  27 H :    0.019897
  28 C :   -0.053862
  29 H :    0.024963
  30 H :    0.015144
  31 H :    0.029212
  32 H :    0.035263
  33 H :    0.009267

  Mayer bond orders larger than 0.100000
B(  0-S ,  1-C ) :   1.1498 B(  0-S ,  4-C ) :   1.1558 B(  1-C ,  2-C ) :   1.5852
B(  1-C , 32-H ) :   0.9569 B(  2-C ,  3-C ) :   1.3082 B(  2-C ,  6-C ) :   0.9994
B(  3-C ,  4-C ) :   1.5256 B(  3-C ,  5-H ) :   0.9757 B(  4-C , 20-C ) :   1.0764
B(  6-C ,  7-H ) :   0.9464 B(  6-C ,  8-H ) :   0.9192 B(  6-C ,  9-C ) :   1.0696
B(  9-C , 10-H ) :   0.9594 B(  9-C , 11-H ) :   0.9461 B(  9-C , 12-C ) :   1.0763
B( 12-C , 13-H ) :   0.9761 B( 12-C , 14-H ) :   0.9738 B( 12-C , 15-H ) :   0.9747
B( 16-S , 17-C ) :   1.1616 B( 16-S , 20-C ) :   1.1438 B( 17-C , 18-C ) :   1.5764
B( 17-C , 20-C ) :   0.1036 B( 17-C , 33-H ) :   0.9810 B( 18-C , 19-C ) :   1.2548
B( 18-C , 21-H ) :   0.9914 B( 19-C , 20-C ) :   1.5538 B( 19-C , 22-C ) :   1.0386
B( 22-C , 23-H ) :   0.9287 B( 22-C , 24-H ) :   0.9344 B( 22-C , 25-C ) :   1.0702
B( 25-C , 26-H ) :   0.9439 B( 25-C , 27-H ) :   0.9468 B( 25-C , 28-C ) :   1.0930
B( 28-C , 29-H ) :   0.9683 B( 28-C , 30-H ) :   0.9712 B( 28-C , 31-H ) :   0.9727

Dispersion correction           -0.014213286
FINAL SINGLE POINT ENERGY     -1339.868287348615

DIPOLE MOMENT
-------------
                                X             Y             Z
Electronic contribution:    -16.38650      25.36383     -14.24912
Nuclear contribution   :     16.79324     -25.84302      14.62196
                        -----------------------------------------
Total Dipole Moment    :      0.40674      -0.47919       0.37284
                        -----------------------------------------
Magnitude (a.u.)       :      0.73080
Magnitude (Debye)      :      1.85755

Rotational constants in cm-1:     0.016673     0.009735     0.006590
Rotational constants in MHz :   499.842425   291.859848   197.575588

                             ****ORCA TERMINATED NORMALLY****
TOTAL RUN TIME: 0 days 0 hours 0 minutes 33 seconds 293 msec
