                         Program Version 4.2.1 -  RELEASE  -
|  1> ! wB97X-D3 SP def2-SVP
|  2> %pal
|  3> nprocs 16
|  4> end
|  5>
|  6> * xyz 0 1
|  7> S 	 -0.999495 	 76.6148 	 49.7121
|  8> C 	 -1.41114 	 78.319 	 49.9745
|  9> C 	 -0.516266 	 79.1754 	 49.3382
| 10> C 	 0.417788 	 78.4158 	 48.5328
| 11> C 	 0.270319 	 77.0207 	 48.5091
| 12> H 	 1.21995 	 78.9454 	 48.0101
| 13> C 	 -0.580807 	 80.7282 	 49.39
| 14> H 	 -1.62324 	 81.0309 	 49.2854
| 15> H 	 -0.137114 	 80.9979 	 48.4213
| 16> C 	 0.240688 	 81.3298 	 50.4542
| 17> H 	 -0.333916 	 81.2452 	 51.3119
| 18> H 	 1.23381 	 80.9308 	 50.636
| 19> C 	 0.342173 	 82.7523 	 50.3107
| 20> H 	 -0.64557 	 83.1255 	 50.3169
| 21> H 	 0.952385 	 83.1956 	 51.0877
| 22> H 	 0.703947 	 82.9144 	 49.3331
| 23> S 	 2.71631 	 75.8035 	 48.063
| 24> C 	 2.92727 	 74.797 	 46.657
| 25> C 	 1.71284 	 74.6229 	 46.0129
| 26> C 	 0.623536 	 75.3008 	 46.6169
| 27> C 	 0.998288 	 76.0738 	 47.7097
| 28> H 	 1.69536 	 74.1194 	 45.0546
| 29> C 	 -0.743555 	 75.4296 	 45.9144
| 30> H 	 -0.484601 	 75.6709 	 44.8645
| 31> H 	 -1.30378 	 76.2934 	 46.2275
| 32> C 	 -1.65026 	 74.2445 	 45.9889
| 33> H 	 -1.9333 	 73.9772 	 46.9756
| 34> H 	 -1.23924 	 73.3061 	 45.5091
| 35> C 	 -2.88555 	 74.415 	 45.0935
| 36> H 	 -3.47393 	 75.3079 	 45.4949
| 37> H 	 -3.54018 	 73.5456 	 45.2302
| 38> H 	 -2.76141 	 74.481 	 43.9929
| 39> H 	 -2.24037 	 78.61 	 50.6478
| 40> H 	 3.80566 	 74.4269 	 46.3611
| 41> *
| 42>
| 43>                          ****END OF INPUT****

CARTESIAN COORDINATES (ANGSTROEM)
---------------------------------
  S     -0.999495   76.614800   49.712100
  C     -1.411140   78.319000   49.974500
  C     -0.516266   79.175400   49.338200
  C      0.417788   78.415800   48.532800
  C      0.270319   77.020700   48.509100
  H      1.219950   78.945400   48.010100
  C     -0.580807   80.728200   49.390000
  H     -1.623240   81.030900   49.285400
  H     -0.137114   80.997900   48.421300
  C      0.240688   81.329800   50.454200
  H     -0.333916   81.245200   51.311900
  H      1.233810   80.930800   50.636000
  C      0.342173   82.752300   50.310700
  H     -0.645570   83.125500   50.316900
  H      0.952385   83.195600   51.087700
  H      0.703947   82.914400   49.333100
  S      2.716310   75.803500   48.063000
  C      2.927270   74.797000   46.657000
  C      1.712840   74.622900   46.012900
  C      0.623536   75.300800   46.616900
  C      0.998288   76.073800   47.709700
  H      1.695360   74.119400   45.054600
  C     -0.743555   75.429600   45.914400
  H     -0.484601   75.670900   44.864500
  H     -1.303780   76.293400   46.227500
  C     -1.650260   74.244500   45.988900
  H     -1.933300   73.977200   46.975600
  H     -1.239240   73.306100   45.509100
  C     -2.885550   74.415000   45.093500
  H     -3.473930   75.307900   45.494900
  H     -3.540180   73.545600   45.230200
  H     -2.761410   74.481000   43.992900
  H     -2.240370   78.610000   50.647800
  H      3.805660   74.426900   46.361100

 Total Charge           Charge          ....    0
 Multiplicity           Mult            ....    1
 Number of Electrons    NEL             ....  134
 Basis Dimension        Dim             ....  322

ORBITAL ENERGIES
----------------

  NO   OCC          E(Eh)            E(eV)
   0   2.0000     -88.964903     -2420.8581
   1   2.0000     -88.963400     -2420.8172
   2   2.0000     -10.333813      -281.1973
   3   2.0000     -10.326782      -281.0060
   4   2.0000     -10.320748      -280.8418
   5   2.0000     -10.311468      -280.5893
   6   2.0000     -10.305414      -280.4246
   7   2.0000     -10.304543      -280.4009
   8   2.0000     -10.300743      -280.2975
   9   2.0000     -10.295158      -280.1455
  10   2.0000     -10.293279      -280.0944
  11   2.0000     -10.288515      -279.9647
  12   2.0000     -10.282369      -279.7975
  13   2.0000     -10.281512      -279.7742
  14   2.0000     -10.268080      -279.4087
  15   2.0000     -10.261974      -279.2425
  16   2.0000      -8.078476      -219.8265
  17   2.0000      -8.078029      -219.8143
  18   2.0000      -6.037033      -164.2760
  19   2.0000      -6.036454      -164.2603
  20   2.0000      -6.033157      -164.1706
  21   2.0000      -6.032445      -164.1512
  22   2.0000      -6.029227      -164.0636
  23   2.0000      -6.028974      -164.0567
  24   2.0000      -1.000401       -27.2223
  25   2.0000      -0.977320       -26.5942
  26   2.0000      -0.933982       -25.4149
  27   2.0000      -0.909331       -24.7441
  28   2.0000      -0.874357       -23.7925
  29   2.0000      -0.848625       -23.0923
  30   2.0000      -0.847799       -23.0698
  31   2.0000      -0.811126       -22.0718
  32   2.0000      -0.781859       -21.2755
  33   2.0000      -0.770722       -20.9724
  34   2.0000      -0.706823       -19.2336
  35   2.0000      -0.700111       -19.0510
  36   2.0000      -0.692679       -18.8488
  37   2.0000      -0.664682       -18.0869
  38   2.0000      -0.636730       -17.3263
  39   2.0000      -0.619686       -16.8625
  40   2.0000      -0.602227       -16.3874
  41   2.0000      -0.584703       -15.9106
  42   2.0000      -0.570604       -15.5269
  43   2.0000      -0.562236       -15.2992
  44   2.0000      -0.542307       -14.7569
  45   2.0000      -0.525850       -14.3091
  46   2.0000      -0.520343       -14.1593
  47   2.0000      -0.509152       -13.8547
  48   2.0000      -0.507878       -13.8201
  49   2.0000      -0.501478       -13.6459
  50   2.0000      -0.498193       -13.5565
  51   2.0000      -0.473249       -12.8778
  52   2.0000      -0.465155       -12.6575
  53   2.0000      -0.463201       -12.6043
  54   2.0000      -0.456690       -12.4272
  55   2.0000      -0.446729       -12.1561
  56   2.0000      -0.444308       -12.0902
  57   2.0000      -0.442960       -12.0535
  58   2.0000      -0.437553       -11.9064
  59   2.0000      -0.419246       -11.4083
  60   2.0000      -0.414048       -11.2668
  61   2.0000      -0.410574       -11.1723
  62   2.0000      -0.403982       -10.9929
  63   2.0000      -0.334151        -9.0927
  64   2.0000      -0.331294        -9.0150
  65   2.0000      -0.326011        -8.8712
  66   2.0000      -0.303219        -8.2510
  67   0.0000       0.031513         0.8575
  68   0.0000       0.060315         1.6413
  69   0.0000       0.112202         3.0532
  70   0.0000       0.117007         3.1839
  71   0.0000       0.129991         3.5372

MULLIKEN ATOMIC CHARGES
-----------------------
   0 S :    0.102451
   1 C :   -0.146659
   2 C :   -0.094609
   3 C :    0.039411
   4 C :   -0.163242
   5 H :    0.016929
   6 C :    0.036490
   7 H :    0.035424
   8 H :    0.008587
   9 C :   -0.008212
  10 H :   -0.002150
  11 H :    0.031842
  12 C :    0.020836
  13 H :    0.003009
  14 H :    0.036271
  15 H :    0.000358
  16 S :    0.107494
  17 C :   -0.041119
  18 C :   -0.038819
  19 C :    0.029201
  20 C :   -0.187756
  21 H :    0.022128
  22 C :    0.060337
  23 H :    0.025638
  24 H :    0.023441
  25 C :   -0.058502
  26 H :    0.026101
  27 H :    0.026365
  28 C :   -0.089815
  29 H :    0.033288
  30 H :    0.031756
  31 H :    0.043236
  32 H :    0.063465
  33 H :    0.006826
Sum of atomic charges:   -0.0000000

LOEWDIN ATOMIC CHARGES
----------------------
   0 S :    0.376543
   1 C :   -0.190632
   2 C :   -0.064418
   3 C :   -0.055110
   4 C :   -0.193542
   5 H :    0.031028
   6 C :   -0.024766
   7 H :    0.035357
   8 H :    0.027132
   9 C :   -0.044198
  10 H :    0.018083
  11 H :    0.029487
  12 C :   -0.048422
  13 H :    0.019123
  14 H :    0.028445
  15 H :    0.014461
  16 S :    0.403245
  17 C :   -0.160663
  18 C :   -0.069278
  19 C :   -0.047611
  20 C :   -0.199665
  21 H :    0.032426
  22 C :   -0.030097
  23 H :    0.035757
  24 H :    0.028939
  25 C :   -0.042463
  26 H :    0.021129
  27 H :    0.028714
  28 C :   -0.074500
  29 H :    0.026846
  30 H :    0.025767
  31 H :    0.026866
  32 H :    0.033608
  33 H :    0.002410

  Mayer bond orders larger than 0.100000
B(  0-S ,  1-C ) :   1.1464 B(  0-S ,  4-C ) :   1.1218 B(  1-C ,  2-C ) :   1.6035
B(  1-C , 32-H ) :   0.9653 B(  2-C ,  3-C ) :   1.2657 B(  2-C ,  6-C ) :   1.0037
B(  3-C ,  4-C ) :   1.5720 B(  3-C ,  5-H ) :   0.9850 B(  4-C , 20-C ) :   1.0598
B(  6-C ,  7-H ) :   0.9423 B(  6-C ,  8-H ) :   0.9414 B(  6-C ,  9-C ) :   1.0727
B(  9-C , 10-H ) :   0.9394 B(  9-C , 11-H ) :   0.9524 B(  9-C , 12-C ) :   1.0990
B( 12-C , 13-H ) :   0.9647 B( 12-C , 14-H ) :   0.9698 B( 12-C , 15-H ) :   0.9707
B( 16-S , 17-C ) :   1.1647 B( 16-S , 20-C ) :   1.1383 B( 17-C , 18-C ) :   1.5915
B( 17-C , 20-C ) :   0.1032 B( 17-C , 33-H ) :   0.9859 B( 18-C , 19-C ) :   1.2495
B( 18-C , 21-H ) :   0.9897 B( 19-C , 20-C ) :   1.5804 B( 19-C , 22-C ) :   1.0304
B( 22-C , 23-H ) :   0.9424 B( 22-C , 24-H ) :   0.9350 B( 22-C , 25-C ) :   1.0686
B( 25-C , 26-H ) :   0.9515 B( 25-C , 27-H ) :   0.9557 B( 25-C , 28-C ) :   1.0803
B( 28-C , 29-H ) :   0.9721 B( 28-C , 30-H ) :   0.9745 B( 28-C , 31-H ) :   0.9761

Dispersion correction           -0.013503201
FINAL SINGLE POINT ENERGY     -1339.859982416696

DIPOLE MOMENT
-------------
                                X             Y             Z
Electronic contribution:     12.20015     -13.34371       6.91218
Nuclear contribution   :    -12.33935      13.75554      -7.22801
                        -----------------------------------------
Total Dipole Moment    :     -0.13920       0.41183      -0.31583
                        -----------------------------------------
Magnitude (a.u.)       :      0.53733
Magnitude (Debye)      :      1.36578

Rotational constants in cm-1:     0.019759     0.007380     0.006120
Rotational constants in MHz :   592.353827   221.259676   183.482219

                             ****ORCA TERMINATED NORMALLY****
TOTAL RUN TIME: 0 days 0 hours 0 minutes 32 seconds 344 msec
