                         Program Version 4.2.1 -  RELEASE  -
|  1> ! wB97X-D3 SP def2-SVP
|  2> %pal
|  3> nprocs 16
|  4> end
|  5>
|  6> * xyz 0 1
|  7> S 	 -18.3541 	 -5.77204 	 87.6519
|  8> C 	 -17.8968 	 -4.35913 	 86.631
|  9> C 	 -16.6559 	 -3.8706 	 87.0976
| 10> C 	 -16.3171 	 -4.42695 	 88.3414
| 11> C 	 -17.0506 	 -5.54314 	 88.7427
| 12> H 	 -15.4737 	 -4.16918 	 88.941
| 13> C 	 -15.7782 	 -2.89962 	 86.3842
| 14> H 	 -15.4405 	 -2.28617 	 87.2132
| 15> H 	 -16.2789 	 -2.27152 	 85.6444
| 16> C 	 -14.515 	 -3.4866 	 85.7455
| 17> H 	 -13.9797 	 -4.04023 	 86.5219
| 18> H 	 -14.7086 	 -4.23379 	 84.9974
| 19> C 	 -13.5855 	 -2.34463 	 85.1635
| 20> H 	 -14.2832 	 -1.81617 	 84.4472
| 21> H 	 -13.2278 	 -1.61158 	 85.9233
| 22> H 	 -12.6847 	 -2.78195 	 84.5955
| 23> S 	 -15.7339 	 -7.59439 	 89.8388
| 24> C 	 -15.6574 	 -7.85416 	 91.5591
| 25> C 	 -16.5789 	 -7.00008 	 92.1725
| 26> C 	 -17.2011 	 -6.08334 	 91.2752
| 27> C 	 -16.8622 	 -6.29086 	 89.9227
| 28> H 	 -16.8081 	 -7.12662 	 93.1935
| 29> C 	 -18.3251 	 -5.19857 	 91.844
| 30> H 	 -19.0394 	 -5.98748 	 92.1491
| 31> H 	 -18.9108 	 -4.61467 	 91.0684
| 32> C 	 -17.9489 	 -4.31267 	 93.0633
| 33> H 	 -17.0445 	 -3.80525 	 92.9685
| 34> H 	 -17.6412 	 -4.98149 	 93.8978
| 35> C 	 -19.076 	 -3.44804 	 93.6182
| 36> H 	 -19.9735 	 -3.93204 	 93.9099
| 37> H 	 -19.3921 	 -2.68483 	 92.9212
| 38> H 	 -18.7897 	 -2.7757 	 94.4925
| 39> H 	 -18.3323 	 -4.15817 	 85.6382
| 40> H 	 -15.2067 	 -8.70347 	 92.13
| 41> *
| 42>
| 43>                          ****END OF INPUT****

CARTESIAN COORDINATES (ANGSTROEM)
---------------------------------
  S    -18.354100   -5.772040   87.651900
  C    -17.896800   -4.359130   86.631000
  C    -16.655900   -3.870600   87.097600
  C    -16.317100   -4.426950   88.341400
  C    -17.050600   -5.543140   88.742700
  H    -15.473700   -4.169180   88.941000
  C    -15.778200   -2.899620   86.384200
  H    -15.440500   -2.286170   87.213200
  H    -16.278900   -2.271520   85.644400
  C    -14.515000   -3.486600   85.745500
  H    -13.979700   -4.040230   86.521900
  H    -14.708600   -4.233790   84.997400
  C    -13.585500   -2.344630   85.163500
  H    -14.283200   -1.816170   84.447200
  H    -13.227800   -1.611580   85.923300
  H    -12.684700   -2.781950   84.595500
  S    -15.733900   -7.594390   89.838800
  C    -15.657400   -7.854160   91.559100
  C    -16.578900   -7.000080   92.172500
  C    -17.201100   -6.083340   91.275200
  C    -16.862200   -6.290860   89.922700
  H    -16.808100   -7.126620   93.193500
  C    -18.325100   -5.198570   91.844000
  H    -19.039400   -5.987480   92.149100
  H    -18.910800   -4.614670   91.068400
  C    -17.948900   -4.312670   93.063300
  H    -17.044500   -3.805250   92.968500
  H    -17.641200   -4.981490   93.897800
  C    -19.076000   -3.448040   93.618200
  H    -19.973500   -3.932040   93.909900
  H    -19.392100   -2.684830   92.921200
  H    -18.789700   -2.775700   94.492500
  H    -18.332300   -4.158170   85.638200
  H    -15.206700   -8.703470   92.130000

 Total Charge           Charge          ....    0
 Multiplicity           Mult            ....    1
 Number of Electrons    NEL             ....  134
 Basis Dimension        Dim             ....  322

ORBITAL ENERGIES
----------------

  NO   OCC          E(Eh)            E(eV)
   0   2.0000     -88.965899     -2420.8852
   1   2.0000     -88.965133     -2420.8644
   2   2.0000     -10.324826      -280.9528
   3   2.0000     -10.323645      -280.9207
   4   2.0000     -10.322720      -280.8955
   5   2.0000     -10.321277      -280.8562
   6   2.0000     -10.308837      -280.5177
   7   2.0000     -10.303683      -280.3775
   8   2.0000     -10.299709      -280.2693
   9   2.0000     -10.295166      -280.1457
  10   2.0000     -10.291724      -280.0520
  11   2.0000     -10.291512      -280.0463
  12   2.0000     -10.289964      -280.0042
  13   2.0000     -10.288096      -279.9533
  14   2.0000     -10.286168      -279.9009
  15   2.0000     -10.278034      -279.6795
  16   2.0000      -8.080282      -219.8757
  17   2.0000      -8.080212      -219.8737
  18   2.0000      -6.038756      -164.3229
  19   2.0000      -6.038601      -164.3187
  20   2.0000      -6.034614      -164.2102
  21   2.0000      -6.034446      -164.2056
  22   2.0000      -6.031309      -164.1203
  23   2.0000      -6.031269      -164.1192
  24   2.0000      -1.009888       -27.4805
  25   2.0000      -0.984034       -26.7769
  26   2.0000      -0.914482       -24.8843
  27   2.0000      -0.903622       -24.5888
  28   2.0000      -0.871382       -23.7115
  29   2.0000      -0.849096       -23.1051
  30   2.0000      -0.844561       -22.9817
  31   2.0000      -0.810612       -22.0579
  32   2.0000      -0.779105       -21.2005
  33   2.0000      -0.767967       -20.8975
  34   2.0000      -0.712787       -19.3959
  35   2.0000      -0.702032       -19.1033
  36   2.0000      -0.697107       -18.9692
  37   2.0000      -0.660251       -17.9663
  38   2.0000      -0.644270       -17.5315
  39   2.0000      -0.621766       -16.9191
  40   2.0000      -0.592987       -16.1360
  41   2.0000      -0.569405       -15.4943
  42   2.0000      -0.561278       -15.2732
  43   2.0000      -0.552737       -15.0408
  44   2.0000      -0.524910       -14.2835
  45   2.0000      -0.523528       -14.2459
  46   2.0000      -0.518342       -14.1048
  47   2.0000      -0.512294       -13.9402
  48   2.0000      -0.508614       -13.8401
  49   2.0000      -0.502056       -13.6616
  50   2.0000      -0.493918       -13.4402
  51   2.0000      -0.473350       -12.8805
  52   2.0000      -0.468287       -12.7427
  53   2.0000      -0.465037       -12.6543
  54   2.0000      -0.458711       -12.4822
  55   2.0000      -0.447556       -12.1786
  56   2.0000      -0.444758       -12.1025
  57   2.0000      -0.439500       -11.9594
  58   2.0000      -0.438014       -11.9190
  59   2.0000      -0.422434       -11.4950
  60   2.0000      -0.418794       -11.3960
  61   2.0000      -0.413755       -11.2588
  62   2.0000      -0.406105       -11.0507
  63   2.0000      -0.334136        -9.0923
  64   2.0000      -0.328292        -8.9333
  65   2.0000      -0.314917        -8.5693
  66   2.0000      -0.312869        -8.5136
  67   0.0000       0.041970         1.1421
  68   0.0000       0.047383         1.2894
  69   0.0000       0.110120         2.9965
  70   0.0000       0.121434         3.3044
  71   0.0000       0.127165         3.4603

MULLIKEN ATOMIC CHARGES
-----------------------
   0 S :    0.108913
   1 C :   -0.131232
   2 C :   -0.080401
   3 C :    0.055254
   4 C :   -0.172572
   5 H :    0.002638
   6 C :    0.066188
   7 H :    0.025077
   8 H :    0.020243
   9 C :   -0.063443
  10 H :    0.023776
  11 H :    0.029052
  12 C :   -0.096879
  13 H :    0.036767
  14 H :    0.046795
  15 H :    0.057066
  16 S :    0.116319
  17 C :   -0.105453
  18 C :   -0.046896
  19 C :    0.012920
  20 C :   -0.186596
  21 H :    0.011980
  22 C :    0.022514
  23 H :    0.045208
  24 H :    0.040787
  25 C :   -0.046667
  26 H :    0.016686
  27 H :    0.019138
  28 C :   -0.052579
  29 H :    0.025299
  30 H :    0.022805
  31 H :    0.034985
  32 H :    0.064189
  33 H :    0.078120
Sum of atomic charges:    0.0000000

LOEWDIN ATOMIC CHARGES
----------------------
   0 S :    0.410352
   1 C :   -0.194190
   2 C :   -0.059461
   3 C :   -0.055866
   4 C :   -0.218484
   5 H :    0.027484
   6 C :   -0.033276
   7 H :    0.034957
   8 H :    0.027702
   9 C :   -0.038612
  10 H :    0.021710
  11 H :    0.021688
  12 C :   -0.076194
  13 H :    0.028120
  14 H :    0.027884
  15 H :    0.036588
  16 S :    0.433409
  17 C :   -0.200319
  18 C :   -0.072727
  19 C :   -0.048585
  20 C :   -0.223896
  21 H :    0.023469
  22 C :   -0.035395
  23 H :    0.040490
  24 H :    0.034896
  25 C :   -0.043262
  26 H :    0.018794
  27 H :    0.026930
  28 C :   -0.071131
  29 H :    0.019837
  30 H :    0.022589
  31 H :    0.036367
  32 H :    0.033486
  33 H :    0.044645

  Mayer bond orders larger than 0.100000
B(  0-S ,  1-C ) :   1.1448 B(  0-S ,  4-C ) :   1.1653 B(  1-C ,  2-C ) :   1.5674
B(  1-C ,  4-C ) :   0.1142 B(  1-C , 32-H ) :   0.9669 B(  2-C ,  3-C ) :   1.2626
B(  2-C ,  6-C ) :   1.0309 B(  3-C ,  4-C ) :   1.5623 B(  3-C ,  5-H ) :   0.9950
B(  4-C , 20-C ) :   1.0185 B(  6-C ,  7-H ) :   0.9340 B(  6-C ,  8-H ) :   0.9433
B(  6-C ,  9-C ) :   1.0625 B(  9-C , 10-H ) :   0.9536 B(  9-C , 11-H ) :   0.9565
B(  9-C , 12-C ) :   1.0655 B( 12-C , 13-H ) :   0.9754 B( 12-C , 14-H ) :   0.9770
B( 12-C , 15-H ) :   0.9747 B( 16-S , 17-C ) :   1.1777 B( 16-S , 20-C ) :   1.1573
B( 17-C , 18-C ) :   1.5753 B( 17-C , 20-C ) :   0.1103 B( 17-C , 33-H ) :   0.9601
B( 18-C , 19-C ) :   1.2688 B( 18-C , 21-H ) :   0.9923 B( 19-C , 20-C ) :   1.5608
B( 19-C , 22-C ) :   1.0299 B( 22-C , 23-H ) :   0.9415 B( 22-C , 24-H ) :   0.9497
B( 22-C , 25-C ) :   1.0404 B( 25-C , 26-H ) :   0.9600 B( 25-C , 27-H ) :   0.9479
B( 25-C , 28-C ) :   1.0867 B( 28-C , 29-H ) :   0.9757 B( 28-C , 30-H ) :   0.9732
B( 28-C , 31-H ) :   0.9724

Dispersion correction           -0.013496433
FINAL SINGLE POINT ENERGY     -1339.866050529914

DIPOLE MOMENT
-------------
                                X             Y             Z
Electronic contribution:     -4.01723     -20.40648      -3.91437
Nuclear contribution   :      4.16477      20.70964       4.15520
                        -----------------------------------------
Total Dipole Moment    :      0.14754       0.30316       0.24084
                        -----------------------------------------
Magnitude (a.u.)       :      0.41434
Magnitude (Debye)      :      1.05316

Rotational constants in cm-1:     0.018255     0.007319     0.006572
Rotational constants in MHz :   547.258896   219.409475   197.029137

                             ****ORCA TERMINATED NORMALLY****
TOTAL RUN TIME: 0 days 0 hours 0 minutes 32 seconds 885 msec
