                         Program Version 4.2.1 -  RELEASE  -
|  1> ! wB97X-D3 SP def2-SVP
|  2> %pal
|  3> nprocs 16
|  4> end
|  5>
|  6> * xyz 0 1
|  7> S 	 41.8426 	 12.7873 	 89.7689
|  8> C 	 42.2336 	 13.9854 	 88.5838
|  9> C 	 42.9116 	 13.3462 	 87.5142
| 10> C 	 43.1359 	 11.9709 	 87.6835
| 11> C 	 42.5288 	 11.479 	 88.8263
| 12> H 	 43.7029 	 11.2592 	 87.1285
| 13> C 	 43.5243 	 14.0278 	 86.243
| 14> H 	 44.3758 	 13.4062 	 85.9126
| 15> H 	 43.7757 	 15.0113 	 86.6011
| 16> C 	 42.6294 	 14.2307 	 85.0404
| 17> H 	 41.6127 	 14.6376 	 85.3694
| 18> H 	 43.0556 	 15.0273 	 84.3918
| 19> C 	 42.5151 	 12.7956 	 84.3516
| 20> H 	 42.1024 	 12.0689 	 85.0833
| 21> H 	 41.9936 	 12.7017 	 83.4069
| 22> H 	 43.5205 	 12.497 	 84.0481
| 23> S 	 42.2187 	 9.97605 	 91.1525
| 24> C 	 42.3233 	 8.31813 	 91.1503
| 25> C 	 42.9667 	 7.93338 	 90.0233
| 26> C 	 43.0843 	 8.92262 	 89.0287
| 27> C 	 42.6666 	 10.1703 	 89.4843
| 28> H 	 43.1257 	 6.89405 	 89.895
| 29> C 	 43.6799 	 8.62881 	 87.6881
| 30> H 	 44.7278 	 9.13726 	 87.6574
| 31> H 	 43.1388 	 9.20549 	 86.9359
| 32> C 	 43.6912 	 7.16053 	 87.1815
| 33> H 	 42.6884 	 6.75308 	 87.074
| 34> H 	 44.2891 	 6.62187 	 87.8634
| 35> C 	 44.2595 	 7.07776 	 85.7179
| 36> H 	 44.3476 	 6.03473 	 85.2465
| 37> H 	 45.2621 	 7.46187 	 85.6311
| 38> H 	 43.7037 	 7.78744 	 85.1165
| 39> H 	 41.8481 	 14.9946 	 88.5851
| 40> H 	 42.3076 	 7.66588 	 92.0646
| 41> *
| 42>
| 43>                          ****END OF INPUT****

CARTESIAN COORDINATES (ANGSTROEM)
---------------------------------
  S     41.842600   12.787300   89.768900
  C     42.233600   13.985400   88.583800
  C     42.911600   13.346200   87.514200
  C     43.135900   11.970900   87.683500
  C     42.528800   11.479000   88.826300
  H     43.702900   11.259200   87.128500
  C     43.524300   14.027800   86.243000
  H     44.375800   13.406200   85.912600
  H     43.775700   15.011300   86.601100
  C     42.629400   14.230700   85.040400
  H     41.612700   14.637600   85.369400
  H     43.055600   15.027300   84.391800
  C     42.515100   12.795600   84.351600
  H     42.102400   12.068900   85.083300
  H     41.993600   12.701700   83.406900
  H     43.520500   12.497000   84.048100
  S     42.218700    9.976050   91.152500
  C     42.323300    8.318130   91.150300
  C     42.966700    7.933380   90.023300
  C     43.084300    8.922620   89.028700
  C     42.666600   10.170300   89.484300
  H     43.125700    6.894050   89.895000
  C     43.679900    8.628810   87.688100
  H     44.727800    9.137260   87.657400
  H     43.138800    9.205490   86.935900
  C     43.691200    7.160530   87.181500
  H     42.688400    6.753080   87.074000
  H     44.289100    6.621870   87.863400
  C     44.259500    7.077760   85.717900
  H     44.347600    6.034730   85.246500
  H     45.262100    7.461870   85.631100
  H     43.703700    7.787440   85.116500
  H     41.848100   14.994600   88.585100
  H     42.307600    7.665880   92.064600

 Total Charge           Charge          ....    0
 Multiplicity           Mult            ....    1
 Number of Electrons    NEL             ....  134
 Basis Dimension        Dim             ....  322

ORBITAL ENERGIES
----------------

  NO   OCC          E(Eh)            E(eV)
   0   2.0000     -88.967541     -2420.9299
   1   2.0000     -88.962512     -2420.7930
   2   2.0000     -10.333277      -281.1828
   3   2.0000     -10.327777      -281.0331
   4   2.0000     -10.318663      -280.7851
   5   2.0000     -10.310633      -280.5666
   6   2.0000     -10.307196      -280.4730
   7   2.0000     -10.302731      -280.3516
   8   2.0000     -10.301889      -280.3287
   9   2.0000     -10.296912      -280.1932
  10   2.0000     -10.292673      -280.0779
  11   2.0000     -10.292395      -280.0703
  12   2.0000     -10.291486      -280.0456
  13   2.0000     -10.286350      -279.9058
  14   2.0000     -10.283289      -279.8225
  15   2.0000     -10.281760      -279.7809
  16   2.0000      -8.082499      -219.9360
  17   2.0000      -8.079344      -219.8501
  18   2.0000      -6.041024      -164.3846
  19   2.0000      -6.037675      -164.2935
  20   2.0000      -6.036826      -164.2704
  21   2.0000      -6.033504      -164.1800
  22   2.0000      -6.033370      -164.1764
  23   2.0000      -6.030196      -164.0900
  24   2.0000      -1.019411       -27.7396
  25   2.0000      -0.993450       -27.0332
  26   2.0000      -0.912282       -24.8244
  27   2.0000      -0.908441       -24.7199
  28   2.0000      -0.871995       -23.7282
  29   2.0000      -0.854933       -23.2639
  30   2.0000      -0.844580       -22.9822
  31   2.0000      -0.814190       -22.1552
  32   2.0000      -0.780951       -21.2508
  33   2.0000      -0.770889       -20.9770
  34   2.0000      -0.714011       -19.4292
  35   2.0000      -0.701806       -19.0971
  36   2.0000      -0.697041       -18.9674
  37   2.0000      -0.657604       -17.8943
  38   2.0000      -0.640683       -17.4339
  39   2.0000      -0.620859       -16.8944
  40   2.0000      -0.599418       -16.3110
  41   2.0000      -0.573239       -15.5986
  42   2.0000      -0.570399       -15.5214
  43   2.0000      -0.557480       -15.1698
  44   2.0000      -0.540388       -14.7047
  45   2.0000      -0.523491       -14.2449
  46   2.0000      -0.519234       -14.1291
  47   2.0000      -0.514054       -13.9881
  48   2.0000      -0.503587       -13.7033
  49   2.0000      -0.497425       -13.5356
  50   2.0000      -0.485281       -13.2052
  51   2.0000      -0.479015       -13.0347
  52   2.0000      -0.469384       -12.7726
  53   2.0000      -0.469030       -12.7630
  54   2.0000      -0.463719       -12.6184
  55   2.0000      -0.452264       -12.3067
  56   2.0000      -0.444903       -12.1064
  57   2.0000      -0.435230       -11.8432
  58   2.0000      -0.434355       -11.8194
  59   2.0000      -0.427861       -11.6427
  60   2.0000      -0.426317       -11.6007
  61   2.0000      -0.412643       -11.2286
  62   2.0000      -0.406937       -11.0733
  63   2.0000      -0.365728        -9.9520
  64   2.0000      -0.336077        -9.1451
  65   2.0000      -0.328451        -8.9376
  66   2.0000      -0.281825        -7.6688
  67   0.0000       0.016904         0.4600
  68   0.0000       0.088514         2.4086
  69   0.0000       0.103751         2.8232
  70   0.0000       0.123126         3.3504
  71   0.0000       0.132909         3.6166

MULLIKEN ATOMIC CHARGES
-----------------------
   0 S :    0.097844
   1 C :   -0.112825
   2 C :   -0.087852
   3 C :    0.002172
   4 C :   -0.115873
   5 H :   -0.008489
   6 C :    0.066593
   7 H :    0.029562
   8 H :    0.017613
   9 C :   -0.074319
  10 H :    0.037326
  11 H :    0.042138
  12 C :   -0.076247
  13 H :    0.053423
  14 H :    0.032613
  15 H :    0.017552
  16 S :    0.102147
  17 C :   -0.091313
  18 C :   -0.048111
  19 C :   -0.042740
  20 C :   -0.111778
  21 H :    0.008890
  22 C :   -0.043328
  23 H :    0.063076
  24 H :    0.030246
  25 C :   -0.037804
  26 H :    0.046193
  27 H :    0.033500
  28 C :   -0.062297
  29 H :    0.054507
  30 H :    0.017088
  31 H :    0.023717
  32 H :    0.056614
  33 H :    0.080161
Sum of atomic charges:   -0.0000000

LOEWDIN ATOMIC CHARGES
----------------------
   0 S :    0.419012
   1 C :   -0.210299
   2 C :   -0.056979
   3 C :   -0.073505
   4 C :   -0.177830
   5 H :    0.026073
   6 C :   -0.029445
   7 H :    0.032003
   8 H :    0.026376
   9 C :   -0.043571
  10 H :    0.028514
  11 H :    0.026777
  12 C :   -0.072853
  13 H :    0.032112
  14 H :    0.021764
  15 H :    0.021341
  16 S :    0.443297
  17 C :   -0.220800
  18 C :   -0.080568
  19 C :   -0.064340
  20 C :   -0.201917
  21 H :    0.024454
  22 C :   -0.043826
  23 H :    0.044730
  24 H :    0.026794
  25 C :   -0.031414
  26 H :    0.031285
  27 H :    0.016628
  28 C :   -0.072185
  29 H :    0.037955
  30 H :    0.019190
  31 H :    0.022752
  32 H :    0.031255
  33 H :    0.047222

  Mayer bond orders larger than 0.100000
B(  0-S ,  1-C ) :   1.1498 B(  0-S ,  4-C ) :   1.1673 B(  1-C ,  2-C ) :   1.5688
B(  1-C ,  4-C ) :   0.1068 B(  1-C , 32-H ) :   0.9720 B(  2-C ,  3-C ) :   1.2629
B(  2-C ,  6-C ) :   1.0143 B(  3-C ,  4-C ) :   1.5358 B(  3-C ,  5-H ) :   0.9883
B(  4-C , 20-C ) :   1.0737 B(  6-C ,  7-H ) :   0.9482 B(  6-C ,  8-H ) :   0.9362
B(  6-C ,  9-C ) :   1.0677 B(  9-C , 10-H ) :   0.9563 B(  9-C , 11-H ) :   0.9583
B(  9-C , 12-C ) :   1.0539 B( 12-C , 13-H ) :   0.9754 B( 12-C , 14-H ) :   0.9764
B( 12-C , 15-H ) :   0.9757 B( 16-S , 17-C ) :   1.1891 B( 16-S , 20-C ) :   1.1532
B( 17-C , 18-C ) :   1.5744 B( 17-C , 33-H ) :   0.9534 B( 18-C , 19-C ) :   1.2975
B( 18-C , 21-H ) :   0.9872 B( 19-C , 20-C ) :   1.5444 B( 19-C , 22-C ) :   1.0483
B( 22-C , 23-H ) :   0.9292 B( 22-C , 24-H ) :   0.9232 B( 22-C , 25-C ) :   1.0647
B( 25-C , 26-H ) :   0.9585 B( 25-C , 27-H ) :   0.9467 B( 25-C , 28-C ) :   1.0760
B( 28-C , 29-H ) :   0.9747 B( 28-C , 30-H ) :   0.9742 B( 28-C , 31-H ) :   0.9737

Dispersion correction           -0.013808591
FINAL SINGLE POINT ENERGY     -1339.865558635578

DIPOLE MOMENT
-------------
                                X             Y             Z
Electronic contribution:     -8.61488       5.94072      30.04729
Nuclear contribution   :      8.96734      -6.16593     -30.55603
                        -----------------------------------------
Total Dipole Moment    :      0.35246      -0.22521      -0.50875
                        -----------------------------------------
Magnitude (a.u.)       :      0.65861
Magnitude (Debye)      :      1.67406

Rotational constants in cm-1:     0.016384     0.009827     0.006322
Rotational constants in MHz :   491.178930   294.617481   189.524318

                             ****ORCA TERMINATED NORMALLY****
TOTAL RUN TIME: 0 days 0 hours 0 minutes 28 seconds 763 msec
