                         Program Version 4.2.1 -  RELEASE  -
|  1> ! wB97X-D3 SP def2-SVP
|  2> %pal
|  3> nprocs 16
|  4> end
|  5>
|  6> * xyz 0 1
|  7> S 	 -53.3489 	 42.8679 	 107.124
|  8> C 	 -52.2544 	 44.2634 	 107.383
|  9> C 	 -52.9448 	 45.4133 	 107.724
| 10> C 	 -54.3363 	 45.193 	 107.774
| 11> C 	 -54.7146 	 43.9287 	 107.378
| 12> H 	 -55.11 	 45.8969 	 107.945
| 13> C 	 -52.3482 	 46.7407 	 108.041
| 14> H 	 -51.7122 	 46.6612 	 108.931
| 15> H 	 -53.1093 	 47.4453 	 108.357
| 16> C 	 -51.4505 	 47.4381 	 106.992
| 17> H 	 -50.5355 	 46.8017 	 106.929
| 18> H 	 -51.9375 	 47.5646 	 105.986
| 19> C 	 -51.0829 	 48.8344 	 107.438
| 20> H 	 -51.9456 	 49.4835 	 107.712
| 21> H 	 -50.2695 	 48.8385 	 108.256
| 22> H 	 -50.6291 	 49.3695 	 106.679
| 23> S 	 -56.5309 	 42.3246 	 105.879
| 24> C 	 -58.1817 	 42.2778 	 106.138
| 25> C 	 -58.3799 	 43.1319 	 107.251
| 26> C 	 -57.2297 	 43.6974 	 107.831
| 27> C 	 -56.0934 	 43.4812 	 107.192
| 28> H 	 -59.331 	 43.391 	 107.614
| 29> C 	 -57.3608 	 44.6891 	 108.963
| 30> H 	 -56.4596 	 44.9754 	 109.502
| 31> H 	 -57.8244 	 44.1081 	 109.783
| 32> C 	 -58.351 	 45.8799 	 108.7
| 33> H 	 -58.3953 	 46.4448 	 109.594
| 34> H 	 -59.3173 	 45.4496 	 108.435
| 35> C 	 -57.7857 	 46.9004 	 107.677
| 36> H 	 -57.6175 	 46.5404 	 106.686
| 37> H 	 -56.9279 	 47.231 	 108.177
| 38> H 	 -58.4028 	 47.8212 	 107.403
| 39> H 	 -51.237 	 44.405 	 107.246
| 40> H 	 -59.054 	 41.9457 	 105.478
| 41> *
| 42>
| 43>                          ****END OF INPUT****

CARTESIAN COORDINATES (ANGSTROEM)
---------------------------------
  S    -53.348900   42.867900  107.124000
  C    -52.254400   44.263400  107.383000
  C    -52.944800   45.413300  107.724000
  C    -54.336300   45.193000  107.774000
  C    -54.714600   43.928700  107.378000
  H    -55.110000   45.896900  107.945000
  C    -52.348200   46.740700  108.041000
  H    -51.712200   46.661200  108.931000
  H    -53.109300   47.445300  108.357000
  C    -51.450500   47.438100  106.992000
  H    -50.535500   46.801700  106.929000
  H    -51.937500   47.564600  105.986000
  C    -51.082900   48.834400  107.438000
  H    -51.945600   49.483500  107.712000
  H    -50.269500   48.838500  108.256000
  H    -50.629100   49.369500  106.679000
  S    -56.530900   42.324600  105.879000
  C    -58.181700   42.277800  106.138000
  C    -58.379900   43.131900  107.251000
  C    -57.229700   43.697400  107.831000
  C    -56.093400   43.481200  107.192000
  H    -59.331000   43.391000  107.614000
  C    -57.360800   44.689100  108.963000
  H    -56.459600   44.975400  109.502000
  H    -57.824400   44.108100  109.783000
  C    -58.351000   45.879900  108.700000
  H    -58.395300   46.444800  109.594000
  H    -59.317300   45.449600  108.435000
  C    -57.785700   46.900400  107.677000
  H    -57.617500   46.540400  106.686000
  H    -56.927900   47.231000  108.177000
  H    -58.402800   47.821200  107.403000
  H    -51.237000   44.405000  107.246000
  H    -59.054000   41.945700  105.478000

 Total Charge           Charge          ....    0
 Multiplicity           Mult            ....    1
 Number of Electrons    NEL             ....  134
 Basis Dimension        Dim             ....  322

ORBITAL ENERGIES
----------------

  NO   OCC          E(Eh)            E(eV)
   0   2.0000     -88.972761     -2421.0719
   1   2.0000     -88.960225     -2420.7308
   2   2.0000     -10.331399      -281.1317
   3   2.0000     -10.325395      -280.9683
   4   2.0000     -10.324701      -280.9494
   5   2.0000     -10.309428      -280.5338
   6   2.0000     -10.297969      -280.2220
   7   2.0000     -10.295876      -280.1650
   8   2.0000     -10.293788      -280.1082
   9   2.0000     -10.292699      -280.0786
  10   2.0000     -10.291390      -280.0430
  11   2.0000     -10.291107      -280.0353
  12   2.0000     -10.288624      -279.9677
  13   2.0000     -10.287654      -279.9413
  14   2.0000     -10.282087      -279.7898
  15   2.0000     -10.277351      -279.6609
  16   2.0000      -8.086233      -220.0376
  17   2.0000      -8.075786      -219.7533
  18   2.0000      -6.044952      -164.4915
  19   2.0000      -6.040987      -164.3836
  20   2.0000      -6.036770      -164.2689
  21   2.0000      -6.034262      -164.2006
  22   2.0000      -6.029942      -164.0831
  23   2.0000      -6.026677      -163.9942
  24   2.0000      -1.013207       -27.5708
  25   2.0000      -0.988994       -26.9119
  26   2.0000      -0.915621       -24.9153
  27   2.0000      -0.910947       -24.7881
  28   2.0000      -0.873546       -23.7704
  29   2.0000      -0.857038       -23.3212
  30   2.0000      -0.844606       -22.9829
  31   2.0000      -0.813796       -22.1445
  32   2.0000      -0.784652       -21.3515
  33   2.0000      -0.778766       -21.1913
  34   2.0000      -0.710879       -19.3440
  35   2.0000      -0.706094       -19.2138
  36   2.0000      -0.695475       -18.9248
  37   2.0000      -0.663277       -18.0487
  38   2.0000      -0.640437       -17.4272
  39   2.0000      -0.619879       -16.8678
  40   2.0000      -0.603068       -16.4103
  41   2.0000      -0.576079       -15.6759
  42   2.0000      -0.567519       -15.4430
  43   2.0000      -0.556373       -15.1397
  44   2.0000      -0.541021       -14.7219
  45   2.0000      -0.526606       -14.3297
  46   2.0000      -0.518975       -14.1220
  47   2.0000      -0.514115       -13.9898
  48   2.0000      -0.507975       -13.8227
  49   2.0000      -0.501085       -13.6352
  50   2.0000      -0.485308       -13.2059
  51   2.0000      -0.478972       -13.0335
  52   2.0000      -0.474392       -12.9089
  53   2.0000      -0.469936       -12.7876
  54   2.0000      -0.459403       -12.5010
  55   2.0000      -0.457109       -12.4386
  56   2.0000      -0.447128       -12.1670
  57   2.0000      -0.434526       -11.8241
  58   2.0000      -0.430929       -11.7262
  59   2.0000      -0.427641       -11.6367
  60   2.0000      -0.421669       -11.4742
  61   2.0000      -0.418395       -11.3851
  62   2.0000      -0.397133       -10.8065
  63   2.0000      -0.356551        -9.7022
  64   2.0000      -0.334772        -9.1096
  65   2.0000      -0.325431        -8.8554
  66   2.0000      -0.288292        -7.8448
  67   0.0000       0.025759         0.7009
  68   0.0000       0.069863         1.9011
  69   0.0000       0.105094         2.8597
  70   0.0000       0.125494         3.4149
  71   0.0000       0.133664         3.6372

MULLIKEN ATOMIC CHARGES
-----------------------
   0 S :    0.128959
   1 C :   -0.076355
   2 C :   -0.044860
   3 C :    0.025023
   4 C :   -0.126359
   5 H :   -0.039076
   6 C :    0.055159
   7 H :    0.033186
   8 H :    0.007717
   9 C :   -0.096520
  10 H :    0.036808
  11 H :    0.046912
  12 C :   -0.052443
  13 H :    0.037305
  14 H :    0.036769
  15 H :    0.015316
  16 S :    0.089747
  17 C :   -0.091490
  18 C :   -0.058740
  19 C :   -0.010289
  20 C :   -0.142551
  21 H :   -0.006938
  22 C :    0.009966
  23 H :    0.026441
  24 H :    0.027967
  25 C :   -0.036396
  26 H :    0.024589
  27 H :    0.031309
  28 C :   -0.064617
  29 H :    0.037899
  30 H :    0.033193
  31 H :    0.037950
  32 H :    0.004458
  33 H :    0.099960
Sum of atomic charges:   -0.0000000

LOEWDIN ATOMIC CHARGES
----------------------
   0 S :    0.401555
   1 C :   -0.182000
   2 C :   -0.056650
   3 C :   -0.060310
   4 C :   -0.180098
   5 H :    0.022333
   6 C :   -0.037539
   7 H :    0.036791
   8 H :    0.025891
   9 C :   -0.041889
  10 H :    0.027203
  11 H :    0.031812
  12 C :   -0.071821
  13 H :    0.030040
  14 H :    0.033133
  15 H :    0.015695
  16 S :    0.411766
  17 C :   -0.221359
  18 C :   -0.075793
  19 C :   -0.070830
  20 C :   -0.179149
  21 H :    0.015167
  22 C :   -0.037361
  23 H :    0.029358
  24 H :    0.038210
  25 C :   -0.024404
  26 H :    0.022437
  27 H :    0.019432
  28 C :   -0.070583
  29 H :    0.022245
  30 H :    0.015718
  31 H :    0.035296
  32 H :    0.014313
  33 H :    0.061390

  Mayer bond orders larger than 0.100000
B(  0-S ,  1-C ) :   1.1139 B(  0-S ,  4-C ) :   1.1425 B(  1-C ,  2-C ) :   1.6268
B(  1-C , 32-H ) :   0.9695 B(  2-C ,  3-C ) :   1.2346 B(  2-C ,  6-C ) :   1.0225
B(  3-C ,  4-C ) :   1.5737 B(  3-C ,  5-H ) :   0.9961 B(  4-C , 20-C ) :   1.0550
B(  6-C ,  7-H ) :   0.9317 B(  6-C ,  8-H ) :   0.9453 B(  6-C ,  9-C ) :   1.0585
B(  9-C , 10-H ) :   0.9509 B(  9-C , 11-H ) :   0.9586 B(  9-C , 12-C ) :   1.0944
B( 12-C , 13-H ) :   0.9709 B( 12-C , 14-H ) :   0.9711 B( 12-C , 15-H ) :   0.9713
B( 16-S , 17-C ) :   1.1916 B( 16-S , 20-C ) :   1.1158 B( 17-C , 18-C ) :   1.5429
B( 17-C , 33-H ) :   0.9582 B( 18-C , 19-C ) :   1.2744 B( 18-C , 21-H ) :   0.9943
B( 19-C , 20-C ) :   1.6017 B( 19-C , 22-C ) :   1.0379 B( 22-C , 23-H ) :   0.9398
B( 22-C , 24-H ) :   0.9206 B( 22-C , 25-C ) :   1.0812 B( 25-C , 26-H ) :   0.9553
B( 25-C , 27-H ) :   0.9574 B( 25-C , 28-C ) :   1.0641 B( 28-C , 29-H ) :   0.9792
B( 28-C , 30-H ) :   0.9647 B( 28-C , 31-H ) :   0.9719

Dispersion correction           -0.014430649
FINAL SINGLE POINT ENERGY     -1339.848414831124

DIPOLE MOMENT
-------------
                                X             Y             Z
Electronic contribution:     -2.12579     -29.38057      -7.90733
Nuclear contribution   :      1.92734      30.20388       8.13704
                        -----------------------------------------
Total Dipole Moment    :     -0.19844       0.82331       0.22971
                        -----------------------------------------
Magnitude (a.u.)       :      0.87749
Magnitude (Debye)      :      2.23040

Rotational constants in cm-1:     0.020404     0.008373     0.006463
Rotational constants in MHz :   611.702911   251.008042   193.751755

                             ****ORCA TERMINATED NORMALLY****
TOTAL RUN TIME: 0 days 0 hours 0 minutes 30 seconds 329 msec
