                         Program Version 4.2.1 -  RELEASE  -
|  1> ! wB97X-D3 SP def2-SVP
|  2> %pal
|  3> nprocs 16
|  4> end
|  5>
|  6> * xyz 0 1
|  7> S 	 49.8792 	 7.59319 	 92.1847
|  8> C 	 49.5954 	 9.33575 	 92.115
|  9> C 	 49.451 	 9.79087 	 90.7721
| 10> C 	 49.6328 	 8.75229 	 89.8422
| 11> C 	 49.7285 	 7.50241 	 90.4576
| 12> H 	 49.6752 	 8.77249 	 88.7229
| 13> C 	 49.137 	 11.2073 	 90.2782
| 14> H 	 48.0471 	 11.3044 	 90.2449
| 15> H 	 49.6702 	 11.4146 	 89.3934
| 16> C 	 49.6405 	 12.4113 	 91.1239
| 17> H 	 49.1844 	 13.3703 	 90.7357
| 18> H 	 49.2141 	 12.3019 	 92.1047
| 19> C 	 51.2346 	 12.5668 	 91.2635
| 20> H 	 51.7208 	 11.8043 	 91.7937
| 21> H 	 51.5765 	 12.4883 	 90.2378
| 22> H 	 51.4319 	 13.5031 	 91.7803
| 23> S 	 51.4531 	 5.46842 	 89.9664
| 24> C 	 51.0383 	 4.35526 	 88.7062
| 25> C 	 49.7756 	 4.50752 	 88.2495
| 26> C 	 49.1007 	 5.67419 	 88.7478
| 27> C 	 49.8962 	 6.3237 	 89.705
| 28> H 	 49.3709 	 3.83642 	 87.509
| 29> C 	 47.7656 	 6.13726 	 88.1814
| 30> H 	 47.2168 	 6.70108 	 88.9036
| 31> H 	 47.1434 	 5.23299 	 88.0382
| 32> C 	 47.9824 	 7.04702 	 86.9049
| 33> H 	 48.7477 	 6.7641 	 86.1943
| 34> H 	 48.3257 	 8.01611 	 87.166
| 35> C 	 46.6594 	 7.07058 	 86.2079
| 36> H 	 46.2287 	 6.07983 	 86.0849
| 37> H 	 46.8213 	 7.58786 	 85.2884
| 38> H 	 45.9937 	 7.64845 	 86.807
| 39> H 	 49.3035 	 9.98809 	 92.979
| 40> H 	 51.7551 	 3.65285 	 88.348
| 41> *
| 42>
| 43>                          ****END OF INPUT****

CARTESIAN COORDINATES (ANGSTROEM)
---------------------------------
  S     49.879200    7.593190   92.184700
  C     49.595400    9.335750   92.115000
  C     49.451000    9.790870   90.772100
  C     49.632800    8.752290   89.842200
  C     49.728500    7.502410   90.457600
  H     49.675200    8.772490   88.722900
  C     49.137000   11.207300   90.278200
  H     48.047100   11.304400   90.244900
  H     49.670200   11.414600   89.393400
  C     49.640500   12.411300   91.123900
  H     49.184400   13.370300   90.735700
  H     49.214100   12.301900   92.104700
  C     51.234600   12.566800   91.263500
  H     51.720800   11.804300   91.793700
  H     51.576500   12.488300   90.237800
  H     51.431900   13.503100   91.780300
  S     51.453100    5.468420   89.966400
  C     51.038300    4.355260   88.706200
  C     49.775600    4.507520   88.249500
  C     49.100700    5.674190   88.747800
  C     49.896200    6.323700   89.705000
  H     49.370900    3.836420   87.509000
  C     47.765600    6.137260   88.181400
  H     47.216800    6.701080   88.903600
  H     47.143400    5.232990   88.038200
  C     47.982400    7.047020   86.904900
  H     48.747700    6.764100   86.194300
  H     48.325700    8.016110   87.166000
  C     46.659400    7.070580   86.207900
  H     46.228700    6.079830   86.084900
  H     46.821300    7.587860   85.288400
  H     45.993700    7.648450   86.807000
  H     49.303500    9.988090   92.979000
  H     51.755100    3.652850   88.348000

 Total Charge           Charge          ....    0
 Multiplicity           Mult            ....    1
 Number of Electrons    NEL             ....  134
 Basis Dimension        Dim             ....  322

ORBITAL ENERGIES
----------------

  NO   OCC          E(Eh)            E(eV)
   0   2.0000     -88.972252     -2421.0581
   1   2.0000     -88.959296     -2420.7055
   2   2.0000     -10.322503      -280.8896
   3   2.0000     -10.321836      -280.8714
   4   2.0000     -10.320100      -280.8242
   5   2.0000     -10.309805      -280.5440
   6   2.0000     -10.305490      -280.4266
   7   2.0000     -10.305097      -280.4159
   8   2.0000     -10.296082      -280.1706
   9   2.0000     -10.293931      -280.1121
  10   2.0000     -10.292474      -280.0724
  11   2.0000     -10.291601      -280.0487
  12   2.0000     -10.288457      -279.9632
  13   2.0000     -10.283962      -279.8408
  14   2.0000     -10.275268      -279.6043
  15   2.0000     -10.269709      -279.4530
  16   2.0000      -8.086409      -220.0424
  17   2.0000      -8.074315      -219.7133
  18   2.0000      -6.044861      -164.4890
  19   2.0000      -6.041041      -164.3851
  20   2.0000      -6.037231      -164.2814
  21   2.0000      -6.032714      -164.1585
  22   2.0000      -6.028976      -164.0568
  23   2.0000      -6.024989      -163.9483
  24   2.0000      -1.005189       -27.3526
  25   2.0000      -0.979166       -26.6445
  26   2.0000      -0.912412       -24.8280
  27   2.0000      -0.905830       -24.6489
  28   2.0000      -0.867094       -23.5948
  29   2.0000      -0.854652       -23.2563
  30   2.0000      -0.846850       -23.0440
  31   2.0000      -0.805578       -21.9209
  32   2.0000      -0.784525       -21.3480
  33   2.0000      -0.768229       -20.9046
  34   2.0000      -0.709789       -19.3143
  35   2.0000      -0.704229       -19.1630
  36   2.0000      -0.694570       -18.9002
  37   2.0000      -0.660199       -17.9649
  38   2.0000      -0.634013       -17.2524
  39   2.0000      -0.608677       -16.5630
  40   2.0000      -0.597232       -16.2515
  41   2.0000      -0.574651       -15.6371
  42   2.0000      -0.563467       -15.3327
  43   2.0000      -0.552596       -15.0369
  44   2.0000      -0.538163       -14.6442
  45   2.0000      -0.530336       -14.4312
  46   2.0000      -0.513992       -13.9864
  47   2.0000      -0.512190       -13.9374
  48   2.0000      -0.506216       -13.7748
  49   2.0000      -0.495476       -13.4826
  50   2.0000      -0.489343       -13.3157
  51   2.0000      -0.485701       -13.2166
  52   2.0000      -0.468702       -12.7540
  53   2.0000      -0.463251       -12.6057
  54   2.0000      -0.461105       -12.5473
  55   2.0000      -0.453374       -12.3369
  56   2.0000      -0.445366       -12.1190
  57   2.0000      -0.438046       -11.9198
  58   2.0000      -0.427964       -11.6455
  59   2.0000      -0.422902       -11.5078
  60   2.0000      -0.421836       -11.4787
  61   2.0000      -0.414970       -11.2919
  62   2.0000      -0.411802       -11.2057
  63   2.0000      -0.342431        -9.3180
  64   2.0000      -0.332939        -9.0597
  65   2.0000      -0.326870        -8.8946
  66   2.0000      -0.285828        -7.7778
  67   0.0000       0.032289         0.8786
  68   0.0000       0.061252         1.6668
  69   0.0000       0.109412         2.9773
  70   0.0000       0.127515         3.4699
  71   0.0000       0.128413         3.4943

MULLIKEN ATOMIC CHARGES
-----------------------
   0 S :    0.132097
   1 C :   -0.142802
   2 C :   -0.083822
   3 C :   -0.008950
   4 C :   -0.156569
   5 H :    0.039084
   6 C :    0.081330
   7 H :    0.052457
   8 H :    0.020688
   9 C :   -0.122398
  10 H :    0.037781
  11 H :    0.012233
  12 C :   -0.031473
  13 H :    0.031442
  14 H :    0.025723
  15 H :    0.042082
  16 S :    0.090863
  17 C :   -0.080030
  18 C :   -0.021356
  19 C :   -0.020857
  20 C :   -0.190417
  21 H :    0.011606
  22 C :    0.058259
  23 H :    0.024242
  24 H :    0.031908
  25 C :   -0.059155
  26 H :    0.026335
  27 H :    0.009084
  28 C :    0.001297
  29 H :    0.031796
  30 H :    0.023554
  31 H :    0.016236
  32 H :    0.069068
  33 H :    0.048662
Sum of atomic charges:   -0.0000000

LOEWDIN ATOMIC CHARGES
----------------------
   0 S :    0.416929
   1 C :   -0.217252
   2 C :   -0.060135
   3 C :   -0.066559
   4 C :   -0.205550
   5 H :    0.040335
   6 C :   -0.029481
   7 H :    0.041004
   8 H :    0.024149
   9 C :   -0.042755
  10 H :    0.029887
  11 H :    0.009935
  12 C :   -0.058266
  13 H :    0.018862
  14 H :    0.023783
  15 H :    0.029327
  16 S :    0.382503
  17 C :   -0.179050
  18 C :   -0.073515
  19 C :   -0.047649
  20 C :   -0.189226
  21 H :    0.030088
  22 C :   -0.024000
  23 H :    0.029316
  24 H :    0.034831
  25 C :   -0.031043
  26 H :    0.022829
  27 H :    0.016490
  28 C :   -0.055693
  29 H :    0.025069
  30 H :    0.022304
  31 H :    0.021242
  32 H :    0.037794
  33 H :    0.023501

  Mayer bond orders larger than 0.100000
B(  0-S ,  1-C ) :   1.1325 B(  0-S ,  4-C ) :   1.1633 B(  1-C ,  2-C ) :   1.5871
B(  1-C ,  4-C ) :   0.1065 B(  1-C , 32-H ) :   0.9584 B(  2-C ,  3-C ) :   1.2635
B(  2-C ,  6-C ) :   1.0100 B(  3-C ,  4-C ) :   1.5422 B(  3-C ,  5-H ) :   0.9826
B(  4-C , 20-C ) :   1.0713 B(  6-C ,  7-H ) :   0.9339 B(  6-C ,  8-H ) :   0.9509
B(  6-C ,  9-C ) :   1.0797 B(  9-C , 10-H ) :   0.9590 B(  9-C , 11-H ) :   0.9526
B(  9-C , 12-C ) :   1.0609 B( 12-C , 13-H ) :   0.9782 B( 12-C , 14-H ) :   0.9787
B( 12-C , 15-H ) :   0.9774 B( 16-S , 17-C ) :   1.1464 B( 16-S , 20-C ) :   1.1243
B( 17-C , 18-C ) :   1.6292 B( 17-C , 33-H ) :   0.9708 B( 18-C , 19-C ) :   1.2143
B( 18-C , 21-H ) :   0.9926 B( 19-C , 20-C ) :   1.6099 B( 19-C , 22-C ) :   1.0525
B( 22-C , 23-H ) :   0.9255 B( 22-C , 24-H ) :   0.9468 B( 22-C , 25-C ) :   1.0413
B( 25-C , 26-H ) :   0.9654 B( 25-C , 27-H ) :   0.9442 B( 25-C , 28-C ) :   1.0883
B( 28-C , 29-H ) :   0.9784 B( 28-C , 30-H ) :   0.9697 B( 28-C , 31-H ) :   0.9700

Dispersion correction           -0.014381597
FINAL SINGLE POINT ENERGY     -1339.863482208229

DIPOLE MOMENT
-------------
                                X             Y             Z
Electronic contribution:     11.12966     -19.88855      13.54258
Nuclear contribution   :    -11.51872      20.19895     -14.06659
                        -----------------------------------------
Total Dipole Moment    :     -0.38906       0.31039      -0.52401
                        -----------------------------------------
Magnitude (a.u.)       :      0.72270
Magnitude (Debye)      :      1.83696

Rotational constants in cm-1:     0.018559     0.008601     0.006634
Rotational constants in MHz :   556.385667   257.843762   198.867404

                             ****ORCA TERMINATED NORMALLY****
TOTAL RUN TIME: 0 days 0 hours 0 minutes 28 seconds 425 msec
