                         Program Version 4.2.1 -  RELEASE  -
|  1> ! wB97X-D3 SP def2-SVP
|  2> %pal
|  3> nprocs 16
|  4> end
|  5>
|  6> * xyz 0 1
|  7> S 	 -12.9156 	 -3.20692 	 78.6416
|  8> C 	 -11.2827 	 -2.52507 	 78.636
|  9> C 	 -10.2794 	 -3.41802 	 78.9849
| 10> C 	 -10.8294 	 -4.76289 	 79.1424
| 11> C 	 -12.2206 	 -4.8129 	 78.8471
| 12> H 	 -10.1519 	 -5.5425 	 79.394
| 13> C 	 -8.79768 	 -3.13322 	 79.1712
| 14> H 	 -8.42431 	 -3.71362 	 80.0499
| 15> H 	 -8.74173 	 -2.08446 	 79.4402
| 16> C 	 -7.91052 	 -3.41153 	 77.816
| 17> H 	 -7.72895 	 -4.45039 	 77.5262
| 18> H 	 -8.36775 	 -2.98275 	 76.9325
| 19> C 	 -6.54237 	 -2.64051 	 77.7976
| 20> H 	 -6.50652 	 -1.54248 	 77.7332
| 21> H 	 -6.06436 	 -2.93199 	 78.7006
| 22> H 	 -5.87822 	 -3.14814 	 77.0521
| 23> S 	 -14.3786 	 -6.23945 	 79.8743
| 24> C 	 -14.7774 	 -7.75744 	 79.178
| 25> C 	 -13.9374 	 -8.04051 	 78.12
| 26> C 	 -12.9267 	 -7.06517 	 77.8894
| 27> C 	 -13.0216 	 -5.99959 	 78.7527
| 28> H 	 -14.2271 	 -8.78735 	 77.4782
| 29> C 	 -11.9065 	 -7.12954 	 76.7246
| 30> H 	 -11.0351 	 -6.58312 	 77.1022
| 31> H 	 -12.2843 	 -6.52735 	 75.9045
| 32> C 	 -11.2578 	 -8.50377 	 76.3901
| 33> H 	 -10.6166 	 -8.27727 	 75.5148
| 34> H 	 -12.1273 	 -9.19588 	 76.1119
| 35> C 	 -10.3311 	 -9.17196 	 77.4278
| 36> H 	 -10.0481 	 -10.1591 	 77.1059
| 37> H 	 -10.8849 	 -9.38317 	 78.2951
| 38> H 	 -9.39897 	 -8.6277 	 77.6823
| 39> H 	 -11.1588 	 -1.45412 	 78.6919
| 40> H 	 -15.6697 	 -8.38346 	 79.3676
| 41> *
| 42>
| 43>                          ****END OF INPUT****

CARTESIAN COORDINATES (ANGSTROEM)
---------------------------------
  S    -12.915600   -3.206920   78.641600
  C    -11.282700   -2.525070   78.636000
  C    -10.279400   -3.418020   78.984900
  C    -10.829400   -4.762890   79.142400
  C    -12.220600   -4.812900   78.847100
  H    -10.151900   -5.542500   79.394000
  C     -8.797680   -3.133220   79.171200
  H     -8.424310   -3.713620   80.049900
  H     -8.741730   -2.084460   79.440200
  C     -7.910520   -3.411530   77.816000
  H     -7.728950   -4.450390   77.526200
  H     -8.367750   -2.982750   76.932500
  C     -6.542370   -2.640510   77.797600
  H     -6.506520   -1.542480   77.733200
  H     -6.064360   -2.931990   78.700600
  H     -5.878220   -3.148140   77.052100
  S    -14.378600   -6.239450   79.874300
  C    -14.777400   -7.757440   79.178000
  C    -13.937400   -8.040510   78.120000
  C    -12.926700   -7.065170   77.889400
  C    -13.021600   -5.999590   78.752700
  H    -14.227100   -8.787350   77.478200
  C    -11.906500   -7.129540   76.724600
  H    -11.035100   -6.583120   77.102200
  H    -12.284300   -6.527350   75.904500
  C    -11.257800   -8.503770   76.390100
  H    -10.616600   -8.277270   75.514800
  H    -12.127300   -9.195880   76.111900
  C    -10.331100   -9.171960   77.427800
  H    -10.048100  -10.159100   77.105900
  H    -10.884900   -9.383170   78.295100
  H     -9.398970   -8.627700   77.682300
  H    -11.158800   -1.454120   78.691900
  H    -15.669700   -8.383460   79.367600

 Total Charge           Charge          ....    0
 Multiplicity           Mult            ....    1
 Number of Electrons    NEL             ....  134
 Basis Dimension        Dim             ....  322

ORBITAL ENERGIES
----------------

  NO   OCC          E(Eh)            E(eV)
   0   2.0000     -88.968822     -2420.9647
   1   2.0000     -88.963084     -2420.8086
   2   2.0000     -10.333129      -281.1787
   3   2.0000     -10.320741      -280.8416
   4   2.0000     -10.315917      -280.7104
   5   2.0000     -10.314249      -280.6650
   6   2.0000     -10.307853      -280.4909
   7   2.0000     -10.304716      -280.4056
   8   2.0000     -10.301036      -280.3054
   9   2.0000     -10.299081      -280.2523
  10   2.0000     -10.298313      -280.2314
  11   2.0000     -10.296790      -280.1899
  12   2.0000     -10.290213      -280.0109
  13   2.0000     -10.283492      -279.8280
  14   2.0000     -10.281908      -279.7849
  15   2.0000     -10.275660      -279.6149
  16   2.0000      -8.083027      -219.9503
  17   2.0000      -8.078015      -219.8140
  18   2.0000      -6.041547      -164.3989
  19   2.0000      -6.037782      -164.2964
  20   2.0000      -6.036460      -164.2604
  21   2.0000      -6.033642      -164.1837
  22   2.0000      -6.032441      -164.1511
  23   2.0000      -6.028889      -164.0544
  24   2.0000      -1.002931       -27.2911
  25   2.0000      -0.978003       -26.6128
  26   2.0000      -0.901188       -24.5226
  27   2.0000      -0.899460       -24.4755
  28   2.0000      -0.867147       -23.5963
  29   2.0000      -0.849847       -23.1255
  30   2.0000      -0.843866       -22.9627
  31   2.0000      -0.809730       -22.0339
  32   2.0000      -0.785104       -21.3638
  33   2.0000      -0.770959       -20.9789
  34   2.0000      -0.707717       -19.2580
  35   2.0000      -0.701976       -19.1017
  36   2.0000      -0.692403       -18.8413
  37   2.0000      -0.654247       -17.8030
  38   2.0000      -0.636996       -17.3336
  39   2.0000      -0.620570       -16.8866
  40   2.0000      -0.591755       -16.1025
  41   2.0000      -0.563817       -15.3423
  42   2.0000      -0.554145       -15.0791
  43   2.0000      -0.549168       -14.9436
  44   2.0000      -0.542321       -14.7573
  45   2.0000      -0.519501       -14.1363
  46   2.0000      -0.517606       -14.0848
  47   2.0000      -0.511721       -13.9246
  48   2.0000      -0.498862       -13.5747
  49   2.0000      -0.495519       -13.4838
  50   2.0000      -0.491240       -13.3673
  51   2.0000      -0.473402       -12.8819
  52   2.0000      -0.470980       -12.8160
  53   2.0000      -0.466600       -12.6968
  54   2.0000      -0.461971       -12.5709
  55   2.0000      -0.450854       -12.2684
  56   2.0000      -0.443503       -12.0683
  57   2.0000      -0.440408       -11.9841
  58   2.0000      -0.435860       -11.8603
  59   2.0000      -0.428363       -11.6564
  60   2.0000      -0.416365       -11.3299
  61   2.0000      -0.413255       -11.2452
  62   2.0000      -0.402973       -10.9655
  63   2.0000      -0.335873        -9.1396
  64   2.0000      -0.330698        -8.9987
  65   2.0000      -0.328901        -8.9499
  66   2.0000      -0.294730        -8.0200
  67   0.0000       0.029481         0.8022
  68   0.0000       0.064566         1.7569
  69   0.0000       0.107600         2.9280
  70   0.0000       0.125032         3.4023
  71   0.0000       0.131165         3.5692

MULLIKEN ATOMIC CHARGES
-----------------------
   0 S :    0.115124
   1 C :   -0.118026
   2 C :   -0.117860
   3 C :    0.070220
   4 C :   -0.175768
   5 H :    0.003575
   6 C :    0.063748
   7 H :    0.045623
   8 H :    0.022262
   9 C :   -0.071629
  10 H :    0.035575
  11 H :    0.034171
  12 C :   -0.073660
  13 H :    0.052327
  14 H :    0.013368
  15 H :    0.034289
  16 S :    0.108688
  17 C :   -0.096407
  18 C :   -0.030607
  19 C :   -0.029967
  20 C :   -0.168481
  21 H :   -0.010150
  22 C :    0.085065
  23 H :    0.011673
  24 H :    0.050790
  25 C :   -0.110389
  26 H :    0.038501
  27 H :    0.040542
  28 C :   -0.022254
  29 H :    0.024781
  30 H :    0.023522
  31 H :    0.037414
  32 H :    0.045430
  33 H :    0.068510
Sum of atomic charges:    0.0000000

LOEWDIN ATOMIC CHARGES
----------------------
   0 S :    0.398356
   1 C :   -0.195271
   2 C :   -0.062065
   3 C :   -0.047344
   4 C :   -0.190336
   5 H :    0.025573
   6 C :   -0.029662
   7 H :    0.037921
   8 H :    0.030657
   9 C :   -0.036979
  10 H :    0.026216
  11 H :    0.025476
  12 C :   -0.075272
  13 H :    0.027962
  14 H :    0.015849
  15 H :    0.033399
  16 S :    0.405640
  17 C :   -0.195678
  18 C :   -0.074556
  19 C :   -0.051029
  20 C :   -0.203601
  21 H :    0.016180
  22 C :   -0.036098
  23 H :    0.031034
  24 H :    0.037441
  25 C :   -0.044703
  26 H :    0.029766
  27 H :    0.027111
  28 C :   -0.064543
  29 H :    0.027837
  30 H :    0.020054
  31 H :    0.028967
  32 H :    0.021761
  33 H :    0.039938

  Mayer bond orders larger than 0.100000
B(  0-S ,  1-C ) :   1.1307 B(  0-S ,  4-C ) :   1.1534 B(  1-C ,  2-C ) :   1.6282
B(  1-C , 32-H ) :   0.9618 B(  2-C ,  3-C ) :   1.2423 B(  2-C ,  6-C ) :   1.0342
B(  3-C ,  4-C ) :   1.5483 B(  3-C ,  5-H ) :   0.9947 B(  4-C , 20-C ) :   1.0512
B(  6-C ,  7-H ) :   0.9429 B(  6-C ,  8-H ) :   0.9430 B(  6-C ,  9-C ) :   1.0295
B(  9-C , 10-H ) :   0.9617 B(  9-C , 11-H ) :   0.9648 B(  9-C , 12-C ) :   1.0722
B( 12-C , 13-H ) :   0.9795 B( 12-C , 14-H ) :   0.9748 B( 12-C , 15-H ) :   0.9733
B( 16-S , 17-C ) :   1.1642 B( 16-S , 20-C ) :   1.1348 B( 17-C , 18-C ) :   1.6111
B( 17-C , 33-H ) :   0.9592 B( 18-C , 19-C ) :   1.2405 B( 18-C , 21-H ) :   0.9990
B( 19-C , 20-C ) :   1.6080 B( 19-C , 22-C ) :   1.0233 B( 22-C , 23-H ) :   0.9275
B( 22-C , 24-H ) :   0.9364 B( 22-C , 25-C ) :   1.0622 B( 25-C , 26-H ) :   0.9555
B( 25-C , 27-H ) :   0.9543 B( 25-C , 28-C ) :   1.0827 B( 28-C , 29-H ) :   0.9700
B( 28-C , 30-H ) :   0.9728 B( 28-C , 31-H ) :   0.9722

Dispersion correction           -0.014114899
FINAL SINGLE POINT ENERGY     -1339.862311853905

DIPOLE MOMENT
-------------
                                X             Y             Z
Electronic contribution:    -28.87159       6.26107      10.96828
Nuclear contribution   :     29.45594      -6.44102     -11.22590
                        -----------------------------------------
Total Dipole Moment    :      0.58435      -0.17996      -0.25763
                        -----------------------------------------
Magnitude (a.u.)       :      0.66349
Magnitude (Debye)      :      1.68645

Rotational constants in cm-1:     0.018172     0.008628     0.006351
Rotational constants in MHz :   544.769893   258.650102   190.390729

                             ****ORCA TERMINATED NORMALLY****
TOTAL RUN TIME: 0 days 0 hours 0 minutes 33 seconds 436 msec
