                         Program Version 4.2.1 -  RELEASE  -
|  1> ! wB97X-D3 SP def2-SVP
|  2> %pal
|  3> nprocs 16
|  4> end
|  5>
|  6> * xyz 0 1
|  7> S 	 -30.2213 	 66.2844 	 110.506
|  8> C 	 -30.3145 	 67.1622 	 109.014
|  9> C 	 -29.354 	 66.6646 	 108.123
| 10> C 	 -28.8995 	 65.3402 	 108.567
| 11> C 	 -29.3504 	 64.9693 	 109.802
| 12> H 	 -28.2459 	 64.6836 	 108.04
| 13> C 	 -29.0824 	 67.2833 	 106.744
| 14> H 	 -27.9819 	 67.245 	 106.652
| 15> H 	 -29.2738 	 68.347 	 106.777
| 16> C 	 -29.9467 	 66.5722 	 105.717
| 17> H 	 -29.4655 	 66.7916 	 104.73
| 18> H 	 -29.8188 	 65.5143 	 105.94
| 19> C 	 -31.461 	 66.9309 	 105.821
| 20> H 	 -32.1215 	 66.5097 	 105.072
| 21> H 	 -31.8973 	 66.5805 	 106.815
| 22> H 	 -31.6442 	 67.9824 	 105.834
| 23> S 	 -29.0514 	 63.8819 	 112.213
| 24> C 	 -28.5445 	 62.2475 	 112.452
| 25> C 	 -28.5661 	 61.5561 	 111.3
| 26> C 	 -28.8812 	 62.361 	 110.131
| 27> C 	 -29.1067 	 63.6794 	 110.464
| 28> H 	 -28.3601 	 60.4401 	 111.384
| 29> C 	 -28.9856 	 61.7093 	 108.731
| 30> H 	 -28.9311 	 62.5396 	 108.023
| 31> H 	 -29.9472 	 61.3249 	 108.544
| 32> C 	 -27.8356 	 60.6854 	 108.398
| 33> H 	 -28.0846 	 60.3314 	 107.377
| 34> H 	 -27.8991 	 59.8055 	 108.949
| 35> C 	 -26.4409 	 61.3429 	 108.403
| 36> H 	 -26.3305 	 62.0135 	 109.232
| 37> H 	 -26.3223 	 61.8876 	 107.433
| 38> H 	 -25.5802 	 60.6544 	 108.43
| 39> H 	 -30.9677 	 68.0391 	 108.902
| 40> H 	 -28.3864 	 61.7863 	 113.387
| 41> *
| 42>
| 43>                          ****END OF INPUT****

CARTESIAN COORDINATES (ANGSTROEM)
---------------------------------
  S    -30.221300   66.284400  110.506000
  C    -30.314500   67.162200  109.014000
  C    -29.354000   66.664600  108.123000
  C    -28.899500   65.340200  108.567000
  C    -29.350400   64.969300  109.802000
  H    -28.245900   64.683600  108.040000
  C    -29.082400   67.283300  106.744000
  H    -27.981900   67.245000  106.652000
  H    -29.273800   68.347000  106.777000
  C    -29.946700   66.572200  105.717000
  H    -29.465500   66.791600  104.730000
  H    -29.818800   65.514300  105.940000
  C    -31.461000   66.930900  105.821000
  H    -32.121500   66.509700  105.072000
  H    -31.897300   66.580500  106.815000
  H    -31.644200   67.982400  105.834000
  S    -29.051400   63.881900  112.213000
  C    -28.544500   62.247500  112.452000
  C    -28.566100   61.556100  111.300000
  C    -28.881200   62.361000  110.131000
  C    -29.106700   63.679400  110.464000
  H    -28.360100   60.440100  111.384000
  C    -28.985600   61.709300  108.731000
  H    -28.931100   62.539600  108.023000
  H    -29.947200   61.324900  108.544000
  C    -27.835600   60.685400  108.398000
  H    -28.084600   60.331400  107.377000
  H    -27.899100   59.805500  108.949000
  C    -26.440900   61.342900  108.403000
  H    -26.330500   62.013500  109.232000
  H    -26.322300   61.887600  107.433000
  H    -25.580200   60.654400  108.430000
  H    -30.967700   68.039100  108.902000
  H    -28.386400   61.786300  113.387000

 Total Charge           Charge          ....    0
 Multiplicity           Mult            ....    1
 Number of Electrons    NEL             ....  134
 Basis Dimension        Dim             ....  322

ORBITAL ENERGIES
----------------

  NO   OCC          E(Eh)            E(eV)
   0   2.0000     -88.961927     -2420.7771
   1   2.0000     -88.959234     -2420.7038
   2   2.0000     -10.331334      -281.1299
   3   2.0000     -10.328947      -281.0649
   4   2.0000     -10.316630      -280.7298
   5   2.0000     -10.309654      -280.5399
   6   2.0000     -10.308795      -280.5166
   7   2.0000     -10.307424      -280.4793
   8   2.0000     -10.295836      -280.1639
   9   2.0000     -10.294208      -280.1196
  10   2.0000     -10.294177      -280.1188
  11   2.0000     -10.293927      -280.1120
  12   2.0000     -10.293594      -280.1029
  13   2.0000     -10.288413      -279.9620
  14   2.0000     -10.282252      -279.7943
  15   2.0000     -10.279557      -279.7210
  16   2.0000      -8.077658      -219.8042
  17   2.0000      -8.074959      -219.7308
  18   2.0000      -6.036275      -164.2554
  19   2.0000      -6.033510      -164.1802
  20   2.0000      -6.032123      -164.1424
  21   2.0000      -6.029445      -164.0695
  22   2.0000      -6.028126      -164.0337
  23   2.0000      -6.025494      -163.9620
  24   2.0000      -1.010609       -27.5001
  25   2.0000      -0.986962       -26.8566
  26   2.0000      -0.913790       -24.8655
  27   2.0000      -0.904228       -24.6053
  28   2.0000      -0.870690       -23.6927
  29   2.0000      -0.846392       -23.0315
  30   2.0000      -0.836532       -22.7632
  31   2.0000      -0.816903       -22.2291
  32   2.0000      -0.782962       -21.3055
  33   2.0000      -0.777414       -21.1545
  34   2.0000      -0.712373       -19.3847
  35   2.0000      -0.702281       -19.1100
  36   2.0000      -0.693669       -18.8757
  37   2.0000      -0.657929       -17.9031
  38   2.0000      -0.641371       -17.4526
  39   2.0000      -0.622265       -16.9327
  40   2.0000      -0.598784       -16.2937
  41   2.0000      -0.569399       -15.4941
  42   2.0000      -0.555853       -15.1255
  43   2.0000      -0.548387       -14.9224
  44   2.0000      -0.536912       -14.6101
  45   2.0000      -0.530461       -14.4346
  46   2.0000      -0.519510       -14.1366
  47   2.0000      -0.509904       -13.8752
  48   2.0000      -0.506555       -13.7841
  49   2.0000      -0.497361       -13.5339
  50   2.0000      -0.484859       -13.1937
  51   2.0000      -0.481346       -13.0981
  52   2.0000      -0.471014       -12.8170
  53   2.0000      -0.461702       -12.5636
  54   2.0000      -0.459780       -12.5112
  55   2.0000      -0.447933       -12.1889
  56   2.0000      -0.446044       -12.1375
  57   2.0000      -0.442170       -12.0321
  58   2.0000      -0.437525       -11.9057
  59   2.0000      -0.427877       -11.6431
  60   2.0000      -0.423947       -11.5362
  61   2.0000      -0.412358       -11.2208
  62   2.0000      -0.403488       -10.9795
  63   2.0000      -0.361634        -9.8406
  64   2.0000      -0.332279        -9.0418
  65   2.0000      -0.321817        -8.7571
  66   2.0000      -0.287299        -7.8178
  67   0.0000       0.027339         0.7439
  68   0.0000       0.075440         2.0528
  69   0.0000       0.104297         2.8381
  70   0.0000       0.117253         3.1906
  71   0.0000       0.133553         3.6342

MULLIKEN ATOMIC CHARGES
-----------------------
   0 S :    0.106514
   1 C :   -0.134368
   2 C :   -0.114181
   3 C :   -0.010105
   4 C :   -0.091842
   5 H :    0.003378
   6 C :    0.056337
   7 H :    0.039231
   8 H :    0.018391
   9 C :   -0.043663
  10 H :    0.040197
  11 H :    0.030456
  12 C :   -0.065206
  13 H :    0.040147
  14 H :    0.045965
  15 H :    0.019640
  16 S :    0.071245
  17 C :   -0.055863
  18 C :   -0.067201
  19 C :   -0.082043
  20 C :   -0.123788
  21 H :    0.044477
  22 C :    0.108093
  23 H :   -0.002748
  24 H :    0.031063
  25 C :   -0.064482
  26 H :    0.025937
  27 H :    0.018907
  28 C :   -0.063744
  29 H :    0.047544
  30 H :    0.033343
  31 H :    0.035102
  32 H :    0.064771
  33 H :    0.038498
Sum of atomic charges:    0.0000000

LOEWDIN ATOMIC CHARGES
----------------------
   0 S :    0.407056
   1 C :   -0.204352
   2 C :   -0.055877
   3 C :   -0.069097
   4 C :   -0.199901
   5 H :    0.023055
   6 C :   -0.035393
   7 H :    0.036810
   8 H :    0.025744
   9 C :   -0.038372
  10 H :    0.028325
  11 H :    0.025707
  12 C :   -0.070135
  13 H :    0.027274
  14 H :    0.036738
  15 H :    0.017638
  16 S :    0.395083
  17 C :   -0.181444
  18 C :   -0.082117
  19 C :   -0.062738
  20 C :   -0.177251
  21 H :    0.045247
  22 C :   -0.020869
  23 H :    0.026574
  24 H :    0.028037
  25 C :   -0.036315
  26 H :    0.028902
  27 H :    0.010364
  28 C :   -0.067801
  29 H :    0.023858
  30 H :    0.030680
  31 H :    0.028291
  32 H :    0.032974
  33 H :    0.023305

  Mayer bond orders larger than 0.100000
B(  0-S ,  1-C ) :   1.1403 B(  0-S ,  4-C ) :   1.1422 B(  1-C ,  2-C ) :   1.5974
B(  1-C , 32-H ) :   0.9697 B(  2-C ,  3-C ) :   1.2106 B(  2-C ,  6-C ) :   1.0320
B(  3-C ,  4-C ) :   1.5973 B(  3-C ,  5-H ) :   0.9980 B(  4-C , 20-C ) :   1.0401
B(  6-C ,  7-H ) :   0.9398 B(  6-C ,  8-H ) :   0.9434 B(  6-C ,  9-C ) :   1.0527
B(  9-C , 10-H ) :   0.9572 B(  9-C , 11-H ) :   0.9589 B(  9-C , 12-C ) :   1.0638
B( 12-C , 13-H ) :   0.9758 B( 12-C , 14-H ) :   0.9689 B( 12-C , 15-H ) :   0.9777
B( 16-S , 17-C ) :   1.1427 B( 16-S , 20-C ) :   1.1276 B( 17-C , 18-C ) :   1.6625
B( 17-C , 33-H ) :   0.9690 B( 18-C , 19-C ) :   1.1922 B( 18-C , 21-H ) :   0.9790
B( 19-C , 20-C ) :   1.6395 B( 19-C , 22-C ) :   1.0213 B( 22-C , 23-H ) :   0.9365
B( 22-C , 24-H ) :   0.9346 B( 22-C , 25-C ) :   1.0687 B( 25-C , 26-H ) :   0.9572
B( 25-C , 27-H ) :   0.9591 B( 25-C , 28-C ) :   1.0613 B( 28-C , 29-H ) :   0.9787
B( 28-C , 30-H ) :   0.9765 B( 28-C , 31-H ) :   0.9757

Dispersion correction           -0.014770566
FINAL SINGLE POINT ENERGY     -1339.872351070147

DIPOLE MOMENT
-------------
                                X             Y             Z
Electronic contribution:     -3.95551       6.04499      25.63578
Nuclear contribution   :      4.04557      -6.33689     -26.24652
                        -----------------------------------------
Total Dipole Moment    :      0.09007      -0.29190      -0.61074
                        -----------------------------------------
Magnitude (a.u.)       :      0.68288
Magnitude (Debye)      :      1.73573

Rotational constants in cm-1:     0.019634     0.008995     0.006707
Rotational constants in MHz :   588.606349   269.663918   201.063769

                             ****ORCA TERMINATED NORMALLY****
TOTAL RUN TIME: 0 days 0 hours 0 minutes 28 seconds 280 msec
