                         Program Version 4.2.1 -  RELEASE  -
|  1> ! wB97X-D3 SP def2-SVP
|  2> %pal
|  3> nprocs 16
|  4> end
|  5>
|  6> * xyz 0 1
|  7> S 	 10.9764 	 23.911 	 39.9594
|  8> C 	 11.5046 	 23.449 	 38.3378
|  9> C 	 11.1714 	 22.0755 	 38.0801
| 10> C 	 10.6907 	 21.5008 	 39.2856
| 11> C 	 10.3289 	 22.3309 	 40.3264
| 12> H 	 10.5704 	 20.4664 	 39.3957
| 13> C 	 11.5483 	 21.3828 	 36.7552
| 14> H 	 11.1207 	 21.9628 	 35.971
| 15> H 	 10.9532 	 20.5144 	 36.6177
| 16> C 	 13.0971 	 21.0513 	 36.5763
| 17> H 	 13.5778 	 22.0619 	 36.3579
| 18> H 	 13.6265 	 20.5842 	 37.3899
| 19> C 	 13.3323 	 19.9339 	 35.4719
| 20> H 	 14.4175 	 19.7288 	 35.34
| 21> H 	 12.8305 	 18.9571 	 35.6371
| 22> H 	 12.9218 	 20.3153 	 34.582
| 23> S 	 8.50123 	 20.9247 	 41.6736
| 24> C 	 8.41902 	 20.9995 	 43.3609
| 25> C 	 9.28924 	 21.9051 	 43.8449
| 26> C 	 10.1857 	 22.4039 	 42.9202
| 27> C 	 9.85525 	 22.015 	 41.6654
| 28> H 	 9.3229 	 22.074 	 44.9074
| 29> C 	 11.3361 	 23.2408 	 43.276
| 30> H 	 11.789 	 23.4984 	 42.3575
| 31> H 	 12.0999 	 22.5574 	 43.7322
| 32> C 	 11.0092 	 24.5361 	 44.1226
| 33> H 	 10.6303 	 24.3416 	 45.1324
| 34> H 	 10.233 	 25.0969 	 43.5125
| 35> C 	 12.2005 	 25.4791 	 44.3344
| 36> H 	 11.9393 	 26.4815 	 44.7129
| 37> H 	 12.8107 	 25.5899 	 43.4068
| 38> H 	 13.0153 	 25.0096 	 44.9568
| 39> H 	 11.772 	 24.102 	 37.6206
| 40> H 	 7.70776 	 20.481 	 43.9763
| 41> *
| 42>
| 43>                          ****END OF INPUT****

CARTESIAN COORDINATES (ANGSTROEM)
---------------------------------
  S     10.976400   23.911000   39.959400
  C     11.504600   23.449000   38.337800
  C     11.171400   22.075500   38.080100
  C     10.690700   21.500800   39.285600
  C     10.328900   22.330900   40.326400
  H     10.570400   20.466400   39.395700
  C     11.548300   21.382800   36.755200
  H     11.120700   21.962800   35.971000
  H     10.953200   20.514400   36.617700
  C     13.097100   21.051300   36.576300
  H     13.577800   22.061900   36.357900
  H     13.626500   20.584200   37.389900
  C     13.332300   19.933900   35.471900
  H     14.417500   19.728800   35.340000
  H     12.830500   18.957100   35.637100
  H     12.921800   20.315300   34.582000
  S      8.501230   20.924700   41.673600
  C      8.419020   20.999500   43.360900
  C      9.289240   21.905100   43.844900
  C     10.185700   22.403900   42.920200
  C      9.855250   22.015000   41.665400
  H      9.322900   22.074000   44.907400
  C     11.336100   23.240800   43.276000
  H     11.789000   23.498400   42.357500
  H     12.099900   22.557400   43.732200
  C     11.009200   24.536100   44.122600
  H     10.630300   24.341600   45.132400
  H     10.233000   25.096900   43.512500
  C     12.200500   25.479100   44.334400
  H     11.939300   26.481500   44.712900
  H     12.810700   25.589900   43.406800
  H     13.015300   25.009600   44.956800
  H     11.772000   24.102000   37.620600
  H      7.707760   20.481000   43.976300

 Total Charge           Charge          ....    0
 Multiplicity           Mult            ....    1
 Number of Electrons    NEL             ....  134
 Basis Dimension        Dim             ....  322

ORBITAL ENERGIES
----------------

  NO   OCC          E(Eh)            E(eV)
   0   2.0000     -88.966389     -2420.8985
   1   2.0000     -88.961616     -2420.7686
   2   2.0000     -10.328841      -281.0620
   3   2.0000     -10.320320      -280.8302
   4   2.0000     -10.312328      -280.6127
   5   2.0000     -10.308255      -280.5019
   6   2.0000     -10.306218      -280.4464
   7   2.0000     -10.300623      -280.2942
   8   2.0000     -10.296486      -280.1816
   9   2.0000     -10.296209      -280.1741
  10   2.0000     -10.290639      -280.0225
  11   2.0000     -10.289538      -279.9926
  12   2.0000     -10.287890      -279.9477
  13   2.0000     -10.282880      -279.8114
  14   2.0000     -10.282806      -279.8094
  15   2.0000     -10.280241      -279.7396
  16   2.0000      -8.080273      -219.8754
  17   2.0000      -8.077988      -219.8132
  18   2.0000      -6.038731      -164.3222
  19   2.0000      -6.036278      -164.2555
  20   2.0000      -6.034704      -164.2126
  21   2.0000      -6.032267      -164.1463
  22   2.0000      -6.031345      -164.1213
  23   2.0000      -6.028884      -164.0543
  24   2.0000      -1.019114       -27.7315
  25   2.0000      -0.987050       -26.8590
  26   2.0000      -0.909257       -24.7421
  27   2.0000      -0.901667       -24.5356
  28   2.0000      -0.869446       -23.6588
  29   2.0000      -0.855268       -23.2730
  30   2.0000      -0.844023       -22.9670
  31   2.0000      -0.816422       -22.2160
  32   2.0000      -0.783898       -21.3309
  33   2.0000      -0.772644       -21.0247
  34   2.0000      -0.706125       -19.2146
  35   2.0000      -0.704720       -19.1764
  36   2.0000      -0.698588       -19.0095
  37   2.0000      -0.668750       -18.1976
  38   2.0000      -0.641394       -17.4532
  39   2.0000      -0.620553       -16.8861
  40   2.0000      -0.601246       -16.3607
  41   2.0000      -0.569598       -15.4996
  42   2.0000      -0.559212       -15.2169
  43   2.0000      -0.554341       -15.0844
  44   2.0000      -0.532678       -14.4949
  45   2.0000      -0.529801       -14.4166
  46   2.0000      -0.521113       -14.1802
  47   2.0000      -0.516924       -14.0662
  48   2.0000      -0.501365       -13.6428
  49   2.0000      -0.500187       -13.6108
  50   2.0000      -0.487155       -13.2562
  51   2.0000      -0.477567       -12.9953
  52   2.0000      -0.470522       -12.8036
  53   2.0000      -0.463853       -12.6221
  54   2.0000      -0.457680       -12.4541
  55   2.0000      -0.453658       -12.3447
  56   2.0000      -0.443656       -12.0725
  57   2.0000      -0.439357       -11.9555
  58   2.0000      -0.431818       -11.7504
  59   2.0000      -0.424612       -11.5543
  60   2.0000      -0.419791       -11.4231
  61   2.0000      -0.413147       -11.2423
  62   2.0000      -0.409834       -11.1521
  63   2.0000      -0.351899        -9.5757
  64   2.0000      -0.332786        -9.0556
  65   2.0000      -0.328344        -8.9347
  66   2.0000      -0.287814        -7.8318
  67   0.0000       0.027676         0.7531
  68   0.0000       0.076612         2.0847
  69   0.0000       0.113593         3.0910
  70   0.0000       0.126253         3.4355
  71   0.0000       0.133647         3.6367

MULLIKEN ATOMIC CHARGES
-----------------------
   0 S :    0.095821
   1 C :   -0.080726
   2 C :   -0.106124
   3 C :    0.035350
   4 C :   -0.129304
   5 H :   -0.011866
   6 C :    0.096325
   7 H :    0.024083
   8 H :    0.002998
   9 C :   -0.078388
  10 H :    0.046083
  11 H :    0.042338
  12 C :   -0.074768
  13 H :    0.044898
  14 H :    0.043357
  15 H :    0.019176
  16 S :    0.113951
  17 C :   -0.071934
  18 C :   -0.041434
  19 C :   -0.039289
  20 C :   -0.155265
  21 H :    0.006724
  22 C :    0.097426
  23 H :   -0.009086
  24 H :    0.041095
  25 C :   -0.090572
  26 H :    0.040876
  27 H :    0.046297
  28 C :   -0.069750
  29 H :    0.049946
  30 H :    0.024574
  31 H :    0.028545
  32 H :    0.012154
  33 H :    0.046488
Sum of atomic charges:    0.0000000

LOEWDIN ATOMIC CHARGES
----------------------
   0 S :    0.417858
   1 C :   -0.176582
   2 C :   -0.052002
   3 C :   -0.063456
   4 C :   -0.197406
   5 H :    0.018168
   6 C :   -0.031412
   7 H :    0.032276
   8 H :    0.024078
   9 C :   -0.034859
  10 H :    0.032301
  11 H :    0.025075
  12 C :   -0.069538
  13 H :    0.031127
  14 H :    0.029979
  15 H :    0.013454
  16 S :    0.437349
  17 C :   -0.195095
  18 C :   -0.071233
  19 C :   -0.067564
  20 C :   -0.197915
  21 H :    0.029393
  22 C :   -0.034445
  23 H :    0.007787
  24 H :    0.041003
  25 C :   -0.040029
  26 H :    0.023989
  27 H :    0.034366
  28 C :   -0.080340
  29 H :    0.029527
  30 H :    0.026486
  31 H :    0.028466
  32 H :    0.001223
  33 H :    0.027972

  Mayer bond orders larger than 0.100000
B(  0-S ,  1-C ) :   1.1680 B(  0-S ,  4-C ) :   1.1461 B(  1-C ,  2-C ) :   1.5483
B(  1-C ,  4-C ) :   0.1129 B(  1-C , 32-H ) :   0.9821 B(  2-C ,  3-C ) :   1.2830
B(  2-C ,  6-C ) :   1.0329 B(  3-C ,  4-C ) :   1.5503 B(  3-C ,  5-H ) :   0.9925
B(  4-C , 20-C ) :   1.0177 B(  6-C ,  7-H ) :   0.9347 B(  6-C ,  8-H ) :   0.9413
B(  6-C ,  9-C ) :   1.0341 B(  9-C , 10-H ) :   0.9589 B(  9-C , 11-H ) :   0.9692
B(  9-C , 12-C ) :   1.0618 B( 12-C , 13-H ) :   0.9771 B( 12-C , 14-H ) :   0.9771
B( 12-C , 15-H ) :   0.9788 B( 16-S , 17-C ) :   1.1664 B( 16-S , 20-C ) :   1.1550
B( 17-C , 18-C ) :   1.6025 B( 17-C , 33-H ) :   0.9675 B( 18-C , 19-C ) :   1.2481
B( 18-C , 21-H ) :   0.9952 B( 19-C , 20-C ) :   1.5837 B( 19-C , 22-C ) :   1.0605
B( 22-C , 23-H ) :   0.9172 B( 22-C , 24-H ) :   0.9152 B( 22-C , 25-C ) :   1.0458
B( 25-C , 26-H ) :   0.9554 B( 25-C , 27-H ) :   0.9569 B( 25-C , 28-C ) :   1.0855
B( 28-C , 29-H ) :   0.9751 B( 28-C , 30-H ) :   0.9723 B( 28-C , 31-H ) :   0.9710

Dispersion correction           -0.013667770
FINAL SINGLE POINT ENERGY     -1339.858645436660

DIPOLE MOMENT
-------------
                                X             Y             Z
Electronic contribution:    -16.86120      -1.69455       5.35556
Nuclear contribution   :     17.14360       1.51087      -5.43175
                        -----------------------------------------
Total Dipole Moment    :      0.28240      -0.18368      -0.07619
                        -----------------------------------------
Magnitude (a.u.)       :      0.34539
Magnitude (Debye)      :      0.87790

Rotational constants in cm-1:     0.021174     0.007305     0.005926
Rotational constants in MHz :   634.775941   219.003904   177.670371

                             ****ORCA TERMINATED NORMALLY****
TOTAL RUN TIME: 0 days 0 hours 0 minutes 32 seconds 656 msec
