                         Program Version 4.2.1 -  RELEASE  -
|  1> ! wB97X-D3 SP def2-SVP
|  2> %pal
|  3> nprocs 16
|  4> end
|  5>
|  6> * xyz 0 1
|  7> S 	 36.6067 	 32.8243 	 55.5238
|  8> C 	 37.0852 	 33.3523 	 54.0067
|  9> C 	 37.629 	 34.6183 	 54.0401
| 10> C 	 37.5691 	 35.1707 	 55.3069
| 11> C 	 36.9473 	 34.401 	 56.2755
| 12> H 	 37.944 	 36.1326 	 55.5799
| 13> C 	 38.1591 	 35.3431 	 52.8712
| 14> H 	 38.3559 	 36.4023 	 53.0518
| 15> H 	 37.315 	 35.2171 	 52.1025
| 16> C 	 39.4097 	 34.8948 	 52.1102
| 17> H 	 40.1974 	 35.0585 	 52.8084
| 18> H 	 39.2624 	 33.8662 	 51.8367
| 19> C 	 39.6284 	 35.6892 	 50.8499
| 20> H 	 38.8989 	 35.4775 	 50.0486
| 21> H 	 39.5153 	 36.7507 	 51.0381
| 22> H 	 40.6119 	 35.5088 	 50.4596
| 23> S 	 37.3094 	 33.3043 	 58.8331
| 24> C 	 36.6213 	 34.1909 	 60.1867
| 25> C 	 36.1848 	 35.4474 	 59.8865
| 26> C 	 36.3294 	 35.6492 	 58.4726
| 27> C 	 36.8177 	 34.5916 	 57.745
| 28> H 	 35.7616 	 36.0521 	 60.6654
| 29> C 	 35.7894 	 36.9134 	 57.7601
| 30> H 	 34.7982 	 37.1706 	 58.1316
| 31> H 	 35.6125 	 36.7736 	 56.6967
| 32> C 	 36.7063 	 38.1706 	 57.9474
| 33> H 	 37.639 	 38.0524 	 57.3949
| 34> H 	 36.99 	 38.1344 	 59.0208
| 35> C 	 36.1245 	 39.4963 	 57.7084
| 36> H 	 36.8029 	 40.3666 	 57.8414
| 37> H 	 35.1437 	 39.5665 	 58.2796
| 38> H 	 35.8367 	 39.6246 	 56.6484
| 39> H 	 36.9908 	 32.792 	 53.0978
| 40> H 	 36.5543 	 33.7279 	 61.1534
| 41> *
| 42>
| 43>                          ****END OF INPUT****

CARTESIAN COORDINATES (ANGSTROEM)
---------------------------------
  S     36.606700   32.824300   55.523800
  C     37.085200   33.352300   54.006700
  C     37.629000   34.618300   54.040100
  C     37.569100   35.170700   55.306900
  C     36.947300   34.401000   56.275500
  H     37.944000   36.132600   55.579900
  C     38.159100   35.343100   52.871200
  H     38.355900   36.402300   53.051800
  H     37.315000   35.217100   52.102500
  C     39.409700   34.894800   52.110200
  H     40.197400   35.058500   52.808400
  H     39.262400   33.866200   51.836700
  C     39.628400   35.689200   50.849900
  H     38.898900   35.477500   50.048600
  H     39.515300   36.750700   51.038100
  H     40.611900   35.508800   50.459600
  S     37.309400   33.304300   58.833100
  C     36.621300   34.190900   60.186700
  C     36.184800   35.447400   59.886500
  C     36.329400   35.649200   58.472600
  C     36.817700   34.591600   57.745000
  H     35.761600   36.052100   60.665400
  C     35.789400   36.913400   57.760100
  H     34.798200   37.170600   58.131600
  H     35.612500   36.773600   56.696700
  C     36.706300   38.170600   57.947400
  H     37.639000   38.052400   57.394900
  H     36.990000   38.134400   59.020800
  C     36.124500   39.496300   57.708400
  H     36.802900   40.366600   57.841400
  H     35.143700   39.566500   58.279600
  H     35.836700   39.624600   56.648400
  H     36.990800   32.792000   53.097800
  H     36.554300   33.727900   61.153400

 Total Charge           Charge          ....    0
 Multiplicity           Mult            ....    1
 Number of Electrons    NEL             ....  134
 Basis Dimension        Dim             ....  322

ORBITAL ENERGIES
----------------

  NO   OCC          E(Eh)            E(eV)
   0   2.0000     -88.967144     -2420.9191
   1   2.0000     -88.964453     -2420.8458
   2   2.0000     -10.332318      -281.1567
   3   2.0000     -10.328726      -281.0589
   4   2.0000     -10.316628      -280.7297
   5   2.0000     -10.308599      -280.5113
   6   2.0000     -10.305591      -280.4294
   7   2.0000     -10.296631      -280.1856
   8   2.0000     -10.293345      -280.0962
   9   2.0000     -10.291605      -280.0488
  10   2.0000     -10.290196      -280.0105
  11   2.0000     -10.289943      -280.0036
  12   2.0000     -10.282765      -279.8083
  13   2.0000     -10.281695      -279.7791
  14   2.0000     -10.280763      -279.7538
  15   2.0000     -10.277148      -279.6554
  16   2.0000      -8.082640      -219.9398
  17   2.0000      -8.079310      -219.8492
  18   2.0000      -6.040959      -164.3829
  19   2.0000      -6.037824      -164.2975
  20   2.0000      -6.036889      -164.2721
  21   2.0000      -6.033952      -164.1922
  22   2.0000      -6.033713      -164.1857
  23   2.0000      -6.029907      -164.0821
  24   2.0000      -1.011828       -27.5332
  25   2.0000      -0.991469       -26.9792
  26   2.0000      -0.918550       -24.9950
  27   2.0000      -0.905705       -24.6455
  28   2.0000      -0.872546       -23.7432
  29   2.0000      -0.860133       -23.4054
  30   2.0000      -0.850154       -23.1339
  31   2.0000      -0.821234       -22.3469
  32   2.0000      -0.780569       -21.2404
  33   2.0000      -0.768397       -20.9091
  34   2.0000      -0.702250       -19.1092
  35   2.0000      -0.701592       -19.0913
  36   2.0000      -0.689758       -18.7693
  37   2.0000      -0.664902       -18.0929
  38   2.0000      -0.645286       -17.5591
  39   2.0000      -0.623085       -16.9550
  40   2.0000      -0.597482       -16.2583
  41   2.0000      -0.587490       -15.9864
  42   2.0000      -0.570961       -15.5366
  43   2.0000      -0.561754       -15.2861
  44   2.0000      -0.528155       -14.3718
  45   2.0000      -0.523064       -14.2333
  46   2.0000      -0.514518       -14.0008
  47   2.0000      -0.512461       -13.9448
  48   2.0000      -0.506558       -13.7841
  49   2.0000      -0.501943       -13.6586
  50   2.0000      -0.499297       -13.5866
  51   2.0000      -0.476818       -12.9749
  52   2.0000      -0.475372       -12.9355
  53   2.0000      -0.465790       -12.6748
  54   2.0000      -0.461173       -12.5492
  55   2.0000      -0.454568       -12.3694
  56   2.0000      -0.445633       -12.1263
  57   2.0000      -0.432240       -11.7618
  58   2.0000      -0.427651       -11.6370
  59   2.0000      -0.426983       -11.6188
  60   2.0000      -0.423555       -11.5255
  61   2.0000      -0.418187       -11.3795
  62   2.0000      -0.404857       -11.0167
  63   2.0000      -0.353739        -9.6257
  64   2.0000      -0.333744        -9.0816
  65   2.0000      -0.329648        -8.9702
  66   2.0000      -0.289789        -7.8856
  67   0.0000       0.029234         0.7955
  68   0.0000       0.070296         1.9128
  69   0.0000       0.110745         3.0135
  70   0.0000       0.122991         3.3468
  71   0.0000       0.132633         3.6091

MULLIKEN ATOMIC CHARGES
-----------------------
   0 S :    0.121025
   1 C :   -0.107108
   2 C :   -0.030638
   3 C :    0.040187
   4 C :   -0.162722
   5 H :   -0.008919
   6 C :   -0.018374
   7 H :    0.017589
   8 H :    0.035200
   9 C :   -0.022821
  10 H :    0.024938
  11 H :    0.019177
  12 C :   -0.040127
  13 H :    0.030111
  14 H :    0.019953
  15 H :    0.034313
  16 S :    0.098125
  17 C :   -0.097055
  18 C :   -0.007601
  19 C :   -0.033499
  20 C :   -0.134398
  21 H :    0.022888
  22 C :    0.052011
  23 H :    0.012745
  24 H :    0.028874
  25 C :   -0.081787
  26 H :    0.025330
  27 H :    0.024199
  28 C :   -0.054569
  29 H :    0.045220
  30 H :    0.035561
  31 H :    0.020298
  32 H :    0.039239
  33 H :    0.052635
Sum of atomic charges:    0.0000000

LOEWDIN ATOMIC CHARGES
----------------------
   0 S :    0.434852
   1 C :   -0.209707
   2 C :   -0.077118
   3 C :   -0.054766
   4 C :   -0.186843
   5 H :    0.026747
   6 C :   -0.040477
   7 H :    0.026866
   8 H :    0.039916
   9 C :   -0.033982
  10 H :    0.021408
  11 H :    0.019755
  12 C :   -0.062527
  13 H :    0.027929
  14 H :    0.022248
  15 H :    0.026214
  16 S :    0.389466
  17 C :   -0.166874
  18 C :   -0.067719
  19 C :   -0.054237
  20 C :   -0.196396
  21 H :    0.036858
  22 C :   -0.027794
  23 H :    0.025223
  24 H :    0.026566
  25 C :   -0.051404
  26 H :    0.020283
  27 H :    0.024742
  28 C :   -0.076810
  29 H :    0.033120
  30 H :    0.031409
  31 H :    0.022813
  32 H :    0.026449
  33 H :    0.023792

  Mayer bond orders larger than 0.100000
B(  0-S ,  1-C ) :   1.1774 B(  0-S ,  4-C ) :   1.1654 B(  1-C ,  2-C ) :   1.5413
B(  1-C ,  4-C ) :   0.1064 B(  1-C , 32-H ) :   0.9707 B(  2-C ,  3-C ) :   1.3027
B(  2-C ,  6-C ) :   1.0199 B(  3-C ,  4-C ) :   1.5179 B(  3-C ,  5-H ) :   1.0023
B(  4-C , 20-C ) :   1.0336 B(  6-C ,  7-H ) :   0.9458 B(  6-C ,  8-H ) :   0.9393
B(  6-C ,  9-C ) :   1.0678 B(  9-C , 10-H ) :   0.9537 B(  9-C , 11-H ) :   0.9510
B(  9-C , 12-C ) :   1.0916 B( 12-C , 13-H ) :   0.9724 B( 12-C , 14-H ) :   0.9717
B( 12-C , 15-H ) :   0.9723 B( 16-S , 17-C ) :   1.1523 B( 16-S , 20-C ) :   1.1210
B( 17-C , 18-C ) :   1.6314 B( 17-C , 33-H ) :   0.9667 B( 18-C , 19-C ) :   1.2009
B( 18-C , 21-H ) :   1.0004 B( 19-C , 20-C ) :   1.6417 B( 19-C , 22-C ) :   1.0438
B( 22-C , 23-H ) :   0.9405 B( 22-C , 24-H ) :   0.9372 B( 22-C , 25-C ) :   1.0483
B( 25-C , 26-H ) :   0.9483 B( 25-C , 27-H ) :   0.9570 B( 25-C , 28-C ) :   1.0964
B( 28-C , 29-H ) :   0.9696 B( 28-C , 30-H ) :   0.9691 B( 28-C , 31-H ) :   0.9689

Dispersion correction           -0.013484582
FINAL SINGLE POINT ENERGY     -1339.883653099160

DIPOLE MOMENT
-------------
                                X             Y             Z
Electronic contribution:     -4.87939     -24.79182      16.42498
Nuclear contribution   :      4.92475      25.27154     -16.65943
                        -----------------------------------------
Total Dipole Moment    :      0.04536       0.47972      -0.23445
                        -----------------------------------------
Magnitude (a.u.)       :      0.53587
Magnitude (Debye)      :      1.36206

Rotational constants in cm-1:     0.018252     0.008054     0.006005
Rotational constants in MHz :   547.170425   241.450689   180.017702

                             ****ORCA TERMINATED NORMALLY****
TOTAL RUN TIME: 0 days 0 hours 0 minutes 33 seconds 694 msec
