                         Program Version 4.2.1 -  RELEASE  -
|  1> ! wB97X-D3 SP def2-SVP
|  2> %pal
|  3> nprocs 16
|  4> end
|  5>
|  6> * xyz 0 1
|  7> S 	 -2.47257 	 -14.7201 	 84.3775
|  8> C 	 -3.9384 	 -15.5999 	 84.7608
|  9> C 	 -3.68877 	 -16.9573 	 84.8822
| 10> C 	 -2.27083 	 -17.2365 	 84.73
| 11> C 	 -1.51373 	 -16.1158 	 84.5494
| 12> H 	 -1.92223 	 -18.2032 	 84.675
| 13> C 	 -4.69124 	 -18.0357 	 85.0167
| 14> H 	 -5.4989 	 -17.5998 	 85.5153
| 15> H 	 -4.39831 	 -18.8965 	 85.5245
| 16> C 	 -5.11689 	 -18.654 	 83.6797
| 17> H 	 -6.0255 	 -19.332 	 83.784
| 18> H 	 -5.42093 	 -17.8815 	 82.9254
| 19> C 	 -3.97799 	 -19.6141 	 83.1039
| 20> H 	 -3.75886 	 -20.4682 	 83.7965
| 21> H 	 -4.21986 	 -20.0412 	 82.1364
| 22> H 	 -3.06375 	 -19.1118 	 82.8323
| 23> S 	 0.872563 	 -15.473 	 85.7493
| 24> C 	 2.38512 	 -15.9353 	 84.9585
| 25> C 	 2.07471 	 -16.3071 	 83.6849
| 26> C 	 0.698331 	 -16.4077 	 83.3386
| 27> C 	 -0.0922963 	 -16.0438 	 84.3774
| 28> H 	 2.92148 	 -16.4517 	 83.0463
| 29> C 	 0.163057 	 -16.8526 	 81.9784
| 30> H 	 0.184135 	 -15.9783 	 81.3648
| 31> H 	 -0.948778 	 -17.0753 	 81.9938
| 32> C 	 1.0381 	 -18.0119 	 81.3081
| 33> H 	 2.05997 	 -17.65 	 81.0065
| 34> H 	 0.610178 	 -18.3224 	 80.4051
| 35> C 	 1.19222 	 -19.3744 	 82.1067
| 36> H 	 1.45013 	 -19.1605 	 83.1545
| 37> H 	 2.02215 	 -19.9214 	 81.6425
| 38> H 	 0.289611 	 -19.8875 	 82.0456
| 39> H 	 -4.93806 	 -15.1097 	 84.8347
| 40> H 	 3.40958 	 -15.8167 	 85.3854
| 41> *
| 42>
| 43>                          ****END OF INPUT****

CARTESIAN COORDINATES (ANGSTROEM)
---------------------------------
  S     -2.472570  -14.720100   84.377500
  C     -3.938400  -15.599900   84.760800
  C     -3.688770  -16.957300   84.882200
  C     -2.270830  -17.236500   84.730000
  C     -1.513730  -16.115800   84.549400
  H     -1.922230  -18.203200   84.675000
  C     -4.691240  -18.035700   85.016700
  H     -5.498900  -17.599800   85.515300
  H     -4.398310  -18.896500   85.524500
  C     -5.116890  -18.654000   83.679700
  H     -6.025500  -19.332000   83.784000
  H     -5.420930  -17.881500   82.925400
  C     -3.977990  -19.614100   83.103900
  H     -3.758860  -20.468200   83.796500
  H     -4.219860  -20.041200   82.136400
  H     -3.063750  -19.111800   82.832300
  S      0.872563  -15.473000   85.749300
  C      2.385120  -15.935300   84.958500
  C      2.074710  -16.307100   83.684900
  C      0.698331  -16.407700   83.338600
  C     -0.092296  -16.043800   84.377400
  H      2.921480  -16.451700   83.046300
  C      0.163057  -16.852600   81.978400
  H      0.184135  -15.978300   81.364800
  H     -0.948778  -17.075300   81.993800
  C      1.038100  -18.011900   81.308100
  H      2.059970  -17.650000   81.006500
  H      0.610178  -18.322400   80.405100
  C      1.192220  -19.374400   82.106700
  H      1.450130  -19.160500   83.154500
  H      2.022150  -19.921400   81.642500
  H      0.289611  -19.887500   82.045600
  H     -4.938060  -15.109700   84.834700
  H      3.409580  -15.816700   85.385400

 Total Charge           Charge          ....    0
 Multiplicity           Mult            ....    1
 Number of Electrons    NEL             ....  134
 Basis Dimension        Dim             ....  322

ORBITAL ENERGIES
----------------

  NO   OCC          E(Eh)            E(eV)
   0   2.0000     -88.964470     -2420.8463
   1   2.0000     -88.958397     -2420.6810
   2   2.0000     -10.320295      -280.8295
   3   2.0000     -10.320065      -280.8232
   4   2.0000     -10.319245      -280.8009
   5   2.0000     -10.316378      -280.7229
   6   2.0000     -10.301574      -280.3201
   7   2.0000     -10.300272      -280.2847
   8   2.0000     -10.300148      -280.2813
   9   2.0000     -10.299904      -280.2746
  10   2.0000     -10.292009      -280.0598
  11   2.0000     -10.289290      -279.9858
  12   2.0000     -10.285883      -279.8931
  13   2.0000     -10.283814      -279.8368
  14   2.0000     -10.281697      -279.7792
  15   2.0000     -10.275211      -279.6027
  16   2.0000      -8.080135      -219.8717
  17   2.0000      -8.072969      -219.6767
  18   2.0000      -6.038604      -164.3188
  19   2.0000      -6.034501      -164.2071
  20   2.0000      -6.031606      -164.1283
  21   2.0000      -6.030898      -164.1091
  22   2.0000      -6.027502      -164.0167
  23   2.0000      -6.023588      -163.9102
  24   2.0000      -1.011101       -27.5135
  25   2.0000      -0.985770       -26.8242
  26   2.0000      -0.916702       -24.9447
  27   2.0000      -0.896157       -24.3857
  28   2.0000      -0.869885       -23.6708
  29   2.0000      -0.843748       -22.9595
  30   2.0000      -0.840674       -22.8759
  31   2.0000      -0.816876       -22.2283
  32   2.0000      -0.787037       -21.4164
  33   2.0000      -0.775230       -21.0951
  34   2.0000      -0.705704       -19.2032
  35   2.0000      -0.700821       -19.0703
  36   2.0000      -0.696600       -18.9554
  37   2.0000      -0.655658       -17.8414
  38   2.0000      -0.645291       -17.5593
  39   2.0000      -0.622039       -16.9265
  40   2.0000      -0.595282       -16.1984
  41   2.0000      -0.580690       -15.8014
  42   2.0000      -0.549651       -14.9568
  43   2.0000      -0.546514       -14.8714
  44   2.0000      -0.541238       -14.7278
  45   2.0000      -0.537853       -14.6357
  46   2.0000      -0.522463       -14.2169
  47   2.0000      -0.508409       -13.8345
  48   2.0000      -0.501974       -13.6594
  49   2.0000      -0.498056       -13.5528
  50   2.0000      -0.488615       -13.2959
  51   2.0000      -0.480771       -13.0824
  52   2.0000      -0.471104       -12.8194
  53   2.0000      -0.460686       -12.5359
  54   2.0000      -0.459987       -12.5169
  55   2.0000      -0.441386       -12.0107
  56   2.0000      -0.439789       -11.9673
  57   2.0000      -0.437071       -11.8933
  58   2.0000      -0.432643       -11.7728
  59   2.0000      -0.429013       -11.6740
  60   2.0000      -0.424149       -11.5417
  61   2.0000      -0.418785       -11.3957
  62   2.0000      -0.412091       -11.2136
  63   2.0000      -0.333900        -9.0859
  64   2.0000      -0.327253        -8.9050
  65   2.0000      -0.324377        -8.8268
  66   2.0000      -0.309348        -8.4178
  67   0.0000       0.047599         1.2952
  68   0.0000       0.059044         1.6067
  69   0.0000       0.116980         3.1832
  70   0.0000       0.122863         3.3433
  71   0.0000       0.128631         3.5002

MULLIKEN ATOMIC CHARGES
-----------------------
   0 S :    0.121534
   1 C :   -0.146230
   2 C :   -0.109281
   3 C :    0.081984
   4 C :   -0.173230
   5 H :   -0.024608
   6 C :    0.156685
   7 H :    0.007531
   8 H :    0.003655
   9 C :   -0.104131
  10 H :    0.043820
  11 H :    0.037060
  12 C :   -0.086103
  13 H :    0.041686
  14 H :    0.026964
  15 H :    0.031529
  16 S :    0.094076
  17 C :   -0.109263
  18 C :   -0.041908
  19 C :    0.008208
  20 C :   -0.186873
  21 H :    0.008404
  22 C :    0.085511
  23 H :    0.034839
  24 H :    0.044549
  25 C :   -0.097902
  26 H :    0.033096
  27 H :    0.014891
  28 C :   -0.044592
  29 H :    0.044396
  30 H :    0.038258
  31 H :    0.026388
  32 H :    0.062549
  33 H :    0.076508
Sum of atomic charges:   -0.0000000

LOEWDIN ATOMIC CHARGES
----------------------
   0 S :    0.427350
   1 C :   -0.205042
   2 C :   -0.056247
   3 C :   -0.046053
   4 C :   -0.213139
   5 H :    0.016388
   6 C :   -0.028488
   7 H :    0.026045
   8 H :    0.024829
   9 C :   -0.035531
  10 H :    0.030368
  11 H :    0.025570
  12 C :   -0.077057
  13 H :    0.029548
  14 H :    0.025713
  15 H :    0.020029
  16 S :    0.381648
  17 C :   -0.180790
  18 C :   -0.076367
  19 C :   -0.056901
  20 C :   -0.195809
  21 H :    0.026761
  22 C :   -0.030234
  23 H :    0.034076
  24 H :    0.039676
  25 C :   -0.038692
  26 H :    0.024909
  27 H :    0.014901
  28 C :   -0.059078
  29 H :    0.026957
  30 H :    0.030607
  31 H :    0.014470
  32 H :    0.035960
  33 H :    0.043623

  Mayer bond orders larger than 0.100000
B(  0-S ,  1-C ) :   1.1388 B(  0-S ,  4-C ) :   1.1729 B(  1-C ,  2-C ) :   1.6060
B(  1-C , 32-H ) :   0.9645 B(  2-C ,  3-C ) :   1.2325 B(  2-C ,  6-C ) :   1.0485
B(  3-C ,  4-C ) :   1.5737 B(  3-C ,  5-H ) :   1.0146 B(  4-C , 20-C ) :   0.9965
B(  6-C ,  7-H ) :   0.9257 B(  6-C ,  8-H ) :   0.9350 B(  6-C ,  9-C ) :   1.0579
B(  9-C , 10-H ) :   0.9586 B(  9-C , 11-H ) :   0.9565 B(  9-C , 12-C ) :   1.0681
B( 12-C , 13-H ) :   0.9747 B( 12-C , 14-H ) :   0.9711 B( 12-C , 15-H ) :   0.9722
B( 16-S , 17-C ) :   1.1396 B( 16-S , 20-C ) :   1.1357 B( 17-C , 18-C ) :   1.6332
B( 17-C , 33-H ) :   0.9636 B( 18-C , 19-C ) :   1.2022 B( 18-C , 21-H ) :   0.9925
B( 19-C , 20-C ) :   1.6371 B( 19-C , 22-C ) :   1.0311 B( 22-C , 23-H ) :   0.9295
B( 22-C , 24-H ) :   0.9368 B( 22-C , 25-C ) :   1.0600 B( 25-C , 26-H ) :   0.9582
B( 25-C , 27-H ) :   0.9589 B( 25-C , 28-C ) :   1.0677 B( 28-C , 29-H ) :   0.9772
B( 28-C , 30-H ) :   0.9756 B( 28-C , 31-H ) :   0.9797

Dispersion correction           -0.015515728
FINAL SINGLE POINT ENERGY     -1339.873214821365

DIPOLE MOMENT
-------------
                                X             Y             Z
Electronic contribution:      5.80456      23.46791      15.15118
Nuclear contribution   :     -5.90533     -23.97175     -15.66605
                        -----------------------------------------
Total Dipole Moment    :     -0.10077      -0.50383      -0.51486
                        -----------------------------------------
Magnitude (a.u.)       :      0.72738
Magnitude (Debye)      :      1.84886

Rotational constants in cm-1:     0.018115     0.010039     0.007418
Rotational constants in MHz :   543.061890   300.964948   222.380875

                             ****ORCA TERMINATED NORMALLY****
TOTAL RUN TIME: 0 days 0 hours 0 minutes 34 seconds 306 msec
