                         Program Version 4.2.1 -  RELEASE  -
|  1> ! wB97X-D3 SP def2-SVP
|  2> %pal
|  3> nprocs 16
|  4> end
|  5>
|  6> * xyz 0 1
|  7> S 	 -51.4576 	 64.9504 	 128.204
|  8> C 	 -50.4978 	 63.9764 	 126.994
|  9> C 	 -49.9516 	 62.8238 	 127.554
| 10> C 	 -50.2172 	 62.7749 	 128.921
| 11> C 	 -50.8523 	 63.8658 	 129.464
| 12> H 	 -49.8629 	 62.0505 	 129.624
| 13> C 	 -49.1601 	 61.7161 	 126.823
| 14> H 	 -48.1083 	 61.8589 	 127.089
| 15> H 	 -49.1756 	 61.9198 	 125.72
| 16> C 	 -49.5325 	 60.2416 	 127.08
| 17> H 	 -49.3276 	 59.8491 	 128.05
| 18> H 	 -50.5195 	 60.1604 	 126.755
| 19> C 	 -48.6194 	 59.3264 	 126.187
| 20> H 	 -49.0529 	 58.2771 	 126.293
| 21> H 	 -48.6048 	 59.601 	 125.083
| 22> H 	 -47.5033 	 59.3433 	 126.511
| 23> S 	 -49.6089 	 64.5578 	 131.794
| 24> C 	 -50.6127 	 64.9647 	 133.217
| 25> C 	 -51.8951 	 64.5783 	 133.007
| 26> C 	 -52.1825 	 64.1978 	 131.653
| 27> C 	 -51.0699 	 64.0656 	 130.878
| 28> H 	 -52.5538 	 64.6443 	 133.822
| 29> C 	 -53.5681 	 63.9332 	 131.137
| 30> H 	 -53.8306 	 63.1382 	 131.787
| 31> H 	 -53.5044 	 63.5595 	 130.142
| 32> C 	 -54.584 	 65.0527 	 131.24
| 33> H 	 -54.4928 	 65.5624 	 132.17
| 34> H 	 -55.5969 	 64.5606 	 131.17
| 35> C 	 -54.3948 	 66.1824 	 130.284
| 36> H 	 -53.5285 	 66.774 	 130.439
| 37> H 	 -55.2575 	 66.843 	 130.244
| 38> H 	 -54.2578 	 65.7769 	 129.246
| 39> H 	 -50.2128 	 64.3557 	 126.021
| 40> H 	 -50.178 	 65.3227 	 134.108
| 41> *
| 42>
| 43>                          ****END OF INPUT****

CARTESIAN COORDINATES (ANGSTROEM)
---------------------------------
  S    -51.457600   64.950400  128.204000
  C    -50.497800   63.976400  126.994000
  C    -49.951600   62.823800  127.554000
  C    -50.217200   62.774900  128.921000
  C    -50.852300   63.865800  129.464000
  H    -49.862900   62.050500  129.624000
  C    -49.160100   61.716100  126.823000
  H    -48.108300   61.858900  127.089000
  H    -49.175600   61.919800  125.720000
  C    -49.532500   60.241600  127.080000
  H    -49.327600   59.849100  128.050000
  H    -50.519500   60.160400  126.755000
  C    -48.619400   59.326400  126.187000
  H    -49.052900   58.277100  126.293000
  H    -48.604800   59.601000  125.083000
  H    -47.503300   59.343300  126.511000
  S    -49.608900   64.557800  131.794000
  C    -50.612700   64.964700  133.217000
  C    -51.895100   64.578300  133.007000
  C    -52.182500   64.197800  131.653000
  C    -51.069900   64.065600  130.878000
  H    -52.553800   64.644300  133.822000
  C    -53.568100   63.933200  131.137000
  H    -53.830600   63.138200  131.787000
  H    -53.504400   63.559500  130.142000
  C    -54.584000   65.052700  131.240000
  H    -54.492800   65.562400  132.170000
  H    -55.596900   64.560600  131.170000
  C    -54.394800   66.182400  130.284000
  H    -53.528500   66.774000  130.439000
  H    -55.257500   66.843000  130.244000
  H    -54.257800   65.776900  129.246000
  H    -50.212800   64.355700  126.021000
  H    -50.178000   65.322700  134.108000

 Total Charge           Charge          ....    0
 Multiplicity           Mult            ....    1
 Number of Electrons    NEL             ....  134
 Basis Dimension        Dim             ....  322

ORBITAL ENERGIES
----------------

  NO   OCC          E(Eh)            E(eV)
   0   2.0000     -88.968426     -2420.9539
   1   2.0000     -88.957500     -2420.6566
   2   2.0000     -10.326707      -281.0040
   3   2.0000     -10.321227      -280.8549
   4   2.0000     -10.318794      -280.7887
   5   2.0000     -10.316553      -280.7277
   6   2.0000     -10.303275      -280.3664
   7   2.0000     -10.300547      -280.2921
   8   2.0000     -10.300092      -280.2797
   9   2.0000     -10.298012      -280.2231
  10   2.0000     -10.291053      -280.0338
  11   2.0000     -10.288102      -279.9535
  12   2.0000     -10.286649      -279.9139
  13   2.0000     -10.281813      -279.7824
  14   2.0000     -10.280689      -279.7518
  15   2.0000     -10.268628      -279.4236
  16   2.0000      -8.081289      -219.9031
  17   2.0000      -8.071616      -219.6398
  18   2.0000      -6.039929      -164.3548
  19   2.0000      -6.036187      -164.2530
  20   2.0000      -6.031897      -164.1363
  21   2.0000      -6.030310      -164.0931
  22   2.0000      -6.026293      -163.9838
  23   2.0000      -6.022131      -163.8705
  24   2.0000      -1.002193       -27.2711
  25   2.0000      -0.978550       -26.6277
  26   2.0000      -0.913938       -24.8695
  27   2.0000      -0.908408       -24.7190
  28   2.0000      -0.870794       -23.6955
  29   2.0000      -0.848519       -23.0894
  30   2.0000      -0.845321       -23.0024
  31   2.0000      -0.812649       -22.1133
  32   2.0000      -0.782628       -21.2964
  33   2.0000      -0.768642       -20.9158
  34   2.0000      -0.708860       -19.2890
  35   2.0000      -0.698682       -19.0121
  36   2.0000      -0.693546       -18.8723
  37   2.0000      -0.664305       -18.0767
  38   2.0000      -0.637231       -17.3399
  39   2.0000      -0.618489       -16.8299
  40   2.0000      -0.601563       -16.3694
  41   2.0000      -0.576235       -15.6801
  42   2.0000      -0.564656       -15.3651
  43   2.0000      -0.557344       -15.1661
  44   2.0000      -0.543379       -14.7861
  45   2.0000      -0.527794       -14.3620
  46   2.0000      -0.520826       -14.1724
  47   2.0000      -0.509031       -13.8514
  48   2.0000      -0.498375       -13.5615
  49   2.0000      -0.494431       -13.4542
  50   2.0000      -0.483506       -13.1569
  51   2.0000      -0.476801       -12.9744
  52   2.0000      -0.466973       -12.7070
  53   2.0000      -0.465005       -12.6534
  54   2.0000      -0.451833       -12.2950
  55   2.0000      -0.448354       -12.2003
  56   2.0000      -0.440246       -11.9797
  57   2.0000      -0.438290       -11.9265
  58   2.0000      -0.435603       -11.8533
  59   2.0000      -0.432238       -11.7618
  60   2.0000      -0.420527       -11.4431
  61   2.0000      -0.412056       -11.2126
  62   2.0000      -0.407588       -11.0910
  63   2.0000      -0.337778        -9.1914
  64   2.0000      -0.334900        -9.1131
  65   2.0000      -0.323326        -8.7981
  66   2.0000      -0.297170        -8.0864
  67   0.0000       0.036601         0.9960
  68   0.0000       0.054609         1.4860
  69   0.0000       0.097046         2.6407
  70   0.0000       0.114858         3.1255
  71   0.0000       0.132186         3.5970

MULLIKEN ATOMIC CHARGES
-----------------------
   0 S :    0.110032
   1 C :   -0.142142
   2 C :   -0.029680
   3 C :    0.022017
   4 C :   -0.153006
   5 H :    0.003300
   6 C :    0.037097
   7 H :    0.034550
   8 H :    0.022899
   9 C :   -0.022578
  10 H :    0.038743
  11 H :    0.031063
  12 C :   -0.139166
  13 H :    0.051777
  14 H :    0.042784
  15 H :    0.050068
  16 S :    0.076292
  17 C :   -0.082089
  18 C :   -0.001671
  19 C :   -0.057761
  20 C :   -0.173705
  21 H :    0.002598
  22 C :    0.110514
  23 H :    0.021534
  24 H :    0.016526
  25 C :   -0.056673
  26 H :    0.016334
  27 H :    0.038809
  28 C :   -0.049135
  29 H :    0.032662
  30 H :    0.033544
  31 H :    0.019397
  32 H :    0.049137
  33 H :    0.045930
Sum of atomic charges:   -0.0000000

LOEWDIN ATOMIC CHARGES
----------------------
   0 S :    0.375316
   1 C :   -0.176167
   2 C :   -0.060511
   3 C :   -0.061879
   4 C :   -0.186315
   5 H :    0.028711
   6 C :   -0.032851
   7 H :    0.032124
   8 H :    0.033338
   9 C :   -0.030454
  10 H :    0.025398
  11 H :    0.020801
  12 C :   -0.080201
  13 H :    0.033451
  14 H :    0.026316
  15 H :    0.033147
  16 S :    0.360702
  17 C :   -0.151003
  18 C :   -0.066338
  19 C :   -0.052678
  20 C :   -0.188094
  21 H :    0.024584
  22 C :   -0.025977
  23 H :    0.034059
  24 H :    0.024592
  25 C :   -0.041992
  26 H :    0.020173
  27 H :    0.033262
  28 C :   -0.067125
  29 H :    0.021422
  30 H :    0.027720
  31 H :    0.020184
  32 H :    0.025593
  33 H :    0.020688

  Mayer bond orders larger than 0.100000
B(  0-S ,  1-C ) :   1.1214 B(  0-S ,  4-C ) :   1.1226 B(  1-C ,  2-C ) :   1.6233
B(  1-C ,  4-C ) :   0.1013 B(  1-C , 32-H ) :   0.9641 B(  2-C ,  3-C ) :   1.2219
B(  2-C ,  6-C ) :   1.0125 B(  3-C ,  4-C ) :   1.6000 B(  3-C ,  5-H ) :   0.9952
B(  4-C , 20-C ) :   1.0381 B(  6-C ,  7-H ) :   0.9359 B(  6-C ,  8-H ) :   0.9465
B(  6-C ,  9-C ) :   1.0684 B(  9-C , 10-H ) :   0.9509 B(  9-C , 11-H ) :   0.9588
B(  9-C , 12-C ) :   1.0718 B( 12-C , 13-H ) :   0.9751 B( 12-C , 14-H ) :   0.9749
B( 12-C , 15-H ) :   0.9750 B( 16-S , 17-C ) :   1.1380 B( 16-S , 20-C ) :   1.1079
B( 17-C , 18-C ) :   1.6432 B( 17-C , 33-H ) :   0.9731 B( 18-C , 19-C ) :   1.1800
B( 18-C , 21-H ) :   0.9992 B( 19-C , 20-C ) :   1.6453 B( 19-C , 22-C ) :   1.0379
B( 22-C , 23-H ) :   0.9209 B( 22-C , 24-H ) :   0.9325 B( 22-C , 25-C ) :   1.0781
B( 25-C , 26-H ) :   0.9541 B( 25-C , 27-H ) :   0.9527 B( 25-C , 28-C ) :   1.0750
B( 28-C , 29-H ) :   0.9746 B( 28-C , 30-H ) :   0.9706 B( 28-C , 31-H ) :   0.9710

Dispersion correction           -0.014621381
FINAL SINGLE POINT ENERGY     -1339.866453139398

DIPOLE MOMENT
-------------
                                X             Y             Z
Electronic contribution:      5.97621      12.26034       9.26260
Nuclear contribution   :     -6.09279     -12.61148      -9.19526
                        -----------------------------------------
Total Dipole Moment    :     -0.11658      -0.35114       0.06733
                        -----------------------------------------
Magnitude (a.u.)       :      0.37607
Magnitude (Debye)      :      0.95589

Rotational constants in cm-1:     0.021738     0.007605     0.006633
Rotational constants in MHz :   651.689933   227.993197   198.860268

                             ****ORCA TERMINATED NORMALLY****
TOTAL RUN TIME: 0 days 0 hours 0 minutes 33 seconds 275 msec
