                         Program Version 4.2.1 -  RELEASE  -
|  1> ! wB97X-D3 SP def2-SVP
|  2> %pal
|  3> nprocs 16
|  4> end
|  5>
|  6> * xyz 0 1
|  7> S 	 -4.23111 	 73.865 	 55.5095
|  8> C 	 -4.03276 	 72.4369 	 56.5304
|  9> C 	 -2.86742 	 71.8128 	 56.1224
| 10> C 	 -2.20979 	 72.4052 	 55.0419
| 11> C 	 -2.8051 	 73.5303 	 54.5653
| 12> H 	 -1.23704 	 72.069 	 54.6784
| 13> C 	 -2.36567 	 70.5163 	 56.657
| 14> H 	 -2.96519 	 69.7704 	 56.1707
| 15> H 	 -2.76565 	 70.4862 	 57.6588
| 16> C 	 -0.84008 	 70.1122 	 56.6058
| 17> H 	 -0.487494 	 69.8669 	 55.5645
| 18> H 	 -0.239679 	 71.0177 	 56.7505
| 19> C 	 -0.324934 	 69.0246 	 57.5673
| 20> H 	 0.742035 	 68.9551 	 57.462
| 21> H 	 -0.553196 	 69.2716 	 58.6255
| 22> H 	 -0.651341 	 68.0172 	 57.2685
| 23> S 	 -3.57124 	 74.6846 	 52.1479
| 24> C 	 -2.41367 	 75.757 	 51.3133
| 25> C 	 -1.16577 	 75.504 	 51.8525
| 26> C 	 -1.12219 	 74.8055 	 53.0492
| 27> C 	 -2.38352 	 74.3909 	 53.4393
| 28> H 	 -0.280033 	 75.8954 	 51.2925
| 29> C 	 0.222059 	 74.5196 	 53.7882
| 30> H 	 0.909471 	 73.9794 	 53.1427
| 31> H 	 -0.025808 	 73.776 	 54.5507
| 32> C 	 0.839703 	 75.754 	 54.3896
| 33> H 	 0.135868 	 76.4809 	 54.7917
| 34> H 	 1.3473 	 76.3385 	 53.6131
| 35> C 	 1.9439 	 75.3748 	 55.3992
| 36> H 	 2.41694 	 76.268 	 55.7734
| 37> H 	 2.82162 	 74.8421 	 55.0345
| 38> H 	 1.59751 	 74.7694 	 56.2377
| 39> H 	 -4.60152 	 72.1962 	 57.4335
| 40> H 	 -2.53747 	 76.2562 	 50.363
| 41> *
| 42>
| 43>                          ****END OF INPUT****

CARTESIAN COORDINATES (ANGSTROEM)
---------------------------------
  S     -4.231110   73.865000   55.509500
  C     -4.032760   72.436900   56.530400
  C     -2.867420   71.812800   56.122400
  C     -2.209790   72.405200   55.041900
  C     -2.805100   73.530300   54.565300
  H     -1.237040   72.069000   54.678400
  C     -2.365670   70.516300   56.657000
  H     -2.965190   69.770400   56.170700
  H     -2.765650   70.486200   57.658800
  C     -0.840080   70.112200   56.605800
  H     -0.487494   69.866900   55.564500
  H     -0.239679   71.017700   56.750500
  C     -0.324934   69.024600   57.567300
  H      0.742035   68.955100   57.462000
  H     -0.553196   69.271600   58.625500
  H     -0.651341   68.017200   57.268500
  S     -3.571240   74.684600   52.147900
  C     -2.413670   75.757000   51.313300
  C     -1.165770   75.504000   51.852500
  C     -1.122190   74.805500   53.049200
  C     -2.383520   74.390900   53.439300
  H     -0.280033   75.895400   51.292500
  C      0.222059   74.519600   53.788200
  H      0.909471   73.979400   53.142700
  H     -0.025808   73.776000   54.550700
  C      0.839703   75.754000   54.389600
  H      0.135868   76.480900   54.791700
  H      1.347300   76.338500   53.613100
  C      1.943900   75.374800   55.399200
  H      2.416940   76.268000   55.773400
  H      2.821620   74.842100   55.034500
  H      1.597510   74.769400   56.237700
  H     -4.601520   72.196200   57.433500
  H     -2.537470   76.256200   50.363000

 Total Charge           Charge          ....    0
 Multiplicity           Mult            ....    1
 Number of Electrons    NEL             ....  134
 Basis Dimension        Dim             ....  322

ORBITAL ENERGIES
----------------

  NO   OCC          E(Eh)            E(eV)
   0   2.0000     -88.965917     -2420.8857
   1   2.0000     -88.965014     -2420.8611
   2   2.0000     -10.331180      -281.1257
   3   2.0000     -10.328870      -281.0628
   4   2.0000     -10.317748      -280.7602
   5   2.0000     -10.315355      -280.6951
   6   2.0000     -10.301434      -280.3163
   7   2.0000     -10.298704      -280.2420
   8   2.0000     -10.296798      -280.1901
   9   2.0000     -10.294080      -280.1161
  10   2.0000     -10.292650      -280.0772
  11   2.0000     -10.289047      -279.9792
  12   2.0000     -10.287143      -279.9274
  13   2.0000     -10.286808      -279.9183
  14   2.0000     -10.285926      -279.8943
  15   2.0000     -10.275658      -279.6149
  16   2.0000      -8.079529      -219.8552
  17   2.0000      -8.079410      -219.8519
  18   2.0000      -6.038093      -164.3049
  19   2.0000      -6.037915      -164.3000
  20   2.0000      -6.034385      -164.2040
  21   2.0000      -6.033836      -164.1890
  22   2.0000      -6.030305      -164.0929
  23   2.0000      -6.030081      -164.0869
  24   2.0000      -1.007747       -27.4222
  25   2.0000      -0.986015       -26.8308
  26   2.0000      -0.908866       -24.7315
  27   2.0000      -0.906874       -24.6773
  28   2.0000      -0.868401       -23.6304
  29   2.0000      -0.851291       -23.1648
  30   2.0000      -0.845121       -22.9969
  31   2.0000      -0.817307       -22.2401
  32   2.0000      -0.782981       -21.3060
  33   2.0000      -0.773171       -21.0391
  34   2.0000      -0.714324       -19.4378
  35   2.0000      -0.704021       -19.1574
  36   2.0000      -0.695491       -18.9253
  37   2.0000      -0.654864       -17.8198
  38   2.0000      -0.640123       -17.4186
  39   2.0000      -0.623395       -16.9634
  40   2.0000      -0.594994       -16.1906
  41   2.0000      -0.566192       -15.4069
  42   2.0000      -0.561802       -15.2874
  43   2.0000      -0.558020       -15.1845
  44   2.0000      -0.532525       -14.4908
  45   2.0000      -0.523210       -14.2373
  46   2.0000      -0.514851       -14.0098
  47   2.0000      -0.507850       -13.8193
  48   2.0000      -0.506904       -13.7936
  49   2.0000      -0.499339       -13.5877
  50   2.0000      -0.493212       -13.4210
  51   2.0000      -0.482963       -13.1421
  52   2.0000      -0.475708       -12.9447
  53   2.0000      -0.468903       -12.7595
  54   2.0000      -0.459982       -12.5168
  55   2.0000      -0.449807       -12.2399
  56   2.0000      -0.444837       -12.1046
  57   2.0000      -0.437780       -11.9126
  58   2.0000      -0.429619       -11.6905
  59   2.0000      -0.421341       -11.4653
  60   2.0000      -0.420664       -11.4469
  61   2.0000      -0.416213       -11.3257
  62   2.0000      -0.411980       -11.2105
  63   2.0000      -0.346017        -9.4156
  64   2.0000      -0.332254        -9.0411
  65   2.0000      -0.328119        -8.9286
  66   2.0000      -0.292822        -7.9681
  67   0.0000       0.025021         0.6808
  68   0.0000       0.069354         1.8872
  69   0.0000       0.103722         2.8224
  70   0.0000       0.123988         3.3739
  71   0.0000       0.135011         3.6738

MULLIKEN ATOMIC CHARGES
-----------------------
   0 S :    0.109490
   1 C :   -0.138598
   2 C :   -0.111285
   3 C :    0.027018
   4 C :   -0.145409
   5 H :    0.014506
   6 C :    0.101537
   7 H :    0.040030
   8 H :    0.003681
   9 C :   -0.119945
  10 H :    0.033896
  11 H :    0.025687
  12 C :   -0.028010
  13 H :    0.026938
  14 H :    0.044579
  15 H :    0.035506
  16 S :    0.098244
  17 C :   -0.087294
  18 C :   -0.071351
  19 C :   -0.022149
  20 C :   -0.153083
  21 H :    0.032688
  22 C :    0.097308
  23 H :    0.030012
  24 H :    0.002600
  25 C :   -0.059068
  26 H :    0.042886
  27 H :    0.023726
  28 C :   -0.051145
  29 H :    0.023087
  30 H :    0.021630
  31 H :    0.034669
  32 H :    0.059287
  33 H :    0.058334
Sum of atomic charges:    0.0000000

LOEWDIN ATOMIC CHARGES
----------------------
   0 S :    0.410155
   1 C :   -0.203835
   2 C :   -0.064917
   3 C :   -0.072461
   4 C :   -0.192313
   5 H :    0.030757
   6 C :   -0.035843
   7 H :    0.036302
   8 H :    0.027957
   9 C :   -0.050474
  10 H :    0.027307
  11 H :    0.022170
  12 C :   -0.063014
  13 H :    0.026954
  14 H :    0.030206
  15 H :    0.027189
  16 S :    0.384292
  17 C :   -0.179992
  18 C :   -0.074848
  19 C :   -0.060452
  20 C :   -0.183550
  21 H :    0.037277
  22 C :   -0.025793
  23 H :    0.032880
  24 H :    0.025917
  25 C :   -0.039866
  26 H :    0.030758
  27 H :    0.025692
  28 C :   -0.069171
  29 H :    0.024723
  30 H :    0.024618
  31 H :    0.024018
  32 H :    0.036131
  33 H :    0.031225

  Mayer bond orders larger than 0.100000
B(  0-S ,  1-C ) :   1.1328 B(  0-S ,  4-C ) :   1.1727 B(  1-C ,  2-C ) :   1.5817
B(  1-C ,  4-C ) :   0.1041 B(  1-C , 32-H ) :   0.9710 B(  2-C ,  3-C ) :   1.2795
B(  2-C ,  6-C ) :   1.0229 B(  3-C ,  4-C ) :   1.5493 B(  3-C ,  5-H ) :   0.9833
B(  4-C , 20-C ) :   1.0150 B(  6-C ,  7-H ) :   0.9304 B(  6-C ,  8-H ) :   0.9340
B(  6-C ,  9-C ) :   1.0469 B(  9-C , 10-H ) :   0.9460 B(  9-C , 11-H ) :   0.9620
B(  9-C , 12-C ) :   1.0920 B( 12-C , 13-H ) :   0.9705 B( 12-C , 14-H ) :   0.9742
B( 12-C , 15-H ) :   0.9752 B( 16-S , 17-C ) :   1.1340 B( 16-S , 20-C ) :   1.1567
B( 17-C , 18-C ) :   1.6089 B( 17-C , 20-C ) :   0.1129 B( 17-C , 33-H ) :   0.9683
B( 18-C , 19-C ) :   1.2602 B( 18-C , 21-H ) :   0.9783 B( 19-C , 20-C ) :   1.5864
B( 19-C , 22-C ) :   1.0272 B( 22-C , 23-H ) :   0.9335 B( 22-C , 24-H ) :   0.9323
B( 22-C , 25-C ) :   1.0630 B( 25-C , 26-H ) :   0.9588 B( 25-C , 27-H ) :   0.9490
B( 25-C , 28-C ) :   1.0858 B( 28-C , 29-H ) :   0.9724 B( 28-C , 30-H ) :   0.9727
B( 28-C , 31-H ) :   0.9770

Dispersion correction           -0.013680315
FINAL SINGLE POINT ENERGY     -1339.874641302420

DIPOLE MOMENT
-------------
                                X             Y             Z
Electronic contribution:    -26.43713      11.64621     -13.53894
Nuclear contribution   :     27.24953     -12.00953      13.66546
                        -----------------------------------------
Total Dipole Moment    :      0.81239      -0.36332       0.12652
                        -----------------------------------------
Magnitude (a.u.)       :      0.89888
Magnitude (Debye)      :      2.28478

Rotational constants in cm-1:     0.016278     0.009021     0.006656
Rotational constants in MHz :   488.007744   270.429760   199.550660

                             ****ORCA TERMINATED NORMALLY****
TOTAL RUN TIME: 0 days 0 hours 0 minutes 31 seconds 567 msec
