                         Program Version 4.2.1 -  RELEASE  -
|  1> ! wB97X-D3 SP def2-SVP
|  2> %pal
|  3> nprocs 16
|  4> end
|  5>
|  6> * xyz 0 1
|  7> S 	 39.5414 	 26.0083 	 95.0264
|  8> C 	 38.7388 	 27.2433 	 94.0545
|  9> C 	 38.3081 	 26.7302 	 92.8381
| 10> C 	 38.7059 	 25.3672 	 92.6642
| 11> C 	 39.4408 	 24.8153 	 93.7002
| 12> H 	 38.3958 	 24.7157 	 91.8414
| 13> C 	 37.4297 	 27.4515 	 91.8251
| 14> H 	 37.0066 	 28.3955 	 92.2063
| 15> H 	 36.5927 	 26.7118 	 91.6383
| 16> C 	 38.0985 	 27.7488 	 90.516
| 17> H 	 38.5092 	 26.8255 	 90.212
| 18> H 	 37.3905 	 27.9616 	 89.6412
| 19> C 	 39.1543 	 28.9303 	 90.5435
| 20> H 	 38.6753 	 29.8594 	 90.9079
| 21> H 	 40.0108 	 28.6912 	 91.1703
| 22> H 	 39.5338 	 29.1262 	 89.4847
| 23> S 	 38.9987 	 22.3269 	 94.929
| 24> C 	 39.991 	 20.9494 	 94.5627
| 25> C 	 40.6763 	 21.1831 	 93.3939
| 26> C 	 40.6753 	 22.5911 	 93.0136
| 27> C 	 39.8575 	 23.3806 	 93.8258
| 28> H 	 41.1938 	 20.3892 	 92.8504
| 29> C 	 41.4288 	 23.0632 	 91.8374
| 30> H 	 41.1672 	 24.0973 	 91.602
| 31> H 	 41.0942 	 22.6357 	 90.9022
| 32> C 	 42.8946 	 22.9323 	 91.9903
| 33> H 	 43.2097 	 21.9575 	 92.2298
| 34> H 	 43.2948 	 23.5277 	 92.8307
| 35> C 	 43.5521 	 23.454 	 90.7616
| 36> H 	 43.2896 	 24.4842 	 90.6123
| 37> H 	 43.3282 	 22.921 	 89.8476
| 38> H 	 44.6252 	 23.3789 	 90.8913
| 39> H 	 38.6117 	 28.2016 	 94.3369
| 40> H 	 39.9242 	 19.9756 	 95.0282
| 41> *
| 42>
| 43>                          ****END OF INPUT****

CARTESIAN COORDINATES (ANGSTROEM)
---------------------------------
  S     39.541400   26.008300   95.026400
  C     38.738800   27.243300   94.054500
  C     38.308100   26.730200   92.838100
  C     38.705900   25.367200   92.664200
  C     39.440800   24.815300   93.700200
  H     38.395800   24.715700   91.841400
  C     37.429700   27.451500   91.825100
  H     37.006600   28.395500   92.206300
  H     36.592700   26.711800   91.638300
  C     38.098500   27.748800   90.516000
  H     38.509200   26.825500   90.212000
  H     37.390500   27.961600   89.641200
  C     39.154300   28.930300   90.543500
  H     38.675300   29.859400   90.907900
  H     40.010800   28.691200   91.170300
  H     39.533800   29.126200   89.484700
  S     38.998700   22.326900   94.929000
  C     39.991000   20.949400   94.562700
  C     40.676300   21.183100   93.393900
  C     40.675300   22.591100   93.013600
  C     39.857500   23.380600   93.825800
  H     41.193800   20.389200   92.850400
  C     41.428800   23.063200   91.837400
  H     41.167200   24.097300   91.602000
  H     41.094200   22.635700   90.902200
  C     42.894600   22.932300   91.990300
  H     43.209700   21.957500   92.229800
  H     43.294800   23.527700   92.830700
  C     43.552100   23.454000   90.761600
  H     43.289600   24.484200   90.612300
  H     43.328200   22.921000   89.847600
  H     44.625200   23.378900   90.891300
  H     38.611700   28.201600   94.336900
  H     39.924200   19.975600   95.028200

 Total Charge           Charge          ....    0
 Multiplicity           Mult            ....    1
 Number of Electrons    NEL             ....  134
 Basis Dimension        Dim             ....  322

ORBITAL ENERGIES
----------------

  NO   OCC          E(Eh)            E(eV)
   0   2.0000     -88.967772     -2420.9361
   1   2.0000     -88.961801     -2420.7737
   2   2.0000     -10.337744      -281.3043
   3   2.0000     -10.330172      -281.0983
   4   2.0000     -10.317294      -280.7478
   5   2.0000     -10.313087      -280.6334
   6   2.0000     -10.305438      -280.4252
   7   2.0000     -10.303161      -280.3633
   8   2.0000     -10.299674      -280.2684
   9   2.0000     -10.299275      -280.2575
  10   2.0000     -10.295847      -280.1642
  11   2.0000     -10.289856      -280.0012
  12   2.0000     -10.287696      -279.9424
  13   2.0000     -10.279782      -279.7271
  14   2.0000     -10.272956      -279.5414
  15   2.0000     -10.267610      -279.3959
  16   2.0000      -8.081591      -219.9113
  17   2.0000      -8.076911      -219.7839
  18   2.0000      -6.040200      -164.3622
  19   2.0000      -6.036166      -164.2524
  20   2.0000      -6.035553      -164.2357
  21   2.0000      -6.032353      -164.1487
  22   2.0000      -6.031368      -164.1219
  23   2.0000      -6.027489      -164.0163
  24   2.0000      -1.002575       -27.2815
  25   2.0000      -0.983676       -26.7672
  26   2.0000      -0.923308       -25.1245
  27   2.0000      -0.911030       -24.7904
  28   2.0000      -0.866976       -23.5916
  29   2.0000      -0.850654       -23.1475
  30   2.0000      -0.841385       -22.8952
  31   2.0000      -0.815850       -22.2004
  32   2.0000      -0.780639       -21.2423
  33   2.0000      -0.772198       -21.0126
  34   2.0000      -0.706554       -19.2263
  35   2.0000      -0.702088       -19.1048
  36   2.0000      -0.696045       -18.9403
  37   2.0000      -0.656928       -17.8759
  38   2.0000      -0.645642       -17.5688
  39   2.0000      -0.623439       -16.9646
  40   2.0000      -0.604322       -16.4444
  41   2.0000      -0.570550       -15.5255
  42   2.0000      -0.566034       -15.4026
  43   2.0000      -0.548478       -14.9248
  44   2.0000      -0.538680       -14.6582
  45   2.0000      -0.533267       -14.5109
  46   2.0000      -0.517593       -14.0844
  47   2.0000      -0.511451       -13.9173
  48   2.0000      -0.509833       -13.8733
  49   2.0000      -0.501481       -13.6460
  50   2.0000      -0.486228       -13.2309
  51   2.0000      -0.477073       -12.9818
  52   2.0000      -0.470005       -12.7895
  53   2.0000      -0.466936       -12.7060
  54   2.0000      -0.459163       -12.4945
  55   2.0000      -0.446688       -12.1550
  56   2.0000      -0.442648       -12.0451
  57   2.0000      -0.440611       -11.9896
  58   2.0000      -0.435363       -11.8468
  59   2.0000      -0.428126       -11.6499
  60   2.0000      -0.418737       -11.3944
  61   2.0000      -0.410338       -11.1659
  62   2.0000      -0.408896       -11.1266
  63   2.0000      -0.341556        -9.2942
  64   2.0000      -0.329321        -8.9613
  65   2.0000      -0.322776        -8.7832
  66   2.0000      -0.304071        -8.2742
  67   0.0000       0.032065         0.8725
  68   0.0000       0.063276         1.7218
  69   0.0000       0.108601         2.9552
  70   0.0000       0.113990         3.1018
  71   0.0000       0.130859         3.5608

MULLIKEN ATOMIC CHARGES
-----------------------
   0 S :    0.107419
   1 C :   -0.069291
   2 C :   -0.088900
   3 C :    0.036393
   4 C :   -0.173293
   5 H :    0.026044
   6 C :    0.062169
   7 H :    0.022657
   8 H :    0.046922
   9 C :   -0.074193
  10 H :    0.006896
  11 H :    0.036010
  12 C :   -0.078859
  13 H :    0.034687
  14 H :    0.045380
  15 H :    0.045638
  16 S :    0.102199
  17 C :   -0.089850
  18 C :   -0.029839
  19 C :   -0.043119
  20 C :   -0.138451
  21 H :    0.028116
  22 C :    0.076953
  23 H :    0.001562
  24 H :    0.015123
  25 C :   -0.059754
  26 H :    0.009971
  27 H :    0.028987
  28 C :   -0.018022
  29 H :    0.022564
  30 H :    0.019653
  31 H :    0.025473
  32 H :    0.001660
  33 H :    0.061095
Sum of atomic charges:    0.0000000

LOEWDIN ATOMIC CHARGES
----------------------
   0 S :    0.390385
   1 C :   -0.167143
   2 C :   -0.063486
   3 C :   -0.059282
   4 C :   -0.186875
   5 H :    0.034895
   6 C :   -0.033981
   7 H :    0.027990
   8 H :    0.044234
   9 C :   -0.048764
  10 H :    0.012890
  11 H :    0.031496
  12 C :   -0.070455
  13 H :    0.025185
  14 H :    0.024610
  15 H :    0.034558
  16 S :    0.407017
  17 C :   -0.185616
  18 C :   -0.071448
  19 C :   -0.050912
  20 C :   -0.204519
  21 H :    0.032855
  22 C :   -0.040577
  23 H :    0.029734
  24 H :    0.031059
  25 C :   -0.037515
  26 H :    0.014095
  27 H :    0.032485
  28 C :   -0.058892
  29 H :    0.023133
  30 H :    0.020445
  31 H :    0.025343
  32 H :    0.004968
  33 H :    0.032089

  Mayer bond orders larger than 0.100000
B(  0-S ,  1-C ) :   1.1422 B(  0-S ,  4-C ) :   1.1423 B(  1-C ,  2-C ) :   1.6025
B(  1-C , 32-H ) :   0.9847 B(  2-C ,  3-C ) :   1.2354 B(  2-C ,  6-C ) :   1.0189
B(  3-C ,  4-C ) :   1.5874 B(  3-C ,  5-H ) :   0.9845 B(  4-C , 20-C ) :   1.0165
B(  6-C ,  7-H ) :   0.9474 B(  6-C ,  8-H ) :   0.9367 B(  6-C ,  9-C ) :   1.0718
B(  9-C , 10-H ) :   0.9545 B(  9-C , 11-H ) :   0.9559 B(  9-C , 12-C ) :   1.0622
B( 12-C , 13-H ) :   0.9762 B( 12-C , 14-H ) :   0.9786 B( 12-C , 15-H ) :   0.9763
B( 16-S , 17-C ) :   1.1598 B( 16-S , 20-C ) :   1.1390 B( 17-C , 18-C ) :   1.6010
B( 17-C , 33-H ) :   0.9692 B( 18-C , 19-C ) :   1.2356 B( 18-C , 21-H ) :   0.9873
B( 19-C , 20-C ) :   1.5982 B( 19-C , 22-C ) :   1.0574 B( 22-C , 23-H ) :   0.9218
B( 22-C , 24-H ) :   0.9286 B( 22-C , 25-C ) :   1.0689 B( 25-C , 26-H ) :   0.9546
B( 25-C , 27-H ) :   0.9448 B( 25-C , 28-C ) :   1.0984 B( 28-C , 29-H ) :   0.9706
B( 28-C , 30-H ) :   0.9708 B( 28-C , 31-H ) :   0.9706

Dispersion correction           -0.013957029
FINAL SINGLE POINT ENERGY     -1339.877975162620

DIPOLE MOMENT
-------------
                                X             Y             Z
Electronic contribution:     -9.14409     -10.37373      25.14691
Nuclear contribution   :      9.12884      10.34889     -25.83972
                        -----------------------------------------
Total Dipole Moment    :     -0.01526      -0.02485      -0.69282
                        -----------------------------------------
Magnitude (a.u.)       :      0.69343
Magnitude (Debye)      :      1.76256

Rotational constants in cm-1:     0.017507     0.008742     0.006728
Rotational constants in MHz :   524.843589   262.078651   201.701829

                             ****ORCA TERMINATED NORMALLY****
TOTAL RUN TIME: 0 days 0 hours 0 minutes 29 seconds 817 msec
