                         Program Version 4.2.1 -  RELEASE  -
|  1> ! wB97X-D3 SP def2-SVP
|  2> %pal
|  3> nprocs 16
|  4> end
|  5>
|  6> * xyz 0 1
|  7> S 	 -2.06665 	 -21.1641 	 66.6391
|  8> C 	 -1.41124 	 -21.4648 	 65.0179
|  9> C 	 -1.80395 	 -20.559 	 64.0318
| 10> C 	 -2.47393 	 -19.4675 	 64.6732
| 11> C 	 -2.70388 	 -19.658 	 66.0346
| 12> H 	 -2.95106 	 -18.6579 	 64.2387
| 13> C 	 -1.50512 	 -20.4919 	 62.6004
| 14> H 	 -0.815788 	 -21.2875 	 62.4461
| 15> H 	 -1.04385 	 -19.4883 	 62.3746
| 16> C 	 -2.64589 	 -20.7072 	 61.6553
| 17> H 	 -2.16327 	 -20.8855 	 60.7071
| 18> H 	 -3.20854 	 -21.6393 	 61.7442
| 19> C 	 -3.58221 	 -19.566 	 61.433
| 20> H 	 -2.96058 	 -18.7329 	 61.1261
| 21> H 	 -4.31738 	 -19.6985 	 60.6408
| 22> H 	 -4.05437 	 -19.1908 	 62.2942
| 23> S 	 -4.92498 	 -19.3148 	 67.691
| 24> C 	 -5.21138 	 -17.7377 	 68.3743
| 25> C 	 -4.23315 	 -16.863 	 68.1
| 26> C 	 -3.18733 	 -17.4223 	 67.331
| 27> C 	 -3.4657 	 -18.7596 	 66.94
| 28> H 	 -4.35273 	 -15.8363 	 68.3848
| 29> C 	 -1.98809 	 -16.6292 	 66.8352
| 30> H 	 -2.34978 	 -15.7882 	 66.2348
| 31> H 	 -1.49836 	 -17.2288 	 66.0537
| 32> C 	 -1.0381 	 -16.2982 	 68.0218
| 33> H 	 -0.83362 	 -17.2786 	 68.446
| 34> H 	 -1.62529 	 -15.8391 	 68.8821
| 35> C 	 0.280509 	 -15.5563 	 67.7275
| 36> H 	 0.19765 	 -14.7122 	 67.0339
| 37> H 	 0.834872 	 -16.3467 	 67.2586
| 38> H 	 0.881136 	 -15.3884 	 68.6837
| 39> H 	 -0.753263 	 -22.2913 	 64.7602
| 40> H 	 -6.08658 	 -17.3807 	 68.974
| 41> *
| 42>
| 43>                          ****END OF INPUT****

CARTESIAN COORDINATES (ANGSTROEM)
---------------------------------
  S     -2.066650  -21.164100   66.639100
  C     -1.411240  -21.464800   65.017900
  C     -1.803950  -20.559000   64.031800
  C     -2.473930  -19.467500   64.673200
  C     -2.703880  -19.658000   66.034600
  H     -2.951060  -18.657900   64.238700
  C     -1.505120  -20.491900   62.600400
  H     -0.815788  -21.287500   62.446100
  H     -1.043850  -19.488300   62.374600
  C     -2.645890  -20.707200   61.655300
  H     -2.163270  -20.885500   60.707100
  H     -3.208540  -21.639300   61.744200
  C     -3.582210  -19.566000   61.433000
  H     -2.960580  -18.732900   61.126100
  H     -4.317380  -19.698500   60.640800
  H     -4.054370  -19.190800   62.294200
  S     -4.924980  -19.314800   67.691000
  C     -5.211380  -17.737700   68.374300
  C     -4.233150  -16.863000   68.100000
  C     -3.187330  -17.422300   67.331000
  C     -3.465700  -18.759600   66.940000
  H     -4.352730  -15.836300   68.384800
  C     -1.988090  -16.629200   66.835200
  H     -2.349780  -15.788200   66.234800
  H     -1.498360  -17.228800   66.053700
  C     -1.038100  -16.298200   68.021800
  H     -0.833620  -17.278600   68.446000
  H     -1.625290  -15.839100   68.882100
  C      0.280509  -15.556300   67.727500
  H      0.197650  -14.712200   67.033900
  H      0.834872  -16.346700   67.258600
  H      0.881136  -15.388400   68.683700
  H     -0.753263  -22.291300   64.760200
  H     -6.086580  -17.380700   68.974000

 Total Charge           Charge          ....    0
 Multiplicity           Mult            ....    1
 Number of Electrons    NEL             ....  134
 Basis Dimension        Dim             ....  322

ORBITAL ENERGIES
----------------

  NO   OCC          E(Eh)            E(eV)
   0   2.0000     -88.970504     -2421.0105
   1   2.0000     -88.965781     -2420.8820
   2   2.0000     -10.330011      -281.0939
   3   2.0000     -10.326381      -280.9951
   4   2.0000     -10.316956      -280.7387
   5   2.0000     -10.312824      -280.6262
   6   2.0000     -10.301631      -280.3216
   7   2.0000     -10.300139      -280.2810
   8   2.0000     -10.292831      -280.0822
   9   2.0000     -10.289836      -280.0007
  10   2.0000     -10.288456      -279.9631
  11   2.0000     -10.288166      -279.9552
  12   2.0000     -10.284716      -279.8613
  13   2.0000     -10.281868      -279.7838
  14   2.0000     -10.281423      -279.7717
  15   2.0000     -10.270631      -279.4781
  16   2.0000      -8.084781      -219.9981
  17   2.0000      -8.080842      -219.8909
  18   2.0000      -6.043201      -164.4439
  19   2.0000      -6.039496      -164.3430
  20   2.0000      -6.039310      -164.3380
  21   2.0000      -6.035522      -164.2349
  22   2.0000      -6.035265      -164.2279
  23   2.0000      -6.031669      -164.1300
  24   2.0000      -1.005651       -27.3652
  25   2.0000      -0.985170       -26.8078
  26   2.0000      -0.925863       -25.1940
  27   2.0000      -0.901341       -24.5267
  28   2.0000      -0.870582       -23.6898
  29   2.0000      -0.851982       -23.1836
  30   2.0000      -0.846865       -23.0444
  31   2.0000      -0.818179       -22.2638
  32   2.0000      -0.789562       -21.4851
  33   2.0000      -0.767414       -20.8824
  34   2.0000      -0.708659       -19.2836
  35   2.0000      -0.698864       -19.0171
  36   2.0000      -0.692307       -18.8386
  37   2.0000      -0.653240       -17.7756
  38   2.0000      -0.642764       -17.4905
  39   2.0000      -0.620126       -16.8745
  40   2.0000      -0.591640       -16.0993
  41   2.0000      -0.580316       -15.7912
  42   2.0000      -0.556481       -15.1426
  43   2.0000      -0.549091       -14.9415
  44   2.0000      -0.545247       -14.8369
  45   2.0000      -0.523832       -14.2542
  46   2.0000      -0.520953       -14.1758
  47   2.0000      -0.506556       -13.7841
  48   2.0000      -0.505274       -13.7492
  49   2.0000      -0.494820       -13.4647
  50   2.0000      -0.488491       -13.2925
  51   2.0000      -0.483370       -13.1532
  52   2.0000      -0.469979       -12.7888
  53   2.0000      -0.465892       -12.6776
  54   2.0000      -0.453971       -12.3532
  55   2.0000      -0.449921       -12.2430
  56   2.0000      -0.445869       -12.1327
  57   2.0000      -0.441904       -12.0248
  58   2.0000      -0.435891       -11.8612
  59   2.0000      -0.432437       -11.7672
  60   2.0000      -0.419771       -11.4225
  61   2.0000      -0.411457       -11.1963
  62   2.0000      -0.403669       -10.9844
  63   2.0000      -0.342849        -9.3294
  64   2.0000      -0.332719        -9.0537
  65   2.0000      -0.327439        -8.9101
  66   2.0000      -0.294088        -8.0025
  67   0.0000       0.038879         1.0579
  68   0.0000       0.063826         1.7368
  69   0.0000       0.110914         3.0181
  70   0.0000       0.114938         3.1276
  71   0.0000       0.132593         3.6080

MULLIKEN ATOMIC CHARGES
-----------------------
   0 S :    0.124391
   1 C :   -0.122940
   2 C :   -0.075159
   3 C :    0.057763
   4 C :   -0.172997
   5 H :   -0.015544
   6 C :    0.082888
   7 H :    0.003268
   8 H :    0.043849
   9 C :   -0.050604
  10 H :    0.016000
  11 H :    0.024674
  12 C :   -0.020834
  13 H :    0.004620
  14 H :    0.036716
  15 H :    0.023548
  16 S :    0.117701
  17 C :   -0.101205
  18 C :   -0.027268
  19 C :   -0.052465
  20 C :   -0.177636
  21 H :    0.014749
  22 C :    0.091586
  23 H :    0.026724
  24 H :    0.015372
  25 C :   -0.121137
  26 H :    0.027443
  27 H :    0.031349
  28 C :   -0.025011
  29 H :    0.044367
  30 H :    0.023432
  31 H :    0.048119
  32 H :    0.039291
  33 H :    0.064951
Sum of atomic charges:   -0.0000000

LOEWDIN ATOMIC CHARGES
----------------------
   0 S :    0.402773
   1 C :   -0.192178
   2 C :   -0.058826
   3 C :   -0.053566
   4 C :   -0.191861
   5 H :    0.017414
   6 C :   -0.030325
   7 H :    0.029438
   8 H :    0.043413
   9 C :   -0.041866
  10 H :    0.026593
  11 H :    0.026674
  12 C :   -0.062529
  13 H :    0.022870
  14 H :    0.030574
  15 H :    0.015964
  16 S :    0.414558
  17 C :   -0.195733
  18 C :   -0.075207
  19 C :   -0.052871
  20 C :   -0.214739
  21 H :    0.032485
  22 C :   -0.035522
  23 H :    0.027625
  24 H :    0.028695
  25 C :   -0.048974
  26 H :    0.026718
  27 H :    0.023360
  28 C :   -0.073251
  29 H :    0.026772
  30 H :    0.025557
  31 H :    0.039688
  32 H :    0.024164
  33 H :    0.042112

  Mayer bond orders larger than 0.100000
B(  0-S ,  1-C ) :   1.1320 B(  0-S ,  4-C ) :   1.1514 B(  1-C ,  2-C ) :   1.6302
B(  1-C , 32-H ) :   0.9602 B(  2-C ,  3-C ) :   1.2108 B(  2-C ,  6-C ) :   1.0358
B(  3-C ,  4-C ) :   1.6000 B(  3-C ,  5-H ) :   0.9953 B(  4-C , 20-C ) :   1.0148
B(  6-C ,  7-H ) :   0.9194 B(  6-C ,  8-H ) :   0.9365 B(  6-C ,  9-C ) :   1.0883
B(  9-C , 10-H ) :   0.9480 B(  9-C , 11-H ) :   0.9476 B(  9-C , 12-C ) :   1.0869
B( 12-C , 13-H ) :   0.9677 B( 12-C , 14-H ) :   0.9687 B( 12-C , 15-H ) :   0.9725
B( 16-S , 17-C ) :   1.1474 B( 16-S , 20-C ) :   1.1539 B( 17-C , 18-C ) :   1.6335
B( 17-C , 33-H ) :   0.9558 B( 18-C , 19-C ) :   1.2461 B( 18-C , 21-H ) :   0.9903
B( 19-C , 20-C ) :   1.5750 B( 19-C , 22-C ) :   1.0461 B( 22-C , 23-H ) :   0.9356
B( 22-C , 24-H ) :   0.9300 B( 22-C , 25-C ) :   1.0374 B( 25-C , 26-H ) :   0.9548
B( 25-C , 27-H ) :   0.9633 B( 25-C , 28-C ) :   1.0687 B( 28-C , 29-H ) :   0.9763
B( 28-C , 30-H ) :   0.9736 B( 28-C , 31-H ) :   0.9716

Dispersion correction           -0.014163023
FINAL SINGLE POINT ENERGY     -1339.871469235087

DIPOLE MOMENT
-------------
                                X             Y             Z
Electronic contribution:    -11.02452     -13.66697      15.77558
Nuclear contribution   :     11.19987      13.99509     -16.29202
                        -----------------------------------------
Total Dipole Moment    :      0.17535       0.32812      -0.51643
                        -----------------------------------------
Magnitude (a.u.)       :      0.63649
Magnitude (Debye)      :      1.61782

Rotational constants in cm-1:     0.016983     0.008450     0.007462
Rotational constants in MHz :   509.125098   253.310087   223.693833

                             ****ORCA TERMINATED NORMALLY****
TOTAL RUN TIME: 0 days 0 hours 0 minutes 34 seconds 454 msec
