                         Program Version 4.2.1 -  RELEASE  -
|  1> ! wB97X-D3 SP def2-SVP
|  2> %pal
|  3> nprocs 16
|  4> end
|  5>
|  6> * xyz 0 1
|  7> S 	 -37.0659 	 67.6055 	 147.341
|  8> C 	 -38.4045 	 68.6762 	 147.185
|  9> C 	 -38.1896 	 69.4873 	 146.031
| 10> C 	 -36.9534 	 69.2147 	 145.319
| 11> C 	 -36.2544 	 68.131 	 145.866
| 12> H 	 -36.536 	 69.846 	 144.566
| 13> C 	 -39.2529 	 70.4218 	 145.475
| 14> H 	 -38.775 	 71.0646 	 144.685
| 15> H 	 -39.3539 	 71.1177 	 146.253
| 16> C 	 -40.5877 	 69.7533 	 145.071
| 17> H 	 -41.1414 	 69.4517 	 145.948
| 18> H 	 -41.3106 	 70.4098 	 144.529
| 19> C 	 -40.1964 	 68.6546 	 144.085
| 20> H 	 -39.4141 	 68.9994 	 143.383
| 21> H 	 -39.978 	 67.7381 	 144.649
| 22> H 	 -41.2014 	 68.4857 	 143.61
| 23> S 	 -33.5931 	 68.2215 	 146.501
| 24> C 	 -32.5188 	 67.2714 	 145.524
| 25> C 	 -33.061 	 66.5135 	 144.532
| 26> C 	 -34.4116 	 66.8974 	 144.433
| 27> C 	 -34.9083 	 67.7214 	 145.477
| 28> H 	 -32.3025 	 65.8538 	 143.962
| 29> C 	 -35.2792 	 66.1965 	 143.377
| 30> H 	 -36.323 	 66.5644 	 143.444
| 31> H 	 -35.2098 	 65.1308 	 143.614
| 32> C 	 -34.7905 	 66.2932 	 141.9
| 33> H 	 -35.2328 	 65.4504 	 141.357
| 34> H 	 -33.7704 	 66.0882 	 141.79
| 35> C 	 -35.0707 	 67.6719 	 141.298
| 36> H 	 -34.5256 	 68.5069 	 141.684
| 37> H 	 -36.1244 	 67.8285 	 141.3
| 38> H 	 -34.8226 	 67.5995 	 140.263
| 39> H 	 -39.2953 	 68.8314 	 147.788
| 40> H 	 -31.4509 	 67.3629 	 145.798
| 41> *
| 42>
| 43>                          ****END OF INPUT****

CARTESIAN COORDINATES (ANGSTROEM)
---------------------------------
  S    -37.065900   67.605500  147.341000
  C    -38.404500   68.676200  147.185000
  C    -38.189600   69.487300  146.031000
  C    -36.953400   69.214700  145.319000
  C    -36.254400   68.131000  145.866000
  H    -36.536000   69.846000  144.566000
  C    -39.252900   70.421800  145.475000
  H    -38.775000   71.064600  144.685000
  H    -39.353900   71.117700  146.253000
  C    -40.587700   69.753300  145.071000
  H    -41.141400   69.451700  145.948000
  H    -41.310600   70.409800  144.529000
  C    -40.196400   68.654600  144.085000
  H    -39.414100   68.999400  143.383000
  H    -39.978000   67.738100  144.649000
  H    -41.201400   68.485700  143.610000
  S    -33.593100   68.221500  146.501000
  C    -32.518800   67.271400  145.524000
  C    -33.061000   66.513500  144.532000
  C    -34.411600   66.897400  144.433000
  C    -34.908300   67.721400  145.477000
  H    -32.302500   65.853800  143.962000
  C    -35.279200   66.196500  143.377000
  H    -36.323000   66.564400  143.444000
  H    -35.209800   65.130800  143.614000
  C    -34.790500   66.293200  141.900000
  H    -35.232800   65.450400  141.357000
  H    -33.770400   66.088200  141.790000
  C    -35.070700   67.671900  141.298000
  H    -34.525600   68.506900  141.684000
  H    -36.124400   67.828500  141.300000
  H    -34.822600   67.599500  140.263000
  H    -39.295300   68.831400  147.788000
  H    -31.450900   67.362900  145.798000

 Total Charge           Charge          ....    0
 Multiplicity           Mult            ....    1
 Number of Electrons    NEL             ....  134
 Basis Dimension        Dim             ....  322

ORBITAL ENERGIES
----------------

  NO   OCC          E(Eh)            E(eV)
   0   2.0000     -88.968309     -2420.9508
   1   2.0000     -88.963728     -2420.8261
   2   2.0000     -10.330614      -281.1103
   3   2.0000     -10.325035      -280.9585
   4   2.0000     -10.316575      -280.7283
   5   2.0000     -10.316458      -280.7251
   6   2.0000     -10.308543      -280.5097
   7   2.0000     -10.302553      -280.3467
   8   2.0000     -10.300108      -280.2802
   9   2.0000     -10.294965      -280.1402
  10   2.0000     -10.288481      -279.9638
  11   2.0000     -10.287885      -279.9476
  12   2.0000     -10.286166      -279.9008
  13   2.0000     -10.280674      -279.7514
  14   2.0000     -10.276723      -279.6438
  15   2.0000     -10.266199      -279.3575
  16   2.0000      -8.082598      -219.9387
  17   2.0000      -8.079390      -219.8514
  18   2.0000      -6.041183      -164.3890
  19   2.0000      -6.037639      -164.2925
  20   2.0000      -6.036859      -164.2713
  21   2.0000      -6.033817      -164.1885
  22   2.0000      -6.033592      -164.1824
  23   2.0000      -6.030318      -164.0933
  24   2.0000      -1.005624       -27.3644
  25   2.0000      -0.983065       -26.7506
  26   2.0000      -0.910426       -24.7739
  27   2.0000      -0.903968       -24.5982
  28   2.0000      -0.869065       -23.6485
  29   2.0000      -0.849717       -23.1220
  30   2.0000      -0.842471       -22.9248
  31   2.0000      -0.812570       -22.1111
  32   2.0000      -0.778948       -21.1963
  33   2.0000      -0.764531       -20.8039
  34   2.0000      -0.706284       -19.2190
  35   2.0000      -0.697961       -18.9925
  36   2.0000      -0.690397       -18.7867
  37   2.0000      -0.650702       -17.7065
  38   2.0000      -0.637633       -17.3509
  39   2.0000      -0.611105       -16.6290
  40   2.0000      -0.591910       -16.1067
  41   2.0000      -0.571182       -15.5427
  42   2.0000      -0.556866       -15.1531
  43   2.0000      -0.551980       -15.0201
  44   2.0000      -0.543432       -14.7875
  45   2.0000      -0.536951       -14.6112
  46   2.0000      -0.519951       -14.1486
  47   2.0000      -0.505423       -13.7533
  48   2.0000      -0.499371       -13.5886
  49   2.0000      -0.491888       -13.3850
  50   2.0000      -0.491140       -13.3646
  51   2.0000      -0.475498       -12.9389
  52   2.0000      -0.467615       -12.7244
  53   2.0000      -0.459961       -12.5162
  54   2.0000      -0.456294       -12.4164
  55   2.0000      -0.453032       -12.3276
  56   2.0000      -0.434903       -11.8343
  57   2.0000      -0.433061       -11.7842
  58   2.0000      -0.429676       -11.6921
  59   2.0000      -0.424752       -11.5581
  60   2.0000      -0.414341       -11.2748
  61   2.0000      -0.412344       -11.2204
  62   2.0000      -0.406784       -11.0692
  63   2.0000      -0.342920        -9.3313
  64   2.0000      -0.329255        -8.9595
  65   2.0000      -0.316247        -8.6055
  66   2.0000      -0.298109        -8.1120
  67   0.0000       0.039831         1.0839
  68   0.0000       0.054098         1.4721
  69   0.0000       0.116297         3.1646
  70   0.0000       0.122209         3.3255
  71   0.0000       0.126133         3.4322

MULLIKEN ATOMIC CHARGES
-----------------------
   0 S :    0.128237
   1 C :   -0.109182
   2 C :   -0.155554
   3 C :    0.059284
   4 C :   -0.168438
   5 H :    0.015065
   6 C :    0.063791
   7 H :    0.024048
   8 H :    0.012219
   9 C :   -0.075533
  10 H :    0.024969
  11 H :    0.033938
  12 C :   -0.051746
  13 H :    0.048878
  14 H :    0.049887
  15 H :    0.029596
  16 S :    0.117336
  17 C :   -0.122677
  18 C :   -0.048326
  19 C :   -0.022081
  20 C :   -0.176723
  21 H :    0.066776
  22 C :    0.048755
  23 H :    0.034010
  24 H :    0.034896
  25 C :   -0.069272
  26 H :    0.024692
  27 H :    0.005762
  28 C :   -0.013212
  29 H :    0.040562
  30 H :    0.018494
  31 H :    0.016145
  32 H :    0.053401
  33 H :    0.062003
Sum of atomic charges:   -0.0000000

LOEWDIN ATOMIC CHARGES
----------------------
   0 S :    0.425095
   1 C :   -0.218977
   2 C :   -0.061023
   3 C :   -0.057209
   4 C :   -0.203484
   5 H :    0.029564
   6 C :   -0.043194
   7 H :    0.032823
   8 H :    0.020260
   9 C :   -0.042665
  10 H :    0.020226
  11 H :    0.026764
  12 C :   -0.067074
  13 H :    0.030645
  14 H :    0.030197
  15 H :    0.028807
  16 S :    0.417356
  17 C :   -0.178546
  18 C :   -0.089565
  19 C :   -0.047000
  20 C :   -0.220735
  21 H :    0.059901
  22 C :   -0.030924
  23 H :    0.030649
  24 H :    0.033997
  25 C :   -0.037569
  26 H :    0.027606
  27 H :    0.011636
  28 C :   -0.058534
  29 H :    0.025778
  30 H :    0.020876
  31 H :    0.023485
  32 H :    0.035442
  33 H :    0.025393

  Mayer bond orders larger than 0.100000
B(  0-S ,  1-C ) :   1.1513 B(  0-S ,  4-C ) :   1.1628 B(  1-C ,  2-C ) :   1.5699
B(  1-C ,  4-C ) :   0.1039 B(  1-C , 32-H ) :   0.9709 B(  2-C ,  3-C ) :   1.2697
B(  2-C ,  6-C ) :   1.0150 B(  3-C ,  4-C ) :   1.5464 B(  3-C ,  5-H ) :   0.9924
B(  4-C , 20-C ) :   1.0315 B(  6-C ,  7-H ) :   0.9481 B(  6-C ,  8-H ) :   0.9315
B(  6-C ,  9-C ) :   1.0666 B(  9-C , 10-H ) :   0.9534 B(  9-C , 11-H ) :   0.9651
B(  9-C , 12-C ) :   1.0607 B( 12-C , 13-H ) :   0.9763 B( 12-C , 14-H ) :   0.9708
B( 12-C , 15-H ) :   0.9775 B( 16-S , 17-C ) :   1.1851 B( 16-S , 20-C ) :   1.1467
B( 17-C , 18-C ) :   1.6091 B( 17-C , 33-H ) :   0.9594 B( 18-C , 19-C ) :   1.2267
B( 18-C , 21-H ) :   0.9776 B( 19-C , 20-C ) :   1.5846 B( 19-C , 22-C ) :   1.0441
B( 22-C , 23-H ) :   0.9419 B( 22-C , 24-H ) :   0.9370 B( 22-C , 25-C ) :   1.0724
B( 25-C , 26-H ) :   0.9543 B( 25-C , 27-H ) :   0.9539 B( 25-C , 28-C ) :   1.0771
B( 28-C , 29-H ) :   0.9767 B( 28-C , 30-H ) :   0.9751 B( 28-C , 31-H ) :   0.9699

Dispersion correction           -0.014910276
FINAL SINGLE POINT ENERGY     -1339.853581141606

DIPOLE MOMENT
-------------
                                X             Y             Z
Electronic contribution:     14.46015      -1.62350      22.97512
Nuclear contribution   :    -14.51866       1.67582     -23.42295
                        -----------------------------------------
Total Dipole Moment    :     -0.05851       0.05233      -0.44782
                        -----------------------------------------
Magnitude (a.u.)       :      0.45465
Magnitude (Debye)      :      1.15563

Rotational constants in cm-1:     0.019289     0.009216     0.006993
Rotational constants in MHz :   578.259395   276.277659   209.637919

                             ****ORCA TERMINATED NORMALLY****
TOTAL RUN TIME: 0 days 0 hours 0 minutes 35 seconds 624 msec
