                         Program Version 4.2.1 -  RELEASE  -
|  1> ! wB97X-D3 SP def2-SVP
|  2> %pal
|  3> nprocs 16
|  4> end
|  5>
|  6> * xyz 0 1
|  7> S 	 -1.85159 	 -22.8732 	 84.6228
|  8> C 	 -0.175712 	 -23.2274 	 84.3588
|  9> C 	 0.651246 	 -22.469 	 85.1591
| 10> C 	 -0.0331752 	 -21.6241 	 86.0617
| 11> C 	 -1.41821 	 -21.6926 	 85.8871
| 12> H 	 0.318217 	 -21.0407 	 86.8753
| 13> C 	 2.18643 	 -22.6497 	 85.1761
| 14> H 	 2.56181 	 -22.0051 	 84.3806
| 15> H 	 2.42511 	 -23.7284 	 84.975
| 16> C 	 2.9131 	 -22.1381 	 86.4113
| 17> H 	 4.0312 	 -22.2383 	 86.214
| 18> H 	 2.85017 	 -21.1245 	 86.5919
| 19> C 	 2.52533 	 -22.7902 	 87.7235
| 20> H 	 3.02117 	 -22.288 	 88.6032
| 21> H 	 1.5244 	 -22.882 	 87.8956
| 22> H 	 2.81711 	 -23.8224 	 87.6525
| 23> S 	 -2.84285 	 -21.9964 	 88.0735
| 24> C 	 -3.37191 	 -20.5612 	 88.9789
| 25> C 	 -3.09858 	 -19.3953 	 88.3246
| 26> C 	 -2.36844 	 -19.652 	 87.0881
| 27> C 	 -2.33091 	 -20.9697 	 86.7766
| 28> H 	 -3.12261 	 -18.4197 	 88.8302
| 29> C 	 -1.7648 	 -18.4946 	 86.3217
| 30> H 	 -0.874135 	 -18.7017 	 85.8785
| 31> H 	 -1.46123 	 -17.7048 	 87.0525
| 32> C 	 -2.7221 	 -17.8449 	 85.3048
| 33> H 	 -2.32163 	 -16.8704 	 85.0765
| 34> H 	 -3.69847 	 -17.5617 	 85.7225
| 35> C 	 -2.94469 	 -18.6483 	 84.0297
| 36> H 	 -3.77143 	 -18.2215 	 83.4427
| 37> H 	 -3.24686 	 -19.6371 	 84.2788
| 38> H 	 -2.0204 	 -18.6757 	 83.4574
| 39> H 	 0.118823 	 -24.0258 	 83.6165
| 40> H 	 -3.68967 	 -20.6381 	 90.0258
| 41> *
| 42>
| 43>                          ****END OF INPUT****

CARTESIAN COORDINATES (ANGSTROEM)
---------------------------------
  S     -1.851590  -22.873200   84.622800
  C     -0.175712  -23.227400   84.358800
  C      0.651246  -22.469000   85.159100
  C     -0.033175  -21.624100   86.061700
  C     -1.418210  -21.692600   85.887100
  H      0.318217  -21.040700   86.875300
  C      2.186430  -22.649700   85.176100
  H      2.561810  -22.005100   84.380600
  H      2.425110  -23.728400   84.975000
  C      2.913100  -22.138100   86.411300
  H      4.031200  -22.238300   86.214000
  H      2.850170  -21.124500   86.591900
  C      2.525330  -22.790200   87.723500
  H      3.021170  -22.288000   88.603200
  H      1.524400  -22.882000   87.895600
  H      2.817110  -23.822400   87.652500
  S     -2.842850  -21.996400   88.073500
  C     -3.371910  -20.561200   88.978900
  C     -3.098580  -19.395300   88.324600
  C     -2.368440  -19.652000   87.088100
  C     -2.330910  -20.969700   86.776600
  H     -3.122610  -18.419700   88.830200
  C     -1.764800  -18.494600   86.321700
  H     -0.874135  -18.701700   85.878500
  H     -1.461230  -17.704800   87.052500
  C     -2.722100  -17.844900   85.304800
  H     -2.321630  -16.870400   85.076500
  H     -3.698470  -17.561700   85.722500
  C     -2.944690  -18.648300   84.029700
  H     -3.771430  -18.221500   83.442700
  H     -3.246860  -19.637100   84.278800
  H     -2.020400  -18.675700   83.457400
  H      0.118823  -24.025800   83.616500
  H     -3.689670  -20.638100   90.025800

 Total Charge           Charge          ....    0
 Multiplicity           Mult            ....    1
 Number of Electrons    NEL             ....  134
 Basis Dimension        Dim             ....  322

ORBITAL ENERGIES
----------------

  NO   OCC          E(Eh)            E(eV)
   0   2.0000     -88.967437     -2420.9270
   1   2.0000     -88.961945     -2420.7776
   2   2.0000     -10.328744      -281.0594
   3   2.0000     -10.320583      -280.8373
   4   2.0000     -10.319253      -280.8011
   5   2.0000     -10.315486      -280.6987
   6   2.0000     -10.304041      -280.3872
   7   2.0000     -10.300606      -280.2937
   8   2.0000     -10.297334      -280.2047
   9   2.0000     -10.296330      -280.1774
  10   2.0000     -10.291472      -280.0452
  11   2.0000     -10.286939      -279.9219
  12   2.0000     -10.282874      -279.8112
  13   2.0000     -10.280856      -279.7563
  14   2.0000     -10.267152      -279.3834
  15   2.0000     -10.267003      -279.3793
  16   2.0000      -8.081663      -219.9132
  17   2.0000      -8.077141      -219.7902
  18   2.0000      -6.040010      -164.3570
  19   2.0000      -6.036252      -164.2548
  20   2.0000      -6.035779      -164.2419
  21   2.0000      -6.032622      -164.1560
  22   2.0000      -6.031705      -164.1310
  23   2.0000      -6.027586      -164.0189
  24   2.0000      -1.007948       -27.4277
  25   2.0000      -0.983138       -26.7526
  26   2.0000      -0.911469       -24.8023
  27   2.0000      -0.907911       -24.7055
  28   2.0000      -0.872258       -23.7354
  29   2.0000      -0.848185       -23.0803
  30   2.0000      -0.844406       -22.9775
  31   2.0000      -0.814425       -22.1616
  32   2.0000      -0.785206       -21.3666
  33   2.0000      -0.773599       -21.0507
  34   2.0000      -0.706268       -19.2185
  35   2.0000      -0.696120       -18.9424
  36   2.0000      -0.688114       -18.7245
  37   2.0000      -0.663250       -18.0479
  38   2.0000      -0.644063       -17.5258
  39   2.0000      -0.618201       -16.8221
  40   2.0000      -0.601765       -16.3749
  41   2.0000      -0.563596       -15.3362
  42   2.0000      -0.552677       -15.0391
  43   2.0000      -0.547169       -14.8892
  44   2.0000      -0.537183       -14.6175
  45   2.0000      -0.531957       -14.4753
  46   2.0000      -0.519259       -14.1298
  47   2.0000      -0.513451       -13.9717
  48   2.0000      -0.500897       -13.6301
  49   2.0000      -0.497041       -13.5252
  50   2.0000      -0.490938       -13.3591
  51   2.0000      -0.482866       -13.1395
  52   2.0000      -0.468225       -12.7410
  53   2.0000      -0.466359       -12.6903
  54   2.0000      -0.457403       -12.4466
  55   2.0000      -0.446868       -12.1599
  56   2.0000      -0.443233       -12.0610
  57   2.0000      -0.434953       -11.8357
  58   2.0000      -0.431930       -11.7534
  59   2.0000      -0.425198       -11.5702
  60   2.0000      -0.422673       -11.5015
  61   2.0000      -0.413829       -11.2609
  62   2.0000      -0.408376       -11.1125
  63   2.0000      -0.344105        -9.3636
  64   2.0000      -0.330006        -8.9799
  65   2.0000      -0.322629        -8.7792
  66   2.0000      -0.302069        -8.2197
  67   0.0000       0.041446         1.1278
  68   0.0000       0.058685         1.5969
  69   0.0000       0.106092         2.8869
  70   0.0000       0.123501         3.3606
  71   0.0000       0.129858         3.5336

MULLIKEN ATOMIC CHARGES
-----------------------
   0 S :    0.116180
   1 C :   -0.163510
   2 C :   -0.075903
   3 C :    0.044758
   4 C :   -0.185081
   5 H :    0.013248
   6 C :    0.085334
   7 H :    0.041280
   8 H :    0.040972
   9 C :   -0.090665
  10 H :    0.033838
  11 H :    0.007386
  12 C :   -0.026946
  13 H :    0.041576
  14 H :    0.015965
  15 H :    0.014059
  16 S :    0.096949
  17 C :   -0.105193
  18 C :   -0.009950
  19 C :   -0.082823
  20 C :   -0.134011
  21 H :    0.033964
  22 C :    0.111598
  23 H :   -0.010679
  24 H :    0.017646
  25 C :   -0.065520
  26 H :    0.013387
  27 H :    0.018299
  28 C :   -0.020037
  29 H :    0.033707
  30 H :    0.020125
  31 H :    0.031791
  32 H :    0.071291
  33 H :    0.066964
Sum of atomic charges:    0.0000000

LOEWDIN ATOMIC CHARGES
----------------------
   0 S :    0.400471
   1 C :   -0.213131
   2 C :   -0.068786
   3 C :   -0.057607
   4 C :   -0.193655
   5 H :    0.030193
   6 C :   -0.029122
   7 H :    0.038216
   8 H :    0.036261
   9 C :   -0.049153
  10 H :    0.035503
  11 H :    0.010517
  12 C :   -0.062325
  13 H :    0.034773
  14 H :    0.011079
  15 H :    0.023835
  16 S :    0.400629
  17 C :   -0.170665
  18 C :   -0.072206
  19 C :   -0.047656
  20 C :   -0.211735
  21 H :    0.037931
  22 C :   -0.023246
  23 H :    0.013405
  24 H :    0.037080
  25 C :   -0.037276
  26 H :    0.018918
  27 H :    0.022905
  28 C :   -0.059730
  29 H :    0.029506
  30 H :    0.017821
  31 H :    0.025407
  32 H :    0.040192
  33 H :    0.031652

  Mayer bond orders larger than 0.100000
B(  0-S ,  1-C ) :   1.1444 B(  0-S ,  4-C ) :   1.1558 B(  1-C ,  2-C ) :   1.6089
B(  1-C , 32-H ) :   0.9651 B(  2-C ,  3-C ) :   1.2447 B(  2-C ,  6-C ) :   0.9955
B(  3-C ,  4-C ) :   1.5617 B(  3-C ,  5-H ) :   0.9970 B(  4-C , 20-C ) :   1.0015
B(  6-C ,  7-H ) :   0.9270 B(  6-C ,  8-H ) :   0.9509 B(  6-C ,  9-C ) :   1.0961
B(  9-C , 10-H ) :   0.9504 B(  9-C , 11-H ) :   0.9458 B(  9-C , 12-C ) :   1.0758
B( 12-C , 13-H ) :   0.9736 B( 12-C , 14-H ) :   0.9745 B( 12-C , 15-H ) :   0.9693
B( 16-S , 17-C ) :   1.1491 B( 16-S , 20-C ) :   1.1292 B( 17-C , 18-C ) :   1.6473
B( 17-C , 33-H ) :   0.9631 B( 18-C , 19-C ) :   1.2066 B( 18-C , 21-H ) :   0.9807
B( 19-C , 20-C ) :   1.6545 B( 19-C , 22-C ) :   1.0495 B( 22-C , 23-H ) :   0.9305
B( 22-C , 24-H ) :   0.9288 B( 22-C , 25-C ) :   1.0748 B( 25-C , 26-H ) :   0.9511
B( 25-C , 27-H ) :   0.9558 B( 25-C , 28-C ) :   1.0819 B( 28-C , 29-H ) :   0.9721
B( 28-C , 30-H ) :   0.9730 B( 28-C , 31-H ) :   0.9751

Dispersion correction           -0.015468954
FINAL SINGLE POINT ENERGY     -1339.869492715180

DIPOLE MOMENT
-------------
                                X             Y             Z
Electronic contribution:    -15.35432     -11.68008       2.41532
Nuclear contribution   :     15.94801      12.10220      -2.19133
                        -----------------------------------------
Total Dipole Moment    :      0.59370       0.42213       0.22398
                        -----------------------------------------
Magnitude (a.u.)       :      0.76213
Magnitude (Debye)      :      1.93718

Rotational constants in cm-1:     0.017665     0.009490     0.008707
Rotational constants in MHz :   529.576013   284.491155   261.034235

                             ****ORCA TERMINATED NORMALLY****
TOTAL RUN TIME: 0 days 0 hours 0 minutes 36 seconds 823 msec
