                         Program Version 4.2.1 -  RELEASE  -
|  1> ! wB97X-D3 SP def2-SVP
|  2> %pal
|  3> nprocs 16
|  4> end
|  5>
|  6> * xyz 0 1
|  7> S 	 7.75403 	 -11.3944 	 63.7209
|  8> C 	 7.7745 	 -11.5358 	 65.5029
|  9> C 	 6.54325 	 -11.9295 	 65.9575
| 10> C 	 5.56482 	 -12.0166 	 64.9293
| 11> C 	 6.03753 	 -11.7096 	 63.6927
| 12> H 	 4.50139 	 -12.1525 	 65.222
| 13> C 	 6.26755 	 -11.9958 	 67.4714
| 14> H 	 5.39119 	 -11.2999 	 67.6937
| 15> H 	 7.18306 	 -11.6379 	 67.9541
| 16> C 	 6.1084 	 -13.342 	 68.249
| 17> H 	 6.91793 	 -13.9456 	 67.8311
| 18> H 	 6.22864 	 -13.3405 	 69.3294
| 19> C 	 4.91685 	 -14.1893 	 67.9558
| 20> H 	 4.86476 	 -14.4956 	 66.8884
| 21> H 	 4.98354 	 -15.1988 	 68.4046
| 22> H 	 4.00117 	 -13.6092 	 68.1341
| 23> S 	 5.47478 	 -9.70983 	 61.9694
| 24> C 	 4.19076 	 -9.85828 	 60.8309
| 25> C 	 3.56549 	 -11.0681 	 60.8731
| 26> C 	 4.21503 	 -11.9443 	 61.8281
| 27> C 	 5.18859 	 -11.3109 	 62.5853
| 28> H 	 2.72117 	 -11.3002 	 60.1547
| 29> C 	 3.80693 	 -13.3878 	 62.0028
| 30> H 	 2.69115 	 -13.3779 	 62.0944
| 31> H 	 4.27316 	 -13.8175 	 62.908
| 32> C 	 4.28752 	 -14.3391 	 60.8708
| 33> H 	 5.25711 	 -14.1834 	 60.6667
| 34> H 	 3.72577 	 -14.0374 	 60.0237
| 35> C 	 3.95785 	 -15.8276 	 61.1127
| 36> H 	 4.19394 	 -16.3645 	 60.1986
| 37> H 	 2.89497 	 -15.8232 	 61.4487
| 38> H 	 4.55914 	 -16.2372 	 61.9633
| 39> H 	 8.65784 	 -11.3547 	 66.0833
| 40> H 	 3.97925 	 -9.08957 	 60.0848
| 41> *
| 42>
| 43>                          ****END OF INPUT****

CARTESIAN COORDINATES (ANGSTROEM)
---------------------------------
  S      7.754030  -11.394400   63.720900
  C      7.774500  -11.535800   65.502900
  C      6.543250  -11.929500   65.957500
  C      5.564820  -12.016600   64.929300
  C      6.037530  -11.709600   63.692700
  H      4.501390  -12.152500   65.222000
  C      6.267550  -11.995800   67.471400
  H      5.391190  -11.299900   67.693700
  H      7.183060  -11.637900   67.954100
  C      6.108400  -13.342000   68.249000
  H      6.917930  -13.945600   67.831100
  H      6.228640  -13.340500   69.329400
  C      4.916850  -14.189300   67.955800
  H      4.864760  -14.495600   66.888400
  H      4.983540  -15.198800   68.404600
  H      4.001170  -13.609200   68.134100
  S      5.474780   -9.709830   61.969400
  C      4.190760   -9.858280   60.830900
  C      3.565490  -11.068100   60.873100
  C      4.215030  -11.944300   61.828100
  C      5.188590  -11.310900   62.585300
  H      2.721170  -11.300200   60.154700
  C      3.806930  -13.387800   62.002800
  H      2.691150  -13.377900   62.094400
  H      4.273160  -13.817500   62.908000
  C      4.287520  -14.339100   60.870800
  H      5.257110  -14.183400   60.666700
  H      3.725770  -14.037400   60.023700
  C      3.957850  -15.827600   61.112700
  H      4.193940  -16.364500   60.198600
  H      2.894970  -15.823200   61.448700
  H      4.559140  -16.237200   61.963300
  H      8.657840  -11.354700   66.083300
  H      3.979250   -9.089570   60.084800

 Total Charge           Charge          ....    0
 Multiplicity           Mult            ....    1
 Number of Electrons    NEL             ....  134
 Basis Dimension        Dim             ....  322

ORBITAL ENERGIES
----------------

  NO   OCC          E(Eh)            E(eV)
   0   2.0000     -88.967706     -2420.9344
   1   2.0000     -88.961480     -2420.7649
   2   2.0000     -10.329461      -281.0789
   3   2.0000     -10.323314      -280.9117
   4   2.0000     -10.317963      -280.7660
   5   2.0000     -10.313883      -280.6550
   6   2.0000     -10.304001      -280.3861
   7   2.0000     -10.303988      -280.3858
   8   2.0000     -10.302923      -280.3568
   9   2.0000     -10.298315      -280.2314
  10   2.0000     -10.295982      -280.1679
  11   2.0000     -10.291534      -280.0469
  12   2.0000     -10.285242      -279.8757
  13   2.0000     -10.281996      -279.7873
  14   2.0000     -10.276428      -279.6358
  15   2.0000     -10.270833      -279.4836
  16   2.0000      -8.082167      -219.9270
  17   2.0000      -8.077248      -219.7931
  18   2.0000      -6.040739      -164.3769
  19   2.0000      -6.036796      -164.2696
  20   2.0000      -6.035672      -164.2390
  21   2.0000      -6.032781      -164.1603
  22   2.0000      -6.031573      -164.1274
  23   2.0000      -6.028059      -164.0318
  24   2.0000      -1.011519       -27.5248
  25   2.0000      -0.987004       -26.8578
  26   2.0000      -0.909722       -24.7548
  27   2.0000      -0.906893       -24.6778
  28   2.0000      -0.873915       -23.7804
  29   2.0000      -0.851762       -23.1776
  30   2.0000      -0.845462       -23.0062
  31   2.0000      -0.819051       -22.2875
  32   2.0000      -0.780729       -21.2447
  33   2.0000      -0.767521       -20.8853
  34   2.0000      -0.705676       -19.2024
  35   2.0000      -0.696460       -18.9516
  36   2.0000      -0.693182       -18.8624
  37   2.0000      -0.657595       -17.8941
  38   2.0000      -0.639171       -17.3927
  39   2.0000      -0.620985       -16.8979
  40   2.0000      -0.594024       -16.1642
  41   2.0000      -0.571840       -15.5606
  42   2.0000      -0.568055       -15.4576
  43   2.0000      -0.548822       -14.9342
  44   2.0000      -0.542478       -14.7616
  45   2.0000      -0.527219       -14.3464
  46   2.0000      -0.518521       -14.1097
  47   2.0000      -0.511800       -13.9268
  48   2.0000      -0.511055       -13.9065
  49   2.0000      -0.498504       -13.5650
  50   2.0000      -0.485494       -13.2110
  51   2.0000      -0.477874       -13.0036
  52   2.0000      -0.474767       -12.9191
  53   2.0000      -0.464117       -12.6293
  54   2.0000      -0.457884       -12.4597
  55   2.0000      -0.448304       -12.1990
  56   2.0000      -0.439553       -11.9609
  57   2.0000      -0.435433       -11.8487
  58   2.0000      -0.427778       -11.6404
  59   2.0000      -0.423453       -11.5227
  60   2.0000      -0.419367       -11.4116
  61   2.0000      -0.412740       -11.2312
  62   2.0000      -0.408953       -11.1282
  63   2.0000      -0.349256        -9.5037
  64   2.0000      -0.333005        -9.0615
  65   2.0000      -0.327821        -8.9205
  66   2.0000      -0.296220        -8.0606
  67   0.0000       0.031479         0.8566
  68   0.0000       0.071600         1.9483
  69   0.0000       0.115621         3.1462
  70   0.0000       0.120087         3.2677
  71   0.0000       0.125929         3.4267

MULLIKEN ATOMIC CHARGES
-----------------------
   0 S :    0.102252
   1 C :   -0.137302
   2 C :   -0.072351
   3 C :    0.042238
   4 C :   -0.142087
   5 H :    0.031961
   6 C :    0.031041
   7 H :    0.048486
   8 H :    0.023599
   9 C :   -0.061960
  10 H :    0.018886
  11 H :    0.040294
  12 C :   -0.074630
  13 H :    0.023169
  14 H :    0.039677
  15 H :    0.029672
  16 S :    0.106234
  17 C :   -0.098937
  18 C :   -0.040793
  19 C :   -0.052391
  20 C :   -0.148377
  21 H :    0.044782
  22 C :    0.028578
  23 H :    0.035352
  24 H :    0.020777
  25 C :   -0.027551
  26 H :    0.005527
  27 H :    0.008386
  28 C :   -0.054782
  29 H :    0.046521
  30 H :    0.034055
  31 H :    0.038184
  32 H :    0.050673
  33 H :    0.060817
Sum of atomic charges:   -0.0000000

LOEWDIN ATOMIC CHARGES
----------------------
   0 S :    0.387808
   1 C :   -0.175101
   2 C :   -0.067067
   3 C :   -0.061049
   4 C :   -0.196813
   5 H :    0.040841
   6 C :   -0.031766
   7 H :    0.035416
   8 H :    0.034712
   9 C :   -0.051404
  10 H :    0.027556
  11 H :    0.027503
  12 C :   -0.078991
  13 H :    0.024779
  14 H :    0.032145
  15 H :    0.021043
  16 S :    0.417099
  17 C :   -0.192021
  18 C :   -0.082264
  19 C :   -0.057432
  20 C :   -0.202174
  21 H :    0.045063
  22 C :   -0.034343
  23 H :    0.033308
  24 H :    0.028047
  25 C :   -0.027509
  26 H :    0.007135
  27 H :    0.016795
  28 C :   -0.064061
  29 H :    0.028601
  30 H :    0.029806
  31 H :    0.027223
  32 H :    0.025837
  33 H :    0.031279

  Mayer bond orders larger than 0.100000
B(  0-S ,  1-C ) :   1.1204 B(  0-S ,  4-C ) :   1.1476 B(  1-C ,  2-C ) :   1.6240
B(  1-C , 32-H ) :   0.9703 B(  2-C ,  3-C ) :   1.2414 B(  2-C ,  6-C ) :   1.0180
B(  3-C ,  4-C ) :   1.5722 B(  3-C ,  5-H ) :   0.9883 B(  4-C , 20-C ) :   1.0295
B(  6-C ,  7-H ) :   0.9460 B(  6-C ,  8-H ) :   0.9412 B(  6-C ,  9-C ) :   1.0547
B(  9-C , 10-H ) :   0.9477 B(  9-C , 11-H ) :   0.9599 B(  9-C , 12-C ) :   1.0931
B( 12-C , 13-H ) :   0.9711 B( 12-C , 14-H ) :   0.9695 B( 12-C , 15-H ) :   0.9748
B( 16-S , 17-C ) :   1.1637 B( 16-S , 20-C ) :   1.1337 B( 17-C , 18-C ) :   1.6224
B( 17-C , 33-H ) :   0.9636 B( 18-C , 19-C ) :   1.2204 B( 18-C , 21-H ) :   0.9821
B( 19-C , 20-C ) :   1.6164 B( 19-C , 22-C ) :   1.0552 B( 22-C , 23-H ) :   0.9333
B( 22-C , 24-H ) :   0.9368 B( 22-C , 25-C ) :   1.0632 B( 25-C , 26-H ) :   0.9547
B( 25-C , 27-H ) :   0.9528 B( 25-C , 28-C ) :   1.0850 B( 28-C , 29-H ) :   0.9740
B( 28-C , 30-H ) :   0.9732 B( 28-C , 31-H ) :   0.9762

Dispersion correction           -0.013718129
FINAL SINGLE POINT ENERGY     -1339.871920566371

DIPOLE MOMENT
-------------
                                X             Y             Z
Electronic contribution:     11.34113      22.85679     -11.01524
Nuclear contribution   :    -11.59711     -23.10483      11.19379
                        -----------------------------------------
Total Dipole Moment    :     -0.25598      -0.24804       0.17855
                        -----------------------------------------
Magnitude (a.u.)       :      0.39866
Magnitude (Debye)      :      1.01330

Rotational constants in cm-1:     0.016858     0.008789     0.006765
Rotational constants in MHz :   505.392642   263.496054   202.808746

                             ****ORCA TERMINATED NORMALLY****
TOTAL RUN TIME: 0 days 0 hours 0 minutes 29 seconds 604 msec
