                         Program Version 4.2.1 -  RELEASE  -
|  1> ! wB97X-D3 SP def2-SVP
|  2> %pal
|  3> nprocs 16
|  4> end
|  5>
|  6> * xyz 0 1
|  7> S 	 68.1865 	 25.536 	 73.8018
|  8> C 	 67.1315 	 24.4756 	 72.8833
|  9> C 	 67.786 	 23.6778 	 71.9292
| 10> C 	 69.2331 	 24.0426 	 71.9214
| 11> C 	 69.5904 	 24.8395 	 72.9562
| 12> H 	 70.0086 	 23.6167 	 71.3383
| 13> C 	 67.108 	 22.8245 	 70.8367
| 14> H 	 66.8615 	 23.507 	 70.0168
| 15> H 	 66.114 	 22.4656 	 71.1383
| 16> C 	 67.8644 	 21.6442 	 70.2349
| 17> H 	 67.1125 	 21.2899 	 69.5209
| 18> H 	 68.6876 	 22.1166 	 69.6099
| 19> C 	 68.4211 	 20.574 	 71.2133
| 20> H 	 69.3747 	 20.8129 	 71.7463
| 21> H 	 67.7328 	 20.3396 	 71.9918
| 22> H 	 68.6249 	 19.6567 	 70.7114
| 23> S 	 71.2842 	 27.1148 	 73.485
| 24> C 	 72.9432 	 26.8385 	 73.6695
| 25> C 	 73.2683 	 25.5418 	 73.3858
| 26> C 	 72.2051 	 24.7153 	 73.0941
| 27> C 	 70.9589 	 25.3484 	 73.1652
| 28> H 	 74.2486 	 25.2402 	 73.4376
| 29> C 	 72.4409 	 23.2374 	 72.6952
| 30> H 	 72.1727 	 23.3617 	 71.7113
| 31> H 	 71.7152 	 22.5689 	 73.2193
| 32> C 	 73.8569 	 22.5158 	 72.877
| 33> H 	 73.9669 	 22.2763 	 73.9188
| 34> H 	 74.5894 	 23.1833 	 72.6156
| 35> C 	 73.9417 	 21.0926 	 72.2375
| 36> H 	 73.4949 	 21.0908 	 71.2353
| 37> H 	 73.405 	 20.4338 	 72.8359
| 38> H 	 74.9442 	 20.6263 	 72.1673
| 39> H 	 66.0769 	 24.4489 	 72.8713
| 40> H 	 73.763 	 27.5407 	 73.7021
| 41> *
| 42>
| 43>                          ****END OF INPUT****

CARTESIAN COORDINATES (ANGSTROEM)
---------------------------------
  S     68.186500   25.536000   73.801800
  C     67.131500   24.475600   72.883300
  C     67.786000   23.677800   71.929200
  C     69.233100   24.042600   71.921400
  C     69.590400   24.839500   72.956200
  H     70.008600   23.616700   71.338300
  C     67.108000   22.824500   70.836700
  H     66.861500   23.507000   70.016800
  H     66.114000   22.465600   71.138300
  C     67.864400   21.644200   70.234900
  H     67.112500   21.289900   69.520900
  H     68.687600   22.116600   69.609900
  C     68.421100   20.574000   71.213300
  H     69.374700   20.812900   71.746300
  H     67.732800   20.339600   71.991800
  H     68.624900   19.656700   70.711400
  S     71.284200   27.114800   73.485000
  C     72.943200   26.838500   73.669500
  C     73.268300   25.541800   73.385800
  C     72.205100   24.715300   73.094100
  C     70.958900   25.348400   73.165200
  H     74.248600   25.240200   73.437600
  C     72.440900   23.237400   72.695200
  H     72.172700   23.361700   71.711300
  H     71.715200   22.568900   73.219300
  C     73.856900   22.515800   72.877000
  H     73.966900   22.276300   73.918800
  H     74.589400   23.183300   72.615600
  C     73.941700   21.092600   72.237500
  H     73.494900   21.090800   71.235300
  H     73.405000   20.433800   72.835900
  H     74.944200   20.626300   72.167300
  H     66.076900   24.448900   72.871300
  H     73.763000   27.540700   73.702100

 Total Charge           Charge          ....    0
 Multiplicity           Mult            ....    1
 Number of Electrons    NEL             ....  134
 Basis Dimension        Dim             ....  322

ORBITAL ENERGIES
----------------

  NO   OCC          E(Eh)            E(eV)
   0   2.0000     -88.967741     -2420.9353
   1   2.0000     -88.966534     -2420.9025
   2   2.0000     -10.331078      -281.1229
   3   2.0000     -10.330448      -281.1058
   4   2.0000     -10.312957      -280.6298
   5   2.0000     -10.310133      -280.5530
   6   2.0000     -10.309735      -280.5422
   7   2.0000     -10.302993      -280.3587
   8   2.0000     -10.297269      -280.2029
   9   2.0000     -10.296866      -280.1920
  10   2.0000     -10.295111      -280.1442
  11   2.0000     -10.293989      -280.1137
  12   2.0000     -10.288986      -279.9775
  13   2.0000     -10.281363      -279.7701
  14   2.0000     -10.278961      -279.7047
  15   2.0000     -10.277172      -279.6561
  16   2.0000      -8.081727      -219.9150
  17   2.0000      -8.080936      -219.8934
  18   2.0000      -6.040469      -164.3695
  19   2.0000      -6.039397      -164.3404
  20   2.0000      -6.036508      -164.2617
  21   2.0000      -6.035455      -164.2331
  22   2.0000      -6.032121      -164.1424
  23   2.0000      -6.031793      -164.1334
  24   2.0000      -1.003393       -27.3037
  25   2.0000      -0.980780       -26.6884
  26   2.0000      -0.907960       -24.7068
  27   2.0000      -0.904302       -24.6073
  28   2.0000      -0.869266       -23.6539
  29   2.0000      -0.854515       -23.2525
  30   2.0000      -0.840058       -22.8591
  31   2.0000      -0.815972       -22.2037
  32   2.0000      -0.789161       -21.4742
  33   2.0000      -0.777370       -21.1533
  34   2.0000      -0.717569       -19.5260
  35   2.0000      -0.703842       -19.1525
  36   2.0000      -0.693307       -18.8658
  37   2.0000      -0.653474       -17.7819
  38   2.0000      -0.639864       -17.4116
  39   2.0000      -0.620292       -16.8790
  40   2.0000      -0.594272       -16.1710
  41   2.0000      -0.573619       -15.6090
  42   2.0000      -0.566925       -15.4268
  43   2.0000      -0.552443       -15.0327
  44   2.0000      -0.534580       -14.5467
  45   2.0000      -0.523432       -14.2433
  46   2.0000      -0.519140       -14.1265
  47   2.0000      -0.511135       -13.9087
  48   2.0000      -0.501611       -13.6495
  49   2.0000      -0.494915       -13.4673
  50   2.0000      -0.493066       -13.4170
  51   2.0000      -0.481223       -13.0947
  52   2.0000      -0.472636       -12.8611
  53   2.0000      -0.467925       -12.7329
  54   2.0000      -0.459983       -12.5168
  55   2.0000      -0.454696       -12.3729
  56   2.0000      -0.449913       -12.2428
  57   2.0000      -0.440580       -11.9888
  58   2.0000      -0.434480       -11.8228
  59   2.0000      -0.422521       -11.4974
  60   2.0000      -0.420149       -11.4328
  61   2.0000      -0.417320       -11.3558
  62   2.0000      -0.413062       -11.2400
  63   2.0000      -0.353063        -9.6073
  64   2.0000      -0.334541        -9.1033
  65   2.0000      -0.325543        -8.8585
  66   2.0000      -0.285841        -7.7781
  67   0.0000       0.026773         0.7285
  68   0.0000       0.073091         1.9889
  69   0.0000       0.107609         2.9282
  70   0.0000       0.120090         3.2678
  71   0.0000       0.126537         3.4433

MULLIKEN ATOMIC CHARGES
-----------------------
   0 S :    0.109820
   1 C :   -0.085865
   2 C :   -0.082681
   3 C :    0.014951
   4 C :   -0.130950
   5 H :   -0.002943
   6 C :    0.024009
   7 H :    0.046748
   8 H :    0.020213
   9 C :   -0.091809
  10 H :    0.034837
  11 H :    0.038814
  12 C :   -0.028200
  13 H :    0.039176
  14 H :    0.025975
  15 H :    0.027621
  16 S :    0.107857
  17 C :   -0.053757
  18 C :   -0.055315
  19 C :   -0.014202
  20 C :   -0.171743
  21 H :   -0.019623
  22 C :    0.015096
  23 H :    0.038561
  24 H :    0.050934
  25 C :   -0.035954
  26 H :    0.032212
  27 H :    0.020093
  28 C :   -0.042427
  29 H :    0.031406
  30 H :    0.016984
  31 H :    0.041751
  32 H :    0.026530
  33 H :    0.051881
Sum of atomic charges:    0.0000000

LOEWDIN ATOMIC CHARGES
----------------------
   0 S :    0.385049
   1 C :   -0.190954
   2 C :   -0.054464
   3 C :   -0.055772
   4 C :   -0.178393
   5 H :    0.022659
   6 C :   -0.040810
   7 H :    0.039602
   8 H :    0.027525
   9 C :   -0.047000
  10 H :    0.030960
  11 H :    0.028615
  12 C :   -0.068102
  13 H :    0.033658
  14 H :    0.023578
  15 H :    0.024467
  16 S :    0.404962
  17 C :   -0.199172
  18 C :   -0.077730
  19 C :   -0.047968
  20 C :   -0.184307
  21 H :    0.016083
  22 C :   -0.026966
  23 H :    0.019450
  24 H :    0.038369
  25 C :   -0.027478
  26 H :    0.027592
  27 H :    0.006715
  28 C :   -0.059947
  29 H :    0.025116
  30 H :    0.016320
  31 H :    0.034013
  32 H :    0.019782
  33 H :    0.034550

  Mayer bond orders larger than 0.100000
B(  0-S ,  1-C ) :   1.1226 B(  0-S ,  4-C ) :   1.1115 B(  1-C ,  2-C ) :   1.6603
B(  1-C , 32-H ) :   0.9658 B(  2-C ,  3-C ) :   1.1794 B(  2-C ,  6-C ) :   1.0195
B(  3-C ,  4-C ) :   1.6348 B(  3-C ,  5-H ) :   0.9840 B(  4-C , 20-C ) :   1.0618
B(  6-C ,  7-H ) :   0.9389 B(  6-C ,  8-H ) :   0.9407 B(  6-C ,  9-C ) :   1.0847
B(  9-C , 10-H ) :   0.9548 B(  9-C , 11-H ) :   0.9519 B(  9-C , 12-C ) :   1.0665
B( 12-C , 13-H ) :   0.9717 B( 12-C , 14-H ) :   0.9769 B( 12-C , 15-H ) :   0.9750
B( 16-S , 17-C ) :   1.1775 B( 16-S , 20-C ) :   1.1293 B( 17-C , 18-C ) :   1.5754
B( 17-C , 20-C ) :   0.1029 B( 17-C , 33-H ) :   0.9557 B( 18-C , 19-C ) :   1.3033
B( 18-C , 21-H ) :   1.0005 B( 19-C , 20-C ) :   1.5740 B( 19-C , 22-C ) :   0.9914
B( 22-C , 23-H ) :   0.9298 B( 22-C , 24-H ) :   0.9435 B( 22-C , 25-C ) :   1.0683
B( 25-C , 26-H ) :   0.9617 B( 25-C , 27-H ) :   0.9540 B( 25-C , 28-C ) :   1.0716
B( 28-C , 29-H ) :   0.9791 B( 28-C , 30-H ) :   0.9781 B( 28-C , 31-H ) :   0.9745

Dispersion correction           -0.014037916
FINAL SINGLE POINT ENERGY     -1339.848582412391

DIPOLE MOMENT
-------------
                                X             Y             Z
Electronic contribution:     -6.68600      29.63018      12.68416
Nuclear contribution   :      6.93043     -30.28711     -13.21820
                        -----------------------------------------
Total Dipole Moment    :      0.24443      -0.65694      -0.53404
                        -----------------------------------------
Magnitude (a.u.)       :      0.88120
Magnitude (Debye)      :      2.23982

Rotational constants in cm-1:     0.014892     0.010277     0.006432
Rotational constants in MHz :   446.449688   308.085432   192.830244

                             ****ORCA TERMINATED NORMALLY****
TOTAL RUN TIME: 0 days 0 hours 0 minutes 28 seconds 832 msec
