                         Program Version 4.2.1 -  RELEASE  -
|  1> ! wB97X-D3 SP def2-SVP
|  2> %pal
|  3> nprocs 16
|  4> end
|  5>
|  6> * xyz 0 1
|  7> S 	 43.9012 	 12.7331 	 82.0027
|  8> C 	 42.2351 	 12.7964 	 81.5246
|  9> C 	 41.3955 	 13.0745 	 82.5891
| 10> C 	 42.1413 	 13.0959 	 83.8567
| 11> C 	 43.4726 	 12.8002 	 83.7103
| 12> H 	 41.6675 	 13.0768 	 84.8428
| 13> C 	 39.9647 	 13.403 	 82.5185
| 14> H 	 39.8913 	 14.1325 	 81.7425
| 15> H 	 39.7433 	 13.8117 	 83.4991
| 16> C 	 39.0022 	 12.2521 	 82.2202
| 17> H 	 39.4683 	 11.6311 	 81.4771
| 18> H 	 39.0466 	 11.5748 	 83.0536
| 19> C 	 37.5282 	 12.5706 	 81.9368
| 20> H 	 37.4833 	 13.2182 	 81.0409
| 21> H 	 36.9631 	 11.7037 	 81.8241
| 22> H 	 37.1824 	 13.3348 	 82.6896
| 23> S 	 44.5906 	 10.9903 	 85.4361
| 24> C 	 46.046 	 11.4195 	 86.4071
| 25> C 	 46.3268 	 12.7704 	 86.2552
| 26> C 	 45.4637 	 13.412 	 85.3352
| 27> C 	 44.5051 	 12.5995 	 84.7571
| 28> H 	 47.1021 	 13.1809 	 86.9069
| 29> C 	 45.5753 	 14.8718 	 84.9203
| 30> H 	 44.6361 	 15.3408 	 85.1476
| 31> H 	 45.7365 	 15.0206 	 83.8854
| 32> C 	 46.5795 	 15.8283 	 85.6435
| 33> H 	 46.3561 	 15.6897 	 86.65
| 34> H 	 46.3835 	 16.8785 	 85.2839
| 35> C 	 48.0278 	 15.4709 	 85.2293
| 36> H 	 48.1564 	 15.3928 	 84.1326
| 37> H 	 48.2504 	 14.521 	 85.6113
| 38> H 	 48.7779 	 16.133 	 85.6345
| 39> H 	 41.9553 	 12.623 	 80.5211
| 40> H 	 46.6448 	 10.7918 	 87.0517
| 41> *
| 42>
| 43>                          ****END OF INPUT****

CARTESIAN COORDINATES (ANGSTROEM)
---------------------------------
  S     43.901200   12.733100   82.002700
  C     42.235100   12.796400   81.524600
  C     41.395500   13.074500   82.589100
  C     42.141300   13.095900   83.856700
  C     43.472600   12.800200   83.710300
  H     41.667500   13.076800   84.842800
  C     39.964700   13.403000   82.518500
  H     39.891300   14.132500   81.742500
  H     39.743300   13.811700   83.499100
  C     39.002200   12.252100   82.220200
  H     39.468300   11.631100   81.477100
  H     39.046600   11.574800   83.053600
  C     37.528200   12.570600   81.936800
  H     37.483300   13.218200   81.040900
  H     36.963100   11.703700   81.824100
  H     37.182400   13.334800   82.689600
  S     44.590600   10.990300   85.436100
  C     46.046000   11.419500   86.407100
  C     46.326800   12.770400   86.255200
  C     45.463700   13.412000   85.335200
  C     44.505100   12.599500   84.757100
  H     47.102100   13.180900   86.906900
  C     45.575300   14.871800   84.920300
  H     44.636100   15.340800   85.147600
  H     45.736500   15.020600   83.885400
  C     46.579500   15.828300   85.643500
  H     46.356100   15.689700   86.650000
  H     46.383500   16.878500   85.283900
  C     48.027800   15.470900   85.229300
  H     48.156400   15.392800   84.132600
  H     48.250400   14.521000   85.611300
  H     48.777900   16.133000   85.634500
  H     41.955300   12.623000   80.521100
  H     46.644800   10.791800   87.051700

 Total Charge           Charge          ....    0
 Multiplicity           Mult            ....    1
 Number of Electrons    NEL             ....  134
 Basis Dimension        Dim             ....  322

ORBITAL ENERGIES
----------------

  NO   OCC          E(Eh)            E(eV)
   0   2.0000     -88.965675     -2420.8791
   1   2.0000     -88.964054     -2420.8350
   2   2.0000     -10.331675      -281.1392
   3   2.0000     -10.326377      -280.9950
   4   2.0000     -10.322045      -280.8771
   5   2.0000     -10.311681      -280.5951
   6   2.0000     -10.304913      -280.4109
   7   2.0000     -10.302343      -280.3410
   8   2.0000     -10.299239      -280.2565
   9   2.0000     -10.296989      -280.1953
  10   2.0000     -10.286461      -279.9088
  11   2.0000     -10.285775      -279.8902
  12   2.0000     -10.281924      -279.7854
  13   2.0000     -10.281358      -279.7700
  14   2.0000     -10.280805      -279.7549
  15   2.0000     -10.270364      -279.4708
  16   2.0000      -8.079498      -219.8543
  17   2.0000      -8.079003      -219.8408
  18   2.0000      -6.038052      -164.3037
  19   2.0000      -6.037550      -164.2901
  20   2.0000      -6.034063      -164.1952
  21   2.0000      -6.033485      -164.1795
  22   2.0000      -6.030318      -164.0933
  23   2.0000      -6.029708      -164.0767
  24   2.0000      -1.003463       -27.3056
  25   2.0000      -0.982618       -26.7384
  26   2.0000      -0.916214       -24.9314
  27   2.0000      -0.904545       -24.6139
  28   2.0000      -0.869115       -23.6498
  29   2.0000      -0.850544       -23.1445
  30   2.0000      -0.841762       -22.9055
  31   2.0000      -0.820417       -22.3247
  32   2.0000      -0.783204       -21.3121
  33   2.0000      -0.771863       -21.0035
  34   2.0000      -0.708065       -19.2674
  35   2.0000      -0.702687       -19.1211
  36   2.0000      -0.695567       -18.9273
  37   2.0000      -0.656626       -17.8677
  38   2.0000      -0.647218       -17.6117
  39   2.0000      -0.618528       -16.8310
  40   2.0000      -0.598965       -16.2987
  41   2.0000      -0.575067       -15.6484
  42   2.0000      -0.561250       -15.2724
  43   2.0000      -0.551665       -15.0116
  44   2.0000      -0.538630       -14.6569
  45   2.0000      -0.532919       -14.5015
  46   2.0000      -0.518731       -14.1154
  47   2.0000      -0.511914       -13.9299
  48   2.0000      -0.506198       -13.7743
  49   2.0000      -0.498051       -13.5526
  50   2.0000      -0.494950       -13.4683
  51   2.0000      -0.481526       -13.1030
  52   2.0000      -0.474362       -12.9080
  53   2.0000      -0.466344       -12.6899
  54   2.0000      -0.456826       -12.4309
  55   2.0000      -0.446174       -12.1410
  56   2.0000      -0.444634       -12.0991
  57   2.0000      -0.441583       -12.0161
  58   2.0000      -0.434128       -11.8132
  59   2.0000      -0.423984       -11.5372
  60   2.0000      -0.415941       -11.3183
  61   2.0000      -0.410800       -11.1784
  62   2.0000      -0.409075       -11.1315
  63   2.0000      -0.336419        -9.1544
  64   2.0000      -0.333554        -9.0765
  65   2.0000      -0.318335        -8.6623
  66   2.0000      -0.308296        -8.3892
  67   0.0000       0.045183         1.2295
  68   0.0000       0.047806         1.3009
  69   0.0000       0.106852         2.9076
  70   0.0000       0.118475         3.2239
  71   0.0000       0.132785         3.6133

MULLIKEN ATOMIC CHARGES
-----------------------
   0 S :    0.114145
   1 C :   -0.113805
   2 C :   -0.119106
   3 C :    0.053073
   4 C :   -0.174250
   5 H :    0.027243
   6 C :    0.106268
   7 H :    0.024287
   8 H :    0.014974
   9 C :   -0.077709
  10 H :    0.011835
  11 H :    0.010724
  12 C :   -0.011740
  13 H :    0.021800
  14 H :    0.041160
  15 H :    0.031356
  16 S :    0.108384
  17 C :   -0.088898
  18 C :   -0.070008
  19 C :    0.006773
  20 C :   -0.178804
  21 H :    0.038346
  22 C :    0.060447
  23 H :    0.025971
  24 H :    0.022747
  25 C :   -0.071544
  26 H :    0.020874
  27 H :    0.041119
  28 C :   -0.025895
  29 H :    0.032472
  30 H :   -0.001353
  31 H :    0.030723
  32 H :    0.036660
  33 H :    0.051728
Sum of atomic charges:   -0.0000000

LOEWDIN ATOMIC CHARGES
----------------------
   0 S :    0.406448
   1 C :   -0.190249
   2 C :   -0.060230
   3 C :   -0.059137
   4 C :   -0.195032
   5 H :    0.036691
   6 C :   -0.030542
   7 H :    0.029862
   8 H :    0.030683
   9 C :   -0.043131
  10 H :    0.018350
  11 H :    0.020594
  12 C :   -0.060650
  13 H :    0.026203
  14 H :    0.021512
  15 H :    0.033727
  16 S :    0.396124
  17 C :   -0.168969
  18 C :   -0.078714
  19 C :   -0.056154
  20 C :   -0.203571
  21 H :    0.037697
  22 C :   -0.030336
  23 H :    0.032885
  24 H :    0.023324
  25 C :   -0.031905
  26 H :    0.012488
  27 H :    0.033458
  28 C :   -0.065132
  29 H :    0.030258
  30 H :    0.011767
  31 H :    0.022591
  32 H :    0.019030
  33 H :    0.030061

  Mayer bond orders larger than 0.100000
B(  0-S ,  1-C ) :   1.1439 B(  0-S ,  4-C ) :   1.1461 B(  1-C ,  2-C ) :   1.6114
B(  1-C , 32-H ) :   0.9775 B(  2-C ,  3-C ) :   1.2219 B(  2-C ,  6-C ) :   1.0280
B(  3-C ,  4-C ) :   1.6241 B(  3-C ,  5-H ) :   0.9830 B(  4-C , 20-C ) :   0.9896
B(  6-C ,  7-H ) :   0.9346 B(  6-C ,  8-H ) :   0.9314 B(  6-C ,  9-C ) :   1.0654
B(  9-C , 10-H ) :   0.9574 B(  9-C , 11-H ) :   0.9488 B(  9-C , 12-C ) :   1.0798
B( 12-C , 13-H ) :   0.9733 B( 12-C , 14-H ) :   0.9740 B( 12-C , 15-H ) :   0.9714
B( 16-S , 17-C ) :   1.1529 B( 16-S , 20-C ) :   1.1485 B( 17-C , 18-C ) :   1.6186
B( 17-C , 20-C ) :   0.1062 B( 17-C , 33-H ) :   0.9640 B( 18-C , 19-C ) :   1.2386
B( 18-C , 21-H ) :   0.9780 B( 19-C , 20-C ) :   1.6149 B( 19-C , 22-C ) :   1.0224
B( 22-C , 23-H ) :   0.9292 B( 22-C , 24-H ) :   0.9361 B( 22-C , 25-C ) :   1.0843
B( 25-C , 26-H ) :   0.9560 B( 25-C , 27-H ) :   0.9560 B( 25-C , 28-C ) :   1.0738
B( 28-C , 29-H ) :   0.9730 B( 28-C , 30-H ) :   0.9742 B( 28-C , 31-H ) :   0.9736

Dispersion correction           -0.013853179
FINAL SINGLE POINT ENERGY     -1339.869387487011

DIPOLE MOMENT
-------------
                                X             Y             Z
Electronic contribution:      8.98964     -13.39433       0.49133
Nuclear contribution   :     -9.23935      13.68210      -0.37927
                        -----------------------------------------
Total Dipole Moment    :     -0.24971       0.28777       0.11206
                        -----------------------------------------
Magnitude (a.u.)       :      0.39715
Magnitude (Debye)      :      1.00946

Rotational constants in cm-1:     0.025379     0.006483     0.005894
Rotational constants in MHz :   760.840491   194.355374   176.703237

                             ****ORCA TERMINATED NORMALLY****
TOTAL RUN TIME: 0 days 0 hours 0 minutes 29 seconds 265 msec
