                         Program Version 4.2.1 -  RELEASE  -
|  1> ! wB97X-D3 SP def2-SVP
|  2> %pal
|  3> nprocs 16
|  4> end
|  5>
|  6> * xyz 0 1
|  7> S 	 -113.687 	 55.3014 	 113.022
|  8> C 	 -113.703 	 53.8812 	 112.051
|  9> C 	 -113.308 	 52.7544 	 112.748
| 10> C 	 -112.962 	 53.0613 	 114.095
| 11> C 	 -113.218 	 54.3675 	 114.424
| 12> H 	 -112.583 	 52.5317 	 114.975
| 13> C 	 -113.06 	 51.4032 	 112.06
| 14> H 	 -112.059 	 50.9786 	 112.339
| 15> H 	 -113.071 	 51.5719 	 110.958
| 16> C 	 -113.995 	 50.2713 	 112.388
| 17> H 	 -113.748 	 50.0752 	 113.404
| 18> H 	 -114.985 	 50.6716 	 112.42
| 19> C 	 -113.885 	 48.9877 	 111.515
| 20> H 	 -112.889 	 48.6425 	 111.46
| 21> H 	 -114.518 	 48.2496 	 112.025
| 22> H 	 -114.328 	 49.0878 	 110.532
| 23> S 	 -111.678 	 56.1092 	 115.804
| 24> C 	 -112.118 	 56.4538 	 117.444
| 25> C 	 -113.082 	 55.5784 	 117.943
| 26> C 	 -113.557 	 54.6976 	 116.951
| 27> C 	 -112.99 	 54.9477 	 115.694
| 28> H 	 -113.386 	 55.6169 	 118.994
| 29> C 	 -114.674 	 53.6642 	 117.245
| 30> H 	 -115.366 	 53.5537 	 116.396
| 31> H 	 -115.385 	 54.1895 	 117.878
| 32> C 	 -114.195 	 52.3568 	 117.805
| 33> H 	 -113.593 	 52.3737 	 118.654
| 34> H 	 -113.447 	 52.0741 	 117.158
| 35> C 	 -115.35 	 51.3358 	 118.004
| 36> H 	 -115.662 	 50.9665 	 116.992
| 37> H 	 -116.23 	 51.7286 	 118.485
| 38> H 	 -114.875 	 50.393 	 118.328
| 39> H 	 -114.124 	 53.8627 	 111.086
| 40> H 	 -111.676 	 57.3128 	 118.056
| 41> *
| 42>
| 43>                          ****END OF INPUT****

CARTESIAN COORDINATES (ANGSTROEM)
---------------------------------
  S    -113.687000   55.301400  113.022000
  C    -113.703000   53.881200  112.051000
  C    -113.308000   52.754400  112.748000
  C    -112.962000   53.061300  114.095000
  C    -113.218000   54.367500  114.424000
  H    -112.583000   52.531700  114.975000
  C    -113.060000   51.403200  112.060000
  H    -112.059000   50.978600  112.339000
  H    -113.071000   51.571900  110.958000
  C    -113.995000   50.271300  112.388000
  H    -113.748000   50.075200  113.404000
  H    -114.985000   50.671600  112.420000
  C    -113.885000   48.987700  111.515000
  H    -112.889000   48.642500  111.460000
  H    -114.518000   48.249600  112.025000
  H    -114.328000   49.087800  110.532000
  S    -111.678000   56.109200  115.804000
  C    -112.118000   56.453800  117.444000
  C    -113.082000   55.578400  117.943000
  C    -113.557000   54.697600  116.951000
  C    -112.990000   54.947700  115.694000
  H    -113.386000   55.616900  118.994000
  C    -114.674000   53.664200  117.245000
  H    -115.366000   53.553700  116.396000
  H    -115.385000   54.189500  117.878000
  C    -114.195000   52.356800  117.805000
  H    -113.593000   52.373700  118.654000
  H    -113.447000   52.074100  117.158000
  C    -115.350000   51.335800  118.004000
  H    -115.662000   50.966500  116.992000
  H    -116.230000   51.728600  118.485000
  H    -114.875000   50.393000  118.328000
  H    -114.124000   53.862700  111.086000
  H    -111.676000   57.312800  118.056000

 Total Charge           Charge          ....    0
 Multiplicity           Mult            ....    1
 Number of Electrons    NEL             ....  134
 Basis Dimension        Dim             ....  322

ORBITAL ENERGIES
----------------

  NO   OCC          E(Eh)            E(eV)
   0   2.0000     -88.965862     -2420.8842
   1   2.0000     -88.965499     -2420.8743
   2   2.0000     -10.320958      -280.8475
   3   2.0000     -10.320905      -280.8461
   4   2.0000     -10.319853      -280.8175
   5   2.0000     -10.310266      -280.5566
   6   2.0000     -10.304469      -280.3988
   7   2.0000     -10.304359      -280.3959
   8   2.0000     -10.293969      -280.1132
   9   2.0000     -10.293582      -280.1026
  10   2.0000     -10.293267      -280.0940
  11   2.0000     -10.289943      -280.0036
  12   2.0000     -10.283832      -279.8373
  13   2.0000     -10.278709      -279.6979
  14   2.0000     -10.277333      -279.6604
  15   2.0000     -10.275027      -279.5977
  16   2.0000      -8.080949      -219.8938
  17   2.0000      -8.080885      -219.8920
  18   2.0000      -6.039277      -164.3371
  19   2.0000      -6.039196      -164.3349
  20   2.0000      -6.035398      -164.2315
  21   2.0000      -6.035368      -164.2307
  22   2.0000      -6.031835      -164.1346
  23   2.0000      -6.031807      -164.1338
  24   2.0000      -1.011259       -27.5178
  25   2.0000      -0.985809       -26.8252
  26   2.0000      -0.912192       -24.8220
  27   2.0000      -0.910852       -24.7855
  28   2.0000      -0.874353       -23.7924
  29   2.0000      -0.852753       -23.2046
  30   2.0000      -0.848202       -23.0808
  31   2.0000      -0.811584       -22.0843
  32   2.0000      -0.784313       -21.3423
  33   2.0000      -0.771375       -20.9902
  34   2.0000      -0.716503       -19.4970
  35   2.0000      -0.702023       -19.1030
  36   2.0000      -0.693504       -18.8712
  37   2.0000      -0.659784       -17.9536
  38   2.0000      -0.650429       -17.6991
  39   2.0000      -0.612727       -16.6731
  40   2.0000      -0.595459       -16.2033
  41   2.0000      -0.576179       -15.6786
  42   2.0000      -0.560513       -15.2523
  43   2.0000      -0.551702       -15.0126
  44   2.0000      -0.537263       -14.6197
  45   2.0000      -0.523119       -14.2348
  46   2.0000      -0.514579       -14.0024
  47   2.0000      -0.512676       -13.9506
  48   2.0000      -0.504990       -13.7415
  49   2.0000      -0.496627       -13.5139
  50   2.0000      -0.495423       -13.4811
  51   2.0000      -0.480063       -13.0632
  52   2.0000      -0.475703       -12.9445
  53   2.0000      -0.470428       -12.8010
  54   2.0000      -0.458338       -12.4720
  55   2.0000      -0.454719       -12.3735
  56   2.0000      -0.443928       -12.0799
  57   2.0000      -0.437134       -11.8950
  58   2.0000      -0.430862       -11.7244
  59   2.0000      -0.425419       -11.5762
  60   2.0000      -0.419751       -11.4220
  61   2.0000      -0.415564       -11.3081
  62   2.0000      -0.405465       -11.0333
  63   2.0000      -0.341853        -9.3023
  64   2.0000      -0.333259        -9.0685
  65   2.0000      -0.328441        -8.9373
  66   2.0000      -0.295359        -8.0371
  67   0.0000       0.033062         0.8997
  68   0.0000       0.064272         1.7489
  69   0.0000       0.117014         3.1841
  70   0.0000       0.120885         3.2894
  71   0.0000       0.127913         3.4807

MULLIKEN ATOMIC CHARGES
-----------------------
   0 S :    0.124925
   1 C :   -0.109301
   2 C :   -0.047737
   3 C :    0.041251
   4 C :   -0.189127
   5 H :    0.019083
   6 C :    0.036338
   7 H :    0.031515
   8 H :    0.019300
   9 C :   -0.069964
  10 H :    0.011308
  11 H :    0.016750
  12 C :   -0.017898
  13 H :    0.026637
  14 H :    0.034401
  15 H :    0.034700
  16 S :    0.121078
  17 C :   -0.122990
  18 C :   -0.042385
  19 C :   -0.016998
  20 C :   -0.198895
  21 H :    0.026766
  22 C :    0.060700
  23 H :    0.025555
  24 H :    0.007606
  25 C :    0.011806
  26 H :    0.002877
  27 H :   -0.023331
  28 C :   -0.037815
  29 H :    0.022811
  30 H :    0.046682
  31 H :    0.033832
  32 H :    0.038663
  33 H :    0.081858
Sum of atomic charges:    0.0000000

LOEWDIN ATOMIC CHARGES
----------------------
   0 S :    0.419778
   1 C :   -0.193740
   2 C :   -0.062708
   3 C :   -0.059387
   4 C :   -0.204819
   5 H :    0.037457
   6 C :   -0.035145
   7 H :    0.033718
   8 H :    0.026878
   9 C :   -0.043637
  10 H :    0.017683
  11 H :    0.018170
  12 C :   -0.056283
  13 H :    0.019494
  14 H :    0.032660
  15 H :    0.025921
  16 S :    0.414722
  17 C :   -0.202793
  18 C :   -0.076852
  19 C :   -0.051069
  20 C :   -0.206775
  21 H :    0.036826
  22 C :   -0.032046
  23 H :    0.034869
  24 H :    0.025510
  25 C :   -0.038900
  26 H :    0.018106
  27 H :    0.013992
  28 C :   -0.064821
  29 H :    0.029586
  30 H :    0.026679
  31 H :    0.032846
  32 H :    0.020573
  33 H :    0.043505

  Mayer bond orders larger than 0.100000
B(  0-S ,  1-C ) :   1.1525 B(  0-S ,  4-C ) :   1.1468 B(  1-C ,  2-C ) :   1.6077
B(  1-C , 32-H ) :   0.9709 B(  2-C ,  3-C ) :   1.2042 B(  2-C ,  6-C ) :   1.0267
B(  3-C ,  4-C ) :   1.5955 B(  3-C ,  5-H ) :   0.9910 B(  4-C , 20-C ) :   1.0542
B(  6-C ,  7-H ) :   0.9447 B(  6-C ,  8-H ) :   0.9471 B(  6-C ,  9-C ) :   1.0529
B(  9-C , 10-H ) :   0.9574 B(  9-C , 11-H ) :   0.9548 B(  9-C , 12-C ) :   1.0840
B( 12-C , 13-H ) :   0.9745 B( 12-C , 14-H ) :   0.9738 B( 12-C , 15-H ) :   0.9753
B( 16-S , 17-C ) :   1.1651 B( 16-S , 20-C ) :   1.1545 B( 17-C , 18-C ) :   1.5894
B( 17-C , 20-C ) :   0.1085 B( 17-C , 33-H ) :   0.9570 B( 18-C , 19-C ) :   1.2632
B( 18-C , 21-H ) :   0.9889 B( 19-C , 20-C ) :   1.5731 B( 19-C , 22-C ) :   1.0350
B( 22-C , 23-H ) :   0.9374 B( 22-C , 24-H ) :   0.9335 B( 22-C , 25-C ) :   1.0507
B( 25-C , 26-H ) :   0.9471 B( 25-C , 27-H ) :   0.9395 B( 25-C , 28-C ) :   1.0814
B( 28-C , 29-H ) :   0.9729 B( 28-C , 30-H ) :   0.9767 B( 28-C , 31-H ) :   0.9705

Dispersion correction           -0.014069442
FINAL SINGLE POINT ENERGY     -1339.863192667446

DIPOLE MOMENT
-------------
                                X             Y             Z
Electronic contribution:     10.26429      30.20703      -2.19583
Nuclear contribution   :    -10.45321     -30.74840       2.38909
                        -----------------------------------------
Total Dipole Moment    :     -0.18892      -0.54137       0.19326
                        -----------------------------------------
Magnitude (a.u.)       :      0.60508
Magnitude (Debye)      :      1.53799

Rotational constants in cm-1:     0.017534     0.008924     0.006479
Rotational constants in MHz :   525.665519   267.522695   194.235251

                             ****ORCA TERMINATED NORMALLY****
TOTAL RUN TIME: 0 days 0 hours 0 minutes 33 seconds 16 msec
