                         Program Version 4.2.1 -  RELEASE  -
|  1> ! wB97X-D3 SP def2-SVP
|  2> %pal
|  3> nprocs 16
|  4> end
|  5>
|  6> * xyz 0 1
|  7> S 	 -33.7358 	 71.1106 	 168.301
|  8> C 	 -32.8654 	 71.6343 	 166.93
|  9> C 	 -33.0566 	 72.9583 	 166.56
| 10> C 	 -33.8737 	 73.5915 	 167.559
| 11> C 	 -34.3871 	 72.7153 	 168.49
| 12> H 	 -34.1333 	 74.6196 	 167.639
| 13> C 	 -32.4225 	 73.6942 	 165.359
| 14> H 	 -33.0379 	 74.55 	 165.196
| 15> H 	 -32.471 	 73.0136 	 164.514
| 16> C 	 -30.9567 	 74.0131 	 165.527
| 17> H 	 -30.9069 	 74.4478 	 166.491
| 18> H 	 -30.4694 	 73.0577 	 165.647
| 19> C 	 -30.396 	 75.0625 	 164.571
| 20> H 	 -29.4265 	 74.7384 	 164.338
| 21> H 	 -30.9769 	 75.1619 	 163.653
| 22> H 	 -30.3371 	 76.0308 	 165.09
| 23> S 	 -34.714 	 72.4501 	 171.217
| 24> C 	 -35.9087 	 73.3854 	 172.077
| 25> C 	 -36.7362 	 74.0458 	 171.2
| 26> C 	 -36.3481 	 73.819 	 169.831
| 27> C 	 -35.1551 	 73.0968 	 169.659
| 28> H 	 -37.5815 	 74.6532 	 171.533
| 29> C 	 -37.1687 	 74.4386 	 168.72
| 30> H 	 -36.6532 	 74.1564 	 167.854
| 31> H 	 -37.0698 	 75.5469 	 168.792
| 32> C 	 -38.6208 	 74.0099 	 168.552
| 33> H 	 -39.111 	 74.5176 	 167.743
| 34> H 	 -39.1763 	 74.237 	 169.511
| 35> C 	 -38.6479 	 72.538 	 168.357
| 36> H 	 -38.5043 	 71.9879 	 169.275
| 37> H 	 -37.9193 	 72.2272 	 167.626
| 38> H 	 -39.5755 	 72.2341 	 167.893
| 39> H 	 -32.1086 	 71.1026 	 166.525
| 40> H 	 -35.9049 	 73.5892 	 173.117
| 41> *
| 42>
| 43>                          ****END OF INPUT****

CARTESIAN COORDINATES (ANGSTROEM)
---------------------------------
  S    -33.735800   71.110600  168.301000
  C    -32.865400   71.634300  166.930000
  C    -33.056600   72.958300  166.560000
  C    -33.873700   73.591500  167.559000
  C    -34.387100   72.715300  168.490000
  H    -34.133300   74.619600  167.639000
  C    -32.422500   73.694200  165.359000
  H    -33.037900   74.550000  165.196000
  H    -32.471000   73.013600  164.514000
  C    -30.956700   74.013100  165.527000
  H    -30.906900   74.447800  166.491000
  H    -30.469400   73.057700  165.647000
  C    -30.396000   75.062500  164.571000
  H    -29.426500   74.738400  164.338000
  H    -30.976900   75.161900  163.653000
  H    -30.337100   76.030800  165.090000
  S    -34.714000   72.450100  171.217000
  C    -35.908700   73.385400  172.077000
  C    -36.736200   74.045800  171.200000
  C    -36.348100   73.819000  169.831000
  C    -35.155100   73.096800  169.659000
  H    -37.581500   74.653200  171.533000
  C    -37.168700   74.438600  168.720000
  H    -36.653200   74.156400  167.854000
  H    -37.069800   75.546900  168.792000
  C    -38.620800   74.009900  168.552000
  H    -39.111000   74.517600  167.743000
  H    -39.176300   74.237000  169.511000
  C    -38.647900   72.538000  168.357000
  H    -38.504300   71.987900  169.275000
  H    -37.919300   72.227200  167.626000
  H    -39.575500   72.234100  167.893000
  H    -32.108600   71.102600  166.525000
  H    -35.904900   73.589200  173.117000

 Total Charge           Charge          ....    0
 Multiplicity           Mult            ....    1
 Number of Electrons    NEL             ....  134
 Basis Dimension        Dim             ....  322

ORBITAL ENERGIES
----------------

  NO   OCC          E(Eh)            E(eV)
   0   2.0000     -88.969287     -2420.9774
   1   2.0000     -88.962286     -2420.7869
   2   2.0000     -10.327165      -281.0164
   3   2.0000     -10.326660      -281.0027
   4   2.0000     -10.314564      -280.6735
   5   2.0000     -10.303210      -280.3646
   6   2.0000     -10.303145      -280.3628
   7   2.0000     -10.302732      -280.3516
   8   2.0000     -10.293953      -280.1127
   9   2.0000     -10.292477      -280.0725
  10   2.0000     -10.289582      -279.9938
  11   2.0000     -10.282042      -279.7886
  12   2.0000     -10.281046      -279.7615
  13   2.0000     -10.277881      -279.6754
  14   2.0000     -10.277202      -279.6569
  15   2.0000     -10.262185      -279.2483
  16   2.0000      -8.084843      -219.9998
  17   2.0000      -8.077418      -219.7977
  18   2.0000      -6.043195      -164.4437
  19   2.0000      -6.039303      -164.3378
  20   2.0000      -6.035974      -164.2472
  21   2.0000      -6.035665      -164.2388
  22   2.0000      -6.031786      -164.1332
  23   2.0000      -6.028181      -164.0352
  24   2.0000      -1.010326       -27.4924
  25   2.0000      -0.986700       -26.8495
  26   2.0000      -0.917531       -24.9673
  27   2.0000      -0.913929       -24.8693
  28   2.0000      -0.873292       -23.7635
  29   2.0000      -0.855573       -23.2813
  30   2.0000      -0.844471       -22.9792
  31   2.0000      -0.817690       -22.2505
  32   2.0000      -0.785338       -21.3701
  33   2.0000      -0.770897       -20.9772
  34   2.0000      -0.707026       -19.2392
  35   2.0000      -0.703854       -19.1529
  36   2.0000      -0.694725       -18.9044
  37   2.0000      -0.659318       -17.9410
  38   2.0000      -0.647543       -17.6205
  39   2.0000      -0.620247       -16.8778
  40   2.0000      -0.595261       -16.1979
  41   2.0000      -0.574927       -15.6446
  42   2.0000      -0.566979       -15.4283
  43   2.0000      -0.556339       -15.1388
  44   2.0000      -0.545814       -14.8524
  45   2.0000      -0.527456       -14.3528
  46   2.0000      -0.518919       -14.1205
  47   2.0000      -0.514496       -14.0002
  48   2.0000      -0.505309       -13.7502
  49   2.0000      -0.502832       -13.6827
  50   2.0000      -0.494567       -13.4578
  51   2.0000      -0.477741       -13.0000
  52   2.0000      -0.471798       -12.8383
  53   2.0000      -0.467332       -12.7168
  54   2.0000      -0.458016       -12.4632
  55   2.0000      -0.452469       -12.3123
  56   2.0000      -0.444947       -12.1076
  57   2.0000      -0.439063       -11.9475
  58   2.0000      -0.432034       -11.7563
  59   2.0000      -0.427640       -11.6367
  60   2.0000      -0.416821       -11.3423
  61   2.0000      -0.412605       -11.2275
  62   2.0000      -0.410981       -11.1834
  63   2.0000      -0.351457        -9.5636
  64   2.0000      -0.332815        -9.0563
  65   2.0000      -0.325989        -8.8706
  66   2.0000      -0.288424        -7.8484
  67   0.0000       0.029062         0.7908
  68   0.0000       0.070825         1.9272
  69   0.0000       0.109765         2.9869
  70   0.0000       0.122547         3.3347
  71   0.0000       0.135878         3.6974

MULLIKEN ATOMIC CHARGES
-----------------------
   0 S :    0.127941
   1 C :   -0.078770
   2 C :   -0.109280
   3 C :    0.023229
   4 C :   -0.154828
   5 H :    0.006077
   6 C :    0.098792
   7 H :    0.013094
   8 H :    0.026202
   9 C :   -0.079033
  10 H :    0.016138
  11 H :    0.020256
  12 C :   -0.006079
  13 H :    0.024206
  14 H :    0.033684
  15 H :    0.041440
  16 S :    0.094057
  17 C :   -0.076054
  18 C :   -0.034340
  19 C :   -0.081509
  20 C :   -0.143436
  21 H :    0.029830
  22 C :    0.070729
  23 H :   -0.004987
  24 H :    0.036594
  25 C :   -0.055163
  26 H :    0.029036
  27 H :    0.028127
  28 C :   -0.032587
  29 H :    0.044384
  30 H :    0.019750
  31 H :    0.018298
  32 H :    0.003687
  33 H :    0.050513
Sum of atomic charges:   -0.0000000

LOEWDIN ATOMIC CHARGES
----------------------
   0 S :    0.429074
   1 C :   -0.195577
   2 C :   -0.052668
   3 C :   -0.055734
   4 C :   -0.200122
   5 H :    0.027185
   6 C :   -0.023846
   7 H :    0.024118
   8 H :    0.030317
   9 C :   -0.044136
  10 H :    0.021098
  11 H :    0.021264
  12 C :   -0.056928
  13 H :    0.023285
  14 H :    0.026034
  15 H :    0.033591
  16 S :    0.404290
  17 C :   -0.180163
  18 C :   -0.072012
  19 C :   -0.055874
  20 C :   -0.202800
  21 H :    0.035374
  22 C :   -0.036274
  23 H :    0.016646
  24 H :    0.032543
  25 C :   -0.039493
  26 H :    0.023858
  27 H :    0.026049
  28 C :   -0.062397
  29 H :    0.028601
  30 H :    0.023579
  31 H :    0.022962
  32 H :    0.002624
  33 H :    0.025531

  Mayer bond orders larger than 0.100000
B(  0-S ,  1-C ) :   1.1557 B(  0-S ,  4-C ) :   1.1450 B(  1-C ,  2-C ) :   1.6029
B(  1-C , 32-H ) :   0.9748 B(  2-C ,  3-C ) :   1.2442 B(  2-C ,  6-C ) :   1.0196
B(  3-C ,  4-C ) :   1.5744 B(  3-C ,  5-H ) :   0.9952 B(  4-C , 20-C ) :   1.0573
B(  6-C ,  7-H ) :   0.9402 B(  6-C ,  8-H ) :   0.9333 B(  6-C ,  9-C ) :   1.0709
B(  9-C , 10-H ) :   0.9599 B(  9-C , 11-H ) :   0.9590 B(  9-C , 12-C ) :   1.0613
B( 12-C , 13-H ) :   0.9728 B( 12-C , 14-H ) :   0.9781 B( 12-C , 15-H ) :   0.9786
B( 16-S , 17-C ) :   1.1598 B( 16-S , 20-C ) :   1.1325 B( 17-C , 18-C ) :   1.6003
B( 17-C , 33-H ) :   0.9700 B( 18-C , 19-C ) :   1.2402 B( 18-C , 21-H ) :   0.9904
B( 19-C , 20-C ) :   1.5748 B( 19-C , 22-C ) :   1.0403 B( 22-C , 23-H ) :   0.9277
B( 22-C , 24-H ) :   0.9357 B( 22-C , 25-C ) :   1.0786 B( 25-C , 26-H ) :   0.9547
B( 25-C , 27-H ) :   0.9528 B( 25-C , 28-C ) :   1.0825 B( 28-C , 29-H ) :   0.9702
B( 28-C , 30-H ) :   0.9745 B( 28-C , 31-H ) :   0.9701

Dispersion correction           -0.014278880
FINAL SINGLE POINT ENERGY     -1339.871965968703

DIPOLE MOMENT
-------------
                                X             Y             Z
Electronic contribution:      2.17647     -12.96033      18.53847
Nuclear contribution   :     -2.13913      13.48918     -18.87012
                        -----------------------------------------
Total Dipole Moment    :      0.03734       0.52886      -0.33165
                        -----------------------------------------
Magnitude (a.u.)       :      0.62536
Magnitude (Debye)      :      1.58954

Rotational constants in cm-1:     0.021568     0.007386     0.006654
Rotational constants in MHz :   646.605339   221.426405   199.496792

                             ****ORCA TERMINATED NORMALLY****
TOTAL RUN TIME: 0 days 0 hours 0 minutes 34 seconds 38 msec
