                         Program Version 4.2.1 -  RELEASE  -
|  1> ! wB97X-D3 SP def2-SVP
|  2> %pal
|  3> nprocs 16
|  4> end
|  5>
|  6> * xyz 0 1
|  7> S 	 50.7367 	 19.1226 	 92.2336
|  8> C 	 49.398 	 20.1746 	 91.8668
|  9> C 	 49.2287 	 20.2417 	 90.5075
| 10> C 	 50.2829 	 19.6654 	 89.7555
| 11> C 	 51.279 	 19.1038 	 90.5788
| 12> H 	 50.4682 	 19.7529 	 88.6622
| 13> C 	 48.1268 	 21.0402 	 89.8509
| 14> H 	 47.6591 	 21.5078 	 90.7446
| 15> H 	 47.4121 	 20.2851 	 89.4634
| 16> C 	 48.5598 	 22.0677 	 88.7853
| 17> H 	 49.1784 	 22.867 	 89.2437
| 18> H 	 49.1853 	 21.5596 	 87.9844
| 19> C 	 47.3357 	 22.7205 	 88.1659
| 20> H 	 46.7899 	 23.3688 	 88.8194
| 21> H 	 47.6727 	 23.4517 	 87.4923
| 22> H 	 46.6956 	 22.0163 	 87.6929
| 23> S 	 53.4701 	 19.9504 	 89.2853
| 24> C 	 54.9111 	 19.0141 	 89.2316
| 25> C 	 54.6894 	 17.7821 	 89.8013
| 26> C 	 53.3905 	 17.5883 	 90.2625
| 27> C 	 52.6126 	 18.7672 	 90.1194
| 28> H 	 55.4466 	 16.9945 	 89.8852
| 29> C 	 52.8091 	 16.3393 	 90.909
| 30> H 	 51.7371 	 16.4509 	 90.8882
| 31> H 	 53.1284 	 16.2795 	 91.975
| 32> C 	 53.0095 	 15.0665 	 90.0829
| 33> H 	 54.0678 	 14.8062 	 90.2386
| 34> H 	 53.0096 	 15.3149 	 88.9956
| 35> C 	 52.1287 	 13.8989 	 90.5533
| 36> H 	 51.1206 	 14.1811 	 90.4611
| 37> H 	 52.3624 	 13.5753 	 91.5457
| 38> H 	 52.3144 	 13.0301 	 89.9001
| 39> H 	 48.7379 	 20.5369 	 92.6657
| 40> H 	 55.8279 	 19.2452 	 88.7299
| 41> *
| 42>
| 43>                          ****END OF INPUT****

CARTESIAN COORDINATES (ANGSTROEM)
---------------------------------
  S     50.736700   19.122600   92.233600
  C     49.398000   20.174600   91.866800
  C     49.228700   20.241700   90.507500
  C     50.282900   19.665400   89.755500
  C     51.279000   19.103800   90.578800
  H     50.468200   19.752900   88.662200
  C     48.126800   21.040200   89.850900
  H     47.659100   21.507800   90.744600
  H     47.412100   20.285100   89.463400
  C     48.559800   22.067700   88.785300
  H     49.178400   22.867000   89.243700
  H     49.185300   21.559600   87.984400
  C     47.335700   22.720500   88.165900
  H     46.789900   23.368800   88.819400
  H     47.672700   23.451700   87.492300
  H     46.695600   22.016300   87.692900
  S     53.470100   19.950400   89.285300
  C     54.911100   19.014100   89.231600
  C     54.689400   17.782100   89.801300
  C     53.390500   17.588300   90.262500
  C     52.612600   18.767200   90.119400
  H     55.446600   16.994500   89.885200
  C     52.809100   16.339300   90.909000
  H     51.737100   16.450900   90.888200
  H     53.128400   16.279500   91.975000
  C     53.009500   15.066500   90.082900
  H     54.067800   14.806200   90.238600
  H     53.009600   15.314900   88.995600
  C     52.128700   13.898900   90.553300
  H     51.120600   14.181100   90.461100
  H     52.362400   13.575300   91.545700
  H     52.314400   13.030100   89.900100
  H     48.737900   20.536900   92.665700
  H     55.827900   19.245200   88.729900

 Total Charge           Charge          ....    0
 Multiplicity           Mult            ....    1
 Number of Electrons    NEL             ....  134
 Basis Dimension        Dim             ....  322

ORBITAL ENERGIES
----------------

  NO   OCC          E(Eh)            E(eV)
   0   2.0000     -88.967191     -2420.9204
   1   2.0000     -88.963734     -2420.8263
   2   2.0000     -10.328186      -281.0442
   3   2.0000     -10.318904      -280.7917
   4   2.0000     -10.312913      -280.6286
   5   2.0000     -10.310316      -280.5580
   6   2.0000     -10.296913      -280.1932
   7   2.0000     -10.296219      -280.1744
   8   2.0000     -10.295078      -280.1433
   9   2.0000     -10.294152      -280.1181
  10   2.0000     -10.292503      -280.0732
  11   2.0000     -10.289111      -279.9809
  12   2.0000     -10.286344      -279.9057
  13   2.0000     -10.285335      -279.8782
  14   2.0000     -10.273502      -279.5562
  15   2.0000     -10.267776      -279.4004
  16   2.0000      -8.083170      -219.9542
  17   2.0000      -8.078667      -219.8317
  18   2.0000      -6.041412      -164.3952
  19   2.0000      -6.037300      -164.2833
  20   2.0000      -6.037098      -164.2778
  21   2.0000      -6.034332      -164.2025
  22   2.0000      -6.033132      -164.1699
  23   2.0000      -6.029510      -164.0713
  24   2.0000      -1.013742       -27.5853
  25   2.0000      -0.989783       -26.9334
  26   2.0000      -0.910484       -24.7755
  27   2.0000      -0.908327       -24.7168
  28   2.0000      -0.873621       -23.7724
  29   2.0000      -0.853760       -23.2320
  30   2.0000      -0.846517       -23.0349
  31   2.0000      -0.813694       -22.1417
  32   2.0000      -0.781099       -21.2548
  33   2.0000      -0.768874       -20.9221
  34   2.0000      -0.708864       -19.2892
  35   2.0000      -0.700300       -19.0561
  36   2.0000      -0.690535       -18.7904
  37   2.0000      -0.656648       -17.8683
  38   2.0000      -0.635860       -17.3026
  39   2.0000      -0.613831       -16.7032
  40   2.0000      -0.597787       -16.2666
  41   2.0000      -0.573697       -15.6111
  42   2.0000      -0.566221       -15.4077
  43   2.0000      -0.559918       -15.2361
  44   2.0000      -0.527697       -14.3594
  45   2.0000      -0.520279       -14.1575
  46   2.0000      -0.516029       -14.0419
  47   2.0000      -0.514217       -13.9925
  48   2.0000      -0.506857       -13.7923
  49   2.0000      -0.500858       -13.6290
  50   2.0000      -0.487822       -13.2743
  51   2.0000      -0.484299       -13.1785
  52   2.0000      -0.474941       -12.9238
  53   2.0000      -0.470289       -12.7972
  54   2.0000      -0.462940       -12.5972
  55   2.0000      -0.449098       -12.2206
  56   2.0000      -0.441585       -12.0161
  57   2.0000      -0.436330       -11.8732
  58   2.0000      -0.434497       -11.8233
  59   2.0000      -0.422367       -11.4932
  60   2.0000      -0.420485       -11.4420
  61   2.0000      -0.412629       -11.2282
  62   2.0000      -0.404405       -11.0044
  63   2.0000      -0.343746        -9.3538
  64   2.0000      -0.332224        -9.0403
  65   2.0000      -0.327244        -8.9048
  66   2.0000      -0.290409        -7.9024
  67   0.0000       0.032638         0.8881
  68   0.0000       0.067230         1.8294
  69   0.0000       0.114151         3.1062
  70   0.0000       0.131855         3.5880
  71   0.0000       0.135678         3.6920

MULLIKEN ATOMIC CHARGES
-----------------------
   0 S :    0.116103
   1 C :   -0.151144
   2 C :   -0.071020
   3 C :   -0.007002
   4 C :   -0.153139
   5 H :    0.032574
   6 C :    0.062002
   7 H :    0.016062
   8 H :    0.042504
   9 C :   -0.111711
  10 H :    0.040547
  11 H :    0.043986
  12 C :    0.007659
  13 H :    0.017389
  14 H :    0.012951
  15 H :    0.027795
  16 S :    0.138492
  17 C :   -0.087845
  18 C :   -0.041987
  19 C :   -0.050385
  20 C :   -0.173537
  21 H :    0.017550
  22 C :    0.080152
  23 H :    0.013295
  24 H :    0.049001
  25 C :   -0.131158
  26 H :    0.019417
  27 H :    0.043530
  28 C :   -0.001165
  29 H :    0.027460
  30 H :    0.027962
  31 H :    0.033460
  32 H :    0.061304
  33 H :    0.048900
Sum of atomic charges:   -0.0000000

LOEWDIN ATOMIC CHARGES
----------------------
   0 S :    0.413101
   1 C :   -0.205570
   2 C :   -0.070487
   3 C :   -0.073106
   4 C :   -0.198018
   5 H :    0.035387
   6 C :   -0.037102
   7 H :    0.031763
   8 H :    0.036228
   9 C :   -0.041439
  10 H :    0.031376
  11 H :    0.029404
  12 C :   -0.059765
  13 H :    0.024160
  14 H :    0.022366
  15 H :    0.021397
  16 S :    0.467305
  17 C :   -0.204144
  18 C :   -0.073367
  19 C :   -0.061591
  20 C :   -0.226095
  21 H :    0.032701
  22 C :   -0.037159
  23 H :    0.022859
  24 H :    0.036292
  25 C :   -0.047482
  26 H :    0.018457
  27 H :    0.030689
  28 C :   -0.055101
  29 H :    0.018902
  30 H :    0.024710
  31 H :    0.031706
  32 H :    0.033303
  33 H :    0.028320

  Mayer bond orders larger than 0.100000
B(  0-S ,  1-C ) :   1.1395 B(  0-S ,  4-C ) :   1.1627 B(  1-C ,  2-C ) :   1.5982
B(  1-C , 32-H ) :   0.9670 B(  2-C ,  3-C ) :   1.2366 B(  2-C ,  6-C ) :   1.0194
B(  3-C ,  4-C ) :   1.5433 B(  3-C ,  5-H ) :   0.9904 B(  4-C , 20-C ) :   1.0351
B(  6-C ,  7-H ) :   0.9441 B(  6-C ,  8-H ) :   0.9312 B(  6-C ,  9-C ) :   1.0646
B(  9-C , 10-H ) :   0.9543 B(  9-C , 11-H ) :   0.9510 B(  9-C , 12-C ) :   1.0948
B( 12-C , 13-H ) :   0.9700 B( 12-C , 14-H ) :   0.9676 B( 12-C , 15-H ) :   0.9750
B( 16-S , 17-C ) :   1.1786 B( 16-S , 20-C ) :   1.1907 B( 17-C , 18-C ) :   1.5394
B( 17-C , 20-C ) :   0.1074 B( 17-C , 33-H ) :   0.9718 B( 18-C , 19-C ) :   1.3197
B( 18-C , 21-H ) :   0.9882 B( 19-C , 20-C ) :   1.5115 B( 19-C , 22-C ) :   1.0419
B( 22-C , 23-H ) :   0.9328 B( 22-C , 24-H ) :   0.9316 B( 22-C , 25-C ) :   1.0517
B( 25-C , 26-H ) :   0.9508 B( 25-C , 27-H ) :   0.9612 B( 25-C , 28-C ) :   1.0843
B( 28-C , 29-H ) :   0.9772 B( 28-C , 30-H ) :   0.9717 B( 28-C , 31-H ) :   0.9729

Dispersion correction           -0.013732683
FINAL SINGLE POINT ENERGY     -1339.884045688135

DIPOLE MOMENT
-------------
                                X             Y             Z
Electronic contribution:     12.18887       6.16719       7.49227
Nuclear contribution   :    -12.36920      -6.19920      -7.71096
                        -----------------------------------------
Total Dipole Moment    :     -0.18033      -0.03201      -0.21869
                        -----------------------------------------
Magnitude (a.u.)       :      0.28525
Magnitude (Debye)      :      0.72506

Rotational constants in cm-1:     0.020553     0.007515     0.006465
Rotational constants in MHz :   616.153755   225.297654   193.809832

                             ****ORCA TERMINATED NORMALLY****
TOTAL RUN TIME: 0 days 0 hours 0 minutes 27 seconds 814 msec
