                         Program Version 4.2.1 -  RELEASE  -
|  1> ! wB97X-D3 SP def2-SVP
|  2> %pal
|  3> nprocs 16
|  4> end
|  5>
|  6> * xyz 0 1
|  7> S 	 38.5845 	 29.2811 	 53.4556
|  8> C 	 38.927 	 30.8384 	 53.0267
|  9> C 	 38.6644 	 31.7028 	 54.0727
| 10> C 	 38.0129 	 31.0436 	 55.1555
| 11> C 	 37.8149 	 29.7195 	 54.93
| 12> H 	 37.5381 	 31.4839 	 56.0231
| 13> C 	 38.9144 	 33.2112 	 54.0319
| 14> H 	 39.8839 	 33.4968 	 53.7245
| 15> H 	 38.8882 	 33.4604 	 55.0694
| 16> C 	 37.9299 	 34.1715 	 53.3822
| 17> H 	 37.9531 	 35.1278 	 53.8757
| 18> H 	 38.1118 	 34.3876 	 52.3235
| 19> C 	 36.4718 	 33.7125 	 53.709
| 20> H 	 36.1504 	 32.866 	 53.006
| 21> H 	 36.2785 	 33.4269 	 54.7297
| 22> H 	 35.8191 	 34.519 	 53.4135
| 23> S 	 36.0601 	 27.5837 	 54.878
| 24> C 	 35.6018 	 26.7525 	 56.3946
| 25> C 	 36.1081 	 27.4478 	 57.4754
| 26> C 	 37.0226 	 28.4599 	 57.0956
| 27> C 	 37.1417 	 28.676 	 55.7304
| 28> H 	 35.8539 	 27.2811 	 58.4995
| 29> C 	 37.6605 	 29.1878 	 58.2349
| 30> H 	 38.5023 	 29.7316 	 57.8033
| 31> H 	 38.2316 	 28.5183 	 58.908
| 32> C 	 36.8153 	 30.1396 	 59.0606
| 33> H 	 36.4552 	 29.512 	 59.9004
| 34> H 	 36.0003 	 30.4172 	 58.3941
| 35> C 	 37.6828 	 31.3613 	 59.5131
| 36> H 	 37.232 	 31.9151 	 60.3712
| 37> H 	 37.9763 	 32.1212 	 58.8215
| 38> H 	 38.6277 	 30.948 	 59.8762
| 39> H 	 39.5319 	 31.1406 	 52.2108
| 40> H 	 34.8621 	 25.904 	 56.3864
| 41> *
| 42>
| 43>                          ****END OF INPUT****

CARTESIAN COORDINATES (ANGSTROEM)
---------------------------------
  S     38.584500   29.281100   53.455600
  C     38.927000   30.838400   53.026700
  C     38.664400   31.702800   54.072700
  C     38.012900   31.043600   55.155500
  C     37.814900   29.719500   54.930000
  H     37.538100   31.483900   56.023100
  C     38.914400   33.211200   54.031900
  H     39.883900   33.496800   53.724500
  H     38.888200   33.460400   55.069400
  C     37.929900   34.171500   53.382200
  H     37.953100   35.127800   53.875700
  H     38.111800   34.387600   52.323500
  C     36.471800   33.712500   53.709000
  H     36.150400   32.866000   53.006000
  H     36.278500   33.426900   54.729700
  H     35.819100   34.519000   53.413500
  S     36.060100   27.583700   54.878000
  C     35.601800   26.752500   56.394600
  C     36.108100   27.447800   57.475400
  C     37.022600   28.459900   57.095600
  C     37.141700   28.676000   55.730400
  H     35.853900   27.281100   58.499500
  C     37.660500   29.187800   58.234900
  H     38.502300   29.731600   57.803300
  H     38.231600   28.518300   58.908000
  C     36.815300   30.139600   59.060600
  H     36.455200   29.512000   59.900400
  H     36.000300   30.417200   58.394100
  C     37.682800   31.361300   59.513100
  H     37.232000   31.915100   60.371200
  H     37.976300   32.121200   58.821500
  H     38.627700   30.948000   59.876200
  H     39.531900   31.140600   52.210800
  H     34.862100   25.904000   56.386400

 Total Charge           Charge          ....    0
 Multiplicity           Mult            ....    1
 Number of Electrons    NEL             ....  134
 Basis Dimension        Dim             ....  322

ORBITAL ENERGIES
----------------

  NO   OCC          E(Eh)            E(eV)
   0   2.0000     -88.964776     -2420.8546
   1   2.0000     -88.962864     -2420.8026
   2   2.0000     -10.331537      -281.1354
   3   2.0000     -10.326551      -280.9997
   4   2.0000     -10.326003      -280.9848
   5   2.0000     -10.303618      -280.3757
   6   2.0000     -10.299332      -280.2591
   7   2.0000     -10.299286      -280.2578
   8   2.0000     -10.293043      -280.0879
   9   2.0000     -10.292699      -280.0786
  10   2.0000     -10.292258      -280.0666
  11   2.0000     -10.285054      -279.8706
  12   2.0000     -10.284668      -279.8601
  13   2.0000     -10.284616      -279.8586
  14   2.0000     -10.282947      -279.8132
  15   2.0000     -10.275972      -279.6234
  16   2.0000      -8.080250      -219.8748
  17   2.0000      -8.078933      -219.8389
  18   2.0000      -6.038417      -164.3137
  19   2.0000      -6.037562      -164.2904
  20   2.0000      -6.034217      -164.1994
  21   2.0000      -6.033473      -164.1791
  22   2.0000      -6.031357      -164.1216
  23   2.0000      -6.029639      -164.0748
  24   2.0000      -1.018577       -27.7169
  25   2.0000      -0.989571       -26.9276
  26   2.0000      -0.913132       -24.8476
  27   2.0000      -0.909926       -24.7603
  28   2.0000      -0.872119       -23.7316
  29   2.0000      -0.852040       -23.1852
  30   2.0000      -0.844492       -22.9798
  31   2.0000      -0.816550       -22.2195
  32   2.0000      -0.781594       -21.2683
  33   2.0000      -0.772367       -21.0172
  34   2.0000      -0.707990       -19.2654
  35   2.0000      -0.701205       -19.0808
  36   2.0000      -0.693884       -18.8816
  37   2.0000      -0.667375       -18.1602
  38   2.0000      -0.648198       -17.6384
  39   2.0000      -0.616424       -16.7737
  40   2.0000      -0.599910       -16.3244
  41   2.0000      -0.570188       -15.5156
  42   2.0000      -0.564875       -15.3710
  43   2.0000      -0.554218       -15.0811
  44   2.0000      -0.546516       -14.8715
  45   2.0000      -0.522226       -14.2105
  46   2.0000      -0.517854       -14.0915
  47   2.0000      -0.509353       -13.8602
  48   2.0000      -0.507029       -13.7969
  49   2.0000      -0.495164       -13.4741
  50   2.0000      -0.491978       -13.3874
  51   2.0000      -0.488010       -13.2794
  52   2.0000      -0.471343       -12.8259
  53   2.0000      -0.468564       -12.7503
  54   2.0000      -0.461519       -12.5586
  55   2.0000      -0.444449       -12.0941
  56   2.0000      -0.443193       -12.0599
  57   2.0000      -0.434189       -11.8149
  58   2.0000      -0.431737       -11.7482
  59   2.0000      -0.424680       -11.5561
  60   2.0000      -0.417782       -11.3684
  61   2.0000      -0.415173       -11.2974
  62   2.0000      -0.402759       -10.9596
  63   2.0000      -0.356510        -9.7011
  64   2.0000      -0.331022        -9.0076
  65   2.0000      -0.329932        -8.9779
  66   2.0000      -0.292688        -7.9644
  67   0.0000       0.029244         0.7958
  68   0.0000       0.075804         2.0627
  69   0.0000       0.110268         3.0005
  70   0.0000       0.116546         3.1714
  71   0.0000       0.124265         3.3814

MULLIKEN ATOMIC CHARGES
-----------------------
   0 S :    0.126702
   1 C :   -0.075777
   2 C :   -0.128259
   3 C :    0.023270
   4 C :   -0.157749
   5 H :    0.007150
   6 C :    0.114419
   7 H :    0.011620
   8 H :    0.001954
   9 C :   -0.061412
  10 H :    0.023761
  11 H :    0.032598
  12 C :   -0.080229
  13 H :    0.047666
  14 H :    0.031996
  15 H :    0.025342
  16 S :    0.089579
  17 C :   -0.109503
  18 C :   -0.002978
  19 C :   -0.059782
  20 C :   -0.118214
  21 H :    0.013000
  22 C :    0.014124
  23 H :    0.011676
  24 H :    0.030447
  25 C :   -0.042434
  26 H :    0.039323
  27 H :    0.039363
  28 C :   -0.069200
  29 H :    0.037832
  30 H :    0.036253
  31 H :    0.028551
  32 H :    0.037507
  33 H :    0.081401
Sum of atomic charges:   -0.0000000

LOEWDIN ATOMIC CHARGES
----------------------
   0 S :    0.462729
   1 C :   -0.219254
   2 C :   -0.064378
   3 C :   -0.066905
   4 C :   -0.203017
   5 H :    0.030977
   6 C :   -0.033222
   7 H :    0.022919
   8 H :    0.028773
   9 C :   -0.037413
  10 H :    0.024489
  11 H :    0.023143
  12 C :   -0.069228
  13 H :    0.034866
  14 H :    0.020362
  15 H :    0.020728
  16 S :    0.387497
  17 C :   -0.174958
  18 C :   -0.064236
  19 C :   -0.063825
  20 C :   -0.195515
  21 H :    0.029414
  22 C :   -0.046664
  23 H :    0.026154
  24 H :    0.032538
  25 C :   -0.037596
  26 H :    0.030350
  27 H :    0.024542
  28 C :   -0.067980
  29 H :    0.030050
  30 H :    0.022585
  31 H :    0.026373
  32 H :    0.025795
  33 H :    0.039908

  Mayer bond orders larger than 0.100000
B(  0-S ,  1-C ) :   1.1747 B(  0-S ,  4-C ) :   1.1857 B(  1-C ,  2-C ) :   1.5735
B(  1-C , 32-H ) :   0.9744 B(  2-C ,  3-C ) :   1.2601 B(  2-C ,  6-C ) :   1.0269
B(  3-C ,  4-C ) :   1.5687 B(  3-C ,  5-H ) :   0.9968 B(  4-C , 20-C ) :   1.0063
B(  6-C ,  7-H ) :   0.9393 B(  6-C ,  8-H ) :   0.9299 B(  6-C ,  9-C ) :   1.0808
B(  9-C , 10-H ) :   0.9573 B(  9-C , 11-H ) :   0.9569 B(  9-C , 12-C ) :   1.0771
B( 12-C , 13-H ) :   0.9702 B( 12-C , 14-H ) :   0.9773 B( 12-C , 15-H ) :   0.9753
B( 16-S , 17-C ) :   1.1487 B( 16-S , 20-C ) :   1.1382 B( 17-C , 18-C ) :   1.5803
B( 17-C , 20-C ) :   0.1010 B( 17-C , 33-H ) :   0.9634 B( 18-C , 19-C ) :   1.2498
B( 18-C , 21-H ) :   0.9966 B( 19-C , 20-C ) :   1.5964 B( 19-C , 22-C ) :   1.0628
B( 22-C , 23-H ) :   0.9375 B( 22-C , 24-H ) :   0.9272 B( 22-C , 25-C ) :   1.0357
B( 25-C , 26-H ) :   0.9518 B( 25-C , 27-H ) :   0.9647 B( 25-C , 28-C ) :   1.0758
B( 28-C , 29-H ) :   0.9752 B( 28-C , 30-H ) :   0.9773 B( 28-C , 31-H ) :   0.9739

Dispersion correction           -0.014766452
FINAL SINGLE POINT ENERGY     -1339.870148851036

DIPOLE MOMENT
-------------
                                X             Y             Z
Electronic contribution:      0.02354     -24.01918     -13.95679
Nuclear contribution   :      0.00261      24.51548      14.41670
                        -----------------------------------------
Total Dipole Moment    :      0.02615       0.49630       0.45991
                        -----------------------------------------
Magnitude (a.u.)       :      0.67713
Magnitude (Debye)      :      1.72114

Rotational constants in cm-1:     0.017615     0.009569     0.007184
Rotational constants in MHz :   528.079166   286.865035   215.364204

                             ****ORCA TERMINATED NORMALLY****
TOTAL RUN TIME: 0 days 0 hours 0 minutes 35 seconds 690 msec
