                         Program Version 4.2.1 -  RELEASE  -
|  1> ! wB97X-D3 SP def2-SVP
|  2> %pal
|  3> nprocs 16
|  4> end
|  5>
|  6> * xyz 0 1
|  7> S 	 -49.0458 	 67.3105 	 130.26
|  8> C 	 -48.7114 	 65.9605 	 129.239
|  9> C 	 -47.8509 	 65.0277 	 129.787
| 10> C 	 -47.3516 	 65.4232 	 131.047
| 11> C 	 -47.9103 	 66.6168 	 131.428
| 12> H 	 -46.6459 	 64.8241 	 131.635
| 13> C 	 -47.6262 	 63.7048 	 129.168
| 14> H 	 -48.5713 	 63.2614 	 129.173
| 15> H 	 -46.9545 	 63.1089 	 129.848
| 16> C 	 -46.9336 	 63.7081 	 127.725
| 17> H 	 -46.7218 	 62.6775 	 127.392
| 18> H 	 -47.7139 	 64.1344 	 127.052
| 19> C 	 -45.6234 	 64.5721 	 127.682
| 20> H 	 -45.2928 	 64.7067 	 126.674
| 21> H 	 -45.7518 	 65.5574 	 128.143
| 22> H 	 -44.8967 	 64.0539 	 128.287
| 23> S 	 -46.6623 	 68.9834 	 132.34
| 24> C 	 -46.2031 	 69.2611 	 133.998
| 25> C 	 -46.6244 	 68.1094 	 134.678
| 26> C 	 -47.1433 	 67.0055 	 133.891
| 27> C 	 -47.3892 	 67.3745 	 132.584
| 28> H 	 -46.4211 	 68.0277 	 135.787
| 29> C 	 -47.7105 	 65.7993 	 134.615
| 30> H 	 -46.8874 	 65.3449 	 135.028
| 31> H 	 -48.1207 	 65.1107 	 133.842
| 32> C 	 -48.7293 	 66.2258 	 135.683
| 33> H 	 -49.2329 	 67.1242 	 135.259
| 34> H 	 -48.2894 	 66.5823 	 136.681
| 35> C 	 -49.8335 	 65.2339 	 135.856
| 36> H 	 -50.6974 	 65.8256 	 136.123
| 37> H 	 -49.7517 	 64.5748 	 136.733
| 38> H 	 -50.1272 	 64.6287 	 134.994
| 39> H 	 -49.2275 	 65.726 	 128.277
| 40> H 	 -45.6778 	 70.1199 	 134.359
| 41> *
| 42>
| 43>                          ****END OF INPUT****

CARTESIAN COORDINATES (ANGSTROEM)
---------------------------------
  S    -49.045800   67.310500  130.260000
  C    -48.711400   65.960500  129.239000
  C    -47.850900   65.027700  129.787000
  C    -47.351600   65.423200  131.047000
  C    -47.910300   66.616800  131.428000
  H    -46.645900   64.824100  131.635000
  C    -47.626200   63.704800  129.168000
  H    -48.571300   63.261400  129.173000
  H    -46.954500   63.108900  129.848000
  C    -46.933600   63.708100  127.725000
  H    -46.721800   62.677500  127.392000
  H    -47.713900   64.134400  127.052000
  C    -45.623400   64.572100  127.682000
  H    -45.292800   64.706700  126.674000
  H    -45.751800   65.557400  128.143000
  H    -44.896700   64.053900  128.287000
  S    -46.662300   68.983400  132.340000
  C    -46.203100   69.261100  133.998000
  C    -46.624400   68.109400  134.678000
  C    -47.143300   67.005500  133.891000
  C    -47.389200   67.374500  132.584000
  H    -46.421100   68.027700  135.787000
  C    -47.710500   65.799300  134.615000
  H    -46.887400   65.344900  135.028000
  H    -48.120700   65.110700  133.842000
  C    -48.729300   66.225800  135.683000
  H    -49.232900   67.124200  135.259000
  H    -48.289400   66.582300  136.681000
  C    -49.833500   65.233900  135.856000
  H    -50.697400   65.825600  136.123000
  H    -49.751700   64.574800  136.733000
  H    -50.127200   64.628700  134.994000
  H    -49.227500   65.726000  128.277000
  H    -45.677800   70.119900  134.359000

 Total Charge           Charge          ....    0
 Multiplicity           Mult            ....    1
 Number of Electrons    NEL             ....  134
 Basis Dimension        Dim             ....  322

ORBITAL ENERGIES
----------------

  NO   OCC          E(Eh)            E(eV)
   0   2.0000     -88.975478     -2421.1458
   1   2.0000     -88.956388     -2420.6264
   2   2.0000     -10.332555      -281.1631
   3   2.0000     -10.327569      -281.0274
   4   2.0000     -10.318360      -280.7769
   5   2.0000     -10.313353      -280.6406
   6   2.0000     -10.299216      -280.2559
   7   2.0000     -10.297859      -280.2190
   8   2.0000     -10.297685      -280.2143
   9   2.0000     -10.297151      -280.1997
  10   2.0000     -10.295579      -280.1569
  11   2.0000     -10.291673      -280.0507
  12   2.0000     -10.289600      -279.9943
  13   2.0000     -10.283970      -279.8411
  14   2.0000     -10.274965      -279.5960
  15   2.0000     -10.271610      -279.5047
  16   2.0000      -8.089796      -220.1345
  17   2.0000      -8.071007      -219.6233
  18   2.0000      -6.048218      -164.5804
  19   2.0000      -6.044494      -164.4791
  20   2.0000      -6.040553      -164.3718
  21   2.0000      -6.029595      -164.0736
  22   2.0000      -6.025372      -163.9587
  23   2.0000      -6.021817      -163.8620
  24   2.0000      -1.007093       -27.4044
  25   2.0000      -0.982832       -26.7442
  26   2.0000      -0.910202       -24.7679
  27   2.0000      -0.907350       -24.6902
  28   2.0000      -0.866493       -23.5785
  29   2.0000      -0.852168       -23.1887
  30   2.0000      -0.844379       -22.9767
  31   2.0000      -0.810967       -22.0675
  32   2.0000      -0.778712       -21.1898
  33   2.0000      -0.770626       -20.9698
  34   2.0000      -0.704889       -19.1810
  35   2.0000      -0.698534       -19.0081
  36   2.0000      -0.696019       -18.9396
  37   2.0000      -0.655499       -17.8370
  38   2.0000      -0.634971       -17.2784
  39   2.0000      -0.612862       -16.6768
  40   2.0000      -0.592060       -16.1108
  41   2.0000      -0.570028       -15.5112
  42   2.0000      -0.564592       -15.3633
  43   2.0000      -0.553047       -15.0492
  44   2.0000      -0.539347       -14.6764
  45   2.0000      -0.528427       -14.3792
  46   2.0000      -0.513532       -13.9739
  47   2.0000      -0.509133       -13.8542
  48   2.0000      -0.501004       -13.6330
  49   2.0000      -0.497017       -13.5245
  50   2.0000      -0.486833       -13.2474
  51   2.0000      -0.480601       -13.0778
  52   2.0000      -0.473980       -12.8977
  53   2.0000      -0.466322       -12.6893
  54   2.0000      -0.457468       -12.4483
  55   2.0000      -0.449801       -12.2397
  56   2.0000      -0.439846       -11.9688
  57   2.0000      -0.437580       -11.9072
  58   2.0000      -0.432906       -11.7800
  59   2.0000      -0.430166       -11.7054
  60   2.0000      -0.415672       -11.3110
  61   2.0000      -0.407670       -11.0933
  62   2.0000      -0.400537       -10.8992
  63   2.0000      -0.351731        -9.5711
  64   2.0000      -0.332134        -9.0378
  65   2.0000      -0.320252        -8.7145
  66   2.0000      -0.292118        -7.9489
  67   0.0000       0.031239         0.8501
  68   0.0000       0.068117         1.8536
  69   0.0000       0.107294         2.9196
  70   0.0000       0.124570         3.3897
  71   0.0000       0.135163         3.6780

MULLIKEN ATOMIC CHARGES
-----------------------
   0 S :    0.140061
   1 C :   -0.135619
   2 C :   -0.109016
   3 C :    0.034526
   4 C :   -0.158544
   5 H :    0.027813
   6 C :    0.057258
   7 H :    0.035491
   8 H :    0.020828
   9 C :   -0.100126
  10 H :    0.040944
  11 H :    0.030665
  12 C :   -0.043042
  13 H :    0.037088
  14 H :    0.049869
  15 H :    0.025794
  16 S :    0.077946
  17 C :   -0.088945
  18 C :   -0.061653
  19 C :   -0.088168
  20 C :   -0.133815
  21 H :    0.034885
  22 C :    0.125382
  23 H :    0.008577
  24 H :    0.025257
  25 C :   -0.115760
  26 H :    0.046535
  27 H :    0.045100
  28 C :   -0.035076
  29 H :    0.018977
  30 H :    0.028294
  31 H :    0.037224
  32 H :    0.059199
  33 H :    0.062050
Sum of atomic charges:    0.0000000

LOEWDIN ATOMIC CHARGES
----------------------
   0 S :    0.420813
   1 C :   -0.212732
   2 C :   -0.070324
   3 C :   -0.052017
   4 C :   -0.188197
   5 H :    0.039307
   6 C :   -0.032541
   7 H :    0.027870
   8 H :    0.030391
   9 C :   -0.035978
  10 H :    0.025429
  11 H :    0.020317
  12 C :   -0.062528
  13 H :    0.024098
  14 H :    0.030477
  15 H :    0.022872
  16 S :    0.385551
  17 C :   -0.188582
  18 C :   -0.081206
  19 C :   -0.066665
  20 C :   -0.189111
  21 H :    0.033830
  22 C :   -0.026593
  23 H :    0.019337
  24 H :    0.033323
  25 C :   -0.048497
  26 H :    0.032397
  27 H :    0.035050
  28 C :   -0.072718
  29 H :    0.027566
  30 H :    0.024774
  31 H :    0.027864
  32 H :    0.034766
  33 H :    0.031656

  Mayer bond orders larger than 0.100000
B(  0-S ,  1-C ) :   1.1393 B(  0-S ,  4-C ) :   1.1572 B(  1-C ,  2-C ) :   1.6034
B(  1-C , 32-H ) :   0.9587 B(  2-C ,  3-C ) :   1.2659 B(  2-C ,  6-C ) :   1.0090
B(  3-C ,  4-C ) :   1.5541 B(  3-C ,  5-H ) :   0.9884 B(  4-C , 20-C ) :   1.0207
B(  6-C ,  7-H ) :   0.9427 B(  6-C ,  8-H ) :   0.9451 B(  6-C ,  9-C ) :   1.0578
B(  9-C , 10-H ) :   0.9617 B(  9-C , 11-H ) :   0.9587 B(  9-C , 12-C ) :   1.0683
B( 12-C , 13-H ) :   0.9764 B( 12-C , 14-H ) :   0.9725 B( 12-C , 15-H ) :   0.9777
B( 16-S , 17-C ) :   1.1525 B( 16-S , 20-C ) :   1.1346 B( 17-C , 18-C ) :   1.5841
B( 17-C , 33-H ) :   0.9783 B( 18-C , 19-C ) :   1.2417 B( 18-C , 21-H ) :   0.9771
B( 19-C , 20-C ) :   1.5978 B( 19-C , 22-C ) :   1.0528 B( 22-C , 23-H ) :   0.9134
B( 22-C , 24-H ) :   0.9424 B( 22-C , 25-C ) :   1.0563 B( 25-C , 26-H ) :   0.9698
B( 25-C , 27-H ) :   0.9433 B( 25-C , 28-C ) :   1.0838 B( 28-C , 29-H ) :   0.9737
B( 28-C , 30-H ) :   0.9730 B( 28-C , 31-H ) :   0.9752

Dispersion correction           -0.014298511
FINAL SINGLE POINT ENERGY     -1339.868130196236

DIPOLE MOMENT
-------------
                                X             Y             Z
Electronic contribution:     -0.31488      19.77822      -2.78194
Nuclear contribution   :      0.33830     -20.37115       2.93598
                        -----------------------------------------
Total Dipole Moment    :      0.02343      -0.59294       0.15404
                        -----------------------------------------
Magnitude (a.u.)       :      0.61307
Magnitude (Debye)      :      1.55829

Rotational constants in cm-1:     0.019985     0.007946     0.006853
Rotational constants in MHz :   599.142058   238.224414   205.447403

                             ****ORCA TERMINATED NORMALLY****
TOTAL RUN TIME: 0 days 0 hours 0 minutes 32 seconds 562 msec
