                         Program Version 4.2.1 -  RELEASE  -
|  1> ! wB97X-D3 SP def2-SVP
|  2> %pal
|  3> nprocs 16
|  4> end
|  5>
|  6> * xyz 0 1
|  7> S 	 17.1216 	 9.43681 	 82.996
|  8> C 	 17.8137 	 10.8785 	 83.6291
|  9> C 	 16.8269 	 11.6944 	 84.1566
| 10> C 	 15.4881 	 11.1143 	 84.0967
| 11> C 	 15.5461 	 9.81579 	 83.6448
| 12> H 	 14.5385 	 11.5138 	 84.3004
| 13> C 	 17.1646 	 13.0634 	 84.7504
| 14> H 	 18.1811 	 13.154 	 85.1238
| 15> H 	 16.5096 	 13.2417 	 85.5783
| 16> C 	 16.9023 	 14.2216 	 83.8292
| 17> H 	 15.8557 	 14.3825 	 83.6485
| 18> H 	 17.3038 	 15.1529 	 84.1919
| 19> C 	 17.5326 	 13.9543 	 82.4254
| 20> H 	 18.6102 	 14.1522 	 82.4296
| 21> H 	 17.3545 	 12.9589 	 81.9525
| 22> H 	 17.1301 	 14.7183 	 81.7435
| 23> S 	 14.5254 	 7.33149 	 84.4049
| 24> C 	 13.1464 	 6.7709 	 83.486
| 25> C 	 12.5078 	 7.76767 	 82.8149
| 26> C 	 13.1947 	 9.0199 	 82.8931
| 27> C 	 14.4191 	 8.90702 	 83.5486
| 28> H 	 11.7123 	 7.51475 	 82.1609
| 29> C 	 12.6982 	 10.2258 	 82.1204
| 30> H 	 12.5534 	 9.85077 	 81.1034
| 31> H 	 13.4617 	 11.086 	 82.0231
| 32> C 	 11.3703 	 10.8585 	 82.7912
| 33> H 	 10.6792 	 10.0815 	 82.9415
| 34> H 	 11.0324 	 11.5083 	 82.0563
| 35> C 	 11.6788 	 11.4818 	 84.1332
| 36> H 	 10.8662 	 11.6019 	 84.889
| 37> H 	 12.2374 	 12.3588 	 84.0323
| 38> H 	 12.4802 	 10.9982 	 84.7361
| 39> H 	 18.8529 	 11.1724 	 83.6241
| 40> H 	 12.821 	 5.73506 	 83.416
| 41> *
| 42>
| 43>                          ****END OF INPUT****

CARTESIAN COORDINATES (ANGSTROEM)
---------------------------------
  S     17.121600    9.436810   82.996000
  C     17.813700   10.878500   83.629100
  C     16.826900   11.694400   84.156600
  C     15.488100   11.114300   84.096700
  C     15.546100    9.815790   83.644800
  H     14.538500   11.513800   84.300400
  C     17.164600   13.063400   84.750400
  H     18.181100   13.154000   85.123800
  H     16.509600   13.241700   85.578300
  C     16.902300   14.221600   83.829200
  H     15.855700   14.382500   83.648500
  H     17.303800   15.152900   84.191900
  C     17.532600   13.954300   82.425400
  H     18.610200   14.152200   82.429600
  H     17.354500   12.958900   81.952500
  H     17.130100   14.718300   81.743500
  S     14.525400    7.331490   84.404900
  C     13.146400    6.770900   83.486000
  C     12.507800    7.767670   82.814900
  C     13.194700    9.019900   82.893100
  C     14.419100    8.907020   83.548600
  H     11.712300    7.514750   82.160900
  C     12.698200   10.225800   82.120400
  H     12.553400    9.850770   81.103400
  H     13.461700   11.086000   82.023100
  C     11.370300   10.858500   82.791200
  H     10.679200   10.081500   82.941500
  H     11.032400   11.508300   82.056300
  C     11.678800   11.481800   84.133200
  H     10.866200   11.601900   84.889000
  H     12.237400   12.358800   84.032300
  H     12.480200   10.998200   84.736100
  H     18.852900   11.172400   83.624100
  H     12.821000    5.735060   83.416000

 Total Charge           Charge          ....    0
 Multiplicity           Mult            ....    1
 Number of Electrons    NEL             ....  134
 Basis Dimension        Dim             ....  322

ORBITAL ENERGIES
----------------

  NO   OCC          E(Eh)            E(eV)
   0   2.0000     -88.964935     -2420.8590
   1   2.0000     -88.962850     -2420.8022
   2   2.0000     -10.326821      -281.0071
   3   2.0000     -10.326310      -280.9932
   4   2.0000     -10.315452      -280.6977
   5   2.0000     -10.311444      -280.5887
   6   2.0000     -10.306416      -280.4518
   7   2.0000     -10.304096      -280.3887
   8   2.0000     -10.303458      -280.3714
   9   2.0000     -10.294788      -280.1354
  10   2.0000     -10.289735      -279.9979
  11   2.0000     -10.287162      -279.9279
  12   2.0000     -10.285983      -279.8958
  13   2.0000     -10.281526      -279.7746
  14   2.0000     -10.277941      -279.6770
  15   2.0000     -10.273644      -279.5601
  16   2.0000      -8.080220      -219.8740
  17   2.0000      -8.077223      -219.7924
  18   2.0000      -6.038762      -164.3231
  19   2.0000      -6.035751      -164.2411
  20   2.0000      -6.034602      -164.2099
  21   2.0000      -6.031985      -164.1387
  22   2.0000      -6.030951      -164.1105
  23   2.0000      -6.027771      -164.0240
  24   2.0000      -1.006030       -27.3755
  25   2.0000      -0.983775       -26.7699
  26   2.0000      -0.913113       -24.8471
  27   2.0000      -0.906270       -24.6609
  28   2.0000      -0.870204       -23.6795
  29   2.0000      -0.850212       -23.1355
  30   2.0000      -0.841844       -22.9077
  31   2.0000      -0.813978       -22.1495
  32   2.0000      -0.782176       -21.2841
  33   2.0000      -0.773399       -21.0452
  34   2.0000      -0.717073       -19.5125
  35   2.0000      -0.699712       -19.0401
  36   2.0000      -0.690124       -18.7792
  37   2.0000      -0.658136       -17.9088
  38   2.0000      -0.646619       -17.5954
  39   2.0000      -0.618005       -16.8168
  40   2.0000      -0.597436       -16.2570
  41   2.0000      -0.570315       -15.5191
  42   2.0000      -0.553615       -15.0646
  43   2.0000      -0.550271       -14.9736
  44   2.0000      -0.546153       -14.8616
  45   2.0000      -0.542567       -14.7640
  46   2.0000      -0.518634       -14.1127
  47   2.0000      -0.512419       -13.9436
  48   2.0000      -0.503228       -13.6935
  49   2.0000      -0.496083       -13.4991
  50   2.0000      -0.490034       -13.3345
  51   2.0000      -0.476287       -12.9604
  52   2.0000      -0.468771       -12.7559
  53   2.0000      -0.464095       -12.6287
  54   2.0000      -0.460149       -12.5213
  55   2.0000      -0.453449       -12.3390
  56   2.0000      -0.445355       -12.1187
  57   2.0000      -0.435894       -11.8613
  58   2.0000      -0.428396       -11.6573
  59   2.0000      -0.426646       -11.6096
  60   2.0000      -0.421578       -11.4717
  61   2.0000      -0.412649       -11.2287
  62   2.0000      -0.408871       -11.1260
  63   2.0000      -0.340699        -9.2709
  64   2.0000      -0.331047        -9.0083
  65   2.0000      -0.324858        -8.8398
  66   2.0000      -0.296529        -8.0690
  67   0.0000       0.028915         0.7868
  68   0.0000       0.071205         1.9376
  69   0.0000       0.107112         2.9147
  70   0.0000       0.116403         3.1675
  71   0.0000       0.130592         3.5536

MULLIKEN ATOMIC CHARGES
-----------------------
   0 S :    0.126294
   1 C :   -0.109868
   2 C :   -0.116195
   3 C :    0.083145
   4 C :   -0.153340
   5 H :   -0.048267
   6 C :    0.111618
   7 H :    0.023061
   8 H :    0.015753
   9 C :   -0.057180
  10 H :    0.021263
  11 H :    0.026150
  12 C :   -0.104762
  13 H :    0.023636
  14 H :    0.064350
  15 H :    0.025618
  16 S :    0.104322
  17 C :   -0.090138
  18 C :   -0.024323
  19 C :    0.010265
  20 C :   -0.193477
  21 H :    0.012084
  22 C :   -0.029584
  23 H :    0.039093
  24 H :    0.045318
  25 C :    0.016171
  26 H :    0.019868
  27 H :    0.025233
  28 C :   -0.072253
  29 H :    0.048460
  30 H :    0.013926
  31 H :    0.038134
  32 H :    0.047710
  33 H :    0.057915
Sum of atomic charges:   -0.0000000

LOEWDIN ATOMIC CHARGES
----------------------
   0 S :    0.420820
   1 C :   -0.205809
   2 C :   -0.056498
   3 C :   -0.051811
   4 C :   -0.195250
   5 H :    0.018648
   6 C :   -0.031475
   7 H :    0.030351
   8 H :    0.027537
   9 C :   -0.036221
  10 H :    0.018359
  11 H :    0.024293
  12 C :   -0.077711
  13 H :    0.020141
  14 H :    0.030973
  15 H :    0.023789
  16 S :    0.378746
  17 C :   -0.175423
  18 C :   -0.072464
  19 C :   -0.049921
  20 C :   -0.190100
  21 H :    0.028650
  22 C :   -0.032836
  23 H :    0.031665
  24 H :    0.036552
  25 C :   -0.019017
  26 H :    0.018004
  27 H :    0.018245
  28 C :   -0.078353
  29 H :    0.035682
  30 H :    0.015715
  31 H :    0.032336
  32 H :    0.031055
  33 H :    0.031329

  Mayer bond orders larger than 0.100000
B(  0-S ,  1-C ) :   1.1328 B(  0-S ,  4-C ) :   1.1585 B(  1-C ,  2-C ) :   1.6096
B(  1-C , 32-H ) :   0.9705 B(  2-C ,  3-C ) :   1.2092 B(  2-C ,  6-C ) :   1.0319
B(  3-C ,  4-C ) :   1.5740 B(  3-C ,  5-H ) :   1.0029 B(  4-C , 20-C ) :   1.0526
B(  6-C ,  7-H ) :   0.9453 B(  6-C ,  8-H ) :   0.9356 B(  6-C ,  9-C ) :   1.0756
B(  9-C , 10-H ) :   0.9585 B(  9-C , 11-H ) :   0.9552 B(  9-C , 12-C ) :   1.0752
B( 12-C , 13-H ) :   0.9775 B( 12-C , 14-H ) :   0.9704 B( 12-C , 15-H ) :   0.9752
B( 16-S , 17-C ) :   1.1393 B( 16-S , 20-C ) :   1.1229 B( 17-C , 18-C ) :   1.6514
B( 17-C , 33-H ) :   0.9634 B( 18-C , 19-C ) :   1.2032 B( 18-C , 21-H ) :   0.9917
B( 19-C , 20-C ) :   1.6061 B( 19-C , 22-C ) :   1.0388 B( 22-C , 23-H ) :   0.9402
B( 22-C , 24-H ) :   0.9462 B( 22-C , 25-C ) :   1.0515 B( 25-C , 26-H ) :   0.9623
B( 25-C , 27-H ) :   0.9595 B( 25-C , 28-C ) :   1.0626 B( 28-C , 29-H ) :   0.9686
B( 28-C , 30-H ) :   0.9686 B( 28-C , 31-H ) :   0.9646

Dispersion correction           -0.015687304
FINAL SINGLE POINT ENERGY     -1339.865209228916

DIPOLE MOMENT
-------------
                                X             Y             Z
Electronic contribution:      7.05809     -25.82612       2.77314
Nuclear contribution   :     -7.40788      26.30894      -2.97994
                        -----------------------------------------
Total Dipole Moment    :     -0.34979       0.48283      -0.20681
                        -----------------------------------------
Magnitude (a.u.)       :      0.63106
Magnitude (Debye)      :      1.60403

Rotational constants in cm-1:     0.020501     0.009291     0.007191
Rotational constants in MHz :   614.594956   278.539016   215.566420

                             ****ORCA TERMINATED NORMALLY****
TOTAL RUN TIME: 0 days 0 hours 0 minutes 37 seconds 744 msec
