                         Program Version 4.2.1 -  RELEASE  -
|  1> ! wB97X-D3 SP def2-SVP
|  2> %pal
|  3> nprocs 16
|  4> end
|  5>
|  6> * xyz 0 1
|  7> S 	 -33.399 	 42.435 	 97.322
|  8> C 	 -34.2762 	 41.2946 	 96.3289
|  9> C 	 -33.4426 	 40.9075 	 95.3325
| 10> C 	 -32.2092 	 41.5983 	 95.1551
| 11> C 	 -32.141 	 42.5646 	 96.1668
| 12> H 	 -31.546 	 41.5062 	 94.3013
| 13> C 	 -33.9164 	 39.9225 	 94.2637
| 14> H 	 -35.0008 	 39.8058 	 94.3392
| 15> H 	 -33.3896 	 39.0581 	 94.5572
| 16> C 	 -33.4441 	 40.2999 	 92.837
| 17> H 	 -33.1721 	 41.3493 	 92.8453
| 18> H 	 -32.6225 	 39.7089 	 92.5073
| 19> C 	 -34.5948 	 40.143 	 91.7445
| 20> H 	 -34.9379 	 39.1119 	 91.7708
| 21> H 	 -35.3594 	 40.8999 	 91.9673
| 22> H 	 -34.3334 	 40.1667 	 90.6708
| 23> S 	 -29.4452 	 43.0728 	 96.6668
| 24> C 	 -28.8139 	 44.7046 	 96.3139
| 25> C 	 -29.88 	 45.5833 	 96.2152
| 26> C 	 -31.1221 	 44.9061 	 96.001
| 27> C 	 -31.0853 	 43.5962 	 96.2207
| 28> H 	 -29.6205 	 46.6035 	 96.2708
| 29> C 	 -32.3788 	 45.6628 	 95.7583
| 30> H 	 -32.1366 	 46.7314 	 95.9057
| 31> H 	 -33.1069 	 45.4209 	 96.6216
| 32> C 	 -33.0795 	 45.3897 	 94.3977
| 33> H 	 -34.1279 	 45.7065 	 94.3017
| 34> H 	 -33.0099 	 44.2874 	 94.2102
| 35> C 	 -32.2524 	 45.922 	 93.22
| 36> H 	 -31.3323 	 45.3008 	 93.0837
| 37> H 	 -32.1199 	 46.9723 	 93.3742
| 38> H 	 -32.75 	 45.675 	 92.2405
| 39> H 	 -35.3023 	 41.0997 	 96.4454
| 40> H 	 -27.8794 	 45.2083 	 96.564
| 41> *
| 42>
| 43>                          ****END OF INPUT****

CARTESIAN COORDINATES (ANGSTROEM)
---------------------------------
  S    -33.399000   42.435000   97.322000
  C    -34.276200   41.294600   96.328900
  C    -33.442600   40.907500   95.332500
  C    -32.209200   41.598300   95.155100
  C    -32.141000   42.564600   96.166800
  H    -31.546000   41.506200   94.301300
  C    -33.916400   39.922500   94.263700
  H    -35.000800   39.805800   94.339200
  H    -33.389600   39.058100   94.557200
  C    -33.444100   40.299900   92.837000
  H    -33.172100   41.349300   92.845300
  H    -32.622500   39.708900   92.507300
  C    -34.594800   40.143000   91.744500
  H    -34.937900   39.111900   91.770800
  H    -35.359400   40.899900   91.967300
  H    -34.333400   40.166700   90.670800
  S    -29.445200   43.072800   96.666800
  C    -28.813900   44.704600   96.313900
  C    -29.880000   45.583300   96.215200
  C    -31.122100   44.906100   96.001000
  C    -31.085300   43.596200   96.220700
  H    -29.620500   46.603500   96.270800
  C    -32.378800   45.662800   95.758300
  H    -32.136600   46.731400   95.905700
  H    -33.106900   45.420900   96.621600
  C    -33.079500   45.389700   94.397700
  H    -34.127900   45.706500   94.301700
  H    -33.009900   44.287400   94.210200
  C    -32.252400   45.922000   93.220000
  H    -31.332300   45.300800   93.083700
  H    -32.119900   46.972300   93.374200
  H    -32.750000   45.675000   92.240500
  H    -35.302300   41.099700   96.445400
  H    -27.879400   45.208300   96.564000

 Total Charge           Charge          ....    0
 Multiplicity           Mult            ....    1
 Number of Electrons    NEL             ....  134
 Basis Dimension        Dim             ....  322

ORBITAL ENERGIES
----------------

  NO   OCC          E(Eh)            E(eV)
   0   2.0000     -88.966768     -2420.9088
   1   2.0000     -88.963830     -2420.8289
   2   2.0000     -10.332909      -281.1728
   3   2.0000     -10.322055      -280.8774
   4   2.0000     -10.316703      -280.7318
   5   2.0000     -10.307609      -280.4843
   6   2.0000     -10.298673      -280.2412
   7   2.0000     -10.297932      -280.2210
   8   2.0000     -10.295791      -280.1627
   9   2.0000     -10.293555      -280.1019
  10   2.0000     -10.290834      -280.0278
  11   2.0000     -10.287779      -279.9447
  12   2.0000     -10.287335      -279.9326
  13   2.0000     -10.285636      -279.8864
  14   2.0000     -10.283421      -279.8261
  15   2.0000     -10.275607      -279.6135
  16   2.0000      -8.082075      -219.9244
  17   2.0000      -8.077504      -219.8001
  18   2.0000      -6.040480      -164.3698
  19   2.0000      -6.036418      -164.2593
  20   2.0000      -6.036310      -164.2563
  21   2.0000      -6.033005      -164.1664
  22   2.0000      -6.032252      -164.1459
  23   2.0000      -6.027907      -164.0277
  24   2.0000      -1.011975       -27.5372
  25   2.0000      -0.988703       -26.9040
  26   2.0000      -0.909923       -24.7603
  27   2.0000      -0.903153       -24.5761
  28   2.0000      -0.869993       -23.6737
  29   2.0000      -0.847191       -23.0532
  30   2.0000      -0.843622       -22.9561
  31   2.0000      -0.819854       -22.3094
  32   2.0000      -0.778566       -21.1859
  33   2.0000      -0.767950       -20.8970
  34   2.0000      -0.716097       -19.4860
  35   2.0000      -0.697826       -18.9888
  36   2.0000      -0.682787       -18.5796
  37   2.0000      -0.662962       -18.0401
  38   2.0000      -0.643904       -17.5215
  39   2.0000      -0.618589       -16.8326
  40   2.0000      -0.585714       -15.9381
  41   2.0000      -0.579667       -15.7736
  42   2.0000      -0.566342       -15.4109
  43   2.0000      -0.546658       -14.8753
  44   2.0000      -0.544103       -14.8058
  45   2.0000      -0.529345       -14.4042
  46   2.0000      -0.524553       -14.2738
  47   2.0000      -0.515224       -14.0200
  48   2.0000      -0.505297       -13.7498
  49   2.0000      -0.497671       -13.5423
  50   2.0000      -0.482238       -13.1224
  51   2.0000      -0.475114       -12.9285
  52   2.0000      -0.470843       -12.8123
  53   2.0000      -0.462746       -12.5920
  54   2.0000      -0.460352       -12.5268
  55   2.0000      -0.453234       -12.3331
  56   2.0000      -0.436116       -11.8673
  57   2.0000      -0.433529       -11.7969
  58   2.0000      -0.426346       -11.6015
  59   2.0000      -0.421243       -11.4626
  60   2.0000      -0.416331       -11.3289
  61   2.0000      -0.410504       -11.1704
  62   2.0000      -0.408802       -11.1241
  63   2.0000      -0.333376        -9.0716
  64   2.0000      -0.328384        -8.9358
  65   2.0000      -0.326987        -8.8978
  66   2.0000      -0.309238        -8.4148
  67   0.0000       0.031871         0.8672
  68   0.0000       0.060292         1.6406
  69   0.0000       0.106016         2.8848
  70   0.0000       0.121371         3.3027
  71   0.0000       0.131094         3.5672

MULLIKEN ATOMIC CHARGES
-----------------------
   0 S :    0.120664
   1 C :   -0.138899
   2 C :   -0.104991
   3 C :    0.041048
   4 C :   -0.158403
   5 H :    0.033625
   6 C :    0.116683
   7 H :    0.023959
   8 H :    0.029892
   9 C :   -0.097603
  10 H :    0.041975
  11 H :    0.028747
  12 C :   -0.081850
  13 H :    0.028721
  14 H :    0.047769
  15 H :    0.034380
  16 S :    0.100921
  17 C :   -0.086043
  18 C :   -0.055905
  19 C :   -0.010014
  20 C :   -0.172674
  21 H :    0.011961
  22 C :    0.047234
  23 H :    0.018382
  24 H :    0.046495
  25 C :   -0.078253
  26 H :    0.040190
  27 H :    0.041805
  28 C :   -0.075439
  29 H :    0.042313
  30 H :    0.033278
  31 H :    0.032706
  32 H :    0.039075
  33 H :    0.058254
Sum of atomic charges:   -0.0000000

LOEWDIN ATOMIC CHARGES
----------------------
   0 S :    0.425035
   1 C :   -0.200970
   2 C :   -0.057285
   3 C :   -0.062403
   4 C :   -0.195220
   5 H :    0.038516
   6 C :   -0.024405
   7 H :    0.029136
   8 H :    0.032914
   9 C :   -0.038309
  10 H :    0.022032
  11 H :    0.019822
  12 C :   -0.072469
  13 H :    0.023011
  14 H :    0.027467
  15 H :    0.028020
  16 S :    0.377709
  17 C :   -0.183336
  18 C :   -0.060695
  19 C :   -0.066265
  20 C :   -0.186943
  21 H :    0.026175
  22 C :   -0.039207
  23 H :    0.026326
  24 H :    0.037675
  25 C :   -0.046162
  26 H :    0.025373
  27 H :    0.030997
  28 C :   -0.072055
  29 H :    0.031184
  30 H :    0.016751
  31 H :    0.029681
  32 H :    0.022233
  33 H :    0.035668

  Mayer bond orders larger than 0.100000
B(  0-S ,  1-C ) :   1.1159 B(  0-S ,  4-C ) :   1.1968 B(  1-C ,  2-C ) :   1.6162
B(  1-C , 32-H ) :   0.9836 B(  2-C ,  3-C ) :   1.2356 B(  2-C ,  6-C ) :   1.0148
B(  3-C ,  4-C ) :   1.5336 B(  3-C ,  5-H ) :   0.9925 B(  4-C , 20-C ) :   0.9982
B(  6-C ,  7-H ) :   0.9565 B(  6-C ,  8-H ) :   0.9206 B(  6-C ,  9-C ) :   1.0495
B(  9-C , 10-H ) :   0.9683 B(  9-C , 11-H ) :   0.9528 B(  9-C , 12-C ) :   1.0762
B( 12-C , 13-H ) :   0.9759 B( 12-C , 14-H ) :   0.9796 B( 12-C , 15-H ) :   0.9770
B( 16-S , 17-C ) :   1.1324 B( 16-S , 20-C ) :   1.1193 B( 17-C , 18-C ) :   1.6668
B( 17-C , 33-H ) :   0.9564 B( 18-C , 19-C ) :   1.1906 B( 18-C , 21-H ) :   0.9917
B( 19-C , 20-C ) :   1.6627 B( 19-C , 22-C ) :   1.0348 B( 22-C , 23-H ) :   0.9408
B( 22-C , 24-H ) :   0.9321 B( 22-C , 25-C ) :   1.0520 B( 25-C , 26-H ) :   0.9590
B( 25-C , 27-H ) :   0.9602 B( 25-C , 28-C ) :   1.0695 B( 28-C , 29-H ) :   0.9748
B( 28-C , 30-H ) :   0.9789 B( 28-C , 31-H ) :   0.9723

Dispersion correction           -0.015449028
FINAL SINGLE POINT ENERGY     -1339.848973256248

DIPOLE MOMENT
-------------
                                X             Y             Z
Electronic contribution:     12.18638      -1.10905      23.95278
Nuclear contribution   :    -12.48840       1.20832     -24.36143
                        -----------------------------------------
Total Dipole Moment    :     -0.30202       0.09927      -0.40864
                        -----------------------------------------
Magnitude (a.u.)       :      0.51775
Magnitude (Debye)      :      1.31600

Rotational constants in cm-1:     0.019016     0.009020     0.008049
Rotational constants in MHz :   570.085943   270.401743   241.315619

                             ****ORCA TERMINATED NORMALLY****
TOTAL RUN TIME: 0 days 0 hours 0 minutes 30 seconds 344 msec
