                         Program Version 4.2.1 -  RELEASE  -
|  1> ! wB97X-D3 SP def2-SVP
|  2> %pal
|  3> nprocs 16
|  4> end
|  5>
|  6> * xyz 0 1
|  7> S 	 -113.288 	 52.9076 	 108.928
|  8> C 	 -112.127 	 52.836 	 107.61
|  9> C 	 -110.984 	 53.3969 	 107.997
| 10> C 	 -110.918 	 53.6786 	 109.383
| 11> C 	 -112.093 	 53.4083 	 110.136
| 12> H 	 -110.205 	 54.242 	 109.947
| 13> C 	 -109.869 	 53.7657 	 107.058
| 14> H 	 -109.959 	 52.9632 	 106.303
| 15> H 	 -108.887 	 53.6059 	 107.374
| 16> C 	 -109.856 	 55.15 	 106.515
| 17> H 	 -109.037 	 55.1992 	 105.858
| 18> H 	 -110.764 	 55.3809 	 106.012
| 19> C 	 -109.483 	 56.101 	 107.64
| 20> H 	 -108.432 	 55.958 	 107.898
| 21> H 	 -109.529 	 57.0266 	 107.082
| 22> H 	 -110.215 	 55.9583 	 108.462
| 23> S 	 -113.562 	 54.9837 	 111.775
| 24> C 	 -113.194 	 55.0379 	 113.478
| 25> C 	 -112.167 	 54.1735 	 113.822
| 26> C 	 -111.672 	 53.4322 	 112.681
| 27> C 	 -112.295 	 53.7701 	 111.496
| 28> H 	 -111.914 	 54.1163 	 114.826
| 29> C 	 -110.544 	 52.4035 	 112.853
| 30> H 	 -109.766 	 52.8296 	 113.49
| 31> H 	 -110.012 	 52.3372 	 111.857
| 32> C 	 -110.866 	 51.0512 	 113.57
| 33> H 	 -111.413 	 51.3004 	 114.482
| 34> H 	 -109.886 	 50.5951 	 113.848
| 35> C 	 -111.706 	 50.1518 	 112.715
| 36> H 	 -111.253 	 49.5831 	 111.871
| 37> H 	 -112.55 	 50.6944 	 112.251
| 38> H 	 -112.215 	 49.4381 	 113.308
| 39> H 	 -112.414 	 52.6548 	 106.543
| 40> H 	 -113.858 	 55.4868 	 114.238
| 41> *
| 42>
| 43>                          ****END OF INPUT****

CARTESIAN COORDINATES (ANGSTROEM)
---------------------------------
  S    -113.288000   52.907600  108.928000
  C    -112.127000   52.836000  107.610000
  C    -110.984000   53.396900  107.997000
  C    -110.918000   53.678600  109.383000
  C    -112.093000   53.408300  110.136000
  H    -110.205000   54.242000  109.947000
  C    -109.869000   53.765700  107.058000
  H    -109.959000   52.963200  106.303000
  H    -108.887000   53.605900  107.374000
  C    -109.856000   55.150000  106.515000
  H    -109.037000   55.199200  105.858000
  H    -110.764000   55.380900  106.012000
  C    -109.483000   56.101000  107.640000
  H    -108.432000   55.958000  107.898000
  H    -109.529000   57.026600  107.082000
  H    -110.215000   55.958300  108.462000
  S    -113.562000   54.983700  111.775000
  C    -113.194000   55.037900  113.478000
  C    -112.167000   54.173500  113.822000
  C    -111.672000   53.432200  112.681000
  C    -112.295000   53.770100  111.496000
  H    -111.914000   54.116300  114.826000
  C    -110.544000   52.403500  112.853000
  H    -109.766000   52.829600  113.490000
  H    -110.012000   52.337200  111.857000
  C    -110.866000   51.051200  113.570000
  H    -111.413000   51.300400  114.482000
  H    -109.886000   50.595100  113.848000
  C    -111.706000   50.151800  112.715000
  H    -111.253000   49.583100  111.871000
  H    -112.550000   50.694400  112.251000
  H    -112.215000   49.438100  113.308000
  H    -112.414000   52.654800  106.543000
  H    -113.858000   55.486800  114.238000

 Total Charge           Charge          ....    0
 Multiplicity           Mult            ....    1
 Number of Electrons    NEL             ....  134
 Basis Dimension        Dim             ....  322

ORBITAL ENERGIES
----------------

  NO   OCC          E(Eh)            E(eV)
   0   2.0000     -88.965572     -2420.8763
   1   2.0000     -88.964735     -2420.8535
   2   2.0000     -10.332771      -281.1690
   3   2.0000     -10.329336      -281.0755
   4   2.0000     -10.320483      -280.8346
   5   2.0000     -10.316317      -280.7213
   6   2.0000     -10.310472      -280.5622
   7   2.0000     -10.296188      -280.1735
   8   2.0000     -10.294182      -280.1189
   9   2.0000     -10.293343      -280.0961
  10   2.0000     -10.293263      -280.0939
  11   2.0000     -10.290944      -280.0308
  12   2.0000     -10.279186      -279.7109
  13   2.0000     -10.274867      -279.5933
  14   2.0000     -10.273254      -279.5495
  15   2.0000     -10.267440      -279.3912
  16   2.0000      -8.079767      -219.8616
  17   2.0000      -8.079505      -219.8545
  18   2.0000      -6.038417      -164.3137
  19   2.0000      -6.038039      -164.3034
  20   2.0000      -6.034268      -164.2008
  21   2.0000      -6.034025      -164.1942
  22   2.0000      -6.030455      -164.0970
  23   2.0000      -6.030202      -164.0901
  24   2.0000      -1.007806       -27.4238
  25   2.0000      -0.986036       -26.8314
  26   2.0000      -0.924542       -25.1581
  27   2.0000      -0.903515       -24.5859
  28   2.0000      -0.879798       -23.9405
  29   2.0000      -0.849029       -23.1033
  30   2.0000      -0.843293       -22.9472
  31   2.0000      -0.816077       -22.2066
  32   2.0000      -0.784211       -21.3395
  33   2.0000      -0.774266       -21.0689
  34   2.0000      -0.711577       -19.3630
  35   2.0000      -0.697663       -18.9844
  36   2.0000      -0.691187       -18.8081
  37   2.0000      -0.662645       -18.0315
  38   2.0000      -0.643374       -17.5071
  39   2.0000      -0.615006       -16.7352
  40   2.0000      -0.596613       -16.2347
  41   2.0000      -0.587977       -15.9997
  42   2.0000      -0.558389       -15.1945
  43   2.0000      -0.548663       -14.9299
  44   2.0000      -0.542992       -14.7756
  45   2.0000      -0.533226       -14.5098
  46   2.0000      -0.517082       -14.0705
  47   2.0000      -0.515064       -14.0156
  48   2.0000      -0.509724       -13.8703
  49   2.0000      -0.499525       -13.5928
  50   2.0000      -0.492467       -13.4007
  51   2.0000      -0.481813       -13.1108
  52   2.0000      -0.469675       -12.7805
  53   2.0000      -0.466264       -12.6877
  54   2.0000      -0.459749       -12.5104
  55   2.0000      -0.441818       -12.0225
  56   2.0000      -0.438868       -11.9422
  57   2.0000      -0.432209       -11.7610
  58   2.0000      -0.427167       -11.6238
  59   2.0000      -0.422465       -11.4959
  60   2.0000      -0.418805       -11.3963
  61   2.0000      -0.414137       -11.2693
  62   2.0000      -0.404081       -10.9956
  63   2.0000      -0.345518        -9.4020
  64   2.0000      -0.332271        -9.0415
  65   2.0000      -0.328667        -8.9435
  66   2.0000      -0.297211        -8.0875
  67   0.0000       0.024531         0.6675
  68   0.0000       0.064433         1.7533
  69   0.0000       0.113826         3.0974
  70   0.0000       0.120445         3.2775
  71   0.0000       0.127177         3.4607

MULLIKEN ATOMIC CHARGES
-----------------------
   0 S :    0.098753
   1 C :   -0.130897
   2 C :   -0.078048
   3 C :    0.036307
   4 C :   -0.166585
   5 H :    0.014385
   6 C :    0.073900
   7 H :    0.010366
   8 H :   -0.004748
   9 C :   -0.015696
  10 H :    0.011927
  11 H :    0.019450
  12 C :   -0.063386
  13 H :    0.027814
  14 H :    0.031381
  15 H :    0.061092
  16 S :    0.100931
  17 C :   -0.101083
  18 C :   -0.022081
  19 C :   -0.024907
  20 C :   -0.168172
  21 H :   -0.001240
  22 C :    0.036043
  23 H :    0.020744
  24 H :    0.031986
  25 C :   -0.048036
  26 H :    0.026976
  27 H :    0.039148
  28 C :   -0.041154
  29 H :    0.039225
  30 H :    0.029851
  31 H :    0.013452
  32 H :    0.069819
  33 H :    0.072484
Sum of atomic charges:   -0.0000000

LOEWDIN ATOMIC CHARGES
----------------------
   0 S :    0.393096
   1 C :   -0.192498
   2 C :   -0.073523
   3 C :   -0.059706
   4 C :   -0.195581
   5 H :    0.025979
   6 C :   -0.033750
   7 H :    0.029610
   8 H :    0.020269
   9 C :   -0.029927
  10 H :    0.020317
  11 H :    0.017105
  12 C :   -0.060746
  13 H :    0.025117
  14 H :    0.028437
  15 H :    0.032315
  16 S :    0.395854
  17 C :   -0.186574
  18 C :   -0.064415
  19 C :   -0.050718
  20 C :   -0.193317
  21 H :    0.021552
  22 C :   -0.039793
  23 H :    0.029549
  24 H :    0.034661
  25 C :   -0.036535
  26 H :    0.026626
  27 H :    0.030677
  28 C :   -0.075209
  29 H :    0.031081
  30 H :    0.030863
  31 H :    0.018353
  32 H :    0.043851
  33 H :    0.036980

  Mayer bond orders larger than 0.100000
B(  0-S ,  1-C ) :   1.1324 B(  0-S ,  4-C ) :   1.1435 B(  1-C ,  2-C ) :   1.6221
B(  1-C , 32-H ) :   0.9586 B(  2-C ,  3-C ) :   1.2472 B(  2-C ,  6-C ) :   1.0173
B(  3-C ,  4-C ) :   1.5391 B(  3-C ,  5-H ) :   0.9913 B(  4-C , 20-C ) :   1.0864
B(  6-C ,  7-H ) :   0.9321 B(  6-C ,  8-H ) :   0.9382 B(  6-C ,  9-C ) :   1.0830
B(  9-C , 10-H ) :   0.9479 B(  9-C , 11-H ) :   0.9556 B(  9-C , 12-C ) :   1.0754
B( 12-C , 13-H ) :   0.9735 B( 12-C , 14-H ) :   0.9724 B( 12-C , 15-H ) :   0.9722
B( 16-S , 17-C ) :   1.1531 B( 16-S , 20-C ) :   1.1214 B( 17-C , 18-C ) :   1.6311
B( 17-C , 33-H ) :   0.9586 B( 18-C , 19-C ) :   1.2074 B( 18-C , 21-H ) :   1.0017
B( 19-C , 20-C ) :   1.6110 B( 19-C , 22-C ) :   1.0435 B( 22-C , 23-H ) :   0.9354
B( 22-C , 24-H ) :   0.9353 B( 22-C , 25-C ) :   1.0668 B( 25-C , 26-H ) :   0.9534
B( 25-C , 27-H ) :   0.9541 B( 25-C , 28-C ) :   1.0807 B( 28-C , 29-H ) :   0.9754
B( 28-C , 30-H ) :   0.9722 B( 28-C , 31-H ) :   0.9716

Dispersion correction           -0.014728062
FINAL SINGLE POINT ENERGY     -1339.858119804784

DIPOLE MOMENT
-------------
                                X             Y             Z
Electronic contribution:    -18.08158       4.64821       2.26629
Nuclear contribution   :     18.59013      -4.58668      -2.23031
                        -----------------------------------------
Total Dipole Moment    :      0.50855       0.06154       0.03597
                        -----------------------------------------
Magnitude (a.u.)       :      0.51352
Magnitude (Debye)      :      1.30527

Rotational constants in cm-1:     0.019479     0.008500     0.007802
Rotational constants in MHz :   583.973585   254.820086   233.888994

                             ****ORCA TERMINATED NORMALLY****
TOTAL RUN TIME: 0 days 0 hours 0 minutes 27 seconds 866 msec
