                         Program Version 4.2.1 -  RELEASE  -
|  1> ! wB97X-D3 SP def2-SVP
|  2> %pal
|  3> nprocs 16
|  4> end
|  5>
|  6> * xyz 0 1
|  7> S 	 0.917707 	 77.5706 	 49.6253
|  8> C 	 1.53239 	 78.691 	 50.8091
|  9> C 	 1.23694 	 78.2267 	 52.0918
| 10> C 	 0.649338 	 76.9268 	 52.0999
| 11> C 	 0.519645 	 76.3772 	 50.8502
| 12> H 	 0.380928 	 76.282 	 52.9369
| 13> C 	 1.62422 	 78.9675 	 53.3477
| 14> H 	 0.795083 	 78.859 	 54.0837
| 15> H 	 1.67253 	 80.0053 	 53.1388
| 16> C 	 2.9285 	 78.5179 	 53.964
| 17> H 	 2.8704 	 77.4809 	 54.2533
| 18> H 	 3.84553 	 78.5347 	 53.3364
| 19> C 	 3.20831 	 79.3453 	 55.1824
| 20> H 	 4.11017 	 79.0186 	 55.7578
| 21> H 	 3.61319 	 80.3044 	 54.9797
| 22> H 	 2.30975 	 79.3283 	 55.8576
| 23> S 	 0.98621 	 74.1319 	 49.2722
| 24> C 	 -0.0192039 	 72.644 	 49.442
| 25> C 	 -0.766681 	 72.7536 	 50.5909
| 26> C 	 -0.731466 	 74.0547 	 51.1916
| 27> C 	 0.165431 	 74.9747 	 50.5561
| 28> H 	 -1.34301 	 71.916 	 50.8901
| 29> C 	 -1.57577 	 74.353 	 52.4225
| 30> H 	 -2.57606 	 74.15 	 52.0246
| 31> H 	 -1.57959 	 75.438 	 52.5193
| 32> C 	 -1.04916 	 73.5866 	 53.6725
| 33> H 	 -0.0096469 	 73.9201 	 54.0184
| 34> H 	 -0.910358 	 72.5694 	 53.2766
| 35> C 	 -2.08775 	 73.7633 	 54.8355
| 36> H 	 -3.08868 	 73.3921 	 54.544
| 37> H 	 -2.23576 	 74.7637 	 55.1321
| 38> H 	 -1.81319 	 73.1494 	 55.6945
| 39> H 	 1.90378 	 79.6802 	 50.6593
| 40> H 	 0.0797128 	 71.7232 	 48.9088
| 41> *
| 42>
| 43>                          ****END OF INPUT****

CARTESIAN COORDINATES (ANGSTROEM)
---------------------------------
  S      0.917707   77.570600   49.625300
  C      1.532390   78.691000   50.809100
  C      1.236940   78.226700   52.091800
  C      0.649338   76.926800   52.099900
  C      0.519645   76.377200   50.850200
  H      0.380928   76.282000   52.936900
  C      1.624220   78.967500   53.347700
  H      0.795083   78.859000   54.083700
  H      1.672530   80.005300   53.138800
  C      2.928500   78.517900   53.964000
  H      2.870400   77.480900   54.253300
  H      3.845530   78.534700   53.336400
  C      3.208310   79.345300   55.182400
  H      4.110170   79.018600   55.757800
  H      3.613190   80.304400   54.979700
  H      2.309750   79.328300   55.857600
  S      0.986210   74.131900   49.272200
  C     -0.019204   72.644000   49.442000
  C     -0.766681   72.753600   50.590900
  C     -0.731466   74.054700   51.191600
  C      0.165431   74.974700   50.556100
  H     -1.343010   71.916000   50.890100
  C     -1.575770   74.353000   52.422500
  H     -2.576060   74.150000   52.024600
  H     -1.579590   75.438000   52.519300
  C     -1.049160   73.586600   53.672500
  H     -0.009647   73.920100   54.018400
  H     -0.910358   72.569400   53.276600
  C     -2.087750   73.763300   54.835500
  H     -3.088680   73.392100   54.544000
  H     -2.235760   74.763700   55.132100
  H     -1.813190   73.149400   55.694500
  H      1.903780   79.680200   50.659300
  H      0.079713   71.723200   48.908800

 Total Charge           Charge          ....    0
 Multiplicity           Mult            ....    1
 Number of Electrons    NEL             ....  134
 Basis Dimension        Dim             ....  322

ORBITAL ENERGIES
----------------

  NO   OCC          E(Eh)            E(eV)
   0   2.0000     -88.967899     -2420.9396
   1   2.0000     -88.964678     -2420.8520
   2   2.0000     -10.333647      -281.1928
   3   2.0000     -10.332672      -281.1663
   4   2.0000     -10.319517      -280.8083
   5   2.0000     -10.313507      -280.6448
   6   2.0000     -10.305822      -280.4357
   7   2.0000     -10.303765      -280.3797
   8   2.0000     -10.301752      -280.3249
   9   2.0000     -10.293873      -280.1105
  10   2.0000     -10.293400      -280.0977
  11   2.0000     -10.292131      -280.0631
  12   2.0000     -10.290467      -280.0179
  13   2.0000     -10.283162      -279.8191
  14   2.0000     -10.281539      -279.7749
  15   2.0000     -10.277772      -279.6724
  16   2.0000      -8.082393      -219.9331
  17   2.0000      -8.078542      -219.8283
  18   2.0000      -6.040986      -164.3836
  19   2.0000      -6.037193      -164.2804
  20   2.0000      -6.036881      -164.2719
  21   2.0000      -6.033108      -164.1692
  22   2.0000      -6.033058      -164.1679
  23   2.0000      -6.029286      -164.0652
  24   2.0000      -1.004368       -27.3302
  25   2.0000      -0.980994       -26.6942
  26   2.0000      -0.918368       -24.9901
  27   2.0000      -0.904250       -24.6059
  28   2.0000      -0.871923       -23.7262
  29   2.0000      -0.851116       -23.1601
  30   2.0000      -0.842826       -22.9345
  31   2.0000      -0.820356       -22.3230
  32   2.0000      -0.778596       -21.1867
  33   2.0000      -0.766401       -20.8548
  34   2.0000      -0.709912       -19.3177
  35   2.0000      -0.702797       -19.1241
  36   2.0000      -0.699298       -19.0289
  37   2.0000      -0.661029       -17.9875
  38   2.0000      -0.643881       -17.5209
  39   2.0000      -0.621277       -16.9058
  40   2.0000      -0.589582       -16.0433
  41   2.0000      -0.578785       -15.7495
  42   2.0000      -0.565506       -15.3882
  43   2.0000      -0.553426       -15.0595
  44   2.0000      -0.529475       -14.4077
  45   2.0000      -0.524024       -14.2594
  46   2.0000      -0.517957       -14.0943
  47   2.0000      -0.513145       -13.9634
  48   2.0000      -0.507503       -13.8099
  49   2.0000      -0.503350       -13.6968
  50   2.0000      -0.501022       -13.6335
  51   2.0000      -0.477801       -13.0016
  52   2.0000      -0.472647       -12.8614
  53   2.0000      -0.463284       -12.6066
  54   2.0000      -0.458083       -12.4651
  55   2.0000      -0.446239       -12.1428
  56   2.0000      -0.445143       -12.1130
  57   2.0000      -0.440060       -11.9746
  58   2.0000      -0.435382       -11.8473
  59   2.0000      -0.426171       -11.5967
  60   2.0000      -0.424736       -11.5576
  61   2.0000      -0.411037       -11.1849
  62   2.0000      -0.404644       -11.0109
  63   2.0000      -0.356016        -9.6877
  64   2.0000      -0.330752        -9.0002
  65   2.0000      -0.327112        -8.9012
  66   2.0000      -0.286210        -7.7882
  67   0.0000       0.022008         0.5989
  68   0.0000       0.078568         2.1379
  69   0.0000       0.111241         3.0270
  70   0.0000       0.113874         3.0987
  71   0.0000       0.132826         3.6144

MULLIKEN ATOMIC CHARGES
-----------------------
   0 S :    0.120893
   1 C :   -0.101365
   2 C :   -0.086565
   3 C :    0.023657
   4 C :   -0.146903
   5 H :    0.007660
   6 C :    0.068027
   7 H :    0.028812
   8 H :    0.006511
   9 C :   -0.048900
  10 H :    0.020457
  11 H :    0.031021
  12 C :   -0.054402
  13 H :    0.024528
  14 H :    0.020585
  15 H :    0.038762
  16 S :    0.093501
  17 C :   -0.086642
  18 C :   -0.028523
  19 C :   -0.075806
  20 C :   -0.130010
  21 H :    0.013612
  22 C :    0.047567
  23 H :    0.036299
  24 H :    0.015306
  25 C :   -0.084517
  26 H :    0.049684
  27 H :    0.031553
  28 C :   -0.016451
  29 H :    0.025577
  30 H :    0.027223
  31 H :    0.035513
  32 H :    0.039709
  33 H :    0.053629
Sum of atomic charges:    0.0000000

LOEWDIN ATOMIC CHARGES
----------------------
   0 S :    0.409401
   1 C :   -0.198564
   2 C :   -0.059289
   3 C :   -0.065749
   4 C :   -0.188707
   5 H :    0.033300
   6 C :   -0.030601
   7 H :    0.035869
   8 H :    0.023504
   9 C :   -0.043538
  10 H :    0.021956
  11 H :    0.030364
  12 C :   -0.073442
  13 H :    0.030752
  14 H :    0.019191
  15 H :    0.029717
  16 S :    0.390465
  17 C :   -0.168582
  18 C :   -0.070046
  19 C :   -0.059547
  20 C :   -0.202256
  21 H :    0.027570
  22 C :   -0.040372
  23 H :    0.036313
  24 H :    0.024297
  25 C :   -0.037318
  26 H :    0.033680
  27 H :    0.025913
  28 C :   -0.063674
  29 H :    0.027852
  30 H :    0.019906
  31 H :    0.026199
  32 H :    0.026782
  33 H :    0.028651

  Mayer bond orders larger than 0.100000
B(  0-S ,  1-C ) :   1.1332 B(  0-S ,  4-C ) :   1.1507 B(  1-C ,  2-C ) :   1.6000
B(  1-C , 32-H ) :   0.9707 B(  2-C ,  3-C ) :   1.2374 B(  2-C ,  6-C ) :   1.0374
B(  3-C ,  4-C ) :   1.5659 B(  3-C ,  5-H ) :   0.9902 B(  4-C , 20-C ) :   1.0535
B(  6-C ,  7-H ) :   0.9357 B(  6-C ,  8-H ) :   0.9377 B(  6-C ,  9-C ) :   1.0670
B(  9-C , 10-H ) :   0.9520 B(  9-C , 11-H ) :   0.9521 B(  9-C , 12-C ) :   1.0921
B( 12-C , 13-H ) :   0.9676 B( 12-C , 14-H ) :   0.9717 B( 12-C , 15-H ) :   0.9710
B( 16-S , 17-C ) :   1.1404 B( 16-S , 20-C ) :   1.1467 B( 17-C , 18-C ) :   1.6095
B( 17-C , 20-C ) :   0.1010 B( 17-C , 33-H ) :   0.9693 B( 18-C , 19-C ) :   1.2537
B( 18-C , 21-H ) :   0.9896 B( 19-C , 20-C ) :   1.5546 B( 19-C , 22-C ) :   1.0338
B( 22-C , 23-H ) :   0.9393 B( 22-C , 24-H ) :   0.9328 B( 22-C , 25-C ) :   1.0387
B( 25-C , 26-H ) :   0.9536 B( 25-C , 27-H ) :   0.9596 B( 25-C , 28-C ) :   1.0681
B( 28-C , 29-H ) :   0.9757 B( 28-C , 30-H ) :   0.9757 B( 28-C , 31-H ) :   0.9761

Dispersion correction           -0.013757222
FINAL SINGLE POINT ENERGY     -1339.873516093376

DIPOLE MOMENT
-------------
                                X             Y             Z
Electronic contribution:      1.60427      -3.58421     -30.58136
Nuclear contribution   :     -1.72057       3.49905      31.31617
                        -----------------------------------------
Total Dipole Moment    :     -0.11630      -0.08516       0.73481
                        -----------------------------------------
Magnitude (a.u.)       :      0.74881
Magnitude (Debye)      :      1.90333

Rotational constants in cm-1:     0.016668     0.008849     0.006393
Rotational constants in MHz :   499.707291   265.279180   191.648644

                             ****ORCA TERMINATED NORMALLY****
TOTAL RUN TIME: 0 days 0 hours 0 minutes 33 seconds 339 msec
