                         Program Version 4.2.1 -  RELEASE  -
|  1> ! wB97X-D3 SP def2-SVP
|  2> %pal
|  3> nprocs 16
|  4> end
|  5>
|  6> * xyz 0 1
|  7> S 	 14.9022 	 24.8454 	 48.7035
|  8> C 	 15.3788 	 23.3074 	 48.3855
|  9> C 	 14.6204 	 22.7029 	 47.4303
| 10> C 	 13.5226 	 23.534 	 47.034
| 11> C 	 13.5311 	 24.7194 	 47.6465
| 12> H 	 12.7494 	 23.2973 	 46.2974
| 13> C 	 14.9485 	 21.3314 	 46.9036
| 14> H 	 14.0904 	 20.9299 	 46.4304
| 15> H 	 15.1878 	 20.7411 	 47.8248
| 16> C 	 16.1603 	 21.3379 	 46.005
| 17> H 	 15.9803 	 22.1479 	 45.3355
| 18> H 	 17.0468 	 21.7018 	 46.5124
| 19> C 	 16.6127 	 20.0068 	 45.2779
| 20> H 	 16.9157 	 19.087 	 45.8038
| 21> H 	 15.6912 	 19.6957 	 44.7073
| 22> H 	 17.3233 	 20.1453 	 44.5286
| 23> S 	 13.2514 	 27.3561 	 46.901
| 24> C 	 11.7203 	 28.179 	 47.0879
| 25> C 	 10.7968 	 27.2017 	 47.3497
| 26> C 	 11.2285 	 25.8894 	 47.5553
| 27> C 	 12.6107 	 25.8206 	 47.4779
| 28> H 	 9.74126 	 27.5384 	 47.4627
| 29> C 	 10.2788 	 24.7714 	 47.9536
| 30> H 	 10.491 	 23.9135 	 47.3409
| 31> H 	 9.25113 	 25.018 	 47.8051
| 32> C 	 10.2623 	 24.3489 	 49.4367
| 33> H 	 9.98582 	 25.1755 	 50.1225
| 34> H 	 11.3234 	 24.0358 	 49.6688
| 35> C 	 9.45014 	 23.0849 	 49.7681
| 36> H 	 9.89264 	 22.1784 	 49.2671
| 37> H 	 8.45811 	 23.2189 	 49.3722
| 38> H 	 9.477 	 22.7822 	 50.8437
| 39> H 	 16.2315 	 22.8115 	 48.8162
| 40> H 	 11.5728 	 29.2131 	 46.8536
| 41> *
| 42>
| 43>                          ****END OF INPUT****

CARTESIAN COORDINATES (ANGSTROEM)
---------------------------------
  S     14.902200   24.845400   48.703500
  C     15.378800   23.307400   48.385500
  C     14.620400   22.702900   47.430300
  C     13.522600   23.534000   47.034000
  C     13.531100   24.719400   47.646500
  H     12.749400   23.297300   46.297400
  C     14.948500   21.331400   46.903600
  H     14.090400   20.929900   46.430400
  H     15.187800   20.741100   47.824800
  C     16.160300   21.337900   46.005000
  H     15.980300   22.147900   45.335500
  H     17.046800   21.701800   46.512400
  C     16.612700   20.006800   45.277900
  H     16.915700   19.087000   45.803800
  H     15.691200   19.695700   44.707300
  H     17.323300   20.145300   44.528600
  S     13.251400   27.356100   46.901000
  C     11.720300   28.179000   47.087900
  C     10.796800   27.201700   47.349700
  C     11.228500   25.889400   47.555300
  C     12.610700   25.820600   47.477900
  H      9.741260   27.538400   47.462700
  C     10.278800   24.771400   47.953600
  H     10.491000   23.913500   47.340900
  H      9.251130   25.018000   47.805100
  C     10.262300   24.348900   49.436700
  H      9.985820   25.175500   50.122500
  H     11.323400   24.035800   49.668800
  C      9.450140   23.084900   49.768100
  H      9.892640   22.178400   49.267100
  H      8.458110   23.218900   49.372200
  H      9.477000   22.782200   50.843700
  H     16.231500   22.811500   48.816200
  H     11.572800   29.213100   46.853600

 Total Charge           Charge          ....    0
 Multiplicity           Mult            ....    1
 Number of Electrons    NEL             ....  134
 Basis Dimension        Dim             ....  322

ORBITAL ENERGIES
----------------

  NO   OCC          E(Eh)            E(eV)
   0   2.0000     -88.963650     -2420.8240
   1   2.0000     -88.961607     -2420.7684
   2   2.0000     -10.326500      -280.9984
   3   2.0000     -10.320616      -280.8382
   4   2.0000     -10.313834      -280.6537
   5   2.0000     -10.302779      -280.3529
   6   2.0000     -10.301449      -280.3167
   7   2.0000     -10.294528      -280.1283
   8   2.0000     -10.292373      -280.0697
   9   2.0000     -10.291079      -280.0345
  10   2.0000     -10.289799      -279.9997
  11   2.0000     -10.289435      -279.9898
  12   2.0000     -10.287945      -279.9492
  13   2.0000     -10.285718      -279.8886
  14   2.0000     -10.281826      -279.7827
  15   2.0000     -10.281353      -279.7698
  16   2.0000      -8.081086      -219.8975
  17   2.0000      -8.076459      -219.7716
  18   2.0000      -6.039315      -164.3381
  19   2.0000      -6.035112      -164.2238
  20   2.0000      -6.034917      -164.2184
  21   2.0000      -6.032051      -164.1405
  22   2.0000      -6.030878      -164.1085
  23   2.0000      -6.027331      -164.0120
  24   2.0000      -1.022382       -27.8204
  25   2.0000      -0.994662       -27.0661
  26   2.0000      -0.914718       -24.8907
  27   2.0000      -0.906364       -24.6634
  28   2.0000      -0.876610       -23.8538
  29   2.0000      -0.852598       -23.2004
  30   2.0000      -0.847310       -23.0565
  31   2.0000      -0.818719       -22.2785
  32   2.0000      -0.783498       -21.3201
  33   2.0000      -0.774101       -21.0644
  34   2.0000      -0.708497       -19.2792
  35   2.0000      -0.705353       -19.1936
  36   2.0000      -0.687616       -18.7110
  37   2.0000      -0.664497       -18.0819
  38   2.0000      -0.648651       -17.6507
  39   2.0000      -0.620346       -16.8805
  40   2.0000      -0.599481       -16.3127
  41   2.0000      -0.573648       -15.6097
  42   2.0000      -0.567181       -15.4338
  43   2.0000      -0.553504       -15.0616
  44   2.0000      -0.528319       -14.3763
  45   2.0000      -0.521825       -14.1996
  46   2.0000      -0.520931       -14.1753
  47   2.0000      -0.514699       -14.0057
  48   2.0000      -0.508067       -13.8252
  49   2.0000      -0.501521       -13.6471
  50   2.0000      -0.497078       -13.5262
  51   2.0000      -0.490460       -13.3461
  52   2.0000      -0.475555       -12.9405
  53   2.0000      -0.465721       -12.6729
  54   2.0000      -0.462433       -12.5834
  55   2.0000      -0.451860       -12.2957
  56   2.0000      -0.439152       -11.9499
  57   2.0000      -0.436464       -11.8768
  58   2.0000      -0.428505       -11.6602
  59   2.0000      -0.425311       -11.5733
  60   2.0000      -0.420943       -11.4544
  61   2.0000      -0.409790       -11.1509
  62   2.0000      -0.405003       -11.0207
  63   2.0000      -0.353084        -9.6079
  64   2.0000      -0.331774        -9.0280
  65   2.0000      -0.328688        -8.9441
  66   2.0000      -0.296153        -8.0587
  67   0.0000       0.034414         0.9364
  68   0.0000       0.071390         1.9426
  69   0.0000       0.118499         3.2245
  70   0.0000       0.129356         3.5200
  71   0.0000       0.141249         3.8436

MULLIKEN ATOMIC CHARGES
-----------------------
   0 S :    0.140436
   1 C :   -0.099058
   2 C :   -0.136688
   3 C :    0.030736
   4 C :   -0.170859
   5 H :    0.017487
   6 C :    0.115798
   7 H :    0.005993
   8 H :    0.032196
   9 C :   -0.064210
  10 H :    0.019327
  11 H :    0.017457
  12 C :   -0.042812
  13 H :    0.041034
  14 H :    0.020733
  15 H :    0.023726
  16 S :    0.096228
  17 C :   -0.090116
  18 C :   -0.062184
  19 C :    0.018114
  20 C :   -0.177578
  21 H :    0.024861
  22 C :    0.112203
  23 H :    0.010905
  24 H :    0.004908
  25 C :   -0.109755
  26 H :    0.040555
  27 H :    0.036890
  28 C :   -0.060127
  29 H :    0.030607
  30 H :    0.025993
  31 H :    0.048863
  32 H :    0.041581
  33 H :    0.056756
Sum of atomic charges:    0.0000000

LOEWDIN ATOMIC CHARGES
----------------------
   0 S :    0.460251
   1 C :   -0.221500
   2 C :   -0.070079
   3 C :   -0.060617
   4 C :   -0.207531
   5 H :    0.036266
   6 C :   -0.028524
   7 H :    0.021991
   8 H :    0.036779
   9 C :   -0.040582
  10 H :    0.024337
  11 H :    0.020618
  12 C :   -0.072181
  13 H :    0.029474
  14 H :    0.028943
  15 H :    0.018619
  16 S :    0.400944
  17 C :   -0.187222
  18 C :   -0.076114
  19 C :   -0.060844
  20 C :   -0.188172
  21 H :    0.034209
  22 C :   -0.026874
  23 H :    0.027229
  24 H :    0.025239
  25 C :   -0.045915
  26 H :    0.026549
  27 H :    0.027754
  28 C :   -0.072368
  29 H :    0.028978
  30 H :    0.017126
  31 H :    0.034689
  32 H :    0.029073
  33 H :    0.029455

  Mayer bond orders larger than 0.100000
B(  0-S ,  1-C ) :   1.1713 B(  0-S ,  4-C ) :   1.1599 B(  1-C ,  2-C ) :   1.5972
B(  1-C , 32-H ) :   0.9672 B(  2-C ,  3-C ) :   1.2458 B(  2-C ,  6-C ) :   1.0241
B(  3-C ,  4-C ) :   1.5866 B(  3-C ,  5-H ) :   0.9991 B(  4-C , 20-C ) :   1.0230
B(  6-C ,  7-H ) :   0.9352 B(  6-C ,  8-H ) :   0.9357 B(  6-C ,  9-C ) :   1.0639
B(  9-C , 10-H ) :   0.9524 B(  9-C , 11-H ) :   0.9554 B(  9-C , 12-C ) :   1.0680
B( 12-C , 13-H ) :   0.9786 B( 12-C , 14-H ) :   0.9744 B( 12-C , 15-H ) :   0.9762
B( 16-S , 17-C ) :   1.1455 B( 16-S , 20-C ) :   1.1737 B( 17-C , 18-C ) :   1.5829
B( 17-C , 20-C ) :   0.1126 B( 17-C , 33-H ) :   0.9763 B( 18-C , 19-C ) :   1.2687
B( 18-C , 21-H ) :   0.9816 B( 19-C , 20-C ) :   1.5555 B( 19-C , 22-C ) :   1.0534
B( 22-C , 23-H ) :   0.9249 B( 22-C , 24-H ) :   0.9292 B( 22-C , 25-C ) :   1.0631
B( 25-C , 26-H ) :   0.9562 B( 25-C , 27-H ) :   0.9572 B( 25-C , 28-C ) :   1.0794
B( 28-C , 29-H ) :   0.9735 B( 28-C , 30-H ) :   0.9752 B( 28-C , 31-H ) :   0.9732

Dispersion correction           -0.014029041
FINAL SINGLE POINT ENERGY     -1339.877344157376

DIPOLE MOMENT
-------------
                                X             Y             Z
Electronic contribution:      6.01812      24.91012       1.46136
Nuclear contribution   :     -6.24850     -25.35311      -1.57788
                        -----------------------------------------
Total Dipole Moment    :     -0.23037      -0.44299      -0.11652
                        -----------------------------------------
Magnitude (a.u.)       :      0.51273
Magnitude (Debye)      :      1.30325

Rotational constants in cm-1:     0.019187     0.007980     0.006565
Rotational constants in MHz :   575.211000   239.233221   196.800853

                             ****ORCA TERMINATED NORMALLY****
TOTAL RUN TIME: 0 days 0 hours 0 minutes 32 seconds 344 msec
