                         Program Version 4.2.1 -  RELEASE  -
|  1> ! wB97X-D3 SP def2-SVP
|  2> %pal
|  3> nprocs 16
|  4> end
|  5>
|  6> * xyz 0 1
|  7> S 	 35.4852 	 29.2621 	 91.2945
|  8> C 	 34.4548 	 29.0169 	 89.8492
|  9> C 	 34.8431 	 27.8754 	 89.1178
| 10> C 	 35.8529 	 27.1731 	 89.8234
| 11> C 	 36.3541 	 27.7999 	 90.9578
| 12> H 	 36.1002 	 26.1091 	 89.5805
| 13> C 	 34.0671 	 27.2034 	 88.0597
| 14> H 	 33.0197 	 27.3172 	 88.3959
| 15> H 	 34.2364 	 26.1527 	 88.1048
| 16> C 	 34.4059 	 27.7584 	 86.6017
| 17> H 	 35.5379 	 27.7205 	 86.5339
| 18> H 	 33.9314 	 27.1506 	 85.77
| 19> C 	 34.0062 	 29.3023 	 86.644
| 20> H 	 33.1265 	 29.5246 	 87.2309
| 21> H 	 34.6302 	 29.9234 	 87.3041
| 22> H 	 33.9143 	 29.6825 	 85.6737
| 23> S 	 37.513 	 28.1846 	 93.4196
| 24> C 	 38.254 	 26.8011 	 94.22
| 25> C 	 38.6133 	 25.7981 	 93.2877
| 26> C 	 38.1303 	 26.074 	 91.9508
| 27> C 	 37.3364 	 27.2343 	 91.9035
| 28> H 	 39.1291 	 24.8477 	 93.5731
| 29> C 	 38.285 	 24.993 	 90.8683
| 30> H 	 39.3029 	 24.6166 	 90.9743
| 31> H 	 38.1209 	 25.4778 	 89.881
| 32> C 	 37.3405 	 23.8491 	 90.9295
| 33> H 	 36.3245 	 24.1959 	 90.8404
| 34> H 	 37.3945 	 23.4571 	 91.9284
| 35> C 	 37.5649 	 22.7963 	 89.7803
| 36> H 	 36.6368 	 22.1928 	 89.8128
| 37> H 	 38.4643 	 22.215 	 90.0933
| 38> H 	 37.5217 	 23.2111 	 88.7683
| 39> H 	 33.6415 	 29.6425 	 89.6182
| 40> H 	 38.68 	 26.6899 	 95.2293
| 41> *
| 42>
| 43>                          ****END OF INPUT****

CARTESIAN COORDINATES (ANGSTROEM)
---------------------------------
  S     35.485200   29.262100   91.294500
  C     34.454800   29.016900   89.849200
  C     34.843100   27.875400   89.117800
  C     35.852900   27.173100   89.823400
  C     36.354100   27.799900   90.957800
  H     36.100200   26.109100   89.580500
  C     34.067100   27.203400   88.059700
  H     33.019700   27.317200   88.395900
  H     34.236400   26.152700   88.104800
  C     34.405900   27.758400   86.601700
  H     35.537900   27.720500   86.533900
  H     33.931400   27.150600   85.770000
  C     34.006200   29.302300   86.644000
  H     33.126500   29.524600   87.230900
  H     34.630200   29.923400   87.304100
  H     33.914300   29.682500   85.673700
  S     37.513000   28.184600   93.419600
  C     38.254000   26.801100   94.220000
  C     38.613300   25.798100   93.287700
  C     38.130300   26.074000   91.950800
  C     37.336400   27.234300   91.903500
  H     39.129100   24.847700   93.573100
  C     38.285000   24.993000   90.868300
  H     39.302900   24.616600   90.974300
  H     38.120900   25.477800   89.881000
  C     37.340500   23.849100   90.929500
  H     36.324500   24.195900   90.840400
  H     37.394500   23.457100   91.928400
  C     37.564900   22.796300   89.780300
  H     36.636800   22.192800   89.812800
  H     38.464300   22.215000   90.093300
  H     37.521700   23.211100   88.768300
  H     33.641500   29.642500   89.618200
  H     38.680000   26.689900   95.229300

 Total Charge           Charge          ....    0
 Multiplicity           Mult            ....    1
 Number of Electrons    NEL             ....  134
 Basis Dimension        Dim             ....  322

ORBITAL ENERGIES
----------------

  NO   OCC          E(Eh)            E(eV)
   0   2.0000     -88.972366     -2421.0612
   1   2.0000     -88.968693     -2420.9612
   2   2.0000     -10.337667      -281.3022
   3   2.0000     -10.334385      -281.2129
   4   2.0000     -10.324947      -280.9561
   5   2.0000     -10.319169      -280.7989
   6   2.0000     -10.310467      -280.5621
   7   2.0000     -10.307561      -280.4830
   8   2.0000     -10.303763      -280.3796
   9   2.0000     -10.302990      -280.3586
  10   2.0000     -10.296247      -280.1751
  11   2.0000     -10.293306      -280.0951
  12   2.0000     -10.293044      -280.0880
  13   2.0000     -10.290406      -280.0162
  14   2.0000     -10.284119      -279.8451
  15   2.0000     -10.275308      -279.6053
  16   2.0000      -8.086390      -220.0418
  17   2.0000      -8.082507      -219.9362
  18   2.0000      -6.044966      -164.4919
  19   2.0000      -6.041264      -164.3912
  20   2.0000      -6.041033      -164.3849
  21   2.0000      -6.037287      -164.2829
  22   2.0000      -6.037090      -164.2776
  23   2.0000      -6.032924      -164.1642
  24   2.0000      -1.003408       -27.3041
  25   2.0000      -0.977865       -26.6091
  26   2.0000      -0.915845       -24.9214
  27   2.0000      -0.910246       -24.7691
  28   2.0000      -0.858740       -23.3675
  29   2.0000      -0.851278       -23.1645
  30   2.0000      -0.842270       -22.9193
  31   2.0000      -0.807317       -21.9682
  32   2.0000      -0.783095       -21.3091
  33   2.0000      -0.776131       -21.1196
  34   2.0000      -0.709300       -19.3010
  35   2.0000      -0.703593       -19.1457
  36   2.0000      -0.692715       -18.8497
  37   2.0000      -0.663028       -18.0419
  38   2.0000      -0.638911       -17.3856
  39   2.0000      -0.619897       -16.8683
  40   2.0000      -0.589974       -16.0540
  41   2.0000      -0.576806       -15.6957
  42   2.0000      -0.569283       -15.4910
  43   2.0000      -0.544044       -14.8042
  44   2.0000      -0.537876       -14.6363
  45   2.0000      -0.521981       -14.2038
  46   2.0000      -0.516492       -14.0545
  47   2.0000      -0.508093       -13.8259
  48   2.0000      -0.505194       -13.7470
  49   2.0000      -0.496628       -13.5139
  50   2.0000      -0.490385       -13.3441
  51   2.0000      -0.484396       -13.1811
  52   2.0000      -0.474799       -12.9199
  53   2.0000      -0.465111       -12.6563
  54   2.0000      -0.457858       -12.4590
  55   2.0000      -0.456562       -12.4237
  56   2.0000      -0.444624       -12.0988
  57   2.0000      -0.438089       -11.9210
  58   2.0000      -0.425464       -11.5775
  59   2.0000      -0.424585       -11.5535
  60   2.0000      -0.420857       -11.4521
  61   2.0000      -0.417992       -11.3741
  62   2.0000      -0.409208       -11.1351
  63   2.0000      -0.357311        -9.7229
  64   2.0000      -0.338350        -9.2070
  65   2.0000      -0.327940        -8.9237
  66   2.0000      -0.277308        -7.5459
  67   0.0000       0.010535         0.2867
  68   0.0000       0.076866         2.0916
  69   0.0000       0.082383         2.2417
  70   0.0000       0.105477         2.8702
  71   0.0000       0.131192         3.5699

MULLIKEN ATOMIC CHARGES
-----------------------
   0 S :    0.106897
   1 C :   -0.125691
   2 C :   -0.058856
   3 C :   -0.053924
   4 C :   -0.068434
   5 H :    0.017921
   6 C :    0.030801
   7 H :    0.044764
   8 H :    0.014004
   9 C :   -0.088477
  10 H :    0.050475
  11 H :    0.057230
  12 C :   -0.043702
  13 H :    0.007642
  14 H :    0.038359
  15 H :    0.033993
  16 S :    0.086489
  17 C :   -0.081711
  18 C :   -0.076853
  19 C :   -0.047262
  20 C :   -0.126830
  21 H :    0.041352
  22 C :    0.039699
  23 H :    0.023713
  24 H :    0.028428
  25 C :   -0.067242
  26 H :    0.017536
  27 H :    0.013456
  28 C :   -0.050257
  29 H :    0.037554
  30 H :    0.054113
  31 H :    0.039442
  32 H :    0.037046
  33 H :    0.068323
Sum of atomic charges:   -0.0000000

LOEWDIN ATOMIC CHARGES
----------------------
   0 S :    0.400593
   1 C :   -0.178202
   2 C :   -0.059118
   3 C :   -0.075004
   4 C :   -0.195030
   5 H :    0.034701
   6 C :   -0.034647
   7 H :    0.036783
   8 H :    0.022221
   9 C :   -0.035175
  10 H :    0.034280
  11 H :    0.031800
  12 C :   -0.072263
  13 H :    0.019146
  14 H :    0.032360
  15 H :    0.017085
  16 S :    0.375527
  17 C :   -0.190153
  18 C :   -0.076259
  19 C :   -0.055154
  20 C :   -0.170093
  21 H :    0.038278
  22 C :   -0.036871
  23 H :    0.030886
  24 H :    0.028822
  25 C :   -0.043238
  26 H :    0.017892
  27 H :    0.020785
  28 C :   -0.066168
  29 H :    0.031980
  30 H :    0.033653
  31 H :    0.027630
  32 H :    0.014826
  33 H :    0.038127

  Mayer bond orders larger than 0.100000
B(  0-S ,  1-C ) :   1.1379 B(  0-S ,  4-C ) :   1.1484 B(  1-C ,  2-C ) :   1.5687
B(  1-C ,  4-C ) :   0.1006 B(  1-C , 32-H ) :   0.9760 B(  2-C ,  3-C ) :   1.2834
B(  2-C ,  6-C ) :   1.0124 B(  3-C ,  4-C ) :   1.5548 B(  3-C ,  5-H ) :   0.9733
B(  4-C , 20-C ) :   1.0856 B(  6-C ,  7-H ) :   0.9539 B(  6-C ,  8-H ) :   0.9484
B(  6-C ,  9-C ) :   1.0419 B(  9-C , 10-H ) :   0.9573 B(  9-C , 11-H ) :   0.9630
B(  9-C , 12-C ) :   1.0566 B( 12-C , 13-H ) :   0.9753 B( 12-C , 14-H ) :   0.9654
B( 12-C , 15-H ) :   0.9766 B( 16-S , 17-C ) :   1.1401 B( 16-S , 20-C ) :   1.1182
B( 17-C , 18-C ) :   1.6252 B( 17-C , 33-H ) :   0.9616 B( 18-C , 19-C ) :   1.2328
B( 18-C , 21-H ) :   0.9763 B( 19-C , 20-C ) :   1.5898 B( 19-C , 22-C ) :   1.0472
B( 22-C , 23-H ) :   0.9271 B( 22-C , 24-H ) :   0.9330 B( 22-C , 25-C ) :   1.0780
B( 25-C , 26-H ) :   0.9504 B( 25-C , 27-H ) :   0.9469 B( 25-C , 28-C ) :   1.0715
B( 28-C , 29-H ) :   0.9758 B( 28-C , 30-H ) :   0.9765 B( 28-C , 31-H ) :   0.9736

Dispersion correction           -0.014403774
FINAL SINGLE POINT ENERGY     -1339.849559895242

DIPOLE MOMENT
-------------
                                X             Y             Z
Electronic contribution:      4.95937      17.15899      22.52647
Nuclear contribution   :     -5.13516     -17.85150     -22.81951
                        -----------------------------------------
Total Dipole Moment    :     -0.17580      -0.69251      -0.29304
                        -----------------------------------------
Magnitude (a.u.)       :      0.77224
Magnitude (Debye)      :      1.96287

Rotational constants in cm-1:     0.018354     0.009223     0.006369
Rotational constants in MHz :   550.230989   276.509887   190.947693

                             ****ORCA TERMINATED NORMALLY****
TOTAL RUN TIME: 0 days 0 hours 0 minutes 30 seconds 299 msec
