                         Program Version 4.2.1 -  RELEASE  -
|  1> ! wB97X-D3 SP def2-SVP
|  2> %pal
|  3> nprocs 16
|  4> end
|  5>
|  6> * xyz 0 1
|  7> S 	 -66.914 	 37.7916 	 131.376
|  8> C 	 -66.6249 	 39.1047 	 130.316
|  9> C 	 -65.8247 	 40.0984 	 130.837
| 10> C 	 -65.4638 	 39.7684 	 132.21
| 11> C 	 -65.9359 	 38.5618 	 132.673
| 12> H 	 -64.9308 	 40.2665 	 132.966
| 13> C 	 -65.4812 	 41.4151 	 130.203
| 14> H 	 -65.0794 	 41.2519 	 129.182
| 15> H 	 -64.6951 	 41.8913 	 130.796
| 16> C 	 -66.7674 	 42.3377 	 130.084
| 17> H 	 -66.3758 	 43.2439 	 129.644
| 18> H 	 -67.3897 	 41.737 	 129.385
| 19> C 	 -67.4286 	 42.5616 	 131.46
| 20> H 	 -67.8795 	 41.6726 	 131.876
| 21> H 	 -66.6973 	 43.0352 	 132.11
| 22> H 	 -68.3384 	 43.1981 	 131.176
| 23> S 	 -67.3191 	 37.2529 	 134.692
| 24> C 	 -66.5135 	 36.6887 	 136.173
| 25> C 	 -65.1558 	 37.1126 	 136.109
| 26> C 	 -64.8041 	 37.8895 	 134.943
| 27> C 	 -65.8529 	 37.9803 	 134.029
| 28> H 	 -64.421 	 36.7652 	 136.847
| 29> C 	 -63.4163 	 38.2355 	 134.489
| 30> H 	 -63.174 	 39.2501 	 134.85
| 31> H 	 -63.5392 	 38.2395 	 133.388
| 32> C 	 -62.215 	 37.3415 	 134.831
| 33> H 	 -62.0829 	 37.3455 	 135.916
| 34> H 	 -61.3653 	 37.8537 	 134.331
| 35> C 	 -62.3486 	 35.8868 	 134.225
| 36> H 	 -63.3903 	 35.4563 	 134.424
| 37> H 	 -61.7002 	 35.1025 	 134.669
| 38> H 	 -62.2975 	 35.8357 	 133.135
| 39> H 	 -67.2499 	 39.2493 	 129.384
| 40> H 	 -66.8936 	 36.0151 	 136.924
| 41> *
| 42>
| 43>                          ****END OF INPUT****

CARTESIAN COORDINATES (ANGSTROEM)
---------------------------------
  S    -66.914000   37.791600  131.376000
  C    -66.624900   39.104700  130.316000
  C    -65.824700   40.098400  130.837000
  C    -65.463800   39.768400  132.210000
  C    -65.935900   38.561800  132.673000
  H    -64.930800   40.266500  132.966000
  C    -65.481200   41.415100  130.203000
  H    -65.079400   41.251900  129.182000
  H    -64.695100   41.891300  130.796000
  C    -66.767400   42.337700  130.084000
  H    -66.375800   43.243900  129.644000
  H    -67.389700   41.737000  129.385000
  C    -67.428600   42.561600  131.460000
  H    -67.879500   41.672600  131.876000
  H    -66.697300   43.035200  132.110000
  H    -68.338400   43.198100  131.176000
  S    -67.319100   37.252900  134.692000
  C    -66.513500   36.688700  136.173000
  C    -65.155800   37.112600  136.109000
  C    -64.804100   37.889500  134.943000
  C    -65.852900   37.980300  134.029000
  H    -64.421000   36.765200  136.847000
  C    -63.416300   38.235500  134.489000
  H    -63.174000   39.250100  134.850000
  H    -63.539200   38.239500  133.388000
  C    -62.215000   37.341500  134.831000
  H    -62.082900   37.345500  135.916000
  H    -61.365300   37.853700  134.331000
  C    -62.348600   35.886800  134.225000
  H    -63.390300   35.456300  134.424000
  H    -61.700200   35.102500  134.669000
  H    -62.297500   35.835700  133.135000
  H    -67.249900   39.249300  129.384000
  H    -66.893600   36.015100  136.924000

 Total Charge           Charge          ....    0
 Multiplicity           Mult            ....    1
 Number of Electrons    NEL             ....  134
 Basis Dimension        Dim             ....  322

ORBITAL ENERGIES
----------------

  NO   OCC          E(Eh)            E(eV)
   0   2.0000     -88.966591     -2420.9040
   1   2.0000     -88.965831     -2420.8833
   2   2.0000     -10.333675      -281.1936
   3   2.0000     -10.331763      -281.1416
   4   2.0000     -10.325829      -280.9801
   5   2.0000     -10.317548      -280.7548
   6   2.0000     -10.305460      -280.4258
   7   2.0000     -10.304693      -280.4050
   8   2.0000     -10.303364      -280.3688
   9   2.0000     -10.295797      -280.1629
  10   2.0000     -10.295556      -280.1563
  11   2.0000     -10.294323      -280.1228
  12   2.0000     -10.293409      -280.0979
  13   2.0000     -10.291733      -280.0523
  14   2.0000     -10.284260      -279.8489
  15   2.0000     -10.282650      -279.8051
  16   2.0000      -8.080582      -219.8838
  17   2.0000      -8.080405      -219.8790
  18   2.0000      -6.039108      -164.3325
  19   2.0000      -6.039012      -164.3299
  20   2.0000      -6.035078      -164.2228
  21   2.0000      -6.034898      -164.2179
  22   2.0000      -6.031327      -164.1207
  23   2.0000      -6.031231      -164.1181
  24   2.0000      -1.002803       -27.2876
  25   2.0000      -0.979887       -26.6641
  26   2.0000      -0.908788       -24.7294
  27   2.0000      -0.904952       -24.6250
  28   2.0000      -0.867343       -23.6016
  29   2.0000      -0.846791       -23.0424
  30   2.0000      -0.837629       -22.7930
  31   2.0000      -0.814306       -22.1584
  32   2.0000      -0.778773       -21.1915
  33   2.0000      -0.769708       -20.9448
  34   2.0000      -0.704027       -19.1575
  35   2.0000      -0.700981       -19.0747
  36   2.0000      -0.694171       -18.8894
  37   2.0000      -0.656705       -17.8699
  38   2.0000      -0.642569       -17.4852
  39   2.0000      -0.606352       -16.4997
  40   2.0000      -0.589571       -16.0430
  41   2.0000      -0.579298       -15.7635
  42   2.0000      -0.555509       -15.1162
  43   2.0000      -0.546028       -14.8582
  44   2.0000      -0.536346       -14.5947
  45   2.0000      -0.529110       -14.3978
  46   2.0000      -0.522784       -14.2257
  47   2.0000      -0.515847       -14.0369
  48   2.0000      -0.498674       -13.5696
  49   2.0000      -0.490994       -13.3606
  50   2.0000      -0.488991       -13.3061
  51   2.0000      -0.479061       -13.0359
  52   2.0000      -0.470707       -12.8086
  53   2.0000      -0.464883       -12.6501
  54   2.0000      -0.459396       -12.5008
  55   2.0000      -0.444153       -12.0860
  56   2.0000      -0.437649       -11.9090
  57   2.0000      -0.433183       -11.7875
  58   2.0000      -0.429053       -11.6751
  59   2.0000      -0.425013       -11.5652
  60   2.0000      -0.420612       -11.4454
  61   2.0000      -0.415064       -11.2945
  62   2.0000      -0.410708       -11.1759
  63   2.0000      -0.351492        -9.5646
  64   2.0000      -0.328995        -8.9524
  65   2.0000      -0.327665        -8.9162
  66   2.0000      -0.291045        -7.9197
  67   0.0000       0.020927         0.5695
  68   0.0000       0.072088         1.9616
  69   0.0000       0.111013         3.0208
  70   0.0000       0.121329         3.3015
  71   0.0000       0.129261         3.5174

MULLIKEN ATOMIC CHARGES
-----------------------
   0 S :    0.106896
   1 C :   -0.144847
   2 C :   -0.083874
   3 C :    0.046090
   4 C :   -0.167678
   5 H :   -0.009415
   6 C :    0.046170
   7 H :    0.039528
   8 H :    0.022909
   9 C :   -0.085002
  10 H :    0.036501
  11 H :    0.030999
  12 C :   -0.056765
  13 H :    0.052831
  14 H :    0.042129
  15 H :    0.045051
  16 S :    0.099624
  17 C :   -0.095279
  18 C :   -0.051529
  19 C :   -0.021745
  20 C :   -0.163988
  21 H :    0.029021
  22 C :    0.002119
  23 H :    0.040914
  24 H :    0.045981
  25 C :   -0.047496
  26 H :    0.034821
  27 H :    0.041792
  28 C :   -0.098793
  29 H :    0.040759
  30 H :    0.042465
  31 H :    0.039563
  32 H :    0.076013
  33 H :    0.064234
Sum of atomic charges:   -0.0000000

LOEWDIN ATOMIC CHARGES
----------------------
   0 S :    0.396118
   1 C :   -0.215023
   2 C :   -0.066441
   3 C :   -0.054027
   4 C :   -0.182647
   5 H :    0.024926
   6 C :   -0.038371
   7 H :    0.034543
   8 H :    0.025923
   9 C :   -0.033382
  10 H :    0.022128
  11 H :    0.023350
  12 C :   -0.067319
  13 H :    0.028281
  14 H :    0.026586
  15 H :    0.038330
  16 S :    0.392573
  17 C :   -0.183944
  18 C :   -0.070751
  19 C :   -0.065562
  20 C :   -0.193225
  21 H :    0.032432
  22 C :   -0.041705
  23 H :    0.032910
  24 H :    0.037477
  25 C :   -0.038715
  26 H :    0.022092
  27 H :    0.033922
  28 C :   -0.082985
  29 H :    0.033669
  30 H :    0.028468
  31 H :    0.026815
  32 H :    0.040875
  33 H :    0.032678

  Mayer bond orders larger than 0.100000
B(  0-S ,  1-C ) :   1.1524 B(  0-S ,  4-C ) :   1.1264 B(  1-C ,  2-C ) :   1.6157
B(  1-C , 32-H ) :   0.9535 B(  2-C ,  3-C ) :   1.2036 B(  2-C ,  6-C ) :   1.0266
B(  3-C ,  4-C ) :   1.5994 B(  3-C ,  5-H ) :   1.0000 B(  4-C , 20-C ) :   1.0474
B(  6-C ,  7-H ) :   0.9409 B(  6-C ,  8-H ) :   0.9436 B(  6-C ,  9-C ) :   1.0581
B(  9-C , 10-H ) :   0.9596 B(  9-C , 11-H ) :   0.9587 B(  9-C , 12-C ) :   1.0709
B( 12-C , 13-H ) :   0.9707 B( 12-C , 14-H ) :   0.9767 B( 12-C , 15-H ) :   0.9727
B( 16-S , 17-C ) :   1.1474 B( 16-S , 20-C ) :   1.1441 B( 17-C , 18-C ) :   1.5895
B( 17-C , 20-C ) :   0.1058 B( 17-C , 33-H ) :   0.9714 B( 18-C , 19-C ) :   1.2536
B( 18-C , 21-H ) :   0.9801 B( 19-C , 20-C ) :   1.5717 B( 19-C , 22-C ) :   1.0323
B( 22-C , 23-H ) :   0.9212 B( 22-C , 24-H ) :   0.9435 B( 22-C , 25-C ) :   1.0846
B( 25-C , 26-H ) :   0.9533 B( 25-C , 27-H ) :   0.9528 B( 25-C , 28-C ) :   1.0597
B( 28-C , 29-H ) :   0.9762 B( 28-C , 30-H ) :   0.9779 B( 28-C , 31-H ) :   0.9755

Dispersion correction           -0.015015271
FINAL SINGLE POINT ENERGY     -1339.877378769828

DIPOLE MOMENT
-------------
                                X             Y             Z
Electronic contribution:    -14.13464     -11.63230       3.19226
Nuclear contribution   :     14.51303      11.98320      -3.22696
                        -----------------------------------------
Total Dipole Moment    :      0.37839       0.35090      -0.03470
                        -----------------------------------------
Magnitude (a.u.)       :      0.51722
Magnitude (Debye)      :      1.31466

Rotational constants in cm-1:     0.021462     0.008070     0.007151
Rotational constants in MHz :   643.423872   241.926305   214.368804

                             ****ORCA TERMINATED NORMALLY****
TOTAL RUN TIME: 0 days 0 hours 0 minutes 35 seconds 332 msec
