                         Program Version 4.2.1 -  RELEASE  -
|  1> ! wB97X-D3 SP def2-SVP
|  2> %pal
|  3> nprocs 16
|  4> end
|  5>
|  6> * xyz 0 1
|  7> S 	 -5.91368 	 60.0145 	 53.7029
|  8> C 	 -5.26827 	 59.3928 	 55.1845
|  9> C 	 -5.69372 	 59.9821 	 56.2963
| 10> C 	 -6.65567 	 60.9657 	 55.9569
| 11> C 	 -6.84069 	 61.1648 	 54.6332
| 12> H 	 -7.22951 	 61.6612 	 56.5714
| 13> C 	 -5.35139 	 59.644 	 57.7395
| 14> H 	 -4.78342 	 58.7442 	 57.711
| 15> H 	 -6.34069 	 59.5082 	 58.276
| 16> C 	 -4.48053 	 60.6783 	 58.4329
| 17> H 	 -5.0461 	 61.6345 	 58.316
| 18> H 	 -4.57384 	 60.4348 	 59.4878
| 19> C 	 -2.9766 	 60.7593 	 58.0536
| 20> H 	 -2.87451 	 61.0929 	 57.009
| 21> H 	 -2.34961 	 61.5091 	 58.399
| 22> H 	 -2.49629 	 59.811 	 58.0884
| 23> S 	 -8.76575 	 61.8116 	 52.7328
| 24> C 	 -8.97161 	 63.5147 	 52.2453
| 25> C 	 -8.29651 	 64.3251 	 53.0907
| 26> C 	 -7.5769 	 63.6455 	 54.1416
| 27> C 	 -7.54099 	 62.2612 	 53.9498
| 28> H 	 -8.51945 	 65.3517 	 53.0999
| 29> C 	 -6.86099 	 64.404 	 55.1902
| 30> H 	 -7.30402 	 64.0949 	 56.1187
| 31> H 	 -7.14514 	 65.4303 	 55.1195
| 32> C 	 -5.29564 	 64.3085 	 55.2152
| 33> H 	 -4.98456 	 64.4278 	 54.206
| 34> H 	 -4.91608 	 63.346 	 55.6052
| 35> C 	 -4.6821 	 65.1911 	 56.2482
| 36> H 	 -5.02933 	 64.9159 	 57.3222
| 37> H 	 -5.00983 	 66.2747 	 56.11
| 38> H 	 -3.56493 	 65.2792 	 56.3069
| 39> H 	 -4.41999 	 58.6865 	 55.213
| 40> H 	 -9.74801 	 63.8135 	 51.6072
| 41> *
| 42>
| 43>                          ****END OF INPUT****

CARTESIAN COORDINATES (ANGSTROEM)
---------------------------------
  S     -5.913680   60.014500   53.702900
  C     -5.268270   59.392800   55.184500
  C     -5.693720   59.982100   56.296300
  C     -6.655670   60.965700   55.956900
  C     -6.840690   61.164800   54.633200
  H     -7.229510   61.661200   56.571400
  C     -5.351390   59.644000   57.739500
  H     -4.783420   58.744200   57.711000
  H     -6.340690   59.508200   58.276000
  C     -4.480530   60.678300   58.432900
  H     -5.046100   61.634500   58.316000
  H     -4.573840   60.434800   59.487800
  C     -2.976600   60.759300   58.053600
  H     -2.874510   61.092900   57.009000
  H     -2.349610   61.509100   58.399000
  H     -2.496290   59.811000   58.088400
  S     -8.765750   61.811600   52.732800
  C     -8.971610   63.514700   52.245300
  C     -8.296510   64.325100   53.090700
  C     -7.576900   63.645500   54.141600
  C     -7.540990   62.261200   53.949800
  H     -8.519450   65.351700   53.099900
  C     -6.860990   64.404000   55.190200
  H     -7.304020   64.094900   56.118700
  H     -7.145140   65.430300   55.119500
  C     -5.295640   64.308500   55.215200
  H     -4.984560   64.427800   54.206000
  H     -4.916080   63.346000   55.605200
  C     -4.682100   65.191100   56.248200
  H     -5.029330   64.915900   57.322200
  H     -5.009830   66.274700   56.110000
  H     -3.564930   65.279200   56.306900
  H     -4.419990   58.686500   55.213000
  H     -9.748010   63.813500   51.607200

 Total Charge           Charge          ....    0
 Multiplicity           Mult            ....    1
 Number of Electrons    NEL             ....  134
 Basis Dimension        Dim             ....  322

ORBITAL ENERGIES
----------------

  NO   OCC          E(Eh)            E(eV)
   0   2.0000     -88.962829     -2420.8017
   1   2.0000     -88.960765     -2420.7455
   2   2.0000     -10.330275      -281.1011
   3   2.0000     -10.324168      -280.9349
   4   2.0000     -10.314091      -280.6607
   5   2.0000     -10.308580      -280.5107
   6   2.0000     -10.304435      -280.3979
   7   2.0000     -10.297269      -280.2029
   8   2.0000     -10.294237      -280.1204
   9   2.0000     -10.293643      -280.1043
  10   2.0000     -10.290780      -280.0264
  11   2.0000     -10.289701      -279.9970
  12   2.0000     -10.289051      -279.9793
  13   2.0000     -10.288070      -279.9526
  14   2.0000     -10.285111      -279.8721
  15   2.0000     -10.276019      -279.6247
  16   2.0000      -8.078460      -219.8261
  17   2.0000      -8.074863      -219.7282
  18   2.0000      -6.036893      -164.2722
  19   2.0000      -6.033414      -164.1775
  20   2.0000      -6.032975      -164.1656
  21   2.0000      -6.029594      -164.0736
  22   2.0000      -6.029100      -164.0602
  23   2.0000      -6.025473      -163.9615
  24   2.0000      -1.011415       -27.5220
  25   2.0000      -0.985513       -26.8172
  26   2.0000      -0.915218       -24.9044
  27   2.0000      -0.910303       -24.7706
  28   2.0000      -0.871879       -23.7250
  29   2.0000      -0.852716       -23.2036
  30   2.0000      -0.847371       -23.0581
  31   2.0000      -0.820237       -22.3198
  32   2.0000      -0.792481       -21.5645
  33   2.0000      -0.771350       -20.9895
  34   2.0000      -0.712178       -19.3793
  35   2.0000      -0.701589       -19.0912
  36   2.0000      -0.691477       -18.8160
  37   2.0000      -0.664976       -18.0949
  38   2.0000      -0.644750       -17.5445
  39   2.0000      -0.621814       -16.9204
  40   2.0000      -0.597300       -16.2534
  41   2.0000      -0.571551       -15.5527
  42   2.0000      -0.567689       -15.4476
  43   2.0000      -0.557687       -15.1754
  44   2.0000      -0.538278       -14.6473
  45   2.0000      -0.527110       -14.3434
  46   2.0000      -0.520800       -14.1717
  47   2.0000      -0.518032       -14.0964
  48   2.0000      -0.496996       -13.5240
  49   2.0000      -0.496663       -13.5149
  50   2.0000      -0.489608       -13.3229
  51   2.0000      -0.484211       -13.1760
  52   2.0000      -0.470464       -12.8020
  53   2.0000      -0.468845       -12.7579
  54   2.0000      -0.457584       -12.4515
  55   2.0000      -0.450770       -12.2661
  56   2.0000      -0.448347       -12.2001
  57   2.0000      -0.437317       -11.9000
  58   2.0000      -0.429503       -11.6874
  59   2.0000      -0.427188       -11.6244
  60   2.0000      -0.422619       -11.5000
  61   2.0000      -0.411096       -11.1865
  62   2.0000      -0.408576       -11.1179
  63   2.0000      -0.348262        -9.4767
  64   2.0000      -0.334745        -9.1089
  65   2.0000      -0.326855        -8.8942
  66   2.0000      -0.295269        -8.0347
  67   0.0000       0.030304         0.8246
  68   0.0000       0.070703         1.9239
  69   0.0000       0.105966         2.8835
  70   0.0000       0.116715         3.1760
  71   0.0000       0.129422         3.5218

MULLIKEN ATOMIC CHARGES
-----------------------
   0 S :    0.115215
   1 C :   -0.125836
   2 C :   -0.077159
   3 C :    0.007747
   4 C :   -0.149479
   5 H :    0.005013
   6 C :    0.085347
   7 H :    0.003336
   8 H :    0.052311
   9 C :   -0.072870
  10 H :    0.026783
  11 H :    0.030254
  12 C :   -0.011840
  13 H :    0.017471
  14 H :    0.020920
  15 H :    0.025727
  16 S :    0.077099
  17 C :   -0.064412
  18 C :   -0.008404
  19 C :   -0.059578
  20 C :   -0.152852
  21 H :    0.005910
  22 C :    0.092981
  23 H :    0.015100
  24 H :   -0.003364
  25 C :   -0.022162
  26 H :    0.031990
  27 H :    0.042065
  28 C :   -0.110046
  29 H :    0.038677
  30 H :    0.023849
  31 H :    0.047972
  32 H :    0.046380
  33 H :    0.045856
Sum of atomic charges:    0.0000000

LOEWDIN ATOMIC CHARGES
----------------------
   0 S :    0.408268
   1 C :   -0.195885
   2 C :   -0.073473
   3 C :   -0.064434
   4 C :   -0.194720
   5 H :    0.031417
   6 C :   -0.023295
   7 H :    0.022190
   8 H :    0.046154
   9 C :   -0.041576
  10 H :    0.025578
  11 H :    0.023858
  12 C :   -0.069421
  13 H :    0.032616
  14 H :    0.022926
  15 H :    0.022874
  16 S :    0.370534
  17 C :   -0.159924
  18 C :   -0.067261
  19 C :   -0.054400
  20 C :   -0.183926
  21 H :    0.025153
  22 C :   -0.029385
  23 H :    0.028002
  24 H :    0.025764
  25 C :   -0.038271
  26 H :    0.023219
  27 H :    0.033147
  28 C :   -0.081273
  29 H :    0.032189
  30 H :    0.020750
  31 H :    0.030690
  32 H :    0.031005
  33 H :    0.020912

  Mayer bond orders larger than 0.100000
B(  0-S ,  1-C ) :   1.1314 B(  0-S ,  4-C ) :   1.1414 B(  1-C ,  2-C ) :   1.6769
B(  1-C , 32-H ) :   0.9519 B(  2-C ,  3-C ) :   1.1856 B(  2-C ,  6-C ) :   1.0137
B(  3-C ,  4-C ) :   1.6353 B(  3-C ,  5-H ) :   0.9979 B(  4-C , 20-C ) :   1.0201
B(  6-C ,  7-H ) :   0.9346 B(  6-C ,  8-H ) :   0.9407 B(  6-C ,  9-C ) :   1.0724
B(  9-C , 10-H ) :   0.9574 B(  9-C , 11-H ) :   0.9552 B(  9-C , 12-C ) :   1.0648
B( 12-C , 13-H ) :   0.9670 B( 12-C , 14-H ) :   0.9724 B( 12-C , 15-H ) :   0.9743
B( 16-S , 17-C ) :   1.1358 B( 16-S , 20-C ) :   1.1377 B( 17-C , 18-C ) :   1.6281
B( 17-C , 33-H ) :   0.9718 B( 18-C , 19-C ) :   1.2364 B( 18-C , 21-H ) :   0.9873
B( 19-C , 20-C ) :   1.5918 B( 19-C , 22-C ) :   1.0633 B( 22-C , 23-H ) :   0.9176
B( 22-C , 24-H ) :   0.9257 B( 22-C , 25-C ) :   1.0549 B( 25-C , 26-H ) :   0.9586
B( 25-C , 27-H ) :   0.9484 B( 25-C , 28-C ) :   1.0747 B( 28-C , 29-H ) :   0.9715
B( 28-C , 30-H ) :   0.9716 B( 28-C , 31-H ) :   0.9736

Dispersion correction           -0.015554301
FINAL SINGLE POINT ENERGY     -1339.863584716389

DIPOLE MOMENT
-------------
                                X             Y             Z
Electronic contribution:    -17.78445     -11.24790     -23.38685
Nuclear contribution   :     18.01519      11.65962      24.01868
                        -----------------------------------------
Total Dipole Moment    :      0.23074       0.41172       0.63183
                        -----------------------------------------
Magnitude (a.u.)       :      0.78865
Magnitude (Debye)      :      2.00458

Rotational constants in cm-1:     0.019677     0.009755     0.007228
Rotational constants in MHz :   589.905263   292.439870   216.700459

                             ****ORCA TERMINATED NORMALLY****
TOTAL RUN TIME: 0 days 0 hours 0 minutes 35 seconds 781 msec
