                         Program Version 4.2.1 -  RELEASE  -
|  1> ! wB97X-D3 SP def2-SVP
|  2> %pal
|  3> nprocs 16
|  4> end
|  5>
|  6> * xyz 0 1
|  7> S 	 -44.3896 	 52.4125 	 101.179
|  8> C 	 -46.0229 	 52.4521 	 101.978
|  9> C 	 -46.8592 	 51.5458 	 101.382
| 10> C 	 -46.199 	 50.6908 	 100.444
| 11> C 	 -44.871 	 51.0263 	 100.181
| 12> H 	 -46.6403 	 49.8586 	 99.9583
| 13> C 	 -48.3621 	 51.3759 	 101.728
| 14> H 	 -49.002 	 51.0581 	 100.806
| 15> H 	 -48.7445 	 52.4099 	 101.728
| 16> C 	 -48.8083 	 50.6316 	 103.005
| 17> H 	 -49.8986 	 50.5301 	 102.956
| 18> H 	 -48.4067 	 49.6278 	 102.882
| 19> C 	 -48.3393 	 51.2569 	 104.282
| 20> H 	 -48.8151 	 52.2227 	 104.549
| 21> H 	 -48.5494 	 50.6887 	 105.108
| 22> H 	 -47.2864 	 51.521 	 104.336
| 23> S 	 -43.4733 	 48.6842 	 99.4897
| 24> C 	 -42.2886 	 48.6954 	 98.2117
| 25> C 	 -42.2694 	 49.9217 	 97.6517
| 26> C 	 -43.1644 	 50.9023 	 98.2261
| 27> C 	 -43.974 	 50.3743 	 99.2271
| 28> H 	 -41.543 	 49.9603 	 96.8362
| 29> C 	 -43.0731 	 52.3344 	 97.774
| 30> H 	 -42.1001 	 52.6698 	 98.0564
| 31> H 	 -43.825 	 52.9001 	 98.2985
| 32> C 	 -43.2405 	 52.6526 	 96.2868
| 33> H 	 -44.3119 	 52.5505 	 96.1264
| 34> H 	 -42.7375 	 51.8772 	 95.7747
| 35> C 	 -42.7281 	 54.0708 	 95.817
| 36> H 	 -41.6512 	 54.0583 	 95.8038
| 37> H 	 -43.1487 	 54.8991 	 96.4281
| 38> H 	 -43.2345 	 54.1148 	 94.8744
| 39> H 	 -46.4266 	 53.208 	 102.606
| 40> H 	 -41.6144 	 47.9623 	 97.9692
| 41> *
| 42>
| 43>                          ****END OF INPUT****

CARTESIAN COORDINATES (ANGSTROEM)
---------------------------------
  S    -44.389600   52.412500  101.179000
  C    -46.022900   52.452100  101.978000
  C    -46.859200   51.545800  101.382000
  C    -46.199000   50.690800  100.444000
  C    -44.871000   51.026300  100.181000
  H    -46.640300   49.858600   99.958300
  C    -48.362100   51.375900  101.728000
  H    -49.002000   51.058100  100.806000
  H    -48.744500   52.409900  101.728000
  C    -48.808300   50.631600  103.005000
  H    -49.898600   50.530100  102.956000
  H    -48.406700   49.627800  102.882000
  C    -48.339300   51.256900  104.282000
  H    -48.815100   52.222700  104.549000
  H    -48.549400   50.688700  105.108000
  H    -47.286400   51.521000  104.336000
  S    -43.473300   48.684200   99.489700
  C    -42.288600   48.695400   98.211700
  C    -42.269400   49.921700   97.651700
  C    -43.164400   50.902300   98.226100
  C    -43.974000   50.374300   99.227100
  H    -41.543000   49.960300   96.836200
  C    -43.073100   52.334400   97.774000
  H    -42.100100   52.669800   98.056400
  H    -43.825000   52.900100   98.298500
  C    -43.240500   52.652600   96.286800
  H    -44.311900   52.550500   96.126400
  H    -42.737500   51.877200   95.774700
  C    -42.728100   54.070800   95.817000
  H    -41.651200   54.058300   95.803800
  H    -43.148700   54.899100   96.428100
  H    -43.234500   54.114800   94.874400
  H    -46.426600   53.208000  102.606000
  H    -41.614400   47.962300   97.969200

 Total Charge           Charge          ....    0
 Multiplicity           Mult            ....    1
 Number of Electrons    NEL             ....  134
 Basis Dimension        Dim             ....  322

ORBITAL ENERGIES
----------------

  NO   OCC          E(Eh)            E(eV)
   0   2.0000     -88.969896     -2420.9939
   1   2.0000     -88.960744     -2420.7449
   2   2.0000     -10.335849      -281.2528
   3   2.0000     -10.331244      -281.1275
   4   2.0000     -10.317622      -280.7568
   5   2.0000     -10.310346      -280.5588
   6   2.0000     -10.307348      -280.4772
   7   2.0000     -10.304863      -280.4096
   8   2.0000     -10.301836      -280.3272
   9   2.0000     -10.293555      -280.1019
  10   2.0000     -10.291267      -280.0396
  11   2.0000     -10.290128      -280.0086
  12   2.0000     -10.281465      -279.7729
  13   2.0000     -10.280802      -279.7549
  14   2.0000     -10.280266      -279.7402
  15   2.0000     -10.269782      -279.4550
  16   2.0000      -8.082675      -219.9408
  17   2.0000      -8.075349      -219.7414
  18   2.0000      -6.041422      -164.3954
  19   2.0000      -6.037473      -164.2880
  20   2.0000      -6.034005      -164.1936
  21   2.0000      -6.033248      -164.1730
  22   2.0000      -6.029759      -164.0781
  23   2.0000      -6.026053      -163.9772
  24   2.0000      -1.001659       -27.2565
  25   2.0000      -0.979806       -26.6619
  26   2.0000      -0.909192       -24.7404
  27   2.0000      -0.907220       -24.6867
  28   2.0000      -0.872854       -23.7516
  29   2.0000      -0.845784       -23.0149
  30   2.0000      -0.843260       -22.9463
  31   2.0000      -0.817235       -22.2381
  32   2.0000      -0.786158       -21.3924
  33   2.0000      -0.776527       -21.1304
  34   2.0000      -0.713826       -19.4242
  35   2.0000      -0.702181       -19.1073
  36   2.0000      -0.696368       -18.9491
  37   2.0000      -0.658432       -17.9168
  38   2.0000      -0.635469       -17.2920
  39   2.0000      -0.617202       -16.7949
  40   2.0000      -0.597399       -16.2560
  41   2.0000      -0.574935       -15.6448
  42   2.0000      -0.570066       -15.5123
  43   2.0000      -0.549221       -14.9451
  44   2.0000      -0.538659       -14.6577
  45   2.0000      -0.525717       -14.3055
  46   2.0000      -0.522414       -14.2156
  47   2.0000      -0.513332       -13.9685
  48   2.0000      -0.511249       -13.9118
  49   2.0000      -0.492443       -13.4001
  50   2.0000      -0.491355       -13.3704
  51   2.0000      -0.482305       -13.1242
  52   2.0000      -0.472596       -12.8600
  53   2.0000      -0.468501       -12.7486
  54   2.0000      -0.460286       -12.5250
  55   2.0000      -0.443492       -12.0680
  56   2.0000      -0.437848       -11.9145
  57   2.0000      -0.433145       -11.7865
  58   2.0000      -0.428937       -11.6720
  59   2.0000      -0.423833       -11.5331
  60   2.0000      -0.416536       -11.3345
  61   2.0000      -0.414153       -11.2697
  62   2.0000      -0.408981       -11.1289
  63   2.0000      -0.345260        -9.3950
  64   2.0000      -0.333204        -9.0669
  65   2.0000      -0.324703        -8.8356
  66   2.0000      -0.300694        -8.1823
  67   0.0000       0.029956         0.8151
  68   0.0000       0.063434         1.7261
  69   0.0000       0.104209         2.8357
  70   0.0000       0.115946         3.1550
  71   0.0000       0.131309         3.5731

MULLIKEN ATOMIC CHARGES
-----------------------
   0 S :    0.108343
   1 C :   -0.104131
   2 C :   -0.078930
   3 C :    0.042907
   4 C :   -0.152646
   5 H :    0.000098
   6 C :   -0.018779
   7 H :    0.037769
   8 H :    0.021388
   9 C :   -0.009177
  10 H :    0.033862
  11 H :    0.029902
  12 C :   -0.029071
  13 H :    0.016555
  14 H :    0.012962
  15 H :    0.031658
  16 S :    0.089764
  17 C :   -0.057925
  18 C :   -0.051739
  19 C :   -0.036374
  20 C :   -0.138739
  21 H :    0.022487
  22 C :    0.102012
  23 H :    0.019344
  24 H :    0.012954
  25 C :   -0.104852
  26 H :    0.028517
  27 H :    0.016273
  28 C :   -0.033480
  29 H :    0.043411
  30 H :    0.040538
  31 H :    0.037056
  32 H :    0.041657
  33 H :    0.026387
Sum of atomic charges:    0.0000000

LOEWDIN ATOMIC CHARGES
----------------------
   0 S :    0.378859
   1 C :   -0.174989
   2 C :   -0.061525
   3 C :   -0.054130
   4 C :   -0.182302
   5 H :    0.026506
   6 C :   -0.047559
   7 H :    0.041218
   8 H :    0.028339
   9 C :   -0.036504
  10 H :    0.030482
  11 H :    0.027368
  12 C :   -0.067462
  13 H :    0.027931
  14 H :    0.016493
  15 H :    0.028049
  16 S :    0.389832
  17 C :   -0.167599
  18 C :   -0.078651
  19 C :   -0.049843
  20 C :   -0.194624
  21 H :    0.033926
  22 C :   -0.034889
  23 H :    0.027490
  24 H :    0.020544
  25 C :   -0.033522
  26 H :    0.024282
  27 H :    0.013461
  28 C :   -0.058213
  29 H :    0.024618
  30 H :    0.030649
  31 H :    0.029433
  32 H :    0.024704
  33 H :    0.017627

  Mayer bond orders larger than 0.100000
B(  0-S ,  1-C ) :   1.1159 B(  0-S ,  4-C ) :   1.1272 B(  1-C ,  2-C ) :   1.6465
B(  1-C , 32-H ) :   0.9622 B(  2-C ,  3-C ) :   1.2262 B(  2-C ,  6-C ) :   1.0076
B(  3-C ,  4-C ) :   1.5797 B(  3-C ,  5-H ) :   1.0022 B(  4-C , 20-C ) :   1.0466
B(  6-C ,  7-H ) :   0.9479 B(  6-C ,  8-H ) :   0.9394 B(  6-C ,  9-C ) :   1.0646
B(  9-C , 10-H ) :   0.9495 B(  9-C , 11-H ) :   0.9530 B(  9-C , 12-C ) :   1.0875
B( 12-C , 13-H ) :   0.9695 B( 12-C , 14-H ) :   0.9695 B( 12-C , 15-H ) :   0.9695
B( 16-S , 17-C ) :   1.1448 B( 16-S , 20-C ) :   1.1220 B( 17-C , 18-C ) :   1.6540
B( 17-C , 33-H ) :   0.9743 B( 18-C , 19-C ) :   1.1937 B( 18-C , 21-H ) :   0.9871
B( 19-C , 20-C ) :   1.5999 B( 19-C , 22-C ) :   1.0516 B( 22-C , 23-H ) :   0.9310
B( 22-C , 24-H ) :   0.9271 B( 22-C , 25-C ) :   1.0602 B( 25-C , 26-H ) :   0.9590
B( 25-C , 27-H ) :   0.9605 B( 25-C , 28-C ) :   1.0740 B( 28-C , 29-H ) :   0.9763
B( 28-C , 30-H ) :   0.9762 B( 28-C , 31-H ) :   0.9761

Dispersion correction           -0.013791158
FINAL SINGLE POINT ENERGY     -1339.863650880711

DIPOLE MOMENT
-------------
                                X             Y             Z
Electronic contribution:     11.20166     -10.91221       2.42555
Nuclear contribution   :    -11.41275      11.08756      -2.65600
                        -----------------------------------------
Total Dipole Moment    :     -0.21109       0.17535      -0.23045
                        -----------------------------------------
Magnitude (a.u.)       :      0.35834
Magnitude (Debye)      :      0.91084

Rotational constants in cm-1:     0.022034     0.007106     0.005959
Rotational constants in MHz :   660.557022   213.021356   178.637576

                             ****ORCA TERMINATED NORMALLY****
TOTAL RUN TIME: 0 days 0 hours 0 minutes 28 seconds 605 msec
