                         Program Version 4.2.1 -  RELEASE  -
|  1> ! wB97X-D3 SP def2-SVP
|  2> %pal
|  3> nprocs 16
|  4> end
|  5>
|  6> * xyz 0 1
|  7> S 	 3.57916 	 -24.6937 	 62.2723
|  8> C 	 2.38435 	 -24.555 	 63.551
|  9> C 	 1.25898 	 -25.3309 	 63.2958
| 10> C 	 1.43031 	 -26.1303 	 62.1004
| 11> C 	 2.61946 	 -25.9283 	 61.3943
| 12> H 	 0.7996 	 -26.9592 	 61.8303
| 13> C 	 0.0647153 	 -25.5311 	 64.1947
| 14> H 	 0.35303 	 -25.2854 	 65.1581
| 15> H 	 -0.348542 	 -26.556 	 64.2266
| 16> C 	 -1.10303 	 -24.6563 	 63.7058
| 17> H 	 -1.35606 	 -25.0461 	 62.7238
| 18> H 	 -1.9321 	 -24.7901 	 64.3858
| 19> C 	 -0.892156 	 -23.2227 	 63.5042
| 20> H 	 -0.730392 	 -22.7507 	 64.4435
| 21> H 	 -0.170599 	 -22.9329 	 62.7601
| 22> H 	 -1.77418 	 -22.5698 	 63.2477
| 23> S 	 4.2446 	 -27.8992 	 60.4922
| 24> C 	 4.45852 	 -28.0259 	 58.7159
| 25> C 	 3.82378 	 -27.0328 	 58.0112
| 26> C 	 3.11426 	 -26.1826 	 58.8981
| 27> C 	 3.14114 	 -26.5569 	 60.1915
| 28> H 	 3.94522 	 -26.9456 	 56.9768
| 29> C 	 2.35856 	 -25.0047 	 58.2649
| 30> H 	 1.6408 	 -24.55 	 58.9133
| 31> H 	 1.78159 	 -25.482 	 57.5118
| 32> C 	 3.18365 	 -23.8767 	 57.5949
| 33> H 	 2.55033 	 -23.3354 	 56.9195
| 34> H 	 3.8721 	 -24.3096 	 56.9351
| 35> C 	 3.99579 	 -23.033 	 58.6895
| 36> H 	 3.31984 	 -22.6505 	 59.3842
| 37> H 	 4.59028 	 -22.2632 	 58.1921
| 38> H 	 4.75119 	 -23.5379 	 59.3074
| 39> H 	 2.41175 	 -23.9376 	 64.4139
| 40> H 	 5.04271 	 -28.7946 	 58.2538
| 41> *
| 42>
| 43>                          ****END OF INPUT****

CARTESIAN COORDINATES (ANGSTROEM)
---------------------------------
  S      3.579160  -24.693700   62.272300
  C      2.384350  -24.555000   63.551000
  C      1.258980  -25.330900   63.295800
  C      1.430310  -26.130300   62.100400
  C      2.619460  -25.928300   61.394300
  H      0.799600  -26.959200   61.830300
  C      0.064715  -25.531100   64.194700
  H      0.353030  -25.285400   65.158100
  H     -0.348542  -26.556000   64.226600
  C     -1.103030  -24.656300   63.705800
  H     -1.356060  -25.046100   62.723800
  H     -1.932100  -24.790100   64.385800
  C     -0.892156  -23.222700   63.504200
  H     -0.730392  -22.750700   64.443500
  H     -0.170599  -22.932900   62.760100
  H     -1.774180  -22.569800   63.247700
  S      4.244600  -27.899200   60.492200
  C      4.458520  -28.025900   58.715900
  C      3.823780  -27.032800   58.011200
  C      3.114260  -26.182600   58.898100
  C      3.141140  -26.556900   60.191500
  H      3.945220  -26.945600   56.976800
  C      2.358560  -25.004700   58.264900
  H      1.640800  -24.550000   58.913300
  H      1.781590  -25.482000   57.511800
  C      3.183650  -23.876700   57.594900
  H      2.550330  -23.335400   56.919500
  H      3.872100  -24.309600   56.935100
  C      3.995790  -23.033000   58.689500
  H      3.319840  -22.650500   59.384200
  H      4.590280  -22.263200   58.192100
  H      4.751190  -23.537900   59.307400
  H      2.411750  -23.937600   64.413900
  H      5.042710  -28.794600   58.253800

 Total Charge           Charge          ....    0
 Multiplicity           Mult            ....    1
 Number of Electrons    NEL             ....  134
 Basis Dimension        Dim             ....  322

ORBITAL ENERGIES
----------------

  NO   OCC          E(Eh)            E(eV)
   0   2.0000     -88.965122     -2420.8640
   1   2.0000     -88.964028     -2420.8343
   2   2.0000     -10.331211      -281.1265
   3   2.0000     -10.321621      -280.8656
   4   2.0000     -10.319740      -280.8144
   5   2.0000     -10.314146      -280.6622
   6   2.0000     -10.301296      -280.3125
   7   2.0000     -10.300932      -280.3026
   8   2.0000     -10.295629      -280.1583
   9   2.0000     -10.290232      -280.0114
  10   2.0000     -10.288758      -279.9713
  11   2.0000     -10.285743      -279.8893
  12   2.0000     -10.284751      -279.8623
  13   2.0000     -10.279448      -279.7180
  14   2.0000     -10.272259      -279.5224
  15   2.0000     -10.267866      -279.4028
  16   2.0000      -8.078692      -219.8324
  17   2.0000      -8.078308      -219.8219
  18   2.0000      -6.037297      -164.2832
  19   2.0000      -6.036828      -164.2704
  20   2.0000      -6.033228      -164.1725
  21   2.0000      -6.033120      -164.1695
  22   2.0000      -6.029551      -164.0724
  23   2.0000      -6.028825      -164.0527
  24   2.0000      -1.002841       -27.2887
  25   2.0000      -0.978803       -26.6346
  26   2.0000      -0.917321       -24.9616
  27   2.0000      -0.901056       -24.5190
  28   2.0000      -0.870408       -23.6850
  29   2.0000      -0.844720       -22.9860
  30   2.0000      -0.842407       -22.9231
  31   2.0000      -0.814686       -22.1687
  32   2.0000      -0.786459       -21.4006
  33   2.0000      -0.775882       -21.1128
  34   2.0000      -0.713013       -19.4021
  35   2.0000      -0.700735       -19.0680
  36   2.0000      -0.692257       -18.8373
  37   2.0000      -0.669212       -18.2102
  38   2.0000      -0.641146       -17.4465
  39   2.0000      -0.618532       -16.8311
  40   2.0000      -0.598452       -16.2847
  41   2.0000      -0.576608       -15.6903
  42   2.0000      -0.556122       -15.1329
  43   2.0000      -0.549613       -14.9557
  44   2.0000      -0.546149       -14.8615
  45   2.0000      -0.529032       -14.3957
  46   2.0000      -0.517116       -14.0714
  47   2.0000      -0.513528       -13.9738
  48   2.0000      -0.501533       -13.6474
  49   2.0000      -0.493016       -13.4157
  50   2.0000      -0.490536       -13.3482
  51   2.0000      -0.477381       -12.9902
  52   2.0000      -0.467664       -12.7258
  53   2.0000      -0.461683       -12.5630
  54   2.0000      -0.459898       -12.5145
  55   2.0000      -0.453363       -12.3366
  56   2.0000      -0.445741       -12.1292
  57   2.0000      -0.433625       -11.7995
  58   2.0000      -0.431656       -11.7460
  59   2.0000      -0.425074       -11.5669
  60   2.0000      -0.418762       -11.3951
  61   2.0000      -0.413993       -11.2653
  62   2.0000      -0.403711       -10.9855
  63   2.0000      -0.336905        -9.1677
  64   2.0000      -0.327650        -8.9158
  65   2.0000      -0.319248        -8.6872
  66   2.0000      -0.312221        -8.4960
  67   0.0000       0.046841         1.2746
  68   0.0000       0.049339         1.3426
  69   0.0000       0.108790         2.9603
  70   0.0000       0.118035         3.2119
  71   0.0000       0.120422         3.2769

MULLIKEN ATOMIC CHARGES
-----------------------
   0 S :    0.108647
   1 C :   -0.093962
   2 C :   -0.126007
   3 C :    0.054197
   4 C :   -0.172640
   5 H :    0.012274
   6 C :    0.118072
   7 H :   -0.003708
   8 H :    0.036130
   9 C :   -0.054120
  10 H :    0.018214
  11 H :    0.025146
  12 C :   -0.051229
  13 H :    0.003934
  14 H :    0.043461
  15 H :    0.025108
  16 S :    0.103022
  17 C :   -0.080421
  18 C :   -0.014192
  19 C :    0.011206
  20 C :   -0.198622
  21 H :    0.004929
  22 C :    0.075421
  23 H :    0.018993
  24 H :    0.015011
  25 C :   -0.032114
  26 H :    0.025050
  27 H :    0.003589
  28 C :   -0.046109
  29 H :    0.021985
  30 H :    0.031522
  31 H :    0.036727
  32 H :    0.033095
  33 H :    0.047393
Sum of atomic charges:    0.0000000

LOEWDIN ATOMIC CHARGES
----------------------
   0 S :    0.389766
   1 C :   -0.189418
   2 C :   -0.061807
   3 C :   -0.055989
   4 C :   -0.187501
   5 H :    0.030108
   6 C :   -0.020858
   7 H :    0.015827
   8 H :    0.039305
   9 C :   -0.040197
  10 H :    0.022772
  11 H :    0.023780
  12 C :   -0.076669
  13 H :    0.017622
  14 H :    0.025174
  15 H :    0.035783
  16 S :    0.381525
  17 C :   -0.151878
  18 C :   -0.061573
  19 C :   -0.045235
  20 C :   -0.206433
  21 H :    0.026090
  22 C :   -0.023928
  23 H :    0.024486
  24 H :    0.027754
  25 C :   -0.027135
  26 H :    0.024795
  27 H :    0.011801
  28 C :   -0.062568
  29 H :    0.014154
  30 H :    0.026119
  31 H :    0.028778
  32 H :    0.023293
  33 H :    0.022257

  Mayer bond orders larger than 0.100000
B(  0-S ,  1-C ) :   1.1392 B(  0-S ,  4-C ) :   1.1336 B(  1-C ,  2-C ) :   1.6191
B(  1-C , 32-H ) :   0.9666 B(  2-C ,  3-C ) :   1.2256 B(  2-C ,  6-C ) :   1.0309
B(  3-C ,  4-C ) :   1.6099 B(  3-C ,  5-H ) :   0.9899 B(  4-C , 20-C ) :   1.0144
B(  6-C ,  7-H ) :   0.9355 B(  6-C ,  8-H ) :   0.9463 B(  6-C ,  9-C ) :   1.0617
B(  9-C , 10-H ) :   0.9544 B(  9-C , 11-H ) :   0.9535 B(  9-C , 12-C ) :   1.0990
B( 12-C , 13-H ) :   0.9674 B( 12-C , 14-H ) :   0.9685 B( 12-C , 15-H ) :   0.9649
B( 16-S , 17-C ) :   1.1423 B( 16-S , 20-C ) :   1.1218 B( 17-C , 18-C ) :   1.6417
B( 17-C , 33-H ) :   0.9678 B( 18-C , 19-C ) :   1.1955 B( 18-C , 21-H ) :   1.0010
B( 19-C , 20-C ) :   1.6632 B( 19-C , 22-C ) :   1.0277 B( 22-C , 23-H ) :   0.9407
B( 22-C , 24-H ) :   0.9315 B( 22-C , 25-C ) :   1.0825 B( 25-C , 26-H ) :   0.9563
B( 25-C , 27-H ) :   0.9548 B( 25-C , 28-C ) :   1.0531 B( 28-C , 29-H ) :   0.9806
B( 28-C , 30-H ) :   0.9764 B( 28-C , 31-H ) :   0.9775

Dispersion correction           -0.015302369
FINAL SINGLE POINT ENERGY     -1339.865521527739

DIPOLE MOMENT
-------------
                                X             Y             Z
Electronic contribution:     15.74218     -16.01574       2.03016
Nuclear contribution   :    -16.14683      16.10904      -2.24863
                        -----------------------------------------
Total Dipole Moment    :     -0.40465       0.09330      -0.21847
                        -----------------------------------------
Magnitude (a.u.)       :      0.46923
Magnitude (Debye)      :      1.19269

Rotational constants in cm-1:     0.020985     0.008512     0.007353
Rotational constants in MHz :   629.100854   255.172743   220.439032

                             ****ORCA TERMINATED NORMALLY****
TOTAL RUN TIME: 0 days 0 hours 0 minutes 35 seconds 210 msec
