                         Program Version 4.2.1 -  RELEASE  -
|  1> ! wB97X-D3 SP def2-SVP
|  2> %pal
|  3> nprocs 16
|  4> end
|  5>
|  6> * xyz 0 1
|  7> S 	 -39.1162 	 13.616 	 75.277
|  8> C 	 -39.3197 	 12.8566 	 73.6922
|  9> C 	 -40.5687 	 13.2068 	 73.1871
| 10> C 	 -41.3382 	 13.9705 	 74.1092
| 11> C 	 -40.8065 	 14.0135 	 75.3587
| 12> H 	 -42.3311 	 14.3191 	 73.9123
| 13> C 	 -40.9559 	 12.9612 	 71.7342
| 14> H 	 -41.8752 	 13.4707 	 71.5886
| 15> H 	 -41.0133 	 11.8233 	 71.756
| 16> C 	 -39.9682 	 13.3654 	 70.6428
| 17> H 	 -39.0983 	 12.7095 	 70.7793
| 18> H 	 -40.421 	 12.9862 	 69.7227
| 19> C 	 -39.8201 	 14.8931 	 70.4924
| 20> H 	 -40.7457 	 15.4389 	 70.2328
| 21> H 	 -39.5666 	 15.2531 	 71.5147
| 22> H 	 -39.0086 	 15.0934 	 69.7694
| 23> S 	 -41.7693 	 16.2634 	 76.8086
| 24> C 	 -42.8067 	 15.9803 	 78.1811
| 25> C 	 -42.6522 	 14.6469 	 78.6359
| 26> C 	 -42.0259 	 13.7973 	 77.6378
| 27> C 	 -41.4467 	 14.5176 	 76.6012
| 28> H 	 -43.1327 	 14.4743 	 79.584
| 29> C 	 -41.8719 	 12.3163 	 77.8499
| 30> H 	 -41.729 	 12.0461 	 78.9499
| 31> H 	 -41.0239 	 11.9936 	 77.3109
| 32> C 	 -43.0745 	 11.4351 	 77.5328
| 33> H 	 -43.8557 	 11.7919 	 78.2161
| 34> H 	 -42.8588 	 10.3356 	 77.7613
| 35> C 	 -43.5352 	 11.6699 	 76.0719
| 36> H 	 -44.3195 	 10.9498 	 75.8788
| 37> H 	 -42.6684 	 11.532 	 75.4313
| 38> H 	 -43.9907 	 12.6308 	 75.8462
| 39> H 	 -38.6431 	 12.1767 	 73.1471
| 40> H 	 -43.1702 	 16.6828 	 78.9146
| 41> *
| 42>
| 43>                          ****END OF INPUT****

CARTESIAN COORDINATES (ANGSTROEM)
---------------------------------
  S    -39.116200   13.616000   75.277000
  C    -39.319700   12.856600   73.692200
  C    -40.568700   13.206800   73.187100
  C    -41.338200   13.970500   74.109200
  C    -40.806500   14.013500   75.358700
  H    -42.331100   14.319100   73.912300
  C    -40.955900   12.961200   71.734200
  H    -41.875200   13.470700   71.588600
  H    -41.013300   11.823300   71.756000
  C    -39.968200   13.365400   70.642800
  H    -39.098300   12.709500   70.779300
  H    -40.421000   12.986200   69.722700
  C    -39.820100   14.893100   70.492400
  H    -40.745700   15.438900   70.232800
  H    -39.566600   15.253100   71.514700
  H    -39.008600   15.093400   69.769400
  S    -41.769300   16.263400   76.808600
  C    -42.806700   15.980300   78.181100
  C    -42.652200   14.646900   78.635900
  C    -42.025900   13.797300   77.637800
  C    -41.446700   14.517600   76.601200
  H    -43.132700   14.474300   79.584000
  C    -41.871900   12.316300   77.849900
  H    -41.729000   12.046100   78.949900
  H    -41.023900   11.993600   77.310900
  C    -43.074500   11.435100   77.532800
  H    -43.855700   11.791900   78.216100
  H    -42.858800   10.335600   77.761300
  C    -43.535200   11.669900   76.071900
  H    -44.319500   10.949800   75.878800
  H    -42.668400   11.532000   75.431300
  H    -43.990700   12.630800   75.846200
  H    -38.643100   12.176700   73.147100
  H    -43.170200   16.682800   78.914600

 Total Charge           Charge          ....    0
 Multiplicity           Mult            ....    1
 Number of Electrons    NEL             ....  134
 Basis Dimension        Dim             ....  322

ORBITAL ENERGIES
----------------

  NO   OCC          E(Eh)            E(eV)
   0   2.0000     -88.967895     -2420.9395
   1   2.0000     -88.967136     -2420.9189
   2   2.0000     -10.332085      -281.1503
   3   2.0000     -10.329416      -281.0777
   4   2.0000     -10.319270      -280.8016
   5   2.0000     -10.316687      -280.7313
   6   2.0000     -10.310141      -280.5532
   7   2.0000     -10.299886      -280.2742
   8   2.0000     -10.299158      -280.2543
   9   2.0000     -10.293006      -280.0869
  10   2.0000     -10.291503      -280.0460
  11   2.0000     -10.288957      -279.9768
  12   2.0000     -10.288106      -279.9536
  13   2.0000     -10.285454      -279.8814
  14   2.0000     -10.284347      -279.8513
  15   2.0000     -10.267784      -279.4006
  16   2.0000      -8.081799      -219.9169
  17   2.0000      -8.081449      -219.9074
  18   2.0000      -6.040347      -164.3662
  19   2.0000      -6.039992      -164.3565
  20   2.0000      -6.036413      -164.2592
  21   2.0000      -6.036109      -164.2509
  22   2.0000      -6.032561      -164.1543
  23   2.0000      -6.032090      -164.1415
  24   2.0000      -1.005485       -27.3606
  25   2.0000      -0.982315       -26.7302
  26   2.0000      -0.913169       -24.8486
  27   2.0000      -0.907472       -24.6936
  28   2.0000      -0.863746       -23.5037
  29   2.0000      -0.846490       -23.0342
  30   2.0000      -0.840978       -22.8842
  31   2.0000      -0.814459       -22.1625
  32   2.0000      -0.781220       -21.2581
  33   2.0000      -0.771951       -21.0059
  34   2.0000      -0.706188       -19.2164
  35   2.0000      -0.701891       -19.0994
  36   2.0000      -0.688557       -18.7366
  37   2.0000      -0.652689       -17.7606
  38   2.0000      -0.637186       -17.3387
  39   2.0000      -0.612157       -16.6577
  40   2.0000      -0.589093       -16.0300
  41   2.0000      -0.577159       -15.7053
  42   2.0000      -0.553373       -15.0580
  43   2.0000      -0.546432       -14.8692
  44   2.0000      -0.543083       -14.7780
  45   2.0000      -0.538798       -14.6614
  46   2.0000      -0.515143       -14.0178
  47   2.0000      -0.512789       -13.9537
  48   2.0000      -0.506051       -13.7704
  49   2.0000      -0.499785       -13.5999
  50   2.0000      -0.486468       -13.2375
  51   2.0000      -0.477384       -12.9903
  52   2.0000      -0.470817       -12.8116
  53   2.0000      -0.461529       -12.5589
  54   2.0000      -0.456478       -12.4214
  55   2.0000      -0.444235       -12.0883
  56   2.0000      -0.441864       -12.0237
  57   2.0000      -0.434355       -11.8194
  58   2.0000      -0.431480       -11.7412
  59   2.0000      -0.427309       -11.6277
  60   2.0000      -0.418421       -11.3858
  61   2.0000      -0.406563       -11.0631
  62   2.0000      -0.404627       -11.0105
  63   2.0000      -0.334378        -9.0989
  64   2.0000      -0.326164        -8.8754
  65   2.0000      -0.320548        -8.7226
  66   2.0000      -0.309697        -8.4273
  67   0.0000       0.031525         0.8578
  68   0.0000       0.050689         1.3793
  69   0.0000       0.102332         2.7846
  70   0.0000       0.112524         3.0619
  71   0.0000       0.126650         3.4463

MULLIKEN ATOMIC CHARGES
-----------------------
   0 S :    0.118177
   1 C :   -0.132674
   2 C :   -0.132865
   3 C :    0.067826
   4 C :   -0.180697
   5 H :    0.007096
   6 C :    0.049683
   7 H :    0.006808
   8 H :    0.049612
   9 C :   -0.049289
  10 H :    0.021274
  11 H :    0.023997
  12 C :   -0.059311
  13 H :    0.039709
  14 H :    0.043597
  15 H :    0.049116
  16 S :    0.114220
  17 C :   -0.099851
  18 C :   -0.055664
  19 C :   -0.004923
  20 C :   -0.160839
  21 H :    0.024949
  22 C :    0.062171
  23 H :    0.036070
  24 H :    0.014110
  25 C :   -0.101724
  26 H :    0.024876
  27 H :    0.049209
  28 C :   -0.047773
  29 H :    0.026354
  30 H :    0.038061
  31 H :    0.039205
  32 H :    0.057499
  33 H :    0.061990
Sum of atomic charges:   -0.0000000

LOEWDIN ATOMIC CHARGES
----------------------
   0 S :    0.407687
   1 C :   -0.201906
   2 C :   -0.068888
   3 C :   -0.057956
   4 C :   -0.197595
   5 H :    0.028717
   6 C :   -0.033015
   7 H :    0.020785
   8 H :    0.046214
   9 C :   -0.044708
  10 H :    0.022745
  11 H :    0.024566
  12 C :   -0.068978
  13 H :    0.030222
  14 H :    0.030916
  15 H :    0.031665
  16 S :    0.396979
  17 C :   -0.194035
  18 C :   -0.067618
  19 C :   -0.044961
  20 C :   -0.195518
  21 H :    0.030908
  22 C :   -0.037096
  23 H :    0.041430
  24 H :    0.017101
  25 C :   -0.042436
  26 H :    0.020515
  27 H :    0.033655
  28 C :   -0.069083
  29 H :    0.022989
  30 H :    0.024914
  31 H :    0.026100
  32 H :    0.034456
  33 H :    0.031231

  Mayer bond orders larger than 0.100000
B(  0-S ,  1-C ) :   1.1345 B(  0-S ,  4-C ) :   1.1601 B(  1-C ,  2-C ) :   1.5939
B(  1-C ,  4-C ) :   0.1019 B(  1-C , 32-H ) :   0.9690 B(  2-C ,  3-C ) :   1.2501
B(  2-C ,  6-C ) :   1.0084 B(  3-C ,  4-C ) :   1.5762 B(  3-C ,  5-H ) :   0.9960
B(  4-C , 20-C ) :   1.0010 B(  6-C ,  7-H ) :   0.9438 B(  6-C ,  8-H ) :   0.9323
B(  6-C ,  9-C ) :   1.0912 B(  9-C , 10-H ) :   0.9508 B(  9-C , 11-H ) :   0.9499
B(  9-C , 12-C ) :   1.0601 B( 12-C , 13-H ) :   0.9722 B( 12-C , 14-H ) :   0.9788
B( 12-C , 15-H ) :   0.9746 B( 16-S , 17-C ) :   1.1629 B( 16-S , 20-C ) :   1.1316
B( 17-C , 18-C ) :   1.6283 B( 17-C , 33-H ) :   0.9591 B( 18-C , 19-C ) :   1.2165
B( 18-C , 21-H ) :   0.9882 B( 19-C , 20-C ) :   1.6059 B( 19-C , 22-C ) :   1.0434
B( 22-C , 23-H ) :   0.9427 B( 22-C , 24-H ) :   0.9322 B( 22-C , 25-C ) :   1.0672
B( 25-C , 26-H ) :   0.9548 B( 25-C , 27-H ) :   0.9569 B( 25-C , 28-C ) :   1.0757
B( 28-C , 29-H ) :   0.9732 B( 28-C , 30-H ) :   0.9760 B( 28-C , 31-H ) :   0.9707

Dispersion correction           -0.015879918
FINAL SINGLE POINT ENERGY     -1339.860309733961

DIPOLE MOMENT
-------------
                                X             Y             Z
Electronic contribution:      7.12388      12.81597      14.19721
Nuclear contribution   :     -7.40472     -13.14358     -14.37745
                        -----------------------------------------
Total Dipole Moment    :     -0.28083      -0.32762      -0.18024
                        -----------------------------------------
Magnitude (a.u.)       :      0.46764
Magnitude (Debye)      :      1.18864

Rotational constants in cm-1:     0.022189     0.008322     0.007311
Rotational constants in MHz :   665.195806   249.475424   219.181997

                             ****ORCA TERMINATED NORMALLY****
TOTAL RUN TIME: 0 days 0 hours 0 minutes 30 seconds 279 msec
