                         Program Version 4.2.1 -  RELEASE  -
|  1> ! wB97X-D3 SP def2-SVP
|  2> %pal
|  3> nprocs 16
|  4> end
|  5>
|  6> * xyz 0 1
|  7> S 	 15.5834 	 9.84097 	 87.6509
|  8> C 	 16.3103 	 8.24157 	 87.2167
|  9> C 	 15.4011 	 7.24333 	 87.0934
| 10> C 	 14.1636 	 7.62999 	 87.7489
| 11> C 	 14.1484 	 8.95424 	 88.1835
| 12> H 	 13.3112 	 6.99125 	 87.9377
| 13> C 	 15.6483 	 5.80008 	 86.4581
| 14> H 	 14.9413 	 5.7371 	 85.6779
| 15> H 	 15.4806 	 5.08406 	 87.1357
| 16> C 	 17.111 	 5.53699 	 85.9209
| 17> H 	 17.486 	 6.29013 	 85.2007
| 18> H 	 17.8314 	 5.71613 	 86.6976
| 19> C 	 17.3091 	 4.15948 	 85.3093
| 20> H 	 18.2974 	 4.06121 	 84.8708
| 21> H 	 17.0911 	 3.4083 	 85.9743
| 22> H 	 16.5475 	 4.27406 	 84.4821
| 23> S 	 12.1571 	 10.7835 	 87.824
| 24> C 	 11.1076 	 11.1043 	 89.2384
| 25> C 	 11.4194 	 10.3069 	 90.3178
| 26> C 	 12.6074 	 9.57384 	 90.121
| 27> C 	 13.1017 	 9.70491 	 88.8374
| 28> H 	 10.7614 	 10.436 	 91.2005
| 29> C 	 13.1298 	 8.7078 	 91.2256
| 30> H 	 13.4965 	 7.68919 	 90.9854
| 31> H 	 12.3576 	 8.49047 	 91.897
| 32> C 	 14.1836 	 9.47227 	 92.05
| 33> H 	 13.8182 	 10.4748 	 92.3114
| 34> H 	 15.1592 	 9.58787 	 91.6136
| 35> C 	 14.5123 	 8.81621 	 93.4231
| 36> H 	 15.0745 	 9.52286 	 93.9171
| 37> H 	 15.1001 	 7.9021 	 93.2257
| 38> H 	 13.7503 	 8.48923 	 94.0777
| 39> H 	 17.266 	 8.23421 	 86.6965
| 40> H 	 10.1423 	 11.5627 	 89.1525
| 41> *
| 42>
| 43>                          ****END OF INPUT****

CARTESIAN COORDINATES (ANGSTROEM)
---------------------------------
  S     15.583400    9.840970   87.650900
  C     16.310300    8.241570   87.216700
  C     15.401100    7.243330   87.093400
  C     14.163600    7.629990   87.748900
  C     14.148400    8.954240   88.183500
  H     13.311200    6.991250   87.937700
  C     15.648300    5.800080   86.458100
  H     14.941300    5.737100   85.677900
  H     15.480600    5.084060   87.135700
  C     17.111000    5.536990   85.920900
  H     17.486000    6.290130   85.200700
  H     17.831400    5.716130   86.697600
  C     17.309100    4.159480   85.309300
  H     18.297400    4.061210   84.870800
  H     17.091100    3.408300   85.974300
  H     16.547500    4.274060   84.482100
  S     12.157100   10.783500   87.824000
  C     11.107600   11.104300   89.238400
  C     11.419400   10.306900   90.317800
  C     12.607400    9.573840   90.121000
  C     13.101700    9.704910   88.837400
  H     10.761400   10.436000   91.200500
  C     13.129800    8.707800   91.225600
  H     13.496500    7.689190   90.985400
  H     12.357600    8.490470   91.897000
  C     14.183600    9.472270   92.050000
  H     13.818200   10.474800   92.311400
  H     15.159200    9.587870   91.613600
  C     14.512300    8.816210   93.423100
  H     15.074500    9.522860   93.917100
  H     15.100100    7.902100   93.225700
  H     13.750300    8.489230   94.077700
  H     17.266000    8.234210   86.696500
  H     10.142300   11.562700   89.152500

 Total Charge           Charge          ....    0
 Multiplicity           Mult            ....    1
 Number of Electrons    NEL             ....  134
 Basis Dimension        Dim             ....  322

ORBITAL ENERGIES
----------------

  NO   OCC          E(Eh)            E(eV)
   0   2.0000     -88.965894     -2420.8851
   1   2.0000     -88.961313     -2420.7604
   2   2.0000     -10.328664      -281.0572
   3   2.0000     -10.322552      -280.8909
   4   2.0000     -10.315072      -280.6874
   5   2.0000     -10.312474      -280.6167
   6   2.0000     -10.308528      -280.5093
   7   2.0000     -10.301474      -280.3174
   8   2.0000     -10.298662      -280.2408
   9   2.0000     -10.295139      -280.1450
  10   2.0000     -10.295058      -280.1428
  11   2.0000     -10.288732      -279.9706
  12   2.0000     -10.286116      -279.8994
  13   2.0000     -10.281621      -279.7771
  14   2.0000     -10.278613      -279.6953
  15   2.0000     -10.264850      -279.3208
  16   2.0000      -8.080086      -219.8703
  17   2.0000      -8.075355      -219.7416
  18   2.0000      -6.038511      -164.3162
  19   2.0000      -6.034818      -164.2157
  20   2.0000      -6.033881      -164.1903
  21   2.0000      -6.030808      -164.1066
  22   2.0000      -6.030354      -164.0943
  23   2.0000      -6.025744      -163.9688
  24   2.0000      -1.002629       -27.2829
  25   2.0000      -0.976933       -26.5837
  26   2.0000      -0.909459       -24.7476
  27   2.0000      -0.906445       -24.6656
  28   2.0000      -0.870629       -23.6910
  29   2.0000      -0.850006       -23.1298
  30   2.0000      -0.842953       -22.9379
  31   2.0000      -0.811878       -22.0923
  32   2.0000      -0.788470       -21.4554
  33   2.0000      -0.773629       -21.0515
  34   2.0000      -0.710930       -19.3454
  35   2.0000      -0.701032       -19.0761
  36   2.0000      -0.690515       -18.7899
  37   2.0000      -0.659988       -17.9592
  38   2.0000      -0.638013       -17.3612
  39   2.0000      -0.612900       -16.6779
  40   2.0000      -0.598338       -16.2816
  41   2.0000      -0.577606       -15.7175
  42   2.0000      -0.563682       -15.3386
  43   2.0000      -0.554943       -15.1008
  44   2.0000      -0.530244       -14.4287
  45   2.0000      -0.529804       -14.4167
  46   2.0000      -0.521116       -14.1803
  47   2.0000      -0.515620       -14.0307
  48   2.0000      -0.507475       -13.8091
  49   2.0000      -0.495291       -13.4776
  50   2.0000      -0.488244       -13.2858
  51   2.0000      -0.479501       -13.0479
  52   2.0000      -0.468147       -12.7389
  53   2.0000      -0.459667       -12.5082
  54   2.0000      -0.449779       -12.2391
  55   2.0000      -0.445218       -12.1150
  56   2.0000      -0.443337       -12.0638
  57   2.0000      -0.438210       -11.9243
  58   2.0000      -0.434558       -11.8249
  59   2.0000      -0.427043       -11.6204
  60   2.0000      -0.420541       -11.4435
  61   2.0000      -0.416506       -11.3337
  62   2.0000      -0.414875       -11.2893
  63   2.0000      -0.339322        -9.2334
  64   2.0000      -0.331704        -9.0261
  65   2.0000      -0.324762        -8.8372
  66   2.0000      -0.299844        -8.1592
  67   0.0000       0.038566         1.0494
  68   0.0000       0.053292         1.4501
  69   0.0000       0.100463         2.7337
  70   0.0000       0.112863         3.0711
  71   0.0000       0.136061         3.7024

MULLIKEN ATOMIC CHARGES
-----------------------
   0 S :    0.088191
   1 C :   -0.126276
   2 C :   -0.098282
   3 C :    0.048415
   4 C :   -0.170802
   5 H :    0.011252
   6 C :    0.141861
   7 H :    0.027707
   8 H :    0.010016
   9 C :   -0.139491
  10 H :    0.029012
  11 H :    0.020113
  12 C :   -0.012476
  13 H :    0.039584
  14 H :    0.025677
  15 H :    0.034038
  16 S :    0.108110
  17 C :   -0.089901
  18 C :   -0.065215
  19 C :    0.006868
  20 C :   -0.177370
  21 H :    0.038475
  22 C :    0.129927
  23 H :    0.026561
  24 H :   -0.008370
  25 C :   -0.098682
  26 H :    0.025621
  27 H :    0.037480
  28 C :   -0.026900
  29 H :    0.017604
  30 H :    0.025642
  31 H :    0.017495
  32 H :    0.050680
  33 H :    0.053436
Sum of atomic charges:   -0.0000000

LOEWDIN ATOMIC CHARGES
----------------------
   0 S :    0.363612
   1 C :   -0.180260
   2 C :   -0.053276
   3 C :   -0.057382
   4 C :   -0.183099
   5 H :    0.031098
   6 C :   -0.002564
   7 H :    0.028582
   8 H :    0.014482
   9 C :   -0.047364
  10 H :    0.023632
  11 H :    0.014993
  12 C :   -0.054271
  13 H :    0.030182
  14 H :    0.011847
  15 H :    0.035969
  16 S :    0.389700
  17 C :   -0.174105
  18 C :   -0.069420
  19 C :   -0.052050
  20 C :   -0.203891
  21 H :    0.041903
  22 C :   -0.028970
  23 H :    0.033489
  24 H :    0.022459
  25 C :   -0.028814
  26 H :    0.023165
  27 H :    0.025871
  28 C :   -0.061049
  29 H :    0.016834
  30 H :    0.026365
  31 H :    0.015019
  32 H :    0.022738
  33 H :    0.024575

  Mayer bond orders larger than 0.100000
B(  0-S ,  1-C ) :   1.1070 B(  0-S ,  4-C ) :   1.1305 B(  1-C ,  2-C ) :   1.7007
B(  1-C , 32-H ) :   0.9536 B(  2-C ,  3-C ) :   1.1857 B(  2-C ,  6-C ) :   0.9857
B(  3-C ,  4-C ) :   1.6364 B(  3-C ,  5-H ) :   0.9965 B(  4-C , 20-C ) :   1.0203
B(  6-C ,  7-H ) :   0.9393 B(  6-C ,  8-H ) :   0.9446 B(  6-C ,  9-C ) :   1.0661
B(  9-C , 10-H ) :   0.9572 B(  9-C , 11-H ) :   0.9510 B(  9-C , 12-C ) :   1.0790
B( 12-C , 13-H ) :   0.9711 B( 12-C , 14-H ) :   0.9783 B( 12-C , 15-H ) :   0.9791
B( 16-S , 17-C ) :   1.1378 B( 16-S , 20-C ) :   1.1468 B( 17-C , 18-C ) :   1.6505
B( 17-C , 20-C ) :   0.1007 B( 17-C , 33-H ) :   0.9616 B( 18-C , 19-C ) :   1.2244
B( 18-C , 21-H ) :   0.9801 B( 19-C , 20-C ) :   1.6101 B( 19-C , 22-C ) :   1.0560
B( 22-C , 23-H ) :   0.9299 B( 22-C , 24-H ) :   0.9253 B( 22-C , 25-C ) :   1.0601
B( 25-C , 26-H ) :   0.9604 B( 25-C , 27-H ) :   0.9569 B( 25-C , 28-C ) :   1.0797
B( 28-C , 29-H ) :   0.9759 B( 28-C , 30-H ) :   0.9747 B( 28-C , 31-H ) :   0.9764

Dispersion correction           -0.013567506
FINAL SINGLE POINT ENERGY     -1339.846369246361

DIPOLE MOMENT
-------------
                                X             Y             Z
Electronic contribution:    -11.18902      20.81530      -8.56801
Nuclear contribution   :     11.06473     -21.46902       8.73652
                        -----------------------------------------
Total Dipole Moment    :     -0.12429      -0.65373       0.16851
                        -----------------------------------------
Magnitude (a.u.)       :      0.68644
Magnitude (Debye)      :      1.74480

Rotational constants in cm-1:     0.020211     0.007181     0.006080
Rotational constants in MHz :   605.915311   215.287201   182.259926

                             ****ORCA TERMINATED NORMALLY****
TOTAL RUN TIME: 0 days 0 hours 0 minutes 33 seconds 36 msec
