                         Program Version 4.2.1 -  RELEASE  -
|  1> ! wB97X-D3 SP def2-SVP
|  2> %pal
|  3> nprocs 16
|  4> end
|  5>
|  6> * xyz 0 1
|  7> S 	 -58.2542 	 52.5802 	 136.696
|  8> C 	 -56.6086 	 53.2198 	 136.38
|  9> C 	 -55.739 	 52.168 	 136.103
| 10> C 	 -56.4632 	 50.8858 	 136.194
| 11> C 	 -57.7722 	 50.9109 	 136.508
| 12> H 	 -56.0104 	 49.9116 	 135.972
| 13> C 	 -54.2564 	 52.397 	 135.957
| 14> H 	 -53.8261 	 51.5704 	 136.455
| 15> H 	 -53.9336 	 53.2836 	 136.487
| 16> C 	 -53.6615 	 52.421 	 134.55
| 17> H 	 -54.064 	 53.1943 	 133.876
| 18> H 	 -52.5975 	 52.7252 	 134.675
| 19> C 	 -53.7253 	 51.0392 	 133.844
| 20> H 	 -52.9486 	 50.3394 	 134.257
| 21> H 	 -54.7121 	 50.5655 	 133.972
| 22> H 	 -53.6283 	 51.1773 	 132.791
| 23> S 	 -59.5489 	 49.5878 	 135.003
| 24> C 	 -60.5955 	 48.3247 	 135.655
| 25> C 	 -60.2363 	 48.0529 	 136.938
| 26> C 	 -59.1515 	 48.9367 	 137.417
| 27> C 	 -58.7236 	 49.8748 	 136.488
| 28> H 	 -60.5657 	 47.1582 	 137.436
| 29> C 	 -58.639 	 48.7034 	 138.817
| 30> H 	 -57.6026 	 48.9266 	 138.741
| 31> H 	 -58.7133 	 47.689 	 139.045
| 32> C 	 -59.0899 	 49.7164 	 139.841
| 33> H 	 -60.1049 	 49.5018 	 139.992
| 34> H 	 -59.0558 	 50.6867 	 139.455
| 35> C 	 -58.3577 	 49.6555 	 141.163
| 36> H 	 -57.3335 	 49.4963 	 141.058
| 37> H 	 -58.8236 	 48.9261 	 141.862
| 38> H 	 -58.4239 	 50.6443 	 141.582
| 39> H 	 -56.3367 	 54.2475 	 136.445
| 40> H 	 -61.4076 	 47.8296 	 135.051
| 41> *
| 42>
| 43>                          ****END OF INPUT****

CARTESIAN COORDINATES (ANGSTROEM)
---------------------------------
  S    -58.254200   52.580200  136.696000
  C    -56.608600   53.219800  136.380000
  C    -55.739000   52.168000  136.103000
  C    -56.463200   50.885800  136.194000
  C    -57.772200   50.910900  136.508000
  H    -56.010400   49.911600  135.972000
  C    -54.256400   52.397000  135.957000
  H    -53.826100   51.570400  136.455000
  H    -53.933600   53.283600  136.487000
  C    -53.661500   52.421000  134.550000
  H    -54.064000   53.194300  133.876000
  H    -52.597500   52.725200  134.675000
  C    -53.725300   51.039200  133.844000
  H    -52.948600   50.339400  134.257000
  H    -54.712100   50.565500  133.972000
  H    -53.628300   51.177300  132.791000
  S    -59.548900   49.587800  135.003000
  C    -60.595500   48.324700  135.655000
  C    -60.236300   48.052900  136.938000
  C    -59.151500   48.936700  137.417000
  C    -58.723600   49.874800  136.488000
  H    -60.565700   47.158200  137.436000
  C    -58.639000   48.703400  138.817000
  H    -57.602600   48.926600  138.741000
  H    -58.713300   47.689000  139.045000
  C    -59.089900   49.716400  139.841000
  H    -60.104900   49.501800  139.992000
  H    -59.055800   50.686700  139.455000
  C    -58.357700   49.655500  141.163000
  H    -57.333500   49.496300  141.058000
  H    -58.823600   48.926100  141.862000
  H    -58.423900   50.644300  141.582000
  H    -56.336700   54.247500  136.445000
  H    -61.407600   47.829600  135.051000

 Total Charge           Charge          ....    0
 Multiplicity           Mult            ....    1
 Number of Electrons    NEL             ....  134
 Basis Dimension        Dim             ....  322

ORBITAL ENERGIES
----------------

  NO   OCC          E(Eh)            E(eV)
   0   2.0000     -88.961672     -2420.7702
   1   2.0000     -88.959964     -2420.7237
   2   2.0000     -10.325205      -280.9631
   3   2.0000     -10.322326      -280.8848
   4   2.0000     -10.321480      -280.8617
   5   2.0000     -10.318957      -280.7931
   6   2.0000     -10.308106      -280.4978
   7   2.0000     -10.305602      -280.4297
   8   2.0000     -10.299216      -280.2559
   9   2.0000     -10.293909      -280.1115
  10   2.0000     -10.290672      -280.0234
  11   2.0000     -10.290287      -280.0129
  12   2.0000     -10.279720      -279.7254
  13   2.0000     -10.275382      -279.6074
  14   2.0000     -10.267367      -279.3893
  15   2.0000     -10.267228      -279.3855
  16   2.0000      -8.075977      -219.7585
  17   2.0000      -8.075330      -219.7409
  18   2.0000      -6.034656      -164.2114
  19   2.0000      -6.033977      -164.1929
  20   2.0000      -6.030459      -164.0971
  21   2.0000      -6.029615      -164.0742
  22   2.0000      -6.026634      -163.9930
  23   2.0000      -6.026017      -163.9763
  24   2.0000      -1.009313       -27.4648
  25   2.0000      -0.980880       -26.6911
  26   2.0000      -0.915099       -24.9011
  27   2.0000      -0.914106       -24.8741
  28   2.0000      -0.875690       -23.8287
  29   2.0000      -0.847412       -23.0593
  30   2.0000      -0.838439       -22.8151
  31   2.0000      -0.820978       -22.3400
  32   2.0000      -0.785174       -21.3657
  33   2.0000      -0.771723       -20.9996
  34   2.0000      -0.711081       -19.3495
  35   2.0000      -0.701632       -19.0924
  36   2.0000      -0.696641       -18.9566
  37   2.0000      -0.663261       -18.0483
  38   2.0000      -0.646215       -17.5844
  39   2.0000      -0.614922       -16.7329
  40   2.0000      -0.594017       -16.1640
  41   2.0000      -0.575273       -15.6540
  42   2.0000      -0.571046       -15.5389
  43   2.0000      -0.551231       -14.9998
  44   2.0000      -0.540344       -14.7035
  45   2.0000      -0.526725       -14.3329
  46   2.0000      -0.521790       -14.1986
  47   2.0000      -0.514590       -14.0027
  48   2.0000      -0.509946       -13.8763
  49   2.0000      -0.505192       -13.7470
  50   2.0000      -0.496524       -13.5111
  51   2.0000      -0.481409       -13.0998
  52   2.0000      -0.471320       -12.8253
  53   2.0000      -0.462984       -12.5984
  54   2.0000      -0.459906       -12.5147
  55   2.0000      -0.441851       -12.0234
  56   2.0000      -0.439675       -11.9642
  57   2.0000      -0.433892       -11.8068
  58   2.0000      -0.432070       -11.7572
  59   2.0000      -0.429233       -11.6800
  60   2.0000      -0.415604       -11.3092
  61   2.0000      -0.411716       -11.2034
  62   2.0000      -0.409158       -11.1337
  63   2.0000      -0.336575        -9.1587
  64   2.0000      -0.326164        -8.8754
  65   2.0000      -0.321943        -8.7605
  66   2.0000      -0.312667        -8.5081
  67   0.0000       0.046619         1.2686
  68   0.0000       0.051664         1.4058
  69   0.0000       0.111818         3.0427
  70   0.0000       0.116966         3.1828
  71   0.0000       0.128186         3.4881

MULLIKEN ATOMIC CHARGES
-----------------------
   0 S :    0.098536
   1 C :   -0.115898
   2 C :   -0.089600
   3 C :    0.045051
   4 C :   -0.175842
   5 H :    0.017458
   6 C :    0.086506
   7 H :    0.013949
   8 H :    0.024573
   9 C :   -0.075420
  10 H :    0.031514
  11 H :    0.031791
  12 C :   -0.071838
  13 H :    0.043051
  14 H :    0.036054
  15 H :    0.032018
  16 S :    0.105489
  17 C :   -0.112805
  18 C :   -0.018094
  19 C :   -0.073539
  20 C :   -0.157436
  21 H :    0.022012
  22 C :    0.126127
  23 H :   -0.001942
  24 H :    0.004871
  25 C :   -0.032696
  26 H :    0.004998
  27 H :    0.009901
  28 C :   -0.011344
  29 H :    0.012349
  30 H :    0.038394
  31 H :    0.024323
  32 H :    0.044539
  33 H :    0.082949
Sum of atomic charges:   -0.0000000

LOEWDIN ATOMIC CHARGES
----------------------
   0 S :    0.384857
   1 C :   -0.169801
   2 C :   -0.060397
   3 C :   -0.060347
   4 C :   -0.206407
   5 H :    0.031921
   6 C :   -0.031175
   7 H :    0.028936
   8 H :    0.032457
   9 C :   -0.041542
  10 H :    0.023990
  11 H :    0.027476
  12 C :   -0.070747
  13 H :    0.030922
  14 H :    0.026905
  15 H :    0.023477
  16 S :    0.411780
  17 C :   -0.182730
  18 C :   -0.078016
  19 C :   -0.039334
  20 C :   -0.222054
  21 H :    0.031044
  22 C :   -0.027429
  23 H :    0.026223
  24 H :    0.020727
  25 C :   -0.029816
  26 H :    0.017109
  27 H :    0.017165
  28 C :   -0.057785
  29 H :    0.014482
  30 H :    0.030686
  31 H :    0.029169
  32 H :    0.024269
  33 H :    0.043984

  Mayer bond orders larger than 0.100000
B(  0-S ,  1-C ) :   1.1329 B(  0-S ,  4-C ) :   1.1206 B(  1-C ,  2-C ) :   1.6273
B(  1-C , 32-H ) :   0.9748 B(  2-C ,  3-C ) :   1.1963 B(  2-C ,  6-C ) :   1.0209
B(  3-C ,  4-C ) :   1.6449 B(  3-C ,  5-H ) :   0.9858 B(  4-C , 20-C ) :   1.0222
B(  6-C ,  7-H ) :   0.9354 B(  6-C ,  8-H ) :   0.9440 B(  6-C ,  9-C ) :   1.0717
B(  9-C , 10-H ) :   0.9595 B(  9-C , 11-H ) :   0.9549 B(  9-C , 12-C ) :   1.0702
B( 12-C , 13-H ) :   0.9754 B( 12-C , 14-H ) :   0.9763 B( 12-C , 15-H ) :   0.9744
B( 16-S , 17-C ) :   1.1554 B( 16-S , 20-C ) :   1.1370 B( 17-C , 18-C ) :   1.6165
B( 17-C , 33-H ) :   0.9600 B( 18-C , 19-C ) :   1.2258 B( 18-C , 21-H ) :   0.9905
B( 19-C , 20-C ) :   1.6112 B( 19-C , 22-C ) :   1.0532 B( 22-C , 23-H ) :   0.9157
B( 22-C , 24-H ) :   0.9362 B( 22-C , 25-C ) :   1.0657 B( 25-C , 26-H ) :   0.9486
B( 25-C , 27-H ) :   0.9546 B( 25-C , 28-C ) :   1.0892 B( 28-C , 29-H ) :   0.9735
B( 28-C , 30-H ) :   0.9756 B( 28-C , 31-H ) :   0.9726

Dispersion correction           -0.014212580
FINAL SINGLE POINT ENERGY     -1339.869935716642

DIPOLE MOMENT
-------------
                                X             Y             Z
Electronic contribution:    -17.02892       2.74209      -9.31759
Nuclear contribution   :     17.50191      -2.97088       9.49935
                        -----------------------------------------
Total Dipole Moment    :      0.47299      -0.22879       0.18176
                        -----------------------------------------
Magnitude (a.u.)       :      0.55597
Magnitude (Debye)      :      1.41317

Rotational constants in cm-1:     0.018617     0.008436     0.007105
Rotational constants in MHz :   558.128394   252.900744   213.015530

                             ****ORCA TERMINATED NORMALLY****
TOTAL RUN TIME: 0 days 0 hours 0 minutes 32 seconds 661 msec
