                         Program Version 4.2.1 -  RELEASE  -
|  1> ! wB97X-D3 SP def2-SVP
|  2> %pal
|  3> nprocs 16
|  4> end
|  5>
|  6> * xyz 0 1
|  7> S 	 -24.2218 	 -1.79013 	 88.7969
|  8> C 	 -25.9255 	 -1.6027 	 89.0676
|  9> C 	 -26.6612 	 -1.68117 	 87.8777
| 10> C 	 -25.809 	 -1.93701 	 86.7346
| 11> C 	 -24.4699 	 -2.06943 	 87.1206
| 12> H 	 -26.0781 	 -2.01387 	 85.702
| 13> C 	 -28.2177 	 -1.50402 	 87.7159
| 14> H 	 -28.4102 	 -1.02034 	 86.7626
| 15> H 	 -28.6665 	 -0.827889 	 88.4543
| 16> C 	 -28.9163 	 -2.78441 	 87.8584
| 17> H 	 -28.8321 	 -3.28656 	 88.8181
| 18> H 	 -29.9121 	 -2.51679 	 87.6845
| 19> C 	 -28.5789 	 -3.78748 	 86.7114
| 20> H 	 -27.5419 	 -4.01775 	 86.7592
| 21> H 	 -29.2413 	 -4.66198 	 86.8402
| 22> H 	 -28.8738 	 -3.30839 	 85.8295
| 23> S 	 -21.9847 	 -1.52722 	 86.3386
| 24> C 	 -21.2632 	 -2.38393 	 84.9911
| 25> C 	 -22.1032 	 -3.29898 	 84.4362
| 26> C 	 -23.409 	 -3.29904 	 85.0435
| 27> C 	 -23.4408 	 -2.45608 	 86.166
| 28> H 	 -21.7269 	 -3.91518 	 83.5999
| 29> C 	 -24.6157 	 -3.99638 	 84.5673
| 30> H 	 -25.1906 	 -4.1141 	 85.4253
| 31> H 	 -24.3301 	 -5.01471 	 84.2812
| 32> C 	 -25.3484 	 -3.18462 	 83.4738
| 33> H 	 -24.7501 	 -3.30675 	 82.5116
| 34> H 	 -25.3592 	 -2.1337 	 83.7344
| 35> C 	 -26.7385 	 -3.67538 	 82.8853
| 36> H 	 -27.6168 	 -3.29794 	 83.3987
| 37> H 	 -26.9069 	 -4.73497 	 82.8541
| 38> H 	 -26.8315 	 -3.24082 	 81.9124
| 39> H 	 -26.4991 	 -1.6327 	 90.0514
| 40> H 	 -20.2701 	 -2.20352 	 84.6112
| 41> *
| 42>
| 43>                          ****END OF INPUT****

CARTESIAN COORDINATES (ANGSTROEM)
---------------------------------
  S    -24.221800   -1.790130   88.796900
  C    -25.925500   -1.602700   89.067600
  C    -26.661200   -1.681170   87.877700
  C    -25.809000   -1.937010   86.734600
  C    -24.469900   -2.069430   87.120600
  H    -26.078100   -2.013870   85.702000
  C    -28.217700   -1.504020   87.715900
  H    -28.410200   -1.020340   86.762600
  H    -28.666500   -0.827889   88.454300
  C    -28.916300   -2.784410   87.858400
  H    -28.832100   -3.286560   88.818100
  H    -29.912100   -2.516790   87.684500
  C    -28.578900   -3.787480   86.711400
  H    -27.541900   -4.017750   86.759200
  H    -29.241300   -4.661980   86.840200
  H    -28.873800   -3.308390   85.829500
  S    -21.984700   -1.527220   86.338600
  C    -21.263200   -2.383930   84.991100
  C    -22.103200   -3.298980   84.436200
  C    -23.409000   -3.299040   85.043500
  C    -23.440800   -2.456080   86.166000
  H    -21.726900   -3.915180   83.599900
  C    -24.615700   -3.996380   84.567300
  H    -25.190600   -4.114100   85.425300
  H    -24.330100   -5.014710   84.281200
  C    -25.348400   -3.184620   83.473800
  H    -24.750100   -3.306750   82.511600
  H    -25.359200   -2.133700   83.734400
  C    -26.738500   -3.675380   82.885300
  H    -27.616800   -3.297940   83.398700
  H    -26.906900   -4.734970   82.854100
  H    -26.831500   -3.240820   81.912400
  H    -26.499100   -1.632700   90.051400
  H    -20.270100   -2.203520   84.611200

 Total Charge           Charge          ....    0
 Multiplicity           Mult            ....    1
 Number of Electrons    NEL             ....  134
 Basis Dimension        Dim             ....  322

ORBITAL ENERGIES
----------------

  NO   OCC          E(Eh)            E(eV)
   0   2.0000     -88.972628     -2421.0683
   1   2.0000     -88.962113     -2420.7822
   2   2.0000     -10.327811      -281.0340
   3   2.0000     -10.324221      -280.9363
   4   2.0000     -10.318485      -280.7802
   5   2.0000     -10.312247      -280.6105
   6   2.0000     -10.306188      -280.4456
   7   2.0000     -10.302931      -280.3570
   8   2.0000     -10.298296      -280.2309
   9   2.0000     -10.294982      -280.1407
  10   2.0000     -10.293600      -280.1031
  11   2.0000     -10.292848      -280.0826
  12   2.0000     -10.285035      -279.8700
  13   2.0000     -10.278817      -279.7008
  14   2.0000     -10.275570      -279.6125
  15   2.0000     -10.269463      -279.4463
  16   2.0000      -8.087631      -220.0756
  17   2.0000      -8.077422      -219.7978
  18   2.0000      -6.046159      -164.5243
  19   2.0000      -6.042084      -164.4135
  20   2.0000      -6.038368      -164.3123
  21   2.0000      -6.035869      -164.2443
  22   2.0000      -6.031901      -164.1364
  23   2.0000      -6.028173      -164.0349
  24   2.0000      -1.009847       -27.4793
  25   2.0000      -0.984013       -26.7764
  26   2.0000      -0.920151       -25.0386
  27   2.0000      -0.909657       -24.7530
  28   2.0000      -0.870105       -23.6768
  29   2.0000      -0.850573       -23.1453
  30   2.0000      -0.843556       -22.9543
  31   2.0000      -0.813802       -22.1447
  32   2.0000      -0.787892       -21.4396
  33   2.0000      -0.773903       -21.0590
  34   2.0000      -0.706825       -19.2337
  35   2.0000      -0.698707       -19.0128
  36   2.0000      -0.693642       -18.8750
  37   2.0000      -0.664127       -18.0718
  38   2.0000      -0.635244       -17.2859
  39   2.0000      -0.615702       -16.7541
  40   2.0000      -0.592993       -16.1362
  41   2.0000      -0.578548       -15.7431
  42   2.0000      -0.562647       -15.3104
  43   2.0000      -0.547326       -14.8935
  44   2.0000      -0.546083       -14.8597
  45   2.0000      -0.533677       -14.5221
  46   2.0000      -0.517014       -14.0687
  47   2.0000      -0.510937       -13.9033
  48   2.0000      -0.506011       -13.7693
  49   2.0000      -0.494686       -13.4611
  50   2.0000      -0.492973       -13.4145
  51   2.0000      -0.486242       -13.2313
  52   2.0000      -0.468253       -12.7418
  53   2.0000      -0.464193       -12.6313
  54   2.0000      -0.459899       -12.5145
  55   2.0000      -0.451858       -12.2957
  56   2.0000      -0.447607       -12.1800
  57   2.0000      -0.446163       -12.1407
  58   2.0000      -0.441429       -12.0119
  59   2.0000      -0.423696       -11.5293
  60   2.0000      -0.416203       -11.3255
  61   2.0000      -0.411692       -11.2027
  62   2.0000      -0.407880       -11.0990
  63   2.0000      -0.353012        -9.6060
  64   2.0000      -0.333533        -9.0759
  65   2.0000      -0.328167        -8.9299
  66   2.0000      -0.284863        -7.7515
  67   0.0000       0.028714         0.7813
  68   0.0000       0.076041         2.0692
  69   0.0000       0.108251         2.9457
  70   0.0000       0.124059         3.3758
  71   0.0000       0.127343         3.4652

MULLIKEN ATOMIC CHARGES
-----------------------
   0 S :    0.137850
   1 C :   -0.138470
   2 C :   -0.101086
   3 C :    0.007861
   4 C :   -0.119829
   5 H :   -0.013472
   6 C :    0.068384
   7 H :    0.024413
   8 H :    0.025901
   9 C :   -0.053495
  10 H :    0.031346
  11 H :    0.008941
  12 C :   -0.045064
  13 H :    0.053209
  14 H :    0.034015
  15 H :    0.011072
  16 S :    0.091534
  17 C :   -0.085766
  18 C :   -0.036640
  19 C :   -0.082010
  20 C :   -0.152374
  21 H :    0.028246
  22 C :    0.135119
  23 H :    0.007388
  24 H :    0.018254
  25 C :   -0.123750
  26 H :    0.038947
  27 H :    0.047860
  28 C :   -0.016147
  29 H :    0.017253
  30 H :    0.031489
  31 H :    0.027286
  32 H :    0.072408
  33 H :    0.049330
Sum of atomic charges:    0.0000000

LOEWDIN ATOMIC CHARGES
----------------------
   0 S :    0.432095
   1 C :   -0.227162
   2 C :   -0.055555
   3 C :   -0.065559
   4 C :   -0.209675
   5 H :    0.026971
   6 C :   -0.028323
   7 H :    0.030105
   8 H :    0.032266
   9 C :   -0.037604
  10 H :    0.023375
  11 H :    0.016870
  12 C :   -0.053425
  13 H :    0.020040
  14 H :    0.029701
  15 H :    0.012993
  16 S :    0.401822
  17 C :   -0.183736
  18 C :   -0.072505
  19 C :   -0.055025
  20 C :   -0.193572
  21 H :    0.039557
  22 C :   -0.033760
  23 H :    0.020991
  24 H :    0.032896
  25 C :   -0.041383
  26 H :    0.035845
  27 H :    0.023741
  28 C :   -0.066129
  29 H :    0.019141
  30 H :    0.025329
  31 H :    0.025560
  32 H :    0.047246
  33 H :    0.026871

  Mayer bond orders larger than 0.100000
B(  0-S ,  1-C ) :   1.1354 B(  0-S ,  4-C ) :   1.1674 B(  1-C ,  2-C ) :   1.6246
B(  1-C , 32-H ) :   0.9532 B(  2-C ,  3-C ) :   1.2391 B(  2-C ,  6-C ) :   1.0064
B(  3-C ,  4-C ) :   1.5322 B(  3-C ,  5-H ) :   0.9997 B(  4-C , 20-C ) :   1.0382
B(  6-C ,  7-H ) :   0.9427 B(  6-C ,  8-H ) :   0.9422 B(  6-C ,  9-C ) :   1.0881
B(  9-C , 10-H ) :   0.9554 B(  9-C , 11-H ) :   0.9495 B(  9-C , 12-C ) :   1.0813
B( 12-C , 13-H ) :   0.9749 B( 12-C , 14-H ) :   0.9712 B( 12-C , 15-H ) :   0.9735
B( 16-S , 17-C ) :   1.1427 B( 16-S , 20-C ) :   1.1461 B( 17-C , 18-C ) :   1.6370
B( 17-C , 33-H ) :   0.9669 B( 18-C , 19-C ) :   1.2141 B( 18-C , 21-H ) :   0.9898
B( 19-C , 20-C ) :   1.5931 B( 19-C , 22-C ) :   1.0597 B( 22-C , 23-H ) :   0.9246
B( 22-C , 24-H ) :   0.9171 B( 22-C , 25-C ) :   1.0458 B( 25-C , 26-H ) :   0.9608
B( 25-C , 27-H ) :   0.9535 B( 25-C , 28-C ) :   1.0622 B( 28-C , 29-H ) :   0.9755
B( 28-C , 30-H ) :   0.9746 B( 28-C , 31-H ) :   0.9768

Dispersion correction           -0.015932603
FINAL SINGLE POINT ENERGY     -1339.867404375059

DIPOLE MOMENT
-------------
                                X             Y             Z
Electronic contribution:     26.78610      10.20066      14.56803
Nuclear contribution   :    -27.38002     -10.44664     -15.00385
                        -----------------------------------------
Total Dipole Moment    :     -0.59392      -0.24599      -0.43582
                        -----------------------------------------
Magnitude (a.u.)       :      0.77665
Magnitude (Debye)      :      1.97410

Rotational constants in cm-1:     0.017899     0.011089     0.007267
Rotational constants in MHz :   536.608070   332.444586   217.872429

                             ****ORCA TERMINATED NORMALLY****
TOTAL RUN TIME: 0 days 0 hours 0 minutes 37 seconds 482 msec
