                         Program Version 4.2.1 -  RELEASE  -
|  1> ! wB97X-D3 SP def2-SVP
|  2> %pal
|  3> nprocs 16
|  4> end
|  5>
|  6> * xyz 0 1
|  7> S 	 -17.8297 	 55.9863 	 62.6672
|  8> C 	 -16.5539 	 54.7936 	 62.8494
|  9> C 	 -15.2905 	 55.3609 	 62.6114
| 10> C 	 -15.418 	 56.7423 	 62.2859
| 11> C 	 -16.7227 	 57.2387 	 62.2749
| 12> H 	 -14.5861 	 57.3366 	 61.9822
| 13> C 	 -13.9318 	 54.7436 	 62.7111
| 14> H 	 -13.6244 	 54.6417 	 63.7698
| 15> H 	 -13.173 	 55.3834 	 62.3139
| 16> C 	 -13.883 	 53.4239 	 61.8994
| 17> H 	 -14.6359 	 52.7958 	 62.3726
| 18> H 	 -14.2158 	 53.6255 	 60.8375
| 19> C 	 -12.5042 	 52.6927 	 61.9654
| 20> H 	 -12.2293 	 52.2655 	 62.936
| 21> H 	 -12.4413 	 51.8899 	 61.1722
| 22> H 	 -11.6686 	 53.3729 	 61.7491
| 23> S 	 -18.4912 	 58.918 	 60.8935
| 24> C 	 -18.5218 	 60.608 	 61.3199
| 25> C 	 -17.6021 	 60.9089 	 62.336
| 26> C 	 -16.8787 	 59.8162 	 62.7802
| 27> C 	 -17.2016 	 58.639 	 62.0939
| 28> H 	 -17.5948 	 61.9288 	 62.7291
| 29> C 	 -15.8481 	 59.8765 	 63.8831
| 30> H 	 -15.309 	 60.7497 	 63.5835
| 31> H 	 -15.1771 	 58.948 	 63.7879
| 32> C 	 -16.3852 	 59.9439 	 65.3291
| 33> H 	 -17.0524 	 60.7309 	 65.2028
| 34> H 	 -15.7218 	 60.1706 	 66.1369
| 35> C 	 -16.9747 	 58.6003 	 65.774
| 36> H 	 -17.3874 	 58.1099 	 64.887
| 37> H 	 -17.6356 	 58.6371 	 66.622
| 38> H 	 -16.0993 	 57.9264 	 66.0169
| 39> H 	 -16.6833 	 53.8211 	 63.1896
| 40> H 	 -18.9631 	 61.4179 	 60.7697
| 41> *
| 42>
| 43>                          ****END OF INPUT****

CARTESIAN COORDINATES (ANGSTROEM)
---------------------------------
  S    -17.829700   55.986300   62.667200
  C    -16.553900   54.793600   62.849400
  C    -15.290500   55.360900   62.611400
  C    -15.418000   56.742300   62.285900
  C    -16.722700   57.238700   62.274900
  H    -14.586100   57.336600   61.982200
  C    -13.931800   54.743600   62.711100
  H    -13.624400   54.641700   63.769800
  H    -13.173000   55.383400   62.313900
  C    -13.883000   53.423900   61.899400
  H    -14.635900   52.795800   62.372600
  H    -14.215800   53.625500   60.837500
  C    -12.504200   52.692700   61.965400
  H    -12.229300   52.265500   62.936000
  H    -12.441300   51.889900   61.172200
  H    -11.668600   53.372900   61.749100
  S    -18.491200   58.918000   60.893500
  C    -18.521800   60.608000   61.319900
  C    -17.602100   60.908900   62.336000
  C    -16.878700   59.816200   62.780200
  C    -17.201600   58.639000   62.093900
  H    -17.594800   61.928800   62.729100
  C    -15.848100   59.876500   63.883100
  H    -15.309000   60.749700   63.583500
  H    -15.177100   58.948000   63.787900
  C    -16.385200   59.943900   65.329100
  H    -17.052400   60.730900   65.202800
  H    -15.721800   60.170600   66.136900
  C    -16.974700   58.600300   65.774000
  H    -17.387400   58.109900   64.887000
  H    -17.635600   58.637100   66.622000
  H    -16.099300   57.926400   66.016900
  H    -16.683300   53.821100   63.189600
  H    -18.963100   61.417900   60.769700

 Total Charge           Charge          ....    0
 Multiplicity           Mult            ....    1
 Number of Electrons    NEL             ....  134
 Basis Dimension        Dim             ....  322

ORBITAL ENERGIES
----------------

  NO   OCC          E(Eh)            E(eV)
   0   2.0000     -88.971577     -2421.0397
   1   2.0000     -88.970125     -2421.0002
   2   2.0000     -10.332865      -281.1716
   3   2.0000     -10.331831      -281.1434
   4   2.0000     -10.318759      -280.7877
   5   2.0000     -10.312967      -280.6301
   6   2.0000     -10.303352      -280.3685
   7   2.0000     -10.302391      -280.3423
   8   2.0000     -10.295480      -280.1543
   9   2.0000     -10.294432      -280.1257
  10   2.0000     -10.292722      -280.0792
  11   2.0000     -10.292064      -280.0613
  12   2.0000     -10.291386      -280.0428
  13   2.0000     -10.286854      -279.9195
  14   2.0000     -10.275933      -279.6224
  15   2.0000     -10.271130      -279.4917
  16   2.0000      -8.085521      -220.0182
  17   2.0000      -8.084648      -219.9945
  18   2.0000      -6.043891      -164.4626
  19   2.0000      -6.043170      -164.4430
  20   2.0000      -6.040096      -164.3594
  21   2.0000      -6.038945      -164.3281
  22   2.0000      -6.036525      -164.2622
  23   2.0000      -6.035636      -164.2380
  24   2.0000      -1.006393       -27.3853
  25   2.0000      -0.985750       -26.8236
  26   2.0000      -0.912276       -24.8243
  27   2.0000      -0.909748       -24.7555
  28   2.0000      -0.862452       -23.4685
  29   2.0000      -0.852036       -23.1851
  30   2.0000      -0.846807       -23.0428
  31   2.0000      -0.810439       -22.0532
  32   2.0000      -0.782400       -21.2902
  33   2.0000      -0.770671       -20.9710
  34   2.0000      -0.709798       -19.3146
  35   2.0000      -0.700813       -19.0701
  36   2.0000      -0.693398       -18.8683
  37   2.0000      -0.659645       -17.9499
  38   2.0000      -0.645578       -17.5671
  39   2.0000      -0.618291       -16.8246
  40   2.0000      -0.589626       -16.0445
  41   2.0000      -0.573074       -15.5941
  42   2.0000      -0.562564       -15.3081
  43   2.0000      -0.559125       -15.2146
  44   2.0000      -0.545893       -14.8545
  45   2.0000      -0.522339       -14.2136
  46   2.0000      -0.517755       -14.0888
  47   2.0000      -0.509263       -13.8578
  48   2.0000      -0.502536       -13.6747
  49   2.0000      -0.493388       -13.4258
  50   2.0000      -0.490486       -13.3468
  51   2.0000      -0.477679       -12.9983
  52   2.0000      -0.468976       -12.7615
  53   2.0000      -0.462227       -12.5778
  54   2.0000      -0.455525       -12.3955
  55   2.0000      -0.449452       -12.2302
  56   2.0000      -0.444243       -12.0885
  57   2.0000      -0.439638       -11.9632
  58   2.0000      -0.437168       -11.8959
  59   2.0000      -0.428211       -11.6522
  60   2.0000      -0.417391       -11.3578
  61   2.0000      -0.414862       -11.2890
  62   2.0000      -0.406590       -11.0639
  63   2.0000      -0.341974        -9.3056
  64   2.0000      -0.338462        -9.2100
  65   2.0000      -0.332034        -9.0351
  66   2.0000      -0.290894        -7.9156
  67   0.0000       0.029425         0.8007
  68   0.0000       0.059837         1.6282
  69   0.0000       0.111723         3.0401
  70   0.0000       0.119799         3.2599
  71   0.0000       0.133337         3.6283

MULLIKEN ATOMIC CHARGES
-----------------------
   0 S :    0.127392
   1 C :   -0.106053
   2 C :   -0.092508
   3 C :    0.040999
   4 C :   -0.163003
   5 H :    0.006701
   6 C :    0.083740
   7 H :    0.044497
   8 H :    0.007402
   9 C :   -0.118099
  10 H :    0.032143
  11 H :    0.052278
  12 C :   -0.053808
  13 H :    0.034107
  14 H :    0.044417
  15 H :    0.025033
  16 S :    0.118114
  17 C :   -0.084177
  18 C :   -0.072592
  19 C :   -0.014697
  20 C :   -0.181407
  21 H :    0.027076
  22 C :    0.043756
  23 H :    0.025323
  24 H :    0.028815
  25 C :   -0.004416
  26 H :    0.001941
  27 H :    0.028824
  28 C :   -0.057907
  29 H :    0.027587
  30 H :    0.040272
  31 H :    0.028356
  32 H :    0.023524
  33 H :    0.056370
Sum of atomic charges:    0.0000000

LOEWDIN ATOMIC CHARGES
----------------------
   0 S :    0.433283
   1 C :   -0.192545
   2 C :   -0.056750
   3 C :   -0.065506
   4 C :   -0.208460
   5 H :    0.026113
   6 C :   -0.033459
   7 H :    0.037612
   8 H :    0.023181
   9 C :   -0.040280
  10 H :    0.020861
  11 H :    0.035610
  12 C :   -0.075779
  13 H :    0.025541
  14 H :    0.033353
  15 H :    0.023213
  16 S :    0.406361
  17 C :   -0.187811
  18 C :   -0.075398
  19 C :   -0.057915
  20 C :   -0.193323
  21 H :    0.035643
  22 C :   -0.029649
  23 H :    0.028694
  24 H :    0.035070
  25 C :   -0.035096
  26 H :    0.011049
  27 H :    0.023407
  28 C :   -0.064650
  29 H :    0.021339
  30 H :    0.022841
  31 H :    0.031526
  32 H :    0.012641
  33 H :    0.029284

  Mayer bond orders larger than 0.100000
B(  0-S ,  1-C ) :   1.1482 B(  0-S ,  4-C ) :   1.1794 B(  1-C ,  2-C ) :   1.5683
B(  1-C ,  4-C ) :   0.1019 B(  1-C , 32-H ) :   0.9788 B(  2-C ,  3-C ) :   1.2794
B(  2-C ,  6-C ) :   1.0267 B(  3-C ,  4-C ) :   1.5436 B(  3-C ,  5-H ) :   0.9955
B(  4-C , 20-C ) :   1.0067 B(  6-C ,  7-H ) :   0.9333 B(  6-C ,  8-H ) :   0.9408
B(  6-C ,  9-C ) :   1.0504 B(  9-C , 10-H ) :   0.9593 B(  9-C , 11-H ) :   0.9606
B(  9-C , 12-C ) :   1.0737 B( 12-C , 13-H ) :   0.9749 B( 12-C , 14-H ) :   0.9760
B( 12-C , 15-H ) :   0.9747 B( 16-S , 17-C ) :   1.1679 B( 16-S , 20-C ) :   1.1533
B( 17-C , 18-C ) :   1.5894 B( 17-C , 20-C ) :   0.1136 B( 17-C , 33-H ) :   0.9631
B( 18-C , 19-C ) :   1.2762 B( 18-C , 21-H ) :   0.9847 B( 19-C , 20-C ) :   1.5613
B( 19-C , 22-C ) :   1.0218 B( 22-C , 23-H ) :   0.9307 B( 22-C , 24-H ) :   0.9358
B( 22-C , 25-C ) :   1.0597 B( 25-C , 26-H ) :   0.9552 B( 25-C , 27-H ) :   0.9609
B( 25-C , 28-C ) :   1.0677 B( 28-C , 29-H ) :   0.9781 B( 28-C , 30-H ) :   0.9741
B( 28-C , 31-H ) :   0.9722

Dispersion correction           -0.014932434
FINAL SINGLE POINT ENERGY     -1339.877830611532

DIPOLE MOMENT
-------------
                                X             Y             Z
Electronic contribution:    -20.66009       8.38889     -11.89883
Nuclear contribution   :     21.21938      -8.28114      12.12261
                        -----------------------------------------
Total Dipole Moment    :      0.55929       0.10775       0.22377
                        -----------------------------------------
Magnitude (a.u.)       :      0.61196
Magnitude (Debye)      :      1.55547

Rotational constants in cm-1:     0.022909     0.007584     0.006732
Rotational constants in MHz :   686.784820   227.347930   201.833433

                             ****ORCA TERMINATED NORMALLY****
TOTAL RUN TIME: 0 days 0 hours 0 minutes 34 seconds 656 msec
