                         Program Version 4.2.1 -  RELEASE  -
|  1> ! wB97X-D3 SP def2-SVP
|  2> %pal
|  3> nprocs 16
|  4> end
|  5>
|  6> * xyz 0 1
|  7> S 	 -55.0321 	 33.3864 	 100.724
|  8> C 	 -56.3206 	 32.9492 	 99.6073
|  9> C 	 -55.7953 	 32.3933 	 98.4672
| 10> C 	 -54.3971 	 32.4736 	 98.4517
| 11> C 	 -53.8354 	 33.0741 	 99.5446
| 12> H 	 -53.7139 	 32.1135 	 97.6642
| 13> C 	 -56.6894 	 32.0078 	 97.2782
| 14> H 	 -57.0466 	 32.9079 	 96.7866
| 15> H 	 -57.6326 	 31.6322 	 97.6551
| 16> C 	 -56.1023 	 30.9999 	 96.287
| 17> H 	 -55.1479 	 31.3869 	 95.818
| 18> H 	 -55.8056 	 30.1072 	 96.7773
| 19> C 	 -57.1144 	 30.6755 	 95.1431
| 20> H 	 -56.8571 	 29.8472 	 94.5812
| 21> H 	 -58.1463 	 30.5038 	 95.4949
| 22> H 	 -57.2266 	 31.5628 	 94.5101
| 23> S 	 -51.885 	 33.2677 	 101.392
| 24> C 	 -50.3036 	 33.91 	 100.94
| 25> C 	 -50.2707 	 34.31 	 99.6399
| 26> C 	 -51.4324 	 33.9223 	 98.9362
| 27> C 	 -52.4232 	 33.3351 	 99.7662
| 28> H 	 -49.3561 	 34.7493 	 99.2637
| 29> C 	 -51.5287 	 34.3419 	 97.4772
| 30> H 	 -51.03 	 35.2289 	 97.2034
| 31> H 	 -52.5633 	 34.5255 	 97.3229
| 32> C 	 -51.141 	 33.2133 	 96.5329
| 33> H 	 -51.5322 	 32.3064 	 96.9021
| 34> H 	 -50.1027 	 32.9919 	 96.4929
| 35> C 	 -51.7622 	 33.5236 	 95.1628
| 36> H 	 -51.1749 	 34.2341 	 94.6455
| 37> H 	 -52.6995 	 33.8724 	 95.3278
| 38> H 	 -51.6691 	 32.5417 	 94.6826
| 39> H 	 -57.401 	 33.0553 	 99.6604
| 40> H 	 -49.4691 	 33.9868 	 101.6
| 41> *
| 42>
| 43>                          ****END OF INPUT****

CARTESIAN COORDINATES (ANGSTROEM)
---------------------------------
  S    -55.032100   33.386400  100.724000
  C    -56.320600   32.949200   99.607300
  C    -55.795300   32.393300   98.467200
  C    -54.397100   32.473600   98.451700
  C    -53.835400   33.074100   99.544600
  H    -53.713900   32.113500   97.664200
  C    -56.689400   32.007800   97.278200
  H    -57.046600   32.907900   96.786600
  H    -57.632600   31.632200   97.655100
  C    -56.102300   30.999900   96.287000
  H    -55.147900   31.386900   95.818000
  H    -55.805600   30.107200   96.777300
  C    -57.114400   30.675500   95.143100
  H    -56.857100   29.847200   94.581200
  H    -58.146300   30.503800   95.494900
  H    -57.226600   31.562800   94.510100
  S    -51.885000   33.267700  101.392000
  C    -50.303600   33.910000  100.940000
  C    -50.270700   34.310000   99.639900
  C    -51.432400   33.922300   98.936200
  C    -52.423200   33.335100   99.766200
  H    -49.356100   34.749300   99.263700
  C    -51.528700   34.341900   97.477200
  H    -51.030000   35.228900   97.203400
  H    -52.563300   34.525500   97.322900
  C    -51.141000   33.213300   96.532900
  H    -51.532200   32.306400   96.902100
  H    -50.102700   32.991900   96.492900
  C    -51.762200   33.523600   95.162800
  H    -51.174900   34.234100   94.645500
  H    -52.699500   33.872400   95.327800
  H    -51.669100   32.541700   94.682600
  H    -57.401000   33.055300   99.660400
  H    -49.469100   33.986800  101.600000

 Total Charge           Charge          ....    0
 Multiplicity           Mult            ....    1
 Number of Electrons    NEL             ....  134
 Basis Dimension        Dim             ....  322

ORBITAL ENERGIES
----------------

  NO   OCC          E(Eh)            E(eV)
   0   2.0000     -88.967441     -2420.9271
   1   2.0000     -88.966029     -2420.8887
   2   2.0000     -10.327922      -281.0370
   3   2.0000     -10.325059      -280.9592
   4   2.0000     -10.313232      -280.6373
   5   2.0000     -10.309851      -280.5453
   6   2.0000     -10.303779      -280.3801
   7   2.0000     -10.296932      -280.1938
   8   2.0000     -10.293091      -280.0892
   9   2.0000     -10.291345      -280.0417
  10   2.0000     -10.289671      -279.9962
  11   2.0000     -10.288383      -279.9611
  12   2.0000     -10.280231      -279.7393
  13   2.0000     -10.277346      -279.6608
  14   2.0000     -10.274250      -279.5765
  15   2.0000     -10.266690      -279.3708
  16   2.0000      -8.082552      -219.9374
  17   2.0000      -8.081282      -219.9029
  18   2.0000      -6.041173      -164.3887
  19   2.0000      -6.039775      -164.3506
  20   2.0000      -6.037005      -164.2753
  21   2.0000      -6.035716      -164.2402
  22   2.0000      -6.033149      -164.1703
  23   2.0000      -6.032050      -164.1404
  24   2.0000      -1.014737       -27.6124
  25   2.0000      -0.989472       -26.9249
  26   2.0000      -0.918209       -24.9857
  27   2.0000      -0.910876       -24.7862
  28   2.0000      -0.874644       -23.8003
  29   2.0000      -0.853270       -23.2187
  30   2.0000      -0.845982       -23.0203
  31   2.0000      -0.819075       -22.2882
  32   2.0000      -0.783748       -21.3269
  33   2.0000      -0.771835       -21.0027
  34   2.0000      -0.716206       -19.4890
  35   2.0000      -0.707067       -19.2403
  36   2.0000      -0.693518       -18.8716
  37   2.0000      -0.664769       -18.0893
  38   2.0000      -0.640169       -17.4199
  39   2.0000      -0.619867       -16.8674
  40   2.0000      -0.600452       -16.3391
  41   2.0000      -0.575182       -15.6515
  42   2.0000      -0.571483       -15.5508
  43   2.0000      -0.561532       -15.2801
  44   2.0000      -0.534056       -14.5324
  45   2.0000      -0.529542       -14.4096
  46   2.0000      -0.515160       -14.0182
  47   2.0000      -0.509355       -13.8603
  48   2.0000      -0.504723       -13.7342
  49   2.0000      -0.500460       -13.6182
  50   2.0000      -0.498363       -13.5611
  51   2.0000      -0.479451       -13.0465
  52   2.0000      -0.474401       -12.9091
  53   2.0000      -0.468564       -12.7503
  54   2.0000      -0.462770       -12.5926
  55   2.0000      -0.453306       -12.3351
  56   2.0000      -0.450874       -12.2689
  57   2.0000      -0.444882       -12.1059
  58   2.0000      -0.439744       -11.9660
  59   2.0000      -0.427153       -11.6234
  60   2.0000      -0.421339       -11.4652
  61   2.0000      -0.416746       -11.3402
  62   2.0000      -0.405625       -11.0376
  63   2.0000      -0.356052        -9.6887
  64   2.0000      -0.334633        -9.1058
  65   2.0000      -0.330431        -8.9915
  66   2.0000      -0.282883        -7.6976
  67   0.0000       0.026741         0.7277
  68   0.0000       0.075434         2.0527
  69   0.0000       0.104423         2.8415
  70   0.0000       0.125285         3.4092
  71   0.0000       0.130015         3.5379

MULLIKEN ATOMIC CHARGES
-----------------------
   0 S :    0.117884
   1 C :   -0.118741
   2 C :   -0.052032
   3 C :   -0.027241
   4 C :   -0.109330
   5 H :    0.007783
   6 C :    0.063124
   7 H :    0.034304
   8 H :    0.008454
   9 C :   -0.092661
  10 H :    0.040496
  11 H :    0.027977
  12 C :   -0.022505
  13 H :    0.024136
  14 H :    0.022397
  15 H :    0.028484
  16 S :    0.095148
  17 C :   -0.084166
  18 C :   -0.023052
  19 C :   -0.054735
  20 C :   -0.138099
  21 H :    0.020627
  22 C :    0.097813
  23 H :    0.012702
  24 H :    0.007967
  25 C :   -0.077715
  26 H :    0.009269
  27 H :    0.013282
  28 C :    0.018848
  29 H :    0.023219
  30 H :    0.008634
  31 H :    0.035341
  32 H :    0.038128
  33 H :    0.044260
Sum of atomic charges:    0.0000000

LOEWDIN ATOMIC CHARGES
----------------------
   0 S :    0.418039
   1 C :   -0.200354
   2 C :   -0.062780
   3 C :   -0.079891
   4 C :   -0.200900
   5 H :    0.032330
   6 C :   -0.030803
   7 H :    0.033016
   8 H :    0.027095
   9 C :   -0.038687
  10 H :    0.028712
  11 H :    0.019388
  12 C :   -0.059274
  13 H :    0.015925
  14 H :    0.025896
  15 H :    0.027247
  16 S :    0.413188
  17 C :   -0.173883
  18 C :   -0.068690
  19 C :   -0.049569
  20 C :   -0.208679
  21 H :    0.035187
  22 C :   -0.022921
  23 H :    0.024311
  24 H :    0.023975
  25 C :   -0.030808
  26 H :    0.012157
  27 H :    0.018131
  28 C :   -0.044781
  29 H :    0.020692
  30 H :    0.008414
  31 H :    0.033048
  32 H :    0.032067
  33 H :    0.023204

  Mayer bond orders larger than 0.100000
B(  0-S ,  1-C ) :   1.1280 B(  0-S ,  4-C ) :   1.1534 B(  1-C ,  2-C ) :   1.6170
B(  1-C , 32-H ) :   0.9685 B(  2-C ,  3-C ) :   1.2506 B(  2-C ,  6-C ) :   1.0110
B(  3-C ,  4-C ) :   1.5574 B(  3-C ,  5-H ) :   0.9973 B(  4-C , 20-C ) :   1.0606
B(  6-C ,  7-H ) :   0.9426 B(  6-C ,  8-H ) :   0.9344 B(  6-C ,  9-C ) :   1.0653
B(  9-C , 10-H ) :   0.9489 B(  9-C , 11-H ) :   0.9621 B(  9-C , 12-C ) :   1.0809
B( 12-C , 13-H ) :   0.9752 B( 12-C , 14-H ) :   0.9753 B( 12-C , 15-H ) :   0.9754
B( 16-S , 17-C ) :   1.1520 B( 16-S , 20-C ) :   1.1462 B( 17-C , 18-C ) :   1.6038
B( 17-C , 33-H ) :   0.9701 B( 18-C , 19-C ) :   1.2645 B( 18-C , 21-H ) :   0.9926
B( 19-C , 20-C ) :   1.5466 B( 19-C , 22-C ) :   1.0406 B( 22-C , 23-H ) :   0.9418
B( 22-C , 24-H ) :   0.9291 B( 22-C , 25-C ) :   1.0620 B( 25-C , 26-H ) :   0.9574
B( 25-C , 27-H ) :   0.9469 B( 25-C , 28-C ) :   1.0750 B( 28-C , 29-H ) :   0.9746
B( 28-C , 30-H ) :   0.9762 B( 28-C , 31-H ) :   0.9754

Dispersion correction           -0.014293862
FINAL SINGLE POINT ENERGY     -1339.866715387994

DIPOLE MOMENT
-------------
                                X             Y             Z
Electronic contribution:      5.03266       6.37401      32.45920
Nuclear contribution   :     -4.93937      -6.33666     -33.16202
                        -----------------------------------------
Total Dipole Moment    :      0.09328       0.03736      -0.70282
                        -----------------------------------------
Magnitude (a.u.)       :      0.70997
Magnitude (Debye)      :      1.80459

Rotational constants in cm-1:     0.018209     0.009435     0.006564
Rotational constants in MHz :   545.883221   282.848107   196.782756

                             ****ORCA TERMINATED NORMALLY****
TOTAL RUN TIME: 0 days 0 hours 0 minutes 31 seconds 416 msec
