                         Program Version 4.2.1 -  RELEASE  -
|  1> ! wB97X-D3 SP def2-SVP
|  2> %pal
|  3> nprocs 16
|  4> end
|  5>
|  6> * xyz 0 1
|  7> S 	 -30.2871 	 39.8974 	 97.4009
|  8> C 	 -31.6437 	 38.8488 	 96.966
|  9> C 	 -32.3634 	 39.3505 	 95.9101
| 10> C 	 -31.7123 	 40.4568 	 95.2608
| 11> C 	 -30.7007 	 41.0066 	 96.0774
| 12> H 	 -31.9073 	 40.968 	 94.3229
| 13> C 	 -33.4789 	 38.6855 	 95.1454
| 14> H 	 -34.137 	 39.344 	 94.6634
| 15> H 	 -34.162 	 38.2263 	 95.8686
| 16> C 	 -33.0542 	 37.6034 	 94.1276
| 17> H 	 -32.4362 	 38.0115 	 93.3045
| 18> H 	 -32.5234 	 36.8512 	 94.7162
| 19> C 	 -34.3856 	 37.0182 	 93.4774
| 20> H 	 -35.0591 	 36.4581 	 94.1221
| 21> H 	 -35.1432 	 37.767 	 93.0815
| 22> H 	 -34.1629 	 36.426 	 92.62
| 23> S 	 -28.1777 	 42.0453 	 96.4577
| 24> C 	 -27.7135 	 43.508 	 95.6963
| 25> C 	 -28.8276 	 44.102 	 95.1872
| 26> C 	 -29.9964 	 43.3436 	 95.1981
| 27> C 	 -29.7787 	 42.1683 	 95.8719
| 28> H 	 -28.7453 	 45.1109 	 94.8434
| 29> C 	 -31.3502 	 43.8184 	 94.731
| 30> H 	 -31.2426 	 44.9498 	 94.9197
| 31> H 	 -32.1642 	 43.4007 	 95.3753
| 32> C 	 -31.5943 	 43.5443 	 93.2209
| 33> H 	 -32.5972 	 43.964 	 93.1236
| 34> H 	 -31.7567 	 42.5189 	 92.9304
| 35> C 	 -30.573 	 44.4436 	 92.3999
| 36> H 	 -29.5499 	 44.0375 	 92.3423
| 37> H 	 -30.4452 	 45.4133 	 92.7344
| 38> H 	 -30.8674 	 44.656 	 91.4098
| 39> H 	 -31.994 	 37.945 	 97.4712
| 40> H 	 -26.8457 	 44.0506 	 95.7816
| 41> *
| 42>
| 43>                          ****END OF INPUT****

CARTESIAN COORDINATES (ANGSTROEM)
---------------------------------
  S    -30.287100   39.897400   97.400900
  C    -31.643700   38.848800   96.966000
  C    -32.363400   39.350500   95.910100
  C    -31.712300   40.456800   95.260800
  C    -30.700700   41.006600   96.077400
  H    -31.907300   40.968000   94.322900
  C    -33.478900   38.685500   95.145400
  H    -34.137000   39.344000   94.663400
  H    -34.162000   38.226300   95.868600
  C    -33.054200   37.603400   94.127600
  H    -32.436200   38.011500   93.304500
  H    -32.523400   36.851200   94.716200
  C    -34.385600   37.018200   93.477400
  H    -35.059100   36.458100   94.122100
  H    -35.143200   37.767000   93.081500
  H    -34.162900   36.426000   92.620000
  S    -28.177700   42.045300   96.457700
  C    -27.713500   43.508000   95.696300
  C    -28.827600   44.102000   95.187200
  C    -29.996400   43.343600   95.198100
  C    -29.778700   42.168300   95.871900
  H    -28.745300   45.110900   94.843400
  C    -31.350200   43.818400   94.731000
  H    -31.242600   44.949800   94.919700
  H    -32.164200   43.400700   95.375300
  C    -31.594300   43.544300   93.220900
  H    -32.597200   43.964000   93.123600
  H    -31.756700   42.518900   92.930400
  C    -30.573000   44.443600   92.399900
  H    -29.549900   44.037500   92.342300
  H    -30.445200   45.413300   92.734400
  H    -30.867400   44.656000   91.409800
  H    -31.994000   37.945000   97.471200
  H    -26.845700   44.050600   95.781600

 Total Charge           Charge          ....    0
 Multiplicity           Mult            ....    1
 Number of Electrons    NEL             ....  134
 Basis Dimension        Dim             ....  322

ORBITAL ENERGIES
----------------

  NO   OCC          E(Eh)            E(eV)
   0   2.0000     -88.966825     -2420.9104
   1   2.0000     -88.964607     -2420.8500
   2   2.0000     -10.335978      -281.2563
   3   2.0000     -10.321940      -280.8743
   4   2.0000     -10.315979      -280.7121
   5   2.0000     -10.304863      -280.4096
   6   2.0000     -10.301704      -280.3236
   7   2.0000     -10.300820      -280.2996
   8   2.0000     -10.297900      -280.2201
   9   2.0000     -10.297094      -280.1982
  10   2.0000     -10.296491      -280.1818
  11   2.0000     -10.292846      -280.0826
  12   2.0000     -10.286344      -279.9057
  13   2.0000     -10.284316      -279.8505
  14   2.0000     -10.283648      -279.8323
  15   2.0000     -10.274660      -279.5877
  16   2.0000      -8.080813      -219.8901
  17   2.0000      -8.080686      -219.8866
  18   2.0000      -6.039449      -164.3418
  19   2.0000      -6.039100      -164.3323
  20   2.0000      -6.035554      -164.2358
  21   2.0000      -6.035007      -164.2209
  22   2.0000      -6.031466      -164.1245
  23   2.0000      -6.031362      -164.1217
  24   2.0000      -1.014822       -27.6147
  25   2.0000      -0.984564       -26.7914
  26   2.0000      -0.910024       -24.7630
  27   2.0000      -0.908309       -24.7163
  28   2.0000      -0.866613       -23.5818
  29   2.0000      -0.850468       -23.1424
  30   2.0000      -0.840855       -22.8808
  31   2.0000      -0.814711       -22.1694
  32   2.0000      -0.785017       -21.3614
  33   2.0000      -0.774566       -21.0770
  34   2.0000      -0.715418       -19.4675
  35   2.0000      -0.707074       -19.2405
  36   2.0000      -0.699357       -19.0305
  37   2.0000      -0.666613       -18.1395
  38   2.0000      -0.639462       -17.4007
  39   2.0000      -0.617091       -16.7919
  40   2.0000      -0.593321       -16.1451
  41   2.0000      -0.572042       -15.5661
  42   2.0000      -0.558939       -15.2095
  43   2.0000      -0.550444       -14.9784
  44   2.0000      -0.542682       -14.7671
  45   2.0000      -0.519808       -14.1447
  46   2.0000      -0.514177       -13.9915
  47   2.0000      -0.507268       -13.8035
  48   2.0000      -0.501512       -13.6468
  49   2.0000      -0.496571       -13.5124
  50   2.0000      -0.493589       -13.4313
  51   2.0000      -0.483665       -13.1612
  52   2.0000      -0.472466       -12.8565
  53   2.0000      -0.464454       -12.6384
  54   2.0000      -0.457447       -12.4478
  55   2.0000      -0.452286       -12.3073
  56   2.0000      -0.446011       -12.1366
  57   2.0000      -0.438702       -11.9377
  58   2.0000      -0.438506       -11.9323
  59   2.0000      -0.429867       -11.6973
  60   2.0000      -0.423844       -11.5334
  61   2.0000      -0.416251       -11.3268
  62   2.0000      -0.408834       -11.1249
  63   2.0000      -0.355121        -9.6633
  64   2.0000      -0.334750        -9.1090
  65   2.0000      -0.327128        -8.9016
  66   2.0000      -0.285467        -7.7680
  67   0.0000       0.023731         0.6458
  68   0.0000       0.081978         2.2307
  69   0.0000       0.098210         2.6724
  70   0.0000       0.122545         3.3346
  71   0.0000       0.135988         3.7004

MULLIKEN ATOMIC CHARGES
-----------------------
   0 S :    0.088168
   1 C :   -0.109874
   2 C :   -0.057894
   3 C :    0.017742
   4 C :   -0.124637
   5 H :   -0.009803
   6 C :    0.049121
   7 H :    0.001307
   8 H :    0.015860
   9 C :   -0.045013
  10 H :    0.043429
  11 H :    0.036523
  12 C :   -0.075407
  13 H :    0.028582
  14 H :    0.027441
  15 H :    0.031420
  16 S :    0.110810
  17 C :   -0.038784
  18 C :   -0.055995
  19 C :   -0.021722
  20 C :   -0.136164
  21 H :    0.000874
  22 C :   -0.019347
  23 H :    0.044090
  24 H :    0.050390
  25 C :   -0.040746
  26 H :    0.026530
  27 H :    0.047835
  28 C :   -0.022281
  29 H :    0.048160
  30 H :    0.002062
  31 H :    0.015433
  32 H :    0.050767
  33 H :    0.021122
Sum of atomic charges:   -0.0000000

LOEWDIN ATOMIC CHARGES
----------------------
   0 S :    0.381287
   1 C :   -0.193758
   2 C :   -0.064163
   3 C :   -0.063719
   4 C :   -0.167556
   5 H :    0.028821
   6 C :   -0.036400
   7 H :    0.019095
   8 H :    0.030008
   9 C :   -0.025322
  10 H :    0.029435
  11 H :    0.026871
  12 C :   -0.077139
  13 H :    0.023228
  14 H :    0.031160
  15 H :    0.020546
  16 S :    0.434556
  17 C :   -0.188927
  18 C :   -0.067665
  19 C :   -0.070623
  20 C :   -0.210483
  21 H :    0.025005
  22 C :   -0.034229
  23 H :    0.042306
  24 H :    0.035027
  25 C :   -0.033355
  26 H :    0.027540
  27 H :    0.021287
  28 C :   -0.062054
  29 H :    0.032803
  30 H :    0.015545
  31 H :    0.020922
  32 H :    0.033261
  33 H :    0.016691

  Mayer bond orders larger than 0.100000
B(  0-S ,  1-C ) :   1.1201 B(  0-S ,  4-C ) :   1.1420 B(  1-C ,  2-C ) :   1.6367
B(  1-C , 32-H ) :   0.9636 B(  2-C ,  3-C ) :   1.2020 B(  2-C ,  6-C ) :   1.0452
B(  3-C ,  4-C ) :   1.5883 B(  3-C ,  5-H ) :   0.9853 B(  4-C , 20-C ) :   1.0306
B(  6-C ,  7-H ) :   0.9397 B(  6-C ,  8-H ) :   0.9385 B(  6-C ,  9-C ) :   1.0570
B(  9-C , 10-H ) :   0.9590 B(  9-C , 11-H ) :   0.9571 B(  9-C , 12-C ) :   1.0605
B( 12-C , 13-H ) :   0.9779 B( 12-C , 14-H ) :   0.9750 B( 12-C , 15-H ) :   0.9775
B( 16-S , 17-C ) :   1.1557 B( 16-S , 20-C ) :   1.1636 B( 17-C , 18-C ) :   1.5973
B( 17-C , 33-H ) :   0.9735 B( 18-C , 19-C ) :   1.2762 B( 18-C , 21-H ) :   0.9878
B( 19-C , 20-C ) :   1.5779 B( 19-C , 22-C ) :   1.0156 B( 22-C , 23-H ) :   0.9468
B( 22-C , 24-H ) :   0.9395 B( 22-C , 25-C ) :   1.0648 B( 25-C , 26-H ) :   0.9544
B( 25-C , 27-H ) :   0.9540 B( 25-C , 28-C ) :   1.0588 B( 28-C , 29-H ) :   0.9740
B( 28-C , 30-H ) :   0.9728 B( 28-C , 31-H ) :   0.9717

Dispersion correction           -0.014417873
FINAL SINGLE POINT ENERGY     -1339.856244202335

DIPOLE MOMENT
-------------
                                X             Y             Z
Electronic contribution:     20.14997       1.43766      21.55641
Nuclear contribution   :    -20.59929      -1.19447     -22.08435
                        -----------------------------------------
Total Dipole Moment    :     -0.44932       0.24319      -0.52794
                        -----------------------------------------
Magnitude (a.u.)       :      0.73468
Magnitude (Debye)      :      1.86741

Rotational constants in cm-1:     0.019662     0.008571     0.006386
Rotational constants in MHz :   589.438520   256.956865   191.438131

                             ****ORCA TERMINATED NORMALLY****
TOTAL RUN TIME: 0 days 0 hours 0 minutes 30 seconds 185 msec
