                         Program Version 4.2.1 -  RELEASE  -
|  1> ! wB97X-D3 SP def2-SVP
|  2> %pal
|  3> nprocs 16
|  4> end
|  5>
|  6> * xyz 0 1
|  7> S 	 5.04006 	 -10.4389 	 62.9098
|  8> C 	 5.66159 	 -11.4259 	 64.2011
|  9> C 	 5.19986 	 -10.9361 	 65.421
| 10> C 	 4.08728 	 -10.0452 	 65.2509
| 11> C 	 3.74857 	 -9.77589 	 63.9402
| 12> H 	 3.47223 	 -9.88961 	 66.0408
| 13> C 	 5.5414 	 -11.5529 	 66.7405
| 14> H 	 6.1082 	 -12.4562 	 66.5896
| 15> H 	 4.59107 	 -11.8764 	 67.1195
| 16> C 	 6.32436 	 -10.5829 	 67.7063
| 17> H 	 7.31097 	 -10.3582 	 67.2274
| 18> H 	 5.74866 	 -9.6743 	 67.8812
| 19> C 	 6.66359 	 -11.318 	 69.0397
| 20> H 	 7.4427 	 -12.0376 	 68.889
| 21> H 	 7.15554 	 -10.5435 	 69.7362
| 22> H 	 5.71728 	 -11.687 	 69.6511
| 23> S 	 2.95554 	 -7.36703 	 62.677
| 24> C 	 1.20251 	 -7.09269 	 62.6492
| 25> C 	 0.554656 	 -8.22051 	 63.1032
| 26> C 	 1.32329 	 -9.23538 	 63.6566
| 27> C 	 2.64455 	 -8.97563 	 63.4223
| 28> H 	 -0.557441 	 -8.18083 	 63.0256
| 29> C 	 0.739064 	 -10.3783 	 64.4481
| 30> H 	 0.168327 	 -10.0615 	 65.3022
| 31> H 	 1.59365 	 -10.9158 	 64.9163
| 32> C 	 -0.088145 	 -11.4314 	 63.6692
| 33> H 	 0.481021 	 -11.8627 	 62.8881
| 34> H 	 -1.00264 	 -11.0471 	 63.2147
| 35> C 	 -0.569712 	 -12.5575 	 64.6139
| 36> H 	 -1.23809 	 -13.259 	 64.0842
| 37> H 	 -1.22138 	 -12.1197 	 65.3169
| 38> H 	 0.191399 	 -13.1652 	 65.0389
| 39> H 	 6.4514 	 -12.1428 	 64.0537
| 40> H 	 0.756588 	 -6.15252 	 62.192
| 41> *
| 42>
| 43>                          ****END OF INPUT****

CARTESIAN COORDINATES (ANGSTROEM)
---------------------------------
  S      5.040060  -10.438900   62.909800
  C      5.661590  -11.425900   64.201100
  C      5.199860  -10.936100   65.421000
  C      4.087280  -10.045200   65.250900
  C      3.748570   -9.775890   63.940200
  H      3.472230   -9.889610   66.040800
  C      5.541400  -11.552900   66.740500
  H      6.108200  -12.456200   66.589600
  H      4.591070  -11.876400   67.119500
  C      6.324360  -10.582900   67.706300
  H      7.310970  -10.358200   67.227400
  H      5.748660   -9.674300   67.881200
  C      6.663590  -11.318000   69.039700
  H      7.442700  -12.037600   68.889000
  H      7.155540  -10.543500   69.736200
  H      5.717280  -11.687000   69.651100
  S      2.955540   -7.367030   62.677000
  C      1.202510   -7.092690   62.649200
  C      0.554656   -8.220510   63.103200
  C      1.323290   -9.235380   63.656600
  C      2.644550   -8.975630   63.422300
  H     -0.557441   -8.180830   63.025600
  C      0.739064  -10.378300   64.448100
  H      0.168327  -10.061500   65.302200
  H      1.593650  -10.915800   64.916300
  C     -0.088145  -11.431400   63.669200
  H      0.481021  -11.862700   62.888100
  H     -1.002640  -11.047100   63.214700
  C     -0.569712  -12.557500   64.613900
  H     -1.238090  -13.259000   64.084200
  H     -1.221380  -12.119700   65.316900
  H      0.191399  -13.165200   65.038900
  H      6.451400  -12.142800   64.053700
  H      0.756588   -6.152520   62.192000

 Total Charge           Charge          ....    0
 Multiplicity           Mult            ....    1
 Number of Electrons    NEL             ....  134
 Basis Dimension        Dim             ....  322

ORBITAL ENERGIES
----------------

  NO   OCC          E(Eh)            E(eV)
   0   2.0000     -88.966447     -2420.9001
   1   2.0000     -88.959806     -2420.7194
   2   2.0000     -10.329663      -281.0844
   3   2.0000     -10.328053      -281.0406
   4   2.0000     -10.323565      -280.9185
   5   2.0000     -10.312360      -280.6136
   6   2.0000     -10.300223      -280.2833
   7   2.0000     -10.297885      -280.2197
   8   2.0000     -10.296476      -280.1813
   9   2.0000     -10.293931      -280.1121
  10   2.0000     -10.293782      -280.1080
  11   2.0000     -10.293126      -280.0902
  12   2.0000     -10.289012      -279.9782
  13   2.0000     -10.287273      -279.9309
  14   2.0000     -10.284176      -279.8467
  15   2.0000     -10.272657      -279.5332
  16   2.0000      -8.080156      -219.8722
  17   2.0000      -8.074612      -219.7214
  18   2.0000      -6.038743      -164.3226
  19   2.0000      -6.034963      -164.2197
  20   2.0000      -6.033106      -164.1692
  21   2.0000      -6.030742      -164.1048
  22   2.0000      -6.029164      -164.0619
  23   2.0000      -6.025332      -163.9576
  24   2.0000      -1.004376       -27.3305
  25   2.0000      -0.983205       -26.7544
  26   2.0000      -0.907617       -24.6975
  27   2.0000      -0.905983       -24.6531
  28   2.0000      -0.866774       -23.5861
  29   2.0000      -0.853759       -23.2320
  30   2.0000      -0.844853       -22.9896
  31   2.0000      -0.811831       -22.0910
  32   2.0000      -0.783791       -21.3280
  33   2.0000      -0.765503       -20.8304
  34   2.0000      -0.707107       -19.2414
  35   2.0000      -0.700527       -19.0623
  36   2.0000      -0.693364       -18.8674
  37   2.0000      -0.656021       -17.8512
  38   2.0000      -0.643757       -17.5175
  39   2.0000      -0.624519       -16.9940
  40   2.0000      -0.599990       -16.3266
  41   2.0000      -0.570994       -15.5375
  42   2.0000      -0.566436       -15.4135
  43   2.0000      -0.555068       -15.1042
  44   2.0000      -0.525212       -14.2918
  45   2.0000      -0.520863       -14.1734
  46   2.0000      -0.512625       -13.9492
  47   2.0000      -0.510259       -13.8848
  48   2.0000      -0.508049       -13.8247
  49   2.0000      -0.495745       -13.4899
  50   2.0000      -0.495151       -13.4737
  51   2.0000      -0.475637       -12.9428
  52   2.0000      -0.470610       -12.8060
  53   2.0000      -0.463470       -12.6117
  54   2.0000      -0.457375       -12.4458
  55   2.0000      -0.447167       -12.1680
  56   2.0000      -0.439686       -11.9645
  57   2.0000      -0.434686       -11.8284
  58   2.0000      -0.432147       -11.7593
  59   2.0000      -0.428742       -11.6667
  60   2.0000      -0.427105       -11.6221
  61   2.0000      -0.423629       -11.5275
  62   2.0000      -0.406167       -11.0524
  63   2.0000      -0.341104        -9.2819
  64   2.0000      -0.334115        -9.0917
  65   2.0000      -0.323533        -8.8038
  66   2.0000      -0.294500        -8.0137
  67   0.0000       0.035244         0.9590
  68   0.0000       0.054605         1.4859
  69   0.0000       0.114956         3.1281
  70   0.0000       0.117843         3.2067
  71   0.0000       0.125609         3.4180

MULLIKEN ATOMIC CHARGES
-----------------------
   0 S :    0.096109
   1 C :   -0.119445
   2 C :   -0.093790
   3 C :    0.100354
   4 C :   -0.187542
   5 H :   -0.024552
   6 C :    0.061146
   7 H :    0.009021
   8 H :    0.021461
   9 C :   -0.083243
  10 H :    0.042090
  11 H :    0.040263
  12 C :   -0.094438
  13 H :    0.037616
  14 H :    0.040583
  15 H :    0.054835
  16 S :    0.102485
  17 C :   -0.138308
  18 C :   -0.038046
  19 C :    0.011280
  20 C :   -0.145093
  21 H :    0.028062
  22 C :    0.066803
  23 H :    0.025605
  24 H :    0.021599
  25 C :   -0.060839
  26 H :    0.027342
  27 H :    0.026886
  28 C :   -0.038696
  29 H :    0.026390
  30 H :    0.017168
  31 H :    0.032698
  32 H :    0.048713
  33 H :    0.085485
Sum of atomic charges:    0.0000000

LOEWDIN ATOMIC CHARGES
----------------------
   0 S :    0.387929
   1 C :   -0.193937
   2 C :   -0.063652
   3 C :   -0.049864
   4 C :   -0.177862
   5 H :    0.010867
   6 C :   -0.031398
   7 H :    0.026402
   8 H :    0.026796
   9 C :   -0.036997
  10 H :    0.033067
  11 H :    0.023722
  12 C :   -0.082279
  13 H :    0.020197
  14 H :    0.032788
  15 H :    0.037625
  16 S :    0.373270
  17 C :   -0.187936
  18 C :   -0.074132
  19 C :   -0.056692
  20 C :   -0.180463
  21 H :    0.036599
  22 C :   -0.029847
  23 H :    0.029583
  24 H :    0.035940
  25 C :   -0.030269
  26 H :    0.020363
  27 H :    0.023067
  28 C :   -0.060095
  29 H :    0.029535
  30 H :    0.017792
  31 H :    0.019983
  32 H :    0.025133
  33 H :    0.044766

  Mayer bond orders larger than 0.100000
B(  0-S ,  1-C ) :   1.1431 B(  0-S ,  4-C ) :   1.1401 B(  1-C ,  2-C ) :   1.5977
B(  1-C ,  4-C ) :   0.1010 B(  1-C , 32-H ) :   0.9733 B(  2-C ,  3-C ) :   1.2338
B(  2-C ,  6-C ) :   1.0347 B(  3-C ,  4-C ) :   1.5754 B(  3-C ,  5-H ) :   1.0022
B(  4-C , 20-C ) :   1.0320 B(  6-C ,  7-H ) :   0.9456 B(  6-C ,  8-H ) :   0.9436
B(  6-C ,  9-C ) :   1.0481 B(  9-C , 10-H ) :   0.9551 B(  9-C , 11-H ) :   0.9621
B(  9-C , 12-C ) :   1.0784 B( 12-C , 13-H ) :   0.9752 B( 12-C , 14-H ) :   0.9744
B( 12-C , 15-H ) :   0.9727 B( 16-S , 17-C ) :   1.1352 B( 16-S , 20-C ) :   1.1357
B( 17-C , 18-C ) :   1.6293 B( 17-C , 20-C ) :   0.1032 B( 17-C , 33-H ) :   0.9593
B( 18-C , 19-C ) :   1.2214 B( 18-C , 21-H ) :   0.9825 B( 19-C , 20-C ) :   1.6169
B( 19-C , 22-C ) :   1.0419 B( 22-C , 23-H ) :   0.9360 B( 22-C , 24-H ) :   0.9222
B( 22-C , 25-C ) :   1.0658 B( 25-C , 26-H ) :   0.9562 B( 25-C , 27-H ) :   0.9562
B( 25-C , 28-C ) :   1.0883 B( 28-C , 29-H ) :   0.9728 B( 28-C , 30-H ) :   0.9740
B( 28-C , 31-H ) :   0.9773

Dispersion correction           -0.013643645
FINAL SINGLE POINT ENERGY     -1339.865407041761

DIPOLE MOMENT
-------------
                                X             Y             Z
Electronic contribution:      5.57266      16.78819     -22.25620
Nuclear contribution   :     -5.91409     -17.11443      22.82335
                        -----------------------------------------
Total Dipole Moment    :     -0.34143      -0.32623       0.56714
                        -----------------------------------------
Magnitude (a.u.)       :      0.73800
Magnitude (Debye)      :      1.87586

Rotational constants in cm-1:     0.016958     0.008034     0.006631
Rotational constants in MHz :   508.373782   240.853105   198.788548

                             ****ORCA TERMINATED NORMALLY****
TOTAL RUN TIME: 0 days 0 hours 0 minutes 27 seconds 533 msec
