                         Program Version 4.2.1 -  RELEASE  -
|  1> ! wB97X-D3 SP def2-SVP
|  2> %pal
|  3> nprocs 16
|  4> end
|  5>
|  6> * xyz 0 1
|  7> S 	 -28.5675 	 54.1557 	 110.045
|  8> C 	 -29.2183 	 52.8643 	 111.094
|  9> C 	 -29.931 	 53.231 	 112.239
| 10> C 	 -29.8267 	 54.6543 	 112.34
| 11> C 	 -29.1745 	 55.2856 	 111.288
| 12> H 	 -30.2882 	 55.2811 	 113.154
| 13> C 	 -30.6623 	 52.3854 	 113.312
| 14> H 	 -31.2328 	 51.6083 	 112.785
| 15> H 	 -31.3018 	 53.1593 	 113.819
| 16> C 	 -29.8748 	 51.5931 	 114.293
| 17> H 	 -30.4822 	 51.0831 	 114.978
| 18> H 	 -29.4681 	 50.8392 	 113.636
| 19> C 	 -28.6456 	 52.1714 	 114.891
| 20> H 	 -28.9004 	 53.0676 	 115.365
| 21> H 	 -28.2816 	 51.5508 	 115.729
| 22> H 	 -27.8298 	 52.3188 	 114.168
| 23> S 	 -29.8964 	 57.5754 	 110.021
| 24> C 	 -29.0553 	 59.0609 	 110.461
| 25> C 	 -28.3157 	 58.9243 	 111.589
| 26> C 	 -28.3435 	 57.5942 	 112.056
| 27> C 	 -28.9961 	 56.7172 	 111.197
| 28> H 	 -27.7232 	 59.8068 	 111.756
| 29> C 	 -27.4932 	 57.2772 	 113.245
| 30> H 	 -28.1957 	 56.7876 	 114.027
| 31> H 	 -27.0065 	 58.1054 	 113.717
| 32> C 	 -26.4463 	 56.1922 	 112.876
| 33> H 	 -26.8349 	 55.4587 	 112.212
| 34> H 	 -26.0538 	 55.6611 	 113.734
| 35> C 	 -25.2514 	 56.9016 	 112.285
| 36> H 	 -24.9518 	 57.7275 	 112.951
| 37> H 	 -25.3176 	 57.1203 	 111.194
| 38> H 	 -24.3996 	 56.1761 	 112.373
| 39> H 	 -29.0717 	 51.8135 	 110.81
| 40> H 	 -28.9257 	 60.0055 	 109.929
| 41> *
| 42>
| 43>                          ****END OF INPUT****

CARTESIAN COORDINATES (ANGSTROEM)
---------------------------------
  S    -28.567500   54.155700  110.045000
  C    -29.218300   52.864300  111.094000
  C    -29.931000   53.231000  112.239000
  C    -29.826700   54.654300  112.340000
  C    -29.174500   55.285600  111.288000
  H    -30.288200   55.281100  113.154000
  C    -30.662300   52.385400  113.312000
  H    -31.232800   51.608300  112.785000
  H    -31.301800   53.159300  113.819000
  C    -29.874800   51.593100  114.293000
  H    -30.482200   51.083100  114.978000
  H    -29.468100   50.839200  113.636000
  C    -28.645600   52.171400  114.891000
  H    -28.900400   53.067600  115.365000
  H    -28.281600   51.550800  115.729000
  H    -27.829800   52.318800  114.168000
  S    -29.896400   57.575400  110.021000
  C    -29.055300   59.060900  110.461000
  C    -28.315700   58.924300  111.589000
  C    -28.343500   57.594200  112.056000
  C    -28.996100   56.717200  111.197000
  H    -27.723200   59.806800  111.756000
  C    -27.493200   57.277200  113.245000
  H    -28.195700   56.787600  114.027000
  H    -27.006500   58.105400  113.717000
  C    -26.446300   56.192200  112.876000
  H    -26.834900   55.458700  112.212000
  H    -26.053800   55.661100  113.734000
  C    -25.251400   56.901600  112.285000
  H    -24.951800   57.727500  112.951000
  H    -25.317600   57.120300  111.194000
  H    -24.399600   56.176100  112.373000
  H    -29.071700   51.813500  110.810000
  H    -28.925700   60.005500  109.929000

 Total Charge           Charge          ....    0
 Multiplicity           Mult            ....    1
 Number of Electrons    NEL             ....  134
 Basis Dimension        Dim             ....  322

ORBITAL ENERGIES
----------------

  NO   OCC          E(Eh)            E(eV)
   0   2.0000     -88.975879     -2421.1568
   1   2.0000     -88.962533     -2420.7936
   2   2.0000     -10.329355      -281.0760
   3   2.0000     -10.323261      -280.9102
   4   2.0000     -10.317981      -280.7665
   5   2.0000     -10.309602      -280.5385
   6   2.0000     -10.307701      -280.4868
   7   2.0000     -10.302030      -280.3325
   8   2.0000     -10.300707      -280.2965
   9   2.0000     -10.298649      -280.2405
  10   2.0000     -10.288551      -279.9657
  11   2.0000     -10.282896      -279.8118
  12   2.0000     -10.276696      -279.6431
  13   2.0000     -10.273786      -279.5639
  14   2.0000     -10.271695      -279.5070
  15   2.0000     -10.270754      -279.4814
  16   2.0000      -8.088957      -220.1117
  17   2.0000      -8.077761      -219.8070
  18   2.0000      -6.047413      -164.5585
  19   2.0000      -6.043959      -164.4645
  20   2.0000      -6.039606      -164.3460
  21   2.0000      -6.036250      -164.2547
  22   2.0000      -6.032244      -164.1457
  23   2.0000      -6.028466      -164.0429
  24   2.0000      -1.007990       -27.4288
  25   2.0000      -0.981596       -26.7106
  26   2.0000      -0.923002       -25.1162
  27   2.0000      -0.908157       -24.7122
  28   2.0000      -0.873119       -23.7588
  29   2.0000      -0.852778       -23.2053
  30   2.0000      -0.844643       -22.9839
  31   2.0000      -0.812021       -22.0962
  32   2.0000      -0.790501       -21.5106
  33   2.0000      -0.762768       -20.7560
  34   2.0000      -0.707410       -19.2496
  35   2.0000      -0.704334       -19.1659
  36   2.0000      -0.684144       -18.6165
  37   2.0000      -0.653097       -17.7717
  38   2.0000      -0.635036       -17.2802
  39   2.0000      -0.614000       -16.7078
  40   2.0000      -0.592878       -16.1330
  41   2.0000      -0.581617       -15.8266
  42   2.0000      -0.557912       -15.1816
  43   2.0000      -0.552532       -15.0352
  44   2.0000      -0.543549       -14.7907
  45   2.0000      -0.539050       -14.6683
  46   2.0000      -0.513956       -13.9854
  47   2.0000      -0.512197       -13.9376
  48   2.0000      -0.501653       -13.6507
  49   2.0000      -0.489728       -13.3262
  50   2.0000      -0.489551       -13.3214
  51   2.0000      -0.471067       -12.8184
  52   2.0000      -0.469216       -12.7680
  53   2.0000      -0.462851       -12.5948
  54   2.0000      -0.457486       -12.4488
  55   2.0000      -0.452187       -12.3046
  56   2.0000      -0.443852       -12.0778
  57   2.0000      -0.436497       -11.8777
  58   2.0000      -0.433146       -11.7865
  59   2.0000      -0.427981       -11.6459
  60   2.0000      -0.413006       -11.2385
  61   2.0000      -0.406846       -11.0708
  62   2.0000      -0.405797       -11.0423
  63   2.0000      -0.343511        -9.3474
  64   2.0000      -0.335420        -9.1272
  65   2.0000      -0.321155        -8.7391
  66   2.0000      -0.294568        -8.0156
  67   0.0000       0.029585         0.8051
  68   0.0000       0.060950         1.6585
  69   0.0000       0.099758         2.7146
  70   0.0000       0.119892         3.2624
  71   0.0000       0.124678         3.3927

MULLIKEN ATOMIC CHARGES
-----------------------
   0 S :    0.124532
   1 C :   -0.140553
   2 C :   -0.087319
   3 C :    0.014837
   4 C :   -0.201935
   5 H :    0.038458
   6 C :    0.085954
   7 H :    0.037220
   8 H :    0.032285
   9 C :   -0.054355
  10 H :    0.022984
  11 H :    0.009065
  12 C :   -0.019231
  13 H :    0.005409
  14 H :    0.029259
  15 H :    0.045905
  16 S :    0.120264
  17 C :   -0.102466
  18 C :   -0.050859
  19 C :    0.006429
  20 C :   -0.171728
  21 H :    0.019698
  22 C :    0.059699
  23 H :    0.034517
  24 H :    0.014808
  25 C :   -0.044924
  26 H :    0.032865
  27 H :    0.017385
  28 C :   -0.075794
  29 H :    0.025828
  30 H :    0.051498
  31 H :    0.023712
  32 H :    0.048120
  33 H :    0.048433
Sum of atomic charges:   -0.0000000

LOEWDIN ATOMIC CHARGES
----------------------
   0 S :    0.384756
   1 C :   -0.182195
   2 C :   -0.062375
   3 C :   -0.056228
   4 C :   -0.195756
   5 H :    0.041065
   6 C :   -0.025577
   7 H :    0.040385
   8 H :    0.032634
   9 C :   -0.047207
  10 H :    0.021846
  11 H :    0.025558
  12 C :   -0.061855
  13 H :    0.012621
  14 H :    0.032189
  15 H :    0.031547
  16 S :    0.414649
  17 C :   -0.186685
  18 C :   -0.076220
  19 C :   -0.053875
  20 C :   -0.221467
  21 H :    0.037078
  22 C :   -0.030468
  23 H :    0.037511
  24 H :    0.022449
  25 C :   -0.036602
  26 H :    0.018507
  27 H :    0.020745
  28 C :   -0.072305
  29 H :    0.022906
  30 H :    0.030091
  31 H :    0.026667
  32 H :    0.023100
  33 H :    0.032512

  Mayer bond orders larger than 0.100000
B(  0-S ,  1-C ) :   1.1386 B(  0-S ,  4-C ) :   1.1198 B(  1-C ,  2-C ) :   1.6273
B(  1-C , 32-H ) :   0.9611 B(  2-C ,  3-C ) :   1.2255 B(  2-C ,  6-C ) :   1.0006
B(  3-C ,  4-C ) :   1.6218 B(  3-C ,  5-H ) :   0.9743 B(  4-C , 20-C ) :   1.0313
B(  6-C ,  7-H ) :   0.9392 B(  6-C ,  8-H ) :   0.9376 B(  6-C ,  9-C ) :   1.0785
B(  9-C , 10-H ) :   0.9530 B(  9-C , 11-H ) :   0.9505 B(  9-C , 12-C ) :   1.0957
B( 12-C , 13-H ) :   0.9751 B( 12-C , 14-H ) :   0.9683 B( 12-C , 15-H ) :   0.9663
B( 16-S , 17-C ) :   1.1416 B( 16-S , 20-C ) :   1.1534 B( 17-C , 18-C ) :   1.6626
B( 17-C , 20-C ) :   0.1010 B( 17-C , 33-H ) :   0.9589 B( 18-C , 19-C ) :   1.2084
B( 18-C , 21-H ) :   0.9928 B( 19-C , 20-C ) :   1.5857 B( 19-C , 22-C ) :   1.0532
B( 22-C , 23-H ) :   0.9204 B( 22-C , 24-H ) :   0.9493 B( 22-C , 25-C ) :   1.0731
B( 25-C , 26-H ) :   0.9548 B( 25-C , 27-H ) :   0.9546 B( 25-C , 28-C ) :   1.0760
B( 28-C , 29-H ) :   0.9740 B( 28-C , 30-H ) :   0.9756 B( 28-C , 31-H ) :   0.9750

Dispersion correction           -0.015776946
FINAL SINGLE POINT ENERGY     -1339.848177355196

DIPOLE MOMENT
-------------
                                X             Y             Z
Electronic contribution:    -10.71172       9.53469     -21.55832
Nuclear contribution   :     10.86234      -9.81154      22.12206
                        -----------------------------------------
Total Dipole Moment    :      0.15062      -0.27685       0.56374
                        -----------------------------------------
Magnitude (a.u.)       :      0.64586
Magnitude (Debye)      :      1.64166

Rotational constants in cm-1:     0.020716     0.009162     0.007807
Rotational constants in MHz :   621.045647   274.657761   234.057597

                             ****ORCA TERMINATED NORMALLY****
TOTAL RUN TIME: 0 days 0 hours 0 minutes 32 seconds 374 msec
