                         Program Version 4.2.1 -  RELEASE  -
|  1> ! wB97X-D3 SP def2-SVP
|  2> %pal
|  3> nprocs 16
|  4> end
|  5>
|  6> * xyz 0 1
|  7> S 	 44.4526 	 12.1438 	 105.706
|  8> C 	 45.985 	 12.2521 	 106.475
|  9> C 	 46.8779 	 11.3194 	 105.965
| 10> C 	 46.4387 	 10.7439 	 104.759
| 11> C 	 45.1137 	 10.9704 	 104.528
| 12> H 	 46.9779 	 10.0285 	 104.13
| 13> C 	 48.2546 	 10.9425 	 106.495
| 14> H 	 48.6937 	 11.79 	 107.059
| 15> H 	 48.9236 	 10.8858 	 105.678
| 16> C 	 48.435 	 9.68044 	 107.266
| 17> H 	 47.6473 	 8.98677 	 106.927
| 18> H 	 49.4698 	 9.31393 	 107.101
| 19> C 	 48.1468 	 9.97651 	 108.724
| 20> H 	 47.1561 	 10.4799 	 108.712
| 21> H 	 48.0162 	 9.06252 	 109.272
| 22> H 	 48.9016 	 10.6559 	 109.163
| 23> S 	 43.3398 	 9.39517 	 103.223
| 24> C 	 43.2035 	 9.3901 	 101.506
| 25> C 	 44.044 	 10.3576 	 100.982
| 26> C 	 44.6496 	 11.1923 	 101.985
| 27> C 	 44.4503 	 10.6947 	 103.283
| 28> H 	 44.0769 	 10.4209 	 99.8792
| 29> C 	 45.6721 	 12.2582 	 101.654
| 30> H 	 46.6469 	 11.8864 	 101.43
| 31> H 	 45.9346 	 12.7888 	 102.583
| 32> C 	 45.1066 	 13.3659 	 100.646
| 33> H 	 44.7631 	 12.9089 	 99.6938
| 34> H 	 45.9593 	 13.9652 	 100.32
| 35> C 	 44.0037 	 14.2878 	 101.244
| 36> H 	 44.0282 	 15.2695 	 100.77
| 37> H 	 44.2097 	 14.3659 	 102.275
| 38> H 	 43.0353 	 13.8624 	 101.082
| 39> H 	 46.2302 	 12.7736 	 107.409
| 40> H 	 42.6772 	 8.63787 	 100.94
| 41> *
| 42>
| 43>                          ****END OF INPUT****

CARTESIAN COORDINATES (ANGSTROEM)
---------------------------------
  S     44.452600   12.143800  105.706000
  C     45.985000   12.252100  106.475000
  C     46.877900   11.319400  105.965000
  C     46.438700   10.743900  104.759000
  C     45.113700   10.970400  104.528000
  H     46.977900   10.028500  104.130000
  C     48.254600   10.942500  106.495000
  H     48.693700   11.790000  107.059000
  H     48.923600   10.885800  105.678000
  C     48.435000    9.680440  107.266000
  H     47.647300    8.986770  106.927000
  H     49.469800    9.313930  107.101000
  C     48.146800    9.976510  108.724000
  H     47.156100   10.479900  108.712000
  H     48.016200    9.062520  109.272000
  H     48.901600   10.655900  109.163000
  S     43.339800    9.395170  103.223000
  C     43.203500    9.390100  101.506000
  C     44.044000   10.357600  100.982000
  C     44.649600   11.192300  101.985000
  C     44.450300   10.694700  103.283000
  H     44.076900   10.420900   99.879200
  C     45.672100   12.258200  101.654000
  H     46.646900   11.886400  101.430000
  H     45.934600   12.788800  102.583000
  C     45.106600   13.365900  100.646000
  H     44.763100   12.908900   99.693800
  H     45.959300   13.965200  100.320000
  C     44.003700   14.287800  101.244000
  H     44.028200   15.269500  100.770000
  H     44.209700   14.365900  102.275000
  H     43.035300   13.862400  101.082000
  H     46.230200   12.773600  107.409000
  H     42.677200    8.637870  100.940000

 Total Charge           Charge          ....    0
 Multiplicity           Mult            ....    1
 Number of Electrons    NEL             ....  134
 Basis Dimension        Dim             ....  322

ORBITAL ENERGIES
----------------

  NO   OCC          E(Eh)            E(eV)
   0   2.0000     -88.970027     -2420.9975
   1   2.0000     -88.960334     -2420.7338
   2   2.0000     -10.327301      -281.0202
   3   2.0000     -10.320839      -280.8443
   4   2.0000     -10.318595      -280.7832
   5   2.0000     -10.314047      -280.6595
   6   2.0000     -10.304642      -280.4036
   7   2.0000     -10.301142      -280.3083
   8   2.0000     -10.296006      -280.1686
   9   2.0000     -10.295490      -280.1545
  10   2.0000     -10.289052      -279.9794
  11   2.0000     -10.288340      -279.9600
  12   2.0000     -10.284898      -279.8663
  13   2.0000     -10.284410      -279.8530
  14   2.0000     -10.275915      -279.6219
  15   2.0000     -10.267656      -279.3971
  16   2.0000      -8.084611      -219.9934
  17   2.0000      -8.076477      -219.7721
  18   2.0000      -6.043059      -164.4400
  19   2.0000      -6.039154      -164.3337
  20   2.0000      -6.035406      -164.2317
  21   2.0000      -6.034764      -164.2143
  22   2.0000      -6.030513      -164.0986
  23   2.0000      -6.027669      -164.0212
  24   2.0000      -1.012171       -27.5426
  25   2.0000      -0.989749       -26.9324
  26   2.0000      -0.920865       -25.0580
  27   2.0000      -0.897047       -24.4099
  28   2.0000      -0.874809       -23.8048
  29   2.0000      -0.854459       -23.2510
  30   2.0000      -0.841996       -22.9119
  31   2.0000      -0.814334       -22.1592
  32   2.0000      -0.781752       -21.2726
  33   2.0000      -0.770870       -20.9764
  34   2.0000      -0.707204       -19.2440
  35   2.0000      -0.696771       -18.9601
  36   2.0000      -0.690678       -18.7943
  37   2.0000      -0.649956       -17.6862
  38   2.0000      -0.645281       -17.5590
  39   2.0000      -0.624737       -17.0000
  40   2.0000      -0.599408       -16.3107
  41   2.0000      -0.579678       -15.7738
  42   2.0000      -0.554784       -15.0964
  43   2.0000      -0.547851       -14.9078
  44   2.0000      -0.539634       -14.6842
  45   2.0000      -0.530626       -14.4391
  46   2.0000      -0.521393       -14.1878
  47   2.0000      -0.512848       -13.9553
  48   2.0000      -0.506114       -13.7721
  49   2.0000      -0.492465       -13.4007
  50   2.0000      -0.487519       -13.2661
  51   2.0000      -0.482003       -13.1160
  52   2.0000      -0.469850       -12.7853
  53   2.0000      -0.463241       -12.6054
  54   2.0000      -0.457033       -12.4365
  55   2.0000      -0.446038       -12.1373
  56   2.0000      -0.438466       -11.9313
  57   2.0000      -0.435703       -11.8561
  58   2.0000      -0.434163       -11.8142
  59   2.0000      -0.422505       -11.4969
  60   2.0000      -0.417602       -11.3635
  61   2.0000      -0.417073       -11.3491
  62   2.0000      -0.408393       -11.1130
  63   2.0000      -0.343147        -9.3375
  64   2.0000      -0.331578        -9.0227
  65   2.0000      -0.321274        -8.7423
  66   2.0000      -0.307149        -8.3579
  67   0.0000       0.041285         1.1234
  68   0.0000       0.052443         1.4271
  69   0.0000       0.117298         3.1918
  70   0.0000       0.118067         3.2128
  71   0.0000       0.126438         3.4405

MULLIKEN ATOMIC CHARGES
-----------------------
   0 S :    0.122933
   1 C :   -0.108697
   2 C :   -0.105942
   3 C :    0.026592
   4 C :   -0.150731
   5 H :    0.029191
   6 C :    0.065875
   7 H :    0.010052
   8 H :    0.004266
   9 C :   -0.053311
  10 H :    0.033986
  11 H :    0.037395
  12 C :   -0.055632
  13 H :    0.026084
  14 H :    0.031290
  15 H :    0.036945
  16 S :    0.110591
  17 C :   -0.101428
  18 C :   -0.056132
  19 C :   -0.001973
  20 C :   -0.176364
  21 H :    0.035676
  22 C :    0.046599
  23 H :    0.028881
  24 H :    0.024577
  25 C :   -0.107342
  26 H :    0.028223
  27 H :    0.023591
  28 C :   -0.015923
  29 H :    0.035108
  30 H :    0.024552
  31 H :    0.036402
  32 H :    0.055519
  33 H :    0.059149
Sum of atomic charges:   -0.0000000

LOEWDIN ATOMIC CHARGES
----------------------
   0 S :    0.409454
   1 C :   -0.204775
   2 C :   -0.068835
   3 C :   -0.047692
   4 C :   -0.193688
   5 H :    0.040293
   6 C :   -0.037958
   7 H :    0.028597
   8 H :    0.024307
   9 C :   -0.042839
  10 H :    0.030195
  11 H :    0.027852
  12 C :   -0.065259
  13 H :    0.028296
  14 H :    0.020682
  15 H :    0.025356
  16 S :    0.435927
  17 C :   -0.197697
  18 C :   -0.076298
  19 C :   -0.056539
  20 C :   -0.222725
  21 H :    0.036632
  22 C :   -0.035205
  23 H :    0.027765
  24 H :    0.032105
  25 C :   -0.040090
  26 H :    0.019919
  27 H :    0.021026
  28 C :   -0.056961
  29 H :    0.029128
  30 H :    0.020157
  31 H :    0.025258
  32 H :    0.033789
  33 H :    0.029823

  Mayer bond orders larger than 0.100000
B(  0-S ,  1-C ) :   1.1558 B(  0-S ,  4-C ) :   1.1368 B(  1-C ,  2-C ) :   1.6083
B(  1-C , 32-H ) :   0.9581 B(  2-C ,  3-C ) :   1.2346 B(  2-C ,  6-C ) :   1.0331
B(  3-C ,  4-C ) :   1.5956 B(  3-C ,  5-H ) :   0.9938 B(  4-C , 20-C ) :   1.0057
B(  6-C ,  7-H ) :   0.9370 B(  6-C ,  8-H ) :   0.9317 B(  6-C ,  9-C ) :   1.0626
B(  9-C , 10-H ) :   0.9524 B(  9-C , 11-H ) :   0.9530 B(  9-C , 12-C ) :   1.0851
B( 12-C , 13-H ) :   0.9739 B( 12-C , 14-H ) :   0.9733 B( 12-C , 15-H ) :   0.9749
B( 16-S , 17-C ) :   1.1772 B( 16-S , 20-C ) :   1.1711 B( 17-C , 18-C ) :   1.5894
B( 17-C , 20-C ) :   0.1001 B( 17-C , 33-H ) :   0.9705 B( 18-C , 19-C ) :   1.2456
B( 18-C , 21-H ) :   0.9868 B( 19-C , 20-C ) :   1.5551 B( 19-C , 22-C ) :   1.0471
B( 22-C , 23-H ) :   0.9443 B( 22-C , 24-H ) :   0.9328 B( 22-C , 25-C ) :   1.0624
B( 25-C , 26-H ) :   0.9628 B( 25-C , 27-H ) :   0.9607 B( 25-C , 28-C ) :   1.0614
B( 28-C , 29-H ) :   0.9771 B( 28-C , 30-H ) :   0.9779 B( 28-C , 31-H ) :   0.9764

Dispersion correction           -0.014877890
FINAL SINGLE POINT ENERGY     -1339.875533393414

DIPOLE MOMENT
-------------
                                X             Y             Z
Electronic contribution:    -16.13654      -7.03609      -0.66696
Nuclear contribution   :     16.76301       7.01290       0.47534
                        -----------------------------------------
Total Dipole Moment    :      0.62647      -0.02318      -0.19162
                        -----------------------------------------
Magnitude (a.u.)       :      0.65553
Magnitude (Debye)      :      1.66623

Rotational constants in cm-1:     0.022154     0.007778     0.006953
Rotational constants in MHz :   664.172758   233.185258   208.451514

                             ****ORCA TERMINATED NORMALLY****
TOTAL RUN TIME: 0 days 0 hours 0 minutes 31 seconds 128 msec
