                         Program Version 4.2.1 -  RELEASE  -
|  1> ! wB97X-D3 SP def2-SVP
|  2> %pal
|  3> nprocs 16
|  4> end
|  5>
|  6> * xyz 0 1
|  7> S 	 3.64486 	 -1.47593 	 81.1513
|  8> C 	 4.48057 	 -0.967021 	 82.5655
|  9> C 	 5.35193 	 -1.89051 	 83.0489
| 10> C 	 5.33976 	 -3.12777 	 82.2997
| 11> C 	 4.44487 	 -3.02979 	 81.1771
| 12> H 	 5.90612 	 -3.97511 	 82.4709
| 13> C 	 6.26274 	 -1.76286 	 84.2612
| 14> H 	 7.24666 	 -1.48795 	 83.9136
| 15> H 	 6.38601 	 -2.77889 	 84.6588
| 16> C 	 5.7558 	 -0.814992 	 85.3454
| 17> H 	 6.44505 	 -0.858904 	 86.1695
| 18> H 	 5.81192 	 0.184126 	 84.9226
| 19> C 	 4.2984 	 -1.11797 	 85.8798
| 20> H 	 4.20666 	 -2.19101 	 86.2634
| 21> H 	 4.0337 	 -0.510632 	 86.6947
| 22> H 	 3.44796 	 -0.904908 	 85.1906
| 23> S 	 5.01058 	 -3.8156 	 78.685
| 24> C 	 4.71445 	 -5.46182 	 78.1227
| 25> C 	 3.75049 	 -6.04455 	 78.8901
| 26> C 	 3.56602 	 -5.26721 	 80.1577
| 27> C 	 4.24204 	 -4.01245 	 80.1477
| 28> H 	 3.12001 	 -6.94768 	 78.6121
| 29> C 	 2.68108 	 -5.73296 	 81.2555
| 30> H 	 1.68891 	 -5.79126 	 80.8857
| 31> H 	 2.61964 	 -4.97428 	 82.012
| 32> C 	 3.19829 	 -7.04664 	 81.7954
| 33> H 	 4.10356 	 -6.90872 	 82.2885
| 34> H 	 3.37254 	 -7.84868 	 81.0528
| 35> C 	 2.18249 	 -7.67805 	 82.8215
| 36> H 	 2.7628 	 -8.52241 	 83.3738
| 37> H 	 1.24547 	 -7.93653 	 82.3445
| 38> H 	 1.98268 	 -7.03046 	 83.6459
| 39> H 	 4.34047 	 0.0264651 	 82.9657
| 40> H 	 5.12346 	 -5.97949 	 77.2906
| 41> *
| 42>
| 43>                          ****END OF INPUT****

CARTESIAN COORDINATES (ANGSTROEM)
---------------------------------
  S      3.644860   -1.475930   81.151300
  C      4.480570   -0.967021   82.565500
  C      5.351930   -1.890510   83.048900
  C      5.339760   -3.127770   82.299700
  C      4.444870   -3.029790   81.177100
  H      5.906120   -3.975110   82.470900
  C      6.262740   -1.762860   84.261200
  H      7.246660   -1.487950   83.913600
  H      6.386010   -2.778890   84.658800
  C      5.755800   -0.814992   85.345400
  H      6.445050   -0.858904   86.169500
  H      5.811920    0.184126   84.922600
  C      4.298400   -1.117970   85.879800
  H      4.206660   -2.191010   86.263400
  H      4.033700   -0.510632   86.694700
  H      3.447960   -0.904908   85.190600
  S      5.010580   -3.815600   78.685000
  C      4.714450   -5.461820   78.122700
  C      3.750490   -6.044550   78.890100
  C      3.566020   -5.267210   80.157700
  C      4.242040   -4.012450   80.147700
  H      3.120010   -6.947680   78.612100
  C      2.681080   -5.732960   81.255500
  H      1.688910   -5.791260   80.885700
  H      2.619640   -4.974280   82.012000
  C      3.198290   -7.046640   81.795400
  H      4.103560   -6.908720   82.288500
  H      3.372540   -7.848680   81.052800
  C      2.182490   -7.678050   82.821500
  H      2.762800   -8.522410   83.373800
  H      1.245470   -7.936530   82.344500
  H      1.982680   -7.030460   83.645900
  H      4.340470    0.026465   82.965700
  H      5.123460   -5.979490   77.290600

 Total Charge           Charge          ....    0
 Multiplicity           Mult            ....    1
 Number of Electrons    NEL             ....  134
 Basis Dimension        Dim             ....  322

ORBITAL ENERGIES
----------------

  NO   OCC          E(Eh)            E(eV)
   0   2.0000     -88.966730     -2420.9078
   1   2.0000     -88.959356     -2420.7072
   2   2.0000     -10.331539      -281.1355
   3   2.0000     -10.318016      -280.7675
   4   2.0000     -10.314307      -280.6666
   5   2.0000     -10.307892      -280.4920
   6   2.0000     -10.303881      -280.3829
   7   2.0000     -10.301818      -280.3267
   8   2.0000     -10.298406      -280.2339
   9   2.0000     -10.295932      -280.1666
  10   2.0000     -10.291772      -280.0534
  11   2.0000     -10.291332      -280.0414
  12   2.0000     -10.283090      -279.8171
  13   2.0000     -10.280057      -279.7346
  14   2.0000     -10.279334      -279.7149
  15   2.0000     -10.278471      -279.6914
  16   2.0000      -8.081961      -219.9213
  17   2.0000      -8.075686      -219.7506
  18   2.0000      -6.040335      -164.3659
  19   2.0000      -6.036346      -164.2573
  20   2.0000      -6.034328      -164.2024
  21   2.0000      -6.032906      -164.1637
  22   2.0000      -6.029895      -164.0818
  23   2.0000      -6.026252      -163.9827
  24   2.0000      -1.007908       -27.4266
  25   2.0000      -0.984391       -26.7866
  26   2.0000      -0.911228       -24.7958
  27   2.0000      -0.909641       -24.7526
  28   2.0000      -0.870760       -23.6946
  29   2.0000      -0.846565       -23.0362
  30   2.0000      -0.838378       -22.8134
  31   2.0000      -0.812163       -22.1001
  32   2.0000      -0.784637       -21.3510
  33   2.0000      -0.763357       -20.7720
  34   2.0000      -0.708267       -19.2729
  35   2.0000      -0.704105       -19.1597
  36   2.0000      -0.698624       -19.0105
  37   2.0000      -0.656707       -17.8699
  38   2.0000      -0.645493       -17.5647
  39   2.0000      -0.605432       -16.4746
  40   2.0000      -0.591160       -16.0863
  41   2.0000      -0.577269       -15.7083
  42   2.0000      -0.564692       -15.3660
  43   2.0000      -0.557151       -15.1608
  44   2.0000      -0.535352       -14.5677
  45   2.0000      -0.529524       -14.4091
  46   2.0000      -0.514953       -14.0126
  47   2.0000      -0.512970       -13.9586
  48   2.0000      -0.504455       -13.7269
  49   2.0000      -0.494084       -13.4447
  50   2.0000      -0.491025       -13.3615
  51   2.0000      -0.478800       -13.0288
  52   2.0000      -0.468570       -12.7504
  53   2.0000      -0.464501       -12.6397
  54   2.0000      -0.453323       -12.3355
  55   2.0000      -0.448783       -12.2120
  56   2.0000      -0.444421       -12.0933
  57   2.0000      -0.439540       -11.9605
  58   2.0000      -0.434476       -11.8227
  59   2.0000      -0.424019       -11.5381
  60   2.0000      -0.421295       -11.4640
  61   2.0000      -0.420100       -11.4315
  62   2.0000      -0.406953       -11.0738
  63   2.0000      -0.338848        -9.2205
  64   2.0000      -0.329208        -8.9582
  65   2.0000      -0.312573        -8.5056
  66   2.0000      -0.298534        -8.1235
  67   0.0000       0.047067         1.2808
  68   0.0000       0.056081         1.5260
  69   0.0000       0.103995         2.8298
  70   0.0000       0.124573         3.3898
  71   0.0000       0.128437         3.4949

MULLIKEN ATOMIC CHARGES
-----------------------
   0 S :    0.124769
   1 C :   -0.137590
   2 C :   -0.085383
   3 C :    0.073256
   4 C :   -0.193827
   5 H :   -0.012878
   6 C :    0.093915
   7 H :    0.038536
   8 H :    0.018876
   9 C :   -0.067235
  10 H :    0.029732
  11 H :    0.028896
  12 C :   -0.069105
  13 H :    0.040352
  14 H :    0.020542
  15 H :    0.040713
  16 S :    0.115525
  17 C :   -0.087460
  18 C :   -0.037202
  19 C :   -0.089219
  20 C :   -0.144740
  21 H :    0.054161
  22 C :    0.121435
  23 H :    0.016699
  24 H :    0.016254
  25 C :   -0.089607
  26 H :    0.012102
  27 H :    0.035348
  28 C :   -0.054838
  29 H :    0.037651
  30 H :    0.037924
  31 H :    0.018708
  32 H :    0.045638
  33 H :    0.048050
Sum of atomic charges:   -0.0000000

LOEWDIN ATOMIC CHARGES
----------------------
   0 S :    0.424342
   1 C :   -0.209447
   2 C :   -0.063033
   3 C :   -0.040636
   4 C :   -0.200133
   5 H :    0.018923
   6 C :   -0.029094
   7 H :    0.034004
   8 H :    0.029249
   9 C :   -0.037998
  10 H :    0.025499
  11 H :    0.022683
  12 C :   -0.073369
  13 H :    0.034055
  14 H :    0.017112
  15 H :    0.029786
  16 S :    0.435510
  17 C :   -0.182096
  18 C :   -0.074977
  19 C :   -0.047156
  20 C :   -0.248091
  21 H :    0.044961
  22 C :   -0.033544
  23 H :    0.028519
  24 H :    0.030100
  25 C :   -0.033185
  26 H :    0.015604
  27 H :    0.026067
  28 C :   -0.069750
  29 H :    0.036088
  30 H :    0.021936
  31 H :    0.016196
  32 H :    0.024914
  33 H :    0.026961

  Mayer bond orders larger than 0.100000
B(  0-S ,  1-C ) :   1.1400 B(  0-S ,  4-C ) :   1.1732 B(  1-C ,  2-C ) :   1.6226
B(  1-C , 32-H ) :   0.9636 B(  2-C ,  3-C ) :   1.2450 B(  2-C ,  6-C ) :   1.0029
B(  3-C ,  4-C ) :   1.5514 B(  3-C ,  5-H ) :   1.0075 B(  4-C , 20-C ) :   1.0211
B(  6-C ,  7-H ) :   0.9316 B(  6-C ,  8-H ) :   0.9417 B(  6-C ,  9-C ) :   1.0866
B(  9-C , 10-H ) :   0.9551 B(  9-C , 11-H ) :   0.9497 B(  9-C , 12-C ) :   1.0731
B( 12-C , 13-H ) :   0.9760 B( 12-C , 14-H ) :   0.9752 B( 12-C , 15-H ) :   0.9730
B( 16-S , 17-C ) :   1.1543 B( 16-S , 20-C ) :   1.1508 B( 17-C , 18-C ) :   1.6162
B( 17-C , 33-H ) :   0.9728 B( 18-C , 19-C ) :   1.2233 B( 18-C , 21-H ) :   0.9739
B( 19-C , 20-C ) :   1.5809 B( 19-C , 22-C ) :   1.0672 B( 22-C , 23-H ) :   0.9305
B( 22-C , 24-H ) :   0.9254 B( 22-C , 25-C ) :   1.0527 B( 25-C , 26-H ) :   0.9538
B( 25-C , 27-H ) :   0.9626 B( 25-C , 28-C ) :   1.0813 B( 28-C , 29-H ) :   0.9749
B( 28-C , 30-H ) :   0.9772 B( 28-C , 31-H ) :   0.9736

Dispersion correction           -0.014294572
FINAL SINGLE POINT ENERGY     -1339.862648796005

DIPOLE MOMENT
-------------
                                X             Y             Z
Electronic contribution:      3.34015       9.44027     -25.10856
Nuclear contribution   :     -3.27229      -9.68574      25.60429
                        -----------------------------------------
Total Dipole Moment    :      0.06786      -0.24546       0.49572
                        -----------------------------------------
Magnitude (a.u.)       :      0.55731
Magnitude (Debye)      :      1.41657

Rotational constants in cm-1:     0.019186     0.008347     0.006563
Rotational constants in MHz :   575.181295   250.231350   196.767595

                             ****ORCA TERMINATED NORMALLY****
TOTAL RUN TIME: 0 days 0 hours 0 minutes 34 seconds 623 msec
