                         Program Version 4.2.1 -  RELEASE  -
|  1> ! wB97X-D3 SP def2-SVP
|  2> %pal
|  3> nprocs 16
|  4> end
|  5>
|  6> * xyz 0 1
|  7> S 	 3.07427 	 -5.06869 	 90.1394
|  8> C 	 3.65365 	 -3.45387 	 90.3197
|  9> C 	 2.68764 	 -2.55703 	 90.6126
| 10> C 	 1.41145 	 -3.18124 	 90.4233
| 11> C 	 1.4146 	 -4.56772 	 90.2158
| 12> H 	 0.525696 	 -2.64826 	 90.3369
| 13> C 	 2.91605 	 -1.14183 	 91.1221
| 14> H 	 2.67579 	 -0.438993 	 90.2841
| 15> H 	 3.90755 	 -0.998569 	 91.5381
| 16> C 	 2.07938 	 -0.70601 	 92.3761
| 17> H 	 2.30466 	 0.269122 	 92.696
| 18> H 	 1.03647 	 -0.645089 	 92.1219
| 19> C 	 2.30889 	 -1.57279 	 93.5331
| 20> H 	 3.40223 	 -1.64532 	 93.6894
| 21> H 	 1.82065 	 -1.13254 	 94.4294
| 22> H 	 1.82261 	 -2.51045 	 93.5155
| 23> S 	 0.716999 	 -6.74193 	 88.7666
| 24> C 	 -0.80105 	 -7.52787 	 89.0069
| 25> C 	 -1.60521 	 -6.72303 	 89.76
| 26> C 	 -0.922111 	 -5.60695 	 90.4209
| 27> C 	 0.399782 	 -5.53214 	 89.9628
| 28> H 	 -2.65475 	 -7.08438 	 89.9174
| 29> C 	 -1.71119 	 -4.63289 	 91.2962
| 30> H 	 -1.10088 	 -4.43523 	 92.1135
| 31> H 	 -2.55685 	 -5.15943 	 91.7345
| 32> C 	 -2.31422 	 -3.40462 	 90.6692
| 33> H 	 -2.86996 	 -3.82933 	 89.822
| 34> H 	 -1.51527 	 -2.93061 	 90.1368
| 35> C 	 -3.11762 	 -2.36945 	 91.4337
| 36> H 	 -3.83733 	 -2.80911 	 92.1185
| 37> H 	 -3.70475 	 -1.78615 	 90.7108
| 38> H 	 -2.44059 	 -1.88498 	 92.1154
| 39> H 	 4.70731 	 -3.22464 	 90.2794
| 40> H 	 -1.10829 	 -8.39355 	 88.439
| 41> *
| 42>
| 43>                          ****END OF INPUT****

CARTESIAN COORDINATES (ANGSTROEM)
---------------------------------
  S      3.074270   -5.068690   90.139400
  C      3.653650   -3.453870   90.319700
  C      2.687640   -2.557030   90.612600
  C      1.411450   -3.181240   90.423300
  C      1.414600   -4.567720   90.215800
  H      0.525696   -2.648260   90.336900
  C      2.916050   -1.141830   91.122100
  H      2.675790   -0.438993   90.284100
  H      3.907550   -0.998569   91.538100
  C      2.079380   -0.706010   92.376100
  H      2.304660    0.269122   92.696000
  H      1.036470   -0.645089   92.121900
  C      2.308890   -1.572790   93.533100
  H      3.402230   -1.645320   93.689400
  H      1.820650   -1.132540   94.429400
  H      1.822610   -2.510450   93.515500
  S      0.716999   -6.741930   88.766600
  C     -0.801050   -7.527870   89.006900
  C     -1.605210   -6.723030   89.760000
  C     -0.922111   -5.606950   90.420900
  C      0.399782   -5.532140   89.962800
  H     -2.654750   -7.084380   89.917400
  C     -1.711190   -4.632890   91.296200
  H     -1.100880   -4.435230   92.113500
  H     -2.556850   -5.159430   91.734500
  C     -2.314220   -3.404620   90.669200
  H     -2.869960   -3.829330   89.822000
  H     -1.515270   -2.930610   90.136800
  C     -3.117620   -2.369450   91.433700
  H     -3.837330   -2.809110   92.118500
  H     -3.704750   -1.786150   90.710800
  H     -2.440590   -1.884980   92.115400
  H      4.707310   -3.224640   90.279400
  H     -1.108290   -8.393550   88.439000

 Total Charge           Charge          ....    0
 Multiplicity           Mult            ....    1
 Number of Electrons    NEL             ....  134
 Basis Dimension        Dim             ....  322

ORBITAL ENERGIES
----------------

  NO   OCC          E(Eh)            E(eV)
   0   2.0000     -88.963447     -2420.8185
   1   2.0000     -88.961673     -2420.7702
   2   2.0000     -10.328137      -281.0429
   3   2.0000     -10.327632      -281.0291
   4   2.0000     -10.313747      -280.6513
   5   2.0000     -10.309989      -280.5491
   6   2.0000     -10.308228      -280.5011
   7   2.0000     -10.299749      -280.2704
   8   2.0000     -10.298939      -280.2484
   9   2.0000     -10.298042      -280.2240
  10   2.0000     -10.291869      -280.0560
  11   2.0000     -10.285592      -279.8852
  12   2.0000     -10.282768      -279.8083
  13   2.0000     -10.281025      -279.7609
  14   2.0000     -10.278403      -279.6896
  15   2.0000     -10.270335      -279.4700
  16   2.0000      -8.079269      -219.8481
  17   2.0000      -8.077509      -219.8002
  18   2.0000      -6.037750      -164.2955
  19   2.0000      -6.035969      -164.2471
  20   2.0000      -6.033620      -164.1831
  21   2.0000      -6.031839      -164.1347
  22   2.0000      -6.029954      -164.0834
  23   2.0000      -6.028261      -164.0373
  24   2.0000      -1.013810       -27.5872
  25   2.0000      -0.989047       -26.9133
  26   2.0000      -0.918053       -24.9815
  27   2.0000      -0.914699       -24.8902
  28   2.0000      -0.879311       -23.9273
  29   2.0000      -0.854319       -23.2472
  30   2.0000      -0.844860       -22.9898
  31   2.0000      -0.817396       -22.2425
  32   2.0000      -0.788937       -21.4681
  33   2.0000      -0.777812       -21.1653
  34   2.0000      -0.713119       -19.4050
  35   2.0000      -0.701949       -19.1010
  36   2.0000      -0.692762       -18.8510
  37   2.0000      -0.663140       -18.0450
  38   2.0000      -0.639969       -17.4144
  39   2.0000      -0.626866       -17.0579
  40   2.0000      -0.598535       -16.2870
  41   2.0000      -0.572486       -15.5781
  42   2.0000      -0.565777       -15.3956
  43   2.0000      -0.557221       -15.1628
  44   2.0000      -0.549056       -14.9406
  45   2.0000      -0.537218       -14.6184
  46   2.0000      -0.519539       -14.1374
  47   2.0000      -0.512615       -13.9490
  48   2.0000      -0.509732       -13.8705
  49   2.0000      -0.501701       -13.6520
  50   2.0000      -0.496276       -13.5044
  51   2.0000      -0.482444       -13.1280
  52   2.0000      -0.471177       -12.8214
  53   2.0000      -0.470190       -12.7945
  54   2.0000      -0.459975       -12.5165
  55   2.0000      -0.454061       -12.3556
  56   2.0000      -0.443275       -12.0621
  57   2.0000      -0.437833       -11.9140
  58   2.0000      -0.431022       -11.7287
  59   2.0000      -0.423641       -11.5279
  60   2.0000      -0.417953       -11.3731
  61   2.0000      -0.414033       -11.2664
  62   2.0000      -0.406940       -11.0734
  63   2.0000      -0.356276        -9.6948
  64   2.0000      -0.329564        -8.9679
  65   2.0000      -0.326733        -8.8908
  66   2.0000      -0.289353        -7.8737
  67   0.0000       0.023189         0.6310
  68   0.0000       0.086190         2.3453
  69   0.0000       0.109447         2.9782
  70   0.0000       0.113299         3.0830
  71   0.0000       0.123174         3.3517

MULLIKEN ATOMIC CHARGES
-----------------------
   0 S :    0.103305
   1 C :   -0.126785
   2 C :   -0.071789
   3 C :    0.042923
   4 C :   -0.141265
   5 H :   -0.035870
   6 C :    0.060072
   7 H :    0.050319
   8 H :    0.022080
   9 C :   -0.055207
  10 H :    0.015619
  11 H :    0.013332
  12 C :   -0.037358
  13 H :    0.029066
  14 H :    0.024816
  15 H :    0.030032
  16 S :    0.107397
  17 C :   -0.089974
  18 C :   -0.056104
  19 C :   -0.072798
  20 C :   -0.126642
  21 H :    0.037599
  22 C :    0.121286
  23 H :    0.003337
  24 H :    0.004887
  25 C :   -0.071884
  26 H :    0.011135
  27 H :    0.002120
  28 C :    0.005535
  29 H :    0.017946
  30 H :    0.050019
  31 H :    0.029053
  32 H :    0.042980
  33 H :    0.060817
Sum of atomic charges:   -0.0000000

LOEWDIN ATOMIC CHARGES
----------------------
   0 S :    0.416987
   1 C :   -0.192185
   2 C :   -0.068558
   3 C :   -0.054452
   4 C :   -0.195947
   5 H :    0.012618
   6 C :   -0.026792
   7 H :    0.039352
   8 H :    0.028432
   9 C :   -0.041330
  10 H :    0.020681
  11 H :    0.016830
  12 C :   -0.063694
  13 H :    0.027916
  14 H :    0.030698
  15 H :    0.020379
  16 S :    0.421033
  17 C :   -0.194659
  18 C :   -0.076215
  19 C :   -0.050169
  20 C :   -0.205259
  21 H :    0.038140
  22 C :   -0.029924
  23 H :    0.019029
  24 H :    0.029613
  25 C :   -0.048751
  26 H :    0.025606
  27 H :    0.014771
  28 C :   -0.058791
  29 H :    0.023615
  30 H :    0.038032
  31 H :    0.026176
  32 H :    0.025573
  33 H :    0.031248

  Mayer bond orders larger than 0.100000
B(  0-S ,  1-C ) :   1.1515 B(  0-S ,  4-C ) :   1.1499 B(  1-C ,  2-C ) :   1.6211
B(  1-C , 32-H ) :   0.9658 B(  2-C ,  3-C ) :   1.2388 B(  2-C ,  6-C ) :   1.0174
B(  3-C ,  4-C ) :   1.5534 B(  3-C ,  5-H ) :   1.0048 B(  4-C , 20-C ) :   1.0825
B(  6-C ,  7-H ) :   0.9343 B(  6-C ,  8-H ) :   0.9519 B(  6-C ,  9-C ) :   1.0745
B(  9-C , 10-H ) :   0.9554 B(  9-C , 11-H ) :   0.9458 B(  9-C , 12-C ) :   1.0931
B( 12-C , 13-H ) :   0.9723 B( 12-C , 14-H ) :   0.9679 B( 12-C , 15-H ) :   0.9701
B( 16-S , 17-C ) :   1.1444 B( 16-S , 20-C ) :   1.1570 B( 17-C , 18-C ) :   1.6192
B( 17-C , 33-H ) :   0.9694 B( 18-C , 19-C ) :   1.2318 B( 18-C , 21-H ) :   0.9790
B( 19-C , 20-C ) :   1.5656 B( 19-C , 22-C ) :   1.0616 B( 22-C , 23-H ) :   0.9180
B( 22-C , 24-H ) :   0.9213 B( 22-C , 25-C ) :   1.0656 B( 25-C , 26-H ) :   0.9425
B( 25-C , 27-H ) :   0.9494 B( 25-C , 28-C ) :   1.0783 B( 28-C , 29-H ) :   0.9729
B( 28-C , 30-H ) :   0.9707 B( 28-C , 31-H ) :   0.9713

Dispersion correction           -0.014748971
FINAL SINGLE POINT ENERGY     -1339.868195134573

DIPOLE MOMENT
-------------
                                X             Y             Z
Electronic contribution:     12.64201     -23.39630     -15.79140
Nuclear contribution   :    -13.08383      23.90967      16.01668
                        -----------------------------------------
Total Dipole Moment    :     -0.44183       0.51337       0.22528
                        -----------------------------------------
Magnitude (a.u.)       :      0.71380
Magnitude (Debye)      :      1.81434

Rotational constants in cm-1:     0.017183     0.010513     0.006987
Rotational constants in MHz :   515.132480   315.179656   209.478269

                             ****ORCA TERMINATED NORMALLY****
TOTAL RUN TIME: 0 days 0 hours 0 minutes 35 seconds 201 msec
