                         Program Version 4.2.1 -  RELEASE  -
|  1> ! wB97X-D3 SP def2-SVP
|  2> %pal
|  3> nprocs 16
|  4> end
|  5>
|  6> * xyz 0 1
|  7> S 	 -31.3084 	 68.042 	 117.049
|  8> C 	 -32.5916 	 66.9356 	 117.487
|  9> C 	 -32.0235 	 65.8095 	 118.079
| 10> C 	 -30.588 	 65.8276 	 118.159
| 11> C 	 -30.0209 	 66.8795 	 117.545
| 12> H 	 -30.0368 	 64.981 	 118.52
| 13> C 	 -32.7493 	 64.5945 	 118.613
| 14> H 	 -32.2844 	 63.6903 	 118.231
| 15> H 	 -33.8081 	 64.474 	 118.196
| 16> C 	 -32.8098 	 64.447 	 120.099
| 17> H 	 -33.4 	 63.5528 	 120.402
| 18> H 	 -31.7967 	 64.3632 	 120.485
| 19> C 	 -33.6146 	 65.6572 	 120.668
| 20> H 	 -33.8098 	 65.3411 	 121.74
| 21> H 	 -33.068 	 66.5786 	 120.515
| 22> H 	 -34.5983 	 65.9353 	 120.192
| 23> S 	 -27.7384 	 68.0736 	 118.531
| 24> C 	 -26.3371 	 68.2457 	 117.558
| 25> C 	 -26.5273 	 67.5918 	 116.376
| 26> C 	 -27.8621 	 67.0292 	 116.214
| 27> C 	 -28.6708 	 67.2229 	 117.323
| 28> H 	 -25.6882 	 67.4965 	 115.631
| 29> C 	 -28.2353 	 66.4232 	 114.858
| 30> H 	 -27.3089 	 66.1001 	 114.406
| 31> H 	 -28.6162 	 67.2886 	 114.341
| 32> C 	 -29.23 	 65.2716 	 114.838
| 33> H 	 -30.1247 	 65.4663 	 115.338
| 34> H 	 -28.9192 	 64.3569 	 115.424
| 35> C 	 -29.6894 	 64.9315 	 113.457
| 36> H 	 -28.7584 	 64.8613 	 112.829
| 37> H 	 -30.3744 	 65.6532 	 112.99
| 38> H 	 -30.2702 	 63.9374 	 113.542
| 39> H 	 -33.6311 	 67.1289 	 117.347
| 40> H 	 -25.4749 	 68.7108 	 117.942
| 41> *
| 42>
| 43>                          ****END OF INPUT****

CARTESIAN COORDINATES (ANGSTROEM)
---------------------------------
  S    -31.308400   68.042000  117.049000
  C    -32.591600   66.935600  117.487000
  C    -32.023500   65.809500  118.079000
  C    -30.588000   65.827600  118.159000
  C    -30.020900   66.879500  117.545000
  H    -30.036800   64.981000  118.520000
  C    -32.749300   64.594500  118.613000
  H    -32.284400   63.690300  118.231000
  H    -33.808100   64.474000  118.196000
  C    -32.809800   64.447000  120.099000
  H    -33.400000   63.552800  120.402000
  H    -31.796700   64.363200  120.485000
  C    -33.614600   65.657200  120.668000
  H    -33.809800   65.341100  121.740000
  H    -33.068000   66.578600  120.515000
  H    -34.598300   65.935300  120.192000
  S    -27.738400   68.073600  118.531000
  C    -26.337100   68.245700  117.558000
  C    -26.527300   67.591800  116.376000
  C    -27.862100   67.029200  116.214000
  C    -28.670800   67.222900  117.323000
  H    -25.688200   67.496500  115.631000
  C    -28.235300   66.423200  114.858000
  H    -27.308900   66.100100  114.406000
  H    -28.616200   67.288600  114.341000
  C    -29.230000   65.271600  114.838000
  H    -30.124700   65.466300  115.338000
  H    -28.919200   64.356900  115.424000
  C    -29.689400   64.931500  113.457000
  H    -28.758400   64.861300  112.829000
  H    -30.374400   65.653200  112.990000
  H    -30.270200   63.937400  113.542000
  H    -33.631100   67.128900  117.347000
  H    -25.474900   68.710800  117.942000

 Total Charge           Charge          ....    0
 Multiplicity           Mult            ....    1
 Number of Electrons    NEL             ....  134
 Basis Dimension        Dim             ....  322

ORBITAL ENERGIES
----------------

  NO   OCC          E(Eh)            E(eV)
   0   2.0000     -88.962483     -2420.7922
   1   2.0000     -88.960159     -2420.7290
   2   2.0000     -10.328825      -281.0616
   3   2.0000     -10.321072      -280.8507
   4   2.0000     -10.318864      -280.7906
   5   2.0000     -10.314564      -280.6736
   6   2.0000     -10.307003      -280.4678
   7   2.0000     -10.303910      -280.3836
   8   2.0000     -10.298075      -280.2249
   9   2.0000     -10.293915      -280.1117
  10   2.0000     -10.290687      -280.0238
  11   2.0000     -10.290456      -280.0175
  12   2.0000     -10.288082      -279.9529
  13   2.0000     -10.282141      -279.7913
  14   2.0000     -10.280357      -279.7427
  15   2.0000     -10.275478      -279.6100
  16   2.0000      -8.076740      -219.7793
  17   2.0000      -8.076024      -219.7598
  18   2.0000      -6.035439      -164.2326
  19   2.0000      -6.034514      -164.2075
  20   2.0000      -6.031238      -164.1183
  21   2.0000      -6.030207      -164.0903
  22   2.0000      -6.027370      -164.0131
  23   2.0000      -6.026884      -163.9998
  24   2.0000      -1.009643       -27.4738
  25   2.0000      -0.985765       -26.8240
  26   2.0000      -0.914857       -24.8945
  27   2.0000      -0.911283       -24.7973
  28   2.0000      -0.876025       -23.8378
  29   2.0000      -0.850936       -23.1552
  30   2.0000      -0.843475       -22.9521
  31   2.0000      -0.814477       -22.1630
  32   2.0000      -0.778611       -21.1871
  33   2.0000      -0.769357       -20.9353
  34   2.0000      -0.712797       -19.3962
  35   2.0000      -0.693888       -18.8817
  36   2.0000      -0.689968       -18.7750
  37   2.0000      -0.662111       -18.0170
  38   2.0000      -0.645646       -17.5689
  39   2.0000      -0.625691       -17.0259
  40   2.0000      -0.596635       -16.2353
  41   2.0000      -0.570034       -15.5114
  42   2.0000      -0.568353       -15.4657
  43   2.0000      -0.551977       -15.0201
  44   2.0000      -0.541412       -14.7326
  45   2.0000      -0.524581       -14.2746
  46   2.0000      -0.521603       -14.1935
  47   2.0000      -0.513794       -13.9810
  48   2.0000      -0.506851       -13.7921
  49   2.0000      -0.502330       -13.6691
  50   2.0000      -0.490843       -13.3565
  51   2.0000      -0.486131       -13.2283
  52   2.0000      -0.473756       -12.8916
  53   2.0000      -0.463775       -12.6200
  54   2.0000      -0.459148       -12.4940
  55   2.0000      -0.448113       -12.1938
  56   2.0000      -0.441284       -12.0080
  57   2.0000      -0.429398       -11.6845
  58   2.0000      -0.425523       -11.5791
  59   2.0000      -0.418716       -11.3939
  60   2.0000      -0.416577       -11.3356
  61   2.0000      -0.406191       -11.0530
  62   2.0000      -0.401226       -10.9179
  63   2.0000      -0.338054        -9.1989
  64   2.0000      -0.329259        -8.9596
  65   2.0000      -0.319994        -8.7075
  66   2.0000      -0.313611        -8.5338
  67   0.0000       0.044042         1.1985
  68   0.0000       0.052832         1.4376
  69   0.0000       0.116527         3.1709
  70   0.0000       0.119607         3.2547
  71   0.0000       0.128833         3.5057

MULLIKEN ATOMIC CHARGES
-----------------------
   0 S :    0.095601
   1 C :   -0.106560
   2 C :   -0.089679
   3 C :    0.061557
   4 C :   -0.181406
   5 H :    0.011302
   6 C :    0.031594
   7 H :    0.019517
   8 H :    0.026044
   9 C :   -0.060847
  10 H :    0.036617
  11 H :    0.034789
  12 C :   -0.096328
  13 H :    0.046028
  14 H :    0.047367
  15 H :    0.030267
  16 S :    0.110409
  17 C :   -0.075941
  18 C :   -0.051279
  19 C :   -0.037650
  20 C :   -0.167988
  21 H :    0.037405
  22 C :    0.101226
  23 H :    0.018429
  24 H :    0.041863
  25 C :   -0.066943
  26 H :    0.025637
  27 H :    0.029348
  28 C :   -0.077292
  29 H :    0.029256
  30 H :    0.041566
  31 H :    0.043728
  32 H :    0.044058
  33 H :    0.048308
Sum of atomic charges:    0.0000000

LOEWDIN ATOMIC CHARGES
----------------------
   0 S :    0.378522
   1 C :   -0.186371
   2 C :   -0.065429
   3 C :   -0.049677
   4 C :   -0.174406
   5 H :    0.032708
   6 C :   -0.044896
   7 H :    0.025484
   8 H :    0.033653
   9 C :   -0.041502
  10 H :    0.029546
  11 H :    0.023772
  12 C :   -0.077052
  13 H :    0.031861
  14 H :    0.023942
  15 H :    0.027847
  16 S :    0.420708
  17 C :   -0.181442
  18 C :   -0.084809
  19 C :   -0.043712
  20 C :   -0.223340
  21 H :    0.038833
  22 C :   -0.024984
  23 H :    0.028931
  24 H :    0.039697
  25 C :   -0.054216
  26 H :    0.018659
  27 H :    0.030896
  28 C :   -0.069002
  29 H :    0.023977
  30 H :    0.024966
  31 H :    0.037213
  32 H :    0.026407
  33 H :    0.023218

  Mayer bond orders larger than 0.100000
B(  0-S ,  1-C ) :   1.1321 B(  0-S ,  4-C ) :   1.1184 B(  1-C ,  2-C ) :   1.6128
B(  1-C , 32-H ) :   0.9770 B(  2-C ,  3-C ) :   1.2109 B(  2-C ,  6-C ) :   1.0242
B(  3-C ,  4-C ) :   1.6295 B(  3-C ,  5-H ) :   0.9987 B(  4-C , 20-C ) :   1.0384
B(  6-C ,  7-H ) :   0.9393 B(  6-C ,  8-H ) :   0.9454 B(  6-C ,  9-C ) :   1.0864
B(  9-C , 10-H ) :   0.9562 B(  9-C , 11-H ) :   0.9524 B(  9-C , 12-C ) :   1.0576
B( 12-C , 13-H ) :   0.9774 B( 12-C , 14-H ) :   0.9746 B( 12-C , 15-H ) :   0.9752
B( 16-S , 17-C ) :   1.1773 B( 16-S , 20-C ) :   1.1360 B( 17-C , 18-C ) :   1.5873
B( 17-C , 33-H ) :   0.9762 B( 18-C , 19-C ) :   1.2512 B( 18-C , 21-H ) :   0.9827
B( 19-C , 20-C ) :   1.5934 B( 19-C , 22-C ) :   1.0255 B( 22-C , 23-H ) :   0.9310
B( 22-C , 24-H ) :   0.9308 B( 22-C , 25-C ) :   1.0701 B( 25-C , 26-H ) :   0.9424
B( 25-C , 27-H ) :   0.9549 B( 25-C , 28-C ) :   1.0872 B( 28-C , 29-H ) :   0.9728
B( 28-C , 30-H ) :   0.9755 B( 28-C , 31-H ) :   0.9710

Dispersion correction           -0.015330085
FINAL SINGLE POINT ENERGY     -1339.875516647568

DIPOLE MOMENT
-------------
                                X             Y             Z
Electronic contribution:     11.73711      17.87343       4.12752
Nuclear contribution   :    -11.73237     -18.33695      -4.29007
                        -----------------------------------------
Total Dipole Moment    :      0.00475      -0.46352      -0.16255
                        -----------------------------------------
Magnitude (a.u.)       :      0.49122
Magnitude (Debye)      :      1.24857

Rotational constants in cm-1:     0.019402     0.009110     0.007355
Rotational constants in MHz :   581.659873   273.101115   220.508313

                             ****ORCA TERMINATED NORMALLY****
TOTAL RUN TIME: 0 days 0 hours 0 minutes 28 seconds 351 msec
