                         Program Version 4.2.1 -  RELEASE  -
|  1> ! wB97X-D3 SP def2-SVP
|  2> %pal
|  3> nprocs 16
|  4> end
|  5>
|  6> * xyz 0 1
|  7> S 	 -44.4049 	 31.8054 	 83.1411
|  8> C 	 -45.3162 	 32.7247 	 81.9929
|  9> C 	 -45.305 	 32.1269 	 80.7711
| 10> C 	 -44.2449 	 31.1625 	 80.7199
| 11> C 	 -43.6397 	 30.8609 	 81.8984
| 12> H 	 -44.0129 	 30.6099 	 79.8124
| 13> C 	 -46.1511 	 32.4806 	 79.6125
| 14> H 	 -45.5964 	 32.6312 	 78.7087
| 15> H 	 -46.6234 	 33.4755 	 79.8454
| 16> C 	 -47.316 	 31.4544 	 79.4458
| 17> H 	 -46.8752 	 30.4232 	 79.3909
| 18> H 	 -47.8678 	 31.3911 	 80.4042
| 19> C 	 -48.1967 	 31.851 	 78.2517
| 20> H 	 -48.5181 	 32.8361 	 78.416
| 21> H 	 -47.7283 	 31.759 	 77.2842
| 22> H 	 -49.0911 	 31.248 	 78.3211
| 23> S 	 -40.9068 	 30.7029 	 81.6562
| 24> C 	 -40.1106 	 29.3307 	 82.3654
| 25> C 	 -40.9981 	 28.4342 	 82.8451
| 26> C 	 -42.3848 	 28.7577 	 82.8193
| 27> C 	 -42.5108 	 30.0021 	 82.154
| 28> H 	 -40.6074 	 27.5324 	 83.2991
| 29> C 	 -43.4578 	 27.9401 	 83.3653
| 30> H 	 -44.4627 	 28.2947 	 83.0365
| 31> H 	 -43.3803 	 27.9731 	 84.3807
| 32> C 	 -43.3784 	 26.4168 	 83.0738
| 33> H 	 -43.9079 	 25.7392 	 83.7618
| 34> H 	 -42.3816 	 26.0972 	 83.4973
| 35> C 	 -43.7386 	 25.9982 	 81.6919
| 36> H 	 -43.01 	 26.5324 	 81.0198
| 37> H 	 -44.842 	 26.2754 	 81.3973
| 38> H 	 -43.62 	 24.9051 	 81.572
| 39> H 	 -45.9785 	 33.5357 	 82.1944
| 40> H 	 -39.0577 	 29.1853 	 82.4382
| 41> *
| 42>
| 43>                          ****END OF INPUT****

CARTESIAN COORDINATES (ANGSTROEM)
---------------------------------
  S    -44.404900   31.805400   83.141100
  C    -45.316200   32.724700   81.992900
  C    -45.305000   32.126900   80.771100
  C    -44.244900   31.162500   80.719900
  C    -43.639700   30.860900   81.898400
  H    -44.012900   30.609900   79.812400
  C    -46.151100   32.480600   79.612500
  H    -45.596400   32.631200   78.708700
  H    -46.623400   33.475500   79.845400
  C    -47.316000   31.454400   79.445800
  H    -46.875200   30.423200   79.390900
  H    -47.867800   31.391100   80.404200
  C    -48.196700   31.851000   78.251700
  H    -48.518100   32.836100   78.416000
  H    -47.728300   31.759000   77.284200
  H    -49.091100   31.248000   78.321100
  S    -40.906800   30.702900   81.656200
  C    -40.110600   29.330700   82.365400
  C    -40.998100   28.434200   82.845100
  C    -42.384800   28.757700   82.819300
  C    -42.510800   30.002100   82.154000
  H    -40.607400   27.532400   83.299100
  C    -43.457800   27.940100   83.365300
  H    -44.462700   28.294700   83.036500
  H    -43.380300   27.973100   84.380700
  C    -43.378400   26.416800   83.073800
  H    -43.907900   25.739200   83.761800
  H    -42.381600   26.097200   83.497300
  C    -43.738600   25.998200   81.691900
  H    -43.010000   26.532400   81.019800
  H    -44.842000   26.275400   81.397300
  H    -43.620000   24.905100   81.572000
  H    -45.978500   33.535700   82.194400
  H    -39.057700   29.185300   82.438200

 Total Charge           Charge          ....    0
 Multiplicity           Mult            ....    1
 Number of Electrons    NEL             ....  134
 Basis Dimension        Dim             ....  322

ORBITAL ENERGIES
----------------

  NO   OCC          E(Eh)            E(eV)
   0   2.0000     -88.963744     -2420.8265
   1   2.0000     -88.958960     -2420.6964
   2   2.0000     -10.329923      -281.0915
   3   2.0000     -10.320400      -280.8324
   4   2.0000     -10.311615      -280.5933
   5   2.0000     -10.306654      -280.4583
   6   2.0000     -10.306352      -280.4501
   7   2.0000     -10.292463      -280.0722
   8   2.0000     -10.292226      -280.0657
   9   2.0000     -10.290826      -280.0276
  10   2.0000     -10.290253      -280.0120
  11   2.0000     -10.287966      -279.9498
  12   2.0000     -10.287851      -279.9466
  13   2.0000     -10.287657      -279.9414
  14   2.0000     -10.287445      -279.9356
  15   2.0000     -10.274171      -279.5744
  16   2.0000      -8.077809      -219.8083
  17   2.0000      -8.074526      -219.7190
  18   2.0000      -6.036377      -164.2582
  19   2.0000      -6.032983      -164.1658
  20   2.0000      -6.032467      -164.1518
  21   2.0000      -6.029025      -164.0581
  22   2.0000      -6.028473      -164.0431
  23   2.0000      -6.025165      -163.9531
  24   2.0000      -1.007703       -27.4210
  25   2.0000      -0.985233       -26.8096
  26   2.0000      -0.916881       -24.9496
  27   2.0000      -0.912729       -24.8366
  28   2.0000      -0.871385       -23.7116
  29   2.0000      -0.851875       -23.1807
  30   2.0000      -0.846119       -23.0241
  31   2.0000      -0.814408       -22.1612
  32   2.0000      -0.787514       -21.4293
  33   2.0000      -0.772268       -21.0145
  34   2.0000      -0.709349       -19.3024
  35   2.0000      -0.699523       -19.0350
  36   2.0000      -0.695045       -18.9131
  37   2.0000      -0.655244       -17.8301
  38   2.0000      -0.638726       -17.3806
  39   2.0000      -0.617460       -16.8019
  40   2.0000      -0.601612       -16.3707
  41   2.0000      -0.572908       -15.5896
  42   2.0000      -0.567352       -15.4384
  43   2.0000      -0.555872       -15.1260
  44   2.0000      -0.539391       -14.6776
  45   2.0000      -0.525295       -14.2940
  46   2.0000      -0.518264       -14.1027
  47   2.0000      -0.516969       -14.0674
  48   2.0000      -0.500556       -13.6208
  49   2.0000      -0.498434       -13.5631
  50   2.0000      -0.495174       -13.4744
  51   2.0000      -0.478167       -13.0116
  52   2.0000      -0.471167       -12.8211
  53   2.0000      -0.463836       -12.6216
  54   2.0000      -0.458323       -12.4716
  55   2.0000      -0.451807       -12.2943
  56   2.0000      -0.448334       -12.1998
  57   2.0000      -0.438313       -11.9271
  58   2.0000      -0.436387       -11.8747
  59   2.0000      -0.427138       -11.6230
  60   2.0000      -0.418437       -11.3863
  61   2.0000      -0.414049       -11.2668
  62   2.0000      -0.395020       -10.7490
  63   2.0000      -0.332949        -9.0600
  64   2.0000      -0.331698        -9.0260
  65   2.0000      -0.322604        -8.7785
  66   2.0000      -0.300584        -8.1793
  67   0.0000       0.044752         1.2178
  68   0.0000       0.055094         1.4992
  69   0.0000       0.107622         2.9285
  70   0.0000       0.123282         3.3547
  71   0.0000       0.135488         3.6868

MULLIKEN ATOMIC CHARGES
-----------------------
   0 S :    0.113945
   1 C :   -0.104447
   2 C :   -0.095822
   3 C :    0.029581
   4 C :   -0.160049
   5 H :    0.006797
   6 C :    0.060459
   7 H :    0.027367
   8 H :    0.015854
   9 C :   -0.122601
  10 H :    0.032834
  11 H :    0.030026
  12 C :    0.019199
  13 H :    0.012557
  14 H :    0.039129
  15 H :    0.029742
  16 S :    0.111015
  17 C :   -0.065331
  18 C :   -0.049489
  19 C :    0.006709
  20 C :   -0.196264
  21 H :    0.008466
  22 C :    0.141584
  23 H :    0.033061
  24 H :    0.013326
  25 C :   -0.125392
  26 H :    0.017324
  27 H :    0.016562
  28 C :   -0.062710
  29 H :    0.046968
  30 H :    0.050633
  31 H :    0.041878
  32 H :    0.032632
  33 H :    0.044456
Sum of atomic charges:   -0.0000000

LOEWDIN ATOMIC CHARGES
----------------------
   0 S :    0.409598
   1 C :   -0.192588
   2 C :   -0.069505
   3 C :   -0.059857
   4 C :   -0.212669
   5 H :    0.029845
   6 C :   -0.033194
   7 H :    0.026151
   8 H :    0.031988
   9 C :   -0.040410
  10 H :    0.024958
  11 H :    0.027165
  12 C :   -0.057634
  13 H :    0.018893
  14 H :    0.027017
  15 H :    0.028327
  16 S :    0.387547
  17 C :   -0.180390
  18 C :   -0.076698
  19 C :   -0.045924
  20 C :   -0.177356
  21 H :    0.026507
  22 C :   -0.024544
  23 H :    0.037263
  24 H :    0.028463
  25 C :   -0.057140
  26 H :    0.024678
  27 H :    0.025708
  28 C :   -0.076050
  29 H :    0.031626
  30 H :    0.038538
  31 H :    0.028981
  32 H :    0.023390
  33 H :    0.027312

  Mayer bond orders larger than 0.100000
B(  0-S ,  1-C ) :   1.1449 B(  0-S ,  4-C ) :   1.1306 B(  1-C ,  2-C ) :   1.6215
B(  1-C , 32-H ) :   0.9655 B(  2-C ,  3-C ) :   1.2232 B(  2-C ,  6-C ) :   1.0415
B(  3-C ,  4-C ) :   1.5976 B(  3-C ,  5-H ) :   0.9976 B(  4-C , 20-C ) :   1.0331
B(  6-C ,  7-H ) :   0.9440 B(  6-C ,  8-H ) :   0.9363 B(  6-C ,  9-C ) :   1.0454
B(  9-C , 10-H ) :   0.9594 B(  9-C , 11-H ) :   0.9548 B(  9-C , 12-C ) :   1.0751
B( 12-C , 13-H ) :   0.9699 B( 12-C , 14-H ) :   0.9754 B( 12-C , 15-H ) :   0.9722
B( 16-S , 17-C ) :   1.1374 B( 16-S , 20-C ) :   1.1395 B( 17-C , 18-C ) :   1.6502
B( 17-C , 33-H ) :   0.9659 B( 18-C , 19-C ) :   1.2063 B( 18-C , 21-H ) :   0.9829
B( 19-C , 20-C ) :   1.5793 B( 19-C , 22-C ) :   1.0672 B( 22-C , 23-H ) :   0.9311
B( 22-C , 24-H ) :   0.9036 B( 22-C , 25-C ) :   1.0749 B( 25-C , 26-H ) :   0.9497
B( 25-C , 27-H ) :   0.9431 B( 25-C , 28-C ) :   1.0774 B( 28-C , 29-H ) :   0.9748
B( 28-C , 30-H ) :   0.9676 B( 28-C , 31-H ) :   0.9704

Dispersion correction           -0.014059167
FINAL SINGLE POINT ENERGY     -1339.869476731357

DIPOLE MOMENT
-------------
                                X             Y             Z
Electronic contribution:     18.48190      13.02821      10.95577
Nuclear contribution   :    -18.81073     -13.42372     -11.08516
                        -----------------------------------------
Total Dipole Moment    :     -0.32883      -0.39551      -0.12939
                        -----------------------------------------
Magnitude (a.u.)       :      0.53038
Magnitude (Debye)      :      1.34812

Rotational constants in cm-1:     0.019399     0.007829     0.006684
Rotational constants in MHz :   581.563938   234.721814   200.375525

                             ****ORCA TERMINATED NORMALLY****
TOTAL RUN TIME: 0 days 0 hours 0 minutes 29 seconds 358 msec
