                         Program Version 4.2.1 -  RELEASE  -
|  1> ! wB97X-D3 SP def2-SVP
|  2> %pal
|  3> nprocs 16
|  4> end
|  5>
|  6> * xyz 0 1
|  7> S 	 46.6922 	 18.1292 	 103.071
|  8> C 	 47.4943 	 18.4491 	 101.494
|  9> C 	 47.3869 	 17.3982 	 100.688
| 10> C 	 46.7639 	 16.3345 	 101.397
| 11> C 	 46.4125 	 16.474 	 102.666
| 12> H 	 46.5012 	 15.3757 	 100.892
| 13> C 	 47.673 	 17.3315 	 99.1421
| 14> H 	 47.5442 	 16.3457 	 98.8112
| 15> H 	 48.6588 	 17.6034 	 98.8513
| 16> C 	 46.6747 	 18.1946 	 98.3563
| 17> H 	 45.6353 	 17.9635 	 98.6748
| 18> H 	 46.906 	 19.2028 	 98.7048
| 19> C 	 46.7919 	 18.0592 	 96.8627
| 20> H 	 46.1078 	 18.876 	 96.4318
| 21> H 	 47.791 	 18.1 	 96.4463
| 22> H 	 46.3755 	 17.093 	 96.5093
| 23> S 	 44.3468 	 15.8155 	 104.456
| 24> C 	 44.4326 	 14.4326 	 105.483
| 25> C 	 45.6735 	 13.7835 	 105.211
| 26> C 	 46.4777 	 14.3869 	 104.212
| 27> C 	 45.8912 	 15.5335 	 103.676
| 28> H 	 45.8319 	 12.8655 	 105.716
| 29> C 	 47.7541 	 13.7415 	 103.746
| 30> H 	 48.1786 	 13.3222 	 104.599
| 31> H 	 48.3485 	 14.5813 	 103.591
| 32> C 	 47.7331 	 12.6797 	 102.571
| 33> H 	 48.6466 	 12.5232 	 102.106
| 34> H 	 47.042 	 13.0471 	 101.81
| 35> C 	 47.0988 	 11.3543 	 103.187
| 36> H 	 46.8735 	 10.677 	 102.422
| 37> H 	 46.294 	 11.6066 	 103.821
| 38> H 	 47.7877 	 10.9085 	 103.895
| 39> H 	 47.6346 	 19.4591 	 101.085
| 40> H 	 43.7083 	 14.0501 	 106.161
| 41> *
| 42>
| 43>                          ****END OF INPUT****

CARTESIAN COORDINATES (ANGSTROEM)
---------------------------------
  S     46.692200   18.129200  103.071000
  C     47.494300   18.449100  101.494000
  C     47.386900   17.398200  100.688000
  C     46.763900   16.334500  101.397000
  C     46.412500   16.474000  102.666000
  H     46.501200   15.375700  100.892000
  C     47.673000   17.331500   99.142100
  H     47.544200   16.345700   98.811200
  H     48.658800   17.603400   98.851300
  C     46.674700   18.194600   98.356300
  H     45.635300   17.963500   98.674800
  H     46.906000   19.202800   98.704800
  C     46.791900   18.059200   96.862700
  H     46.107800   18.876000   96.431800
  H     47.791000   18.100000   96.446300
  H     46.375500   17.093000   96.509300
  S     44.346800   15.815500  104.456000
  C     44.432600   14.432600  105.483000
  C     45.673500   13.783500  105.211000
  C     46.477700   14.386900  104.212000
  C     45.891200   15.533500  103.676000
  H     45.831900   12.865500  105.716000
  C     47.754100   13.741500  103.746000
  H     48.178600   13.322200  104.599000
  H     48.348500   14.581300  103.591000
  C     47.733100   12.679700  102.571000
  H     48.646600   12.523200  102.106000
  H     47.042000   13.047100  101.810000
  C     47.098800   11.354300  103.187000
  H     46.873500   10.677000  102.422000
  H     46.294000   11.606600  103.821000
  H     47.787700   10.908500  103.895000
  H     47.634600   19.459100  101.085000
  H     43.708300   14.050100  106.161000

 Total Charge           Charge          ....    0
 Multiplicity           Mult            ....    1
 Number of Electrons    NEL             ....  134
 Basis Dimension        Dim             ....  322

ORBITAL ENERGIES
----------------

  NO   OCC          E(Eh)            E(eV)
   0   2.0000     -88.969719     -2420.9891
   1   2.0000     -88.958368     -2420.6803
   2   2.0000     -10.330807      -281.1155
   3   2.0000     -10.325791      -280.9790
   4   2.0000     -10.321384      -280.8591
   5   2.0000     -10.313048      -280.6323
   6   2.0000     -10.304138      -280.3898
   7   2.0000     -10.300117      -280.2804
   8   2.0000     -10.293701      -280.1058
   9   2.0000     -10.291749      -280.0527
  10   2.0000     -10.289643      -279.9954
  11   2.0000     -10.289228      -279.9841
  12   2.0000     -10.289015      -279.9783
  13   2.0000     -10.287220      -279.9295
  14   2.0000     -10.279603      -279.7222
  15   2.0000     -10.270491      -279.4743
  16   2.0000      -8.084320      -219.9855
  17   2.0000      -8.073531      -219.6919
  18   2.0000      -6.042712      -164.4305
  19   2.0000      -6.038545      -164.3172
  20   2.0000      -6.035509      -164.2345
  21   2.0000      -6.032171      -164.1437
  22   2.0000      -6.028100      -164.0329
  23   2.0000      -6.023952      -163.9201
  24   2.0000      -1.012285       -27.5457
  25   2.0000      -0.989846       -26.9351
  26   2.0000      -0.915911       -24.9232
  27   2.0000      -0.906483       -24.6667
  28   2.0000      -0.873392       -23.7662
  29   2.0000      -0.848620       -23.0921
  30   2.0000      -0.839242       -22.8369
  31   2.0000      -0.817673       -22.2500
  32   2.0000      -0.787430       -21.4270
  33   2.0000      -0.778724       -21.1902
  34   2.0000      -0.716773       -19.5044
  35   2.0000      -0.702689       -19.1211
  36   2.0000      -0.696841       -18.9620
  37   2.0000      -0.664508       -18.0822
  38   2.0000      -0.645024       -17.5520
  39   2.0000      -0.618990       -16.8436
  40   2.0000      -0.590369       -16.0648
  41   2.0000      -0.573916       -15.6170
  42   2.0000      -0.567611       -15.4455
  43   2.0000      -0.556589       -15.1456
  44   2.0000      -0.546707       -14.8767
  45   2.0000      -0.528538       -14.3823
  46   2.0000      -0.523315       -14.2401
  47   2.0000      -0.520325       -14.1588
  48   2.0000      -0.503695       -13.7062
  49   2.0000      -0.496195       -13.5022
  50   2.0000      -0.490429       -13.3452
  51   2.0000      -0.475966       -12.9517
  52   2.0000      -0.472824       -12.8662
  53   2.0000      -0.468584       -12.7508
  54   2.0000      -0.465381       -12.6637
  55   2.0000      -0.447838       -12.1863
  56   2.0000      -0.444779       -12.1030
  57   2.0000      -0.436028       -11.8649
  58   2.0000      -0.433254       -11.7894
  59   2.0000      -0.424638       -11.5550
  60   2.0000      -0.419569       -11.4171
  61   2.0000      -0.417354       -11.3568
  62   2.0000      -0.412390       -11.2217
  63   2.0000      -0.343117        -9.3367
  64   2.0000      -0.333382        -9.0718
  65   2.0000      -0.328087        -8.9277
  66   2.0000      -0.305617        -8.3163
  67   0.0000       0.033418         0.9093
  68   0.0000       0.064662         1.7595
  69   0.0000       0.112834         3.0704
  70   0.0000       0.126900         3.4531
  71   0.0000       0.136722         3.7204

MULLIKEN ATOMIC CHARGES
-----------------------
   0 S :    0.083020
   1 C :   -0.137659
   2 C :   -0.071605
   3 C :   -0.005681
   4 C :   -0.132919
   5 H :    0.013997
   6 C :    0.121885
   7 H :   -0.004423
   8 H :    0.020953
   9 C :   -0.100072
  10 H :    0.039866
  11 H :    0.021217
  12 C :   -0.055370
  13 H :    0.050395
  14 H :    0.033439
  15 H :    0.033345
  16 S :    0.123582
  17 C :   -0.093016
  18 C :   -0.048672
  19 C :   -0.045921
  20 C :   -0.167786
  21 H :    0.011578
  22 C :    0.120376
  23 H :   -0.005079
  24 H :    0.011714
  25 C :   -0.014742
  26 H :    0.024327
  27 H :    0.026102
  28 C :   -0.030958
  29 H :    0.029561
  30 H :    0.017170
  31 H :    0.018227
  32 H :    0.058370
  33 H :    0.054780
Sum of atomic charges:   -0.0000000

LOEWDIN ATOMIC CHARGES
----------------------
   0 S :    0.383894
   1 C :   -0.177822
   2 C :   -0.063915
   3 C :   -0.072144
   4 C :   -0.198540
   5 H :    0.031624
   6 C :   -0.015348
   7 H :    0.017808
   8 H :    0.025660
   9 C :   -0.043558
  10 H :    0.030726
  11 H :    0.018851
  12 C :   -0.071901
  13 H :    0.040650
  14 H :    0.022596
  15 H :    0.027392
  16 S :    0.430483
  17 C :   -0.193058
  18 C :   -0.072933
  19 C :   -0.049764
  20 C :   -0.205760
  21 H :    0.022250
  22 C :   -0.025128
  23 H :    0.021882
  24 H :    0.025828
  25 C :   -0.014985
  26 H :    0.014964
  27 H :    0.022339
  28 C :   -0.054571
  29 H :    0.017745
  30 H :    0.019614
  31 H :    0.023489
  32 H :    0.032437
  33 H :    0.029195

  Mayer bond orders larger than 0.100000
B(  0-S ,  1-C ) :   1.1255 B(  0-S ,  4-C ) :   1.1278 B(  1-C ,  2-C ) :   1.6631
B(  1-C , 32-H ) :   0.9579 B(  2-C ,  3-C ) :   1.2302 B(  2-C ,  6-C ) :   1.0054
B(  3-C ,  4-C ) :   1.6394 B(  3-C ,  5-H ) :   0.9893 B(  4-C , 20-C ) :   1.0011
B(  6-C ,  7-H ) :   0.9407 B(  6-C ,  8-H ) :   0.9418 B(  6-C ,  9-C ) :   1.0607
B(  9-C , 10-H ) :   0.9553 B(  9-C , 11-H ) :   0.9578 B(  9-C , 12-C ) :   1.0865
B( 12-C , 13-H ) :   0.9714 B( 12-C , 14-H ) :   0.9732 B( 12-C , 15-H ) :   0.9727
B( 16-S , 17-C ) :   1.1852 B( 16-S , 20-C ) :   1.1631 B( 17-C , 18-C ) :   1.5519
B( 17-C , 20-C ) :   0.1137 B( 17-C , 33-H ) :   0.9740 B( 18-C , 19-C ) :   1.2803
B( 18-C , 21-H ) :   0.9894 B( 19-C , 20-C ) :   1.5516 B( 19-C , 22-C ) :   1.0428
B( 22-C , 23-H ) :   0.9281 B( 22-C , 24-H ) :   0.9151 B( 22-C , 25-C ) :   1.0512
B( 25-C , 26-H ) :   0.9613 B( 25-C , 27-H ) :   0.9593 B( 25-C , 28-C ) :   1.0644
B( 28-C , 29-H ) :   0.9749 B( 28-C , 30-H ) :   0.9769 B( 28-C , 31-H ) :   0.9763

Dispersion correction           -0.014246333
FINAL SINGLE POINT ENERGY     -1339.857650648565

DIPOLE MOMENT
-------------
                                X             Y             Z
Electronic contribution:     -9.24267      11.61182      21.20416
Nuclear contribution   :      9.36874     -12.06036     -21.72777
                        -----------------------------------------
Total Dipole Moment    :      0.12607      -0.44855      -0.52361
                        -----------------------------------------
Magnitude (a.u.)       :      0.70089
Magnitude (Debye)      :      1.78153

Rotational constants in cm-1:     0.020391     0.007707     0.006348
Rotational constants in MHz :   611.318186   231.062829   190.309566

                             ****ORCA TERMINATED NORMALLY****
TOTAL RUN TIME: 0 days 0 hours 0 minutes 29 seconds 731 msec
