                         Program Version 4.2.1 -  RELEASE  -
|  1> ! wB97X-D3 SP def2-SVP
|  2> %pal
|  3> nprocs 16
|  4> end
|  5>
|  6> * xyz 0 1
|  7> S 	 -46.0988 	 47.4697 	 105.468
|  8> C 	 -45.3505 	 46.6182 	 106.826
|  9> C 	 -44.7523 	 45.4264 	 106.391
| 10> C 	 -44.5205 	 45.4509 	 105.009
| 11> C 	 -45.1135 	 46.4701 	 104.377
| 12> H 	 -43.9668 	 44.6308 	 104.486
| 13> C 	 -44.2003 	 44.3547 	 107.313
| 14> H 	 -44.2373 	 43.3987 	 106.816
| 15> H 	 -44.8157 	 44.2656 	 108.163
| 16> C 	 -42.7678 	 44.5019 	 107.907
| 17> H 	 -42.8408 	 45.2983 	 108.598
| 18> H 	 -42.4918 	 43.7039 	 108.582
| 19> C 	 -41.7069 	 44.6826 	 106.814
| 20> H 	 -40.7631 	 44.8389 	 107.282
| 21> H 	 -41.7163 	 43.8889 	 106.029
| 22> H 	 -41.8733 	 45.5987 	 106.212
| 23> S 	 -43.6345 	 46.9142 	 102.094
| 24> C 	 -44.4191 	 47.1826 	 100.546
| 25> C 	 -45.7 	 47.0192 	 100.724
| 26> C 	 -46.1999 	 46.7558 	 102.054
| 27> C 	 -45.1498 	 46.6429 	 102.917
| 28> H 	 -46.2961 	 47.0802 	 99.8065
| 29> C 	 -47.5762 	 46.3154 	 102.429
| 30> H 	 -48.0967 	 47.2643 	 102.635
| 31> H 	 -47.4751 	 45.8418 	 103.421
| 32> C 	 -48.2375 	 45.3481 	 101.403
| 33> H 	 -48.2638 	 45.842 	 100.421
| 34> H 	 -49.2833 	 45.0581 	 101.812
| 35> C 	 -47.3591 	 44.023 	 101.155
| 36> H 	 -46.3037 	 44.199 	 101.127
| 37> H 	 -47.6853 	 43.5115 	 100.227
| 38> H 	 -47.511 	 43.1977 	 101.929
| 39> H 	 -45.457 	 46.7446 	 107.932
| 40> H 	 -43.8702 	 47.4051 	 99.6678
| 41> *
| 42>
| 43>                          ****END OF INPUT****

CARTESIAN COORDINATES (ANGSTROEM)
---------------------------------
  S    -46.098800   47.469700  105.468000
  C    -45.350500   46.618200  106.826000
  C    -44.752300   45.426400  106.391000
  C    -44.520500   45.450900  105.009000
  C    -45.113500   46.470100  104.377000
  H    -43.966800   44.630800  104.486000
  C    -44.200300   44.354700  107.313000
  H    -44.237300   43.398700  106.816000
  H    -44.815700   44.265600  108.163000
  C    -42.767800   44.501900  107.907000
  H    -42.840800   45.298300  108.598000
  H    -42.491800   43.703900  108.582000
  C    -41.706900   44.682600  106.814000
  H    -40.763100   44.838900  107.282000
  H    -41.716300   43.888900  106.029000
  H    -41.873300   45.598700  106.212000
  S    -43.634500   46.914200  102.094000
  C    -44.419100   47.182600  100.546000
  C    -45.700000   47.019200  100.724000
  C    -46.199900   46.755800  102.054000
  C    -45.149800   46.642900  102.917000
  H    -46.296100   47.080200   99.806500
  C    -47.576200   46.315400  102.429000
  H    -48.096700   47.264300  102.635000
  H    -47.475100   45.841800  103.421000
  C    -48.237500   45.348100  101.403000
  H    -48.263800   45.842000  100.421000
  H    -49.283300   45.058100  101.812000
  C    -47.359100   44.023000  101.155000
  H    -46.303700   44.199000  101.127000
  H    -47.685300   43.511500  100.227000
  H    -47.511000   43.197700  101.929000
  H    -45.457000   46.744600  107.932000
  H    -43.870200   47.405100   99.667800

 Total Charge           Charge          ....    0
 Multiplicity           Mult            ....    1
 Number of Electrons    NEL             ....  134
 Basis Dimension        Dim             ....  322

ORBITAL ENERGIES
----------------

  NO   OCC          E(Eh)            E(eV)
   0   2.0000     -88.973149     -2421.0825
   1   2.0000     -88.954679     -2420.5799
   2   2.0000     -10.328209      -281.0449
   3   2.0000     -10.321472      -280.8615
   4   2.0000     -10.321055      -280.8502
   5   2.0000     -10.307449      -280.4799
   6   2.0000     -10.303697      -280.3779
   7   2.0000     -10.300788      -280.2987
   8   2.0000     -10.296000      -280.1684
   9   2.0000     -10.293064      -280.0885
  10   2.0000     -10.291282      -280.0400
  11   2.0000     -10.287285      -279.9313
  12   2.0000     -10.287269      -279.9308
  13   2.0000     -10.284209      -279.8476
  14   2.0000     -10.282960      -279.8136
  15   2.0000     -10.277033      -279.6523
  16   2.0000      -8.086612      -220.0479
  17   2.0000      -8.070200      -219.6013
  18   2.0000      -6.045302      -164.5010
  19   2.0000      -6.041518      -164.3981
  20   2.0000      -6.037024      -164.2758
  21   2.0000      -6.028802      -164.0520
  22   2.0000      -6.024622      -163.9383
  23   2.0000      -6.020788      -163.8340
  24   2.0000      -1.011477       -27.5237
  25   2.0000      -0.989687       -26.9307
  26   2.0000      -0.910937       -24.7879
  27   2.0000      -0.902020       -24.5452
  28   2.0000      -0.872281       -23.7360
  29   2.0000      -0.849943       -23.1281
  30   2.0000      -0.833671       -22.6853
  31   2.0000      -0.820083       -22.3156
  32   2.0000      -0.782904       -21.3039
  33   2.0000      -0.771792       -21.0015
  34   2.0000      -0.708410       -19.2768
  35   2.0000      -0.704210       -19.1625
  36   2.0000      -0.698446       -19.0057
  37   2.0000      -0.654076       -17.7983
  38   2.0000      -0.629571       -17.1315
  39   2.0000      -0.618827       -16.8391
  40   2.0000      -0.600017       -16.3273
  41   2.0000      -0.571395       -15.5484
  42   2.0000      -0.552268       -15.0280
  43   2.0000      -0.547795       -14.9062
  44   2.0000      -0.543834       -14.7985
  45   2.0000      -0.532798       -14.4982
  46   2.0000      -0.522440       -14.2163
  47   2.0000      -0.508449       -13.8356
  48   2.0000      -0.500160       -13.6100
  49   2.0000      -0.494662       -13.4604
  50   2.0000      -0.485800       -13.2193
  51   2.0000      -0.471759       -12.8372
  52   2.0000      -0.468661       -12.7529
  53   2.0000      -0.466496       -12.6940
  54   2.0000      -0.458848       -12.4859
  55   2.0000      -0.445621       -12.1260
  56   2.0000      -0.444534       -12.0964
  57   2.0000      -0.437741       -11.9115
  58   2.0000      -0.431842       -11.7510
  59   2.0000      -0.428526       -11.6608
  60   2.0000      -0.416757       -11.3405
  61   2.0000      -0.413249       -11.2451
  62   2.0000      -0.407296       -11.0831
  63   2.0000      -0.352260        -9.5855
  64   2.0000      -0.335569        -9.1313
  65   2.0000      -0.322404        -8.7731
  66   2.0000      -0.296423        -8.0661
  67   0.0000       0.034082         0.9274
  68   0.0000       0.068003         1.8504
  69   0.0000       0.097993         2.6665
  70   0.0000       0.124885         3.3983
  71   0.0000       0.133971         3.6455

MULLIKEN ATOMIC CHARGES
-----------------------
   0 S :    0.123894
   1 C :   -0.119090
   2 C :   -0.103282
   3 C :    0.003456
   4 C :   -0.123303
   5 H :    0.033231
   6 C :    0.072590
   7 H :    0.020567
   8 H :    0.007919
   9 C :   -0.036171
  10 H :    0.005643
  11 H :    0.024381
  12 C :   -0.061678
  13 H :    0.030472
  14 H :    0.033805
  15 H :    0.043194
  16 S :    0.077645
  17 C :   -0.077897
  18 C :   -0.036807
  19 C :   -0.064803
  20 C :   -0.171970
  21 H :    0.017080
  22 C :    0.083289
  23 H :    0.040732
  24 H :    0.035464
  25 C :   -0.095482
  26 H :    0.044529
  27 H :    0.056929
  28 C :   -0.093025
  29 H :    0.051603
  30 H :    0.036964
  31 H :    0.036183
  32 H :    0.059006
  33 H :    0.044933
Sum of atomic charges:   -0.0000000

LOEWDIN ATOMIC CHARGES
----------------------
   0 S :    0.395386
   1 C :   -0.194777
   2 C :   -0.062063
   3 C :   -0.064090
   4 C :   -0.182558
   5 H :    0.042962
   6 C :   -0.029168
   7 H :    0.028096
   8 H :    0.023598
   9 C :   -0.033812
  10 H :    0.016000
  11 H :    0.024514
  12 C :   -0.069935
  13 H :    0.022620
  14 H :    0.027325
  15 H :    0.031459
  16 S :    0.384969
  17 C :   -0.171046
  18 C :   -0.078207
  19 C :   -0.072451
  20 C :   -0.191150
  21 H :    0.032375
  22 C :   -0.041554
  23 H :    0.035902
  24 H :    0.030545
  25 C :   -0.038940
  26 H :    0.024082
  27 H :    0.038954
  28 C :   -0.076187
  29 H :    0.023062
  30 H :    0.027832
  31 H :    0.030385
  32 H :    0.038408
  33 H :    0.027466

  Mayer bond orders larger than 0.100000
B(  0-S ,  1-C ) :   1.1322 B(  0-S ,  4-C ) :   1.1207 B(  1-C ,  2-C ) :   1.6147
B(  1-C , 32-H ) :   0.9604 B(  2-C ,  3-C ) :   1.2328 B(  2-C ,  6-C ) :   1.0397
B(  3-C ,  4-C ) :   1.5934 B(  3-C ,  5-H ) :   0.9869 B(  4-C , 20-C ) :   1.0126
B(  6-C ,  7-H ) :   0.9411 B(  6-C ,  8-H ) :   0.9336 B(  6-C ,  9-C ) :   1.0743
B(  9-C , 10-H ) :   0.9521 B(  9-C , 11-H ) :   0.9533 B(  9-C , 12-C ) :   1.0789
B( 12-C , 13-H ) :   0.9729 B( 12-C , 14-H ) :   0.9758 B( 12-C , 15-H ) :   0.9704
B( 16-S , 17-C ) :   1.1197 B( 16-S , 20-C ) :   1.1452 B( 17-C , 18-C ) :   1.6572
B( 17-C , 33-H ) :   0.9768 B( 18-C , 19-C ) :   1.1862 B( 18-C , 21-H ) :   0.9869
B( 19-C , 20-C ) :   1.6255 B( 19-C , 22-C ) :   1.0299 B( 22-C , 23-H ) :   0.9236
B( 22-C , 24-H ) :   0.9383 B( 22-C , 25-C ) :   1.0634 B( 25-C , 26-H ) :   0.9582
B( 25-C , 27-H ) :   0.9576 B( 25-C , 28-C ) :   1.0529 B( 28-C , 29-H ) :   0.9779
B( 28-C , 30-H ) :   0.9789 B( 28-C , 31-H ) :   0.9776

Dispersion correction           -0.015397056
FINAL SINGLE POINT ENERGY     -1339.865501535390

DIPOLE MOMENT
-------------
                                X             Y             Z
Electronic contribution:      0.56648      16.30393      -3.70462
Nuclear contribution   :     -0.68309     -16.74448       3.80401
                        -----------------------------------------
Total Dipole Moment    :     -0.11661      -0.44055       0.09938
                        -----------------------------------------
Magnitude (a.u.)       :      0.46643
Magnitude (Debye)      :      1.18557

Rotational constants in cm-1:     0.021507     0.008226     0.007474
Rotational constants in MHz :   644.753966   246.613552   224.073498

                             ****ORCA TERMINATED NORMALLY****
TOTAL RUN TIME: 0 days 0 hours 0 minutes 30 seconds 892 msec
