                         Program Version 4.2.1 -  RELEASE  -
|  1> ! wB97X-D3 SP def2-SVP
|  2> %pal
|  3> nprocs 16
|  4> end
|  5>
|  6> * xyz 0 1
|  7> S 	 45.6201 	 25.7461 	 80.7467
|  8> C 	 45.2998 	 26.0916 	 79.0802
|  9> C 	 44.5509 	 25.0805 	 78.4496
| 10> C 	 44.2758 	 24.0302 	 79.3847
| 11> C 	 44.6821 	 24.2219 	 80.6785
| 12> H 	 43.6773 	 23.1443 	 79.1875
| 13> C 	 44.3675 	 24.9873 	 76.9413
| 14> H 	 44.7178 	 24.0812 	 76.5619
| 15> H 	 45.0712 	 25.7493 	 76.4971
| 16> C 	 42.9553 	 25.2804 	 76.3393
| 17> H 	 42.4745 	 26.0504 	 76.9797
| 18> H 	 42.933 	 25.7396 	 75.4071
| 19> C 	 41.9839 	 24.0913 	 76.3461
| 20> H 	 40.9181 	 24.3165 	 76.238
| 21> H 	 42.4039 	 23.4174 	 75.6955
| 22> H 	 42.0095 	 23.6532 	 77.3803
| 23> S 	 45.7364 	 23.672 	 83.2136
| 24> C 	 45.2632 	 22.3168 	 84.2318
| 25> C 	 44.2557 	 21.7258 	 83.5724
| 26> C 	 43.8663 	 22.1907 	 82.2691
| 27> C 	 44.6002 	 23.3295 	 81.887
| 28> H 	 43.8819 	 20.7981 	 84.061
| 29> C 	 42.7942 	 21.4707 	 81.4367
| 30> H 	 43.3108 	 20.8492 	 80.7926
| 31> H 	 42.2805 	 22.2862 	 80.9548
| 32> C 	 41.7119 	 20.6194 	 82.1707
| 33> H 	 40.9102 	 21.2388 	 82.6834
| 34> H 	 42.1512 	 19.9651 	 82.9382
| 35> C 	 40.9206 	 19.6797 	 81.2262
| 36> H 	 40.4274 	 20.1775 	 80.4233
| 37> H 	 40.1689 	 19.1137 	 81.7552
| 38> H 	 41.5512 	 18.9739 	 80.7254
| 39> H 	 45.6699 	 26.8927 	 78.4279
| 40> H 	 45.5803 	 22.0282 	 85.1917
| 41> *
| 42>
| 43>                          ****END OF INPUT****

CARTESIAN COORDINATES (ANGSTROEM)
---------------------------------
  S     45.620100   25.746100   80.746700
  C     45.299800   26.091600   79.080200
  C     44.550900   25.080500   78.449600
  C     44.275800   24.030200   79.384700
  C     44.682100   24.221900   80.678500
  H     43.677300   23.144300   79.187500
  C     44.367500   24.987300   76.941300
  H     44.717800   24.081200   76.561900
  H     45.071200   25.749300   76.497100
  C     42.955300   25.280400   76.339300
  H     42.474500   26.050400   76.979700
  H     42.933000   25.739600   75.407100
  C     41.983900   24.091300   76.346100
  H     40.918100   24.316500   76.238000
  H     42.403900   23.417400   75.695500
  H     42.009500   23.653200   77.380300
  S     45.736400   23.672000   83.213600
  C     45.263200   22.316800   84.231800
  C     44.255700   21.725800   83.572400
  C     43.866300   22.190700   82.269100
  C     44.600200   23.329500   81.887000
  H     43.881900   20.798100   84.061000
  C     42.794200   21.470700   81.436700
  H     43.310800   20.849200   80.792600
  H     42.280500   22.286200   80.954800
  C     41.711900   20.619400   82.170700
  H     40.910200   21.238800   82.683400
  H     42.151200   19.965100   82.938200
  C     40.920600   19.679700   81.226200
  H     40.427400   20.177500   80.423300
  H     40.168900   19.113700   81.755200
  H     41.551200   18.973900   80.725400
  H     45.669900   26.892700   78.427900
  H     45.580300   22.028200   85.191700

 Total Charge           Charge          ....    0
 Multiplicity           Mult            ....    1
 Number of Electrons    NEL             ....  134
 Basis Dimension        Dim             ....  322

ORBITAL ENERGIES
----------------

  NO   OCC          E(Eh)            E(eV)
   0   2.0000     -88.970912     -2421.0216
   1   2.0000     -88.961736     -2420.7719
   2   2.0000     -10.341865      -281.4165
   3   2.0000     -10.340649      -281.3834
   4   2.0000     -10.320610      -280.8381
   5   2.0000     -10.314404      -280.6692
   6   2.0000     -10.311159      -280.5809
   7   2.0000     -10.306594      -280.4567
   8   2.0000     -10.298524      -280.2371
   9   2.0000     -10.298005      -280.2230
  10   2.0000     -10.297813      -280.2177
  11   2.0000     -10.293780      -280.1080
  12   2.0000     -10.291910      -280.0571
  13   2.0000     -10.283369      -279.8247
  14   2.0000     -10.275234      -279.6033
  15   2.0000     -10.275220      -279.6030
  16   2.0000      -8.084957      -220.0029
  17   2.0000      -8.076020      -219.7597
  18   2.0000      -6.043617      -164.4552
  19   2.0000      -6.039545      -164.3444
  20   2.0000      -6.035582      -164.2365
  21   2.0000      -6.034793      -164.2151
  22   2.0000      -6.030500      -164.0983
  23   2.0000      -6.026581      -163.9916
  24   2.0000      -1.004032       -27.3211
  25   2.0000      -0.984952       -26.8019
  26   2.0000      -0.909350       -24.7447
  27   2.0000      -0.906914       -24.6784
  28   2.0000      -0.871400       -23.7120
  29   2.0000      -0.852687       -23.2028
  30   2.0000      -0.843082       -22.9414
  31   2.0000      -0.824179       -22.4270
  32   2.0000      -0.783059       -21.3081
  33   2.0000      -0.775906       -21.1135
  34   2.0000      -0.708800       -19.2874
  35   2.0000      -0.704128       -19.1603
  36   2.0000      -0.702680       -19.1209
  37   2.0000      -0.653706       -17.7883
  38   2.0000      -0.641046       -17.4437
  39   2.0000      -0.619281       -16.8515
  40   2.0000      -0.597182       -16.2501
  41   2.0000      -0.578456       -15.7406
  42   2.0000      -0.573924       -15.6173
  43   2.0000      -0.546093       -14.8600
  44   2.0000      -0.543116       -14.7789
  45   2.0000      -0.533422       -14.5152
  46   2.0000      -0.521181       -14.1821
  47   2.0000      -0.517618       -14.0851
  48   2.0000      -0.508085       -13.8257
  49   2.0000      -0.499822       -13.6008
  50   2.0000      -0.489734       -13.3264
  51   2.0000      -0.480574       -13.0771
  52   2.0000      -0.475187       -12.9305
  53   2.0000      -0.470702       -12.8085
  54   2.0000      -0.462803       -12.5935
  55   2.0000      -0.446068       -12.1381
  56   2.0000      -0.439976       -11.9724
  57   2.0000      -0.435079       -11.8391
  58   2.0000      -0.430261       -11.7080
  59   2.0000      -0.426895       -11.6164
  60   2.0000      -0.421670       -11.4742
  61   2.0000      -0.418201       -11.3798
  62   2.0000      -0.401966       -10.9381
  63   2.0000      -0.365980        -9.9588
  64   2.0000      -0.336804        -9.1649
  65   2.0000      -0.325287        -8.8515
  66   2.0000      -0.288453        -7.8492
  67   0.0000       0.018742         0.5100
  68   0.0000       0.083186         2.2636
  69   0.0000       0.101272         2.7557
  70   0.0000       0.120067         3.2672
  71   0.0000       0.133215         3.6250

MULLIKEN ATOMIC CHARGES
-----------------------
   0 S :    0.112849
   1 C :   -0.100321
   2 C :   -0.089122
   3 C :   -0.005135
   4 C :   -0.114052
   5 H :    0.009395
   6 C :    0.054311
   7 H :    0.019451
   8 H :    0.023841
   9 C :   -0.057751
  10 H :    0.022346
  11 H :    0.018271
  12 C :   -0.040497
  13 H :    0.044016
  14 H :    0.018253
  15 H :    0.020399
  16 S :    0.062110
  17 C :   -0.048852
  18 C :   -0.063506
  19 C :   -0.068874
  20 C :   -0.120049
  21 H :    0.025479
  22 C :    0.104419
  23 H :    0.029629
  24 H :    0.040887
  25 C :   -0.110718
  26 H :    0.046372
  27 H :    0.035061
  28 C :   -0.031708
  29 H :    0.019610
  30 H :    0.031337
  31 H :    0.018232
  32 H :    0.055030
  33 H :    0.039286
Sum of atomic charges:   -0.0000000

LOEWDIN ATOMIC CHARGES
----------------------
   0 S :    0.401333
   1 C :   -0.198680
   2 C :   -0.065389
   3 C :   -0.067634
   4 C :   -0.176606
   5 H :    0.028825
   6 C :   -0.024859
   7 H :    0.021397
   8 H :    0.039301
   9 C :   -0.040484
  10 H :    0.027253
  11 H :    0.013522
  12 C :   -0.063134
  13 H :    0.030755
  14 H :    0.010825
  15 H :    0.028051
  16 S :    0.379372
  17 C :   -0.173213
  18 C :   -0.083227
  19 C :   -0.061808
  20 C :   -0.178672
  21 H :    0.033738
  22 C :   -0.024620
  23 H :    0.024588
  24 H :    0.035241
  25 C :   -0.040407
  26 H :    0.033383
  27 H :    0.022000
  28 C :   -0.062472
  29 H :    0.019609
  30 H :    0.027020
  31 H :    0.019371
  32 H :    0.036476
  33 H :    0.029145

  Mayer bond orders larger than 0.100000
B(  0-S ,  1-C ) :   1.1527 B(  0-S ,  4-C ) :   1.1281 B(  1-C ,  2-C ) :   1.6150
B(  1-C , 32-H ) :   0.9562 B(  2-C ,  3-C ) :   1.2375 B(  2-C ,  6-C ) :   1.0303
B(  3-C ,  4-C ) :   1.5996 B(  3-C ,  5-H ) :   0.9850 B(  4-C , 20-C ) :   1.0522
B(  6-C ,  7-H ) :   0.9523 B(  6-C ,  8-H ) :   0.9398 B(  6-C ,  9-C ) :   1.0465
B(  9-C , 10-H ) :   0.9571 B(  9-C , 11-H ) :   0.9610 B(  9-C , 12-C ) :   1.0738
B( 12-C , 13-H ) :   0.9730 B( 12-C , 14-H ) :   0.9788 B( 12-C , 15-H ) :   0.9756
B( 16-S , 17-C ) :   1.1301 B( 16-S , 20-C ) :   1.1374 B( 17-C , 18-C ) :   1.6390
B( 17-C , 33-H ) :   0.9714 B( 18-C , 19-C ) :   1.2453 B( 18-C , 21-H ) :   0.9762
B( 19-C , 20-C ) :   1.5901 B( 19-C , 22-C ) :   1.0164 B( 22-C , 23-H ) :   0.9332
B( 22-C , 24-H ) :   0.9320 B( 22-C , 25-C ) :   1.0703 B( 25-C , 26-H ) :   0.9587
B( 25-C , 27-H ) :   0.9513 B( 25-C , 28-C ) :   1.0834 B( 28-C , 29-H ) :   0.9756
B( 28-C , 30-H ) :   0.9745 B( 28-C , 31-H ) :   0.9746

Dispersion correction           -0.013236697
FINAL SINGLE POINT ENERGY     -1339.858225218571

DIPOLE MOMENT
-------------
                                X             Y             Z
Electronic contribution:     22.34450      14.26836      18.50756
Nuclear contribution   :    -22.74854     -14.78748     -18.93720
                        -----------------------------------------
Total Dipole Moment    :     -0.40404      -0.51912      -0.42964
                        -----------------------------------------
Magnitude (a.u.)       :      0.78570
Magnitude (Debye)      :      1.99709

Rotational constants in cm-1:     0.015695     0.009144     0.005892
Rotational constants in MHz :   470.527945   274.132609   176.626397

                             ****ORCA TERMINATED NORMALLY****
TOTAL RUN TIME: 0 days 0 hours 0 minutes 28 seconds 573 msec
