                         Program Version 4.2.1 -  RELEASE  -
|  1> ! wB97X-D3 SP def2-SVP
|  2> %pal
|  3> nprocs 16
|  4> end
|  5>
|  6> * xyz 0 1
|  7> S 	 -50.4997 	 64.3606 	 134.478
|  8> C 	 -51.5257 	 63.022 	 133.956
|  9> C 	 -51.0922 	 62.4168 	 132.8
| 10> C 	 -49.9602 	 63.1448 	 132.221
| 11> C 	 -49.5713 	 64.2706 	 132.981
| 12> H 	 -49.4704 	 62.9654 	 131.286
| 13> C 	 -51.7535 	 61.2408 	 132.161
| 14> H 	 -51.5303 	 61.3229 	 131.135
| 15> H 	 -52.847 	 61.2644 	 132.2
| 16> C 	 -51.2036 	 59.8227 	 132.634
| 17> H 	 -51.4934 	 58.9704 	 132.025
| 18> H 	 -50.1109 	 59.8235 	 132.592
| 19> C 	 -51.8093 	 59.4956 	 134.009
| 20> H 	 -51.627 	 60.4197 	 134.648
| 21> H 	 -52.8901 	 59.4674 	 133.949
| 22> H 	 -51.4447 	 58.5604 	 134.496
| 23> S 	 -48.178 	 65.4218 	 130.92
| 24> C 	 -47.0331 	 66.6178 	 131.312
| 25> C 	 -46.7006 	 66.7528 	 132.65
| 26> C 	 -47.5508 	 65.8979 	 133.45
| 27> C 	 -48.4381 	 65.1027 	 132.623
| 28> H 	 -45.9328 	 67.4097 	 133.022
| 29> C 	 -47.4876 	 65.8114 	 134.974
| 30> H 	 -48.4875 	 66.0441 	 135.417
| 31> H 	 -46.7816 	 66.5647 	 135.41
| 32> C 	 -46.9945 	 64.4828 	 135.575
| 33> H 	 -46.232 	 64.0689 	 134.985
| 34> H 	 -47.8178 	 63.8003 	 135.67
| 35> C 	 -46.451 	 64.5402 	 136.993
| 36> H 	 -46.1736 	 63.5323 	 137.339
| 37> H 	 -47.2483 	 65.0317 	 137.539
| 38> H 	 -45.5809 	 65.1457 	 136.986
| 39> H 	 -52.4218 	 62.6293 	 134.434
| 40> H 	 -46.4602 	 67.2304 	 130.566
| 41> *
| 42>
| 43>                          ****END OF INPUT****

CARTESIAN COORDINATES (ANGSTROEM)
---------------------------------
  S    -50.499700   64.360600  134.478000
  C    -51.525700   63.022000  133.956000
  C    -51.092200   62.416800  132.800000
  C    -49.960200   63.144800  132.221000
  C    -49.571300   64.270600  132.981000
  H    -49.470400   62.965400  131.286000
  C    -51.753500   61.240800  132.161000
  H    -51.530300   61.322900  131.135000
  H    -52.847000   61.264400  132.200000
  C    -51.203600   59.822700  132.634000
  H    -51.493400   58.970400  132.025000
  H    -50.110900   59.823500  132.592000
  C    -51.809300   59.495600  134.009000
  H    -51.627000   60.419700  134.648000
  H    -52.890100   59.467400  133.949000
  H    -51.444700   58.560400  134.496000
  S    -48.178000   65.421800  130.920000
  C    -47.033100   66.617800  131.312000
  C    -46.700600   66.752800  132.650000
  C    -47.550800   65.897900  133.450000
  C    -48.438100   65.102700  132.623000
  H    -45.932800   67.409700  133.022000
  C    -47.487600   65.811400  134.974000
  H    -48.487500   66.044100  135.417000
  H    -46.781600   66.564700  135.410000
  C    -46.994500   64.482800  135.575000
  H    -46.232000   64.068900  134.985000
  H    -47.817800   63.800300  135.670000
  C    -46.451000   64.540200  136.993000
  H    -46.173600   63.532300  137.339000
  H    -47.248300   65.031700  137.539000
  H    -45.580900   65.145700  136.986000
  H    -52.421800   62.629300  134.434000
  H    -46.460200   67.230400  130.566000

 Total Charge           Charge          ....    0
 Multiplicity           Mult            ....    1
 Number of Electrons    NEL             ....  134
 Basis Dimension        Dim             ....  322

ORBITAL ENERGIES
----------------

  NO   OCC          E(Eh)            E(eV)
   0   2.0000     -88.974040     -2421.1067
   1   2.0000     -88.972709     -2421.0705
   2   2.0000     -10.335478      -281.2426
   3   2.0000     -10.331790      -281.1423
   4   2.0000     -10.319544      -280.8091
   5   2.0000     -10.314612      -280.6749
   6   2.0000     -10.313830      -280.6536
   7   2.0000     -10.304648      -280.4037
   8   2.0000     -10.298522      -280.2370
   9   2.0000     -10.298351      -280.2324
  10   2.0000     -10.297950      -280.2215
  11   2.0000     -10.292802      -280.0814
  12   2.0000     -10.290648      -280.0228
  13   2.0000     -10.280754      -279.7535
  14   2.0000     -10.270781      -279.4822
  15   2.0000     -10.270117      -279.4641
  16   2.0000      -8.089161      -220.1173
  17   2.0000      -8.085931      -220.0294
  18   2.0000      -6.047503      -164.5609
  19   2.0000      -6.044655      -164.4834
  20   2.0000      -6.043739      -164.4585
  21   2.0000      -6.040717      -164.3763
  22   2.0000      -6.039965      -164.3558
  23   2.0000      -6.036501      -164.2615
  24   2.0000      -1.004507       -27.3340
  25   2.0000      -0.981385       -26.7048
  26   2.0000      -0.910959       -24.7885
  27   2.0000      -0.907875       -24.7045
  28   2.0000      -0.868832       -23.6421
  29   2.0000      -0.856118       -23.2961
  30   2.0000      -0.844405       -22.9774
  31   2.0000      -0.809712       -22.0334
  32   2.0000      -0.781616       -21.2689
  33   2.0000      -0.770018       -20.9533
  34   2.0000      -0.706501       -19.2249
  35   2.0000      -0.696685       -18.9578
  36   2.0000      -0.684588       -18.6286
  37   2.0000      -0.665131       -18.0991
  38   2.0000      -0.633405       -17.2358
  39   2.0000      -0.615411       -16.7462
  40   2.0000      -0.597911       -16.2700
  41   2.0000      -0.572832       -15.5876
  42   2.0000      -0.569454       -15.4956
  43   2.0000      -0.547827       -14.9071
  44   2.0000      -0.539541       -14.6816
  45   2.0000      -0.527462       -14.3530
  46   2.0000      -0.513655       -13.9773
  47   2.0000      -0.512103       -13.9350
  48   2.0000      -0.502987       -13.6870
  49   2.0000      -0.489304       -13.3146
  50   2.0000      -0.487334       -13.2610
  51   2.0000      -0.479422       -13.0457
  52   2.0000      -0.476465       -12.9653
  53   2.0000      -0.461841       -12.5673
  54   2.0000      -0.460270       -12.5246
  55   2.0000      -0.454150       -12.3581
  56   2.0000      -0.445818       -12.1313
  57   2.0000      -0.439505       -11.9595
  58   2.0000      -0.433696       -11.8015
  59   2.0000      -0.428165       -11.6510
  60   2.0000      -0.420098       -11.4315
  61   2.0000      -0.410002       -11.1567
  62   2.0000      -0.407934       -11.1004
  63   2.0000      -0.358852        -9.7649
  64   2.0000      -0.335107        -9.1187
  65   2.0000      -0.330117        -8.9829
  66   2.0000      -0.277878        -7.5615
  67   0.0000       0.018032         0.4907
  68   0.0000       0.076363         2.0779
  69   0.0000       0.102945         2.8013
  70   0.0000       0.113581         3.0907
  71   0.0000       0.124334         3.3833

MULLIKEN ATOMIC CHARGES
-----------------------
   0 S :    0.101078
   1 C :   -0.106165
   2 C :   -0.078892
   3 C :   -0.007159
   4 C :   -0.099342
   5 H :    0.010134
   6 C :    0.058837
   7 H :    0.009861
   8 H :    0.033333
   9 C :   -0.057019
  10 H :    0.031026
  11 H :    0.033971
  12 C :   -0.077680
  13 H :    0.029063
  14 H :    0.020266
  15 H :    0.049464
  16 S :    0.124447
  17 C :   -0.096724
  18 C :   -0.025297
  19 C :   -0.057281
  20 C :   -0.149021
  21 H :    0.018932
  22 C :    0.013506
  23 H :    0.045102
  24 H :    0.017927
  25 C :   -0.050957
  26 H :    0.018008
  27 H :    0.025177
  28 C :   -0.043498
  29 H :    0.043049
  30 H :    0.029053
  31 H :    0.017990
  32 H :    0.048691
  33 H :    0.070119
Sum of atomic charges:    0.0000000

LOEWDIN ATOMIC CHARGES
----------------------
   0 S :    0.405253
   1 C :   -0.196989
   2 C :   -0.058131
   3 C :   -0.066897
   4 C :   -0.182477
   5 H :    0.020619
   6 C :   -0.028690
   7 H :    0.025988
   8 H :    0.033121
   9 C :   -0.035510
  10 H :    0.022638
  11 H :    0.024857
  12 C :   -0.077461
  13 H :    0.028581
  14 H :    0.019332
  15 H :    0.029225
  16 S :    0.440470
  17 C :   -0.207615
  18 C :   -0.070055
  19 C :   -0.048293
  20 C :   -0.200975
  21 H :    0.033372
  22 C :   -0.045330
  23 H :    0.028906
  24 H :    0.032576
  25 C :   -0.040149
  26 H :    0.015470
  27 H :    0.015165
  28 C :   -0.056440
  29 H :    0.031977
  30 H :    0.024354
  31 H :    0.013981
  32 H :    0.030518
  33 H :    0.038608

  Mayer bond orders larger than 0.100000
B(  0-S ,  1-C ) :   1.1139 B(  0-S ,  4-C ) :   1.1316 B(  1-C ,  2-C ) :   1.6373
B(  1-C , 32-H ) :   0.9566 B(  2-C ,  3-C ) :   1.2258 B(  2-C ,  6-C ) :   1.0300
B(  3-C ,  4-C ) :   1.5524 B(  3-C ,  5-H ) :   0.9896 B(  4-C , 20-C ) :   1.0976
B(  6-C ,  7-H ) :   0.9321 B(  6-C ,  8-H ) :   0.9492 B(  6-C ,  9-C ) :   1.0574
B(  9-C , 10-H ) :   0.9596 B(  9-C , 11-H ) :   0.9583 B(  9-C , 12-C ) :   1.0661
B( 12-C , 13-H ) :   0.9728 B( 12-C , 14-H ) :   0.9741 B( 12-C , 15-H ) :   0.9733
B( 16-S , 17-C ) :   1.1757 B( 16-S , 20-C ) :   1.1482 B( 17-C , 18-C ) :   1.5914
B( 17-C , 33-H ) :   0.9542 B( 18-C , 19-C ) :   1.2712 B( 18-C , 21-H ) :   0.9922
B( 19-C , 20-C ) :   1.5194 B( 19-C , 22-C ) :   1.0511 B( 22-C , 23-H ) :   0.9266
B( 22-C , 24-H ) :   0.9396 B( 22-C , 25-C ) :   1.0588 B( 25-C , 26-H ) :   0.9578
B( 25-C , 27-H ) :   0.9488 B( 25-C , 28-C ) :   1.0937 B( 28-C , 29-H ) :   0.9734
B( 28-C , 30-H ) :   0.9764 B( 28-C , 31-H ) :   0.9751

Dispersion correction           -0.014235470
FINAL SINGLE POINT ENERGY     -1339.876377551601

DIPOLE MOMENT
-------------
                                X             Y             Z
Electronic contribution:     -0.39169      16.42341     -13.40513
Nuclear contribution   :      0.52842     -16.61188      13.34435
                        -----------------------------------------
Total Dipole Moment    :      0.13673      -0.18847      -0.06078
                        -----------------------------------------
Magnitude (a.u.)       :      0.24065
Magnitude (Debye)      :      0.61168

Rotational constants in cm-1:     0.019324     0.008552     0.006716
Rotational constants in MHz :   579.326160   256.385958   201.350915

                             ****ORCA TERMINATED NORMALLY****
TOTAL RUN TIME: 0 days 0 hours 0 minutes 35 seconds 990 msec
