                         Program Version 4.2.1 -  RELEASE  -
|  1> ! wB97X-D3 SP def2-SVP
|  2> %pal
|  3> nprocs 16
|  4> end
|  5>
|  6> * xyz 0 1
|  7> S 	 -31.9243 	 28.6703 	 41.7547
|  8> C 	 -33.3669 	 28.8553 	 42.7605
|  9> C 	 -33.0861 	 29.3966 	 43.967
| 10> C 	 -31.8441 	 30.1694 	 43.9035
| 11> C 	 -31.0525 	 29.7783 	 42.8462
| 12> H 	 -31.3244 	 30.7966 	 44.6532
| 13> C 	 -34.1659 	 29.5527 	 45.0143
| 14> H 	 -35.1125 	 29.3531 	 44.51
| 15> H 	 -34.2655 	 30.555 	 45.4338
| 16> C 	 -34.0829 	 28.5367 	 46.2192
| 17> H 	 -33.0629 	 28.6408 	 46.6083
| 18> H 	 -34.6997 	 28.6581 	 47.1126
| 19> C 	 -34.1783 	 27.0975 	 45.7207
| 20> H 	 -35.167 	 26.7764 	 45.3815
| 21> H 	 -33.6107 	 26.9378 	 44.8805
| 22> H 	 -33.7721 	 26.4761 	 46.5119
| 23> S 	 -28.4149 	 29.6482 	 43.5153
| 24> C 	 -27.2289 	 30.5172 	 42.5955
| 25> C 	 -27.8635 	 31.3418 	 41.6668
| 26> C 	 -29.2762 	 31.332 	 41.76
| 27> C 	 -29.7191 	 30.2797 	 42.5165
| 28> H 	 -27.3917 	 31.8888 	 40.8683
| 29> C 	 -30.162 	 31.8635 	 40.6752
| 30> H 	 -30.878 	 31.0819 	 40.3445
| 31> H 	 -29.557 	 31.9974 	 39.6963
| 32> C 	 -30.9896 	 33.1559 	 40.951
| 33> H 	 -31.6298 	 32.9906 	 41.7626
| 34> H 	 -31.6712 	 33.2846 	 40.1644
| 35> C 	 -30.1629 	 34.4567 	 41.0539
| 36> H 	 -29.3319 	 34.3885 	 41.8219
| 37> H 	 -30.8552 	 35.2668 	 41.4458
| 38> H 	 -29.8667 	 34.735 	 40.0202
| 39> H 	 -34.2828 	 28.3647 	 42.5759
| 40> H 	 -26.1704 	 30.4401 	 42.5902
| 41> *
| 42>
| 43>                          ****END OF INPUT****

CARTESIAN COORDINATES (ANGSTROEM)
---------------------------------
  S    -31.924300   28.670300   41.754700
  C    -33.366900   28.855300   42.760500
  C    -33.086100   29.396600   43.967000
  C    -31.844100   30.169400   43.903500
  C    -31.052500   29.778300   42.846200
  H    -31.324400   30.796600   44.653200
  C    -34.165900   29.552700   45.014300
  H    -35.112500   29.353100   44.510000
  H    -34.265500   30.555000   45.433800
  C    -34.082900   28.536700   46.219200
  H    -33.062900   28.640800   46.608300
  H    -34.699700   28.658100   47.112600
  C    -34.178300   27.097500   45.720700
  H    -35.167000   26.776400   45.381500
  H    -33.610700   26.937800   44.880500
  H    -33.772100   26.476100   46.511900
  S    -28.414900   29.648200   43.515300
  C    -27.228900   30.517200   42.595500
  C    -27.863500   31.341800   41.666800
  C    -29.276200   31.332000   41.760000
  C    -29.719100   30.279700   42.516500
  H    -27.391700   31.888800   40.868300
  C    -30.162000   31.863500   40.675200
  H    -30.878000   31.081900   40.344500
  H    -29.557000   31.997400   39.696300
  C    -30.989600   33.155900   40.951000
  H    -31.629800   32.990600   41.762600
  H    -31.671200   33.284600   40.164400
  C    -30.162900   34.456700   41.053900
  H    -29.331900   34.388500   41.821900
  H    -30.855200   35.266800   41.445800
  H    -29.866700   34.735000   40.020200
  H    -34.282800   28.364700   42.575900
  H    -26.170400   30.440100   42.590200

 Total Charge           Charge          ....    0
 Multiplicity           Mult            ....    1
 Number of Electrons    NEL             ....  134
 Basis Dimension        Dim             ....  322

ORBITAL ENERGIES
----------------

  NO   OCC          E(Eh)            E(eV)
   0   2.0000     -88.968343     -2420.9517
   1   2.0000     -88.966670     -2420.9062
   2   2.0000     -10.332480      -281.1611
   3   2.0000     -10.324384      -280.9408
   4   2.0000     -10.316283      -280.7203
   5   2.0000     -10.314781      -280.6795
   6   2.0000     -10.307147      -280.4717
   7   2.0000     -10.303972      -280.3853
   8   2.0000     -10.297486      -280.2088
   9   2.0000     -10.295925      -280.1664
  10   2.0000     -10.293725      -280.1065
  11   2.0000     -10.292688      -280.0783
  12   2.0000     -10.287930      -279.9488
  13   2.0000     -10.285533      -279.8836
  14   2.0000     -10.274117      -279.5729
  15   2.0000     -10.265214      -279.3307
  16   2.0000      -8.082240      -219.9289
  17   2.0000      -8.081464      -219.9078
  18   2.0000      -6.040819      -164.3790
  19   2.0000      -6.040012      -164.3571
  20   2.0000      -6.037037      -164.2761
  21   2.0000      -6.035814      -164.2429
  22   2.0000      -6.032785      -164.1604
  23   2.0000      -6.032332      -164.1481
  24   2.0000      -1.009106       -27.4592
  25   2.0000      -0.987234       -26.8640
  26   2.0000      -0.910127       -24.7658
  27   2.0000      -0.902118       -24.5479
  28   2.0000      -0.870961       -23.7001
  29   2.0000      -0.850506       -23.1435
  30   2.0000      -0.846023       -23.0215
  31   2.0000      -0.815984       -22.2041
  32   2.0000      -0.780598       -21.2411
  33   2.0000      -0.769318       -20.9342
  34   2.0000      -0.711778       -19.3685
  35   2.0000      -0.697526       -18.9806
  36   2.0000      -0.688793       -18.7430
  37   2.0000      -0.667585       -18.1659
  38   2.0000      -0.647025       -17.6064
  39   2.0000      -0.611749       -16.6465
  40   2.0000      -0.591388       -16.0925
  41   2.0000      -0.570053       -15.5119
  42   2.0000      -0.551698       -15.0125
  43   2.0000      -0.547834       -14.9073
  44   2.0000      -0.542624       -14.7655
  45   2.0000      -0.539701       -14.6860
  46   2.0000      -0.519009       -14.1229
  47   2.0000      -0.511138       -13.9088
  48   2.0000      -0.501649       -13.6506
  49   2.0000      -0.488751       -13.2996
  50   2.0000      -0.484157       -13.1746
  51   2.0000      -0.483964       -13.1693
  52   2.0000      -0.469705       -12.7813
  53   2.0000      -0.468205       -12.7405
  54   2.0000      -0.459701       -12.5091
  55   2.0000      -0.449128       -12.2214
  56   2.0000      -0.440030       -11.9738
  57   2.0000      -0.429877       -11.6975
  58   2.0000      -0.426068       -11.5939
  59   2.0000      -0.424025       -11.5383
  60   2.0000      -0.421843       -11.4789
  61   2.0000      -0.415495       -11.3062
  62   2.0000      -0.411029       -11.1847
  63   2.0000      -0.336318        -9.1517
  64   2.0000      -0.330572        -8.9953
  65   2.0000      -0.324530        -8.8309
  66   2.0000      -0.313632        -8.5343
  67   0.0000       0.038489         1.0473
  68   0.0000       0.048688         1.3249
  69   0.0000       0.101509         2.7622
  70   0.0000       0.113469         3.0876
  71   0.0000       0.120841         3.2883

MULLIKEN ATOMIC CHARGES
-----------------------
   0 S :    0.103569
   1 C :   -0.096882
   2 C :   -0.077175
   3 C :    0.045219
   4 C :   -0.160570
   5 H :    0.034349
   6 C :    0.050525
   7 H :    0.018116
   8 H :    0.033726
   9 C :   -0.077106
  10 H :    0.023344
  11 H :    0.037907
  12 C :   -0.032715
  13 H :    0.021301
  14 H :    0.011451
  15 H :    0.033038
  16 S :    0.114726
  17 C :   -0.063089
  18 C :   -0.047904
  19 C :    0.066140
  20 C :   -0.209722
  21 H :    0.017861
  22 C :   -0.047367
  23 H :    0.032611
  24 H :    0.028764
  25 C :   -0.002073
  26 H :    0.012217
  27 H :    0.006791
  28 C :   -0.092021
  29 H :    0.050071
  30 H :    0.039804
  31 H :    0.039952
  32 H :    0.039658
  33 H :    0.045482
Sum of atomic charges:    0.0000000

LOEWDIN ATOMIC CHARGES
----------------------
   0 S :    0.380296
   1 C :   -0.170469
   2 C :   -0.061411
   3 C :   -0.054878
   4 C :   -0.186822
   5 H :    0.040886
   6 C :   -0.029466
   7 H :    0.027213
   8 H :    0.031188
   9 C :   -0.041629
  10 H :    0.023925
  11 H :    0.025827
  12 C :   -0.063134
  13 H :    0.022139
  14 H :    0.011661
  15 H :    0.029208
  16 S :    0.414421
  17 C :   -0.189343
  18 C :   -0.063833
  19 C :   -0.063653
  20 C :   -0.193437
  21 H :    0.028946
  22 C :   -0.039060
  23 H :    0.029137
  24 H :    0.033903
  25 C :   -0.037659
  26 H :    0.016082
  27 H :    0.019037
  28 C :   -0.075011
  29 H :    0.030566
  30 H :    0.032197
  31 H :    0.027427
  32 H :    0.019482
  33 H :    0.026261

  Mayer bond orders larger than 0.100000
B(  0-S ,  1-C ) :   1.1257 B(  0-S ,  4-C ) :   1.1130 B(  1-C ,  2-C ) :   1.6565
B(  1-C , 32-H ) :   0.9654 B(  2-C ,  3-C ) :   1.1640 B(  2-C ,  6-C ) :   1.0262
B(  3-C ,  4-C ) :   1.6651 B(  3-C ,  5-H ) :   0.9790 B(  4-C , 20-C ) :   0.9979
B(  6-C ,  7-H ) :   0.9531 B(  6-C ,  8-H ) :   0.9503 B(  6-C ,  9-C ) :   1.0472
B(  9-C , 10-H ) :   0.9586 B(  9-C , 11-H ) :   0.9630 B(  9-C , 12-C ) :   1.0749
B( 12-C , 13-H ) :   0.9747 B( 12-C , 14-H ) :   0.9731 B( 12-C , 15-H ) :   0.9728
B( 16-S , 17-C ) :   1.1531 B( 16-S , 20-C ) :   1.1523 B( 17-C , 18-C ) :   1.5981
B( 17-C , 20-C ) :   0.1068 B( 17-C , 33-H ) :   0.9729 B( 18-C , 19-C ) :   1.2439
B( 18-C , 21-H ) :   0.9847 B( 19-C , 20-C ) :   1.5940 B( 19-C , 22-C ) :   1.0248
B( 22-C , 23-H ) :   0.9439 B( 22-C , 24-H ) :   0.9509 B( 22-C , 25-C ) :   1.0650
B( 25-C , 26-H ) :   0.9542 B( 25-C , 27-H ) :   0.9484 B( 25-C , 28-C ) :   1.0746
B( 28-C , 29-H ) :   0.9766 B( 28-C , 30-H ) :   0.9741 B( 28-C , 31-H ) :   0.9764

Dispersion correction           -0.014801931
FINAL SINGLE POINT ENERGY     -1339.856114953471

DIPOLE MOMENT
-------------
                                X             Y             Z
Electronic contribution:     13.55270      -9.34872      -3.91181
Nuclear contribution   :    -13.81184       9.55498       3.94954
                        -----------------------------------------
Total Dipole Moment    :     -0.25914       0.20626       0.03773
                        -----------------------------------------
Magnitude (a.u.)       :      0.33335
Magnitude (Debye)      :      0.84731

Rotational constants in cm-1:     0.021509     0.007971     0.006931
Rotational constants in MHz :   644.817074   238.966627   207.791700

                             ****ORCA TERMINATED NORMALLY****
TOTAL RUN TIME: 0 days 0 hours 0 minutes 34 seconds 348 msec
