                         Program Version 4.2.1 -  RELEASE  -
|  1> ! wB97X-D3 SP def2-SVP
|  2> %pal
|  3> nprocs 16
|  4> end
|  5>
|  6> * xyz 0 1
|  7> S 	 -80.869 	 44.8302 	 124.129
|  8> C 	 -82.1234 	 44.8665 	 122.844
|  9> C 	 -81.7916 	 44.1165 	 121.777
| 10> C 	 -80.5643 	 43.4094 	 121.951
| 11> C 	 -79.9159 	 43.6826 	 123.17
| 12> H 	 -79.9874 	 42.9063 	 121.181
| 13> C 	 -82.5584 	 44.0573 	 120.469
| 14> H 	 -82.019 	 44.7161 	 119.884
| 15> H 	 -83.4942 	 44.5321 	 120.756
| 16> C 	 -82.9641 	 42.7004 	 119.757
| 17> H 	 -83.7801 	 42.8725 	 119.023
| 18> H 	 -82.0042 	 42.2962 	 119.305
| 19> C 	 -83.5427 	 41.7208 	 120.809
| 20> H 	 -82.8723 	 41.6691 	 121.655
| 21> H 	 -84.3914 	 42.0869 	 121.331
| 22> H 	 -83.8714 	 40.7554 	 120.469
| 23> S 	 -77.5056 	 44.634 	 123.993
| 24> C 	 -76.0999 	 43.5594 	 124.227
| 25> C 	 -76.481 	 42.2743 	 123.846
| 26> C 	 -77.8515 	 42.1279 	 123.325
| 27> C 	 -78.5531 	 43.3505 	 123.478
| 28> H 	 -75.8674 	 41.4138 	 124.134
| 29> C 	 -78.349 	 40.809 	 122.944
| 30> H 	 -79.4128 	 40.9531 	 123.017
| 31> H 	 -78.127 	 40.0978 	 123.765
| 32> C 	 -78.0679 	 40.2714 	 121.547
| 33> H 	 -77.0011 	 40.3248 	 121.4
| 34> H 	 -78.3972 	 40.9015 	 120.802
| 35> C 	 -78.5447 	 38.9114 	 121.246
| 36> H 	 -79.6558 	 38.8169 	 121.25
| 37> H 	 -78.3221 	 38.2772 	 122.107
| 38> H 	 -78.0608 	 38.4652 	 120.373
| 39> H 	 -83.0647 	 45.3766 	 122.973
| 40> H 	 -75.2373 	 43.6881 	 124.833
| 41> *
| 42>
| 43>                          ****END OF INPUT****

CARTESIAN COORDINATES (ANGSTROEM)
---------------------------------
  S    -80.869000   44.830200  124.129000
  C    -82.123400   44.866500  122.844000
  C    -81.791600   44.116500  121.777000
  C    -80.564300   43.409400  121.951000
  C    -79.915900   43.682600  123.170000
  H    -79.987400   42.906300  121.181000
  C    -82.558400   44.057300  120.469000
  H    -82.019000   44.716100  119.884000
  H    -83.494200   44.532100  120.756000
  C    -82.964100   42.700400  119.757000
  H    -83.780100   42.872500  119.023000
  H    -82.004200   42.296200  119.305000
  C    -83.542700   41.720800  120.809000
  H    -82.872300   41.669100  121.655000
  H    -84.391400   42.086900  121.331000
  H    -83.871400   40.755400  120.469000
  S    -77.505600   44.634000  123.993000
  C    -76.099900   43.559400  124.227000
  C    -76.481000   42.274300  123.846000
  C    -77.851500   42.127900  123.325000
  C    -78.553100   43.350500  123.478000
  H    -75.867400   41.413800  124.134000
  C    -78.349000   40.809000  122.944000
  H    -79.412800   40.953100  123.017000
  H    -78.127000   40.097800  123.765000
  C    -78.067900   40.271400  121.547000
  H    -77.001100   40.324800  121.400000
  H    -78.397200   40.901500  120.802000
  C    -78.544700   38.911400  121.246000
  H    -79.655800   38.816900  121.250000
  H    -78.322100   38.277200  122.107000
  H    -78.060800   38.465200  120.373000
  H    -83.064700   45.376600  122.973000
  H    -75.237300   43.688100  124.833000

 Total Charge           Charge          ....    0
 Multiplicity           Mult            ....    1
 Number of Electrons    NEL             ....  134
 Basis Dimension        Dim             ....  322

ORBITAL ENERGIES
----------------

  NO   OCC          E(Eh)            E(eV)
   0   2.0000     -88.969866     -2420.9931
   1   2.0000     -88.966228     -2420.8942
   2   2.0000     -10.335689      -281.2484
   3   2.0000     -10.331061      -281.1225
   4   2.0000     -10.317399      -280.7507
   5   2.0000     -10.316954      -280.7386
   6   2.0000     -10.305953      -280.4392
   7   2.0000     -10.304643      -280.4036
   8   2.0000     -10.303124      -280.3622
   9   2.0000     -10.298929      -280.2481
  10   2.0000     -10.297697      -280.2146
  11   2.0000     -10.291239      -280.0388
  12   2.0000     -10.286519      -279.9104
  13   2.0000     -10.277412      -279.6626
  14   2.0000     -10.275153      -279.6011
  15   2.0000     -10.271675      -279.5065
  16   2.0000      -8.083555      -219.9647
  17   2.0000      -8.080433      -219.8798
  18   2.0000      -6.042176      -164.4160
  19   2.0000      -6.039243      -164.3362
  20   2.0000      -6.038246      -164.3090
  21   2.0000      -6.034897      -164.2179
  22   2.0000      -6.034208      -164.1991
  23   2.0000      -6.030995      -164.1117
  24   2.0000      -1.004748       -27.3406
  25   2.0000      -0.979488       -26.6532
  26   2.0000      -0.919543       -25.0220
  27   2.0000      -0.909743       -24.7554
  28   2.0000      -0.871578       -23.7168
  29   2.0000      -0.857814       -23.3423
  30   2.0000      -0.844528       -22.9808
  31   2.0000      -0.817083       -22.2340
  32   2.0000      -0.785509       -21.3748
  33   2.0000      -0.771863       -21.0035
  34   2.0000      -0.714889       -19.4531
  35   2.0000      -0.705628       -19.2011
  36   2.0000      -0.700544       -19.0628
  37   2.0000      -0.660675       -17.9779
  38   2.0000      -0.639701       -17.4071
  39   2.0000      -0.618929       -16.8419
  40   2.0000      -0.593825       -16.1588
  41   2.0000      -0.566924       -15.4268
  42   2.0000      -0.563911       -15.3448
  43   2.0000      -0.556911       -15.1543
  44   2.0000      -0.546897       -14.8818
  45   2.0000      -0.533463       -14.5163
  46   2.0000      -0.523200       -14.2370
  47   2.0000      -0.515783       -14.0352
  48   2.0000      -0.508584       -13.8393
  49   2.0000      -0.503238       -13.6938
  50   2.0000      -0.489949       -13.3322
  51   2.0000      -0.481933       -13.1141
  52   2.0000      -0.467487       -12.7210
  53   2.0000      -0.463026       -12.5996
  54   2.0000      -0.454146       -12.3579
  55   2.0000      -0.449331       -12.2269
  56   2.0000      -0.445910       -12.1338
  57   2.0000      -0.441743       -12.0204
  58   2.0000      -0.433675       -11.8009
  59   2.0000      -0.428423       -11.6580
  60   2.0000      -0.420712       -11.4481
  61   2.0000      -0.413170       -11.2429
  62   2.0000      -0.406505       -11.0616
  63   2.0000      -0.352825        -9.6009
  64   2.0000      -0.335178        -9.1207
  65   2.0000      -0.325638        -8.8611
  66   2.0000      -0.290720        -7.9109
  67   0.0000       0.018188         0.4949
  68   0.0000       0.073541         2.0011
  69   0.0000       0.110375         3.0035
  70   0.0000       0.113095         3.0775
  71   0.0000       0.125974         3.4279

MULLIKEN ATOMIC CHARGES
-----------------------
   0 S :    0.102063
   1 C :   -0.129517
   2 C :   -0.105692
   3 C :    0.031648
   4 C :   -0.159542
   5 H :    0.020126
   6 C :    0.089812
   7 H :    0.034178
   8 H :    0.008085
   9 C :   -0.076639
  10 H :    0.051680
  11 H :    0.047231
  12 C :   -0.037526
  13 H :    0.029612
  14 H :    0.006942
  15 H :    0.033647
  16 S :    0.100436
  17 C :   -0.081139
  18 C :   -0.048178
  19 C :   -0.055000
  20 C :   -0.133822
  21 H :    0.030342
  22 C :    0.039425
  23 H :    0.009391
  24 H :    0.032610
  25 C :   -0.002219
  26 H :    0.009464
  27 H :   -0.001866
  28 C :   -0.033785
  29 H :    0.030558
  30 H :    0.012107
  31 H :    0.043996
  32 H :    0.046723
  33 H :    0.054851
Sum of atomic charges:   -0.0000000

LOEWDIN ATOMIC CHARGES
----------------------
   0 S :    0.377759
   1 C :   -0.178159
   2 C :   -0.065421
   3 C :   -0.058974
   4 C :   -0.183912
   5 H :    0.031666
   6 C :   -0.025612
   7 H :    0.026063
   8 H :    0.029046
   9 C :   -0.035664
  10 H :    0.033532
  11 H :    0.029530
  12 C :   -0.070805
  13 H :    0.026507
  14 H :    0.021417
  15 H :    0.023411
  16 S :    0.399706
  17 C :   -0.188769
  18 C :   -0.063911
  19 C :   -0.058827
  20 C :   -0.199251
  21 H :    0.032000
  22 C :   -0.041111
  23 H :    0.028871
  24 H :    0.037676
  25 C :   -0.038723
  26 H :    0.023373
  27 H :    0.013215
  28 C :   -0.065883
  29 H :    0.029279
  30 H :    0.023697
  31 H :    0.031672
  32 H :    0.027714
  33 H :    0.028889

  Mayer bond orders larger than 0.100000
B(  0-S ,  1-C ) :   1.1116 B(  0-S ,  4-C ) :   1.1423 B(  1-C ,  2-C ) :   1.6536
B(  1-C , 32-H ) :   0.9629 B(  2-C ,  3-C ) :   1.2209 B(  2-C ,  6-C ) :   1.0008
B(  3-C ,  4-C ) :   1.5629 B(  3-C ,  5-H ) :   0.9875 B(  4-C , 20-C ) :   1.0708
B(  6-C ,  7-H ) :   0.9392 B(  6-C ,  8-H ) :   0.9373 B(  6-C ,  9-C ) :   1.0593
B(  9-C , 10-H ) :   0.9600 B(  9-C , 11-H ) :   0.9548 B(  9-C , 12-C ) :   1.0712
B( 12-C , 13-H ) :   0.9695 B( 12-C , 14-H ) :   0.9705 B( 12-C , 15-H ) :   0.9764
B( 16-S , 17-C ) :   1.1214 B( 16-S , 20-C ) :   1.1457 B( 17-C , 18-C ) :   1.6392
B( 17-C , 33-H ) :   0.9675 B( 18-C , 19-C ) :   1.2249 B( 18-C , 21-H ) :   0.9769
B( 19-C , 20-C ) :   1.5658 B( 19-C , 22-C ) :   1.0711 B( 22-C , 23-H ) :   0.9183
B( 22-C , 24-H ) :   0.9297 B( 22-C , 25-C ) :   1.0610 B( 25-C , 26-H ) :   0.9457
B( 25-C , 27-H ) :   0.9416 B( 25-C , 28-C ) :   1.0975 B( 28-C , 29-H ) :   0.9702
B( 28-C , 30-H ) :   0.9684 B( 28-C , 31-H ) :   0.9707

Dispersion correction           -0.014520316
FINAL SINGLE POINT ENERGY     -1339.859994132441

DIPOLE MOMENT
-------------
                                X             Y             Z
Electronic contribution:     10.24895      22.91991      18.11431
Nuclear contribution   :    -10.48678     -23.36611     -18.47582
                        -----------------------------------------
Total Dipole Moment    :     -0.23784      -0.44620      -0.36151
                        -----------------------------------------
Magnitude (a.u.)       :      0.62157
Magnitude (Debye)      :      1.57991

Rotational constants in cm-1:     0.016367     0.010283     0.006799
Rotational constants in MHz :   490.667561   308.267807   203.834152

                             ****ORCA TERMINATED NORMALLY****
TOTAL RUN TIME: 0 days 0 hours 0 minutes 34 seconds 725 msec
