                         Program Version 4.2.1 -  RELEASE  -
|  1> ! wB97X-D3 SP def2-SVP
|  2> %pal
|  3> nprocs 16
|  4> end
|  5>
|  6> * xyz 0 1
|  7> S 	 0.579292 	 23.4203 	 32.7504
|  8> C 	 -0.789133 	 24.458 	 32.6376
|  9> C 	 -1.847 	 23.9579 	 33.425
| 10> C 	 -1.47011 	 22.7334 	 34.1153
| 11> C 	 -0.248536 	 22.2157 	 33.7855
| 12> H 	 -2.11169 	 22.2673 	 34.86
| 13> C 	 -3.23901 	 24.603 	 33.4641
| 14> H 	 -3.78599 	 24.0792 	 32.6839
| 15> H 	 -2.9551 	 25.6515 	 33.1245
| 16> C 	 -4.04787 	 24.572 	 34.7726
| 17> H 	 -4.1573 	 23.6236 	 35.2512
| 18> H 	 -3.44285 	 25.174 	 35.4405
| 19> C 	 -5.38635 	 25.1987 	 34.5571
| 20> H 	 -5.97649 	 24.6097 	 33.9046
| 21> H 	 -5.83243 	 25.2759 	 35.5579
| 22> H 	 -5.17743 	 26.2061 	 34.1826
| 23> S 	 2.18939 	 21.1357 	 34.3593
| 24> C 	 2.31543 	 19.4405 	 34.9001
| 25> C 	 1.07586 	 18.8732 	 35.1699
| 26> C 	 0.0158851 	 19.7416 	 34.7893
| 27> C 	 0.429209 	 20.9959 	 34.2748
| 28> H 	 0.919374 	 17.8582 	 35.6272
| 29> C 	 -1.41138 	 19.2785 	 34.9282
| 30> H 	 -2.07049 	 20.0953 	 34.8524
| 31> H 	 -1.61602 	 18.9849 	 35.9636
| 32> C 	 -1.76094 	 18.2516 	 33.7978
| 33> H 	 -2.78155 	 18.009 	 34.0577
| 34> H 	 -1.19301 	 17.3514 	 33.8215
| 35> C 	 -1.87535 	 18.695 	 32.3469
| 36> H 	 -2.28464 	 18.0077 	 31.6042
| 37> H 	 -0.89423 	 18.9092 	 31.8945
| 38> H 	 -2.49908 	 19.6007 	 32.3376
| 39> H 	 -0.948441 	 25.2492 	 31.8925
| 40> H 	 3.20818 	 18.8556 	 34.9567
| 41> *
| 42>
| 43>                          ****END OF INPUT****

CARTESIAN COORDINATES (ANGSTROEM)
---------------------------------
  S      0.579292   23.420300   32.750400
  C     -0.789133   24.458000   32.637600
  C     -1.847000   23.957900   33.425000
  C     -1.470110   22.733400   34.115300
  C     -0.248536   22.215700   33.785500
  H     -2.111690   22.267300   34.860000
  C     -3.239010   24.603000   33.464100
  H     -3.785990   24.079200   32.683900
  H     -2.955100   25.651500   33.124500
  C     -4.047870   24.572000   34.772600
  H     -4.157300   23.623600   35.251200
  H     -3.442850   25.174000   35.440500
  C     -5.386350   25.198700   34.557100
  H     -5.976490   24.609700   33.904600
  H     -5.832430   25.275900   35.557900
  H     -5.177430   26.206100   34.182600
  S      2.189390   21.135700   34.359300
  C      2.315430   19.440500   34.900100
  C      1.075860   18.873200   35.169900
  C      0.015885   19.741600   34.789300
  C      0.429209   20.995900   34.274800
  H      0.919374   17.858200   35.627200
  C     -1.411380   19.278500   34.928200
  H     -2.070490   20.095300   34.852400
  H     -1.616020   18.984900   35.963600
  C     -1.760940   18.251600   33.797800
  H     -2.781550   18.009000   34.057700
  H     -1.193010   17.351400   33.821500
  C     -1.875350   18.695000   32.346900
  H     -2.284640   18.007700   31.604200
  H     -0.894230   18.909200   31.894500
  H     -2.499080   19.600700   32.337600
  H     -0.948441   25.249200   31.892500
  H      3.208180   18.855600   34.956700

 Total Charge           Charge          ....    0
 Multiplicity           Mult            ....    1
 Number of Electrons    NEL             ....  134
 Basis Dimension        Dim             ....  322

ORBITAL ENERGIES
----------------

  NO   OCC          E(Eh)            E(eV)
   0   2.0000     -88.967024     -2420.9158
   1   2.0000     -88.964617     -2420.8503
   2   2.0000     -10.335921      -281.2547
   3   2.0000     -10.334333      -281.2115
   4   2.0000     -10.319983      -280.8210
   5   2.0000     -10.315522      -280.6996
   6   2.0000     -10.305561      -280.4286
   7   2.0000     -10.305258      -280.4203
   8   2.0000     -10.299835      -280.2728
   9   2.0000     -10.298406      -280.2339
  10   2.0000     -10.295132      -280.1448
  11   2.0000     -10.292693      -280.0784
  12   2.0000     -10.284015      -279.8423
  13   2.0000     -10.283882      -279.8387
  14   2.0000     -10.276568      -279.6396
  15   2.0000     -10.274991      -279.5967
  16   2.0000      -8.080852      -219.8912
  17   2.0000      -8.079051      -219.8422
  18   2.0000      -6.039462      -164.3421
  19   2.0000      -6.037775      -164.2962
  20   2.0000      -6.035572      -164.2363
  21   2.0000      -6.033502      -164.1799
  22   2.0000      -6.031475      -164.1248
  23   2.0000      -6.029692      -164.0763
  24   2.0000      -1.000599       -27.2277
  25   2.0000      -0.978591       -26.6288
  26   2.0000      -0.916160       -24.9300
  27   2.0000      -0.907087       -24.6831
  28   2.0000      -0.870660       -23.6918
  29   2.0000      -0.850243       -23.1363
  30   2.0000      -0.844566       -22.9818
  31   2.0000      -0.817651       -22.2494
  32   2.0000      -0.781047       -21.2534
  33   2.0000      -0.766507       -20.8577
  34   2.0000      -0.710254       -19.3270
  35   2.0000      -0.697764       -18.9871
  36   2.0000      -0.691517       -18.8171
  37   2.0000      -0.658372       -17.9152
  38   2.0000      -0.637448       -17.3458
  39   2.0000      -0.620704       -16.8902
  40   2.0000      -0.599626       -16.3167
  41   2.0000      -0.579740       -15.7755
  42   2.0000      -0.564587       -15.3632
  43   2.0000      -0.551852       -15.0167
  44   2.0000      -0.538444       -14.6518
  45   2.0000      -0.528340       -14.3769
  46   2.0000      -0.518092       -14.0980
  47   2.0000      -0.505691       -13.7606
  48   2.0000      -0.504647       -13.7322
  49   2.0000      -0.498704       -13.5704
  50   2.0000      -0.491772       -13.3818
  51   2.0000      -0.473305       -12.8793
  52   2.0000      -0.469777       -12.7833
  53   2.0000      -0.467349       -12.7172
  54   2.0000      -0.461025       -12.5451
  55   2.0000      -0.449888       -12.2421
  56   2.0000      -0.448926       -12.2159
  57   2.0000      -0.438384       -11.9290
  58   2.0000      -0.431953       -11.7541
  59   2.0000      -0.427540       -11.6339
  60   2.0000      -0.423683       -11.5290
  61   2.0000      -0.410401       -11.1676
  62   2.0000      -0.399457       -10.8698
  63   2.0000      -0.358176        -9.7465
  64   2.0000      -0.333254        -9.0683
  65   2.0000      -0.322239        -8.7686
  66   2.0000      -0.281633        -7.6636
  67   0.0000       0.019463         0.5296
  68   0.0000       0.077999         2.1225
  69   0.0000       0.094646         2.5754
  70   0.0000       0.119387         3.2487
  71   0.0000       0.138927         3.7804

MULLIKEN ATOMIC CHARGES
-----------------------
   0 S :    0.096680
   1 C :   -0.116503
   2 C :   -0.122890
   3 C :   -0.004551
   4 C :   -0.098807
   5 H :    0.020675
   6 C :    0.027138
   7 H :    0.041759
   8 H :    0.034882
   9 C :   -0.084404
  10 H :    0.028199
  11 H :    0.026880
  12 C :   -0.009872
  13 H :    0.029320
  14 H :    0.035456
  15 H :    0.028588
  16 S :    0.091114
  17 C :   -0.078997
  18 C :   -0.047942
  19 C :   -0.075696
  20 C :   -0.127826
  21 H :    0.043848
  22 C :    0.109722
  23 H :   -0.023852
  24 H :    0.033396
  25 C :   -0.056282
  26 H :    0.019375
  27 H :    0.024495
  28 C :   -0.059823
  29 H :    0.036817
  30 H :    0.037019
  31 H :    0.028372
  32 H :    0.061887
  33 H :    0.051821
Sum of atomic charges:    0.0000000

LOEWDIN ATOMIC CHARGES
----------------------
   0 S :    0.394879
   1 C :   -0.218776
   2 C :   -0.062647
   3 C :   -0.074045
   4 C :   -0.177578
   5 H :    0.027520
   6 C :   -0.036014
   7 H :    0.030942
   8 H :    0.039025
   9 C :   -0.042971
  10 H :    0.018277
  11 H :    0.025833
  12 C :   -0.053719
  13 H :    0.019293
  14 H :    0.030839
  15 H :    0.028145
  16 S :    0.386631
  17 C :   -0.170875
  18 C :   -0.073187
  19 C :   -0.058317
  20 C :   -0.188752
  21 H :    0.044637
  22 C :   -0.027360
  23 H :    0.018152
  24 H :    0.038013
  25 C :   -0.034332
  26 H :    0.023285
  27 H :    0.017133
  28 C :   -0.068572
  29 H :    0.029556
  30 H :    0.026750
  31 H :    0.026360
  32 H :    0.036332
  33 H :    0.025544

  Mayer bond orders larger than 0.100000
B(  0-S ,  1-C ) :   1.1382 B(  0-S ,  4-C ) :   1.1382 B(  1-C ,  2-C ) :   1.6128
B(  1-C , 32-H ) :   0.9608 B(  2-C ,  3-C ) :   1.2439 B(  2-C ,  6-C ) :   1.0050
B(  3-C ,  4-C ) :   1.5818 B(  3-C ,  5-H ) :   0.9851 B(  4-C , 20-C ) :   1.0598
B(  6-C ,  7-H ) :   0.9378 B(  6-C ,  8-H ) :   0.9448 B(  6-C ,  9-C ) :   1.0661
B(  9-C , 10-H ) :   0.9508 B(  9-C , 11-H ) :   0.9550 B(  9-C , 12-C ) :   1.0949
B( 12-C , 13-H ) :   0.9761 B( 12-C , 14-H ) :   0.9711 B( 12-C , 15-H ) :   0.9717
B( 16-S , 17-C ) :   1.1477 B( 16-S , 20-C ) :   1.1296 B( 17-C , 18-C ) :   1.6036
B( 17-C , 20-C ) :   0.1030 B( 17-C , 33-H ) :   0.9692 B( 18-C , 19-C ) :   1.2546
B( 18-C , 21-H ) :   0.9789 B( 19-C , 20-C ) :   1.5781 B( 19-C , 22-C ) :   1.0494
B( 22-C , 23-H ) :   0.9249 B( 22-C , 24-H ) :   0.9340 B( 22-C , 25-C ) :   1.0593
B( 25-C , 26-H ) :   0.9538 B( 25-C , 27-H ) :   0.9623 B( 25-C , 28-C ) :   1.0780
B( 28-C , 29-H ) :   0.9740 B( 28-C , 30-H ) :   0.9731 B( 28-C , 31-H ) :   0.9733

Dispersion correction           -0.014089872
FINAL SINGLE POINT ENERGY     -1339.868395592460

DIPOLE MOMENT
-------------
                                X             Y             Z
Electronic contribution:     28.51457       2.31036      -0.99805
Nuclear contribution   :    -29.27304      -2.57946       1.17710
                        -----------------------------------------
Total Dipole Moment    :     -0.75847      -0.26911       0.17905
                        -----------------------------------------
Magnitude (a.u.)       :      0.82447
Magnitude (Debye)      :      2.09563

Rotational constants in cm-1:     0.019234     0.008343     0.006683
Rotational constants in MHz :   576.622902   250.126628   200.341664

                             ****ORCA TERMINATED NORMALLY****
TOTAL RUN TIME: 0 days 0 hours 0 minutes 34 seconds 255 msec
