                         Program Version 4.2.1 -  RELEASE  -
|  1> ! wB97X-D3 SP def2-SVP
|  2> %pal
|  3> nprocs 16
|  4> end
|  5>
|  6> * xyz 0 1
|  7> S 	 -1.00216 	 -9.34914 	 53.0501
|  8> C 	 -1.50078 	 -9.77604 	 51.406
|  9> C 	 -1.10707 	 -11.0761 	 51.0897
| 10> C 	 -0.427123 	 -11.8 	 52.1547
| 11> C 	 -0.377224 	 -11.0233 	 53.3409
| 12> H 	 -0.207487 	 -12.8308 	 52.2426
| 13> C 	 -1.62042 	 -11.7682 	 49.8036
| 14> H 	 -0.821279 	 -12.2849 	 49.289
| 15> H 	 -2.11138 	 -11.0328 	 49.2316
| 16> C 	 -2.63614 	 -12.9057 	 50.1268
| 17> H 	 -2.95705 	 -13.3753 	 49.2151
| 18> H 	 -2.14569 	 -13.7203 	 50.7579
| 19> C 	 -4.01145 	 -12.3458 	 50.697
| 20> H 	 -3.91433 	 -11.8604 	 51.6467
| 21> H 	 -4.36791 	 -11.5598 	 50.1145
| 22> H 	 -4.84371 	 -13.0855 	 50.8158
| 23> S 	 0.834322 	 -10.1693 	 55.6966
| 24> C 	 1.11613 	 -11.339 	 56.9458
| 25> C 	 0.449349 	 -12.5106 	 56.7119
| 26> C 	 -0.128811 	 -12.5285 	 55.3939
| 27> C 	 0.0633534 	 -11.338 	 54.6912
| 28> H 	 0.405971 	 -13.3246 	 57.4415
| 29> C 	 -0.719257 	 -13.8248 	 54.8566
| 30> H 	 -1.33901 	 -13.7626 	 54.0033
| 31> H 	 -1.45392 	 -14.2038 	 55.5763
| 32> C 	 0.368914 	 -14.9418 	 54.7172
| 33> H 	 0.855172 	 -15.2801 	 55.6322
| 34> H 	 1.25955 	 -14.5776 	 54.1563
| 35> C 	 -0.185882 	 -16.1463 	 53.9348
| 36> H 	 -0.954174 	 -16.6568 	 54.5272
| 37> H 	 0.549351 	 -16.9309 	 53.7582
| 38> H 	 -0.553221 	 -15.8093 	 52.9463
| 39> H 	 -2.13998 	 -9.15221 	 50.845
| 40> H 	 1.57593 	 -11.0397 	 57.9123
| 41> *
| 42>
| 43>                          ****END OF INPUT****

CARTESIAN COORDINATES (ANGSTROEM)
---------------------------------
  S     -1.002160   -9.349140   53.050100
  C     -1.500780   -9.776040   51.406000
  C     -1.107070  -11.076100   51.089700
  C     -0.427123  -11.800000   52.154700
  C     -0.377224  -11.023300   53.340900
  H     -0.207487  -12.830800   52.242600
  C     -1.620420  -11.768200   49.803600
  H     -0.821279  -12.284900   49.289000
  H     -2.111380  -11.032800   49.231600
  C     -2.636140  -12.905700   50.126800
  H     -2.957050  -13.375300   49.215100
  H     -2.145690  -13.720300   50.757900
  C     -4.011450  -12.345800   50.697000
  H     -3.914330  -11.860400   51.646700
  H     -4.367910  -11.559800   50.114500
  H     -4.843710  -13.085500   50.815800
  S      0.834322  -10.169300   55.696600
  C      1.116130  -11.339000   56.945800
  C      0.449349  -12.510600   56.711900
  C     -0.128811  -12.528500   55.393900
  C      0.063353  -11.338000   54.691200
  H      0.405971  -13.324600   57.441500
  C     -0.719257  -13.824800   54.856600
  H     -1.339010  -13.762600   54.003300
  H     -1.453920  -14.203800   55.576300
  C      0.368914  -14.941800   54.717200
  H      0.855172  -15.280100   55.632200
  H      1.259550  -14.577600   54.156300
  C     -0.185882  -16.146300   53.934800
  H     -0.954174  -16.656800   54.527200
  H      0.549351  -16.930900   53.758200
  H     -0.553221  -15.809300   52.946300
  H     -2.139980   -9.152210   50.845000
  H      1.575930  -11.039700   57.912300

 Total Charge           Charge          ....    0
 Multiplicity           Mult            ....    1
 Number of Electrons    NEL             ....  134
 Basis Dimension        Dim             ....  322

ORBITAL ENERGIES
----------------

  NO   OCC          E(Eh)            E(eV)
   0   2.0000     -88.966812     -2420.9100
   1   2.0000     -88.964122     -2420.8368
   2   2.0000     -10.340818      -281.3880
   3   2.0000     -10.327052      -281.0134
   4   2.0000     -10.320784      -280.8428
   5   2.0000     -10.315418      -280.6968
   6   2.0000     -10.309725      -280.5419
   7   2.0000     -10.306752      -280.4610
   8   2.0000     -10.301569      -280.3200
   9   2.0000     -10.298059      -280.2244
  10   2.0000     -10.296446      -280.1805
  11   2.0000     -10.294501      -280.1276
  12   2.0000     -10.293142      -280.0906
  13   2.0000     -10.292621      -280.0765
  14   2.0000     -10.283071      -279.8166
  15   2.0000     -10.273645      -279.5601
  16   2.0000      -8.082453      -219.9347
  17   2.0000      -8.077868      -219.8100
  18   2.0000      -6.040956      -164.3828
  19   2.0000      -6.036868      -164.2715
  20   2.0000      -6.036454      -164.2603
  21   2.0000      -6.033125      -164.1697
  22   2.0000      -6.032565      -164.1545
  23   2.0000      -6.028565      -164.0456
  24   2.0000      -1.007607       -27.4184
  25   2.0000      -0.976629       -26.5754
  26   2.0000      -0.908728       -24.7277
  27   2.0000      -0.904354       -24.6087
  28   2.0000      -0.867800       -23.6140
  29   2.0000      -0.852342       -23.1934
  30   2.0000      -0.837619       -22.7928
  31   2.0000      -0.814756       -22.1706
  32   2.0000      -0.783669       -21.3247
  33   2.0000      -0.771991       -21.0069
  34   2.0000      -0.709857       -19.3162
  35   2.0000      -0.702243       -19.1090
  36   2.0000      -0.693506       -18.8713
  37   2.0000      -0.662195       -18.0192
  38   2.0000      -0.643737       -17.5170
  39   2.0000      -0.621620       -16.9151
  40   2.0000      -0.601891       -16.3783
  41   2.0000      -0.562245       -15.2995
  42   2.0000      -0.559871       -15.2349
  43   2.0000      -0.552102       -15.0235
  44   2.0000      -0.536457       -14.5977
  45   2.0000      -0.525099       -14.2887
  46   2.0000      -0.519118       -14.1259
  47   2.0000      -0.516399       -14.0519
  48   2.0000      -0.503373       -13.6975
  49   2.0000      -0.500290       -13.6136
  50   2.0000      -0.488047       -13.2804
  51   2.0000      -0.481143       -13.0926
  52   2.0000      -0.467166       -12.7122
  53   2.0000      -0.465837       -12.6761
  54   2.0000      -0.456470       -12.4212
  55   2.0000      -0.450635       -12.2624
  56   2.0000      -0.443682       -12.0732
  57   2.0000      -0.438293       -11.9266
  58   2.0000      -0.437285       -11.8991
  59   2.0000      -0.432036       -11.7563
  60   2.0000      -0.426279       -11.5996
  61   2.0000      -0.414412       -11.2767
  62   2.0000      -0.409253       -11.1363
  63   2.0000      -0.356597        -9.7035
  64   2.0000      -0.333491        -9.0747
  65   2.0000      -0.327343        -8.9075
  66   2.0000      -0.285491        -7.7686
  67   0.0000       0.022945         0.6244
  68   0.0000       0.071446         1.9441
  69   0.0000       0.102374         2.7857
  70   0.0000       0.115698         3.1483
  71   0.0000       0.119739         3.2583

MULLIKEN ATOMIC CHARGES
-----------------------
   0 S :    0.077703
   1 C :   -0.103351
   2 C :   -0.092232
   3 C :    0.061460
   4 C :   -0.164498
   5 H :   -0.000877
   6 C :    0.102611
   7 H :    0.034477
   8 H :    0.009212
   9 C :   -0.098272
  10 H :    0.030173
  11 H :    0.041466
  12 C :   -0.055129
  13 H :    0.031949
  14 H :    0.007375
  15 H :    0.040961
  16 S :    0.113022
  17 C :   -0.103455
  18 C :   -0.027052
  19 C :   -0.039768
  20 C :   -0.125460
  21 H :    0.028406
  22 C :    0.074528
  23 H :    0.009160
  24 H :    0.023402
  25 C :   -0.092894
  26 H :    0.028213
  27 H :    0.033305
  28 C :   -0.054760
  29 H :    0.031473
  30 H :    0.032930
  31 H :    0.033785
  32 H :    0.038874
  33 H :    0.073262
Sum of atomic charges:   -0.0000000

LOEWDIN ATOMIC CHARGES
----------------------
   0 S :    0.363008
   1 C :   -0.188476
   2 C :   -0.052945
   3 C :   -0.061795
   4 C :   -0.151090
   5 H :    0.024816
   6 C :   -0.019776
   7 H :    0.032387
   8 H :    0.021369
   9 C :   -0.037723
  10 H :    0.020781
  11 H :    0.026646
  12 C :   -0.070146
  13 H :    0.022868
  14 H :    0.014540
  15 H :    0.031199
  16 S :    0.420454
  17 C :   -0.189724
  18 C :   -0.068753
  19 C :   -0.050057
  20 C :   -0.217956
  21 H :    0.035942
  22 C :   -0.031422
  23 H :    0.021492
  24 H :    0.035824
  25 C :   -0.043499
  26 H :    0.022599
  27 H :    0.026085
  28 C :   -0.068242
  29 H :    0.024694
  30 H :    0.026010
  31 H :    0.024717
  32 H :    0.019308
  33 H :    0.036864

  Mayer bond orders larger than 0.100000
B(  0-S ,  1-C ) :   1.1189 B(  0-S ,  4-C ) :   1.1414 B(  1-C ,  2-C ) :   1.6283
B(  1-C , 32-H ) :   0.9754 B(  2-C ,  3-C ) :   1.1933 B(  2-C ,  6-C ) :   1.0354
B(  3-C ,  4-C ) :   1.5872 B(  3-C ,  5-H ) :   0.9933 B(  4-C , 20-C ) :   1.0673
B(  6-C ,  7-H ) :   0.9366 B(  6-C ,  8-H ) :   0.9452 B(  6-C ,  9-C ) :   1.0710
B(  9-C , 10-H ) :   0.9584 B(  9-C , 11-H ) :   0.9571 B(  9-C , 12-C ) :   1.0532
B( 12-C , 13-H ) :   0.9775 B( 12-C , 14-H ) :   0.9739 B( 12-C , 15-H ) :   0.9785
B( 16-S , 17-C ) :   1.1610 B( 16-S , 20-C ) :   1.1373 B( 17-C , 18-C ) :   1.5999
B( 17-C , 33-H ) :   0.9625 B( 18-C , 19-C ) :   1.2428 B( 18-C , 21-H ) :   0.9916
B( 19-C , 20-C ) :   1.5748 B( 19-C , 22-C ) :   1.0546 B( 22-C , 23-H ) :   0.9430
B( 22-C , 24-H ) :   0.9243 B( 22-C , 25-C ) :   1.0402 B( 25-C , 26-H ) :   0.9535
B( 25-C , 27-H ) :   0.9591 B( 25-C , 28-C ) :   1.0863 B( 28-C , 29-H ) :   0.9743
B( 28-C , 30-H ) :   0.9729 B( 28-C , 31-H ) :   0.9760

Dispersion correction           -0.015059015
FINAL SINGLE POINT ENERGY     -1339.879620303702

DIPOLE MOMENT
-------------
                                X             Y             Z
Electronic contribution:     10.87874      26.07680      12.49498
Nuclear contribution   :    -11.14528     -26.80269     -12.50586
                        -----------------------------------------
Total Dipole Moment    :     -0.26654      -0.72589      -0.01089
                        -----------------------------------------
Magnitude (a.u.)       :      0.77335
Magnitude (Debye)      :      1.96571

Rotational constants in cm-1:     0.017143     0.010284     0.006952
Rotational constants in MHz :   513.945277   308.294068   208.426772

                             ****ORCA TERMINATED NORMALLY****
TOTAL RUN TIME: 0 days 0 hours 0 minutes 31 seconds 539 msec
