                         Program Version 4.2.1 -  RELEASE  -
|  1> ! wB97X-D3 SP def2-SVP
|  2> %pal
|  3> nprocs 16
|  4> end
|  5>
|  6> * xyz 0 1
|  7> S 	 -43.3952 	 55.2739 	 101.177
|  8> C 	 -43.4268 	 54.6366 	 102.782
|  9> C 	 -44.6371 	 53.9661 	 103.032
| 10> C 	 -45.6431 	 54.1085 	 101.995
| 11> C 	 -45.1301 	 54.8316 	 100.906
| 12> H 	 -46.6444 	 53.642 	 101.925
| 13> C 	 -44.8622 	 52.9888 	 104.189
| 14> H 	 -45.9271 	 53.1684 	 104.623
| 15> H 	 -44.1798 	 53.234 	 104.977
| 16> C 	 -44.7148 	 51.5048 	 104.037
| 17> H 	 -44.7654 	 51.0111 	 105.018
| 18> H 	 -45.5477 	 51.0237 	 103.549
| 19> C 	 -43.3767 	 50.9709 	 103.443
| 20> H 	 -42.4833 	 51.0479 	 104.039
| 21> H 	 -43.5537 	 49.922 	 103.309
| 22> H 	 -43.1565 	 51.4549 	 102.545
| 23> S 	 -44.7161 	 55.5883 	 98.2056
| 24> C 	 -46.1207 	 55.8197 	 97.1866
| 25> C 	 -47.2569 	 55.4565 	 97.8465
| 26> C 	 -47.047 	 54.9922 	 99.1855
| 27> C 	 -45.7178 	 55.0948 	 99.5974
| 28> H 	 -48.2779 	 55.4602 	 97.3469
| 29> C 	 -48.2763 	 54.6248 	 99.9916
| 30> H 	 -49.1507 	 55.1387 	 99.5639
| 31> H 	 -48.1597 	 55.0917 	 100.961
| 32> C 	 -48.6103 	 53.0827 	 99.9425
| 33> H 	 -47.7753 	 52.464 	 100.282
| 34> H 	 -48.9153 	 52.888 	 98.8755
| 35> C 	 -49.851 	 52.711 	 100.904
| 36> H 	 -50.1243 	 51.6435 	 100.764
| 37> H 	 -50.7224 	 53.2655 	 100.504
| 38> H 	 -49.7173 	 53.0926 	 101.909
| 39> H 	 -42.5749 	 54.4269 	 103.439
| 40> H 	 -46.0706 	 55.972 	 96.1722
| 41> *
| 42>
| 43>                          ****END OF INPUT****

CARTESIAN COORDINATES (ANGSTROEM)
---------------------------------
  S    -43.395200   55.273900  101.177000
  C    -43.426800   54.636600  102.782000
  C    -44.637100   53.966100  103.032000
  C    -45.643100   54.108500  101.995000
  C    -45.130100   54.831600  100.906000
  H    -46.644400   53.642000  101.925000
  C    -44.862200   52.988800  104.189000
  H    -45.927100   53.168400  104.623000
  H    -44.179800   53.234000  104.977000
  C    -44.714800   51.504800  104.037000
  H    -44.765400   51.011100  105.018000
  H    -45.547700   51.023700  103.549000
  C    -43.376700   50.970900  103.443000
  H    -42.483300   51.047900  104.039000
  H    -43.553700   49.922000  103.309000
  H    -43.156500   51.454900  102.545000
  S    -44.716100   55.588300   98.205600
  C    -46.120700   55.819700   97.186600
  C    -47.256900   55.456500   97.846500
  C    -47.047000   54.992200   99.185500
  C    -45.717800   55.094800   99.597400
  H    -48.277900   55.460200   97.346900
  C    -48.276300   54.624800   99.991600
  H    -49.150700   55.138700   99.563900
  H    -48.159700   55.091700  100.961000
  C    -48.610300   53.082700   99.942500
  H    -47.775300   52.464000  100.282000
  H    -48.915300   52.888000   98.875500
  C    -49.851000   52.711000  100.904000
  H    -50.124300   51.643500  100.764000
  H    -50.722400   53.265500  100.504000
  H    -49.717300   53.092600  101.909000
  H    -42.574900   54.426900  103.439000
  H    -46.070600   55.972000   96.172200

 Total Charge           Charge          ....    0
 Multiplicity           Mult            ....    1
 Number of Electrons    NEL             ....  134
 Basis Dimension        Dim             ....  322

ORBITAL ENERGIES
----------------

  NO   OCC          E(Eh)            E(eV)
   0   2.0000     -88.970466     -2421.0095
   1   2.0000     -88.967698     -2420.9341
   2   2.0000     -10.341707      -281.4122
   3   2.0000     -10.334941      -281.2281
   4   2.0000     -10.317484      -280.7530
   5   2.0000     -10.313413      -280.6422
   6   2.0000     -10.308585      -280.5109
   7   2.0000     -10.305000      -280.4133
   8   2.0000     -10.304569      -280.4016
   9   2.0000     -10.303636      -280.3762
  10   2.0000     -10.298354      -280.2325
  11   2.0000     -10.297722      -280.2153
  12   2.0000     -10.294815      -280.1362
  13   2.0000     -10.289269      -279.9852
  14   2.0000     -10.285168      -279.8737
  15   2.0000     -10.267294      -279.3873
  16   2.0000      -8.084340      -219.9861
  17   2.0000      -8.081912      -219.9200
  18   2.0000      -6.043009      -164.4386
  19   2.0000      -6.040646      -164.3743
  20   2.0000      -6.039091      -164.3320
  21   2.0000      -6.036532      -164.2624
  22   2.0000      -6.034850      -164.2166
  23   2.0000      -6.032432      -164.1508
  24   2.0000      -1.003082       -27.2953
  25   2.0000      -0.980368       -26.6772
  26   2.0000      -0.908775       -24.7290
  27   2.0000      -0.903413       -24.5831
  28   2.0000      -0.870198       -23.6793
  29   2.0000      -0.849901       -23.1270
  30   2.0000      -0.842779       -22.9332
  31   2.0000      -0.814687       -22.1688
  32   2.0000      -0.783224       -21.3126
  33   2.0000      -0.773711       -21.0537
  34   2.0000      -0.710829       -19.3426
  35   2.0000      -0.699092       -19.0233
  36   2.0000      -0.696541       -18.9538
  37   2.0000      -0.663303       -18.0494
  38   2.0000      -0.635868       -17.3028
  39   2.0000      -0.617977       -16.8160
  40   2.0000      -0.596420       -16.2294
  41   2.0000      -0.565234       -15.3808
  42   2.0000      -0.560339       -15.2476
  43   2.0000      -0.549373       -14.9492
  44   2.0000      -0.540514       -14.7081
  45   2.0000      -0.530581       -14.4379
  46   2.0000      -0.515331       -14.0229
  47   2.0000      -0.510416       -13.8891
  48   2.0000      -0.507614       -13.8129
  49   2.0000      -0.497654       -13.5419
  50   2.0000      -0.491887       -13.3849
  51   2.0000      -0.484607       -13.1868
  52   2.0000      -0.468340       -12.7442
  53   2.0000      -0.465694       -12.6722
  54   2.0000      -0.458802       -12.4846
  55   2.0000      -0.450501       -12.2587
  56   2.0000      -0.444825       -12.1043
  57   2.0000      -0.441892       -12.0245
  58   2.0000      -0.431737       -11.7482
  59   2.0000      -0.425784       -11.5862
  60   2.0000      -0.421177       -11.4608
  61   2.0000      -0.413054       -11.2398
  62   2.0000      -0.405495       -11.0341
  63   2.0000      -0.367278        -9.9941
  64   2.0000      -0.335613        -9.1325
  65   2.0000      -0.327491        -8.9115
  66   2.0000      -0.281119        -7.6496
  67   0.0000       0.012995         0.3536
  68   0.0000       0.078013         2.1228
  69   0.0000       0.095615         2.6018
  70   0.0000       0.115529         3.1437
  71   0.0000       0.122540         3.3345

MULLIKEN ATOMIC CHARGES
-----------------------
   0 S :    0.097009
   1 C :   -0.091816
   2 C :   -0.112459
   3 C :    0.000592
   4 C :   -0.127637
   5 H :    0.022984
   6 C :    0.048334
   7 H :    0.038935
   8 H :    0.011815
   9 C :   -0.065346
  10 H :    0.024796
  11 H :    0.017953
  12 C :   -0.038097
  13 H :    0.022687
  14 H :    0.027781
  15 H :    0.031449
  16 S :    0.092332
  17 C :   -0.050774
  18 C :   -0.044714
  19 C :   -0.065345
  20 C :   -0.098616
  21 H :    0.040878
  22 C :    0.018234
  23 H :    0.021409
  24 H :    0.035820
  25 C :   -0.101764
  26 H :    0.049540
  27 H :    0.043929
  28 C :   -0.057442
  29 H :    0.052270
  30 H :    0.023642
  31 H :    0.039906
  32 H :    0.059554
  33 H :    0.032162
Sum of atomic charges:   -0.0000000

LOEWDIN ATOMIC CHARGES
----------------------
   0 S :    0.391343
   1 C :   -0.214653
   2 C :   -0.061211
   3 C :   -0.068482
   4 C :   -0.158990
   5 H :    0.039893
   6 C :   -0.042549
   7 H :    0.041635
   8 H :    0.025729
   9 C :   -0.043622
  10 H :    0.030207
  11 H :    0.018864
  12 C :   -0.059943
  13 H :    0.021287
  14 H :    0.027744
  15 H :    0.017186
  16 S :    0.386771
  17 C :   -0.170360
  18 C :   -0.075090
  19 C :   -0.058577
  20 C :   -0.187641
  21 H :    0.042257
  22 C :   -0.038718
  23 H :    0.032078
  24 H :    0.027614
  25 C :   -0.036434
  26 H :    0.020906
  27 H :    0.032811
  28 C :   -0.072637
  29 H :    0.032457
  30 H :    0.025094
  31 H :    0.023196
  32 H :    0.036134
  33 H :    0.015701

  Mayer bond orders larger than 0.100000
B(  0-S ,  1-C ) :   1.1296 B(  0-S ,  4-C ) :   1.1367 B(  1-C ,  2-C ) :   1.6194
B(  1-C , 32-H ) :   0.9590 B(  2-C ,  3-C ) :   1.2219 B(  2-C ,  6-C ) :   1.0391
B(  3-C ,  4-C ) :   1.5612 B(  3-C ,  5-H ) :   0.9810 B(  4-C , 20-C ) :   1.1042
B(  6-C ,  7-H ) :   0.9368 B(  6-C ,  8-H ) :   0.9375 B(  6-C ,  9-C ) :   1.0818
B(  9-C , 10-H ) :   0.9491 B(  9-C , 11-H ) :   0.9561 B(  9-C , 12-C ) :   1.0718
B( 12-C , 13-H ) :   0.9769 B( 12-C , 14-H ) :   0.9733 B( 12-C , 15-H ) :   0.9781
B( 16-S , 17-C ) :   1.1429 B( 16-S , 20-C ) :   1.1177 B( 17-C , 18-C ) :   1.6145
B( 17-C , 33-H ) :   0.9755 B( 18-C , 19-C ) :   1.2638 B( 18-C , 21-H ) :   0.9738
B( 19-C , 20-C ) :   1.5827 B( 19-C , 22-C ) :   1.0392 B( 22-C , 23-H ) :   0.9378
B( 22-C , 24-H ) :   0.9397 B( 22-C , 25-C ) :   1.0427 B( 25-C , 26-H ) :   0.9626
B( 25-C , 27-H ) :   0.9551 B( 25-C , 28-C ) :   1.0671 B( 28-C , 29-H ) :   0.9760
B( 28-C , 30-H ) :   0.9749 B( 28-C , 31-H ) :   0.9776

Dispersion correction           -0.014384805
FINAL SINGLE POINT ENERGY     -1339.870686517243

DIPOLE MOMENT
-------------
                                X             Y             Z
Electronic contribution:     15.84719      20.44382     -15.06174
Nuclear contribution   :    -16.43315     -20.98605      15.15053
                        -----------------------------------------
Total Dipole Moment    :     -0.58596      -0.54223       0.08879
                        -----------------------------------------
Magnitude (a.u.)       :      0.80327
Magnitude (Debye)      :      2.04175

Rotational constants in cm-1:     0.017038     0.009657     0.006771
Rotational constants in MHz :   510.773317   289.513206   202.986448

                             ****ORCA TERMINATED NORMALLY****
TOTAL RUN TIME: 0 days 0 hours 0 minutes 28 seconds 511 msec
