                         Program Version 4.2.1 -  RELEASE  -
|  1> ! wB97X-D3 SP def2-SVP
|  2> %pal
|  3> nprocs 16
|  4> end
|  5>
|  6> * xyz 0 1
|  7> S 	 -1.84972 	 -24.8835 	 61.7594
|  8> C 	 -1.11713 	 -23.3859 	 62.1763
|  9> C 	 0.285958 	 -23.5258 	 62.1836
| 10> C 	 0.763429 	 -24.7392 	 61.6144
| 11> C 	 -0.359467 	 -25.5145 	 61.1449
| 12> H 	 1.85409 	 -25.0662 	 61.4791
| 13> C 	 1.18301 	 -22.3746 	 62.697
| 14> H 	 1.16777 	 -22.3481 	 63.7985
| 15> H 	 0.627421 	 -21.4581 	 62.354
| 16> C 	 2.6314 	 -22.2469 	 62.0407
| 17> H 	 3.20464 	 -21.5555 	 62.6093
| 18> H 	 3.26342 	 -23.1028 	 62.2216
| 19> C 	 2.5837 	 -21.809 	 60.5869
| 20> H 	 3.54368 	 -22.0703 	 60.0478
| 21> H 	 1.72186 	 -22.2393 	 60.021
| 22> H 	 2.42291 	 -20.6712 	 60.573
| 23> S 	 -0.559705 	 -28.2371 	 61.7783
| 24> C 	 -0.159246 	 -29.4416 	 60.5271
| 25> C 	 0.0112047 	 -28.8035 	 59.2985
| 26> C 	 0.0503848 	 -27.3432 	 59.3465
| 27> C 	 -0.307249 	 -26.9017 	 60.6235
| 28> H 	 0.226572 	 -29.4636 	 58.4286
| 29> C 	 0.251374 	 -26.4694 	 58.0903
| 30> H 	 0.874307 	 -27.2114 	 57.5454
| 31> H 	 0.885019 	 -25.6183 	 58.3176
| 32> C 	 -1.05332 	 -26.1191 	 57.3207
| 33> H 	 -1.56702 	 -25.2096 	 57.796
| 34> H 	 -1.76021 	 -26.9228 	 57.5718
| 35> C 	 -0.890912 	 -25.7399 	 55.849
| 36> H 	 -0.647756 	 -26.6469 	 55.2346
| 37> H 	 -0.0845823 	 -25.0151 	 55.8244
| 38> H 	 -1.7386 	 -25.3374 	 55.3346
| 39> H 	 -1.68297 	 -22.6547 	 62.6568
| 40> H 	 -0.203049 	 -30.5524 	 60.6586
| 41> *
| 42>
| 43>                          ****END OF INPUT****

CARTESIAN COORDINATES (ANGSTROEM)
---------------------------------
  S     -1.849720  -24.883500   61.759400
  C     -1.117130  -23.385900   62.176300
  C      0.285958  -23.525800   62.183600
  C      0.763429  -24.739200   61.614400
  C     -0.359467  -25.514500   61.144900
  H      1.854090  -25.066200   61.479100
  C      1.183010  -22.374600   62.697000
  H      1.167770  -22.348100   63.798500
  H      0.627421  -21.458100   62.354000
  C      2.631400  -22.246900   62.040700
  H      3.204640  -21.555500   62.609300
  H      3.263420  -23.102800   62.221600
  C      2.583700  -21.809000   60.586900
  H      3.543680  -22.070300   60.047800
  H      1.721860  -22.239300   60.021000
  H      2.422910  -20.671200   60.573000
  S     -0.559705  -28.237100   61.778300
  C     -0.159246  -29.441600   60.527100
  C      0.011205  -28.803500   59.298500
  C      0.050385  -27.343200   59.346500
  C     -0.307249  -26.901700   60.623500
  H      0.226572  -29.463600   58.428600
  C      0.251374  -26.469400   58.090300
  H      0.874307  -27.211400   57.545400
  H      0.885019  -25.618300   58.317600
  C     -1.053320  -26.119100   57.320700
  H     -1.567020  -25.209600   57.796000
  H     -1.760210  -26.922800   57.571800
  C     -0.890912  -25.739900   55.849000
  H     -0.647756  -26.646900   55.234600
  H     -0.084582  -25.015100   55.824400
  H     -1.738600  -25.337400   55.334600
  H     -1.682970  -22.654700   62.656800
  H     -0.203049  -30.552400   60.658600

 Total Charge           Charge          ....    0
 Multiplicity           Mult            ....    1
 Number of Electrons    NEL             ....  134
 Basis Dimension        Dim             ....  322

ORBITAL ENERGIES
----------------

  NO   OCC          E(Eh)            E(eV)
   0   2.0000     -88.968450     -2420.9546
   1   2.0000     -88.964304     -2420.8418
   2   2.0000     -10.332990      -281.1750
   3   2.0000     -10.329005      -281.0665
   4   2.0000     -10.324342      -280.9396
   5   2.0000     -10.309083      -280.5244
   6   2.0000     -10.309027      -280.5229
   7   2.0000     -10.307991      -280.4947
   8   2.0000     -10.306919      -280.4655
   9   2.0000     -10.302204      -280.3372
  10   2.0000     -10.301124      -280.3078
  11   2.0000     -10.296829      -280.1910
  12   2.0000     -10.291212      -280.0381
  13   2.0000     -10.289707      -279.9972
  14   2.0000     -10.287504      -279.9372
  15   2.0000     -10.278590      -279.6947
  16   2.0000      -8.083794      -219.9712
  17   2.0000      -8.078053      -219.8150
  18   2.0000      -6.041918      -164.4089
  19   2.0000      -6.038217      -164.3083
  20   2.0000      -6.036759      -164.2686
  21   2.0000      -6.034937      -164.2190
  22   2.0000      -6.032681      -164.1576
  23   2.0000      -6.028663      -164.0483
  24   2.0000      -1.000949       -27.2372
  25   2.0000      -0.975717       -26.5506
  26   2.0000      -0.902672       -24.5630
  27   2.0000      -0.899920       -24.4881
  28   2.0000      -0.861991       -23.4560
  29   2.0000      -0.846498       -23.0344
  30   2.0000      -0.843387       -22.9497
  31   2.0000      -0.808751       -22.0072
  32   2.0000      -0.778302       -21.1787
  33   2.0000      -0.764462       -20.8021
  34   2.0000      -0.707710       -19.2578
  35   2.0000      -0.696518       -18.9532
  36   2.0000      -0.686675       -18.6854
  37   2.0000      -0.651810       -17.7367
  38   2.0000      -0.638779       -17.3820
  39   2.0000      -0.612417       -16.6647
  40   2.0000      -0.588765       -16.0211
  41   2.0000      -0.557736       -15.1768
  42   2.0000      -0.551865       -15.0170
  43   2.0000      -0.548291       -14.9198
  44   2.0000      -0.528952       -14.3935
  45   2.0000      -0.528040       -14.3687
  46   2.0000      -0.514809       -14.0087
  47   2.0000      -0.512274       -13.9397
  48   2.0000      -0.497335       -13.5332
  49   2.0000      -0.494066       -13.4442
  50   2.0000      -0.484360       -13.1801
  51   2.0000      -0.481942       -13.1143
  52   2.0000      -0.463529       -12.6133
  53   2.0000      -0.459750       -12.5104
  54   2.0000      -0.455195       -12.3865
  55   2.0000      -0.450419       -12.2565
  56   2.0000      -0.446208       -12.1419
  57   2.0000      -0.437631       -11.9086
  58   2.0000      -0.431416       -11.7394
  59   2.0000      -0.422721       -11.5028
  60   2.0000      -0.418270       -11.3817
  61   2.0000      -0.410501       -11.1703
  62   2.0000      -0.404386       -11.0039
  63   2.0000      -0.336748        -9.1634
  64   2.0000      -0.326956        -8.8969
  65   2.0000      -0.324606        -8.8330
  66   2.0000      -0.299459        -8.1487
  67   0.0000       0.033934         0.9234
  68   0.0000       0.050704         1.3797
  69   0.0000       0.113309         3.0833
  70   0.0000       0.120249         3.2721
  71   0.0000       0.125662         3.4194

MULLIKEN ATOMIC CHARGES
-----------------------
   0 S :    0.124426
   1 C :   -0.092748
   2 C :   -0.108556
   3 C :    0.026904
   4 C :   -0.186598
   5 H :    0.056729
   6 C :    0.020429
   7 H :    0.050873
   8 H :    0.034176
   9 C :   -0.041729
  10 H :    0.014131
  11 H :    0.020084
  12 C :   -0.103896
  13 H :    0.049270
  14 H :    0.053932
  15 H :    0.043729
  16 S :    0.102563
  17 C :   -0.122247
  18 C :   -0.051636
  19 C :   -0.064975
  20 C :   -0.162938
  21 H :    0.035926
  22 C :    0.082861
  23 H :    0.023713
  24 H :    0.033835
  25 C :   -0.085193
  26 H :    0.040519
  27 H :    0.034443
  28 C :   -0.038617
  29 H :    0.033497
  30 H :    0.032647
  31 H :    0.033609
  32 H :    0.032376
  33 H :    0.078462
Sum of atomic charges:    0.0000000

LOEWDIN ATOMIC CHARGES
----------------------
   0 S :    0.444857
   1 C :   -0.207934
   2 C :   -0.064792
   3 C :   -0.066364
   4 C :   -0.208893
   5 H :    0.051138
   6 C :   -0.033812
   7 H :    0.033861
   8 H :    0.036871
   9 C :   -0.049839
  10 H :    0.022645
  11 H :    0.019065
  12 C :   -0.077910
  13 H :    0.033769
  14 H :    0.030175
  15 H :    0.033809
  16 S :    0.375991
  17 C :   -0.188752
  18 C :   -0.079713
  19 C :   -0.056722
  20 C :   -0.196596
  21 H :    0.036574
  22 C :   -0.030623
  23 H :    0.033918
  24 H :    0.030088
  25 C :   -0.048524
  26 H :    0.034687
  27 H :    0.025076
  28 C :   -0.067163
  29 H :    0.028270
  30 H :    0.026741
  31 H :    0.024454
  32 H :    0.013905
  33 H :    0.041742

  Mayer bond orders larger than 0.100000
B(  0-S ,  1-C ) :   1.1693 B(  0-S ,  4-C ) :   1.2034 B(  1-C ,  2-C ) :   1.5465
B(  1-C ,  4-C ) :   0.1172 B(  1-C , 32-H ) :   0.9807 B(  2-C ,  3-C ) :   1.3025
B(  2-C ,  6-C ) :   0.9979 B(  3-C ,  4-C ) :   1.4968 B(  3-C ,  5-H ) :   0.9808
B(  4-C , 20-C ) :   1.0149 B(  6-C ,  7-H ) :   0.9416 B(  6-C ,  8-H ) :   0.9532
B(  6-C ,  9-C ) :   1.0667 B(  9-C , 10-H ) :   0.9517 B(  9-C , 11-H ) :   0.9560
B(  9-C , 12-C ) :   1.0631 B( 12-C , 13-H ) :   0.9738 B( 12-C , 14-H ) :   0.9795
B( 12-C , 15-H ) :   0.9736 B( 16-S , 17-C ) :   1.1348 B( 16-S , 20-C ) :   1.1401
B( 17-C , 18-C ) :   1.6478 B( 17-C , 33-H ) :   0.9602 B( 18-C , 19-C ) :   1.2144
B( 18-C , 21-H ) :   0.9751 B( 19-C , 20-C ) :   1.6204 B( 19-C , 22-C ) :   1.0375
B( 22-C , 23-H ) :   0.9382 B( 22-C , 24-H ) :   0.9287 B( 22-C , 25-C ) :   1.0486
B( 25-C , 26-H ) :   0.9523 B( 25-C , 27-H ) :   0.9613 B( 25-C , 28-C ) :   1.0714
B( 28-C , 29-H ) :   0.9758 B( 28-C , 30-H ) :   0.9741 B( 28-C , 31-H ) :   0.9752

Dispersion correction           -0.014273528
FINAL SINGLE POINT ENERGY     -1339.864092538359

DIPOLE MOMENT
-------------
                                X             Y             Z
Electronic contribution:    -12.32296     -16.09590      16.93236
Nuclear contribution   :     12.67346      16.34510     -17.10141
                        -----------------------------------------
Total Dipole Moment    :      0.35050       0.24920      -0.16905
                        -----------------------------------------
Magnitude (a.u.)       :      0.46209
Magnitude (Debye)      :      1.17454

Rotational constants in cm-1:     0.016479     0.008864     0.007257
Rotational constants in MHz :   494.027789   265.732786   217.566879

                             ****ORCA TERMINATED NORMALLY****
TOTAL RUN TIME: 0 days 0 hours 0 minutes 34 seconds 497 msec
