                         Program Version 4.2.1 -  RELEASE  -
|  1> ! wB97X-D3 SP def2-SVP
|  2> %pal
|  3> nprocs 16
|  4> end
|  5>
|  6> * xyz 0 1
|  7> S 	 53.7658 	 2.29188 	 82.0791
|  8> C 	 52.1992 	 1.66285 	 82.5351
|  9> C 	 52.0074 	 0.386156 	 81.9964
| 10> C 	 52.9979 	 0.089494 	 81.0193
| 11> C 	 54.0186 	 0.980663 	 81.0378
| 12> H 	 53.146 	 -0.835037 	 80.4851
| 13> C 	 50.9083 	 -0.531312 	 82.4845
| 14> H 	 50.3776 	 -0.898239 	 81.6128
| 15> H 	 50.1076 	 0.140057 	 82.8599
| 16> C 	 51.2763 	 -1.67435 	 83.4492
| 17> H 	 52.1493 	 -2.17231 	 83.1385
| 18> H 	 51.735 	 -1.13933 	 84.2931
| 19> C 	 50.1546 	 -2.62864 	 83.7351
| 20> H 	 49.7415 	 -3.08068 	 82.8626
| 21> H 	 50.4601 	 -3.50646 	 84.3576
| 22> H 	 49.3043 	 -2.14518 	 84.2604
| 23> S 	 56.6901 	 0.748305 	 81.5148
| 24> C 	 57.799 	 0.461921 	 80.2149
| 25> C 	 57.1068 	 0.153015 	 79.0723
| 26> C 	 55.663 	 0.345957 	 79.1626
| 27> C 	 55.292 	 0.785815 	 80.406
| 28> H 	 57.669 	 -0.177136 	 78.1921
| 29> C 	 54.7681 	 0.0821099 	 77.9344
| 30> H 	 54.4607 	 -0.947585 	 77.7769
| 31> H 	 55.3719 	 0.272806 	 77.0256
| 32> C 	 53.4898 	 1.0215 	 77.6927
| 33> H 	 53.789 	 2.06137 	 77.72
| 34> H 	 52.8096 	 0.840565 	 78.5361
| 35> C 	 52.6814 	 0.66493 	 76.4149
| 36> H 	 52.3906 	 -0.381766 	 76.4139
| 37> H 	 53.2026 	 0.982273 	 75.5429
| 38> H 	 51.8006 	 1.20051 	 76.5442
| 39> H 	 51.5314 	 2.09872 	 83.266
| 40> H 	 58.8717 	 0.46613 	 80.2006
| 41> *
| 42>
| 43>                          ****END OF INPUT****

CARTESIAN COORDINATES (ANGSTROEM)
---------------------------------
  S     53.765800    2.291880   82.079100
  C     52.199200    1.662850   82.535100
  C     52.007400    0.386156   81.996400
  C     52.997900    0.089494   81.019300
  C     54.018600    0.980663   81.037800
  H     53.146000   -0.835037   80.485100
  C     50.908300   -0.531312   82.484500
  H     50.377600   -0.898239   81.612800
  H     50.107600    0.140057   82.859900
  C     51.276300   -1.674350   83.449200
  H     52.149300   -2.172310   83.138500
  H     51.735000   -1.139330   84.293100
  C     50.154600   -2.628640   83.735100
  H     49.741500   -3.080680   82.862600
  H     50.460100   -3.506460   84.357600
  H     49.304300   -2.145180   84.260400
  S     56.690100    0.748305   81.514800
  C     57.799000    0.461921   80.214900
  C     57.106800    0.153015   79.072300
  C     55.663000    0.345957   79.162600
  C     55.292000    0.785815   80.406000
  H     57.669000   -0.177136   78.192100
  C     54.768100    0.082110   77.934400
  H     54.460700   -0.947585   77.776900
  H     55.371900    0.272806   77.025600
  C     53.489800    1.021500   77.692700
  H     53.789000    2.061370   77.720000
  H     52.809600    0.840565   78.536100
  C     52.681400    0.664930   76.414900
  H     52.390600   -0.381766   76.413900
  H     53.202600    0.982273   75.542900
  H     51.800600    1.200510   76.544200
  H     51.531400    2.098720   83.266000
  H     58.871700    0.466130   80.200600

 Total Charge           Charge          ....    0
 Multiplicity           Mult            ....    1
 Number of Electrons    NEL             ....  134
 Basis Dimension        Dim             ....  322

ORBITAL ENERGIES
----------------

  NO   OCC          E(Eh)            E(eV)
   0   2.0000     -88.968067     -2420.9442
   1   2.0000     -88.961762     -2420.7726
   2   2.0000     -10.324911      -280.9551
   3   2.0000     -10.320408      -280.8326
   4   2.0000     -10.313414      -280.6423
   5   2.0000     -10.312926      -280.6290
   6   2.0000     -10.306691      -280.4593
   7   2.0000     -10.303219      -280.3648
   8   2.0000     -10.295697      -280.1602
   9   2.0000     -10.293144      -280.0907
  10   2.0000     -10.292239      -280.0661
  11   2.0000     -10.289712      -279.9973
  12   2.0000     -10.284526      -279.8562
  13   2.0000     -10.283720      -279.8343
  14   2.0000     -10.282083      -279.7897
  15   2.0000     -10.269747      -279.4540
  16   2.0000      -8.083747      -219.9699
  17   2.0000      -8.076465      -219.7718
  18   2.0000      -6.042036      -164.4122
  19   2.0000      -6.038110      -164.3053
  20   2.0000      -6.035182      -164.2257
  21   2.0000      -6.034678      -164.2119
  22   2.0000      -6.031064      -164.1136
  23   2.0000      -6.026909      -164.0005
  24   2.0000      -1.015080       -27.6217
  25   2.0000      -0.984636       -26.7933
  26   2.0000      -0.913951       -24.8699
  27   2.0000      -0.895704       -24.3734
  28   2.0000      -0.872895       -23.7527
  29   2.0000      -0.855317       -23.2744
  30   2.0000      -0.845448       -23.0058
  31   2.0000      -0.816934       -22.2299
  32   2.0000      -0.782466       -21.2920
  33   2.0000      -0.772358       -21.0169
  34   2.0000      -0.714568       -19.4444
  35   2.0000      -0.704899       -19.1813
  36   2.0000      -0.687285       -18.7020
  37   2.0000      -0.660209       -17.9652
  38   2.0000      -0.644221       -17.5302
  39   2.0000      -0.619593       -16.8600
  40   2.0000      -0.591567       -16.0973
  41   2.0000      -0.568047       -15.4573
  42   2.0000      -0.562632       -15.3100
  43   2.0000      -0.553994       -15.0749
  44   2.0000      -0.527873       -14.3642
  45   2.0000      -0.524951       -14.2846
  46   2.0000      -0.514933       -14.0120
  47   2.0000      -0.512496       -13.9457
  48   2.0000      -0.503334       -13.6964
  49   2.0000      -0.498151       -13.5554
  50   2.0000      -0.494981       -13.4691
  51   2.0000      -0.491626       -13.3778
  52   2.0000      -0.474160       -12.9025
  53   2.0000      -0.462965       -12.5979
  54   2.0000      -0.458831       -12.4854
  55   2.0000      -0.455835       -12.4039
  56   2.0000      -0.445063       -12.1108
  57   2.0000      -0.439786       -11.9672
  58   2.0000      -0.431511       -11.7420
  59   2.0000      -0.426509       -11.6059
  60   2.0000      -0.419199       -11.4070
  61   2.0000      -0.407902       -11.0996
  62   2.0000      -0.406977       -11.0744
  63   2.0000      -0.346599        -9.4315
  64   2.0000      -0.333676        -9.0798
  65   2.0000      -0.324722        -8.8361
  66   2.0000      -0.293808        -7.9949
  67   0.0000       0.030897         0.8407
  68   0.0000       0.073657         2.0043
  69   0.0000       0.111717         3.0400
  70   0.0000       0.121426         3.3042
  71   0.0000       0.126201         3.4341

MULLIKEN ATOMIC CHARGES
-----------------------
   0 S :    0.128516
   1 C :   -0.111061
   2 C :   -0.124337
   3 C :    0.054392
   4 C :   -0.173581
   5 H :    0.015325
   6 C :    0.051512
   7 H :    0.010225
   8 H :    0.014661
   9 C :   -0.011928
  10 H :    0.011151
  11 H :    0.019238
  12 C :   -0.040103
  13 H :    0.023364
  14 H :    0.040992
  15 H :    0.035304
  16 S :    0.093207
  17 C :   -0.068151
  18 C :   -0.057774
  19 C :    0.000961
  20 C :   -0.143891
  21 H :    0.022174
  22 C :    0.032396
  23 H :    0.030315
  24 H :    0.018626
  25 C :   -0.120496
  26 H :    0.036155
  27 H :    0.037839
  28 C :   -0.000101
  29 H :    0.026351
  30 H :    0.032699
  31 H :    0.020278
  32 H :    0.046212
  33 H :    0.049530
Sum of atomic charges:    0.0000000

LOEWDIN ATOMIC CHARGES
----------------------
   0 S :    0.438186
   1 C :   -0.202416
   2 C :   -0.057523
   3 C :   -0.060628
   4 C :   -0.213948
   5 H :    0.033436
   6 C :   -0.037516
   7 H :    0.024693
   8 H :    0.032143
   9 C :   -0.042866
  10 H :    0.020318
  11 H :    0.030113
  12 C :   -0.066480
  13 H :    0.022084
  14 H :    0.034781
  15 H :    0.029776
  16 S :    0.388934
  17 C :   -0.190055
  18 C :   -0.072055
  19 C :   -0.059854
  20 C :   -0.183273
  21 H :    0.032266
  22 C :   -0.039232
  23 H :    0.027493
  24 H :    0.031028
  25 C :   -0.037203
  26 H :    0.023428
  27 H :    0.021964
  28 C :   -0.054114
  29 H :    0.025884
  30 H :    0.020591
  31 H :    0.022313
  32 H :    0.026573
  33 H :    0.031160

  Mayer bond orders larger than 0.100000
B(  0-S ,  1-C ) :   1.1377 B(  0-S ,  4-C ) :   1.1740 B(  1-C ,  2-C ) :   1.6002
B(  1-C , 32-H ) :   0.9701 B(  2-C ,  3-C ) :   1.2537 B(  2-C ,  6-C ) :   1.0314
B(  3-C ,  4-C ) :   1.5618 B(  3-C ,  5-H ) :   0.9900 B(  4-C , 20-C ) :   1.0314
B(  6-C ,  7-H ) :   0.9344 B(  6-C ,  8-H ) :   0.9371 B(  6-C ,  9-C ) :   1.0471
B(  9-C , 10-H ) :   0.9537 B(  9-C , 11-H ) :   0.9465 B(  9-C , 12-C ) :   1.0816
B( 12-C , 13-H ) :   0.9721 B( 12-C , 14-H ) :   0.9725 B( 12-C , 15-H ) :   0.9751
B( 16-S , 17-C ) :   1.1314 B( 16-S , 20-C ) :   1.1259 B( 17-C , 18-C ) :   1.6481
B( 17-C , 33-H ) :   0.9673 B( 18-C , 19-C ) :   1.2122 B( 18-C , 21-H ) :   0.9855
B( 19-C , 20-C ) :   1.6354 B( 19-C , 22-C ) :   1.0267 B( 22-C , 23-H ) :   0.9370
B( 22-C , 24-H ) :   0.9427 B( 22-C , 25-C ) :   1.0565 B( 25-C , 26-H ) :   0.9592
B( 25-C , 27-H ) :   0.9533 B( 25-C , 28-C ) :   1.0855 B( 28-C , 29-H ) :   0.9724
B( 28-C , 30-H ) :   0.9775 B( 28-C , 31-H ) :   0.9719

Dispersion correction           -0.014203585
FINAL SINGLE POINT ENERGY     -1339.874616157600

DIPOLE MOMENT
-------------
                                X             Y             Z
Electronic contribution:     20.57441      13.90104       8.96525
Nuclear contribution   :    -20.90281     -14.37704      -9.19402
                        -----------------------------------------
Total Dipole Moment    :     -0.32841      -0.47601      -0.22877
                        -----------------------------------------
Magnitude (a.u.)       :      0.62191
Magnitude (Debye)      :      1.58076

Rotational constants in cm-1:     0.016868     0.008649     0.007185
Rotational constants in MHz :   505.682005   259.288656   215.386041

                             ****ORCA TERMINATED NORMALLY****
TOTAL RUN TIME: 0 days 0 hours 0 minutes 28 seconds 428 msec
