                         Program Version 4.2.1 -  RELEASE  -
|  1> ! wB97X-D3 SP def2-SVP
|  2> %pal
|  3> nprocs 16
|  4> end
|  5>
|  6> * xyz 0 1
|  7> S 	 -5.42944 	 29.3147 	 47.132
|  8> C 	 -3.68842 	 29.3955 	 47.4625
|  9> C 	 -3.10672 	 30.5504 	 47.0534
| 10> C 	 -4.05141 	 31.3053 	 46.2441
| 11> C 	 -5.27408 	 30.7152 	 46.1692
| 12> H 	 -3.82775 	 32.2284 	 45.6683
| 13> C 	 -1.70252 	 30.9837 	 47.4017
| 14> H 	 -1.50367 	 30.678 	 48.4559
| 15> H 	 -1.6518 	 32.109 	 47.5677
| 16> C 	 -0.541287 	 30.7439 	 46.348
| 17> H 	 -0.596384 	 31.2843 	 45.3994
| 18> H 	 0.421831 	 31.0469 	 46.7746
| 19> C 	 -0.418607 	 29.272 	 46.0566
| 20> H 	 -1.35671 	 28.9684 	 45.5866
| 21> H 	 0.435254 	 29.0653 	 45.4119
| 22> H 	 -0.288246 	 28.7157 	 46.9817
| 23> S 	 -6.97439 	 30.1638 	 43.9631
| 24> C 	 -8.20355 	 31.2958 	 43.6164
| 25> C 	 -8.1611 	 32.3583 	 44.426
| 26> C 	 -7.10807 	 32.3726 	 45.3283
| 27> C 	 -6.38401 	 31.1384 	 45.3141
| 28> H 	 -8.84732 	 33.189 	 44.2937
| 29> C 	 -6.89744 	 33.5678 	 46.2502
| 30> H 	 -6.58482 	 33.3328 	 47.35
| 31> H 	 -7.95577 	 33.9103 	 46.4138
| 32> C 	 -6.16369 	 34.6893 	 45.5561
| 33> H 	 -6.67869 	 34.919 	 44.6112
| 34> H 	 -5.16203 	 34.3195 	 45.2958
| 35> C 	 -5.9656 	 35.9032 	 46.5037
| 36> H 	 -5.20992 	 36.5276 	 46.0659
| 37> H 	 -5.64129 	 35.6147 	 47.5012
| 38> H 	 -6.84456 	 36.5062 	 46.6279
| 39> H 	 -3.18074 	 28.7525 	 48.181
| 40> H 	 -8.91148 	 31.2985 	 42.8405
| 41> *
| 42>
| 43>                          ****END OF INPUT****

CARTESIAN COORDINATES (ANGSTROEM)
---------------------------------
  S     -5.429440   29.314700   47.132000
  C     -3.688420   29.395500   47.462500
  C     -3.106720   30.550400   47.053400
  C     -4.051410   31.305300   46.244100
  C     -5.274080   30.715200   46.169200
  H     -3.827750   32.228400   45.668300
  C     -1.702520   30.983700   47.401700
  H     -1.503670   30.678000   48.455900
  H     -1.651800   32.109000   47.567700
  C     -0.541287   30.743900   46.348000
  H     -0.596384   31.284300   45.399400
  H      0.421831   31.046900   46.774600
  C     -0.418607   29.272000   46.056600
  H     -1.356710   28.968400   45.586600
  H      0.435254   29.065300   45.411900
  H     -0.288246   28.715700   46.981700
  S     -6.974390   30.163800   43.963100
  C     -8.203550   31.295800   43.616400
  C     -8.161100   32.358300   44.426000
  C     -7.108070   32.372600   45.328300
  C     -6.384010   31.138400   45.314100
  H     -8.847320   33.189000   44.293700
  C     -6.897440   33.567800   46.250200
  H     -6.584820   33.332800   47.350000
  H     -7.955770   33.910300   46.413800
  C     -6.163690   34.689300   45.556100
  H     -6.678690   34.919000   44.611200
  H     -5.162030   34.319500   45.295800
  C     -5.965600   35.903200   46.503700
  H     -5.209920   36.527600   46.065900
  H     -5.641290   35.614700   47.501200
  H     -6.844560   36.506200   46.627900
  H     -3.180740   28.752500   48.181000
  H     -8.911480   31.298500   42.840500

 Total Charge           Charge          ....    0
 Multiplicity           Mult            ....    1
 Number of Electrons    NEL             ....  134
 Basis Dimension        Dim             ....  322

ORBITAL ENERGIES
----------------

  NO   OCC          E(Eh)            E(eV)
   0   2.0000     -88.966764     -2420.9087
   1   2.0000     -88.965380     -2420.8711
   2   2.0000     -10.326563      -281.0001
   3   2.0000     -10.323154      -280.9073
   4   2.0000     -10.311601      -280.5929
   5   2.0000     -10.305311      -280.4218
   6   2.0000     -10.304373      -280.3962
   7   2.0000     -10.302407      -280.3428
   8   2.0000     -10.300254      -280.2842
   9   2.0000     -10.297755      -280.2162
  10   2.0000     -10.294909      -280.1387
  11   2.0000     -10.289739      -279.9980
  12   2.0000     -10.289656      -279.9958
  13   2.0000     -10.281587      -279.7762
  14   2.0000     -10.275727      -279.6168
  15   2.0000     -10.268891      -279.4307
  16   2.0000      -8.081735      -219.9152
  17   2.0000      -8.080809      -219.8900
  18   2.0000      -6.040157      -164.3610
  19   2.0000      -6.039250      -164.3364
  20   2.0000      -6.036138      -164.2517
  21   2.0000      -6.035450      -164.2329
  22   2.0000      -6.032645      -164.1566
  23   2.0000      -6.031352      -164.1214
  24   2.0000      -1.010310       -27.4919
  25   2.0000      -0.990688       -26.9580
  26   2.0000      -0.910510       -24.7762
  27   2.0000      -0.909535       -24.7497
  28   2.0000      -0.870192       -23.6791
  29   2.0000      -0.851234       -23.1633
  30   2.0000      -0.846801       -23.0426
  31   2.0000      -0.814622       -22.1670
  32   2.0000      -0.782762       -21.3000
  33   2.0000      -0.771435       -20.9918
  34   2.0000      -0.708724       -19.2854
  35   2.0000      -0.695882       -18.9359
  36   2.0000      -0.691045       -18.8043
  37   2.0000      -0.654533       -17.8108
  38   2.0000      -0.638910       -17.3856
  39   2.0000      -0.616452       -16.7745
  40   2.0000      -0.598341       -16.2817
  41   2.0000      -0.570610       -15.5271
  42   2.0000      -0.558439       -15.1959
  43   2.0000      -0.550420       -14.9777
  44   2.0000      -0.542132       -14.7522
  45   2.0000      -0.524447       -14.2709
  46   2.0000      -0.513941       -13.9851
  47   2.0000      -0.512320       -13.9409
  48   2.0000      -0.504284       -13.7223
  49   2.0000      -0.494142       -13.4463
  50   2.0000      -0.489219       -13.3123
  51   2.0000      -0.476432       -12.9644
  52   2.0000      -0.472017       -12.8442
  53   2.0000      -0.462841       -12.5946
  54   2.0000      -0.457250       -12.4424
  55   2.0000      -0.448535       -12.2053
  56   2.0000      -0.445977       -12.1357
  57   2.0000      -0.443079       -12.0568
  58   2.0000      -0.437822       -11.9137
  59   2.0000      -0.422717       -11.5027
  60   2.0000      -0.419527       -11.4159
  61   2.0000      -0.413025       -11.2390
  62   2.0000      -0.407834       -11.0977
  63   2.0000      -0.342442        -9.3183
  64   2.0000      -0.333056        -9.0629
  65   2.0000      -0.328662        -8.9434
  66   2.0000      -0.298183        -8.1140
  67   0.0000       0.038701         1.0531
  68   0.0000       0.067850         1.8463
  69   0.0000       0.104771         2.8510
  70   0.0000       0.129020         3.5108
  71   0.0000       0.132579         3.6077

MULLIKEN ATOMIC CHARGES
-----------------------
   0 S :    0.121148
   1 C :   -0.118808
   2 C :   -0.081647
   3 C :    0.030582
   4 C :   -0.170446
   5 H :    0.023739
   6 C :    0.009541
   7 H :    0.037058
   8 H :    0.035298
   9 C :   -0.055426
  10 H :    0.035770
  11 H :    0.024334
  12 C :   -0.055681
  13 H :    0.045191
  14 H :    0.033098
  15 H :    0.021066
  16 S :    0.127323
  17 C :   -0.048748
  18 C :   -0.046493
  19 C :   -0.005912
  20 C :   -0.178551
  21 H :    0.013232
  22 C :    0.000089
  23 H :    0.052670
  24 H :    0.022209
  25 C :   -0.068330
  26 H :    0.032113
  27 H :    0.022422
  28 C :   -0.013279
  29 H :    0.028570
  30 H :    0.027750
  31 H :    0.027158
  32 H :    0.043846
  33 H :    0.029114
Sum of atomic charges:    0.0000000

LOEWDIN ATOMIC CHARGES
----------------------
   0 S :    0.411370
   1 C :   -0.187122
   2 C :   -0.066606
   3 C :   -0.060756
   4 C :   -0.207654
   5 H :    0.036501
   6 C :   -0.042007
   7 H :    0.037047
   8 H :    0.039337
   9 C :   -0.039414
  10 H :    0.026159
  11 H :    0.024078
  12 C :   -0.067854
  13 H :    0.026402
  14 H :    0.024101
  15 H :    0.020871
  16 S :    0.424087
  17 C :   -0.191004
  18 C :   -0.080732
  19 C :   -0.051939
  20 C :   -0.206397
  21 H :    0.031538
  22 C :   -0.046188
  23 H :    0.041228
  24 H :    0.031627
  25 C :   -0.038528
  26 H :    0.028069
  27 H :    0.021068
  28 C :   -0.059873
  29 H :    0.024694
  30 H :    0.025902
  31 H :    0.021741
  32 H :    0.025990
  33 H :    0.024263

  Mayer bond orders larger than 0.100000
B(  0-S ,  1-C ) :   1.1203 B(  0-S ,  4-C ) :   1.1547 B(  1-C ,  2-C ) :   1.6553
B(  1-C , 32-H ) :   0.9620 B(  2-C ,  3-C ) :   1.1978 B(  2-C ,  6-C ) :   1.0208
B(  3-C ,  4-C ) :   1.6201 B(  3-C ,  5-H ) :   0.9889 B(  4-C , 20-C ) :   1.0200
B(  6-C ,  7-H ) :   0.9468 B(  6-C ,  8-H ) :   0.9427 B(  6-C ,  9-C ) :   1.0569
B(  9-C , 10-H ) :   0.9590 B(  9-C , 11-H ) :   0.9542 B(  9-C , 12-C ) :   1.0840
B( 12-C , 13-H ) :   0.9741 B( 12-C , 14-H ) :   0.9734 B( 12-C , 15-H ) :   0.9742
B( 16-S , 17-C ) :   1.1631 B( 16-S , 20-C ) :   1.1542 B( 17-C , 18-C ) :   1.6015
B( 17-C , 20-C ) :   0.1001 B( 17-C , 33-H ) :   0.9647 B( 18-C , 19-C ) :   1.2938
B( 18-C , 21-H ) :   0.9823 B( 19-C , 20-C ) :   1.5509 B( 19-C , 22-C ) :   1.0282
B( 22-C , 23-H ) :   0.9397 B( 22-C , 24-H ) :   0.9390 B( 22-C , 25-C ) :   1.0591
B( 25-C , 26-H ) :   0.9511 B( 25-C , 27-H ) :   0.9552 B( 25-C , 28-C ) :   1.0773
B( 28-C , 29-H ) :   0.9755 B( 28-C , 30-H ) :   0.9731 B( 28-C , 31-H ) :   0.9761

Dispersion correction           -0.014351190
FINAL SINGLE POINT ENERGY     -1339.879616381811

DIPOLE MOMENT
-------------
                                X             Y             Z
Electronic contribution:    -17.56267     -17.84156      -4.75210
Nuclear contribution   :     17.82830      18.49473       4.82847
                        -----------------------------------------
Total Dipole Moment    :      0.26564       0.65317       0.07637
                        -----------------------------------------
Magnitude (a.u.)       :      0.70924
Magnitude (Debye)      :      1.80275

Rotational constants in cm-1:     0.018037     0.008593     0.006803
Rotational constants in MHz :   540.741032   257.606892   203.955253

                             ****ORCA TERMINATED NORMALLY****
TOTAL RUN TIME: 0 days 0 hours 0 minutes 34 seconds 803 msec
