                         Program Version 4.2.1 -  RELEASE  -
|  1> ! wB97X-D3 SP def2-SVP
|  2> %pal
|  3> nprocs 16
|  4> end
|  5>
|  6> * xyz 0 1
|  7> S 	 -8.00076 	 65.2229 	 52.3538
|  8> C 	 -8.27626 	 63.5248 	 51.989
|  9> C 	 -7.59365 	 62.7005 	 52.8829
| 10> C 	 -6.85321 	 63.4381 	 53.8348
| 11> C 	 -6.93854 	 64.8215 	 53.6548
| 12> H 	 -6.37468 	 63.0442 	 54.7062
| 13> C 	 -7.70899 	 61.222 	 53.0215
| 14> H 	 -8.79171 	 60.8988 	 52.8048
| 15> H 	 -7.61257 	 60.9119 	 54.0726
| 16> C 	 -6.80938 	 60.3207 	 52.2003
| 17> H 	 -7.0882 	 60.3276 	 51.1123
| 18> H 	 -5.79844 	 60.6081 	 52.2454
| 19> C 	 -6.77836 	 58.8295 	 52.7654
| 20> H 	 -6.2634 	 58.8564 	 53.7019
| 21> H 	 -7.80876 	 58.5282 	 52.7656
| 22> H 	 -6.13078 	 58.1741 	 52.1344
| 23> S 	 -4.77238 	 65.949 	 55.0334
| 24> C 	 -5.00248 	 67.2438 	 56.15
| 25> C 	 -6.38162 	 67.4646 	 56.3263
| 26> C 	 -7.22659 	 66.6721 	 55.4519
| 27> C 	 -6.4577 	 65.8102 	 54.6264
| 28> H 	 -6.63134 	 68.1848 	 57.1193
| 29> C 	 -8.73066 	 66.6637 	 55.6425
| 30> H 	 -9.34519 	 66.8374 	 54.7422
| 31> H 	 -9.02874 	 67.4098 	 56.3199
| 32> C 	 -9.32358 	 65.3325 	 56.0373
| 33> H 	 -8.8095 	 64.9441 	 56.9326
| 34> H 	 -9.22413 	 64.5895 	 55.2528
| 35> C 	 -10.8563 	 65.4169 	 56.3461
| 36> H 	 -11.2104 	 64.4747 	 56.7756
| 37> H 	 -11.3913 	 65.6007 	 55.4525
| 38> H 	 -11.0455 	 66.2725 	 56.9836
| 39> H 	 -8.93419 	 63.128 	 51.1686
| 40> H 	 -4.24193 	 67.646 	 56.7781
| 41> *
| 42>
| 43>                          ****END OF INPUT****

CARTESIAN COORDINATES (ANGSTROEM)
---------------------------------
  S     -8.000760   65.222900   52.353800
  C     -8.276260   63.524800   51.989000
  C     -7.593650   62.700500   52.882900
  C     -6.853210   63.438100   53.834800
  C     -6.938540   64.821500   53.654800
  H     -6.374680   63.044200   54.706200
  C     -7.708990   61.222000   53.021500
  H     -8.791710   60.898800   52.804800
  H     -7.612570   60.911900   54.072600
  C     -6.809380   60.320700   52.200300
  H     -7.088200   60.327600   51.112300
  H     -5.798440   60.608100   52.245400
  C     -6.778360   58.829500   52.765400
  H     -6.263400   58.856400   53.701900
  H     -7.808760   58.528200   52.765600
  H     -6.130780   58.174100   52.134400
  S     -4.772380   65.949000   55.033400
  C     -5.002480   67.243800   56.150000
  C     -6.381620   67.464600   56.326300
  C     -7.226590   66.672100   55.451900
  C     -6.457700   65.810200   54.626400
  H     -6.631340   68.184800   57.119300
  C     -8.730660   66.663700   55.642500
  H     -9.345190   66.837400   54.742200
  H     -9.028740   67.409800   56.319900
  C     -9.323580   65.332500   56.037300
  H     -8.809500   64.944100   56.932600
  H     -9.224130   64.589500   55.252800
  C    -10.856300   65.416900   56.346100
  H    -11.210400   64.474700   56.775600
  H    -11.391300   65.600700   55.452500
  H    -11.045500   66.272500   56.983600
  H     -8.934190   63.128000   51.168600
  H     -4.241930   67.646000   56.778100

 Total Charge           Charge          ....    0
 Multiplicity           Mult            ....    1
 Number of Electrons    NEL             ....  134
 Basis Dimension        Dim             ....  322

ORBITAL ENERGIES
----------------

  NO   OCC          E(Eh)            E(eV)
   0   2.0000     -88.973901     -2421.1029
   1   2.0000     -88.967563     -2420.9305
   2   2.0000     -10.330603      -281.1100
   3   2.0000     -10.329854      -281.0896
   4   2.0000     -10.322772      -280.8969
   5   2.0000     -10.316308      -280.7210
   6   2.0000     -10.310014      -280.5497
   7   2.0000     -10.302724      -280.3514
   8   2.0000     -10.300005      -280.2774
   9   2.0000     -10.297210      -280.2013
  10   2.0000     -10.293226      -280.0929
  11   2.0000     -10.286312      -279.9048
  12   2.0000     -10.285062      -279.8708
  13   2.0000     -10.281889      -279.7844
  14   2.0000     -10.278644      -279.6961
  15   2.0000     -10.272343      -279.5247
  16   2.0000      -8.088127      -220.0891
  17   2.0000      -8.082475      -219.9353
  18   2.0000      -6.046530      -164.5344
  19   2.0000      -6.042612      -164.4278
  20   2.0000      -6.040844      -164.3797
  21   2.0000      -6.039107      -164.3324
  22   2.0000      -6.036778      -164.2691
  23   2.0000      -6.033554      -164.1813
  24   2.0000      -1.007294       -27.4099
  25   2.0000      -0.984863       -26.7995
  26   2.0000      -0.912889       -24.8410
  27   2.0000      -0.908842       -24.7308
  28   2.0000      -0.866538       -23.5797
  29   2.0000      -0.852684       -23.2027
  30   2.0000      -0.844949       -22.9922
  31   2.0000      -0.810189       -22.0464
  32   2.0000      -0.782059       -21.2809
  33   2.0000      -0.770884       -20.9768
  34   2.0000      -0.704787       -19.1782
  35   2.0000      -0.700785       -19.0693
  36   2.0000      -0.687457       -18.7067
  37   2.0000      -0.660846       -17.9825
  38   2.0000      -0.641536       -17.4571
  39   2.0000      -0.621313       -16.9068
  40   2.0000      -0.597933       -16.2706
  41   2.0000      -0.572039       -15.5660
  42   2.0000      -0.566780       -15.4229
  43   2.0000      -0.563134       -15.3237
  44   2.0000      -0.526414       -14.3245
  45   2.0000      -0.520396       -14.1607
  46   2.0000      -0.515349       -14.0234
  47   2.0000      -0.511282       -13.9127
  48   2.0000      -0.503775       -13.7084
  49   2.0000      -0.501936       -13.6584
  50   2.0000      -0.487484       -13.2651
  51   2.0000      -0.483715       -13.1625
  52   2.0000      -0.473092       -12.8735
  53   2.0000      -0.468216       -12.7408
  54   2.0000      -0.460461       -12.5298
  55   2.0000      -0.450581       -12.2609
  56   2.0000      -0.441228       -12.0064
  57   2.0000      -0.437809       -11.9134
  58   2.0000      -0.433305       -11.7908
  59   2.0000      -0.420012       -11.4291
  60   2.0000      -0.418314       -11.3829
  61   2.0000      -0.415434       -11.3045
  62   2.0000      -0.412505       -11.2248
  63   2.0000      -0.341545        -9.2939
  64   2.0000      -0.334885        -9.1127
  65   2.0000      -0.327676        -8.9165
  66   2.0000      -0.294951        -8.0260
  67   0.0000       0.028162         0.7663
  68   0.0000       0.066511         1.8098
  69   0.0000       0.105477         2.8702
  70   0.0000       0.125720         3.4210
  71   0.0000       0.127292         3.4638

MULLIKEN ATOMIC CHARGES
-----------------------
   0 S :    0.132142
   1 C :   -0.147826
   2 C :   -0.036305
   3 C :    0.027491
   4 C :   -0.164585
   5 H :    0.010249
   6 C :    0.015744
   7 H :    0.030628
   8 H :    0.021614
   9 C :   -0.068847
  10 H :    0.035837
  11 H :    0.017043
  12 C :   -0.061906
  13 H :    0.034778
  14 H :    0.037694
  15 H :    0.040100
  16 S :    0.120606
  17 C :   -0.098842
  18 C :   -0.059031
  19 C :   -0.000589
  20 C :   -0.165904
  21 H :    0.031908
  22 C :    0.092648
  23 H :    0.020331
  24 H :    0.000030
  25 C :   -0.105004
  26 H :    0.025043
  27 H :    0.042111
  28 C :   -0.030178
  29 H :    0.039344
  30 H :    0.018787
  31 H :    0.021559
  32 H :    0.067751
  33 H :    0.055577
Sum of atomic charges:    0.0000000

LOEWDIN ATOMIC CHARGES
----------------------
   0 S :    0.431338
   1 C :   -0.204769
   2 C :   -0.066976
   3 C :   -0.055557
   4 C :   -0.205095
   5 H :    0.029060
   6 C :   -0.043151
   7 H :    0.036985
   8 H :    0.031559
   9 C :   -0.039323
  10 H :    0.026198
  11 H :    0.014497
  12 C :   -0.059863
  13 H :    0.021917
  14 H :    0.021337
  15 H :    0.031199
  16 S :    0.431821
  17 C :   -0.199228
  18 C :   -0.073712
  19 C :   -0.052310
  20 C :   -0.210280
  21 H :    0.035692
  22 C :   -0.037152
  23 H :    0.032793
  24 H :    0.021413
  25 C :   -0.037169
  26 H :    0.019003
  27 H :    0.023048
  28 C :   -0.058863
  29 H :    0.029430
  30 H :    0.017459
  31 H :    0.020816
  32 H :    0.041100
  33 H :    0.026785

  Mayer bond orders larger than 0.100000
B(  0-S ,  1-C ) :   1.1469 B(  0-S ,  4-C ) :   1.1722 B(  1-C ,  2-C ) :   1.5833
B(  1-C , 32-H ) :   0.9629 B(  2-C ,  3-C ) :   1.2719 B(  2-C ,  6-C ) :   1.0235
B(  3-C ,  4-C ) :   1.5452 B(  3-C ,  5-H ) :   0.9962 B(  4-C , 20-C ) :   1.0246
B(  6-C ,  7-H ) :   0.9369 B(  6-C ,  8-H ) :   0.9468 B(  6-C ,  9-C ) :   1.0618
B(  9-C , 10-H ) :   0.9565 B(  9-C , 11-H ) :   0.9587 B(  9-C , 12-C ) :   1.0722
B( 12-C , 13-H ) :   0.9772 B( 12-C , 14-H ) :   0.9797 B( 12-C , 15-H ) :   0.9760
B( 16-S , 17-C ) :   1.1756 B( 16-S , 20-C ) :   1.1660 B( 17-C , 18-C ) :   1.5785
B( 17-C , 20-C ) :   0.1031 B( 17-C , 33-H ) :   0.9706 B( 18-C , 19-C ) :   1.2661
B( 18-C , 21-H ) :   0.9870 B( 19-C , 20-C ) :   1.5326 B( 19-C , 22-C ) :   1.0556
B( 22-C , 23-H ) :   0.9269 B( 22-C , 24-H ) :   0.9340 B( 22-C , 25-C ) :   1.0592
B( 25-C , 26-H ) :   0.9577 B( 25-C , 27-H ) :   0.9529 B( 25-C , 28-C ) :   1.0832
B( 28-C , 29-H ) :   0.9748 B( 28-C , 30-H ) :   0.9742 B( 28-C , 31-H ) :   0.9757

Dispersion correction           -0.014669897
FINAL SINGLE POINT ENERGY     -1339.882552486923

DIPOLE MOMENT
-------------
                                X             Y             Z
Electronic contribution:     13.96079      19.40194      -4.91733
Nuclear contribution   :    -14.25344     -19.78458       5.25268
                        -----------------------------------------
Total Dipole Moment    :     -0.29264      -0.38264       0.33535
                        -----------------------------------------
Magnitude (a.u.)       :      0.58695
Magnitude (Debye)      :      1.49191

Rotational constants in cm-1:     0.018814     0.008171     0.006949
Rotational constants in MHz :   564.030767   244.962284   208.324806

                             ****ORCA TERMINATED NORMALLY****
TOTAL RUN TIME: 0 days 0 hours 0 minutes 33 seconds 881 msec
