                         Program Version 4.2.1 -  RELEASE  -
|  1> ! wB97X-D3 SP def2-SVP
|  2> %pal
|  3> nprocs 16
|  4> end
|  5>
|  6> * xyz 0 1
|  7> S 	 -45.8716 	 66.094 	 129.222
|  8> C 	 -45.0823 	 64.5597 	 129.442
|  9> C 	 -44.2311 	 64.5918 	 130.491
| 10> C 	 -44.3645 	 65.7512 	 131.267
| 11> C 	 -45.452 	 66.5316 	 130.863
| 12> H 	 -43.7232 	 65.9965 	 132.119
| 13> C 	 -43.0427 	 63.6534 	 130.731
| 14> H 	 -43.4486 	 62.8062 	 131.275
| 15> H 	 -42.3772 	 64.1751 	 131.412
| 16> C 	 -42.3821 	 63.1522 	 129.501
| 17> H 	 -41.7878 	 62.3078 	 129.91
| 18> H 	 -43.0426 	 62.794 	 128.726
| 19> C 	 -41.3276 	 64.1252 	 128.857
| 20> H 	 -41.8282 	 65.0108 	 128.492
| 21> H 	 -40.6992 	 64.4856 	 129.689
| 22> H 	 -40.4829 	 63.7215 	 128.173
| 23> S 	 -46.449 	 69.1244 	 130.375
| 24> C 	 -46.721 	 70.1075 	 131.736
| 25> C 	 -46.488 	 69.4749 	 132.924
| 26> C 	 -45.8553 	 68.1743 	 132.821
| 27> C 	 -45.8472 	 67.792 	 131.494
| 28> H 	 -46.6502 	 69.8316 	 133.904
| 29> C 	 -45.7409 	 67.3902 	 134.103
| 30> H 	 -45.6814 	 68.1481 	 134.841
| 31> H 	 -44.7434 	 66.8986 	 134.194
| 32> C 	 -46.9132 	 66.4875 	 134.433
| 33> H 	 -47.1404 	 65.7432 	 133.713
| 34> H 	 -47.8461 	 67.1068 	 134.271
| 35> C 	 -46.7523 	 65.8311 	 135.78
| 36> H 	 -47.6208 	 65.2546 	 135.905
| 37> H 	 -46.6747 	 66.537 	 136.634
| 38> H 	 -45.908 	 65.1682 	 135.752
| 39> H 	 -45.0178 	 63.7692 	 128.69
| 40> H 	 -46.9541 	 71.1809 	 131.78
| 41> *
| 42>
| 43>                          ****END OF INPUT****

CARTESIAN COORDINATES (ANGSTROEM)
---------------------------------
  S    -45.871600   66.094000  129.222000
  C    -45.082300   64.559700  129.442000
  C    -44.231100   64.591800  130.491000
  C    -44.364500   65.751200  131.267000
  C    -45.452000   66.531600  130.863000
  H    -43.723200   65.996500  132.119000
  C    -43.042700   63.653400  130.731000
  H    -43.448600   62.806200  131.275000
  H    -42.377200   64.175100  131.412000
  C    -42.382100   63.152200  129.501000
  H    -41.787800   62.307800  129.910000
  H    -43.042600   62.794000  128.726000
  C    -41.327600   64.125200  128.857000
  H    -41.828200   65.010800  128.492000
  H    -40.699200   64.485600  129.689000
  H    -40.482900   63.721500  128.173000
  S    -46.449000   69.124400  130.375000
  C    -46.721000   70.107500  131.736000
  C    -46.488000   69.474900  132.924000
  C    -45.855300   68.174300  132.821000
  C    -45.847200   67.792000  131.494000
  H    -46.650200   69.831600  133.904000
  C    -45.740900   67.390200  134.103000
  H    -45.681400   68.148100  134.841000
  H    -44.743400   66.898600  134.194000
  C    -46.913200   66.487500  134.433000
  H    -47.140400   65.743200  133.713000
  H    -47.846100   67.106800  134.271000
  C    -46.752300   65.831100  135.780000
  H    -47.620800   65.254600  135.905000
  H    -46.674700   66.537000  136.634000
  H    -45.908000   65.168200  135.752000
  H    -45.017800   63.769200  128.690000
  H    -46.954100   71.180900  131.780000

 Total Charge           Charge          ....    0
 Multiplicity           Mult            ....    1
 Number of Electrons    NEL             ....  134
 Basis Dimension        Dim             ....  322

ORBITAL ENERGIES
----------------

  NO   OCC          E(Eh)            E(eV)
   0   2.0000     -88.966925     -2420.9131
   1   2.0000     -88.966538     -2420.9026
   2   2.0000     -10.333360      -281.1850
   3   2.0000     -10.329702      -281.0855
   4   2.0000     -10.314151      -280.6623
   5   2.0000     -10.306767      -280.4614
   6   2.0000     -10.301086      -280.3068
   7   2.0000     -10.291867      -280.0559
   8   2.0000     -10.291287      -280.0402
   9   2.0000     -10.290892      -280.0294
  10   2.0000     -10.290386      -280.0156
  11   2.0000     -10.289307      -279.9863
  12   2.0000     -10.286544      -279.9111
  13   2.0000     -10.284185      -279.8469
  14   2.0000     -10.283607      -279.8312
  15   2.0000     -10.274598      -279.5860
  16   2.0000      -8.081429      -219.9069
  17   2.0000      -8.081394      -219.9059
  18   2.0000      -6.040069      -164.3586
  19   2.0000      -6.039987      -164.3564
  20   2.0000      -6.036329      -164.2568
  21   2.0000      -6.036157      -164.2522
  22   2.0000      -6.031862      -164.1353
  23   2.0000      -6.031667      -164.1300
  24   2.0000      -1.008016       -27.4295
  25   2.0000      -0.986215       -26.8363
  26   2.0000      -0.917287       -24.9607
  27   2.0000      -0.915839       -24.9212
  28   2.0000      -0.866201       -23.5705
  29   2.0000      -0.858150       -23.3514
  30   2.0000      -0.845607       -23.0101
  31   2.0000      -0.806414       -21.9436
  32   2.0000      -0.786341       -21.3974
  33   2.0000      -0.776270       -21.1234
  34   2.0000      -0.712220       -19.3805
  35   2.0000      -0.705005       -19.1842
  36   2.0000      -0.689926       -18.7738
  37   2.0000      -0.665916       -18.1205
  38   2.0000      -0.631918       -17.1954
  39   2.0000      -0.613922       -16.7057
  40   2.0000      -0.598074       -16.2744
  41   2.0000      -0.574567       -15.6348
  42   2.0000      -0.560981       -15.2651
  43   2.0000      -0.552999       -15.0479
  44   2.0000      -0.537038       -14.6135
  45   2.0000      -0.529750       -14.4152
  46   2.0000      -0.516567       -14.0565
  47   2.0000      -0.514151       -13.9908
  48   2.0000      -0.500704       -13.6248
  49   2.0000      -0.497060       -13.5257
  50   2.0000      -0.492084       -13.3903
  51   2.0000      -0.479746       -13.0545
  52   2.0000      -0.470604       -12.8058
  53   2.0000      -0.465563       -12.6686
  54   2.0000      -0.459836       -12.5128
  55   2.0000      -0.455328       -12.3901
  56   2.0000      -0.446306       -12.1446
  57   2.0000      -0.440946       -11.9988
  58   2.0000      -0.434984       -11.8365
  59   2.0000      -0.427678       -11.6377
  60   2.0000      -0.421085       -11.4583
  61   2.0000      -0.408619       -11.1191
  62   2.0000      -0.405076       -11.0227
  63   2.0000      -0.359382        -9.7793
  64   2.0000      -0.333711        -9.0807
  65   2.0000      -0.326859        -8.8943
  66   2.0000      -0.278457        -7.5772
  67   0.0000       0.017329         0.4716
  68   0.0000       0.070178         1.9096
  69   0.0000       0.096360         2.6221
  70   0.0000       0.124147         3.3782
  71   0.0000       0.133265         3.6263

MULLIKEN ATOMIC CHARGES
-----------------------
   0 S :    0.097513
   1 C :   -0.115081
   2 C :   -0.092823
   3 C :   -0.022989
   4 C :   -0.103568
   5 H :    0.019596
   6 C :    0.100679
   7 H :    0.037776
   8 H :    0.017565
   9 C :   -0.082169
  10 H :    0.029740
  11 H :    0.035641
  12 C :   -0.079616
  13 H :    0.042674
  14 H :    0.014290
  15 H :    0.055644
  16 S :    0.098097
  17 C :   -0.065923
  18 C :   -0.028040
  19 C :   -0.062359
  20 C :   -0.151605
  21 H :   -0.005023
  22 C :    0.073277
  23 H :   -0.001161
  24 H :    0.020677
  25 C :   -0.066288
  26 H :    0.023104
  27 H :    0.022414
  28 C :   -0.002087
  29 H :    0.022669
  30 H :    0.034202
  31 H :    0.028588
  32 H :    0.040554
  33 H :    0.064031
Sum of atomic charges:    0.0000000

LOEWDIN ATOMIC CHARGES
----------------------
   0 S :    0.404055
   1 C :   -0.205884
   2 C :   -0.069378
   3 C :   -0.066690
   4 C :   -0.185841
   5 H :    0.031521
   6 C :   -0.026014
   7 H :    0.037454
   8 H :    0.029910
   9 C :   -0.042957
  10 H :    0.030941
  11 H :    0.020955
  12 C :   -0.079861
  13 H :    0.023867
  14 H :    0.022918
  15 H :    0.039571
  16 S :    0.379716
  17 C :   -0.203326
  18 C :   -0.067882
  19 C :   -0.056624
  20 C :   -0.159383
  21 H :    0.019927
  22 C :   -0.031080
  23 H :    0.023787
  24 H :    0.029414
  25 C :   -0.041018
  26 H :    0.023257
  27 H :    0.031220
  28 C :   -0.055467
  29 H :    0.023351
  30 H :    0.027870
  31 H :    0.025163
  32 H :    0.026734
  33 H :    0.039773

  Mayer bond orders larger than 0.100000
B(  0-S ,  1-C ) :   1.1274 B(  0-S ,  4-C ) :   1.1571 B(  1-C ,  2-C ) :   1.6179
B(  1-C , 32-H ) :   0.9634 B(  2-C ,  3-C ) :   1.2747 B(  2-C ,  6-C ) :   0.9990
B(  3-C ,  4-C ) :   1.5192 B(  3-C ,  5-H ) :   0.9926 B(  4-C , 20-C ) :   1.1002
B(  6-C ,  7-H ) :   0.9250 B(  6-C ,  8-H ) :   0.9462 B(  6-C ,  9-C ) :   1.0841
B(  9-C , 10-H ) :   0.9508 B(  9-C , 11-H ) :   0.9568 B(  9-C , 12-C ) :   1.0628
B( 12-C , 13-H ) :   0.9786 B( 12-C , 14-H ) :   0.9714 B( 12-C , 15-H ) :   0.9770
B( 16-S , 17-C ) :   1.1405 B( 16-S , 20-C ) :   1.1058 B( 17-C , 18-C ) :   1.6293
B( 17-C , 33-H ) :   0.9583 B( 18-C , 19-C ) :   1.2283 B( 18-C , 21-H ) :   0.9852
B( 19-C , 20-C ) :   1.6231 B( 19-C , 22-C ) :   1.0557 B( 22-C , 23-H ) :   0.9248
B( 22-C , 24-H ) :   0.9266 B( 22-C , 25-C ) :   1.0617 B( 25-C , 26-H ) :   0.9519
B( 25-C , 27-H ) :   0.9472 B( 25-C , 28-C ) :   1.0811 B( 28-C , 29-H ) :   0.9700
B( 28-C , 30-H ) :   0.9756 B( 28-C , 31-H ) :   0.9720

Dispersion correction           -0.014042896
FINAL SINGLE POINT ENERGY     -1339.853124342299

DIPOLE MOMENT
-------------
                                X             Y             Z
Electronic contribution:    -12.15490      15.83331     -14.91190
Nuclear contribution   :     12.51720     -16.10064      15.51440
                        -----------------------------------------
Total Dipole Moment    :      0.36230      -0.26733       0.60250
                        -----------------------------------------
Magnitude (a.u.)       :      0.75215
Magnitude (Debye)      :      1.91182

Rotational constants in cm-1:     0.019065     0.008467     0.006614
Rotational constants in MHz :   571.560623   253.844456   198.297161

                             ****ORCA TERMINATED NORMALLY****
TOTAL RUN TIME: 0 days 0 hours 0 minutes 35 seconds 348 msec
