                         Program Version 4.2.1 -  RELEASE  -
|  1> ! wB97X-D3 SP def2-SVP
|  2> %pal
|  3> nprocs 16
|  4> end
|  5>
|  6> * xyz 0 1
|  7> S 	 57.1191 	 3.61493 	 87.6799
|  8> C 	 57.465 	 4.28226 	 86.1106
|  9> C 	 56.4151 	 4.00805 	 85.2121
| 10> C 	 55.4308 	 3.11366 	 85.7783
| 11> C 	 55.7035 	 2.75955 	 87.0625
| 12> H 	 54.5864 	 2.62408 	 85.2976
| 13> C 	 56.2399 	 4.40002 	 83.7317
| 14> H 	 56.74 	 5.3336 	 83.5097
| 15> H 	 55.2278 	 4.59824 	 83.5373
| 16> C 	 56.6784 	 3.28164 	 82.7917
| 17> H 	 57.7406 	 3.08479 	 83.0582
| 18> H 	 56.1622 	 2.34804 	 82.9266
| 19> C 	 56.4751 	 3.5857 	 81.2808
| 20> H 	 57.0547 	 4.40436 	 80.8009
| 21> H 	 56.9416 	 2.7815 	 80.8092
| 22> H 	 55.4503 	 3.67721 	 81.0089
| 23> S 	 54.2367 	 2.36453 	 89.3417
| 24> C 	 53.459 	 0.857222 	 89.6672
| 25> C 	 53.8673 	 -0.114763 	 88.6918
| 26> C 	 54.5754 	 0.474536 	 87.6179
| 27> C 	 54.9816 	 1.76686 	 87.864
| 28> H 	 53.5586 	 -1.16511 	 88.8087
| 29> C 	 54.9308 	 -0.373902 	 86.3673
| 30> H 	 55.4369 	 0.228684 	 85.6183
| 31> H 	 53.9565 	 -0.85357 	 86.0001
| 32> C 	 55.9321 	 -1.55447 	 86.6415
| 33> H 	 55.464 	 -2.46229 	 87.0761
| 34> H 	 56.6983 	 -1.34461 	 87.3865
| 35> C 	 56.6633 	 -2.07383 	 85.4039
| 36> H 	 57.6007 	 -1.54088 	 85.132
| 37> H 	 56.0436 	 -1.96152 	 84.5802
| 38> H 	 56.8526 	 -3.10536 	 85.6033
| 39> H 	 58.2469 	 5.04646 	 85.9173
| 40> H 	 52.9765 	 0.734393 	 90.6751
| 41> *
| 42>
| 43>                          ****END OF INPUT****

CARTESIAN COORDINATES (ANGSTROEM)
---------------------------------
  S     57.119100    3.614930   87.679900
  C     57.465000    4.282260   86.110600
  C     56.415100    4.008050   85.212100
  C     55.430800    3.113660   85.778300
  C     55.703500    2.759550   87.062500
  H     54.586400    2.624080   85.297600
  C     56.239900    4.400020   83.731700
  H     56.740000    5.333600   83.509700
  H     55.227800    4.598240   83.537300
  C     56.678400    3.281640   82.791700
  H     57.740600    3.084790   83.058200
  H     56.162200    2.348040   82.926600
  C     56.475100    3.585700   81.280800
  H     57.054700    4.404360   80.800900
  H     56.941600    2.781500   80.809200
  H     55.450300    3.677210   81.008900
  S     54.236700    2.364530   89.341700
  C     53.459000    0.857222   89.667200
  C     53.867300   -0.114763   88.691800
  C     54.575400    0.474536   87.617900
  C     54.981600    1.766860   87.864000
  H     53.558600   -1.165110   88.808700
  C     54.930800   -0.373902   86.367300
  H     55.436900    0.228684   85.618300
  H     53.956500   -0.853570   86.000100
  C     55.932100   -1.554470   86.641500
  H     55.464000   -2.462290   87.076100
  H     56.698300   -1.344610   87.386500
  C     56.663300   -2.073830   85.403900
  H     57.600700   -1.540880   85.132000
  H     56.043600   -1.961520   84.580200
  H     56.852600   -3.105360   85.603300
  H     58.246900    5.046460   85.917300
  H     52.976500    0.734393   90.675100

 Total Charge           Charge          ....    0
 Multiplicity           Mult            ....    1
 Number of Electrons    NEL             ....  134
 Basis Dimension        Dim             ....  322

ORBITAL ENERGIES
----------------

  NO   OCC          E(Eh)            E(eV)
   0   2.0000     -88.965950     -2420.8866
   1   2.0000     -88.963563     -2420.8216
   2   2.0000     -10.327578      -281.0277
   3   2.0000     -10.326151      -280.9889
   4   2.0000     -10.325594      -280.9737
   5   2.0000     -10.320065      -280.8232
   6   2.0000     -10.307095      -280.4703
   7   2.0000     -10.306778      -280.4617
   8   2.0000     -10.303575      -280.3745
   9   2.0000     -10.301751      -280.3249
  10   2.0000     -10.292433      -280.0713
  11   2.0000     -10.288529      -279.9651
  12   2.0000     -10.287273      -279.9309
  13   2.0000     -10.285385      -279.8796
  14   2.0000     -10.274223      -279.5758
  15   2.0000     -10.269436      -279.4456
  16   2.0000      -8.080618      -219.8848
  17   2.0000      -8.078776      -219.8347
  18   2.0000      -6.039190      -164.3347
  19   2.0000      -6.037139      -164.2789
  20   2.0000      -6.035133      -164.2243
  21   2.0000      -6.033024      -164.1669
  22   2.0000      -6.031315      -164.1204
  23   2.0000      -6.029854      -164.0807
  24   2.0000      -1.005476       -27.3604
  25   2.0000      -0.982354       -26.7312
  26   2.0000      -0.909672       -24.7534
  27   2.0000      -0.902770       -24.5656
  28   2.0000      -0.866144       -23.5690
  29   2.0000      -0.854070       -23.2404
  30   2.0000      -0.846792       -23.0424
  31   2.0000      -0.809592       -22.0301
  32   2.0000      -0.782293       -21.2873
  33   2.0000      -0.772144       -21.0111
  34   2.0000      -0.702507       -19.1162
  35   2.0000      -0.697017       -18.9668
  36   2.0000      -0.690123       -18.7792
  37   2.0000      -0.661503       -18.0004
  38   2.0000      -0.643873       -17.5207
  39   2.0000      -0.617985       -16.8162
  40   2.0000      -0.595716       -16.2103
  41   2.0000      -0.570472       -15.5233
  42   2.0000      -0.560953       -15.2643
  43   2.0000      -0.553173       -15.0526
  44   2.0000      -0.528754       -14.3881
  45   2.0000      -0.526791       -14.3347
  46   2.0000      -0.517557       -14.0835
  47   2.0000      -0.509058       -13.8522
  48   2.0000      -0.503885       -13.7114
  49   2.0000      -0.499611       -13.5951
  50   2.0000      -0.485992       -13.2245
  51   2.0000      -0.480046       -13.0627
  52   2.0000      -0.476777       -12.9738
  53   2.0000      -0.467389       -12.7183
  54   2.0000      -0.459293       -12.4980
  55   2.0000      -0.446762       -12.1570
  56   2.0000      -0.441938       -12.0258
  57   2.0000      -0.434937       -11.8352
  58   2.0000      -0.432382       -11.7657
  59   2.0000      -0.424697       -11.5566
  60   2.0000      -0.420963       -11.4550
  61   2.0000      -0.418470       -11.3871
  62   2.0000      -0.409157       -11.1337
  63   2.0000      -0.343803        -9.3554
  64   2.0000      -0.331169        -9.0116
  65   2.0000      -0.327544        -8.9129
  66   2.0000      -0.295301        -8.0355
  67   0.0000       0.033756         0.9185
  68   0.0000       0.064497         1.7551
  69   0.0000       0.113565         3.0903
  70   0.0000       0.119212         3.2439
  71   0.0000       0.128752         3.5035

MULLIKEN ATOMIC CHARGES
-----------------------
   0 S :    0.111569
   1 C :   -0.127164
   2 C :   -0.106720
   3 C :    0.030081
   4 C :   -0.151891
   5 H :    0.020018
   6 C :    0.119199
   7 H :    0.015478
   8 H :    0.005183
   9 C :   -0.099572
  10 H :    0.030999
  11 H :    0.026359
  12 C :   -0.024101
  13 H :    0.028198
  14 H :    0.017007
  15 H :    0.033679
  16 S :    0.102467
  17 C :   -0.129258
  18 C :   -0.048648
  19 C :   -0.027654
  20 C :   -0.157461
  21 H :    0.035741
  22 C :    0.060590
  23 H :    0.028774
  24 H :    0.050086
  25 C :   -0.105672
  26 H :    0.023182
  27 H :    0.034192
  28 C :   -0.026172
  29 H :    0.041663
  30 H :    0.008840
  31 H :    0.027320
  32 H :    0.065641
  33 H :    0.088048
Sum of atomic charges:   -0.0000000

LOEWDIN ATOMIC CHARGES
----------------------
   0 S :    0.401178
   1 C :   -0.211030
   2 C :   -0.056513
   3 C :   -0.061957
   4 C :   -0.191302
   5 H :    0.035298
   6 C :   -0.028437
   7 H :    0.027688
   8 H :    0.021987
   9 C :   -0.035991
  10 H :    0.027894
  11 H :    0.022301
  12 C :   -0.065455
  13 H :    0.028496
  14 H :    0.022163
  15 H :    0.021586
  16 S :    0.416506
  17 C :   -0.202639
  18 C :   -0.073554
  19 C :   -0.058915
  20 C :   -0.201711
  21 H :    0.036339
  22 C :   -0.030087
  23 H :    0.027374
  24 H :    0.043559
  25 C :   -0.047059
  26 H :    0.022485
  27 H :    0.025426
  28 C :   -0.060517
  29 H :    0.030030
  30 H :    0.012410
  31 H :    0.026020
  32 H :    0.037130
  33 H :    0.039298

  Mayer bond orders larger than 0.100000
B(  0-S ,  1-C ) :   1.1355 B(  0-S ,  4-C ) :   1.1438 B(  1-C ,  2-C ) :   1.6208
B(  1-C , 32-H ) :   0.9636 B(  2-C ,  3-C ) :   1.2065 B(  2-C ,  6-C ) :   1.0342
B(  3-C ,  4-C ) :   1.6089 B(  3-C ,  5-H ) :   0.9954 B(  4-C , 20-C ) :   1.0015
B(  6-C ,  7-H ) :   0.9407 B(  6-C ,  8-H ) :   0.9346 B(  6-C ,  9-C ) :   1.0632
B(  9-C , 10-H ) :   0.9564 B(  9-C , 11-H ) :   0.9563 B(  9-C , 12-C ) :   1.0769
B( 12-C , 13-H ) :   0.9744 B( 12-C , 14-H ) :   0.9712 B( 12-C , 15-H ) :   0.9759
B( 16-S , 17-C ) :   1.1906 B( 16-S , 20-C ) :   1.1528 B( 17-C , 18-C ) :   1.5531
B( 17-C , 20-C ) :   0.1137 B( 17-C , 33-H ) :   0.9615 B( 18-C , 19-C ) :   1.2541
B( 18-C , 21-H ) :   0.9905 B( 19-C , 20-C ) :   1.5994 B( 19-C , 22-C ) :   1.0437
B( 22-C , 23-H ) :   0.9445 B( 22-C , 24-H ) :   0.9302 B( 22-C , 25-C ) :   1.0527
B( 25-C , 26-H ) :   0.9596 B( 25-C , 27-H ) :   0.9598 B( 25-C , 28-C ) :   1.0859
B( 28-C , 29-H ) :   0.9749 B( 28-C , 30-H ) :   0.9741 B( 28-C , 31-H ) :   0.9764

Dispersion correction           -0.013802870
FINAL SINGLE POINT ENERGY     -1339.871539192777

DIPOLE MOMENT
-------------
                                X             Y             Z
Electronic contribution:     -4.55996      12.86626      28.20841
Nuclear contribution   :      4.49177     -13.23994     -28.77323
                        -----------------------------------------
Total Dipole Moment    :     -0.06819      -0.37368      -0.56482
                        -----------------------------------------
Magnitude (a.u.)       :      0.68067
Magnitude (Debye)      :      1.73012

Rotational constants in cm-1:     0.016666     0.008916     0.006731
Rotational constants in MHz :   499.647444   267.300577   201.779802

                             ****ORCA TERMINATED NORMALLY****
TOTAL RUN TIME: 0 days 0 hours 0 minutes 27 seconds 841 msec
