                         Program Version 4.2.1 -  RELEASE  -
|  1> ! wB97X-D3 SP def2-SVP
|  2> %pal
|  3> nprocs 16
|  4> end
|  5>
|  6> * xyz 0 1
|  7> S 	 40.1656 	 8.94604 	 88.1704
|  8> C 	 39.7427 	 7.46778 	 88.9622
|  9> C 	 38.856 	 6.68198 	 88.3347
| 10> C 	 38.4765 	 7.32836 	 87.0695
| 11> C 	 39.0983 	 8.50251 	 86.8407
| 12> H 	 37.7463 	 7.03808 	 86.4219
| 13> C 	 38.2657 	 5.44189 	 88.8336
| 14> H 	 39.0385 	 4.75047 	 88.9783
| 15> H 	 37.5866 	 5.13975 	 88.0266
| 16> C 	 37.398 	 5.4752 	 90.1214
| 17> H 	 36.9899 	 4.45726 	 90.2717
| 18> H 	 38.0331 	 5.59971 	 91.0488
| 19> C 	 36.2669 	 6.55272 	 90.1053
| 20> H 	 35.6468 	 6.32236 	 89.2357
| 21> H 	 35.6458 	 6.55231 	 90.9503
| 22> H 	 36.5716 	 7.57227 	 89.9689
| 23> S 	 38.1987 	 11.068 	 86.2329
| 24> C 	 37.7689 	 11.4878 	 84.574
| 25> C 	 38.2162 	 10.4784 	 83.7031
| 26> C 	 38.8186 	 9.38438 	 84.3808
| 27> C 	 38.7208 	 9.42189 	 85.7504
| 28> H 	 38.2369 	 10.5837 	 82.6094
| 29> C 	 39.4482 	 8.2578 	 83.5561
| 30> H 	 38.8503 	 8.0795 	 82.7202
| 31> H 	 39.3219 	 7.31987 	 84.0686
| 32> C 	 40.9106 	 8.46648 	 83.0737
| 33> H 	 40.9117 	 9.30782 	 82.3904
| 34> H 	 41.2373 	 7.57485 	 82.5251
| 35> C 	 41.8586 	 8.75322 	 84.1739
| 36> H 	 41.7579 	 7.81354 	 84.7529
| 37> H 	 41.602 	 9.63297 	 84.785
| 38> H 	 42.8515 	 8.92406 	 83.7044
| 39> H 	 40.101 	 7.34205 	 89.9475
| 40> H 	 37.2171 	 12.4243 	 84.2335
| 41> *
| 42>
| 43>                          ****END OF INPUT****

CARTESIAN COORDINATES (ANGSTROEM)
---------------------------------
  S     40.165600    8.946040   88.170400
  C     39.742700    7.467780   88.962200
  C     38.856000    6.681980   88.334700
  C     38.476500    7.328360   87.069500
  C     39.098300    8.502510   86.840700
  H     37.746300    7.038080   86.421900
  C     38.265700    5.441890   88.833600
  H     39.038500    4.750470   88.978300
  H     37.586600    5.139750   88.026600
  C     37.398000    5.475200   90.121400
  H     36.989900    4.457260   90.271700
  H     38.033100    5.599710   91.048800
  C     36.266900    6.552720   90.105300
  H     35.646800    6.322360   89.235700
  H     35.645800    6.552310   90.950300
  H     36.571600    7.572270   89.968900
  S     38.198700   11.068000   86.232900
  C     37.768900   11.487800   84.574000
  C     38.216200   10.478400   83.703100
  C     38.818600    9.384380   84.380800
  C     38.720800    9.421890   85.750400
  H     38.236900   10.583700   82.609400
  C     39.448200    8.257800   83.556100
  H     38.850300    8.079500   82.720200
  H     39.321900    7.319870   84.068600
  C     40.910600    8.466480   83.073700
  H     40.911700    9.307820   82.390400
  H     41.237300    7.574850   82.525100
  C     41.858600    8.753220   84.173900
  H     41.757900    7.813540   84.752900
  H     41.602000    9.632970   84.785000
  H     42.851500    8.924060   83.704400
  H     40.101000    7.342050   89.947500
  H     37.217100   12.424300   84.233500

 Total Charge           Charge          ....    0
 Multiplicity           Mult            ....    1
 Number of Electrons    NEL             ....  134
 Basis Dimension        Dim             ....  322

ORBITAL ENERGIES
----------------

  NO   OCC          E(Eh)            E(eV)
   0   2.0000     -88.964052     -2420.8349
   1   2.0000     -88.963926     -2420.8315
   2   2.0000     -10.328978      -281.0658
   3   2.0000     -10.327930      -281.0373
   4   2.0000     -10.326411      -280.9959
   5   2.0000     -10.304666      -280.4042
   6   2.0000     -10.301862      -280.3279
   7   2.0000     -10.297406      -280.2067
   8   2.0000     -10.296724      -280.1881
   9   2.0000     -10.296701      -280.1875
  10   2.0000     -10.288101      -279.9534
  11   2.0000     -10.287004      -279.9236
  12   2.0000     -10.281702      -279.7793
  13   2.0000     -10.279771      -279.7268
  14   2.0000     -10.272212      -279.5211
  15   2.0000     -10.269980      -279.4604
  16   2.0000      -8.079368      -219.8508
  17   2.0000      -8.077865      -219.8099
  18   2.0000      -6.037921      -164.3002
  19   2.0000      -6.036469      -164.2607
  20   2.0000      -6.033921      -164.1913
  21   2.0000      -6.032507      -164.1529
  22   2.0000      -6.029932      -164.0828
  23   2.0000      -6.028535      -164.0448
  24   2.0000      -1.006587       -27.3906
  25   2.0000      -0.983179       -26.7537
  26   2.0000      -0.913476       -24.8569
  27   2.0000      -0.908187       -24.7130
  28   2.0000      -0.867549       -23.6072
  29   2.0000      -0.850889       -23.1539
  30   2.0000      -0.845707       -23.0128
  31   2.0000      -0.814654       -22.1679
  32   2.0000      -0.785121       -21.3642
  33   2.0000      -0.775339       -21.0981
  34   2.0000      -0.709386       -19.3034
  35   2.0000      -0.697500       -18.9799
  36   2.0000      -0.683836       -18.6081
  37   2.0000      -0.662063       -18.0157
  38   2.0000      -0.650565       -17.7028
  39   2.0000      -0.611578       -16.6419
  40   2.0000      -0.592345       -16.1185
  41   2.0000      -0.570425       -15.5221
  42   2.0000      -0.559583       -15.2270
  43   2.0000      -0.552761       -15.0414
  44   2.0000      -0.548479       -14.9249
  45   2.0000      -0.535314       -14.5666
  46   2.0000      -0.517321       -14.0770
  47   2.0000      -0.513315       -13.9680
  48   2.0000      -0.498297       -13.5594
  49   2.0000      -0.494127       -13.4459
  50   2.0000      -0.492002       -13.3881
  51   2.0000      -0.475257       -12.9324
  52   2.0000      -0.466372       -12.6906
  53   2.0000      -0.466043       -12.6817
  54   2.0000      -0.453671       -12.3450
  55   2.0000      -0.447429       -12.1752
  56   2.0000      -0.443646       -12.0722
  57   2.0000      -0.439172       -11.9505
  58   2.0000      -0.432177       -11.7601
  59   2.0000      -0.429696       -11.6926
  60   2.0000      -0.415716       -11.3122
  61   2.0000      -0.413023       -11.2389
  62   2.0000      -0.408749       -11.1226
  63   2.0000      -0.346723        -9.4348
  64   2.0000      -0.329836        -8.9753
  65   2.0000      -0.327609        -8.9147
  66   2.0000      -0.297236        -8.0882
  67   0.0000       0.034568         0.9407
  68   0.0000       0.063343         1.7236
  69   0.0000       0.108977         2.9654
  70   0.0000       0.124487         3.3875
  71   0.0000       0.126204         3.4342

MULLIKEN ATOMIC CHARGES
-----------------------
   0 S :    0.105594
   1 C :   -0.121038
   2 C :   -0.071829
   3 C :    0.057623
   4 C :   -0.137486
   5 H :   -0.023901
   6 C :    0.109067
   7 H :    0.029219
   8 H :    0.018739
   9 C :   -0.098351
  10 H :    0.033980
  11 H :    0.028920
  12 C :   -0.029596
  13 H :    0.019764
  14 H :    0.025238
  15 H :    0.041265
  16 S :    0.090388
  17 C :   -0.118186
  18 C :   -0.032130
  19 C :   -0.057599
  20 C :   -0.172292
  21 H :    0.030258
  22 C :    0.099673
  23 H :   -0.000371
  24 H :    0.006581
  25 C :   -0.063646
  26 H :    0.012699
  27 H :    0.032678
  28 C :   -0.056642
  29 H :    0.036077
  30 H :    0.048787
  31 H :    0.038338
  32 H :    0.030653
  33 H :    0.087524
Sum of atomic charges:    0.0000000

LOEWDIN ATOMIC CHARGES
----------------------
   0 S :    0.396602
   1 C :   -0.182396
   2 C :   -0.063769
   3 C :   -0.044112
   4 C :   -0.188954
   5 H :    0.015438
   6 C :   -0.031033
   7 H :    0.031190
   8 H :    0.034098
   9 C :   -0.038050
  10 H :    0.027612
  11 H :    0.022543
  12 C :   -0.063370
  13 H :    0.025794
  14 H :    0.019844
  15 H :    0.027036
  16 S :    0.379564
  17 C :   -0.190477
  18 C :   -0.077011
  19 C :   -0.059188
  20 C :   -0.181593
  21 H :    0.035117
  22 C :   -0.028726
  23 H :    0.021199
  24 H :    0.025027
  25 C :   -0.038490
  26 H :    0.015108
  27 H :    0.027214
  28 C :   -0.068537
  29 H :    0.031026
  30 H :    0.027487
  31 H :    0.029800
  32 H :    0.016448
  33 H :    0.047559

  Mayer bond orders larger than 0.100000
B(  0-S ,  1-C ) :   1.1306 B(  0-S ,  4-C ) :   1.1246 B(  1-C ,  2-C ) :   1.6462
B(  1-C , 32-H ) :   0.9734 B(  2-C ,  3-C ) :   1.1856 B(  2-C ,  6-C ) :   1.0259
B(  3-C ,  4-C ) :   1.6382 B(  3-C ,  5-H ) :   1.0042 B(  4-C , 20-C ) :   1.0256
B(  6-C ,  7-H ) :   0.9271 B(  6-C ,  8-H ) :   0.9363 B(  6-C ,  9-C ) :   1.0797
B(  9-C , 10-H ) :   0.9573 B(  9-C , 11-H ) :   0.9552 B(  9-C , 12-C ) :   1.0654
B( 12-C , 13-H ) :   0.9760 B( 12-C , 14-H ) :   0.9761 B( 12-C , 15-H ) :   0.9751
B( 16-S , 17-C ) :   1.1568 B( 16-S , 20-C ) :   1.1203 B( 17-C , 18-C ) :   1.5902
B( 17-C , 20-C ) :   0.1052 B( 17-C , 33-H ) :   0.9591 B( 18-C , 19-C ) :   1.2555
B( 18-C , 21-H ) :   0.9829 B( 19-C , 20-C ) :   1.6091 B( 19-C , 22-C ) :   1.0354
B( 22-C , 23-H ) :   0.9289 B( 22-C , 24-H ) :   0.9321 B( 22-C , 25-C ) :   1.0732
B( 25-C , 26-H ) :   0.9522 B( 25-C , 27-H ) :   0.9546 B( 25-C , 28-C ) :   1.0813
B( 28-C , 29-H ) :   0.9770 B( 28-C , 30-H ) :   0.9712 B( 28-C , 31-H ) :   0.9710

Dispersion correction           -0.015359077
FINAL SINGLE POINT ENERGY     -1339.874150420740

DIPOLE MOMENT
-------------
                                X             Y             Z
Electronic contribution:      1.15017      16.26522       1.96506
Nuclear contribution   :     -1.36672     -16.72230      -2.15078
                        -----------------------------------------
Total Dipole Moment    :     -0.21655      -0.45708      -0.18573
                        -----------------------------------------
Magnitude (a.u.)       :      0.53880
Magnitude (Debye)      :      1.36953

Rotational constants in cm-1:     0.021844     0.008246     0.007392
Rotational constants in MHz :   654.864451   247.221881   221.596399

                             ****ORCA TERMINATED NORMALLY****
TOTAL RUN TIME: 0 days 0 hours 0 minutes 31 seconds 199 msec
