                         Program Version 4.2.1 -  RELEASE  -
|  1> ! wB97X-D3 SP def2-SVP
|  2> %pal
|  3> nprocs 16
|  4> end
|  5>
|  6> * xyz 0 1
|  7> S 	 40.017 	 27.268 	 50.8512
|  8> C 	 39.1508 	 28.5493 	 51.7342
|  9> C 	 38.7152 	 29.544 	 50.8648
| 10> C 	 39.1677 	 29.437 	 49.4912
| 11> C 	 39.7365 	 28.194 	 49.3101
| 12> H 	 39.1736 	 30.1752 	 48.7304
| 13> C 	 38.0777 	 30.8286 	 51.3992
| 14> H 	 37.7522 	 30.5999 	 52.37
| 15> H 	 37.1045 	 30.8034 	 50.762
| 16> C 	 38.7903 	 32.1855 	 51.3147
| 17> H 	 38.8727 	 32.7234 	 50.421
| 18> H 	 38.4031 	 32.9076 	 52.0019
| 19> C 	 40.2974 	 32.1282 	 51.7499
| 20> H 	 41.0608 	 31.7717 	 50.9839
| 21> H 	 40.8553 	 33.0582 	 52.0366
| 22> H 	 40.3913 	 31.4677 	 52.6513
| 23> S 	 42.3227 	 27.9149 	 48.0686
| 24> C 	 42.3507 	 27.5091 	 46.3633
| 25> C 	 41.0903 	 27.6074 	 45.777
| 26> C 	 40.0442 	 27.7475 	 46.7372
| 27> C 	 40.5047 	 27.8648 	 48.0943
| 28> H 	 40.9689 	 27.3815 	 44.7847
| 29> C 	 38.5754 	 27.5978 	 46.3809
| 30> H 	 38.4839 	 27.8495 	 45.3071
| 31> H 	 38.0259 	 28.3396 	 46.9275
| 32> C 	 37.8578 	 26.2683 	 46.6666
| 33> H 	 36.7932 	 26.2771 	 46.4484
| 34> H 	 37.9506 	 26.1744 	 47.7534
| 35> C 	 38.6258 	 25.0387 	 46.0744
| 36> H 	 38.0816 	 24.1224 	 46.2982
| 37> H 	 39.5687 	 24.7738 	 46.5292
| 38> H 	 38.7289 	 25.0753 	 45.0309
| 39> H 	 38.7911 	 28.4565 	 52.7539
| 40> H 	 43.2704 	 27.4351 	 45.6827
| 41> *
| 42>
| 43>                          ****END OF INPUT****

CARTESIAN COORDINATES (ANGSTROEM)
---------------------------------
  S     40.017000   27.268000   50.851200
  C     39.150800   28.549300   51.734200
  C     38.715200   29.544000   50.864800
  C     39.167700   29.437000   49.491200
  C     39.736500   28.194000   49.310100
  H     39.173600   30.175200   48.730400
  C     38.077700   30.828600   51.399200
  H     37.752200   30.599900   52.370000
  H     37.104500   30.803400   50.762000
  C     38.790300   32.185500   51.314700
  H     38.872700   32.723400   50.421000
  H     38.403100   32.907600   52.001900
  C     40.297400   32.128200   51.749900
  H     41.060800   31.771700   50.983900
  H     40.855300   33.058200   52.036600
  H     40.391300   31.467700   52.651300
  S     42.322700   27.914900   48.068600
  C     42.350700   27.509100   46.363300
  C     41.090300   27.607400   45.777000
  C     40.044200   27.747500   46.737200
  C     40.504700   27.864800   48.094300
  H     40.968900   27.381500   44.784700
  C     38.575400   27.597800   46.380900
  H     38.483900   27.849500   45.307100
  H     38.025900   28.339600   46.927500
  C     37.857800   26.268300   46.666600
  H     36.793200   26.277100   46.448400
  H     37.950600   26.174400   47.753400
  C     38.625800   25.038700   46.074400
  H     38.081600   24.122400   46.298200
  H     39.568700   24.773800   46.529200
  H     38.728900   25.075300   45.030900
  H     38.791100   28.456500   52.753900
  H     43.270400   27.435100   45.682700

 Total Charge           Charge          ....    0
 Multiplicity           Mult            ....    1
 Number of Electrons    NEL             ....  134
 Basis Dimension        Dim             ....  322

ORBITAL ENERGIES
----------------

  NO   OCC          E(Eh)            E(eV)
   0   2.0000     -88.969780     -2420.9908
   1   2.0000     -88.967919     -2420.9401
   2   2.0000     -10.338365      -281.3212
   3   2.0000     -10.333022      -281.1758
   4   2.0000     -10.324414      -280.9416
   5   2.0000     -10.321136      -280.8524
   6   2.0000     -10.308211      -280.5007
   7   2.0000     -10.307640      -280.4851
   8   2.0000     -10.302065      -280.3334
   9   2.0000     -10.300391      -280.2879
  10   2.0000     -10.289890      -280.0022
  11   2.0000     -10.288612      -279.9674
  12   2.0000     -10.286839      -279.9191
  13   2.0000     -10.285655      -279.8869
  14   2.0000     -10.284417      -279.8532
  15   2.0000     -10.266739      -279.3722
  16   2.0000      -8.082941      -219.9480
  17   2.0000      -8.081183      -219.9002
  18   2.0000      -6.041630      -164.4011
  19   2.0000      -6.039746      -164.3499
  20   2.0000      -6.037813      -164.2973
  21   2.0000      -6.035904      -164.2453
  22   2.0000      -6.033448      -164.1785
  23   2.0000      -6.031959      -164.1379
  24   2.0000      -0.994698       -27.0671
  25   2.0000      -0.973529       -26.4911
  26   2.0000      -0.906027       -24.6542
  27   2.0000      -0.901251       -24.5243
  28   2.0000      -0.865280       -23.5455
  29   2.0000      -0.846625       -23.0378
  30   2.0000      -0.840379       -22.8679
  31   2.0000      -0.812850       -22.1188
  32   2.0000      -0.781445       -21.2642
  33   2.0000      -0.766397       -20.8547
  34   2.0000      -0.712496       -19.3880
  35   2.0000      -0.701902       -19.0997
  36   2.0000      -0.686039       -18.6681
  37   2.0000      -0.656242       -17.8573
  38   2.0000      -0.643847       -17.5200
  39   2.0000      -0.618119       -16.8199
  40   2.0000      -0.582589       -15.8531
  41   2.0000      -0.564044       -15.3484
  42   2.0000      -0.553752       -15.0684
  43   2.0000      -0.546549       -14.8724
  44   2.0000      -0.541424       -14.7329
  45   2.0000      -0.539066       -14.6687
  46   2.0000      -0.518838       -14.1183
  47   2.0000      -0.511765       -13.9258
  48   2.0000      -0.496215       -13.5027
  49   2.0000      -0.489126       -13.3098
  50   2.0000      -0.480018       -13.0620
  51   2.0000      -0.476908       -12.9773
  52   2.0000      -0.467149       -12.7118
  53   2.0000      -0.460914       -12.5421
  54   2.0000      -0.457079       -12.4377
  55   2.0000      -0.446512       -12.1502
  56   2.0000      -0.438832       -11.9412
  57   2.0000      -0.437050       -11.8927
  58   2.0000      -0.428705       -11.6657
  59   2.0000      -0.421729       -11.4758
  60   2.0000      -0.417989       -11.3740
  61   2.0000      -0.410272       -11.1641
  62   2.0000      -0.406586       -11.0638
  63   2.0000      -0.345778        -9.4091
  64   2.0000      -0.330251        -8.9866
  65   2.0000      -0.325203        -8.8492
  66   2.0000      -0.294355        -8.0098
  67   0.0000       0.023055         0.6274
  68   0.0000       0.055164         1.5011
  69   0.0000       0.104832         2.8526
  70   0.0000       0.114059         3.1037
  71   0.0000       0.117663         3.2018

MULLIKEN ATOMIC CHARGES
-----------------------
   0 S :    0.094412
   1 C :   -0.113389
   2 C :   -0.114045
   3 C :    0.060942
   4 C :   -0.166017
   5 H :    0.025482
   6 C :    0.074894
   7 H :    0.002031
   8 H :    0.046636
   9 C :    0.004016
  10 H :    0.021928
  11 H :    0.031792
  12 C :   -0.143708
  13 H :    0.042863
  14 H :    0.035566
  15 H :    0.032326
  16 S :    0.107667
  17 C :   -0.120913
  18 C :    0.001713
  19 C :   -0.066946
  20 C :   -0.149244
  21 H :   -0.009360
  22 C :    0.083360
  23 H :    0.019041
  24 H :    0.012700
  25 C :   -0.056730
  26 H :    0.038465
  27 H :    0.029349
  28 C :   -0.043426
  29 H :    0.018817
  30 H :    0.037221
  31 H :    0.018037
  32 H :    0.059826
  33 H :    0.084695
Sum of atomic charges:   -0.0000000

LOEWDIN ATOMIC CHARGES
----------------------
   0 S :    0.364277
   1 C :   -0.188304
   2 C :   -0.060578
   3 C :   -0.037291
   4 C :   -0.170691
   5 H :    0.033916
   6 C :   -0.032125
   7 H :    0.021253
   8 H :    0.046189
   9 C :   -0.039132
  10 H :    0.020427
  11 H :    0.031497
  12 C :   -0.088355
  13 H :    0.029834
  14 H :    0.028155
  15 H :    0.024325
  16 S :    0.383695
  17 C :   -0.194782
  18 C :   -0.068056
  19 C :   -0.049086
  20 C :   -0.191143
  21 H :    0.017176
  22 C :   -0.035926
  23 H :    0.027359
  24 H :    0.025860
  25 C :   -0.033606
  26 H :    0.026929
  27 H :    0.027407
  28 C :   -0.067895
  29 H :    0.026802
  30 H :    0.029485
  31 H :    0.013082
  32 H :    0.030860
  33 H :    0.048442

  Mayer bond orders larger than 0.100000
B(  0-S ,  1-C ) :   1.1130 B(  0-S ,  4-C ) :   1.1283 B(  1-C ,  2-C ) :   1.6464
B(  1-C , 32-H ) :   0.9600 B(  2-C ,  3-C ) :   1.1888 B(  2-C ,  6-C ) :   1.0295
B(  3-C ,  4-C ) :   1.6086 B(  3-C ,  5-H ) :   0.9932 B(  4-C , 20-C ) :   1.0360
B(  6-C ,  7-H ) :   0.9395 B(  6-C ,  8-H ) :   0.9380 B(  6-C ,  9-C ) :   1.0589
B(  9-C , 10-H ) :   0.9587 B(  9-C , 11-H ) :   0.9562 B(  9-C , 12-C ) :   1.0562
B( 12-C , 13-H ) :   0.9742 B( 12-C , 14-H ) :   0.9772 B( 12-C , 15-H ) :   0.9790
B( 16-S , 17-C ) :   1.1623 B( 16-S , 20-C ) :   1.1265 B( 17-C , 18-C ) :   1.6014
B( 17-C , 20-C ) :   0.1021 B( 17-C , 33-H ) :   0.9518 B( 18-C , 19-C ) :   1.2660
B( 18-C , 21-H ) :   0.9964 B( 19-C , 20-C ) :   1.5610 B( 19-C , 22-C ) :   1.0465
B( 22-C , 23-H ) :   0.9363 B( 22-C , 24-H ) :   0.9241 B( 22-C , 25-C ) :   1.0753
B( 25-C , 26-H ) :   0.9584 B( 25-C , 27-H ) :   0.9524 B( 25-C , 28-C ) :   1.0759
B( 28-C , 29-H ) :   0.9721 B( 28-C , 30-H ) :   0.9714 B( 28-C , 31-H ) :   0.9804

Dispersion correction           -0.015330988
FINAL SINGLE POINT ENERGY     -1339.844578716149

DIPOLE MOMENT
-------------
                                X             Y             Z
Electronic contribution:     12.75517      -7.89240       2.54299
Nuclear contribution   :    -13.13202       8.32082      -2.68593
                        -----------------------------------------
Total Dipole Moment    :     -0.37685       0.42842      -0.14294
                        -----------------------------------------
Magnitude (a.u.)       :      0.58821
Magnitude (Debye)      :      1.49511

Rotational constants in cm-1:     0.020884     0.008218     0.007483
Rotational constants in MHz :   626.087009   246.376927   224.347460

                             ****ORCA TERMINATED NORMALLY****
TOTAL RUN TIME: 0 days 0 hours 0 minutes 35 seconds 459 msec
