                         Program Version 4.2.1 -  RELEASE  -
|  1> ! wB97X-D3 SP def2-SVP
|  2> %pal
|  3> nprocs 16
|  4> end
|  5>
|  6> * xyz 0 1
|  7> S 	 -21.2289 	 -3.68341 	 93.8806
|  8> C 	 -22.3491 	 -2.52878 	 93.12
|  9> C 	 -22.1767 	 -2.49521 	 91.7311
| 10> C 	 -21.0721 	 -3.30836 	 91.295
| 11> C 	 -20.4009 	 -3.94954 	 92.3417
| 12> H 	 -20.811 	 -3.40367 	 90.2109
| 13> C 	 -23.0252 	 -1.62941 	 90.7498
| 14> H 	 -22.4754 	 -1.38177 	 89.7914
| 15> H 	 -23.2414 	 -0.728105 	 91.3896
| 16> C 	 -24.3504 	 -2.2975 	 90.4226
| 17> H 	 -24.7475 	 -2.52949 	 91.3892
| 18> H 	 -25.0023 	 -1.47751 	 90.0246
| 19> C 	 -24.5449 	 -3.50048 	 89.4767
| 20> H 	 -25.4729 	 -3.96884 	 89.465
| 21> H 	 -24.2774 	 -3.25349 	 88.4604
| 22> H 	 -23.9362 	 -4.29989 	 89.8484
| 23> S 	 -17.6185 	 -4.21019 	 92.6726
| 24> C 	 -16.798 	 -5.56216 	 91.8053
| 25> C 	 -17.7903 	 -6.32723 	 91.136
| 26> C 	 -19.1288 	 -5.95705 	 91.4406
| 27> C 	 -19.2069 	 -4.73228 	 92.1359
| 28> H 	 -17.466 	 -7.07029 	 90.4449
| 29> C 	 -20.3065 	 -6.75817 	 91.063
| 30> H 	 -21.1921 	 -6.60733 	 91.6534
| 31> H 	 -20.0699 	 -7.81796 	 91.1812
| 32> C 	 -20.7498 	 -6.60417 	 89.6083
| 33> H 	 -19.9616 	 -6.94558 	 89.0006
| 34> H 	 -20.8591 	 -5.50429 	 89.4231
| 35> C 	 -22.1357 	 -7.1711 	 89.1668
| 36> H 	 -22.9395 	 -6.99428 	 89.8962
| 37> H 	 -21.8697 	 -8.26571 	 89.0863
| 38> H 	 -22.4206 	 -6.9504 	 88.1394
| 39> H 	 -23.0969 	 -1.96379 	 93.6375
| 40> H 	 -15.7663 	 -5.67303 	 91.8457
| 41> *
| 42>
| 43>                          ****END OF INPUT****

CARTESIAN COORDINATES (ANGSTROEM)
---------------------------------
  S    -21.228900   -3.683410   93.880600
  C    -22.349100   -2.528780   93.120000
  C    -22.176700   -2.495210   91.731100
  C    -21.072100   -3.308360   91.295000
  C    -20.400900   -3.949540   92.341700
  H    -20.811000   -3.403670   90.210900
  C    -23.025200   -1.629410   90.749800
  H    -22.475400   -1.381770   89.791400
  H    -23.241400   -0.728105   91.389600
  C    -24.350400   -2.297500   90.422600
  H    -24.747500   -2.529490   91.389200
  H    -25.002300   -1.477510   90.024600
  C    -24.544900   -3.500480   89.476700
  H    -25.472900   -3.968840   89.465000
  H    -24.277400   -3.253490   88.460400
  H    -23.936200   -4.299890   89.848400
  S    -17.618500   -4.210190   92.672600
  C    -16.798000   -5.562160   91.805300
  C    -17.790300   -6.327230   91.136000
  C    -19.128800   -5.957050   91.440600
  C    -19.206900   -4.732280   92.135900
  H    -17.466000   -7.070290   90.444900
  C    -20.306500   -6.758170   91.063000
  H    -21.192100   -6.607330   91.653400
  H    -20.069900   -7.817960   91.181200
  C    -20.749800   -6.604170   89.608300
  H    -19.961600   -6.945580   89.000600
  H    -20.859100   -5.504290   89.423100
  C    -22.135700   -7.171100   89.166800
  H    -22.939500   -6.994280   89.896200
  H    -21.869700   -8.265710   89.086300
  H    -22.420600   -6.950400   88.139400
  H    -23.096900   -1.963790   93.637500
  H    -15.766300   -5.673030   91.845700

 Total Charge           Charge          ....    0
 Multiplicity           Mult            ....    1
 Number of Electrons    NEL             ....  134
 Basis Dimension        Dim             ....  322

ORBITAL ENERGIES
----------------

  NO   OCC          E(Eh)            E(eV)
   0   2.0000     -88.971216     -2421.0299
   1   2.0000     -88.965544     -2420.8755
   2   2.0000     -10.331916      -281.1457
   3   2.0000     -10.326787      -281.0062
   4   2.0000     -10.323262      -280.9102
   5   2.0000     -10.319375      -280.8045
   6   2.0000     -10.306254      -280.4474
   7   2.0000     -10.306031      -280.4414
   8   2.0000     -10.303858      -280.3822
   9   2.0000     -10.301144      -280.3084
  10   2.0000     -10.299483      -280.2632
  11   2.0000     -10.286814      -279.9184
  12   2.0000     -10.285295      -279.8771
  13   2.0000     -10.285272      -279.8765
  14   2.0000     -10.283087      -279.8170
  15   2.0000     -10.272345      -279.5247
  16   2.0000      -8.084763      -219.9976
  17   2.0000      -8.079242      -219.8474
  18   2.0000      -6.043367      -164.4484
  19   2.0000      -6.039402      -164.3405
  20   2.0000      -6.037749      -164.2955
  21   2.0000      -6.035532      -164.2352
  22   2.0000      -6.033759      -164.1869
  23   2.0000      -6.030200      -164.0901
  24   2.0000      -0.999207       -27.1898
  25   2.0000      -0.975444       -26.5432
  26   2.0000      -0.909499       -24.7487
  27   2.0000      -0.908518       -24.7220
  28   2.0000      -0.866316       -23.5737
  29   2.0000      -0.847467       -23.0608
  30   2.0000      -0.844306       -22.9747
  31   2.0000      -0.812601       -22.1120
  32   2.0000      -0.787632       -21.4326
  33   2.0000      -0.772953       -21.0331
  34   2.0000      -0.706154       -19.2154
  35   2.0000      -0.696360       -18.9489
  36   2.0000      -0.695415       -18.9232
  37   2.0000      -0.663087       -18.0435
  38   2.0000      -0.636509       -17.3203
  39   2.0000      -0.613913       -16.7054
  40   2.0000      -0.600303       -16.3351
  41   2.0000      -0.575721       -15.6662
  42   2.0000      -0.568851       -15.4792
  43   2.0000      -0.546621       -14.8743
  44   2.0000      -0.540559       -14.7094
  45   2.0000      -0.527245       -14.3471
  46   2.0000      -0.514845       -14.0096
  47   2.0000      -0.512819       -13.9545
  48   2.0000      -0.508253       -13.8303
  49   2.0000      -0.493801       -13.4370
  50   2.0000      -0.490023       -13.3342
  51   2.0000      -0.479514       -13.0482
  52   2.0000      -0.473866       -12.8946
  53   2.0000      -0.473079       -12.8731
  54   2.0000      -0.463577       -12.6146
  55   2.0000      -0.449363       -12.2278
  56   2.0000      -0.445604       -12.1255
  57   2.0000      -0.438445       -11.9307
  58   2.0000      -0.432897       -11.7797
  59   2.0000      -0.425813       -11.5870
  60   2.0000      -0.421335       -11.4651
  61   2.0000      -0.402861       -10.9624
  62   2.0000      -0.396406       -10.7867
  63   2.0000      -0.336456        -9.1554
  64   2.0000      -0.329150        -8.9566
  65   2.0000      -0.322633        -8.7793
  66   2.0000      -0.300207        -8.1690
  67   0.0000       0.028858         0.7853
  68   0.0000       0.053950         1.4681
  69   0.0000       0.112934         3.0731
  70   0.0000       0.117287         3.1916
  71   0.0000       0.121922         3.3177

MULLIKEN ATOMIC CHARGES
-----------------------
   0 S :    0.121569
   1 C :   -0.122722
   2 C :   -0.108484
   3 C :    0.031200
   4 C :   -0.176385
   5 H :    0.043871
   6 C :    0.053855
   7 H :    0.041042
   8 H :    0.041278
   9 C :   -0.090935
  10 H :    0.009810
  11 H :    0.030807
  12 C :    0.009457
  13 H :    0.020482
  14 H :    0.027367
  15 H :    0.014845
  16 S :    0.103300
  17 C :   -0.095009
  18 C :   -0.018921
  19 C :   -0.015885
  20 C :   -0.160372
  21 H :    0.019148
  22 C :    0.106391
  23 H :    0.017679
  24 H :    0.020770
  25 C :   -0.104584
  26 H :    0.014389
  27 H :    0.014524
  28 C :   -0.055992
  29 H :    0.053011
  30 H :    0.027721
  31 H :    0.039478
  32 H :    0.042739
  33 H :    0.044555
Sum of atomic charges:   -0.0000000

LOEWDIN ATOMIC CHARGES
----------------------
   0 S :    0.394872
   1 C :   -0.190947
   2 C :   -0.064595
   3 C :   -0.057326
   4 C :   -0.197113
   5 H :    0.039520
   6 C :   -0.030664
   7 H :    0.034530
   8 H :    0.043498
   9 C :   -0.047257
  10 H :    0.018004
  11 H :    0.026156
  12 C :   -0.059907
  13 H :    0.023236
  14 H :    0.023830
  15 H :    0.024247
  16 S :    0.389236
  17 C :   -0.159414
  18 C :   -0.060529
  19 C :   -0.050322
  20 C :   -0.201888
  21 H :    0.028064
  22 C :   -0.032465
  23 H :    0.029245
  24 H :    0.032378
  25 C :   -0.040437
  26 H :    0.013036
  27 H :    0.019245
  28 C :   -0.071201
  29 H :    0.027759
  30 H :    0.030290
  31 H :    0.028175
  32 H :    0.023482
  33 H :    0.015265

  Mayer bond orders larger than 0.100000
B(  0-S ,  1-C ) :   1.1347 B(  0-S ,  4-C ) :   1.1417 B(  1-C ,  2-C ) :   1.6088
B(  1-C ,  4-C ) :   0.1000 B(  1-C , 32-H ) :   0.9675 B(  2-C ,  3-C ) :   1.2576
B(  2-C ,  6-C ) :   1.0071 B(  3-C ,  4-C ) :   1.5629 B(  3-C ,  5-H ) :   0.9770
B(  4-C , 20-C ) :   1.0571 B(  6-C ,  7-H ) :   0.9478 B(  6-C ,  8-H ) :   0.9367
B(  6-C ,  9-C ) :   1.0704 B(  9-C , 10-H ) :   0.9530 B(  9-C , 11-H ) :   0.9555
B(  9-C , 12-C ) :   1.0798 B( 12-C , 13-H ) :   0.9685 B( 12-C , 14-H ) :   0.9744
B( 12-C , 15-H ) :   0.9704 B( 16-S , 17-C ) :   1.1591 B( 16-S , 20-C ) :   1.1435
B( 17-C , 18-C ) :   1.5723 B( 17-C , 20-C ) :   0.1096 B( 17-C , 33-H ) :   0.9826
B( 18-C , 19-C ) :   1.2528 B( 18-C , 21-H ) :   0.9927 B( 19-C , 20-C ) :   1.5587
B( 19-C , 22-C ) :   1.0676 B( 22-C , 23-H ) :   0.9217 B( 22-C , 24-H ) :   0.9285
B( 22-C , 25-C ) :   1.0525 B( 25-C , 26-H ) :   0.9585 B( 25-C , 27-H ) :   0.9541
B( 25-C , 28-C ) :   1.0769 B( 28-C , 29-H ) :   0.9714 B( 28-C , 30-H ) :   0.9754
B( 28-C , 31-H ) :   0.9743

Dispersion correction           -0.015561987
FINAL SINGLE POINT ENERGY     -1339.863688850858

DIPOLE MOMENT
-------------
                                X             Y             Z
Electronic contribution:     21.81963       5.74433      21.97003
Nuclear contribution   :    -22.18000      -5.89848     -22.56035
                        -----------------------------------------
Total Dipole Moment    :     -0.36037      -0.15415      -0.59032
                        -----------------------------------------
Magnitude (a.u.)       :      0.70859
Magnitude (Debye)      :      1.80110

Rotational constants in cm-1:     0.018103     0.009837     0.007230
Rotational constants in MHz :   542.728399   294.910846   216.748979

                             ****ORCA TERMINATED NORMALLY****
TOTAL RUN TIME: 0 days 0 hours 0 minutes 29 seconds 682 msec
