                         Program Version 4.2.1 -  RELEASE  -
|  1> ! wB97X-D3 SP def2-SVP
|  2> %pal
|  3> nprocs 16
|  4> end
|  5>
|  6> * xyz 0 1
|  7> S 	 -1.74044 	 -11.9768 	 71.3148
|  8> C 	 -1.33415 	 -13.2239 	 70.0779
|  9> C 	 -0.92017 	 -14.4378 	 70.6833
| 10> C 	 -0.817886 	 -14.2668 	 72.1456
| 11> C 	 -1.12046 	 -13.0227 	 72.604
| 12> H 	 -0.597198 	 -14.9734 	 72.8764
| 13> C 	 -0.66927 	 -15.7278 	 69.9549
| 14> H 	 0.0624603 	 -15.4735 	 69.1672
| 15> H 	 -1.53584 	 -16.1091 	 69.4153
| 16> C 	 -0.0630548 	 -16.9247 	 70.7487
| 17> H 	 0.912635 	 -16.5093 	 71.1971
| 18> H 	 -0.76445 	 -17.0802 	 71.4987
| 19> C 	 0.124207 	 -18.2907 	 70.0229
| 20> H 	 -0.704804 	 -18.5453 	 69.4173
| 21> H 	 0.844587 	 -18.0336 	 69.2239
| 22> H 	 0.476333 	 -19.1153 	 70.6453
| 23> S 	 -2.44289 	 -12.1835 	 74.8867
| 24> C 	 -1.57572 	 -11.9601 	 76.3895
| 25> C 	 -0.233925 	 -12.3936 	 76.2474
| 26> C 	 0.0723322 	 -12.7041 	 74.8737
| 27> C 	 -1.01877 	 -12.6562 	 74.0111
| 28> H 	 0.415171 	 -12.5325 	 77.1033
| 29> C 	 1.52175 	 -13.0925 	 74.51
| 30> H 	 1.48748 	 -13.582 	 73.5393
| 31> H 	 1.89161 	 -13.8032 	 75.1817
| 32> C 	 2.54439 	 -12.0336 	 74.3238
| 33> H 	 2.5587 	 -11.512 	 75.2886
| 34> H 	 2.3329 	 -11.31 	 73.5527
| 35> C 	 3.95358 	 -12.5512 	 74.0274
| 36> H 	 4.20827 	 -13.3185 	 74.7973
| 37> H 	 4.7205 	 -11.7335 	 73.9443
| 38> H 	 3.92002 	 -13.0282 	 72.9953
| 39> H 	 -1.56138 	 -13.1305 	 68.9926
| 40> H 	 -1.92266 	 -11.6426 	 77.362
| 41> *
| 42>
| 43>                          ****END OF INPUT****

CARTESIAN COORDINATES (ANGSTROEM)
---------------------------------
  S     -1.740440  -11.976800   71.314800
  C     -1.334150  -13.223900   70.077900
  C     -0.920170  -14.437800   70.683300
  C     -0.817886  -14.266800   72.145600
  C     -1.120460  -13.022700   72.604000
  H     -0.597198  -14.973400   72.876400
  C     -0.669270  -15.727800   69.954900
  H      0.062460  -15.473500   69.167200
  H     -1.535840  -16.109100   69.415300
  C     -0.063055  -16.924700   70.748700
  H      0.912635  -16.509300   71.197100
  H     -0.764450  -17.080200   71.498700
  C      0.124207  -18.290700   70.022900
  H     -0.704804  -18.545300   69.417300
  H      0.844587  -18.033600   69.223900
  H      0.476333  -19.115300   70.645300
  S     -2.442890  -12.183500   74.886700
  C     -1.575720  -11.960100   76.389500
  C     -0.233925  -12.393600   76.247400
  C      0.072332  -12.704100   74.873700
  C     -1.018770  -12.656200   74.011100
  H      0.415171  -12.532500   77.103300
  C      1.521750  -13.092500   74.510000
  H      1.487480  -13.582000   73.539300
  H      1.891610  -13.803200   75.181700
  C      2.544390  -12.033600   74.323800
  H      2.558700  -11.512000   75.288600
  H      2.332900  -11.310000   73.552700
  C      3.953580  -12.551200   74.027400
  H      4.208270  -13.318500   74.797300
  H      4.720500  -11.733500   73.944300
  H      3.920020  -13.028200   72.995300
  H     -1.561380  -13.130500   68.992600
  H     -1.922660  -11.642600   77.362000

 Total Charge           Charge          ....    0
 Multiplicity           Mult            ....    1
 Number of Electrons    NEL             ....  134
 Basis Dimension        Dim             ....  322

ORBITAL ENERGIES
----------------

  NO   OCC          E(Eh)            E(eV)
   0   2.0000     -88.969409     -2420.9807
   1   2.0000     -88.969221     -2420.9756
   2   2.0000     -10.329713      -281.0858
   3   2.0000     -10.327687      -281.0307
   4   2.0000     -10.326212      -280.9905
   5   2.0000     -10.321777      -280.8698
   6   2.0000     -10.315147      -280.6894
   7   2.0000     -10.306743      -280.4607
   8   2.0000     -10.298257      -280.2298
   9   2.0000     -10.297403      -280.2066
  10   2.0000     -10.293113      -280.0899
  11   2.0000     -10.292416      -280.0709
  12   2.0000     -10.286732      -279.9162
  13   2.0000     -10.283695      -279.8336
  14   2.0000     -10.281043      -279.7614
  15   2.0000     -10.276350      -279.6337
  16   2.0000      -8.083964      -219.9758
  17   2.0000      -8.082577      -219.9381
  18   2.0000      -6.042550      -164.4261
  19   2.0000      -6.041332      -164.3930
  20   2.0000      -6.038342      -164.3116
  21   2.0000      -6.037344      -164.2845
  22   2.0000      -6.034808      -164.2155
  23   2.0000      -6.033082      -164.1685
  24   2.0000      -1.002928       -27.2911
  25   2.0000      -0.976341       -26.5676
  26   2.0000      -0.912936       -24.8422
  27   2.0000      -0.909266       -24.7424
  28   2.0000      -0.868669       -23.6377
  29   2.0000      -0.849070       -23.1044
  30   2.0000      -0.843635       -22.9565
  31   2.0000      -0.815273       -22.1847
  32   2.0000      -0.781410       -21.2633
  33   2.0000      -0.770806       -20.9747
  34   2.0000      -0.710869       -19.3437
  35   2.0000      -0.691117       -18.8062
  36   2.0000      -0.687513       -18.7082
  37   2.0000      -0.661321       -17.9955
  38   2.0000      -0.644228       -17.5303
  39   2.0000      -0.618887       -16.8408
  40   2.0000      -0.593942       -16.1620
  41   2.0000      -0.573187       -15.5972
  42   2.0000      -0.571522       -15.5519
  43   2.0000      -0.563583       -15.3359
  44   2.0000      -0.530197       -14.4274
  45   2.0000      -0.520278       -14.1575
  46   2.0000      -0.514597       -14.0029
  47   2.0000      -0.509174       -13.8553
  48   2.0000      -0.505467       -13.7545
  49   2.0000      -0.495459       -13.4821
  50   2.0000      -0.494766       -13.4633
  51   2.0000      -0.488030       -13.2800
  52   2.0000      -0.469108       -12.7651
  53   2.0000      -0.466112       -12.6835
  54   2.0000      -0.458357       -12.4725
  55   2.0000      -0.451201       -12.2778
  56   2.0000      -0.444579       -12.0976
  57   2.0000      -0.436994       -11.8912
  58   2.0000      -0.430605       -11.7174
  59   2.0000      -0.425470       -11.5776
  60   2.0000      -0.417957       -11.3732
  61   2.0000      -0.413284       -11.2460
  62   2.0000      -0.404198       -10.9988
  63   2.0000      -0.341089        -9.2815
  64   2.0000      -0.331354        -9.0166
  65   2.0000      -0.327590        -8.9142
  66   2.0000      -0.297652        -8.0995
  67   0.0000       0.029934         0.8145
  68   0.0000       0.061203         1.6654
  69   0.0000       0.106991         2.9114
  70   0.0000       0.119862         3.2616
  71   0.0000       0.128959         3.5092

MULLIKEN ATOMIC CHARGES
-----------------------
   0 S :    0.109354
   1 C :   -0.138270
   2 C :   -0.071498
   3 C :    0.047734
   4 C :   -0.149477
   5 H :   -0.000201
   6 C :    0.031066
   7 H :    0.034999
   8 H :    0.037760
   9 C :   -0.116641
  10 H :    0.044910
  11 H :    0.026385
  12 C :   -0.012161
  13 H :    0.018813
  14 H :    0.020911
  15 H :    0.056072
  16 S :    0.120570
  17 C :   -0.090219
  18 C :   -0.046798
  19 C :   -0.038124
  20 C :   -0.163175
  21 H :    0.027682
  22 C :    0.094172
  23 H :    0.002466
  24 H :    0.004578
  25 C :   -0.054900
  26 H :    0.014397
  27 H :    0.030994
  28 C :   -0.087207
  29 H :    0.036241
  30 H :    0.049938
  31 H :    0.037780
  32 H :    0.065695
  33 H :    0.056152
Sum of atomic charges:    0.0000000

LOEWDIN ATOMIC CHARGES
----------------------
   0 S :    0.377028
   1 C :   -0.188843
   2 C :   -0.053615
   3 C :   -0.052197
   4 C :   -0.188844
   5 H :    0.023325
   6 C :   -0.041609
   7 H :    0.035781
   8 H :    0.031689
   9 C :   -0.042608
  10 H :    0.032478
  11 H :    0.010416
  12 C :   -0.063281
  13 H :    0.020673
  14 H :    0.029644
  15 H :    0.033952
  16 S :    0.421446
  17 C :   -0.189638
  18 C :   -0.069530
  19 C :   -0.050142
  20 C :   -0.208730
  21 H :    0.032142
  22 C :   -0.031613
  23 H :    0.026626
  24 H :    0.021455
  25 C :   -0.044423
  26 H :    0.019022
  27 H :    0.024633
  28 C :   -0.071272
  29 H :    0.025482
  30 H :    0.032742
  31 H :    0.029674
  32 H :    0.037112
  33 H :    0.031023

  Mayer bond orders larger than 0.100000
B(  0-S ,  1-C ) :   1.1242 B(  0-S ,  4-C ) :   1.1236 B(  1-C ,  2-C ) :   1.6290
B(  1-C , 32-H ) :   0.9671 B(  2-C ,  3-C ) :   1.2008 B(  2-C ,  6-C ) :   1.0163
B(  3-C ,  4-C ) :   1.6093 B(  3-C ,  5-H ) :   0.9988 B(  4-C , 20-C ) :   1.0297
B(  6-C ,  7-H ) :   0.9363 B(  6-C ,  8-H ) :   0.9359 B(  6-C ,  9-C ) :   1.0781
B(  9-C , 10-H ) :   0.9566 B(  9-C , 11-H ) :   0.9506 B(  9-C , 12-C ) :   1.0756
B( 12-C , 13-H ) :   0.9713 B( 12-C , 14-H ) :   0.9736 B( 12-C , 15-H ) :   0.9742
B( 16-S , 17-C ) :   1.1663 B( 16-S , 20-C ) :   1.1431 B( 17-C , 18-C ) :   1.5867
B( 17-C , 20-C ) :   0.1003 B( 17-C , 33-H ) :   0.9687 B( 18-C , 19-C ) :   1.2554
B( 18-C , 21-H ) :   0.9888 B( 19-C , 20-C ) :   1.5945 B( 19-C , 22-C ) :   1.0381
B( 22-C , 23-H ) :   0.9237 B( 22-C , 24-H ) :   0.9312 B( 22-C , 25-C ) :   1.0790
B( 25-C , 26-H ) :   0.9495 B( 25-C , 27-H ) :   0.9525 B( 25-C , 28-C ) :   1.0833
B( 28-C , 29-H ) :   0.9731 B( 28-C , 30-H ) :   0.9730 B( 28-C , 31-H ) :   0.9738

Dispersion correction           -0.013617382
FINAL SINGLE POINT ENERGY     -1339.865879855943

DIPOLE MOMENT
-------------
                                X             Y             Z
Electronic contribution:    -22.97110      18.19314       6.08232
Nuclear contribution   :     23.33567     -18.78563      -6.11708
                        -----------------------------------------
Total Dipole Moment    :      0.36457      -0.59249      -0.03476
                        -----------------------------------------
Magnitude (a.u.)       :      0.69653
Magnitude (Debye)      :      1.77044

Rotational constants in cm-1:     0.015660     0.008488     0.006925
Rotational constants in MHz :   469.484813   254.471876   207.593780

                             ****ORCA TERMINATED NORMALLY****
TOTAL RUN TIME: 0 days 0 hours 0 minutes 32 seconds 158 msec
