                         Program Version 4.2.1 -  RELEASE  -
|  1> ! wB97X-D3 SP def2-SVP
|  2> %pal
|  3> nprocs 16
|  4> end
|  5>
|  6> * xyz 0 1
|  7> S 	 -21.3935 	 -4.49562 	 84.4755
|  8> C 	 -20.6022 	 -4.53858 	 82.8977
|  9> C 	 -19.2123 	 -4.40227 	 83.058
| 10> C 	 -18.7983 	 -4.21305 	 84.3953
| 11> C 	 -19.8409 	 -4.1281 	 85.3002
| 12> H 	 -17.7654 	 -4.14792 	 84.8159
| 13> C 	 -18.3119 	 -4.39078 	 81.8855
| 14> H 	 -17.8531 	 -3.43092 	 81.764
| 15> H 	 -18.936 	 -4.49919 	 81.0285
| 16> C 	 -17.2963 	 -5.51852 	 81.9019
| 17> H 	 -16.6161 	 -5.45944 	 82.7749
| 18> H 	 -17.8113 	 -6.43522 	 82.0471
| 19> C 	 -16.4834 	 -5.68003 	 80.663
| 20> H 	 -17.0561 	 -5.92481 	 79.7795
| 21> H 	 -15.7616 	 -4.81575 	 80.4738
| 22> H 	 -15.7601 	 -6.48823 	 80.8687
| 23> S 	 -20.827 	 -5.05883 	 87.6224
| 24> C 	 -20.0425 	 -4.49993 	 89.1392
| 25> C 	 -19.0473 	 -3.57079 	 88.8971
| 26> C 	 -18.8146 	 -3.27178 	 87.4911
| 27> C 	 -19.7076 	 -4.04334 	 86.7666
| 28> H 	 -18.4958 	 -3.1359 	 89.6978
| 29> C 	 -17.8638 	 -2.20983 	 86.9701
| 30> H 	 -17.8239 	 -2.10408 	 85.8913
| 31> H 	 -16.8724 	 -2.42279 	 87.1551
| 32> C 	 -18.2879 	 -0.823953 	 87.4058
| 33> H 	 -17.866 	 -0.714877 	 88.4217
| 34> H 	 -19.4114 	 -0.815715 	 87.3841
| 35> C 	 -17.8728 	 0.333158 	 86.5498
| 36> H 	 -18.2311 	 1.28889 	 86.982
| 37> H 	 -18.3572 	 0.313829 	 85.6037
| 38> H 	 -16.7655 	 0.359639 	 86.3658
| 39> H 	 -21.1357 	 -4.61835 	 81.979
| 40> H 	 -20.3602 	 -4.82538 	 90.1152
| 41> *
| 42>
| 43>                          ****END OF INPUT****

CARTESIAN COORDINATES (ANGSTROEM)
---------------------------------
  S    -21.393500   -4.495620   84.475500
  C    -20.602200   -4.538580   82.897700
  C    -19.212300   -4.402270   83.058000
  C    -18.798300   -4.213050   84.395300
  C    -19.840900   -4.128100   85.300200
  H    -17.765400   -4.147920   84.815900
  C    -18.311900   -4.390780   81.885500
  H    -17.853100   -3.430920   81.764000
  H    -18.936000   -4.499190   81.028500
  C    -17.296300   -5.518520   81.901900
  H    -16.616100   -5.459440   82.774900
  H    -17.811300   -6.435220   82.047100
  C    -16.483400   -5.680030   80.663000
  H    -17.056100   -5.924810   79.779500
  H    -15.761600   -4.815750   80.473800
  H    -15.760100   -6.488230   80.868700
  S    -20.827000   -5.058830   87.622400
  C    -20.042500   -4.499930   89.139200
  C    -19.047300   -3.570790   88.897100
  C    -18.814600   -3.271780   87.491100
  C    -19.707600   -4.043340   86.766600
  H    -18.495800   -3.135900   89.697800
  C    -17.863800   -2.209830   86.970100
  H    -17.823900   -2.104080   85.891300
  H    -16.872400   -2.422790   87.155100
  C    -18.287900   -0.823953   87.405800
  H    -17.866000   -0.714877   88.421700
  H    -19.411400   -0.815715   87.384100
  C    -17.872800    0.333158   86.549800
  H    -18.231100    1.288890   86.982000
  H    -18.357200    0.313829   85.603700
  H    -16.765500    0.359639   86.365800
  H    -21.135700   -4.618350   81.979000
  H    -20.360200   -4.825380   90.115200

 Total Charge           Charge          ....    0
 Multiplicity           Mult            ....    1
 Number of Electrons    NEL             ....  134
 Basis Dimension        Dim             ....  322

ORBITAL ENERGIES
----------------

  NO   OCC          E(Eh)            E(eV)
   0   2.0000     -88.968196     -2420.9477
   1   2.0000     -88.964819     -2420.8558
   2   2.0000     -10.330459      -281.1061
   3   2.0000     -10.328257      -281.0462
   4   2.0000     -10.319482      -280.8074
   5   2.0000     -10.314457      -280.6707
   6   2.0000     -10.307742      -280.4879
   7   2.0000     -10.299309      -280.2584
   8   2.0000     -10.297825      -280.2181
   9   2.0000     -10.294187      -280.1191
  10   2.0000     -10.286240      -279.9028
  11   2.0000     -10.285854      -279.8923
  12   2.0000     -10.280699      -279.7521
  13   2.0000     -10.280116      -279.7362
  14   2.0000     -10.279900      -279.7303
  15   2.0000     -10.278625      -279.6956
  16   2.0000      -8.082541      -219.9371
  17   2.0000      -8.078492      -219.8269
  18   2.0000      -6.041040      -164.3850
  19   2.0000      -6.037366      -164.2851
  20   2.0000      -6.037125      -164.2785
  21   2.0000      -6.033167      -164.1708
  22   2.0000      -6.033059      -164.1679
  23   2.0000      -6.029192      -164.0627
  24   2.0000      -1.002606       -27.2823
  25   2.0000      -0.978307       -26.6211
  26   2.0000      -0.918431       -24.9918
  27   2.0000      -0.915758       -24.9190
  28   2.0000      -0.867495       -23.6058
  29   2.0000      -0.855132       -23.2693
  30   2.0000      -0.845940       -23.0192
  31   2.0000      -0.816985       -22.2313
  32   2.0000      -0.787219       -21.4213
  33   2.0000      -0.768690       -20.9171
  34   2.0000      -0.704372       -19.1669
  35   2.0000      -0.695088       -18.9143
  36   2.0000      -0.691799       -18.8248
  37   2.0000      -0.662033       -18.0148
  38   2.0000      -0.641864       -17.4660
  39   2.0000      -0.619200       -16.8493
  40   2.0000      -0.604546       -16.4505
  41   2.0000      -0.574468       -15.6321
  42   2.0000      -0.572176       -15.5697
  43   2.0000      -0.557124       -15.1601
  44   2.0000      -0.530710       -14.4413
  45   2.0000      -0.527776       -14.3615
  46   2.0000      -0.516293       -14.0491
  47   2.0000      -0.510372       -13.8879
  48   2.0000      -0.506746       -13.7893
  49   2.0000      -0.500488       -13.6190
  50   2.0000      -0.490934       -13.3590
  51   2.0000      -0.481935       -13.1141
  52   2.0000      -0.472309       -12.8522
  53   2.0000      -0.465848       -12.6764
  54   2.0000      -0.454703       -12.3731
  55   2.0000      -0.452937       -12.3250
  56   2.0000      -0.446163       -12.1407
  57   2.0000      -0.438005       -11.9187
  58   2.0000      -0.430970       -11.7273
  59   2.0000      -0.424122       -11.5410
  60   2.0000      -0.418805       -11.3963
  61   2.0000      -0.414154       -11.2697
  62   2.0000      -0.408308       -11.1106
  63   2.0000      -0.353018        -9.6061
  64   2.0000      -0.335213        -9.1216
  65   2.0000      -0.327152        -8.9022
  66   2.0000      -0.284396        -7.7388
  67   0.0000       0.025695         0.6992
  68   0.0000       0.074656         2.0315
  69   0.0000       0.097644         2.6570
  70   0.0000       0.121570         3.3081
  71   0.0000       0.136489         3.7141

MULLIKEN ATOMIC CHARGES
-----------------------
   0 S :    0.084517
   1 C :   -0.115375
   2 C :   -0.094981
   3 C :    0.003611
   4 C :   -0.134207
   5 H :    0.038020
   6 C :    0.139285
   7 H :    0.023430
   8 H :   -0.011318
   9 C :   -0.089181
  10 H :    0.027029
  11 H :    0.019172
  12 C :   -0.050694
  13 H :    0.037664
  14 H :    0.031541
  15 H :    0.030181
  16 S :    0.104310
  17 C :   -0.087938
  18 C :   -0.009705
  19 C :   -0.057759
  20 C :   -0.149254
  21 H :    0.008763
  22 C :    0.121692
  23 H :    0.000827
  24 H :    0.008800
  25 C :   -0.106973
  26 H :    0.032026
  27 H :    0.050191
  28 C :   -0.047745
  29 H :    0.038277
  30 H :    0.027121
  31 H :    0.034242
  32 H :    0.044385
  33 H :    0.050047
Sum of atomic charges:   -0.0000000

LOEWDIN ATOMIC CHARGES
----------------------
   0 S :    0.370324
   1 C :   -0.191121
   2 C :   -0.059096
   3 C :   -0.071437
   4 C :   -0.174604
   5 H :    0.040816
   6 C :   -0.028125
   7 H :    0.028024
   8 H :    0.024426
   9 C :   -0.043898
  10 H :    0.025654
  11 H :    0.023151
  12 C :   -0.069709
  13 H :    0.022724
  14 H :    0.029520
  15 H :    0.030810
  16 S :    0.388556
  17 C :   -0.170952
  18 C :   -0.054882
  19 C :   -0.053624
  20 C :   -0.187885
  21 H :    0.026692
  22 C :   -0.032310
  23 H :    0.030031
  24 H :    0.019919
  25 C :   -0.044446
  26 H :    0.023216
  27 H :    0.036971
  28 C :   -0.069316
  29 H :    0.033433
  30 H :    0.021173
  31 H :    0.027279
  32 H :    0.023777
  33 H :    0.024911

  Mayer bond orders larger than 0.100000
B(  0-S ,  1-C ) :   1.1253 B(  0-S ,  4-C ) :   1.1418 B(  1-C ,  2-C ) :   1.5924
B(  1-C ,  4-C ) :   0.1015 B(  1-C , 32-H ) :   0.9735 B(  2-C ,  3-C ) :   1.2386
B(  2-C ,  6-C ) :   1.0438 B(  3-C ,  4-C ) :   1.5762 B(  3-C ,  5-H ) :   0.9812
B(  4-C , 20-C ) :   1.0417 B(  6-C ,  7-H ) :   0.9305 B(  6-C ,  8-H ) :   0.9276
B(  6-C ,  9-C ) :   1.0614 B(  9-C , 10-H ) :   0.9523 B(  9-C , 11-H ) :   0.9502
B(  9-C , 12-C ) :   1.1059 B( 12-C , 13-H ) :   0.9730 B( 12-C , 14-H ) :   0.9698
B( 12-C , 15-H ) :   0.9704 B( 16-S , 17-C ) :   1.1147 B( 16-S , 20-C ) :   1.1437
B( 17-C , 18-C ) :   1.6477 B( 17-C , 33-H ) :   0.9727 B( 18-C , 19-C ) :   1.1965
B( 18-C , 21-H ) :   0.9901 B( 19-C , 20-C ) :   1.6260 B( 19-C , 22-C ) :   1.0533
B( 22-C , 23-H ) :   0.9289 B( 22-C , 24-H ) :   0.9197 B( 22-C , 25-C ) :   1.0496
B( 25-C , 26-H ) :   0.9512 B( 25-C , 27-H ) :   0.9564 B( 25-C , 28-C ) :   1.1096
B( 28-C , 29-H ) :   0.9705 B( 28-C , 30-H ) :   0.9676 B( 28-C , 31-H ) :   0.9714

Dispersion correction           -0.013644470
FINAL SINGLE POINT ENERGY     -1339.879691585074

DIPOLE MOMENT
-------------
                                X             Y             Z
Electronic contribution:    -22.16405     -11.34781      13.09445
Nuclear contribution   :     22.77722      11.61797     -13.22590
                        -----------------------------------------
Total Dipole Moment    :      0.61317       0.27015      -0.13145
                        -----------------------------------------
Magnitude (a.u.)       :      0.68282
Magnitude (Debye)      :      1.73560

Rotational constants in cm-1:     0.017312     0.008359     0.006715
Rotational constants in MHz :   519.012190   250.606007   201.319355

                             ****ORCA TERMINATED NORMALLY****
TOTAL RUN TIME: 0 days 0 hours 0 minutes 32 seconds 419 msec
