                         Program Version 4.2.1 -  RELEASE  -
|  1> ! wB97X-D3 SP def2-SVP
|  2> %pal
|  3> nprocs 16
|  4> end
|  5>
|  6> * xyz 0 1
|  7> S 	 53.392 	 -3.84959 	 89.0923
|  8> C 	 53.9038 	 -2.24654 	 89.5691
|  9> C 	 55.0166 	 -1.8501 	 88.813
| 10> C 	 55.486 	 -2.86825 	 87.9044
| 11> C 	 54.7823 	 -4.04792 	 88.0788
| 12> H 	 56.2204 	 -2.74606 	 87.2053
| 13> C 	 55.5636 	 -0.413728 	 88.8261
| 14> H 	 54.7839 	 0.327731 	 88.8225
| 15> H 	 56.1189 	 -0.305673 	 87.9372
| 16> C 	 56.5595 	 -0.144138 	 90.0606
| 17> H 	 56.9158 	 0.864897 	 89.9702
| 18> H 	 55.9287 	 -0.15615 	 90.9834
| 19> C 	 57.7148 	 -1.13007 	 90.2023
| 20> H 	 57.4629 	 -1.89015 	 90.9294
| 21> H 	 57.8812 	 -1.63498 	 89.248
| 22> H 	 58.6703 	 -0.611071 	 90.4874
| 23> S 	 53.9727 	 -6.64812 	 87.6977
| 24> C 	 54.829 	 -7.64694 	 86.5698
| 25> C 	 55.9814 	 -7.02434 	 86.1372
| 26> C 	 56.0382 	 -5.62347 	 86.4512
| 27> C 	 55.0289 	 -5.26861 	 87.3942
| 28> H 	 56.5663 	 -7.61958 	 85.4307
| 29> C 	 57.1895 	 -4.75831 	 85.9949
| 30> H 	 56.8293 	 -3.9525 	 85.524
| 31> H 	 57.689 	 -5.39617 	 85.2559
| 32> C 	 58.3632 	 -4.40998 	 86.9648
| 33> H 	 58.9081 	 -5.36074 	 87.3194
| 34> H 	 57.9734 	 -4.11888 	 87.9674
| 35> C 	 59.3101 	 -3.33431 	 86.4263
| 36> H 	 58.7275 	 -2.46815 	 86.1149
| 37> H 	 59.8316 	 -3.59498 	 85.573
| 38> H 	 60.0302 	 -3.0013 	 87.1234
| 39> H 	 53.4871 	 -1.55014 	 90.1895
| 40> H 	 54.5241 	 -8.67451 	 86.4128
| 41> *
| 42>
| 43>                          ****END OF INPUT****

CARTESIAN COORDINATES (ANGSTROEM)
---------------------------------
  S     53.392000   -3.849590   89.092300
  C     53.903800   -2.246540   89.569100
  C     55.016600   -1.850100   88.813000
  C     55.486000   -2.868250   87.904400
  C     54.782300   -4.047920   88.078800
  H     56.220400   -2.746060   87.205300
  C     55.563600   -0.413728   88.826100
  H     54.783900    0.327731   88.822500
  H     56.118900   -0.305673   87.937200
  C     56.559500   -0.144138   90.060600
  H     56.915800    0.864897   89.970200
  H     55.928700   -0.156150   90.983400
  C     57.714800   -1.130070   90.202300
  H     57.462900   -1.890150   90.929400
  H     57.881200   -1.634980   89.248000
  H     58.670300   -0.611071   90.487400
  S     53.972700   -6.648120   87.697700
  C     54.829000   -7.646940   86.569800
  C     55.981400   -7.024340   86.137200
  C     56.038200   -5.623470   86.451200
  C     55.028900   -5.268610   87.394200
  H     56.566300   -7.619580   85.430700
  C     57.189500   -4.758310   85.994900
  H     56.829300   -3.952500   85.524000
  H     57.689000   -5.396170   85.255900
  C     58.363200   -4.409980   86.964800
  H     58.908100   -5.360740   87.319400
  H     57.973400   -4.118880   87.967400
  C     59.310100   -3.334310   86.426300
  H     58.727500   -2.468150   86.114900
  H     59.831600   -3.594980   85.573000
  H     60.030200   -3.001300   87.123400
  H     53.487100   -1.550140   90.189500
  H     54.524100   -8.674510   86.412800

 Total Charge           Charge          ....    0
 Multiplicity           Mult            ....    1
 Number of Electrons    NEL             ....  134
 Basis Dimension        Dim             ....  322

ORBITAL ENERGIES
----------------

  NO   OCC          E(Eh)            E(eV)
   0   2.0000     -88.970268     -2421.0041
   1   2.0000     -88.965497     -2420.8742
   2   2.0000     -10.330330      -281.1026
   3   2.0000     -10.328308      -281.0476
   4   2.0000     -10.316770      -280.7336
   5   2.0000     -10.309711      -280.5415
   6   2.0000     -10.307440      -280.4797
   7   2.0000     -10.302499      -280.3453
   8   2.0000     -10.297324      -280.2044
   9   2.0000     -10.297077      -280.1977
  10   2.0000     -10.291828      -280.0549
  11   2.0000     -10.288781      -279.9720
  12   2.0000     -10.288672      -279.9690
  13   2.0000     -10.288497      -279.9642
  14   2.0000     -10.277085      -279.6537
  15   2.0000     -10.273811      -279.5646
  16   2.0000      -8.084857      -220.0001
  17   2.0000      -8.080511      -219.8819
  18   2.0000      -6.043479      -164.4514
  19   2.0000      -6.039443      -164.3416
  20   2.0000      -6.039009      -164.3298
  21   2.0000      -6.035463      -164.2333
  22   2.0000      -6.034892      -164.2178
  23   2.0000      -6.031381      -164.1222
  24   2.0000      -1.009560       -27.4715
  25   2.0000      -0.982534       -26.7361
  26   2.0000      -0.910381       -24.7727
  27   2.0000      -0.904670       -24.6173
  28   2.0000      -0.870838       -23.6967
  29   2.0000      -0.856624       -23.3099
  30   2.0000      -0.844993       -22.9934
  31   2.0000      -0.816030       -22.2053
  32   2.0000      -0.788245       -21.4492
  33   2.0000      -0.774002       -21.0617
  34   2.0000      -0.714253       -19.4358
  35   2.0000      -0.702452       -19.1147
  36   2.0000      -0.696936       -18.9646
  37   2.0000      -0.666507       -18.1366
  38   2.0000      -0.640191       -17.4205
  39   2.0000      -0.620388       -16.8816
  40   2.0000      -0.597946       -16.2709
  41   2.0000      -0.569203       -15.4888
  42   2.0000      -0.562194       -15.2981
  43   2.0000      -0.546444       -14.8695
  44   2.0000      -0.542410       -14.7597
  45   2.0000      -0.528384       -14.3781
  46   2.0000      -0.518415       -14.1068
  47   2.0000      -0.511106       -13.9079
  48   2.0000      -0.507560       -13.8114
  49   2.0000      -0.507015       -13.7966
  50   2.0000      -0.492836       -13.4108
  51   2.0000      -0.487077       -13.2540
  52   2.0000      -0.474524       -12.9124
  53   2.0000      -0.465659       -12.6712
  54   2.0000      -0.457658       -12.4535
  55   2.0000      -0.453682       -12.3453
  56   2.0000      -0.445683       -12.1276
  57   2.0000      -0.442359       -12.0372
  58   2.0000      -0.440123       -11.9764
  59   2.0000      -0.424690       -11.5564
  60   2.0000      -0.420827       -11.4513
  61   2.0000      -0.413841       -11.2612
  62   2.0000      -0.403391       -10.9768
  63   2.0000      -0.364293        -9.9129
  64   2.0000      -0.336548        -9.1579
  65   2.0000      -0.327258        -8.9052
  66   2.0000      -0.275058        -7.4847
  67   0.0000       0.011775         0.3204
  68   0.0000       0.087680         2.3859
  69   0.0000       0.094392         2.5685
  70   0.0000       0.116449         3.1687
  71   0.0000       0.127969         3.4822

MULLIKEN ATOMIC CHARGES
-----------------------
   0 S :    0.116017
   1 C :   -0.056632
   2 C :   -0.112524
   3 C :    0.022514
   4 C :   -0.084665
   5 H :   -0.046440
   6 C :    0.082760
   7 H :    0.029579
   8 H :    0.007550
   9 C :   -0.094965
  10 H :    0.027753
  11 H :    0.030317
  12 C :   -0.045052
  13 H :    0.043352
  14 H :    0.022295
  15 H :    0.042992
  16 S :    0.092319
  17 C :   -0.101603
  18 C :   -0.027729
  19 C :   -0.078165
  20 C :   -0.109713
  21 H :    0.028012
  22 C :    0.096375
  23 H :    0.004038
  24 H :    0.018681
  25 C :   -0.114841
  26 H :    0.033667
  27 H :    0.036244
  28 C :    0.013067
  29 H :    0.014871
  30 H :    0.013575
  31 H :    0.031520
  32 H :    0.002124
  33 H :    0.062705
Sum of atomic charges:    0.0000000

LOEWDIN ATOMIC CHARGES
----------------------
   0 S :    0.416092
   1 C :   -0.192663
   2 C :   -0.049855
   3 C :   -0.056833
   4 C :   -0.187201
   5 H :    0.012791
   6 C :   -0.022544
   7 H :    0.028140
   8 H :    0.019914
   9 C :   -0.039885
  10 H :    0.018056
  11 H :    0.023911
  12 C :   -0.070568
  13 H :    0.030022
  14 H :    0.022965
  15 H :    0.033967
  16 S :    0.401519
  17 C :   -0.188337
  18 C :   -0.074032
  19 C :   -0.052845
  20 C :   -0.187110
  21 H :    0.035538
  22 C :   -0.029287
  23 H :    0.010130
  24 H :    0.038078
  25 C :   -0.047035
  26 H :    0.032725
  27 H :    0.023323
  28 C :   -0.057269
  29 H :    0.024736
  30 H :    0.016521
  31 H :    0.026549
  32 H :    0.010933
  33 H :    0.029553

  Mayer bond orders larger than 0.100000
B(  0-S ,  1-C ) :   1.1246 B(  0-S ,  4-C ) :   1.1465 B(  1-C ,  2-C ) :   1.6036
B(  1-C , 32-H ) :   0.9760 B(  2-C ,  3-C ) :   1.2469 B(  2-C ,  6-C ) :   1.0234
B(  3-C ,  4-C ) :   1.5218 B(  3-C ,  5-H ) :   1.0062 B(  4-C , 20-C ) :   1.1476
B(  6-C ,  7-H ) :   0.9474 B(  6-C ,  8-H ) :   0.9409 B(  6-C ,  9-C ) :   1.0678
B(  9-C , 10-H ) :   0.9639 B(  9-C , 11-H ) :   0.9638 B(  9-C , 12-C ) :   1.0590
B( 12-C , 13-H ) :   0.9742 B( 12-C , 14-H ) :   0.9800 B( 12-C , 15-H ) :   0.9754
B( 16-S , 17-C ) :   1.1613 B( 16-S , 20-C ) :   1.1383 B( 17-C , 18-C ) :   1.5985
B( 17-C , 33-H ) :   0.9677 B( 18-C , 19-C ) :   1.2640 B( 18-C , 21-H ) :   0.9814
B( 19-C , 20-C ) :   1.5290 B( 19-C , 22-C ) :   1.0529 B( 22-C , 23-H ) :   0.9273
B( 22-C , 24-H ) :   0.9251 B( 22-C , 25-C ) :   1.0457 B( 25-C , 26-H ) :   0.9502
B( 25-C , 27-H ) :   0.9596 B( 25-C , 28-C ) :   1.0719 B( 28-C , 29-H ) :   0.9708
B( 28-C , 30-H ) :   0.9731 B( 28-C , 31-H ) :   0.9701

Dispersion correction           -0.015475945
FINAL SINGLE POINT ENERGY     -1339.863792657113

DIPOLE MOMENT
-------------
                                X             Y             Z
Electronic contribution:    -26.01978     -18.43183       0.65330
Nuclear contribution   :     26.58138      18.73535      -0.93091
                        -----------------------------------------
Total Dipole Moment    :      0.56160       0.30352      -0.27762
                        -----------------------------------------
Magnitude (a.u.)       :      0.69613
Magnitude (Debye)      :      1.76942

Rotational constants in cm-1:     0.018420     0.010446     0.007093
Rotational constants in MHz :   552.225150   313.170294   212.652180

                             ****ORCA TERMINATED NORMALLY****
TOTAL RUN TIME: 0 days 0 hours 0 minutes 31 seconds 156 msec
