                         Program Version 4.2.1 -  RELEASE  -
|  1> ! wB97X-D3 SP def2-SVP
|  2> %pal
|  3> nprocs 16
|  4> end
|  5>
|  6> * xyz 0 1
|  7> S 	 20.4022 	 32.7898 	 58.7698
|  8> C 	 18.6425 	 32.9984 	 58.8321
|  9> C 	 18.2093 	 33.6338 	 57.6521
| 10> C 	 19.2457 	 33.9323 	 56.7386
| 11> C 	 20.5236 	 33.5848 	 57.1651
| 12> H 	 19.1109 	 34.324 	 55.7468
| 13> C 	 16.8 	 33.9302 	 57.4635
| 14> H 	 16.077 	 33.4558 	 58.0699
| 15> H 	 16.4567 	 33.6448 	 56.476
| 16> C 	 16.5811 	 35.4541 	 57.5557
| 17> H 	 16.877 	 35.8619 	 58.5065
| 18> H 	 17.3047 	 35.8995 	 56.8106
| 19> C 	 15.1927 	 35.8685 	 57.2219
| 20> H 	 14.5241 	 35.125 	 56.8763
| 21> H 	 14.7014 	 36.3787 	 58.0441
| 22> H 	 15.2663 	 36.5769 	 56.373
| 23> S 	 22.6494 	 32.0775 	 56.3544
| 24> C 	 23.8409 	 32.8388 	 55.2098
| 25> C 	 23.5644 	 34.139 	 54.9563
| 26> C 	 22.3492 	 34.5433 	 55.5938
| 27> C 	 21.806 	 33.5793 	 56.4313
| 28> H 	 24.367 	 34.5894 	 54.3452
| 29> C 	 21.8109 	 35.9485 	 55.4137
| 30> H 	 20.7787 	 35.9 	 55.7609
| 31> H 	 21.8824 	 36.3397 	 54.3549
| 32> C 	 22.4307 	 37.141 	 56.2181
| 33> H 	 23.3919 	 37.3972 	 55.8327
| 34> H 	 22.6021 	 36.689 	 57.2329
| 35> C 	 21.3866 	 38.2916 	 56.311
| 36> H 	 21.8187 	 39.1947 	 56.8095
| 37> H 	 20.4244 	 38.0596 	 56.7442
| 38> H 	 21.1192 	 38.6826 	 55.3915
| 39> H 	 17.9827 	 32.8863 	 59.6493
| 40> H 	 24.5658 	 32.2675 	 54.6908
| 41> *
| 42>
| 43>                          ****END OF INPUT****

CARTESIAN COORDINATES (ANGSTROEM)
---------------------------------
  S     20.402200   32.789800   58.769800
  C     18.642500   32.998400   58.832100
  C     18.209300   33.633800   57.652100
  C     19.245700   33.932300   56.738600
  C     20.523600   33.584800   57.165100
  H     19.110900   34.324000   55.746800
  C     16.800000   33.930200   57.463500
  H     16.077000   33.455800   58.069900
  H     16.456700   33.644800   56.476000
  C     16.581100   35.454100   57.555700
  H     16.877000   35.861900   58.506500
  H     17.304700   35.899500   56.810600
  C     15.192700   35.868500   57.221900
  H     14.524100   35.125000   56.876300
  H     14.701400   36.378700   58.044100
  H     15.266300   36.576900   56.373000
  S     22.649400   32.077500   56.354400
  C     23.840900   32.838800   55.209800
  C     23.564400   34.139000   54.956300
  C     22.349200   34.543300   55.593800
  C     21.806000   33.579300   56.431300
  H     24.367000   34.589400   54.345200
  C     21.810900   35.948500   55.413700
  H     20.778700   35.900000   55.760900
  H     21.882400   36.339700   54.354900
  C     22.430700   37.141000   56.218100
  H     23.391900   37.397200   55.832700
  H     22.602100   36.689000   57.232900
  C     21.386600   38.291600   56.311000
  H     21.818700   39.194700   56.809500
  H     20.424400   38.059600   56.744200
  H     21.119200   38.682600   55.391500
  H     17.982700   32.886300   59.649300
  H     24.565800   32.267500   54.690800

 Total Charge           Charge          ....    0
 Multiplicity           Mult            ....    1
 Number of Electrons    NEL             ....  134
 Basis Dimension        Dim             ....  322

ORBITAL ENERGIES
----------------

  NO   OCC          E(Eh)            E(eV)
   0   2.0000     -88.966784     -2420.9093
   1   2.0000     -88.965493     -2420.8741
   2   2.0000     -10.338456      -281.3237
   3   2.0000     -10.330948      -281.1194
   4   2.0000     -10.316743      -280.7329
   5   2.0000     -10.313936      -280.6565
   6   2.0000     -10.307615      -280.4845
   7   2.0000     -10.299562      -280.2653
   8   2.0000     -10.297517      -280.2097
   9   2.0000     -10.296515      -280.1824
  10   2.0000     -10.291903      -280.0569
  11   2.0000     -10.288959      -279.9768
  12   2.0000     -10.283707      -279.8339
  13   2.0000     -10.283314      -279.8232
  14   2.0000     -10.275625      -279.6140
  15   2.0000     -10.271989      -279.5150
  16   2.0000      -8.080211      -219.8737
  17   2.0000      -8.080011      -219.8683
  18   2.0000      -6.038839      -164.3252
  19   2.0000      -6.038547      -164.3172
  20   2.0000      -6.034814      -164.2156
  21   2.0000      -6.034671      -164.2117
  22   2.0000      -6.030997      -164.1118
  23   2.0000      -6.030604      -164.1011
  24   2.0000      -1.004628       -27.3373
  25   2.0000      -0.981582       -26.7102
  26   2.0000      -0.920125       -25.0379
  27   2.0000      -0.901669       -24.5357
  28   2.0000      -0.873940       -23.7811
  29   2.0000      -0.850164       -23.1341
  30   2.0000      -0.846580       -23.0366
  31   2.0000      -0.822755       -22.3883
  32   2.0000      -0.780416       -21.2362
  33   2.0000      -0.768833       -20.9210
  34   2.0000      -0.711971       -19.3737
  35   2.0000      -0.698930       -19.0189
  36   2.0000      -0.697217       -18.9722
  37   2.0000      -0.660570       -17.9750
  38   2.0000      -0.646994       -17.6056
  39   2.0000      -0.625234       -17.0135
  40   2.0000      -0.593622       -16.1533
  41   2.0000      -0.575994       -15.6736
  42   2.0000      -0.567501       -15.4425
  43   2.0000      -0.561035       -15.2665
  44   2.0000      -0.528095       -14.3702
  45   2.0000      -0.525403       -14.2969
  46   2.0000      -0.513731       -13.9793
  47   2.0000      -0.510450       -13.8900
  48   2.0000      -0.506937       -13.7944
  49   2.0000      -0.499540       -13.5932
  50   2.0000      -0.492445       -13.4001
  51   2.0000      -0.480472       -13.0743
  52   2.0000      -0.473146       -12.8750
  53   2.0000      -0.468968       -12.7613
  54   2.0000      -0.460444       -12.5293
  55   2.0000      -0.456302       -12.4166
  56   2.0000      -0.441725       -12.0200
  57   2.0000      -0.434962       -11.8359
  58   2.0000      -0.432297       -11.7634
  59   2.0000      -0.424240       -11.5441
  60   2.0000      -0.421294       -11.4640
  61   2.0000      -0.410688       -11.1754
  62   2.0000      -0.403763       -10.9869
  63   2.0000      -0.356006        -9.6874
  64   2.0000      -0.332422        -9.0457
  65   2.0000      -0.325998        -8.8709
  66   2.0000      -0.287862        -7.8331
  67   0.0000       0.026194         0.7128
  68   0.0000       0.067146         1.8271
  69   0.0000       0.105041         2.8583
  70   0.0000       0.114377         3.1124
  71   0.0000       0.131537         3.5793

MULLIKEN ATOMIC CHARGES
-----------------------
   0 S :    0.093979
   1 C :   -0.088873
   2 C :   -0.091743
   3 C :    0.046988
   4 C :   -0.166511
   5 H :    0.019401
   6 C :    0.088462
   7 H :    0.008414
   8 H :    0.015796
   9 C :   -0.113944
  10 H :    0.023221
  11 H :    0.030146
  12 C :   -0.012686
  13 H :    0.019720
  14 H :    0.033953
  15 H :    0.028504
  16 S :    0.095420
  17 C :   -0.100203
  18 C :   -0.024050
  19 C :   -0.033852
  20 C :   -0.108721
  21 H :    0.038333
  22 C :    0.025113
  23 H :    0.005565
  24 H :    0.037206
  25 C :   -0.050432
  26 H :    0.023762
  27 H :    0.036724
  28 C :   -0.033347
  29 H :    0.036057
  30 H :    0.034463
  31 H :    0.002118
  32 H :    0.036270
  33 H :    0.044746
Sum of atomic charges:   -0.0000000

LOEWDIN ATOMIC CHARGES
----------------------
   0 S :    0.379669
   1 C :   -0.188528
   2 C :   -0.057101
   3 C :   -0.064093
   4 C :   -0.171771
   5 H :    0.031032
   6 C :   -0.031341
   7 H :    0.022950
   8 H :    0.030193
   9 C :   -0.040151
  10 H :    0.020679
  11 H :    0.026176
  12 C :   -0.069942
  13 H :    0.018902
  14 H :    0.028316
  15 H :    0.033849
  16 S :    0.385900
  17 C :   -0.153405
  18 C :   -0.070313
  19 C :   -0.060090
  20 C :   -0.203449
  21 H :    0.047487
  22 C :   -0.040739
  23 H :    0.025810
  24 H :    0.034925
  25 C :   -0.033224
  26 H :    0.016347
  27 H :    0.029745
  28 C :   -0.064920
  29 H :    0.033449
  30 H :    0.027391
  31 H :    0.012507
  32 H :    0.023584
  33 H :    0.020155

  Mayer bond orders larger than 0.100000
B(  0-S ,  1-C ) :   1.1247 B(  0-S ,  4-C ) :   1.1520 B(  1-C ,  2-C ) :   1.5938
B(  1-C ,  4-C ) :   0.1076 B(  1-C , 32-H ) :   0.9719 B(  2-C ,  3-C ) :   1.2494
B(  2-C ,  6-C ) :   1.0542 B(  3-C ,  4-C ) :   1.5612 B(  3-C ,  5-H ) :   0.9831
B(  4-C , 20-C ) :   1.0192 B(  6-C ,  7-H ) :   0.9414 B(  6-C ,  8-H ) :   0.9298
B(  6-C ,  9-C ) :   1.0495 B(  9-C , 10-H ) :   0.9607 B(  9-C , 11-H ) :   0.9676
B(  9-C , 12-C ) :   1.0646 B( 12-C , 13-H ) :   0.9741 B( 12-C , 14-H ) :   0.9763
B( 12-C , 15-H ) :   0.9748 B( 16-S , 17-C ) :   1.1264 B( 16-S , 20-C ) :   1.1391
B( 17-C , 18-C ) :   1.6651 B( 17-C , 33-H ) :   0.9691 B( 18-C , 19-C ) :   1.1820
B( 18-C , 21-H ) :   0.9898 B( 19-C , 20-C ) :   1.6171 B( 19-C , 22-C ) :   1.0596
B( 22-C , 23-H ) :   0.9298 B( 22-C , 24-H ) :   0.9379 B( 22-C , 25-C ) :   1.0545
B( 25-C , 26-H ) :   0.9588 B( 25-C , 27-H ) :   0.9572 B( 25-C , 28-C ) :   1.0742
B( 28-C , 29-H ) :   0.9733 B( 28-C , 30-H ) :   0.9739 B( 28-C , 31-H ) :   0.9731

Dispersion correction           -0.013809164
FINAL SINGLE POINT ENERGY     -1339.860333843712

DIPOLE MOMENT
-------------
                                X             Y             Z
Electronic contribution:     17.61883     -25.56652       4.99722
Nuclear contribution   :    -17.94360      26.08309      -5.43890
                        -----------------------------------------
Total Dipole Moment    :     -0.32477       0.51657      -0.44168
                        -----------------------------------------
Magnitude (a.u.)       :      0.75326
Magnitude (Debye)      :      1.91463

Rotational constants in cm-1:     0.017549     0.008991     0.006661
Rotational constants in MHz :   526.100387   269.531516   199.678688

                             ****ORCA TERMINATED NORMALLY****
TOTAL RUN TIME: 0 days 0 hours 0 minutes 34 seconds 967 msec
