                         Program Version 4.2.1 -  RELEASE  -
|  1> ! wB97X-D3 SP def2-SVP
|  2> %pal
|  3> nprocs 16
|  4> end
|  5>
|  6> * xyz 0 1
|  7> S 	 -43.5005 	 25.5632 	 84.6835
|  8> C 	 -44.1831 	 24.0102 	 84.2412
|  9> C 	 -43.3983 	 22.913 	 84.6274
| 10> C 	 -42.1571 	 23.3917 	 85.1957
| 11> C 	 -42.043 	 24.77 	 85.2141
| 12> H 	 -41.3146 	 22.8008 	 85.5762
| 13> C 	 -43.7104 	 21.4556 	 84.2562
| 14> H 	 -43.0884 	 21.1641 	 83.3868
| 15> H 	 -44.7779 	 21.2989 	 84.0497
| 16> C 	 -43.5761 	 20.341 	 85.3729
| 17> H 	 -43.7962 	 19.3826 	 84.9013
| 18> H 	 -42.4681 	 20.2932 	 85.5715
| 19> C 	 -44.5129 	 20.5712 	 86.5868
| 20> H 	 -44.264 	 21.5142 	 86.991
| 21> H 	 -45.5401 	 20.7369 	 86.3211
| 22> H 	 -44.3209 	 19.7622 	 87.3601
| 23> S 	 -41.4803 	 26.7229 	 87.0556
| 24> C 	 -39.856 	 27.4114 	 87.1948
| 25> C 	 -39.0043 	 26.6895 	 86.3725
| 26> C 	 -39.5709 	 25.6577 	 85.55
| 27> C 	 -40.9464 	 25.5709 	 85.7841
| 28> H 	 -37.9358 	 26.8849 	 86.4079
| 29> C 	 -38.8835 	 24.8487 	 84.4763
| 30> H 	 -38.2707 	 25.5438 	 83.9817
| 31> H 	 -39.5385 	 24.4188 	 83.7888
| 32> C 	 -38.0781 	 23.6788 	 85.1319
| 33> H 	 -38.8215 	 23.0772 	 85.612
| 34> H 	 -37.3799 	 24.0533 	 85.8774
| 35> C 	 -37.2666 	 22.829 	 84.2018
| 36> H 	 -36.6877 	 23.4494 	 83.5782
| 37> H 	 -37.8649 	 22.15 	 83.6093
| 38> H 	 -36.5672 	 22.2544 	 84.8419
| 39> H 	 -45.0401 	 23.722 	 83.6964
| 40> H 	 -39.5496 	 28.1679 	 87.8557
| 41> *
| 42>
| 43>                          ****END OF INPUT****

CARTESIAN COORDINATES (ANGSTROEM)
---------------------------------
  S    -43.500500   25.563200   84.683500
  C    -44.183100   24.010200   84.241200
  C    -43.398300   22.913000   84.627400
  C    -42.157100   23.391700   85.195700
  C    -42.043000   24.770000   85.214100
  H    -41.314600   22.800800   85.576200
  C    -43.710400   21.455600   84.256200
  H    -43.088400   21.164100   83.386800
  H    -44.777900   21.298900   84.049700
  C    -43.576100   20.341000   85.372900
  H    -43.796200   19.382600   84.901300
  H    -42.468100   20.293200   85.571500
  C    -44.512900   20.571200   86.586800
  H    -44.264000   21.514200   86.991000
  H    -45.540100   20.736900   86.321100
  H    -44.320900   19.762200   87.360100
  S    -41.480300   26.722900   87.055600
  C    -39.856000   27.411400   87.194800
  C    -39.004300   26.689500   86.372500
  C    -39.570900   25.657700   85.550000
  C    -40.946400   25.570900   85.784100
  H    -37.935800   26.884900   86.407900
  C    -38.883500   24.848700   84.476300
  H    -38.270700   25.543800   83.981700
  H    -39.538500   24.418800   83.788800
  C    -38.078100   23.678800   85.131900
  H    -38.821500   23.077200   85.612000
  H    -37.379900   24.053300   85.877400
  C    -37.266600   22.829000   84.201800
  H    -36.687700   23.449400   83.578200
  H    -37.864900   22.150000   83.609300
  H    -36.567200   22.254400   84.841900
  H    -45.040100   23.722000   83.696400
  H    -39.549600   28.167900   87.855700

 Total Charge           Charge          ....    0
 Multiplicity           Mult            ....    1
 Number of Electrons    NEL             ....  134
 Basis Dimension        Dim             ....  322

ORBITAL ENERGIES
----------------

  NO   OCC          E(Eh)            E(eV)
   0   2.0000     -88.972418     -2421.0626
   1   2.0000     -88.962552     -2420.7941
   2   2.0000     -10.330466      -281.1063
   3   2.0000     -10.330228      -281.0998
   4   2.0000     -10.317582      -280.7557
   5   2.0000     -10.313358      -280.6407
   6   2.0000     -10.307654      -280.4855
   7   2.0000     -10.306071      -280.4424
   8   2.0000     -10.300742      -280.2974
   9   2.0000     -10.299237      -280.2565
  10   2.0000     -10.296511      -280.1823
  11   2.0000     -10.295147      -280.1452
  12   2.0000     -10.285235      -279.8755
  13   2.0000     -10.282605      -279.8039
  14   2.0000     -10.279335      -279.7149
  15   2.0000     -10.273692      -279.5614
  16   2.0000      -8.086693      -220.0501
  17   2.0000      -8.076403      -219.7701
  18   2.0000      -6.045235      -164.4992
  19   2.0000      -6.041314      -164.3925
  20   2.0000      -6.037375      -164.2853
  21   2.0000      -6.034965      -164.2197
  22   2.0000      -6.031040      -164.1129
  23   2.0000      -6.027136      -164.0067
  24   2.0000      -1.002705       -27.2850
  25   2.0000      -0.977897       -26.6099
  26   2.0000      -0.913042       -24.8451
  27   2.0000      -0.905346       -24.6357
  28   2.0000      -0.865634       -23.5551
  29   2.0000      -0.854557       -23.2537
  30   2.0000      -0.843845       -22.9622
  31   2.0000      -0.813279       -22.1304
  32   2.0000      -0.784824       -21.3562
  33   2.0000      -0.775007       -21.0890
  34   2.0000      -0.707198       -19.2438
  35   2.0000      -0.699110       -19.0238
  36   2.0000      -0.694052       -18.8861
  37   2.0000      -0.660746       -17.9798
  38   2.0000      -0.638342       -17.3702
  39   2.0000      -0.616858       -16.7856
  40   2.0000      -0.599289       -16.3075
  41   2.0000      -0.573860       -15.6155
  42   2.0000      -0.561546       -15.2804
  43   2.0000      -0.552454       -15.0330
  44   2.0000      -0.538724       -14.6594
  45   2.0000      -0.529267       -14.4021
  46   2.0000      -0.520515       -14.1639
  47   2.0000      -0.511591       -13.9211
  48   2.0000      -0.509317       -13.8592
  49   2.0000      -0.496941       -13.5224
  50   2.0000      -0.484791       -13.1918
  51   2.0000      -0.484082       -13.1725
  52   2.0000      -0.472509       -12.8576
  53   2.0000      -0.468821       -12.7573
  54   2.0000      -0.458950       -12.4887
  55   2.0000      -0.448456       -12.2031
  56   2.0000      -0.445298       -12.1172
  57   2.0000      -0.439173       -11.9505
  58   2.0000      -0.432266       -11.7626
  59   2.0000      -0.428430       -11.6582
  60   2.0000      -0.423956       -11.5364
  61   2.0000      -0.415575       -11.3084
  62   2.0000      -0.406171       -11.0525
  63   2.0000      -0.344400        -9.3716
  64   2.0000      -0.333671        -9.0796
  65   2.0000      -0.327317        -8.9067
  66   2.0000      -0.293206        -7.9786
  67   0.0000       0.031543         0.8583
  68   0.0000       0.063299         1.7225
  69   0.0000       0.110593         3.0094
  70   0.0000       0.118695         3.2299
  71   0.0000       0.129929         3.5356

MULLIKEN ATOMIC CHARGES
-----------------------
   0 S :    0.136351
   1 C :   -0.074969
   2 C :   -0.099702
   3 C :    0.027069
   4 C :   -0.157041
   5 H :    0.018982
   6 C :    0.016197
   7 H :    0.056074
   8 H :    0.021824
   9 C :   -0.100413
  10 H :    0.029946
  11 H :    0.032509
  12 C :   -0.034936
  13 H :    0.027390
  14 H :    0.027129
  15 H :    0.055977
  16 S :    0.084283
  17 C :   -0.067925
  18 C :   -0.044104
  19 C :   -0.036536
  20 C :   -0.178770
  21 H :    0.015463
  22 C :    0.144041
  23 H :    0.009721
  24 H :    0.011851
  25 C :   -0.115317
  26 H :    0.017911
  27 H :    0.026825
  28 C :    0.010697
  29 H :    0.014448
  30 H :    0.027784
  31 H :    0.032513
  32 H :    0.021029
  33 H :    0.043697
Sum of atomic charges:    0.0000000

LOEWDIN ATOMIC CHARGES
----------------------
   0 S :    0.418105
   1 C :   -0.194456
   2 C :   -0.064352
   3 C :   -0.064037
   4 C :   -0.201208
   5 H :    0.032698
   6 C :   -0.037164
   7 H :    0.037838
   8 H :    0.028584
   9 C :   -0.043668
  10 H :    0.021724
  11 H :    0.022864
  12 C :   -0.066561
  13 H :    0.022719
  14 H :    0.024987
  15 H :    0.039165
  16 S :    0.372707
  17 C :   -0.173187
  18 C :   -0.070315
  19 C :   -0.052364
  20 C :   -0.180189
  21 H :    0.028385
  22 C :   -0.014715
  23 H :    0.024043
  24 H :    0.023586
  25 C :   -0.035989
  26 H :    0.017866
  27 H :    0.023431
  28 C :   -0.057816
  29 H :    0.017236
  30 H :    0.022107
  31 H :    0.032623
  32 H :    0.022078
  33 H :    0.023278

  Mayer bond orders larger than 0.100000
B(  0-S ,  1-C ) :   1.1343 B(  0-S ,  4-C ) :   1.1445 B(  1-C ,  2-C ) :   1.6341
B(  1-C , 32-H ) :   0.9636 B(  2-C ,  3-C ) :   1.2124 B(  2-C ,  6-C ) :   1.0215
B(  3-C ,  4-C ) :   1.5908 B(  3-C ,  5-H ) :   0.9908 B(  4-C , 20-C ) :   1.0211
B(  6-C ,  7-H ) :   0.9459 B(  6-C ,  8-H ) :   0.9455 B(  6-C ,  9-C ) :   1.0639
B(  9-C , 10-H ) :   0.9596 B(  9-C , 11-H ) :   0.9579 B(  9-C , 12-C ) :   1.0606
B( 12-C , 13-H ) :   0.9741 B( 12-C , 14-H ) :   0.9727 B( 12-C , 15-H ) :   0.9744
B( 16-S , 17-C ) :   1.1339 B( 16-S , 20-C ) :   1.1384 B( 17-C , 18-C ) :   1.6195
B( 17-C , 20-C ) :   0.1010 B( 17-C , 33-H ) :   0.9769 B( 18-C , 19-C ) :   1.2312
B( 18-C , 21-H ) :   0.9825 B( 19-C , 20-C ) :   1.6018 B( 19-C , 22-C ) :   1.0497
B( 22-C , 23-H ) :   0.9250 B( 22-C , 24-H ) :   0.9313 B( 22-C , 25-C ) :   1.0587
B( 25-C , 26-H ) :   0.9539 B( 25-C , 27-H ) :   0.9605 B( 25-C , 28-C ) :   1.0916
B( 28-C , 29-H ) :   0.9708 B( 28-C , 30-H ) :   0.9733 B( 28-C , 31-H ) :   0.9732

Dispersion correction           -0.014143183
FINAL SINGLE POINT ENERGY     -1339.874089542855

DIPOLE MOMENT
-------------
                                X             Y             Z
Electronic contribution:     -9.34975      25.88549       4.04097
Nuclear contribution   :      9.75460     -26.41876      -4.22664
                        -----------------------------------------
Total Dipole Moment    :      0.40485      -0.53327      -0.18567
                        -----------------------------------------
Magnitude (a.u.)       :      0.69480
Magnitude (Debye)      :      1.76605

Rotational constants in cm-1:     0.016682     0.009046     0.006873
Rotational constants in MHz :   500.115491   271.206079   206.052664

                             ****ORCA TERMINATED NORMALLY****
TOTAL RUN TIME: 0 days 0 hours 0 minutes 29 seconds 612 msec
