                         Program Version 4.2.1 -  RELEASE  -
|  1> ! wB97X-D3 SP def2-SVP
|  2> %pal
|  3> nprocs 16
|  4> end
|  5>
|  6> * xyz 0 1
|  7> S 	 11.3422 	 -6.10649 	 63.91
|  8> C 	 10.6969 	 -4.72781 	 63.1108
|  9> C 	 11.2355 	 -3.54583 	 63.5041
| 10> C 	 12.0133 	 -3.7267 	 64.7069
| 11> C 	 12.0289 	 -5.04347 	 65.1573
| 12> H 	 12.4354 	 -3.00174 	 65.3551
| 13> C 	 10.9145 	 -2.17744 	 62.8908
| 14> H 	 11.2336 	 -2.10718 	 61.8239
| 15> H 	 11.6388 	 -1.4948 	 63.3816
| 16> C 	 9.44396 	 -1.67553 	 62.9302
| 17> H 	 9.46069 	 -0.864647 	 62.2113
| 18> H 	 8.87151 	 -2.49486 	 62.4977
| 19> C 	 9.19686 	 -1.23398 	 64.3276
| 20> H 	 10.0778 	 -0.643461 	 64.6696
| 21> H 	 8.31536 	 -0.580506 	 64.3527
| 22> H 	 9.03784 	 -2.12297 	 64.9655
| 23> S 	 14.0179 	 -6.65969 	 65.9699
| 24> C 	 14.418 	 -6.76493 	 67.6999
| 25> C 	 13.6455 	 -5.89177 	 68.489
| 26> C 	 12.6846 	 -5.26052 	 67.6371
| 27> C 	 12.7581 	 -5.52277 	 66.2945
| 28> H 	 13.7029 	 -5.91425 	 69.5845
| 29> C 	 11.5595 	 -4.39161 	 68.2145
| 30> H 	 11.2052 	 -3.67898 	 67.4969
| 31> H 	 12.0276 	 -3.77508 	 69.0091
| 32> C 	 10.3327 	 -5.24574 	 68.7516
| 33> H 	 9.84306 	 -4.60724 	 69.5026
| 34> H 	 10.8528 	 -6.03502 	 69.2889
| 35> C 	 9.37886 	 -5.83357 	 67.6165
| 36> H 	 8.38066 	 -6.19221 	 67.8517
| 37> H 	 9.92041 	 -6.64712 	 67.0444
| 38> H 	 9.15715 	 -5.06447 	 66.8758
| 39> H 	 10.1151 	 -4.78216 	 62.1853
| 40> H 	 15.1306 	 -7.47228 	 68.0998
| 41> *
| 42>
| 43>                          ****END OF INPUT****

CARTESIAN COORDINATES (ANGSTROEM)
---------------------------------
  S     11.342200   -6.106490   63.910000
  C     10.696900   -4.727810   63.110800
  C     11.235500   -3.545830   63.504100
  C     12.013300   -3.726700   64.706900
  C     12.028900   -5.043470   65.157300
  H     12.435400   -3.001740   65.355100
  C     10.914500   -2.177440   62.890800
  H     11.233600   -2.107180   61.823900
  H     11.638800   -1.494800   63.381600
  C      9.443960   -1.675530   62.930200
  H      9.460690   -0.864647   62.211300
  H      8.871510   -2.494860   62.497700
  C      9.196860   -1.233980   64.327600
  H     10.077800   -0.643461   64.669600
  H      8.315360   -0.580506   64.352700
  H      9.037840   -2.122970   64.965500
  S     14.017900   -6.659690   65.969900
  C     14.418000   -6.764930   67.699900
  C     13.645500   -5.891770   68.489000
  C     12.684600   -5.260520   67.637100
  C     12.758100   -5.522770   66.294500
  H     13.702900   -5.914250   69.584500
  C     11.559500   -4.391610   68.214500
  H     11.205200   -3.678980   67.496900
  H     12.027600   -3.775080   69.009100
  C     10.332700   -5.245740   68.751600
  H      9.843060   -4.607240   69.502600
  H     10.852800   -6.035020   69.288900
  C      9.378860   -5.833570   67.616500
  H      8.380660   -6.192210   67.851700
  H      9.920410   -6.647120   67.044400
  H      9.157150   -5.064470   66.875800
  H     10.115100   -4.782160   62.185300
  H     15.130600   -7.472280   68.099800

 Total Charge           Charge          ....    0
 Multiplicity           Mult            ....    1
 Number of Electrons    NEL             ....  134
 Basis Dimension        Dim             ....  322

ORBITAL ENERGIES
----------------

  NO   OCC          E(Eh)            E(eV)
   0   2.0000     -88.967949     -2420.9410
   1   2.0000     -88.964467     -2420.8462
   2   2.0000     -10.328679      -281.0577
   3   2.0000     -10.322755      -280.8964
   4   2.0000     -10.319536      -280.8089
   5   2.0000     -10.310742      -280.5695
   6   2.0000     -10.301812      -280.3266
   7   2.0000     -10.301114      -280.3076
   8   2.0000     -10.300919      -280.3023
   9   2.0000     -10.295247      -280.1479
  10   2.0000     -10.295136      -280.1449
  11   2.0000     -10.292060      -280.0612
  12   2.0000     -10.289293      -279.9859
  13   2.0000     -10.286927      -279.9215
  14   2.0000     -10.280461      -279.7456
  15   2.0000     -10.280043      -279.7342
  16   2.0000      -8.082799      -219.9441
  17   2.0000      -8.079361      -219.8506
  18   2.0000      -6.041274      -164.3914
  19   2.0000      -6.037803      -164.2970
  20   2.0000      -6.037448      -164.2873
  21   2.0000      -6.033851      -164.1894
  22   2.0000      -6.033422      -164.1778
  23   2.0000      -6.030162      -164.0890
  24   2.0000      -1.009336       -27.4654
  25   2.0000      -0.984874       -26.7998
  26   2.0000      -0.915963       -24.9246
  27   2.0000      -0.893830       -24.3224
  28   2.0000      -0.874317       -23.7914
  29   2.0000      -0.850199       -23.1351
  30   2.0000      -0.836934       -22.7741
  31   2.0000      -0.811986       -22.0953
  32   2.0000      -0.777966       -21.1695
  33   2.0000      -0.767987       -20.8980
  34   2.0000      -0.706388       -19.2218
  35   2.0000      -0.702821       -19.1247
  36   2.0000      -0.693100       -18.8602
  37   2.0000      -0.665449       -18.1078
  38   2.0000      -0.643364       -17.5068
  39   2.0000      -0.608455       -16.5569
  40   2.0000      -0.591943       -16.1076
  41   2.0000      -0.578443       -15.7402
  42   2.0000      -0.551879       -15.0174
  43   2.0000      -0.546204       -14.8630
  44   2.0000      -0.541003       -14.7214
  45   2.0000      -0.526201       -14.3186
  46   2.0000      -0.510347       -13.8872
  47   2.0000      -0.504606       -13.7310
  48   2.0000      -0.501525       -13.6472
  49   2.0000      -0.497792       -13.5456
  50   2.0000      -0.481704       -13.1078
  51   2.0000      -0.478365       -13.0170
  52   2.0000      -0.473717       -12.8905
  53   2.0000      -0.465098       -12.6560
  54   2.0000      -0.458814       -12.4850
  55   2.0000      -0.447452       -12.1758
  56   2.0000      -0.442215       -12.0333
  57   2.0000      -0.437245       -11.8980
  58   2.0000      -0.432333       -11.7644
  59   2.0000      -0.422192       -11.4884
  60   2.0000      -0.419944       -11.4273
  61   2.0000      -0.416781       -11.3412
  62   2.0000      -0.408634       -11.1195
  63   2.0000      -0.346893        -9.4394
  64   2.0000      -0.331666        -9.0251
  65   2.0000      -0.328260        -8.9324
  66   2.0000      -0.292544        -7.9605
  67   0.0000       0.030348         0.8258
  68   0.0000       0.061531         1.6744
  69   0.0000       0.105548         2.8721
  70   0.0000       0.122999         3.3470
  71   0.0000       0.127892         3.4801

MULLIKEN ATOMIC CHARGES
-----------------------
   0 S :    0.118261
   1 C :   -0.117599
   2 C :   -0.073093
   3 C :    0.058750
   4 C :   -0.175290
   5 H :    0.004697
   6 C :   -0.008896
   7 H :    0.033715
   8 H :    0.020378
   9 C :   -0.029068
  10 H :    0.024579
  11 H :    0.029934
  12 C :   -0.047548
  13 H :    0.032408
  14 H :    0.035700
  15 H :    0.053926
  16 S :    0.101612
  17 C :   -0.103753
  18 C :   -0.029722
  19 C :   -0.066385
  20 C :   -0.150198
  21 H :    0.037590
  22 C :    0.046843
  23 H :    0.011213
  24 H :    0.026579
  25 C :   -0.049338
  26 H :    0.035337
  27 H :    0.023064
  28 C :   -0.064521
  29 H :    0.036937
  30 H :    0.046871
  31 H :    0.028150
  32 H :    0.050858
  33 H :    0.058011
Sum of atomic charges:    0.0000000

LOEWDIN ATOMIC CHARGES
----------------------
   0 S :    0.404877
   1 C :   -0.202398
   2 C :   -0.069860
   3 C :   -0.047161
   4 C :   -0.188528
   5 H :    0.026089
   6 C :   -0.037669
   7 H :    0.031710
   8 H :    0.026846
   9 C :   -0.037214
  10 H :    0.023664
  11 H :    0.024840
  12 C :   -0.066531
  13 H :    0.030307
  14 H :    0.025051
  15 H :    0.033855
  16 S :    0.403015
  17 C :   -0.170200
  18 C :   -0.071425
  19 C :   -0.062199
  20 C :   -0.212110
  21 H :    0.039981
  22 C :   -0.031091
  23 H :    0.018972
  24 H :    0.031619
  25 C :   -0.033981
  26 H :    0.024128
  27 H :    0.020854
  28 C :   -0.075243
  29 H :    0.025532
  30 H :    0.034357
  31 H :    0.024441
  32 H :    0.029751
  33 H :    0.025721

  Mayer bond orders larger than 0.100000
B(  0-S ,  1-C ) :   1.1408 B(  0-S ,  4-C ) :   1.1315 B(  1-C ,  2-C ) :   1.6330
B(  1-C , 32-H ) :   0.9609 B(  2-C ,  3-C ) :   1.2187 B(  2-C ,  6-C ) :   1.0169
B(  3-C ,  4-C ) :   1.5901 B(  3-C ,  5-H ) :   0.9943 B(  4-C , 20-C ) :   1.0524
B(  6-C ,  7-H ) :   0.9380 B(  6-C ,  8-H ) :   0.9474 B(  6-C ,  9-C ) :   1.0685
B(  9-C , 10-H ) :   0.9513 B(  9-C , 11-H ) :   0.9534 B(  9-C , 12-C ) :   1.0732
B( 12-C , 13-H ) :   0.9736 B( 12-C , 14-H ) :   0.9728 B( 12-C , 15-H ) :   0.9746
B( 16-S , 17-C ) :   1.1637 B( 16-S , 20-C ) :   1.1285 B( 17-C , 18-C ) :   1.5996
B( 17-C , 20-C ) :   0.1006 B( 17-C , 33-H ) :   0.9681 B( 18-C , 19-C ) :   1.2368
B( 18-C , 21-H ) :   0.9876 B( 19-C , 20-C ) :   1.6233 B( 19-C , 22-C ) :   1.0449
B( 22-C , 23-H ) :   0.9370 B( 22-C , 24-H ) :   0.9376 B( 22-C , 25-C ) :   1.0569
B( 25-C , 26-H ) :   0.9609 B( 25-C , 27-H ) :   0.9620 B( 25-C , 28-C ) :   1.0528
B( 28-C , 29-H ) :   0.9789 B( 28-C , 30-H ) :   0.9744 B( 28-C , 31-H ) :   0.9775

Dispersion correction           -0.015905374
FINAL SINGLE POINT ENERGY     -1339.874920062473

DIPOLE MOMENT
-------------
                                X             Y             Z
Electronic contribution:     17.94444     -17.91703      -5.10806
Nuclear contribution   :    -18.16725      18.41198       5.21396
                        -----------------------------------------
Total Dipole Moment    :     -0.22280       0.49495       0.10590
                        -----------------------------------------
Magnitude (a.u.)       :      0.55302
Magnitude (Debye)      :      1.40568

Rotational constants in cm-1:     0.021028     0.009109     0.007689
Rotational constants in MHz :   630.395361   273.088435   230.517515

                             ****ORCA TERMINATED NORMALLY****
TOTAL RUN TIME: 0 days 0 hours 0 minutes 36 seconds 877 msec
