                         Program Version 4.2.1 -  RELEASE  -
|  1> ! wB97X-D3 SP def2-SVP
|  2> %pal
|  3> nprocs 16
|  4> end
|  5>
|  6> * xyz 0 1
|  7> S 	 1.8382 	 -22.3768 	 62.1872
|  8> C 	 2.46891 	 -22.8158 	 60.5989
|  9> C 	 2.39183 	 -21.7493 	 59.6415
| 10> C 	 1.91189 	 -20.5951 	 60.275
| 11> C 	 1.40072 	 -20.8223 	 61.5519
| 12> H 	 1.76879 	 -19.5895 	 59.8732
| 13> C 	 2.93369 	 -21.8262 	 58.2312
| 14> H 	 3.77931 	 -22.5605 	 58.2197
| 15> H 	 3.40424 	 -20.8847 	 57.9293
| 16> C 	 1.93013 	 -22.3619 	 57.2138
| 17> H 	 2.28215 	 -22.8205 	 56.2851
| 18> H 	 1.34833 	 -23.1156 	 57.7423
| 19> C 	 0.930885 	 -21.2508 	 56.8391
| 20> H 	 1.30669 	 -20.2775 	 56.2584
| 21> H 	 0.205479 	 -21.6129 	 56.2257
| 22> H 	 0.471159 	 -20.8879 	 57.7127
| 23> S 	 -0.847181 	 -20.3478 	 63.0119
| 24> C 	 -1.16931 	 -18.7043 	 63.3926
| 25> C 	 -0.054335 	 -17.9074 	 63.4382
| 26> C 	 1.01686 	 -18.5493 	 62.82
| 27> C 	 0.751664 	 -19.8685 	 62.4757
| 28> H 	 -0.115977 	 -16.8489 	 63.658
| 29> C 	 2.2989 	 -17.7681 	 62.5436
| 30> H 	 1.97288 	 -16.7577 	 62.2917
| 31> H 	 2.8887 	 -18.1084 	 61.7277
| 32> C 	 3.34095 	 -17.7018 	 63.6783
| 33> H 	 2.97616 	 -17.1692 	 64.5354
| 34> H 	 4.10417 	 -17.0444 	 63.2345
| 35> C 	 3.78029 	 -19.0349 	 64.3261
| 36> H 	 4.34975 	 -19.8099 	 63.625
| 37> H 	 2.89959 	 -19.5567 	 64.6964
| 38> H 	 4.47039 	 -18.8298 	 65.1695
| 39> H 	 2.87949 	 -23.7934 	 60.2808
| 40> H 	 -2.16772 	 -18.3684 	 63.6359
| 41> *
| 42>
| 43>                          ****END OF INPUT****

CARTESIAN COORDINATES (ANGSTROEM)
---------------------------------
  S      1.838200  -22.376800   62.187200
  C      2.468910  -22.815800   60.598900
  C      2.391830  -21.749300   59.641500
  C      1.911890  -20.595100   60.275000
  C      1.400720  -20.822300   61.551900
  H      1.768790  -19.589500   59.873200
  C      2.933690  -21.826200   58.231200
  H      3.779310  -22.560500   58.219700
  H      3.404240  -20.884700   57.929300
  C      1.930130  -22.361900   57.213800
  H      2.282150  -22.820500   56.285100
  H      1.348330  -23.115600   57.742300
  C      0.930885  -21.250800   56.839100
  H      1.306690  -20.277500   56.258400
  H      0.205479  -21.612900   56.225700
  H      0.471159  -20.887900   57.712700
  S     -0.847181  -20.347800   63.011900
  C     -1.169310  -18.704300   63.392600
  C     -0.054335  -17.907400   63.438200
  C      1.016860  -18.549300   62.820000
  C      0.751664  -19.868500   62.475700
  H     -0.115977  -16.848900   63.658000
  C      2.298900  -17.768100   62.543600
  H      1.972880  -16.757700   62.291700
  H      2.888700  -18.108400   61.727700
  C      3.340950  -17.701800   63.678300
  H      2.976160  -17.169200   64.535400
  H      4.104170  -17.044400   63.234500
  C      3.780290  -19.034900   64.326100
  H      4.349750  -19.809900   63.625000
  H      2.899590  -19.556700   64.696400
  H      4.470390  -18.829800   65.169500
  H      2.879490  -23.793400   60.280800
  H     -2.167720  -18.368400   63.635900

 Total Charge           Charge          ....    0
 Multiplicity           Mult            ....    1
 Number of Electrons    NEL             ....  134
 Basis Dimension        Dim             ....  322

ORBITAL ENERGIES
----------------

  NO   OCC          E(Eh)            E(eV)
   0   2.0000     -88.971903     -2421.0486
   1   2.0000     -88.965496     -2420.8742
   2   2.0000     -10.328095      -281.0417
   3   2.0000     -10.323658      -280.9210
   4   2.0000     -10.318874      -280.7908
   5   2.0000     -10.316091      -280.7151
   6   2.0000     -10.305456      -280.4257
   7   2.0000     -10.302052      -280.3331
   8   2.0000     -10.295424      -280.1527
   9   2.0000     -10.293512      -280.1007
  10   2.0000     -10.290948      -280.0309
  11   2.0000     -10.288888      -279.9749
  12   2.0000     -10.286146      -279.9003
  13   2.0000     -10.285619      -279.8859
  14   2.0000     -10.284556      -279.8570
  15   2.0000     -10.269699      -279.4527
  16   2.0000      -8.086113      -220.0343
  17   2.0000      -8.081298      -219.9033
  18   2.0000      -6.044408      -164.4767
  19   2.0000      -6.040746      -164.3770
  20   2.0000      -6.039517      -164.3436
  21   2.0000      -6.037098      -164.2778
  22   2.0000      -6.035798      -164.2424
  23   2.0000      -6.032145      -164.1430
  24   2.0000      -1.010718       -27.5030
  25   2.0000      -0.986328       -26.8394
  26   2.0000      -0.913236       -24.8504
  27   2.0000      -0.907038       -24.6818
  28   2.0000      -0.864811       -23.5327
  29   2.0000      -0.849186       -23.1075
  30   2.0000      -0.847588       -23.0640
  31   2.0000      -0.810005       -22.0414
  32   2.0000      -0.785082       -21.3632
  33   2.0000      -0.770405       -20.9638
  34   2.0000      -0.701147       -19.0792
  35   2.0000      -0.698528       -19.0079
  36   2.0000      -0.686409       -18.6782
  37   2.0000      -0.664182       -18.0733
  38   2.0000      -0.638537       -17.3755
  39   2.0000      -0.615960       -16.7611
  40   2.0000      -0.601287       -16.3619
  41   2.0000      -0.573671       -15.6104
  42   2.0000      -0.555129       -15.1058
  43   2.0000      -0.548671       -14.9301
  44   2.0000      -0.541274       -14.7288
  45   2.0000      -0.529852       -14.4180
  46   2.0000      -0.507708       -13.8154
  47   2.0000      -0.502643       -13.6776
  48   2.0000      -0.501738       -13.6530
  49   2.0000      -0.491597       -13.3770
  50   2.0000      -0.483634       -13.1603
  51   2.0000      -0.474862       -12.9217
  52   2.0000      -0.472542       -12.8585
  53   2.0000      -0.462538       -12.5863
  54   2.0000      -0.456862       -12.4318
  55   2.0000      -0.453720       -12.3464
  56   2.0000      -0.447175       -12.1682
  57   2.0000      -0.441464       -12.0128
  58   2.0000      -0.436862       -11.8876
  59   2.0000      -0.422595       -11.4994
  60   2.0000      -0.418350       -11.3839
  61   2.0000      -0.410824       -11.1791
  62   2.0000      -0.409172       -11.1341
  63   2.0000      -0.342946        -9.3320
  64   2.0000      -0.336365        -9.1529
  65   2.0000      -0.331375        -9.0172
  66   2.0000      -0.285538        -7.7699
  67   0.0000       0.032235         0.8772
  68   0.0000       0.055923         1.5218
  69   0.0000       0.104339         2.8392
  70   0.0000       0.120537         3.2800
  71   0.0000       0.130290         3.5454

MULLIKEN ATOMIC CHARGES
-----------------------
   0 S :    0.127243
   1 C :   -0.116887
   2 C :   -0.107838
   3 C :    0.036013
   4 C :   -0.163065
   5 H :    0.020446
   6 C :    0.057481
   7 H :    0.028190
   8 H :    0.030620
   9 C :   -0.049695
  10 H :    0.035665
  11 H :    0.028097
  12 C :   -0.052296
  13 H :    0.033147
  14 H :    0.009909
  15 H :    0.021620
  16 S :    0.116053
  17 C :   -0.096532
  18 C :   -0.024148
  19 C :   -0.043176
  20 C :   -0.162969
  21 H :    0.023932
  22 C :    0.080740
  23 H :    0.017579
  24 H :    0.015570
  25 C :   -0.060075
  26 H :    0.015988
  27 H :    0.032164
  28 C :   -0.095336
  29 H :    0.046533
  30 H :    0.047958
  31 H :    0.043078
  32 H :    0.050930
  33 H :    0.053060
Sum of atomic charges:    0.0000000

LOEWDIN ATOMIC CHARGES
----------------------
   0 S :    0.418428
   1 C :   -0.206246
   2 C :   -0.059340
   3 C :   -0.068024
   4 C :   -0.198738
   5 H :    0.034277
   6 C :   -0.033127
   7 H :    0.035324
   8 H :    0.030695
   9 C :   -0.037088
  10 H :    0.024487
  11 H :    0.028356
  12 C :   -0.065141
  13 H :    0.033589
  14 H :    0.008593
  15 H :    0.017253
  16 S :    0.418225
  17 C :   -0.177192
  18 C :   -0.074388
  19 C :   -0.053706
  20 C :   -0.211409
  21 H :    0.035261
  22 C :   -0.028053
  23 H :    0.030530
  24 H :    0.025164
  25 C :   -0.040922
  26 H :    0.018763
  27 H :    0.027085
  28 C :   -0.076209
  29 H :    0.033734
  30 H :    0.026563
  31 H :    0.029207
  32 H :    0.029694
  33 H :    0.024356

  Mayer bond orders larger than 0.100000
B(  0-S ,  1-C ) :   1.1497 B(  0-S ,  4-C ) :   1.1738 B(  1-C ,  2-C ) :   1.5831
B(  1-C ,  4-C ) :   0.1182 B(  1-C , 32-H ) :   0.9603 B(  2-C ,  3-C ) :   1.2616
B(  2-C ,  6-C ) :   1.0239 B(  3-C ,  4-C ) :   1.5716 B(  3-C ,  5-H ) :   0.9880
B(  4-C , 20-C ) :   0.9936 B(  6-C ,  7-H ) :   0.9399 B(  6-C ,  8-H ) :   0.9505
B(  6-C ,  9-C ) :   1.0539 B(  9-C , 10-H ) :   0.9603 B(  9-C , 11-H ) :   0.9520
B(  9-C , 12-C ) :   1.0782 B( 12-C , 13-H ) :   0.9751 B( 12-C , 14-H ) :   0.9725
B( 12-C , 15-H ) :   0.9743 B( 16-S , 17-C ) :   1.1845 B( 16-S , 20-C ) :   1.1380
B( 17-C , 18-C ) :   1.5882 B( 17-C , 20-C ) :   0.1009 B( 17-C , 33-H ) :   0.9680
B( 18-C , 19-C ) :   1.2476 B( 18-C , 21-H ) :   0.9909 B( 19-C , 20-C ) :   1.6006
B( 19-C , 22-C ) :   1.0378 B( 22-C , 23-H ) :   0.9311 B( 22-C , 24-H ) :   0.9409
B( 22-C , 25-C ) :   1.0756 B( 25-C , 26-H ) :   0.9536 B( 25-C , 27-H ) :   0.9571
B( 25-C , 28-C ) :   1.0662 B( 28-C , 29-H ) :   0.9751 B( 28-C , 30-H ) :   0.9694
B( 28-C , 31-H ) :   0.9750

Dispersion correction           -0.015106857
FINAL SINGLE POINT ENERGY     -1339.860413901115

DIPOLE MOMENT
-------------
                                X             Y             Z
Electronic contribution:    -12.20447      -7.98189      13.41424
Nuclear contribution   :     12.31076       8.43031     -13.69183
                        -----------------------------------------
Total Dipole Moment    :      0.10629       0.44842      -0.27759
                        -----------------------------------------
Magnitude (a.u.)       :      0.53799
Magnitude (Debye)      :      1.36746

Rotational constants in cm-1:     0.019773     0.008385     0.007801
Rotational constants in MHz :   592.772123   251.363932   233.855911

                             ****ORCA TERMINATED NORMALLY****
TOTAL RUN TIME: 0 days 0 hours 0 minutes 36 seconds 343 msec
