                         Program Version 4.2.1 -  RELEASE  -
|  1> ! wB97X-D3 SP def2-SVP
|  2> %pal
|  3> nprocs 16
|  4> end
|  5>
|  6> * xyz 0 1
|  7> S 	 -71.6298 	 41.1316 	 121.806
|  8> C 	 -73.3129 	 41.0046 	 122.299
|  9> C 	 -73.5079 	 39.8148 	 123.009
| 10> C 	 -72.3234 	 39.0322 	 123.061
| 11> C 	 -71.2918 	 39.5109 	 122.323
| 12> H 	 -72.1891 	 38.1429 	 123.561
| 13> C 	 -74.7561 	 39.463 	 123.796
| 14> H 	 -74.6454 	 38.4749 	 124.147
| 15> H 	 -75.4934 	 39.3059 	 123.005
| 16> C 	 -75.1778 	 40.5014 	 124.915
| 17> H 	 -74.6087 	 40.0765 	 125.756
| 18> H 	 -74.6697 	 41.4968 	 124.751
| 19> C 	 -76.7594 	 40.5923 	 125.214
| 20> H 	 -76.889 	 40.7752 	 126.283
| 21> H 	 -77.2875 	 41.408 	 124.647
| 22> H 	 -77.1672 	 39.6167 	 124.928
| 23> S 	 -68.5459 	 39.9362 	 122.345
| 24> C 	 -67.4886 	 38.7286 	 121.689
| 25> C 	 -68.2439 	 37.6536 	 121.228
| 26> C 	 -69.6141 	 37.6429 	 121.587
| 27> C 	 -69.9957 	 38.8841 	 122.087
| 28> H 	 -67.767 	 36.7835 	 120.83
| 29> C 	 -70.6057 	 36.6609 	 121.06
| 30> H 	 -71.5772 	 36.7183 	 121.637
| 31> H 	 -70.3507 	 35.6798 	 121.308
| 32> C 	 -70.9699 	 36.6621 	 119.597
| 33> H 	 -70.035 	 36.7849 	 119.063
| 34> H 	 -71.5618 	 37.5242 	 119.277
| 35> C 	 -71.6636 	 35.3425 	 119.112
| 36> H 	 -71.0005 	 34.3975 	 119.132
| 37> H 	 -71.9799 	 35.4185 	 118.043
| 38> H 	 -72.592 	 35.085 	 119.572
| 39> H 	 -74.1566 	 41.6702 	 122.223
| 40> H 	 -66.5684 	 39.003 	 121.302
| 41> *
| 42>
| 43>                          ****END OF INPUT****

CARTESIAN COORDINATES (ANGSTROEM)
---------------------------------
  S    -71.629800   41.131600  121.806000
  C    -73.312900   41.004600  122.299000
  C    -73.507900   39.814800  123.009000
  C    -72.323400   39.032200  123.061000
  C    -71.291800   39.510900  122.323000
  H    -72.189100   38.142900  123.561000
  C    -74.756100   39.463000  123.796000
  H    -74.645400   38.474900  124.147000
  H    -75.493400   39.305900  123.005000
  C    -75.177800   40.501400  124.915000
  H    -74.608700   40.076500  125.756000
  H    -74.669700   41.496800  124.751000
  C    -76.759400   40.592300  125.214000
  H    -76.889000   40.775200  126.283000
  H    -77.287500   41.408000  124.647000
  H    -77.167200   39.616700  124.928000
  S    -68.545900   39.936200  122.345000
  C    -67.488600   38.728600  121.689000
  C    -68.243900   37.653600  121.228000
  C    -69.614100   37.642900  121.587000
  C    -69.995700   38.884100  122.087000
  H    -67.767000   36.783500  120.830000
  C    -70.605700   36.660900  121.060000
  H    -71.577200   36.718300  121.637000
  H    -70.350700   35.679800  121.308000
  C    -70.969900   36.662100  119.597000
  H    -70.035000   36.784900  119.063000
  H    -71.561800   37.524200  119.277000
  C    -71.663600   35.342500  119.112000
  H    -71.000500   34.397500  119.132000
  H    -71.979900   35.418500  118.043000
  H    -72.592000   35.085000  119.572000
  H    -74.156600   41.670200  122.223000
  H    -66.568400   39.003000  121.302000

 Total Charge           Charge          ....    0
 Multiplicity           Mult            ....    1
 Number of Electrons    NEL             ....  134
 Basis Dimension        Dim             ....  322

ORBITAL ENERGIES
----------------

  NO   OCC          E(Eh)            E(eV)
   0   2.0000     -88.969194     -2420.9748
   1   2.0000     -88.963897     -2420.8307
   2   2.0000     -10.333565      -281.1906
   3   2.0000     -10.325412      -280.9688
   4   2.0000     -10.313511      -280.6449
   5   2.0000     -10.312350      -280.6133
   6   2.0000     -10.303888      -280.3831
   7   2.0000     -10.300527      -280.2916
   8   2.0000     -10.299817      -280.2723
   9   2.0000     -10.294389      -280.1246
  10   2.0000     -10.292492      -280.0730
  11   2.0000     -10.291366      -280.0423
  12   2.0000     -10.286901      -279.9208
  13   2.0000     -10.286852      -279.9195
  14   2.0000     -10.285937      -279.8946
  15   2.0000     -10.283644      -279.8322
  16   2.0000      -8.083572      -219.9652
  17   2.0000      -8.078340      -219.8228
  18   2.0000      -6.042176      -164.4160
  19   2.0000      -6.038148      -164.3064
  20   2.0000      -6.036839      -164.2707
  21   2.0000      -6.034216      -164.1994
  22   2.0000      -6.032803      -164.1609
  23   2.0000      -6.029218      -164.0634
  24   2.0000      -1.008257       -27.4361
  25   2.0000      -0.984480       -26.7891
  26   2.0000      -0.910620       -24.7792
  27   2.0000      -0.903793       -24.5935
  28   2.0000      -0.865025       -23.5385
  29   2.0000      -0.850546       -23.1445
  30   2.0000      -0.844020       -22.9670
  31   2.0000      -0.813531       -22.1373
  32   2.0000      -0.783378       -21.3168
  33   2.0000      -0.773310       -21.0428
  34   2.0000      -0.709206       -19.2985
  35   2.0000      -0.707307       -19.2468
  36   2.0000      -0.699357       -19.0305
  37   2.0000      -0.665741       -18.1157
  38   2.0000      -0.643270       -17.5043
  39   2.0000      -0.619151       -16.8479
  40   2.0000      -0.603584       -16.4244
  41   2.0000      -0.569237       -15.4897
  42   2.0000      -0.558187       -15.1891
  43   2.0000      -0.542639       -14.7660
  44   2.0000      -0.524885       -14.2829
  45   2.0000      -0.520611       -14.1665
  46   2.0000      -0.519177       -14.1275
  47   2.0000      -0.509286       -13.8584
  48   2.0000      -0.506450       -13.7812
  49   2.0000      -0.501261       -13.6400
  50   2.0000      -0.498808       -13.5733
  51   2.0000      -0.478642       -13.0245
  52   2.0000      -0.471123       -12.8199
  53   2.0000      -0.461674       -12.5628
  54   2.0000      -0.455990       -12.4081
  55   2.0000      -0.449709       -12.2372
  56   2.0000      -0.442320       -12.0361
  57   2.0000      -0.440735       -11.9930
  58   2.0000      -0.435818       -11.8592
  59   2.0000      -0.426212       -11.5978
  60   2.0000      -0.422215       -11.4891
  61   2.0000      -0.414781       -11.2868
  62   2.0000      -0.408255       -11.1092
  63   2.0000      -0.347042        -9.4435
  64   2.0000      -0.334192        -9.0938
  65   2.0000      -0.329214        -8.9584
  66   2.0000      -0.289729        -7.8839
  67   0.0000       0.021457         0.5839
  68   0.0000       0.064925         1.7667
  69   0.0000       0.109270         2.9734
  70   0.0000       0.116742         3.1767
  71   0.0000       0.132690         3.6107

MULLIKEN ATOMIC CHARGES
-----------------------
   0 S :    0.123029
   1 C :   -0.105719
   2 C :   -0.133436
   3 C :    0.059380
   4 C :   -0.134009
   5 H :   -0.018985
   6 C :    0.089354
   7 H :    0.004967
   8 H :    0.030403
   9 C :   -0.106079
  10 H :    0.037748
  11 H :    0.050429
  12 C :   -0.062751
  13 H :    0.044764
  14 H :    0.052578
  15 H :    0.039971
  16 S :    0.082018
  17 C :   -0.052185
  18 C :   -0.057018
  19 C :   -0.005558
  20 C :   -0.161467
  21 H :    0.019474
  22 C :    0.070211
  23 H :    0.014789
  24 H :   -0.003232
  25 C :   -0.037456
  26 H :    0.018736
  27 H :    0.037164
  28 C :   -0.093348
  29 H :    0.043161
  30 H :    0.035452
  31 H :    0.028753
  32 H :    0.039636
  33 H :    0.049226
Sum of atomic charges:    0.0000000

LOEWDIN ATOMIC CHARGES
----------------------
   0 S :    0.416314
   1 C :   -0.200786
   2 C :   -0.058742
   3 C :   -0.058141
   4 C :   -0.198520
   5 H :    0.017794
   6 C :   -0.037722
   7 H :    0.021829
   8 H :    0.033136
   9 C :   -0.046225
  10 H :    0.029765
  11 H :    0.029683
  12 C :   -0.067906
  13 H :    0.028910
  14 H :    0.033491
  15 H :    0.026441
  16 S :    0.385397
  17 C :   -0.184624
  18 C :   -0.061424
  19 C :   -0.060918
  20 C :   -0.163875
  21 H :    0.027347
  22 C :   -0.039263
  23 H :    0.036151
  24 H :    0.021468
  25 C :   -0.035696
  26 H :    0.023201
  27 H :    0.029200
  28 C :   -0.076669
  29 H :    0.032924
  30 H :    0.032129
  31 H :    0.018340
  32 H :    0.029894
  33 H :    0.017096

  Mayer bond orders larger than 0.100000
B(  0-S ,  1-C ) :   1.1358 B(  0-S ,  4-C ) :   1.1472 B(  1-C ,  2-C ) :   1.5987
B(  1-C , 32-H ) :   0.9699 B(  2-C ,  3-C ) :   1.2510 B(  2-C ,  6-C ) :   1.0186
B(  3-C ,  4-C ) :   1.5654 B(  3-C ,  5-H ) :   1.0043 B(  4-C , 20-C ) :   1.0446
B(  6-C ,  7-H ) :   0.9416 B(  6-C ,  8-H ) :   0.9359 B(  6-C ,  9-C ) :   1.0232
B(  9-C , 10-H ) :   0.9622 B(  9-C , 11-H ) :   0.9705 B(  9-C , 12-C ) :   1.0468
B( 12-C , 13-H ) :   0.9784 B( 12-C , 14-H ) :   0.9790 B( 12-C , 15-H ) :   0.9810
B( 16-S , 17-C ) :   1.1514 B( 16-S , 20-C ) :   1.1479 B( 17-C , 18-C ) :   1.6077
B( 17-C , 20-C ) :   0.1045 B( 17-C , 33-H ) :   0.9684 B( 18-C , 19-C ) :   1.2538
B( 18-C , 21-H ) :   0.9819 B( 19-C , 20-C ) :   1.5683 B( 19-C , 22-C ) :   1.0761
B( 22-C , 23-H ) :   0.9235 B( 22-C , 24-H ) :   0.9199 B( 22-C , 25-C ) :   1.0607
B( 25-C , 26-H ) :   0.9524 B( 25-C , 27-H ) :   0.9547 B( 25-C , 28-C ) :   1.0744
B( 28-C , 29-H ) :   0.9744 B( 28-C , 30-H ) :   0.9738 B( 28-C , 31-H ) :   0.9781

Dispersion correction           -0.013738655
FINAL SINGLE POINT ENERGY     -1339.855659261878

DIPOLE MOMENT
-------------
                                X             Y             Z
Electronic contribution:     22.35415      14.49435      -0.31227
Nuclear contribution   :    -22.85365     -14.93249       0.28332
                        -----------------------------------------
Total Dipole Moment    :     -0.49950      -0.43814      -0.02895
                        -----------------------------------------
Magnitude (a.u.)       :      0.66506
Magnitude (Debye)      :      1.69045

Rotational constants in cm-1:     0.019761     0.007580     0.006107
Rotational constants in MHz :   592.433724   227.251786   183.093760

                             ****ORCA TERMINATED NORMALLY****
TOTAL RUN TIME: 0 days 0 hours 0 minutes 31 seconds 314 msec
