                         Program Version 4.2.1 -  RELEASE  -
|  1> ! wB97X-D3 SP def2-SVP
|  2> %pal
|  3> nprocs 16
|  4> end
|  5>
|  6> * xyz 0 1
|  7> S 	 -82.7214 	 37.9102 	 130.712
|  8> C 	 -81.9498 	 37.4384 	 132.247
|  9> C 	 -82.257 	 38.2887 	 133.337
| 10> C 	 -83.1287 	 39.3636 	 132.908
| 11> C 	 -83.4871 	 39.3564 	 131.581
| 12> H 	 -83.5468 	 40.2158 	 133.478
| 13> C 	 -81.5356 	 38.2074 	 134.68
| 14> H 	 -81.6692 	 39.1584 	 135.224
| 15> H 	 -80.4686 	 38.1413 	 134.593
| 16> C 	 -81.8743 	 37.1858 	 135.759
| 17> H 	 -81.4836 	 36.2422 	 135.492
| 18> H 	 -81.5203 	 37.3987 	 136.767
| 19> C 	 -83.4307 	 37.0704 	 136
| 20> H 	 -83.6725 	 36.2615 	 136.601
| 21> H 	 -83.6745 	 38.0274 	 136.518
| 22> H 	 -84.1272 	 36.9728 	 135.199
| 23> S 	 -85.549 	 39.8488 	 129.931
| 24> C 	 -85.7998 	 41.4576 	 129.473
| 25> C 	 -84.9426 	 42.4148 	 129.92
| 26> C 	 -83.9496 	 41.7957 	 130.722
| 27> C 	 -84.1316 	 40.428 	 130.788
| 28> H 	 -85.0209 	 43.458 	 129.779
| 29> C 	 -83.0391 	 42.5865 	 131.614
| 30> H 	 -82.6104 	 43.3454 	 130.98
| 31> H 	 -82.3058 	 41.8619 	 131.963
| 32> C 	 -83.6559 	 43.3076 	 132.81
| 33> H 	 -84.3873 	 42.6045 	 133.218
| 34> H 	 -84.2498 	 44.1871 	 132.57
| 35> C 	 -82.7857 	 43.6356 	 133.958
| 36> H 	 -82.135 	 44.4997 	 133.799
| 37> H 	 -82.1482 	 42.7647 	 134.242
| 38> H 	 -83.4165 	 43.7734 	 134.85
| 39> H 	 -81.1649 	 36.6705 	 132.438
| 40> H 	 -86.6294 	 41.7505 	 128.817
| 41> *
| 42>
| 43>                          ****END OF INPUT****

CARTESIAN COORDINATES (ANGSTROEM)
---------------------------------
  S    -82.721400   37.910200  130.712000
  C    -81.949800   37.438400  132.247000
  C    -82.257000   38.288700  133.337000
  C    -83.128700   39.363600  132.908000
  C    -83.487100   39.356400  131.581000
  H    -83.546800   40.215800  133.478000
  C    -81.535600   38.207400  134.680000
  H    -81.669200   39.158400  135.224000
  H    -80.468600   38.141300  134.593000
  C    -81.874300   37.185800  135.759000
  H    -81.483600   36.242200  135.492000
  H    -81.520300   37.398700  136.767000
  C    -83.430700   37.070400  136.000000
  H    -83.672500   36.261500  136.601000
  H    -83.674500   38.027400  136.518000
  H    -84.127200   36.972800  135.199000
  S    -85.549000   39.848800  129.931000
  C    -85.799800   41.457600  129.473000
  C    -84.942600   42.414800  129.920000
  C    -83.949600   41.795700  130.722000
  C    -84.131600   40.428000  130.788000
  H    -85.020900   43.458000  129.779000
  C    -83.039100   42.586500  131.614000
  H    -82.610400   43.345400  130.980000
  H    -82.305800   41.861900  131.963000
  C    -83.655900   43.307600  132.810000
  H    -84.387300   42.604500  133.218000
  H    -84.249800   44.187100  132.570000
  C    -82.785700   43.635600  133.958000
  H    -82.135000   44.499700  133.799000
  H    -82.148200   42.764700  134.242000
  H    -83.416500   43.773400  134.850000
  H    -81.164900   36.670500  132.438000
  H    -86.629400   41.750500  128.817000

 Total Charge           Charge          ....    0
 Multiplicity           Mult            ....    1
 Number of Electrons    NEL             ....  134
 Basis Dimension        Dim             ....  322

ORBITAL ENERGIES
----------------

  NO   OCC          E(Eh)            E(eV)
   0   2.0000     -88.968763     -2420.9631
   1   2.0000     -88.968148     -2420.9464
   2   2.0000     -10.335103      -281.2325
   3   2.0000     -10.324374      -280.9405
   4   2.0000     -10.324347      -280.9398
   5   2.0000     -10.312805      -280.6257
   6   2.0000     -10.311682      -280.5951
   7   2.0000     -10.302511      -280.3456
   8   2.0000     -10.301208      -280.3101
   9   2.0000     -10.293735      -280.1068
  10   2.0000     -10.287749      -279.9439
  11   2.0000     -10.287626      -279.9405
  12   2.0000     -10.285913      -279.8939
  13   2.0000     -10.283866      -279.8382
  14   2.0000     -10.280812      -279.7551
  15   2.0000     -10.268085      -279.4088
  16   2.0000      -8.084270      -219.9842
  17   2.0000      -8.081345      -219.9046
  18   2.0000      -6.042404      -164.4222
  19   2.0000      -6.039991      -164.3565
  20   2.0000      -6.038863      -164.3258
  21   2.0000      -6.036320      -164.2566
  22   2.0000      -6.035047      -164.2220
  23   2.0000      -6.031900      -164.1364
  24   2.0000      -1.009803       -27.4781
  25   2.0000      -0.974202       -26.5094
  26   2.0000      -0.918767       -25.0009
  27   2.0000      -0.906864       -24.6770
  28   2.0000      -0.866117       -23.5682
  29   2.0000      -0.863555       -23.4985
  30   2.0000      -0.841067       -22.8866
  31   2.0000      -0.815074       -22.1793
  32   2.0000      -0.787756       -21.4359
  33   2.0000      -0.772009       -21.0074
  34   2.0000      -0.703917       -19.1545
  35   2.0000      -0.700815       -19.0702
  36   2.0000      -0.690114       -18.7790
  37   2.0000      -0.668636       -18.1945
  38   2.0000      -0.636196       -17.3118
  39   2.0000      -0.610791       -16.6205
  40   2.0000      -0.597940       -16.2708
  41   2.0000      -0.574261       -15.6264
  42   2.0000      -0.572727       -15.5847
  43   2.0000      -0.551717       -15.0130
  44   2.0000      -0.541170       -14.7260
  45   2.0000      -0.527366       -14.3504
  46   2.0000      -0.523860       -14.2550
  47   2.0000      -0.509215       -13.8564
  48   2.0000      -0.498420       -13.5627
  49   2.0000      -0.492976       -13.4146
  50   2.0000      -0.486398       -13.2356
  51   2.0000      -0.482212       -13.1216
  52   2.0000      -0.471851       -12.8397
  53   2.0000      -0.466950       -12.7064
  54   2.0000      -0.456332       -12.4174
  55   2.0000      -0.450224       -12.2512
  56   2.0000      -0.443024       -12.0553
  57   2.0000      -0.437111       -11.8944
  58   2.0000      -0.433801       -11.8043
  59   2.0000      -0.427336       -11.6284
  60   2.0000      -0.420301       -11.4370
  61   2.0000      -0.413224       -11.2444
  62   2.0000      -0.411475       -11.1968
  63   2.0000      -0.345676        -9.4063
  64   2.0000      -0.334303        -9.0969
  65   2.0000      -0.331380        -9.0173
  66   2.0000      -0.292547        -7.9606
  67   0.0000       0.032921         0.8958
  68   0.0000       0.057868         1.5747
  69   0.0000       0.100347         2.7306
  70   0.0000       0.111064         3.0222
  71   0.0000       0.124917         3.3992

MULLIKEN ATOMIC CHARGES
-----------------------
   0 S :    0.095676
   1 C :   -0.109116
   2 C :   -0.075282
   3 C :    0.016551
   4 C :   -0.133078
   5 H :    0.022992
   6 C :    0.049652
   7 H :    0.016939
   8 H :    0.031915
   9 C :   -0.050853
  10 H :    0.013198
  11 H :    0.033294
  12 C :   -0.061981
  13 H :    0.017257
  14 H :    0.022261
  15 H :    0.035691
  16 S :    0.129271
  17 C :   -0.071831
  18 C :   -0.021762
  19 C :   -0.040980
  20 C :   -0.196548
  21 H :    0.001732
  22 C :    0.096027
  23 H :    0.018699
  24 H :    0.027611
  25 C :   -0.074757
  26 H :    0.019630
  27 H :    0.024329
  28 C :   -0.049832
  29 H :    0.038499
  30 H :    0.024678
  31 H :    0.035599
  32 H :    0.061747
  33 H :    0.052771
Sum of atomic charges:   -0.0000000

LOEWDIN ATOMIC CHARGES
----------------------
   0 S :    0.349787
   1 C :   -0.186626
   2 C :   -0.063547
   3 C :   -0.064259
   4 C :   -0.169518
   5 H :    0.038692
   6 C :   -0.038483
   7 H :    0.033187
   8 H :    0.031482
   9 C :   -0.031171
  10 H :    0.009741
  11 H :    0.029665
  12 C :   -0.065262
  13 H :    0.015044
  14 H :    0.026724
  15 H :    0.021516
  16 S :    0.432744
  17 C :   -0.190332
  18 C :   -0.068083
  19 C :   -0.047569
  20 C :   -0.204079
  21 H :    0.027884
  22 C :   -0.030272
  23 H :    0.029358
  24 H :    0.032892
  25 C :   -0.049221
  26 H :    0.023617
  27 H :    0.024468
  28 C :   -0.066020
  29 H :    0.023771
  30 H :    0.026323
  31 H :    0.032308
  32 H :    0.038320
  33 H :    0.026919

  Mayer bond orders larger than 0.100000
B(  0-S ,  1-C ) :   1.1318 B(  0-S ,  4-C ) :   1.1036 B(  1-C ,  2-C ) :   1.6405
B(  1-C , 32-H ) :   0.9585 B(  2-C ,  3-C ) :   1.1949 B(  2-C ,  6-C ) :   1.0160
B(  3-C ,  4-C ) :   1.6391 B(  3-C ,  5-H ) :   0.9866 B(  4-C , 20-C ) :   1.0032
B(  6-C ,  7-H ) :   0.9435 B(  6-C ,  8-H ) :   0.9443 B(  6-C ,  9-C ) :   1.0742
B(  9-C , 10-H ) :   0.9590 B(  9-C , 11-H ) :   0.9590 B(  9-C , 12-C ) :   1.0650
B( 12-C , 13-H ) :   0.9769 B( 12-C , 14-H ) :   0.9808 B( 12-C , 15-H ) :   0.9777
B( 16-S , 17-C ) :   1.1730 B( 16-S , 20-C ) :   1.1450 B( 17-C , 18-C ) :   1.6144
B( 17-C , 33-H ) :   0.9582 B( 18-C , 19-C ) :   1.2235 B( 18-C , 21-H ) :   1.0031
B( 19-C , 20-C ) :   1.6175 B( 19-C , 22-C ) :   1.0688 B( 22-C , 23-H ) :   0.9161
B( 22-C , 24-H ) :   0.9295 B( 22-C , 25-C ) :   1.0639 B( 25-C , 26-H ) :   0.9525
B( 25-C , 27-H ) :   0.9439 B( 25-C , 28-C ) :   1.1041 B( 28-C , 29-H ) :   0.9741
B( 28-C , 30-H ) :   0.9687 B( 28-C , 31-H ) :   0.9710

Dispersion correction           -0.014632830
FINAL SINGLE POINT ENERGY     -1339.858594335676

DIPOLE MOMENT
-------------
                                X             Y             Z
Electronic contribution:     -7.82382      -8.72950     -27.06883
Nuclear contribution   :      7.95906       9.22943      27.60902
                        -----------------------------------------
Total Dipole Moment    :      0.13524       0.49993       0.54020
                        -----------------------------------------
Magnitude (a.u.)       :      0.74836
Magnitude (Debye)      :      1.90217

Rotational constants in cm-1:     0.017730     0.009065     0.006874
Rotational constants in MHz :   531.535519   271.775525   206.066763

                             ****ORCA TERMINATED NORMALLY****
TOTAL RUN TIME: 0 days 0 hours 0 minutes 34 seconds 861 msec
