                         Program Version 4.2.1 -  RELEASE  -
|  1> ! wB97X-D3 SP def2-SVP
|  2> %pal
|  3> nprocs 16
|  4> end
|  5>
|  6> * xyz 0 1
|  7> S 	 -17.9731 	 -13.4628 	 89.5583
|  8> C 	 -16.4423 	 -13.766 	 88.753
|  9> C 	 -15.4282 	 -13.0455 	 89.3636
| 10> C 	 -15.9331 	 -12.0512 	 90.3032
| 11> C 	 -17.2916 	 -12.2085 	 90.5922
| 12> H 	 -15.4192 	 -11.3016 	 90.8716
| 13> C 	 -13.9643 	 -13.0772 	 89.0466
| 14> H 	 -13.7148 	 -12.2278 	 88.3598
| 15> H 	 -13.7598 	 -13.9626 	 88.3672
| 16> C 	 -12.9144 	 -13.2318 	 90.1805
| 17> H 	 -12.8803 	 -12.4565 	 90.9206
| 18> H 	 -12.9583 	 -14.1576 	 90.7943
| 19> C 	 -11.4419 	 -13.165 	 89.6488
| 20> H 	 -11.1063 	 -12.5688 	 88.8008
| 21> H 	 -10.689 	 -12.9095 	 90.4892
| 22> H 	 -11.1492 	 -14.1369 	 89.3296
| 23> S 	 -19.1145 	 -12.4452 	 92.7378
| 24> C 	 -19.8649 	 -10.9711 	 93.3755
| 25> C 	 -19.402 	 -9.85536 	 92.7653
| 26> C 	 -18.3731 	 -10.1083 	 91.7867
| 27> C 	 -18.1485 	 -11.4632 	 91.5776
| 28> H 	 -19.8892 	 -8.95919 	 93.0364
| 29> C 	 -17.7271 	 -9.01231 	 91.0062
| 30> H 	 -17.0937 	 -9.55041 	 90.3485
| 31> H 	 -17.123 	 -8.48907 	 91.7587
| 32> C 	 -18.6561 	 -8.10332 	 90.1606
| 33> H 	 -19.5699 	 -7.85866 	 90.6726
| 34> H 	 -19.0478 	 -8.59861 	 89.2978
| 35> C 	 -17.8834 	 -6.83823 	 89.5837
| 36> H 	 -18.4065 	 -6.50496 	 88.6989
| 37> H 	 -16.868 	 -7.17324 	 89.3398
| 38> H 	 -18.0622 	 -6.06513 	 90.2815
| 39> H 	 -16.2973 	 -14.6102 	 88.154
| 40> H 	 -20.5661 	 -10.9229 	 94.2145
| 41> *
| 42>
| 43>                          ****END OF INPUT****

CARTESIAN COORDINATES (ANGSTROEM)
---------------------------------
  S    -17.973100  -13.462800   89.558300
  C    -16.442300  -13.766000   88.753000
  C    -15.428200  -13.045500   89.363600
  C    -15.933100  -12.051200   90.303200
  C    -17.291600  -12.208500   90.592200
  H    -15.419200  -11.301600   90.871600
  C    -13.964300  -13.077200   89.046600
  H    -13.714800  -12.227800   88.359800
  H    -13.759800  -13.962600   88.367200
  C    -12.914400  -13.231800   90.180500
  H    -12.880300  -12.456500   90.920600
  H    -12.958300  -14.157600   90.794300
  C    -11.441900  -13.165000   89.648800
  H    -11.106300  -12.568800   88.800800
  H    -10.689000  -12.909500   90.489200
  H    -11.149200  -14.136900   89.329600
  S    -19.114500  -12.445200   92.737800
  C    -19.864900  -10.971100   93.375500
  C    -19.402000   -9.855360   92.765300
  C    -18.373100  -10.108300   91.786700
  C    -18.148500  -11.463200   91.577600
  H    -19.889200   -8.959190   93.036400
  C    -17.727100   -9.012310   91.006200
  H    -17.093700   -9.550410   90.348500
  H    -17.123000   -8.489070   91.758700
  C    -18.656100   -8.103320   90.160600
  H    -19.569900   -7.858660   90.672600
  H    -19.047800   -8.598610   89.297800
  C    -17.883400   -6.838230   89.583700
  H    -18.406500   -6.504960   88.698900
  H    -16.868000   -7.173240   89.339800
  H    -18.062200   -6.065130   90.281500
  H    -16.297300  -14.610200   88.154000
  H    -20.566100  -10.922900   94.214500

 Total Charge           Charge          ....    0
 Multiplicity           Mult            ....    1
 Number of Electrons    NEL             ....  134
 Basis Dimension        Dim             ....  322

ORBITAL ENERGIES
----------------

  NO   OCC          E(Eh)            E(eV)
   0   2.0000     -88.964887     -2420.8576
   1   2.0000     -88.963298     -2420.8144
   2   2.0000     -10.337209      -281.2898
   3   2.0000     -10.334051      -281.2038
   4   2.0000     -10.318051      -280.7685
   5   2.0000     -10.313549      -280.6459
   6   2.0000     -10.308469      -280.5077
   7   2.0000     -10.305522      -280.4275
   8   2.0000     -10.303787      -280.3803
   9   2.0000     -10.297725      -280.2153
  10   2.0000     -10.295627      -280.1583
  11   2.0000     -10.289423      -279.9894
  12   2.0000     -10.288021      -279.9513
  13   2.0000     -10.284339      -279.8511
  14   2.0000     -10.282450      -279.7997
  15   2.0000     -10.277653      -279.6692
  16   2.0000      -8.079357      -219.8505
  17   2.0000      -8.077096      -219.7890
  18   2.0000      -6.037976      -164.3017
  19   2.0000      -6.035779      -164.2419
  20   2.0000      -6.033798      -164.1880
  21   2.0000      -6.031792      -164.1334
  22   2.0000      -6.030113      -164.0877
  23   2.0000      -6.027663      -164.0211
  24   2.0000      -0.999151       -27.1883
  25   2.0000      -0.980110       -26.6702
  26   2.0000      -0.905405       -24.6373
  27   2.0000      -0.904978       -24.6257
  28   2.0000      -0.867569       -23.6078
  29   2.0000      -0.848935       -23.1007
  30   2.0000      -0.843245       -22.9459
  31   2.0000      -0.819448       -22.2983
  32   2.0000      -0.779432       -21.2094
  33   2.0000      -0.769395       -20.9363
  34   2.0000      -0.710892       -19.3444
  35   2.0000      -0.704220       -19.1628
  36   2.0000      -0.696420       -18.9506
  37   2.0000      -0.656645       -17.8682
  38   2.0000      -0.647922       -17.6308
  39   2.0000      -0.617735       -16.8094
  40   2.0000      -0.593118       -16.1396
  41   2.0000      -0.570966       -15.5368
  42   2.0000      -0.560687       -15.2571
  43   2.0000      -0.555897       -15.1267
  44   2.0000      -0.532752       -14.4969
  45   2.0000      -0.524876       -14.2826
  46   2.0000      -0.519613       -14.1394
  47   2.0000      -0.511740       -13.9252
  48   2.0000      -0.505835       -13.7645
  49   2.0000      -0.495988       -13.4965
  50   2.0000      -0.490727       -13.3533
  51   2.0000      -0.474381       -12.9086
  52   2.0000      -0.469597       -12.7784
  53   2.0000      -0.462799       -12.5934
  54   2.0000      -0.454257       -12.3609
  55   2.0000      -0.448909       -12.2154
  56   2.0000      -0.443303       -12.0629
  57   2.0000      -0.441552       -12.0152
  58   2.0000      -0.435332       -11.8460
  59   2.0000      -0.422253       -11.4901
  60   2.0000      -0.418554       -11.3894
  61   2.0000      -0.411231       -11.1902
  62   2.0000      -0.410663       -11.1747
  63   2.0000      -0.347790        -9.4638
  64   2.0000      -0.329671        -8.9708
  65   2.0000      -0.327202        -8.9036
  66   2.0000      -0.297183        -8.0868
  67   0.0000       0.032110         0.8738
  68   0.0000       0.067892         1.8474
  69   0.0000       0.115404         3.1403
  70   0.0000       0.117481         3.1968
  71   0.0000       0.127262         3.4630

MULLIKEN ATOMIC CHARGES
-----------------------
   0 S :    0.100377
   1 C :   -0.088181
   2 C :   -0.068773
   3 C :    0.041013
   4 C :   -0.162516
   5 H :    0.013957
   6 C :    0.021100
   7 H :    0.054441
   8 H :    0.022890
   9 C :   -0.044893
  10 H :    0.025933
  11 H :    0.042543
  12 C :   -0.104640
  13 H :    0.032885
  14 H :    0.040620
  15 H :    0.017577
  16 S :    0.087242
  17 C :   -0.091158
  18 C :   -0.021784
  19 C :   -0.047058
  20 C :   -0.159793
  21 H :    0.005065
  22 C :    0.112297
  23 H :    0.004678
  24 H :    0.040063
  25 C :   -0.087567
  26 H :    0.017448
  27 H :    0.023247
  28 C :   -0.028273
  29 H :    0.025542
  30 H :    0.045928
  31 H :    0.031507
  32 H :    0.037834
  33 H :    0.060445
Sum of atomic charges:    0.0000000

LOEWDIN ATOMIC CHARGES
----------------------
   0 S :    0.399037
   1 C :   -0.188492
   2 C :   -0.060795
   3 C :   -0.063096
   4 C :   -0.185934
   5 H :    0.028868
   6 C :   -0.043488
   7 H :    0.042956
   8 H :    0.035498
   9 C :   -0.039853
  10 H :    0.018465
  11 H :    0.035033
  12 C :   -0.079127
  13 H :    0.024264
  14 H :    0.036164
  15 H :    0.015963
  16 S :    0.365829
  17 C :   -0.169641
  18 C :   -0.071578
  19 C :   -0.049533
  20 C :   -0.186830
  21 H :    0.027214
  22 C :   -0.031843
  23 H :    0.024981
  24 H :    0.037027
  25 C :   -0.034587
  26 H :    0.016655
  27 H :    0.023340
  28 C :   -0.056146
  29 H :    0.025192
  30 H :    0.030499
  31 H :    0.021244
  32 H :    0.018506
  33 H :    0.034208

  Mayer bond orders larger than 0.100000
B(  0-S ,  1-C ) :   1.1292 B(  0-S ,  4-C ) :   1.1562 B(  1-C ,  2-C ) :   1.6224
B(  1-C , 32-H ) :   0.9707 B(  2-C ,  3-C ) :   1.2026 B(  2-C ,  6-C ) :   1.0374
B(  3-C ,  4-C ) :   1.5927 B(  3-C ,  5-H ) :   0.9925 B(  4-C , 20-C ) :   1.0134
B(  6-C ,  7-H ) :   0.9414 B(  6-C ,  8-H ) :   0.9445 B(  6-C ,  9-C ) :   1.0484
B(  9-C , 10-H ) :   0.9643 B(  9-C , 11-H ) :   0.9574 B(  9-C , 12-C ) :   1.0565
B( 12-C , 13-H ) :   0.9787 B( 12-C , 14-H ) :   0.9787 B( 12-C , 15-H ) :   0.9794
B( 16-S , 17-C ) :   1.1315 B( 16-S , 20-C ) :   1.1185 B( 17-C , 18-C ) :   1.6664
B( 17-C , 33-H ) :   0.9613 B( 18-C , 19-C ) :   1.1854 B( 18-C , 21-H ) :   0.9974
B( 19-C , 20-C ) :   1.6319 B( 19-C , 22-C ) :   1.0438 B( 22-C , 23-H ) :   0.9195
B( 22-C , 24-H ) :   0.9314 B( 22-C , 25-C ) :   1.0585 B( 25-C , 26-H ) :   0.9648
B( 25-C , 27-H ) :   0.9573 B( 25-C , 28-C ) :   1.0678 B( 28-C , 29-H ) :   0.9782
B( 28-C , 30-H ) :   0.9762 B( 28-C , 31-H ) :   0.9806

Dispersion correction           -0.013289794
FINAL SINGLE POINT ENERGY     -1339.862389700919

DIPOLE MOMENT
-------------
                                X             Y             Z
Electronic contribution:    -21.33875     -15.23204       8.28469
Nuclear contribution   :     21.71277      15.69943      -8.33525
                        -----------------------------------------
Total Dipole Moment    :      0.37402       0.46738      -0.05056
                        -----------------------------------------
Magnitude (a.u.)       :      0.60075
Magnitude (Debye)      :      1.52698

Rotational constants in cm-1:     0.016883     0.007702     0.006378
Rotational constants in MHz :   506.154289   230.914135   191.208718

                             ****ORCA TERMINATED NORMALLY****
TOTAL RUN TIME: 0 days 0 hours 0 minutes 31 seconds 719 msec
