                         Program Version 4.2.1 -  RELEASE  -
|  1> ! wB97X-D3 SP def2-SVP
|  2> %pal
|  3> nprocs 16
|  4> end
|  5>
|  6> * xyz 0 1
|  7> S 	 -73.2835 	 50.7704 	 138.783
|  8> C 	 -73.0739 	 49.124 	 139.341
|  9> C 	 -73.045 	 48.203 	 138.364
| 10> C 	 -72.8687 	 48.8988 	 137.068
| 11> C 	 -73.0089 	 50.2791 	 137.129
| 12> H 	 -72.7967 	 48.3521 	 136.209
| 13> C 	 -73.0973 	 46.6656 	 138.54
| 14> H 	 -74.0102 	 46.3182 	 138.088
| 15> H 	 -73.2167 	 46.3869 	 139.622
| 16> C 	 -71.8341 	 45.8575 	 138.067
| 17> H 	 -72.1301 	 45.4188 	 137.053
| 18> H 	 -70.9847 	 46.533 	 137.851
| 19> C 	 -71.3839 	 44.7053 	 139.034
| 20> H 	 -70.3446 	 44.5488 	 138.907
| 21> H 	 -71.4884 	 45.1079 	 140.1
| 22> H 	 -72.1149 	 43.8828 	 139.053
| 23> S 	 -72.5783 	 52.9309 	 136.499
| 24> C 	 -72.5808 	 53.3039 	 134.789
| 25> C 	 -72.961 	 52.2427 	 133.928
| 26> C 	 -73.1754 	 51.0635 	 134.71
| 27> C 	 -72.9975 	 51.2627 	 136.067
| 28> H 	 -73.0005 	 52.3351 	 132.826
| 29> C 	 -73.635 	 49.8532 	 133.915
| 30> H 	 -72.9229 	 49.048 	 133.906
| 31> H 	 -73.7239 	 50.1413 	 132.879
| 32> C 	 -75.0059 	 49.3005 	 134.48
| 33> H 	 -75.7883 	 50.0421 	 134.311
| 34> H 	 -74.9691 	 49.1604 	 135.514
| 35> C 	 -75.4734 	 47.9302 	 134
| 36> H 	 -75.8249 	 48.0549 	 132.958
| 37> H 	 -76.4187 	 47.5333 	 134.49
| 38> H 	 -74.779 	 47.0777 	 133.93
| 39> H 	 -72.9743 	 48.8393 	 140.356
| 40> H 	 -72.5099 	 54.3208 	 134.384
| 41> *
| 42>
| 43>                          ****END OF INPUT****

CARTESIAN COORDINATES (ANGSTROEM)
---------------------------------
  S    -73.283500   50.770400  138.783000
  C    -73.073900   49.124000  139.341000
  C    -73.045000   48.203000  138.364000
  C    -72.868700   48.898800  137.068000
  C    -73.008900   50.279100  137.129000
  H    -72.796700   48.352100  136.209000
  C    -73.097300   46.665600  138.540000
  H    -74.010200   46.318200  138.088000
  H    -73.216700   46.386900  139.622000
  C    -71.834100   45.857500  138.067000
  H    -72.130100   45.418800  137.053000
  H    -70.984700   46.533000  137.851000
  C    -71.383900   44.705300  139.034000
  H    -70.344600   44.548800  138.907000
  H    -71.488400   45.107900  140.100000
  H    -72.114900   43.882800  139.053000
  S    -72.578300   52.930900  136.499000
  C    -72.580800   53.303900  134.789000
  C    -72.961000   52.242700  133.928000
  C    -73.175400   51.063500  134.710000
  C    -72.997500   51.262700  136.067000
  H    -73.000500   52.335100  132.826000
  C    -73.635000   49.853200  133.915000
  H    -72.922900   49.048000  133.906000
  H    -73.723900   50.141300  132.879000
  C    -75.005900   49.300500  134.480000
  H    -75.788300   50.042100  134.311000
  H    -74.969100   49.160400  135.514000
  C    -75.473400   47.930200  134.000000
  H    -75.824900   48.054900  132.958000
  H    -76.418700   47.533300  134.490000
  H    -74.779000   47.077700  133.930000
  H    -72.974300   48.839300  140.356000
  H    -72.509900   54.320800  134.384000

 Total Charge           Charge          ....    0
 Multiplicity           Mult            ....    1
 Number of Electrons    NEL             ....  134
 Basis Dimension        Dim             ....  322

ORBITAL ENERGIES
----------------

  NO   OCC          E(Eh)            E(eV)
   0   2.0000     -88.974165     -2421.1101
   1   2.0000     -88.962150     -2420.7832
   2   2.0000     -10.329849      -281.0895
   3   2.0000     -10.328839      -281.0620
   4   2.0000     -10.323397      -280.9139
   5   2.0000     -10.305724      -280.4330
   6   2.0000     -10.305485      -280.4265
   7   2.0000     -10.301908      -280.3292
   8   2.0000     -10.301666      -280.3226
   9   2.0000     -10.300849      -280.3003
  10   2.0000     -10.298284      -280.2306
  11   2.0000     -10.296560      -280.1836
  12   2.0000     -10.289747      -279.9982
  13   2.0000     -10.288296      -279.9588
  14   2.0000     -10.282546      -279.8023
  15   2.0000     -10.281598      -279.7765
  16   2.0000      -8.088231      -220.0920
  17   2.0000      -8.077335      -219.7955
  18   2.0000      -6.046721      -164.5396
  19   2.0000      -6.043020      -164.4389
  20   2.0000      -6.038868      -164.3259
  21   2.0000      -6.036043      -164.2491
  22   2.0000      -6.031978      -164.1385
  23   2.0000      -6.027699      -164.0220
  24   2.0000      -1.005978       -27.3740
  25   2.0000      -0.981012       -26.6947
  26   2.0000      -0.906456       -24.6659
  27   2.0000      -0.901872       -24.5412
  28   2.0000      -0.868036       -23.6205
  29   2.0000      -0.854462       -23.2511
  30   2.0000      -0.840842       -22.8805
  31   2.0000      -0.810255       -22.0482
  32   2.0000      -0.783897       -21.3309
  33   2.0000      -0.774154       -21.0658
  34   2.0000      -0.709367       -19.3028
  35   2.0000      -0.699389       -19.0313
  36   2.0000      -0.688365       -18.7314
  37   2.0000      -0.667084       -18.1523
  38   2.0000      -0.638321       -17.3696
  39   2.0000      -0.623966       -16.9790
  40   2.0000      -0.594921       -16.1886
  41   2.0000      -0.567425       -15.4404
  42   2.0000      -0.561254       -15.2725
  43   2.0000      -0.548010       -14.9121
  44   2.0000      -0.540711       -14.7135
  45   2.0000      -0.520550       -14.1649
  46   2.0000      -0.512923       -13.9574
  47   2.0000      -0.506311       -13.7774
  48   2.0000      -0.498917       -13.5762
  49   2.0000      -0.498158       -13.5556
  50   2.0000      -0.495541       -13.4844
  51   2.0000      -0.481655       -13.1065
  52   2.0000      -0.466791       -12.7020
  53   2.0000      -0.465213       -12.6591
  54   2.0000      -0.460058       -12.5188
  55   2.0000      -0.454071       -12.3559
  56   2.0000      -0.443311       -12.0631
  57   2.0000      -0.436567       -11.8796
  58   2.0000      -0.434175       -11.8145
  59   2.0000      -0.426180       -11.5969
  60   2.0000      -0.421674       -11.4743
  61   2.0000      -0.412912       -11.2359
  62   2.0000      -0.408946       -11.1280
  63   2.0000      -0.355093        -9.6626
  64   2.0000      -0.338053        -9.1989
  65   2.0000      -0.326143        -8.8748
  66   2.0000      -0.282436        -7.6855
  67   0.0000       0.019618         0.5338
  68   0.0000       0.079722         2.1694
  69   0.0000       0.092936         2.5289
  70   0.0000       0.115461         3.1419
  71   0.0000       0.135944         3.6992

MULLIKEN ATOMIC CHARGES
-----------------------
   0 S :    0.084737
   1 C :   -0.099139
   2 C :   -0.107083
   3 C :    0.043288
   4 C :   -0.106849
   5 H :   -0.043007
   6 C :    0.069631
   7 H :    0.039619
   8 H :    0.015645
   9 C :   -0.118927
  10 H :    0.039099
  11 H :    0.048037
  12 C :   -0.057199
  13 H :    0.042552
  14 H :    0.028527
  15 H :    0.047091
  16 S :    0.122353
  17 C :   -0.093179
  18 C :   -0.056524
  19 C :   -0.061365
  20 C :   -0.111781
  21 H :    0.039208
  22 C :    0.096424
  23 H :    0.028149
  24 H :    0.013978
  25 C :   -0.065219
  26 H :    0.031683
  27 H :    0.034118
  28 C :   -0.084482
  29 H :    0.018872
  30 H :    0.040788
  31 H :    0.032429
  32 H :    0.027080
  33 H :    0.061448
Sum of atomic charges:   -0.0000000

LOEWDIN ATOMIC CHARGES
----------------------
   0 S :    0.384737
   1 C :   -0.187243
   2 C :   -0.057129
   3 C :   -0.056742
   4 C :   -0.181146
   5 H :    0.008462
   6 C :   -0.032102
   7 H :    0.031328
   8 H :    0.030945
   9 C :   -0.050822
  10 H :    0.028592
  11 H :    0.028052
  12 C :   -0.068368
  13 H :    0.025308
  14 H :    0.029761
  15 H :    0.029784
  16 S :    0.404140
  17 C :   -0.184877
  18 C :   -0.070367
  19 C :   -0.048544
  20 C :   -0.194831
  21 H :    0.040106
  22 C :   -0.020338
  23 H :    0.025939
  24 H :    0.028195
  25 C :   -0.038369
  26 H :    0.029511
  27 H :    0.017467
  28 C :   -0.081211
  29 H :    0.022326
  30 H :    0.034899
  31 H :    0.022716
  32 H :    0.020414
  33 H :    0.029408

  Mayer bond orders larger than 0.100000
B(  0-S ,  1-C ) :   1.1148 B(  0-S ,  4-C ) :   1.1273 B(  1-C ,  2-C ) :   1.6792
B(  1-C , 32-H ) :   0.9640 B(  2-C ,  3-C ) :   1.2006 B(  2-C ,  6-C ) :   1.0285
B(  3-C ,  4-C ) :   1.5843 B(  3-C ,  5-H ) :   1.0034 B(  4-C , 20-C ) :   1.0864
B(  6-C ,  7-H ) :   0.9389 B(  6-C ,  8-H ) :   0.9517 B(  6-C ,  9-C ) :   1.0257
B(  9-C , 10-H ) :   0.9554 B(  9-C , 11-H ) :   0.9696 B(  9-C , 12-C ) :   1.0784
B( 12-C , 13-H ) :   0.9766 B( 12-C , 14-H ) :   0.9743 B( 12-C , 15-H ) :   0.9768
B( 16-S , 17-C ) :   1.1639 B( 16-S , 20-C ) :   1.1199 B( 17-C , 18-C ) :   1.6051
B( 17-C , 33-H ) :   0.9608 B( 18-C , 19-C ) :   1.2531 B( 18-C , 21-H ) :   0.9818
B( 19-C , 20-C ) :   1.5969 B( 19-C , 22-C ) :   1.0438 B( 22-C , 23-H ) :   0.9287
B( 22-C , 24-H ) :   0.9349 B( 22-C , 25-C ) :   1.0478 B( 25-C , 26-H ) :   0.9519
B( 25-C , 27-H ) :   0.9618 B( 25-C , 28-C ) :   1.0778 B( 28-C , 29-H ) :   0.9740
B( 28-C , 30-H ) :   0.9732 B( 28-C , 31-H ) :   0.9753

Dispersion correction           -0.014331775
FINAL SINGLE POINT ENERGY     -1339.861385923885

DIPOLE MOMENT
-------------
                                X             Y             Z
Electronic contribution:      3.70804      30.52837       7.28824
Nuclear contribution   :     -3.79441     -31.07032      -7.68893
                        -----------------------------------------
Total Dipole Moment    :     -0.08637      -0.54195      -0.40069
                        -----------------------------------------
Magnitude (a.u.)       :      0.67950
Magnitude (Debye)      :      1.72715

Rotational constants in cm-1:     0.019082     0.008623     0.006673
Rotational constants in MHz :   572.078044   258.509607   200.053923

                             ****ORCA TERMINATED NORMALLY****
TOTAL RUN TIME: 0 days 0 hours 0 minutes 35 seconds 628 msec
