                         Program Version 4.2.1 -  RELEASE  -
|  1> ! wB97X-D3 SP def2-SVP
|  2> %pal
|  3> nprocs 16
|  4> end
|  5>
|  6> * xyz 0 1
|  7> S 	 -1.37657 	 33.6469 	 35.6096
|  8> C 	 -0.932794 	 32.49 	 34.3849
|  9> C 	 -1.23933 	 31.1745 	 34.7893
| 10> C 	 -1.80052 	 31.182 	 36.0594
| 11> C 	 -2.07847 	 32.4335 	 36.6229
| 12> H 	 -1.8731 	 30.3687 	 36.6915
| 13> C 	 -0.83236 	 29.9626 	 34.0039
| 14> H 	 -0.570236 	 29.06 	 34.6449
| 15> H 	 0.0317507 	 30.3096 	 33.5394
| 16> C 	 -1.73474 	 29.4858 	 32.8865
| 17> H 	 -2.71707 	 29.437 	 33.2561
| 18> H 	 -1.69977 	 30.2972 	 32.1244
| 19> C 	 -1.3523 	 28.2227 	 32.254
| 20> H 	 -1.31978 	 27.4505 	 33.0016
| 21> H 	 -1.97353 	 27.9245 	 31.4592
| 22> H 	 -0.335058 	 28.2055 	 31.8671
| 23> S 	 -3.99767 	 32.7156 	 38.69
| 24> C 	 -3.43119 	 32.8476 	 40.3413
| 25> C 	 -2.06748 	 32.937 	 40.4181
| 26> C 	 -1.42584 	 32.8115 	 39.0888
| 27> C 	 -2.37076 	 32.6611 	 38.0351
| 28> H 	 -1.65823 	 33.0875 	 41.412
| 29> C 	 0.110866 	 32.9244 	 39.025
| 30> H 	 0.541045 	 32.0592 	 38.5127
| 31> H 	 0.444755 	 32.8116 	 40.0638
| 32> C 	 0.571919 	 34.2665 	 38.4738
| 33> H 	 -0.135811 	 34.9774 	 38.7214
| 34> H 	 0.484185 	 34.2561 	 37.3567
| 35> C 	 1.97592 	 34.6235 	 38.7238
| 36> H 	 2.57574 	 33.7454 	 38.372
| 37> H 	 2.16187 	 34.7483 	 39.8452
| 38> H 	 2.43598 	 35.4774 	 38.2814
| 39> H 	 -0.427632 	 32.7486 	 33.4639
| 40> H 	 -4.0349 	 32.9728 	 41.3099
| 41> *
| 42>
| 43>                          ****END OF INPUT****

CARTESIAN COORDINATES (ANGSTROEM)
---------------------------------
  S     -1.376570   33.646900   35.609600
  C     -0.932794   32.490000   34.384900
  C     -1.239330   31.174500   34.789300
  C     -1.800520   31.182000   36.059400
  C     -2.078470   32.433500   36.622900
  H     -1.873100   30.368700   36.691500
  C     -0.832360   29.962600   34.003900
  H     -0.570236   29.060000   34.644900
  H      0.031751   30.309600   33.539400
  C     -1.734740   29.485800   32.886500
  H     -2.717070   29.437000   33.256100
  H     -1.699770   30.297200   32.124400
  C     -1.352300   28.222700   32.254000
  H     -1.319780   27.450500   33.001600
  H     -1.973530   27.924500   31.459200
  H     -0.335058   28.205500   31.867100
  S     -3.997670   32.715600   38.690000
  C     -3.431190   32.847600   40.341300
  C     -2.067480   32.937000   40.418100
  C     -1.425840   32.811500   39.088800
  C     -2.370760   32.661100   38.035100
  H     -1.658230   33.087500   41.412000
  C      0.110866   32.924400   39.025000
  H      0.541045   32.059200   38.512700
  H      0.444755   32.811600   40.063800
  C      0.571919   34.266500   38.473800
  H     -0.135811   34.977400   38.721400
  H      0.484185   34.256100   37.356700
  C      1.975920   34.623500   38.723800
  H      2.575740   33.745400   38.372000
  H      2.161870   34.748300   39.845200
  H      2.435980   35.477400   38.281400
  H     -0.427632   32.748600   33.463900
  H     -4.034900   32.972800   41.309900

 Total Charge           Charge          ....    0
 Multiplicity           Mult            ....    1
 Number of Electrons    NEL             ....  134
 Basis Dimension        Dim             ....  322

ORBITAL ENERGIES
----------------

  NO   OCC          E(Eh)            E(eV)
   0   2.0000     -88.971803     -2421.0458
   1   2.0000     -88.966528     -2420.9023
   2   2.0000     -10.330287      -281.1014
   3   2.0000     -10.326514      -280.9987
   4   2.0000     -10.321059      -280.8503
   5   2.0000     -10.319336      -280.8034
   6   2.0000     -10.312597      -280.6200
   7   2.0000     -10.301349      -280.3140
   8   2.0000     -10.295145      -280.1451
   9   2.0000     -10.291374      -280.0425
  10   2.0000     -10.288871      -279.9744
  11   2.0000     -10.287612      -279.9402
  12   2.0000     -10.277857      -279.6747
  13   2.0000     -10.276438      -279.6361
  14   2.0000     -10.271734      -279.5081
  15   2.0000     -10.269474      -279.4466
  16   2.0000      -8.085972      -220.0305
  17   2.0000      -8.080863      -219.8915
  18   2.0000      -6.044294      -164.4736
  19   2.0000      -6.040313      -164.3653
  20   2.0000      -6.039512      -164.3435
  21   2.0000      -6.037161      -164.2795
  22   2.0000      -6.035356      -164.2304
  23   2.0000      -6.031559      -164.1271
  24   2.0000      -1.006428       -27.3863
  25   2.0000      -0.981434       -26.7062
  26   2.0000      -0.923395       -25.1269
  27   2.0000      -0.910454       -24.7747
  28   2.0000      -0.873019       -23.7561
  29   2.0000      -0.856352       -23.3025
  30   2.0000      -0.845819       -23.0159
  31   2.0000      -0.817910       -22.2565
  32   2.0000      -0.787092       -21.4179
  33   2.0000      -0.766320       -20.8526
  34   2.0000      -0.705990       -19.2110
  35   2.0000      -0.699609       -19.0373
  36   2.0000      -0.691799       -18.8248
  37   2.0000      -0.651274       -17.7221
  38   2.0000      -0.647854       -17.6290
  39   2.0000      -0.622651       -16.9432
  40   2.0000      -0.592811       -16.1312
  41   2.0000      -0.579804       -15.7773
  42   2.0000      -0.567898       -15.4533
  43   2.0000      -0.558847       -15.2070
  44   2.0000      -0.529785       -14.4162
  45   2.0000      -0.526197       -14.3185
  46   2.0000      -0.521226       -14.1833
  47   2.0000      -0.513297       -13.9675
  48   2.0000      -0.510825       -13.9003
  49   2.0000      -0.501566       -13.6483
  50   2.0000      -0.498028       -13.5520
  51   2.0000      -0.474748       -12.9186
  52   2.0000      -0.470140       -12.7932
  53   2.0000      -0.463833       -12.6215
  54   2.0000      -0.460676       -12.5356
  55   2.0000      -0.451820       -12.2947
  56   2.0000      -0.444521       -12.0960
  57   2.0000      -0.437451       -11.9036
  58   2.0000      -0.430070       -11.7028
  59   2.0000      -0.427264       -11.6264
  60   2.0000      -0.421046       -11.4572
  61   2.0000      -0.414755       -11.2860
  62   2.0000      -0.398389       -10.8407
  63   2.0000      -0.335492        -9.1292
  64   2.0000      -0.332018        -9.0347
  65   2.0000      -0.319012        -8.6808
  66   2.0000      -0.307921        -8.3789
  67   0.0000       0.037329         1.0158
  68   0.0000       0.053751         1.4626
  69   0.0000       0.110511         3.0071
  70   0.0000       0.123916         3.3719
  71   0.0000       0.130394         3.5482

MULLIKEN ATOMIC CHARGES
-----------------------
   0 S :    0.127494
   1 C :   -0.129552
   2 C :   -0.065748
   3 C :    0.061735
   4 C :   -0.162318
   5 H :   -0.012772
   6 C :    0.063416
   7 H :    0.030726
   8 H :    0.000797
   9 C :   -0.046764
  10 H :    0.018877
  11 H :    0.017347
  12 C :    0.002801
  13 H :    0.011708
  14 H :    0.029857
  15 H :    0.014440
  16 S :    0.115736
  17 C :   -0.121686
  18 C :   -0.041428
  19 C :   -0.063289
  20 C :   -0.181682
  21 H :    0.026107
  22 C :    0.098031
  23 H :    0.030326
  24 H :    0.011186
  25 C :   -0.045701
  26 H :    0.009865
  27 H :    0.034093
  28 C :   -0.053949
  29 H :    0.028352
  30 H :    0.027938
  31 H :    0.032179
  32 H :    0.049948
  33 H :    0.081932
Sum of atomic charges:   -0.0000000

LOEWDIN ATOMIC CHARGES
----------------------
   0 S :    0.458548
   1 C :   -0.196516
   2 C :   -0.063240
   3 C :   -0.042944
   4 C :   -0.215689
   5 H :    0.020379
   6 C :   -0.030712
   7 H :    0.035612
   8 H :    0.022189
   9 C :   -0.038701
  10 H :    0.018379
  11 H :    0.025005
  12 C :   -0.058635
  13 H :    0.021792
  14 H :    0.024288
  15 H :    0.025322
  16 S :    0.406677
  17 C :   -0.202265
  18 C :   -0.082013
  19 C :   -0.041771
  20 C :   -0.216957
  21 H :    0.034159
  22 C :   -0.027509
  23 H :    0.031632
  24 H :    0.028666
  25 C :   -0.053274
  26 H :    0.012429
  27 H :    0.018054
  28 C :   -0.069298
  29 H :    0.030920
  30 H :    0.025650
  31 H :    0.022114
  32 H :    0.026592
  33 H :    0.051114

  Mayer bond orders larger than 0.100000
B(  0-S ,  1-C ) :   1.1869 B(  0-S ,  4-C ) :   1.1756 B(  1-C ,  2-C ) :   1.5331
B(  1-C ,  4-C ) :   0.1099 B(  1-C , 32-H ) :   0.9687 B(  2-C ,  3-C ) :   1.3045
B(  2-C ,  6-C ) :   1.0187 B(  3-C ,  4-C ) :   1.5306 B(  3-C ,  5-H ) :   1.0074
B(  4-C , 20-C ) :   1.0247 B(  6-C ,  7-H ) :   0.9461 B(  6-C ,  8-H ) :   0.9277
B(  6-C ,  9-C ) :   1.0688 B(  9-C , 10-H ) :   0.9535 B(  9-C , 11-H ) :   0.9473
B(  9-C , 12-C ) :   1.1047 B( 12-C , 13-H ) :   0.9667 B( 12-C , 14-H ) :   0.9695
B( 12-C , 15-H ) :   0.9675 B( 16-S , 17-C ) :   1.1537 B( 16-S , 20-C ) :   1.1318
B( 17-C , 18-C ) :   1.6506 B( 17-C , 33-H ) :   0.9509 B( 18-C , 19-C ) :   1.2243
B( 18-C , 21-H ) :   0.9847 B( 19-C , 20-C ) :   1.5932 B( 19-C , 22-C ) :   1.0418
B( 22-C , 23-H ) :   0.9239 B( 22-C , 24-H ) :   0.9380 B( 22-C , 25-C ) :   1.0594
B( 25-C , 26-H ) :   0.9562 B( 25-C , 27-H ) :   0.9318 B( 25-C , 28-C ) :   1.0899
B( 28-C , 29-H ) :   0.9687 B( 28-C , 30-H ) :   0.9739 B( 28-C , 31-H ) :   0.9743

Dispersion correction           -0.014366864
FINAL SINGLE POINT ENERGY     -1339.861560595463

DIPOLE MOMENT
-------------
                                X             Y             Z
Electronic contribution:    -17.56987      10.16271       8.80227
Nuclear contribution   :     18.11578     -10.45410      -8.83086
                        -----------------------------------------
Total Dipole Moment    :      0.54591      -0.29139      -0.02859
                        -----------------------------------------
Magnitude (a.u.)       :      0.61947
Magnitude (Debye)      :      1.57458

Rotational constants in cm-1:     0.019937     0.007765     0.006415
Rotational constants in MHz :   597.695697   232.793716   192.312752

                             ****ORCA TERMINATED NORMALLY****
TOTAL RUN TIME: 0 days 0 hours 0 minutes 34 seconds 857 msec
