                         Program Version 4.2.1 -  RELEASE  -
|  1> ! wB97X-D3 SP def2-SVP
|  2> %pal
|  3> nprocs 16
|  4> end
|  5>
|  6> * xyz 0 1
|  7> S 	 -55.6156 	 38.9728 	 107.762
|  8> C 	 -54.2932 	 39.5291 	 106.704
|  9> C 	 -53.3783 	 38.5078 	 106.424
| 10> C 	 -53.7304 	 37.3468 	 107.173
| 11> C 	 -54.8944 	 37.3582 	 107.943
| 12> H 	 -53.2154 	 36.3396 	 107.12
| 13> C 	 -52.1334 	 38.6005 	 105.642
| 14> H 	 -51.3005 	 38.2474 	 106.223
| 15> H 	 -51.8635 	 39.6075 	 105.333
| 16> C 	 -52.2104 	 37.9019 	 104.227
| 17> H 	 -52.4322 	 36.838 	 104.312
| 18> H 	 -53.0715 	 38.3932 	 103.74
| 19> C 	 -50.8238 	 38.0088 	 103.491
| 20> H 	 -50.4651 	 39.0461 	 103.336
| 21> H 	 -50.0689 	 37.5066 	 104.042
| 22> H 	 -50.9148 	 37.5163 	 102.544
| 23> S 	 -55.9023 	 37.1074 	 110.509
| 24> C 	 -56.373 	 35.5044 	 111.097
| 25> C 	 -56.2476 	 34.6028 	 110.067
| 26> C 	 -55.6553 	 35.159 	 108.85
| 27> C 	 -55.4231 	 36.4999 	 108.952
| 28> H 	 -56.5965 	 33.6038 	 110.195
| 29> C 	 -55.3643 	 34.3353 	 107.536
| 30> H 	 -54.3444 	 33.9416 	 107.66
| 31> H 	 -55.5305 	 35.0388 	 106.715
| 32> C 	 -56.3344 	 33.231 	 107.188
| 33> H 	 -57.3285 	 33.7277 	 107.07
| 34> H 	 -56.2803 	 32.4885 	 108.011
| 35> C 	 -56.2719 	 32.573 	 105.819
| 36> H 	 -56.9852 	 31.7037 	 105.734
| 37> H 	 -55.3198 	 32.1872 	 105.7
| 38> H 	 -56.5709 	 33.2757 	 105.008
| 39> H 	 -54.2015 	 40.576 	 106.395
| 40> H 	 -56.9211 	 35.248 	 111.95
| 41> *
| 42>
| 43>                          ****END OF INPUT****

CARTESIAN COORDINATES (ANGSTROEM)
---------------------------------
  S    -55.615600   38.972800  107.762000
  C    -54.293200   39.529100  106.704000
  C    -53.378300   38.507800  106.424000
  C    -53.730400   37.346800  107.173000
  C    -54.894400   37.358200  107.943000
  H    -53.215400   36.339600  107.120000
  C    -52.133400   38.600500  105.642000
  H    -51.300500   38.247400  106.223000
  H    -51.863500   39.607500  105.333000
  C    -52.210400   37.901900  104.227000
  H    -52.432200   36.838000  104.312000
  H    -53.071500   38.393200  103.740000
  C    -50.823800   38.008800  103.491000
  H    -50.465100   39.046100  103.336000
  H    -50.068900   37.506600  104.042000
  H    -50.914800   37.516300  102.544000
  S    -55.902300   37.107400  110.509000
  C    -56.373000   35.504400  111.097000
  C    -56.247600   34.602800  110.067000
  C    -55.655300   35.159000  108.850000
  C    -55.423100   36.499900  108.952000
  H    -56.596500   33.603800  110.195000
  C    -55.364300   34.335300  107.536000
  H    -54.344400   33.941600  107.660000
  H    -55.530500   35.038800  106.715000
  C    -56.334400   33.231000  107.188000
  H    -57.328500   33.727700  107.070000
  H    -56.280300   32.488500  108.011000
  C    -56.271900   32.573000  105.819000
  H    -56.985200   31.703700  105.734000
  H    -55.319800   32.187200  105.700000
  H    -56.570900   33.275700  105.008000
  H    -54.201500   40.576000  106.395000
  H    -56.921100   35.248000  111.950000

 Total Charge           Charge          ....    0
 Multiplicity           Mult            ....    1
 Number of Electrons    NEL             ....  134
 Basis Dimension        Dim             ....  322

ORBITAL ENERGIES
----------------

  NO   OCC          E(Eh)            E(eV)
   0   2.0000     -88.965930     -2420.8860
   1   2.0000     -88.963627     -2420.8234
   2   2.0000     -10.330817      -281.1158
   3   2.0000     -10.324229      -280.9365
   4   2.0000     -10.321155      -280.8529
   5   2.0000     -10.315623      -280.7024
   6   2.0000     -10.305944      -280.4390
   7   2.0000     -10.304953      -280.4120
   8   2.0000     -10.300969      -280.3036
   9   2.0000     -10.295913      -280.1660
  10   2.0000     -10.295449      -280.1534
  11   2.0000     -10.294074      -280.1160
  12   2.0000     -10.290966      -280.0314
  13   2.0000     -10.287295      -279.9315
  14   2.0000     -10.280292      -279.7410
  15   2.0000     -10.279886      -279.7299
  16   2.0000      -8.080347      -219.8774
  17   2.0000      -8.077625      -219.8034
  18   2.0000      -6.039070      -164.3315
  19   2.0000      -6.036172      -164.2526
  20   2.0000      -6.034874      -164.2173
  21   2.0000      -6.032157      -164.1433
  22   2.0000      -6.030885      -164.1087
  23   2.0000      -6.028461      -164.0428
  24   2.0000      -1.006167       -27.3792
  25   2.0000      -0.979396       -26.6507
  26   2.0000      -0.910669       -24.7806
  27   2.0000      -0.909867       -24.7587
  28   2.0000      -0.872738       -23.7484
  29   2.0000      -0.850023       -23.1303
  30   2.0000      -0.840332       -22.8666
  31   2.0000      -0.815252       -22.1841
  32   2.0000      -0.784432       -21.3455
  33   2.0000      -0.774555       -21.0767
  34   2.0000      -0.709014       -19.2932
  35   2.0000      -0.700701       -19.0671
  36   2.0000      -0.691104       -18.8059
  37   2.0000      -0.654088       -17.7986
  38   2.0000      -0.645199       -17.5567
  39   2.0000      -0.615836       -16.7577
  40   2.0000      -0.591701       -16.1010
  41   2.0000      -0.584488       -15.9047
  42   2.0000      -0.569933       -15.5087
  43   2.0000      -0.561917       -15.2905
  44   2.0000      -0.526854       -14.3364
  45   2.0000      -0.522892       -14.2286
  46   2.0000      -0.522662       -14.2223
  47   2.0000      -0.512402       -13.9432
  48   2.0000      -0.505621       -13.7586
  49   2.0000      -0.499602       -13.5949
  50   2.0000      -0.491714       -13.3802
  51   2.0000      -0.484587       -13.1863
  52   2.0000      -0.470489       -12.8026
  53   2.0000      -0.467025       -12.7084
  54   2.0000      -0.460490       -12.5306
  55   2.0000      -0.453468       -12.3395
  56   2.0000      -0.445778       -12.1302
  57   2.0000      -0.432018       -11.7558
  58   2.0000      -0.428361       -11.6563
  59   2.0000      -0.426102       -11.5948
  60   2.0000      -0.420210       -11.4345
  61   2.0000      -0.414262       -11.2727
  62   2.0000      -0.399917       -10.8823
  63   2.0000      -0.350588        -9.5400
  64   2.0000      -0.330048        -8.9811
  65   2.0000      -0.328629        -8.9425
  66   2.0000      -0.292611        -7.9624
  67   0.0000       0.023924         0.6510
  68   0.0000       0.072570         1.9747
  69   0.0000       0.112571         3.0632
  70   0.0000       0.122620         3.3367
  71   0.0000       0.130120         3.5407

MULLIKEN ATOMIC CHARGES
-----------------------
   0 S :    0.086485
   1 C :   -0.134453
   2 C :   -0.049687
   3 C :    0.015323
   4 C :   -0.190429
   5 H :    0.030081
   6 C :    0.061342
   7 H :    0.029738
   8 H :    0.010544
   9 C :   -0.107487
  10 H :    0.031542
  11 H :    0.039054
  12 C :   -0.028763
  13 H :    0.034098
  14 H :    0.024583
  15 H :    0.035109
  16 S :    0.111287
  17 C :   -0.064233
  18 C :   -0.035656
  19 C :   -0.059440
  20 C :   -0.120970
  21 H :    0.011849
  22 C :    0.078275
  23 H :    0.046772
  24 H :    0.038285
  25 C :   -0.130679
  26 H :    0.036175
  27 H :    0.034535
  28 C :   -0.028375
  29 H :    0.040983
  30 H :    0.012599
  31 H :    0.041014
  32 H :    0.058706
  33 H :    0.041794
Sum of atomic charges:    0.0000000

LOEWDIN ATOMIC CHARGES
----------------------
   0 S :    0.378880
   1 C :   -0.183208
   2 C :   -0.067883
   3 C :   -0.062972
   4 C :   -0.184763
   5 H :    0.038497
   6 C :   -0.033538
   7 H :    0.029685
   8 H :    0.029336
   9 C :   -0.032349
  10 H :    0.020223
  11 H :    0.027221
  12 C :   -0.062607
  13 H :    0.026971
  14 H :    0.021293
  15 H :    0.025599
  16 S :    0.401639
  17 C :   -0.174189
  18 C :   -0.063516
  19 C :   -0.052605
  20 C :   -0.210756
  21 H :    0.025562
  22 C :   -0.032753
  23 H :    0.031312
  24 H :    0.034813
  25 C :   -0.053857
  26 H :    0.032746
  27 H :    0.020512
  28 C :   -0.061049
  29 H :    0.036311
  30 H :    0.009467
  31 H :    0.030831
  32 H :    0.031098
  33 H :    0.024049

  Mayer bond orders larger than 0.100000
B(  0-S ,  1-C ) :   1.1465 B(  0-S ,  4-C ) :   1.1276 B(  1-C ,  2-C ) :   1.5809
B(  1-C ,  4-C ) :   0.1028 B(  1-C , 32-H ) :   0.9663 B(  2-C ,  3-C ) :   1.2443
B(  2-C ,  6-C ) :   1.0450 B(  3-C ,  4-C ) :   1.5791 B(  3-C ,  5-H ) :   0.9762
B(  4-C , 20-C ) :   1.0730 B(  6-C ,  7-H ) :   0.9416 B(  6-C ,  8-H ) :   0.9425
B(  6-C ,  9-C ) :   1.0417 B(  9-C , 10-H ) :   0.9611 B(  9-C , 11-H ) :   0.9588
B(  9-C , 12-C ) :   1.0747 B( 12-C , 13-H ) :   0.9757 B( 12-C , 14-H ) :   0.9744
B( 12-C , 15-H ) :   0.9749 B( 16-S , 17-C ) :   1.1324 B( 16-S , 20-C ) :   1.1250
B( 17-C , 18-C ) :   1.6382 B( 17-C , 33-H ) :   0.9697 B( 18-C , 19-C ) :   1.2247
B( 18-C , 21-H ) :   0.9904 B( 19-C , 20-C ) :   1.6186 B( 19-C , 22-C ) :   1.0261
B( 22-C , 23-H ) :   0.9284 B( 22-C , 24-H ) :   0.9364 B( 22-C , 25-C ) :   1.0749
B( 25-C , 26-H ) :   0.9627 B( 25-C , 27-H ) :   0.9472 B( 25-C , 28-C ) :   1.0886
B( 28-C , 29-H ) :   0.9716 B( 28-C , 30-H ) :   0.9733 B( 28-C , 31-H ) :   0.9741

Dispersion correction           -0.013358348
FINAL SINGLE POINT ENERGY     -1339.871147253981

DIPOLE MOMENT
-------------
                                X             Y             Z
Electronic contribution:    -11.91769      14.95098      24.35872
Nuclear contribution   :     12.21175     -15.43579     -24.81858
                        -----------------------------------------
Total Dipole Moment    :      0.29407      -0.48482      -0.45987
                        -----------------------------------------
Magnitude (a.u.)       :      0.73007
Magnitude (Debye)      :      1.85569

Rotational constants in cm-1:     0.016850     0.008417     0.006142
Rotational constants in MHz :   505.164617   252.322981   184.133662

                             ****ORCA TERMINATED NORMALLY****
TOTAL RUN TIME: 0 days 0 hours 0 minutes 27 seconds 300 msec
