                         Program Version 4.2.1 -  RELEASE  -
|  1> ! wB97X-D3 SP def2-SVP
|  2> %pal
|  3> nprocs 16
|  4> end
|  5>
|  6> * xyz 0 1
|  7> S 	 -39.3651 	 -2.83646 	 99.1653
|  8> C 	 -39.1698 	 -4.59973 	 99.2221
|  9> C 	 -38.1822 	 -5.04028 	 98.3199
| 10> C 	 -37.511 	 -3.9733 	 97.6676
| 11> C 	 -38.0587 	 -2.70337 	 98.0793
| 12> H 	 -36.659 	 -3.96126 	 97.0607
| 13> C 	 -37.8586 	 -6.47295 	 98.061
| 14> H 	 -38.0786 	 -7.03013 	 98.9471
| 15> H 	 -36.7591 	 -6.4824 	 97.9404
| 16> C 	 -38.4878 	 -7.10537 	 96.7951
| 17> H 	 -38.7441 	 -6.35513 	 96.1406
| 18> H 	 -37.804 	 -7.6535 	 96.2072
| 19> C 	 -39.6829 	 -8.11959 	 97.0653
| 20> H 	 -39.3261 	 -9.07984 	 97.4079
| 21> H 	 -40.3462 	 -7.72865 	 97.8326
| 22> H 	 -40.2243 	 -8.23779 	 96.1091
| 23> S 	 -36.8496 	 -0.5757 	 99.36
| 24> C 	 -36.2652 	 0.80007 	 98.4227
| 25> C 	 -36.4042 	 0.595207 	 97.099
| 26> C 	 -37.0432 	 -0.620402 	 96.7816
| 27> C 	 -37.4286 	 -1.34274 	 97.8852
| 28> H 	 -36.1486 	 1.30754 	 96.3311
| 29> C 	 -37.1687 	 -1.05771 	 95.3639
| 30> H 	 -36.9027 	 -2.10945 	 95.3227
| 31> H 	 -36.4372 	 -0.545469 	 94.7298
| 32> C 	 -38.5349 	 -0.863017 	 94.7355
| 33> H 	 -38.808 	 0.145549 	 94.7686
| 34> H 	 -39.1541 	 -1.37835 	 95.3911
| 35> C 	 -38.6864 	 -1.34577 	 93.3009
| 36> H 	 -39.7361 	 -1.33811 	 92.9142
| 37> H 	 -38.2277 	 -2.29614 	 93.251
| 38> H 	 -38.142 	 -0.731559 	 92.5978
| 39> H 	 -39.8757 	 -5.22609 	 99.7134
| 40> H 	 -36.0708 	 1.74745 	 98.88
| 41> *
| 42>
| 43>                          ****END OF INPUT****

CARTESIAN COORDINATES (ANGSTROEM)
---------------------------------
  S    -39.365100   -2.836460   99.165300
  C    -39.169800   -4.599730   99.222100
  C    -38.182200   -5.040280   98.319900
  C    -37.511000   -3.973300   97.667600
  C    -38.058700   -2.703370   98.079300
  H    -36.659000   -3.961260   97.060700
  C    -37.858600   -6.472950   98.061000
  H    -38.078600   -7.030130   98.947100
  H    -36.759100   -6.482400   97.940400
  C    -38.487800   -7.105370   96.795100
  H    -38.744100   -6.355130   96.140600
  H    -37.804000   -7.653500   96.207200
  C    -39.682900   -8.119590   97.065300
  H    -39.326100   -9.079840   97.407900
  H    -40.346200   -7.728650   97.832600
  H    -40.224300   -8.237790   96.109100
  S    -36.849600   -0.575700   99.360000
  C    -36.265200    0.800070   98.422700
  C    -36.404200    0.595207   97.099000
  C    -37.043200   -0.620402   96.781600
  C    -37.428600   -1.342740   97.885200
  H    -36.148600    1.307540   96.331100
  C    -37.168700   -1.057710   95.363900
  H    -36.902700   -2.109450   95.322700
  H    -36.437200   -0.545469   94.729800
  C    -38.534900   -0.863017   94.735500
  H    -38.808000    0.145549   94.768600
  H    -39.154100   -1.378350   95.391100
  C    -38.686400   -1.345770   93.300900
  H    -39.736100   -1.338110   92.914200
  H    -38.227700   -2.296140   93.251000
  H    -38.142000   -0.731559   92.597800
  H    -39.875700   -5.226090   99.713400
  H    -36.070800    1.747450   98.880000

 Total Charge           Charge          ....    0
 Multiplicity           Mult            ....    1
 Number of Electrons    NEL             ....  134
 Basis Dimension        Dim             ....  322

ORBITAL ENERGIES
----------------

  NO   OCC          E(Eh)            E(eV)
   0   2.0000     -88.972198     -2421.0566
   1   2.0000     -88.962104     -2420.7819
   2   2.0000     -10.335733      -281.2496
   3   2.0000     -10.327604      -281.0284
   4   2.0000     -10.315431      -280.6971
   5   2.0000     -10.311808      -280.5986
   6   2.0000     -10.305768      -280.4342
   7   2.0000     -10.297670      -280.2139
   8   2.0000     -10.295949      -280.1670
   9   2.0000     -10.290626      -280.0222
  10   2.0000     -10.287747      -279.9438
  11   2.0000     -10.285011      -279.8694
  12   2.0000     -10.282284      -279.7952
  13   2.0000     -10.280285      -279.7408
  14   2.0000     -10.273356      -279.5522
  15   2.0000     -10.268811      -279.4286
  16   2.0000      -8.086904      -220.0559
  17   2.0000      -8.076765      -219.7799
  18   2.0000      -6.045135      -164.4965
  19   2.0000      -6.041271      -164.3913
  20   2.0000      -6.038114      -164.3054
  21   2.0000      -6.035322      -164.2295
  22   2.0000      -6.031305      -164.1201
  23   2.0000      -6.027447      -164.0152
  24   2.0000      -1.006301       -27.3829
  25   2.0000      -0.985054       -26.8047
  26   2.0000      -0.914632       -24.8884
  27   2.0000      -0.911317       -24.7982
  28   2.0000      -0.863735       -23.5034
  29   2.0000      -0.852091       -23.1866
  30   2.0000      -0.848607       -23.0918
  31   2.0000      -0.812906       -22.1203
  32   2.0000      -0.783208       -21.3122
  33   2.0000      -0.772641       -21.0246
  34   2.0000      -0.714341       -19.4382
  35   2.0000      -0.705221       -19.1900
  36   2.0000      -0.691259       -18.8101
  37   2.0000      -0.666091       -18.1253
  38   2.0000      -0.647946       -17.6315
  39   2.0000      -0.617425       -16.8010
  40   2.0000      -0.600820       -16.3491
  41   2.0000      -0.571356       -15.5474
  42   2.0000      -0.568190       -15.4612
  43   2.0000      -0.548743       -14.9321
  44   2.0000      -0.532110       -14.4794
  45   2.0000      -0.529466       -14.4075
  46   2.0000      -0.522785       -14.2257
  47   2.0000      -0.510640       -13.8952
  48   2.0000      -0.507688       -13.8149
  49   2.0000      -0.496956       -13.5229
  50   2.0000      -0.484985       -13.1971
  51   2.0000      -0.480926       -13.0867
  52   2.0000      -0.476446       -12.9647
  53   2.0000      -0.463478       -12.6119
  54   2.0000      -0.460771       -12.5382
  55   2.0000      -0.452465       -12.3122
  56   2.0000      -0.449139       -12.2217
  57   2.0000      -0.440966       -11.9993
  58   2.0000      -0.433522       -11.7967
  59   2.0000      -0.432564       -11.7707
  60   2.0000      -0.422910       -11.5080
  61   2.0000      -0.414314       -11.2740
  62   2.0000      -0.411738       -11.2039
  63   2.0000      -0.343063        -9.3352
  64   2.0000      -0.331897        -9.0314
  65   2.0000      -0.327491        -8.9115
  66   2.0000      -0.296564        -8.0699
  67   0.0000       0.028344         0.7713
  68   0.0000       0.065897         1.7931
  69   0.0000       0.113172         3.0796
  70   0.0000       0.117080         3.1859
  71   0.0000       0.120710         3.2847

MULLIKEN ATOMIC CHARGES
-----------------------
   0 S :    0.126965
   1 C :   -0.120042
   2 C :   -0.092921
   3 C :    0.064983
   4 C :   -0.179663
   5 H :    0.000192
   6 C :    0.065597
   7 H :    0.018873
   8 H :    0.028951
   9 C :   -0.007616
  10 H :    0.005446
  11 H :    0.010921
  12 C :   -0.068697
  13 H :    0.035837
  14 H :    0.030608
  15 H :    0.041491
  16 S :    0.097073
  17 C :   -0.081743
  18 C :   -0.017613
  19 C :   -0.043687
  20 C :   -0.160557
  21 H :    0.014654
  22 C :    0.064234
  23 H :    0.010240
  24 H :    0.008784
  25 C :   -0.020702
  26 H :    0.006966
  27 H :    0.011164
  28 C :   -0.020712
  29 H :    0.045180
  30 H :    0.013727
  31 H :    0.017149
  32 H :    0.040525
  33 H :    0.054394
Sum of atomic charges:   -0.0000000

LOEWDIN ATOMIC CHARGES
----------------------
   0 S :    0.433207
   1 C :   -0.197371
   2 C :   -0.055071
   3 C :   -0.056603
   4 C :   -0.207952
   5 H :    0.022403
   6 C :   -0.031031
   7 H :    0.026940
   8 H :    0.037883
   9 C :   -0.029868
  10 H :    0.014084
  11 H :    0.020045
  12 C :   -0.059705
  13 H :    0.021971
  14 H :    0.020550
  15 H :    0.031196
  16 S :    0.392989
  17 C :   -0.174333
  18 C :   -0.067137
  19 C :   -0.062683
  20 C :   -0.196922
  21 H :    0.032690
  22 C :   -0.028314
  23 H :    0.026836
  24 H :    0.025954
  25 C :   -0.030564
  26 H :    0.015792
  27 H :    0.016785
  28 C :   -0.060797
  29 H :    0.034841
  30 H :    0.017924
  31 H :    0.021231
  32 H :    0.018958
  33 H :    0.026072

  Mayer bond orders larger than 0.100000
B(  0-S ,  1-C ) :   1.1429 B(  0-S ,  4-C ) :   1.2040 B(  1-C ,  2-C ) :   1.5705
B(  1-C ,  4-C ) :   0.1059 B(  1-C , 32-H ) :   0.9734 B(  2-C ,  3-C ) :   1.2612
B(  2-C ,  6-C ) :   1.0396 B(  3-C ,  4-C ) :   1.5205 B(  3-C ,  5-H ) :   0.9979
B(  4-C , 20-C ) :   0.9860 B(  6-C ,  7-H ) :   0.9487 B(  6-C ,  8-H ) :   0.9368
B(  6-C ,  9-C ) :   1.0449 B(  9-C , 10-H ) :   0.9603 B(  9-C , 11-H ) :   0.9551
B(  9-C , 12-C ) :   1.0722 B( 12-C , 13-H ) :   0.9803 B( 12-C , 14-H ) :   0.9811
B( 12-C , 15-H ) :   0.9765 B( 16-S , 17-C ) :   1.1454 B( 16-S , 20-C ) :   1.1417
B( 17-C , 18-C ) :   1.6091 B( 17-C , 33-H ) :   0.9665 B( 18-C , 19-C ) :   1.2581
B( 18-C , 21-H ) :   0.9897 B( 19-C , 20-C ) :   1.6201 B( 19-C , 22-C ) :   1.0479
B( 22-C , 23-H ) :   0.9245 B( 22-C , 24-H ) :   0.9322 B( 22-C , 25-C ) :   1.0689
B( 25-C , 26-H ) :   0.9514 B( 25-C , 27-H ) :   0.9529 B( 25-C , 28-C ) :   1.0887
B( 28-C , 29-H ) :   0.9732 B( 28-C , 30-H ) :   0.9724 B( 28-C , 31-H ) :   0.9721

Dispersion correction           -0.013924766
FINAL SINGLE POINT ENERGY     -1339.871866379717

DIPOLE MOMENT
-------------
                                X             Y             Z
Electronic contribution:      3.84023      16.78834      22.60041
Nuclear contribution   :     -3.75439     -17.04758     -23.10804
                        -----------------------------------------
Total Dipole Moment    :      0.08584      -0.25924      -0.50763
                        -----------------------------------------
Magnitude (a.u.)       :      0.57642
Magnitude (Debye)      :      1.46515

Rotational constants in cm-1:     0.018729     0.008402     0.006515
Rotational constants in MHz :   561.478374   251.886653   195.317516

                             ****ORCA TERMINATED NORMALLY****
TOTAL RUN TIME: 0 days 0 hours 0 minutes 29 seconds 802 msec
