                         Program Version 4.2.1 -  RELEASE  -
|  1> ! wB97X-D3 SP def2-SVP
|  2> %pal
|  3> nprocs 16
|  4> end
|  5>
|  6> * xyz 0 1
|  7> S 	 -29.4378 	 74.8867 	 157.678
|  8> C 	 -28.6962 	 75.6251 	 159.096
|  9> C 	 -28.7673 	 74.7945 	 160.217
| 10> C 	 -29.5512 	 73.5995 	 159.959
| 11> C 	 -30.0751 	 73.5556 	 158.668
| 12> H 	 -29.9209 	 72.8479 	 160.709
| 13> C 	 -28.157 	 75.0806 	 161.567
| 14> H 	 -27.577 	 76.001 	 161.497
| 15> H 	 -27.5489 	 74.2035 	 161.885
| 16> C 	 -29.1827 	 75.3938 	 162.695
| 17> H 	 -29.6074 	 76.3445 	 162.504
| 18> H 	 -29.937 	 74.7032 	 162.708
| 19> C 	 -28.4763 	 75.4019 	 164.053
| 20> H 	 -29.1621 	 75.1846 	 164.957
| 21> H 	 -27.5825 	 74.8003 	 164.184
| 22> H 	 -28.0787 	 76.4225 	 164.205
| 23> S 	 -29.8509 	 71.3297 	 156.906
| 24> C 	 -31.2803 	 70.3334 	 156.68
| 25> C 	 -32.1244 	 70.5444 	 157.751
| 26> C 	 -31.8887 	 71.7929 	 158.435
| 27> C 	 -30.7101 	 72.382 	 158.038
| 28> H 	 -33.016 	 69.9479 	 157.866
| 29> C 	 -33.0114 	 72.321 	 159.34
| 30> H 	 -32.7581 	 73.0984 	 160.013
| 31> H 	 -33.2749 	 71.4431 	 159.99
| 32> C 	 -34.3251 	 72.7468 	 158.682
| 33> H 	 -35.1417 	 72.8521 	 159.434
| 34> H 	 -34.6283 	 71.9027 	 158.039
| 35> C 	 -34.1211 	 74.0691 	 157.813
| 36> H 	 -33.582 	 74.8183 	 158.318
| 37> H 	 -35.0396 	 74.2944 	 157.426
| 38> H 	 -33.4894 	 73.8427 	 157.026
| 39> H 	 -28.0231 	 76.4954 	 159.13
| 40> H 	 -31.4898 	 69.4077 	 156.065
| 41> *
| 42>
| 43>                          ****END OF INPUT****

CARTESIAN COORDINATES (ANGSTROEM)
---------------------------------
  S    -29.437800   74.886700  157.678000
  C    -28.696200   75.625100  159.096000
  C    -28.767300   74.794500  160.217000
  C    -29.551200   73.599500  159.959000
  C    -30.075100   73.555600  158.668000
  H    -29.920900   72.847900  160.709000
  C    -28.157000   75.080600  161.567000
  H    -27.577000   76.001000  161.497000
  H    -27.548900   74.203500  161.885000
  C    -29.182700   75.393800  162.695000
  H    -29.607400   76.344500  162.504000
  H    -29.937000   74.703200  162.708000
  C    -28.476300   75.401900  164.053000
  H    -29.162100   75.184600  164.957000
  H    -27.582500   74.800300  164.184000
  H    -28.078700   76.422500  164.205000
  S    -29.850900   71.329700  156.906000
  C    -31.280300   70.333400  156.680000
  C    -32.124400   70.544400  157.751000
  C    -31.888700   71.792900  158.435000
  C    -30.710100   72.382000  158.038000
  H    -33.016000   69.947900  157.866000
  C    -33.011400   72.321000  159.340000
  H    -32.758100   73.098400  160.013000
  H    -33.274900   71.443100  159.990000
  C    -34.325100   72.746800  158.682000
  H    -35.141700   72.852100  159.434000
  H    -34.628300   71.902700  158.039000
  C    -34.121100   74.069100  157.813000
  H    -33.582000   74.818300  158.318000
  H    -35.039600   74.294400  157.426000
  H    -33.489400   73.842700  157.026000
  H    -28.023100   76.495400  159.130000
  H    -31.489800   69.407700  156.065000

 Total Charge           Charge          ....    0
 Multiplicity           Mult            ....    1
 Number of Electrons    NEL             ....  134
 Basis Dimension        Dim             ....  322

ORBITAL ENERGIES
----------------

  NO   OCC          E(Eh)            E(eV)
   0   2.0000     -88.969161     -2420.9739
   1   2.0000     -88.967012     -2420.9155
   2   2.0000     -10.334211      -281.2082
   3   2.0000     -10.328274      -281.0466
   4   2.0000     -10.322404      -280.8869
   5   2.0000     -10.320127      -280.8249
   6   2.0000     -10.305896      -280.4377
   7   2.0000     -10.304584      -280.4020
   8   2.0000     -10.304076      -280.3882
   9   2.0000     -10.296885      -280.1925
  10   2.0000     -10.292391      -280.0702
  11   2.0000     -10.290576      -280.0208
  12   2.0000     -10.289902      -280.0025
  13   2.0000     -10.284469      -279.8546
  14   2.0000     -10.279227      -279.7120
  15   2.0000     -10.257908      -279.1319
  16   2.0000      -8.083045      -219.9508
  17   2.0000      -8.081150      -219.8993
  18   2.0000      -6.041613      -164.4006
  19   2.0000      -6.039909      -164.3543
  20   2.0000      -6.037678      -164.2936
  21   2.0000      -6.035873      -164.2445
  22   2.0000      -6.033778      -164.1874
  23   2.0000      -6.031503      -164.1255
  24   2.0000      -1.002386       -27.2763
  25   2.0000      -0.980461       -26.6797
  26   2.0000      -0.912682       -24.8353
  27   2.0000      -0.903184       -24.5769
  28   2.0000      -0.867771       -23.6133
  29   2.0000      -0.846846       -23.0438
  30   2.0000      -0.840826       -22.8800
  31   2.0000      -0.812106       -22.0985
  32   2.0000      -0.784293       -21.3417
  33   2.0000      -0.770054       -20.9542
  34   2.0000      -0.709983       -19.3196
  35   2.0000      -0.700676       -19.0664
  36   2.0000      -0.690594       -18.7920
  37   2.0000      -0.654784       -17.8176
  38   2.0000      -0.638620       -17.3777
  39   2.0000      -0.615507       -16.7488
  40   2.0000      -0.594367       -16.1735
  41   2.0000      -0.571416       -15.5490
  42   2.0000      -0.564311       -15.3557
  43   2.0000      -0.549161       -14.9434
  44   2.0000      -0.535631       -14.5752
  45   2.0000      -0.516552       -14.0561
  46   2.0000      -0.514604       -14.0031
  47   2.0000      -0.509721       -13.8702
  48   2.0000      -0.500633       -13.6229
  49   2.0000      -0.497669       -13.5423
  50   2.0000      -0.491580       -13.3766
  51   2.0000      -0.480535       -13.0760
  52   2.0000      -0.464806       -12.6480
  53   2.0000      -0.464016       -12.6265
  54   2.0000      -0.458905       -12.4874
  55   2.0000      -0.452914       -12.3244
  56   2.0000      -0.445056       -12.1106
  57   2.0000      -0.436011       -11.8645
  58   2.0000      -0.431611       -11.7447
  59   2.0000      -0.425761       -11.5856
  60   2.0000      -0.422058       -11.4848
  61   2.0000      -0.418873       -11.3981
  62   2.0000      -0.409183       -11.1344
  63   2.0000      -0.341647        -9.2967
  64   2.0000      -0.328281        -8.9330
  65   2.0000      -0.325234        -8.8501
  66   2.0000      -0.302459        -8.2303
  67   0.0000       0.028782         0.7832
  68   0.0000       0.061682         1.6785
  69   0.0000       0.106200         2.8898
  70   0.0000       0.111256         3.0274
  71   0.0000       0.124353         3.3838

MULLIKEN ATOMIC CHARGES
-----------------------
   0 S :    0.105925
   1 C :   -0.104602
   2 C :   -0.109553
   3 C :    0.034993
   4 C :   -0.191746
   5 H :    0.045485
   6 C :    0.033502
   7 H :    0.017935
   8 H :    0.046530
   9 C :   -0.006239
  10 H :    0.022733
  11 H :    0.005816
  12 C :   -0.088930
  13 H :    0.048144
  14 H :    0.030339
  15 H :    0.026642
  16 S :    0.114477
  17 C :   -0.107262
  18 C :   -0.049719
  19 C :   -0.034892
  20 C :   -0.137701
  21 H :    0.023522
  22 C :    0.053197
  23 H :    0.014947
  24 H :    0.029969
  25 C :   -0.100127
  26 H :    0.037140
  27 H :    0.021052
  28 C :    0.028742
  29 H :    0.022361
  30 H :    0.016575
  31 H :    0.014325
  32 H :    0.055612
  33 H :    0.080807
Sum of atomic charges:   -0.0000000

LOEWDIN ATOMIC CHARGES
----------------------
   0 S :    0.393360
   1 C :   -0.199813
   2 C :   -0.065775
   3 C :   -0.057225
   4 C :   -0.189440
   5 H :    0.043659
   6 C :   -0.029369
   7 H :    0.028944
   8 H :    0.037465
   9 C :   -0.026921
  10 H :    0.023303
  11 H :    0.007533
  12 C :   -0.076350
  13 H :    0.036127
  14 H :    0.021716
  15 H :    0.027081
  16 S :    0.393442
  17 C :   -0.195099
  18 C :   -0.070208
  19 C :   -0.055767
  20 C :   -0.201727
  21 H :    0.026740
  22 C :   -0.035767
  23 H :    0.019680
  24 H :    0.037358
  25 C :   -0.035097
  26 H :    0.025823
  27 H :    0.019836
  28 C :   -0.045876
  29 H :    0.022498
  30 H :    0.014657
  31 H :    0.020944
  32 H :    0.034700
  33 H :    0.049568

  Mayer bond orders larger than 0.100000
B(  0-S ,  1-C ) :   1.1320 B(  0-S ,  4-C ) :   1.1394 B(  1-C ,  2-C ) :   1.6324
B(  1-C , 32-H ) :   0.9586 B(  2-C ,  3-C ) :   1.2215 B(  2-C ,  6-C ) :   1.0391
B(  3-C ,  4-C ) :   1.5984 B(  3-C ,  5-H ) :   0.9782 B(  4-C , 20-C ) :   1.0293
B(  6-C ,  7-H ) :   0.9429 B(  6-C ,  8-H ) :   0.9418 B(  6-C ,  9-C ) :   1.0608
B(  9-C , 10-H ) :   0.9559 B(  9-C , 11-H ) :   0.9633 B(  9-C , 12-C ) :   1.0655
B( 12-C , 13-H ) :   0.9759 B( 12-C , 14-H ) :   0.9776 B( 12-C , 15-H ) :   0.9770
B( 16-S , 17-C ) :   1.1342 B( 16-S , 20-C ) :   1.1256 B( 17-C , 18-C ) :   1.6471
B( 17-C , 33-H ) :   0.9563 B( 18-C , 19-C ) :   1.2252 B( 18-C , 21-H ) :   0.9792
B( 19-C , 20-C ) :   1.6189 B( 19-C , 22-C ) :   1.0411 B( 22-C , 23-H ) :   0.9399
B( 22-C , 24-H ) :   0.9311 B( 22-C , 25-C ) :   1.0800 B( 25-C , 26-H ) :   0.9569
B( 25-C , 27-H ) :   0.9541 B( 25-C , 28-C ) :   1.0614 B( 28-C , 29-H ) :   0.9773
B( 28-C , 30-H ) :   0.9745 B( 28-C , 31-H ) :   0.9728

Dispersion correction           -0.014407837
FINAL SINGLE POINT ENERGY     -1339.855575657466

DIPOLE MOMENT
-------------
                                X             Y             Z
Electronic contribution:     10.24830      -7.77238     -22.05582
Nuclear contribution   :    -10.46958       7.69163      22.66554
                        -----------------------------------------
Total Dipole Moment    :     -0.22128      -0.08075       0.60972
                        -----------------------------------------
Magnitude (a.u.)       :      0.65364
Magnitude (Debye)      :      1.66143

Rotational constants in cm-1:     0.019240     0.007863     0.007002
Rotational constants in MHz :   576.809319   235.734252   209.907829

                             ****ORCA TERMINATED NORMALLY****
TOTAL RUN TIME: 0 days 0 hours 0 minutes 31 seconds 989 msec
