                         Program Version 4.2.1 -  RELEASE  -
|  1> ! wB97X-D3 SP def2-SVP
|  2> %pal
|  3> nprocs 16
|  4> end
|  5>
|  6> * xyz 0 1
|  7> S 	 -107.721 	 53.2942 	 118.858
|  8> C 	 -107.983 	 51.5926 	 119.135
|  9> C 	 -106.809 	 50.8485 	 119.17
| 10> C 	 -105.654 	 51.6666 	 118.952
| 11> C 	 -105.972 	 52.9992 	 118.808
| 12> H 	 -104.594 	 51.3139 	 118.894
| 13> C 	 -106.735 	 49.4033 	 119.5
| 14> H 	 -105.754 	 48.9916 	 119.34
| 15> H 	 -107.516 	 48.8118 	 118.933
| 16> C 	 -107.108 	 49.2264 	 120.965
| 17> H 	 -106.224 	 49.6246 	 121.488
| 18> H 	 -108.051 	 49.8114 	 121.225
| 19> C 	 -107.295 	 47.7157 	 121.402
| 20> H 	 -106.381 	 47.1777 	 121.274
| 21> H 	 -107.473 	 47.7033 	 122.483
| 22> H 	 -108.162 	 47.1744 	 120.96
| 23> S 	 -104.827 	 55.2169 	 119.827
| 24> C 	 -103.715 	 56.159 	 118.894
| 25> C 	 -103.499 	 55.6149 	 117.663
| 26> C 	 -104.155 	 54.3225 	 117.505
| 27> C 	 -104.948 	 54.0404 	 118.614
| 28> H 	 -102.788 	 56.0405 	 116.953
| 29> C 	 -104.027 	 53.5079 	 116.179
| 30> H 	 -103.931 	 54.3222 	 115.47
| 31> H 	 -104.923 	 53.012 	 115.859
| 32> C 	 -102.862 	 52.4823 	 116.214
| 33> H 	 -102.881 	 51.8824 	 115.277
| 34> H 	 -103.204 	 51.6263 	 116.904
| 35> C 	 -101.479 	 52.9438 	 116.669
| 36> H 	 -101.045 	 53.6789 	 115.896
| 37> H 	 -100.766 	 52.1064 	 116.666
| 38> H 	 -101.585 	 53.4168 	 117.638
| 39> H 	 -108.869 	 51.0995 	 119.264
| 40> H 	 -103.254 	 57.0374 	 119.239
| 41> *
| 42>
| 43>                          ****END OF INPUT****

CARTESIAN COORDINATES (ANGSTROEM)
---------------------------------
  S    -107.721000   53.294200  118.858000
  C    -107.983000   51.592600  119.135000
  C    -106.809000   50.848500  119.170000
  C    -105.654000   51.666600  118.952000
  C    -105.972000   52.999200  118.808000
  H    -104.594000   51.313900  118.894000
  C    -106.735000   49.403300  119.500000
  H    -105.754000   48.991600  119.340000
  H    -107.516000   48.811800  118.933000
  C    -107.108000   49.226400  120.965000
  H    -106.224000   49.624600  121.488000
  H    -108.051000   49.811400  121.225000
  C    -107.295000   47.715700  121.402000
  H    -106.381000   47.177700  121.274000
  H    -107.473000   47.703300  122.483000
  H    -108.162000   47.174400  120.960000
  S    -104.827000   55.216900  119.827000
  C    -103.715000   56.159000  118.894000
  C    -103.499000   55.614900  117.663000
  C    -104.155000   54.322500  117.505000
  C    -104.948000   54.040400  118.614000
  H    -102.788000   56.040500  116.953000
  C    -104.027000   53.507900  116.179000
  H    -103.931000   54.322200  115.470000
  H    -104.923000   53.012000  115.859000
  C    -102.862000   52.482300  116.214000
  H    -102.881000   51.882400  115.277000
  H    -103.204000   51.626300  116.904000
  C    -101.479000   52.943800  116.669000
  H    -101.045000   53.678900  115.896000
  H    -100.766000   52.106400  116.666000
  H    -101.585000   53.416800  117.638000
  H    -108.869000   51.099500  119.264000
  H    -103.254000   57.037400  119.239000

 Total Charge           Charge          ....    0
 Multiplicity           Mult            ....    1
 Number of Electrons    NEL             ....  134
 Basis Dimension        Dim             ....  322

ORBITAL ENERGIES
----------------

  NO   OCC          E(Eh)            E(eV)
   0   2.0000     -88.971383     -2421.0344
   1   2.0000     -88.962618     -2420.7959
   2   2.0000     -10.327899      -281.0364
   3   2.0000     -10.320661      -280.8395
   4   2.0000     -10.310323      -280.5581
   5   2.0000     -10.306193      -280.4458
   6   2.0000     -10.305165      -280.4178
   7   2.0000     -10.297366      -280.2056
   8   2.0000     -10.295693      -280.1601
   9   2.0000     -10.294672      -280.1323
  10   2.0000     -10.294508      -280.1278
  11   2.0000     -10.293410      -280.0979
  12   2.0000     -10.292956      -280.0856
  13   2.0000     -10.290970      -280.0315
  14   2.0000     -10.284206      -279.8475
  15   2.0000     -10.280944      -279.7587
  16   2.0000      -8.085292      -220.0120
  17   2.0000      -8.078981      -219.8402
  18   2.0000      -6.043828      -164.4609
  19   2.0000      -6.040017      -164.3572
  20   2.0000      -6.037331      -164.2841
  21   2.0000      -6.035974      -164.2472
  22   2.0000      -6.033124      -164.1697
  23   2.0000      -6.029959      -164.0835
  24   2.0000      -1.008625       -27.4461
  25   2.0000      -0.985548       -26.8181
  26   2.0000      -0.913310       -24.8524
  27   2.0000      -0.901714       -24.5369
  28   2.0000      -0.867528       -23.6066
  29   2.0000      -0.846759       -23.0415
  30   2.0000      -0.842699       -22.9310
  31   2.0000      -0.815163       -22.1817
  32   2.0000      -0.783117       -21.3097
  33   2.0000      -0.772495       -21.0207
  34   2.0000      -0.706546       -19.2261
  35   2.0000      -0.693967       -18.8838
  36   2.0000      -0.686492       -18.6804
  37   2.0000      -0.662554       -18.0290
  38   2.0000      -0.640604       -17.4317
  39   2.0000      -0.614470       -16.7206
  40   2.0000      -0.591520       -16.0961
  41   2.0000      -0.576901       -15.6983
  42   2.0000      -0.559881       -15.2351
  43   2.0000      -0.549795       -14.9607
  44   2.0000      -0.539648       -14.6846
  45   2.0000      -0.517149       -14.0723
  46   2.0000      -0.513890       -13.9837
  47   2.0000      -0.510215       -13.8837
  48   2.0000      -0.502734       -13.6801
  49   2.0000      -0.498361       -13.5611
  50   2.0000      -0.482753       -13.1364
  51   2.0000      -0.482126       -13.1193
  52   2.0000      -0.473774       -12.8920
  53   2.0000      -0.467444       -12.7198
  54   2.0000      -0.457874       -12.4594
  55   2.0000      -0.447236       -12.1699
  56   2.0000      -0.443072       -12.0566
  57   2.0000      -0.437038       -11.8924
  58   2.0000      -0.432029       -11.7561
  59   2.0000      -0.426421       -11.6035
  60   2.0000      -0.424920       -11.5627
  61   2.0000      -0.421819       -11.4783
  62   2.0000      -0.399229       -10.8636
  63   2.0000      -0.342917        -9.3312
  64   2.0000      -0.329820        -8.9748
  65   2.0000      -0.326878        -8.8948
  66   2.0000      -0.298265        -8.1162
  67   0.0000       0.041468         1.1284
  68   0.0000       0.063330         1.7233
  69   0.0000       0.114600         3.1184
  70   0.0000       0.122198         3.3252
  71   0.0000       0.130094         3.5400

MULLIKEN ATOMIC CHARGES
-----------------------
   0 S :    0.136428
   1 C :   -0.083133
   2 C :   -0.080872
   3 C :    0.014757
   4 C :   -0.149224
   5 H :    0.033963
   6 C :    0.084861
   7 H :    0.016430
   8 H :    0.032507
   9 C :   -0.134148
  10 H :    0.033117
  11 H :    0.047665
  12 C :   -0.040788
  13 H :    0.026099
  14 H :    0.032239
  15 H :    0.041206
  16 S :    0.117357
  17 C :   -0.074055
  18 C :   -0.034392
  19 C :   -0.073492
  20 C :   -0.196187
  21 H :    0.025771
  22 C :    0.118164
  23 H :    0.018123
  24 H :    0.026581
  25 C :   -0.110192
  26 H :    0.028464
  27 H :    0.020934
  28 C :   -0.052194
  29 H :    0.036330
  30 H :    0.039641
  31 H :    0.056222
  32 H :    0.004098
  33 H :    0.037719
Sum of atomic charges:    0.0000000

LOEWDIN ATOMIC CHARGES
----------------------
   0 S :    0.407047
   1 C :   -0.188795
   2 C :   -0.058378
   3 C :   -0.063005
   4 C :   -0.193349
   5 H :    0.039527
   6 C :   -0.037489
   7 H :    0.026258
   8 H :    0.035086
   9 C :   -0.040370
  10 H :    0.027203
  11 H :    0.029686
  12 C :   -0.072659
  13 H :    0.019944
  14 H :    0.028309
  15 H :    0.028011
  16 S :    0.436676
  17 C :   -0.185445
  18 C :   -0.072008
  19 C :   -0.055984
  20 C :   -0.221619
  21 H :    0.033371
  22 C :   -0.026588
  23 H :    0.027968
  24 H :    0.031553
  25 C :   -0.053151
  26 H :    0.025193
  27 H :    0.026977
  28 C :   -0.071100
  29 H :    0.031021
  30 H :    0.029694
  31 H :    0.028403
  32 H :    0.008276
  33 H :    0.019739

  Mayer bond orders larger than 0.100000
B(  0-S ,  1-C ) :   1.1325 B(  0-S ,  4-C ) :   1.1472 B(  1-C ,  2-C ) :   1.6102
B(  1-C , 32-H ) :   0.9715 B(  2-C ,  3-C ) :   1.2401 B(  2-C ,  6-C ) :   1.0400
B(  3-C ,  4-C ) :   1.5908 B(  3-C ,  5-H ) :   0.9831 B(  4-C , 20-C ) :   1.0087
B(  6-C ,  7-H ) :   0.9405 B(  6-C ,  8-H ) :   0.9341 B(  6-C ,  9-C ) :   1.0537
B(  9-C , 10-H ) :   0.9545 B(  9-C , 11-H ) :   0.9618 B(  9-C , 12-C ) :   1.0767
B( 12-C , 13-H ) :   0.9732 B( 12-C , 14-H ) :   0.9746 B( 12-C , 15-H ) :   0.9758
B( 16-S , 17-C ) :   1.1572 B( 16-S , 20-C ) :   1.1708 B( 17-C , 18-C ) :   1.6102
B( 17-C , 33-H ) :   0.9751 B( 18-C , 19-C ) :   1.2444 B( 18-C , 21-H ) :   0.9845
B( 19-C , 20-C ) :   1.6013 B( 19-C , 22-C ) :   1.0142 B( 22-C , 23-H ) :   0.9414
B( 22-C , 24-H ) :   0.9371 B( 22-C , 25-C ) :   1.0641 B( 25-C , 26-H ) :   0.9538
B( 25-C , 27-H ) :   0.9500 B( 25-C , 28-C ) :   1.0764 B( 28-C , 29-H ) :   0.9739
B( 28-C , 30-H ) :   0.9714 B( 28-C , 31-H ) :   0.9679

Dispersion correction           -0.014674632
FINAL SINGLE POINT ENERGY     -1339.883242325663

DIPOLE MOMENT
-------------
                                X             Y             Z
Electronic contribution:     -9.34624      22.79773       3.39066
Nuclear contribution   :      9.63483     -23.22296      -3.55593
                        -----------------------------------------
Total Dipole Moment    :      0.28858      -0.42523      -0.16528
                        -----------------------------------------
Magnitude (a.u.)       :      0.53983
Magnitude (Debye)      :      1.37213

Rotational constants in cm-1:     0.020879     0.007788     0.006616
Rotational constants in MHz :   625.935938   233.486093   198.349342

                             ****ORCA TERMINATED NORMALLY****
TOTAL RUN TIME: 0 days 0 hours 0 minutes 33 seconds 309 msec
