                         Program Version 4.2.1 -  RELEASE  -
|  1> ! wB97X-D3 SP def2-SVP
|  2> %pal
|  3> nprocs 16
|  4> end
|  5>
|  6> * xyz 0 1
|  7> S 	 -34.7158 	 67.9895 	 170.282
|  8> C 	 -33.5697 	 68.8846 	 171.217
|  9> C 	 -34.1776 	 69.7914 	 172.046
| 10> C 	 -35.5641 	 69.8821 	 171.792
| 11> C 	 -35.9807 	 68.9383 	 170.895
| 12> H 	 -36.3278 	 70.6143 	 172.104
| 13> C 	 -33.4499 	 70.7555 	 172.975
| 14> H 	 -33.0472 	 71.5276 	 172.363
| 15> H 	 -32.697 	 70.3263 	 173.585
| 16> C 	 -34.3589 	 71.452 	 173.941
| 17> H 	 -34.9453 	 72.2521 	 173.417
| 18> H 	 -35.069 	 70.7314 	 174.289
| 19> C 	 -33.638 	 72.0271 	 175.162
| 20> H 	 -33.1568 	 71.196 	 175.765
| 21> H 	 -32.7515 	 72.6956 	 174.979
| 22> H 	 -34.4451 	 72.4469 	 175.895
| 23> S 	 -38.161 	 69.213 	 169.105
| 24> C 	 -39.6142 	 68.3338 	 169.532
| 25> C 	 -39.5619 	 67.6833 	 170.797
| 26> C 	 -38.2955 	 67.844 	 171.437
| 27> C 	 -37.3657 	 68.5043 	 170.584
| 28> H 	 -40.4825 	 67.209 	 171.293
| 29> C 	 -37.9563 	 67.3292 	 172.781
| 30> H 	 -36.9429 	 67.4136 	 172.891
| 31> H 	 -38.2192 	 66.2681 	 172.627
| 32> C 	 -38.7662 	 67.9513 	 173.955
| 33> H 	 -38.496 	 67.3771 	 174.888
| 34> H 	 -39.8652 	 67.7775 	 173.846
| 35> C 	 -38.4784 	 69.477 	 174.228
| 36> H 	 -38.9702 	 70.0355 	 173.417
| 37> H 	 -37.4042 	 69.5677 	 174.371
| 38> H 	 -38.9868 	 69.853 	 175.025
| 39> H 	 -32.5254 	 68.6119 	 171.182
| 40> H 	 -40.5916 	 68.4952 	 169.094
| 41> *
| 42>
| 43>                          ****END OF INPUT****

CARTESIAN COORDINATES (ANGSTROEM)
---------------------------------
  S    -34.715800   67.989500  170.282000
  C    -33.569700   68.884600  171.217000
  C    -34.177600   69.791400  172.046000
  C    -35.564100   69.882100  171.792000
  C    -35.980700   68.938300  170.895000
  H    -36.327800   70.614300  172.104000
  C    -33.449900   70.755500  172.975000
  H    -33.047200   71.527600  172.363000
  H    -32.697000   70.326300  173.585000
  C    -34.358900   71.452000  173.941000
  H    -34.945300   72.252100  173.417000
  H    -35.069000   70.731400  174.289000
  C    -33.638000   72.027100  175.162000
  H    -33.156800   71.196000  175.765000
  H    -32.751500   72.695600  174.979000
  H    -34.445100   72.446900  175.895000
  S    -38.161000   69.213000  169.105000
  C    -39.614200   68.333800  169.532000
  C    -39.561900   67.683300  170.797000
  C    -38.295500   67.844000  171.437000
  C    -37.365700   68.504300  170.584000
  H    -40.482500   67.209000  171.293000
  C    -37.956300   67.329200  172.781000
  H    -36.942900   67.413600  172.891000
  H    -38.219200   66.268100  172.627000
  C    -38.766200   67.951300  173.955000
  H    -38.496000   67.377100  174.888000
  H    -39.865200   67.777500  173.846000
  C    -38.478400   69.477000  174.228000
  H    -38.970200   70.035500  173.417000
  H    -37.404200   69.567700  174.371000
  H    -38.986800   69.853000  175.025000
  H    -32.525400   68.611900  171.182000
  H    -40.591600   68.495200  169.094000

 Total Charge           Charge          ....    0
 Multiplicity           Mult            ....    1
 Number of Electrons    NEL             ....  134
 Basis Dimension        Dim             ....  322

ORBITAL ENERGIES
----------------

  NO   OCC          E(Eh)            E(eV)
   0   2.0000     -88.968681     -2420.9609
   1   2.0000     -88.962347     -2420.7885
   2   2.0000     -10.327868      -281.0356
   3   2.0000     -10.320933      -280.8469
   4   2.0000     -10.318592      -280.7832
   5   2.0000     -10.308420      -280.5064
   6   2.0000     -10.305312      -280.4218
   7   2.0000     -10.302304      -280.3399
   8   2.0000     -10.299783      -280.2714
   9   2.0000     -10.298606      -280.2393
  10   2.0000     -10.294979      -280.1406
  11   2.0000     -10.291016      -280.0328
  12   2.0000     -10.285345      -279.8785
  13   2.0000     -10.284455      -279.8543
  14   2.0000     -10.282792      -279.8090
  15   2.0000     -10.274672      -279.5880
  16   2.0000      -8.081916      -219.9201
  17   2.0000      -8.078729      -219.8334
  18   2.0000      -6.040356      -164.3665
  19   2.0000      -6.036940      -164.2735
  20   2.0000      -6.036779      -164.2691
  21   2.0000      -6.032890      -164.1633
  22   2.0000      -6.032699      -164.1581
  23   2.0000      -6.029825      -164.0799
  24   2.0000      -1.009837       -27.4791
  25   2.0000      -0.976695       -26.5772
  26   2.0000      -0.919580       -25.0231
  27   2.0000      -0.906958       -24.6796
  28   2.0000      -0.862546       -23.4711
  29   2.0000      -0.848220       -23.0812
  30   2.0000      -0.846893       -23.0451
  31   2.0000      -0.808979       -22.0134
  32   2.0000      -0.786309       -21.3965
  33   2.0000      -0.769994       -20.9526
  34   2.0000      -0.708045       -19.2669
  35   2.0000      -0.697895       -18.9907
  36   2.0000      -0.683030       -18.5862
  37   2.0000      -0.652184       -17.7468
  38   2.0000      -0.644279       -17.5317
  39   2.0000      -0.617229       -16.7957
  40   2.0000      -0.592821       -16.1315
  41   2.0000      -0.578382       -15.7386
  42   2.0000      -0.559966       -15.2374
  43   2.0000      -0.554518       -15.0892
  44   2.0000      -0.537957       -14.6386
  45   2.0000      -0.524350       -14.2683
  46   2.0000      -0.522075       -14.2064
  47   2.0000      -0.509127       -13.8540
  48   2.0000      -0.494919       -13.4674
  49   2.0000      -0.490239       -13.3401
  50   2.0000      -0.483630       -13.1602
  51   2.0000      -0.475287       -12.9332
  52   2.0000      -0.474282       -12.9059
  53   2.0000      -0.463753       -12.6194
  54   2.0000      -0.457889       -12.4598
  55   2.0000      -0.454374       -12.3642
  56   2.0000      -0.442842       -12.0504
  57   2.0000      -0.441066       -12.0020
  58   2.0000      -0.429814       -11.6958
  59   2.0000      -0.428775       -11.6676
  60   2.0000      -0.423903       -11.5350
  61   2.0000      -0.414898       -11.2900
  62   2.0000      -0.411143       -11.1878
  63   2.0000      -0.336632        -9.1602
  64   2.0000      -0.328418        -8.9367
  65   2.0000      -0.318206        -8.6588
  66   2.0000      -0.303431        -8.2568
  67   0.0000       0.041280         1.1233
  68   0.0000       0.053501         1.4558
  69   0.0000       0.105157         2.8615
  70   0.0000       0.126195         3.4340
  71   0.0000       0.129675         3.5286

MULLIKEN ATOMIC CHARGES
-----------------------
   0 S :    0.126698
   1 C :   -0.128087
   2 C :   -0.090682
   3 C :    0.015442
   4 C :   -0.194324
   5 H :    0.030946
   6 C :    0.131517
   7 H :    0.034289
   8 H :    0.011602
   9 C :   -0.119947
  10 H :    0.038519
  11 H :    0.029693
  12 C :   -0.090539
  13 H :    0.031769
  14 H :    0.046656
  15 H :    0.053306
  16 S :    0.108968
  17 C :   -0.083824
  18 C :   -0.081708
  19 C :   -0.033475
  20 C :   -0.190829
  21 H :    0.049337
  22 C :    0.129443
  23 H :    0.007139
  24 H :    0.040402
  25 C :   -0.122995
  26 H :    0.037282
  27 H :    0.031146
  28 C :   -0.016521
  29 H :    0.040793
  30 H :    0.046167
  31 H :    0.008732
  32 H :    0.043997
  33 H :    0.059088
Sum of atomic charges:    0.0000000

LOEWDIN ATOMIC CHARGES
----------------------
   0 S :    0.443753
   1 C :   -0.200467
   2 C :   -0.063945
   3 C :   -0.071867
   4 C :   -0.220982
   5 H :    0.042549
   6 C :   -0.025770
   7 H :    0.034280
   8 H :    0.024380
   9 C :   -0.050801
  10 H :    0.027309
  11 H :    0.019840
  12 C :   -0.081497
  13 H :    0.027013
  14 H :    0.029228
  15 H :    0.040252
  16 S :    0.383271
  17 C :   -0.187844
  18 C :   -0.084874
  19 C :   -0.043925
  20 C :   -0.199448
  21 H :    0.044484
  22 C :   -0.026413
  23 H :    0.018912
  24 H :    0.044650
  25 C :   -0.037996
  26 H :    0.027440
  27 H :    0.022964
  28 C :   -0.059706
  29 H :    0.033123
  30 H :    0.027080
  31 H :    0.012507
  32 H :    0.024689
  33 H :    0.027811

  Mayer bond orders larger than 0.100000
B(  0-S ,  1-C ) :   1.1559 B(  0-S ,  4-C ) :   1.1932 B(  1-C ,  2-C ) :   1.6045
B(  1-C , 32-H ) :   0.9778 B(  2-C ,  3-C ) :   1.2370 B(  2-C ,  6-C ) :   1.0113
B(  3-C ,  4-C ) :   1.5761 B(  3-C ,  5-H ) :   0.9931 B(  4-C , 20-C ) :   0.9825
B(  6-C ,  7-H ) :   0.9237 B(  6-C ,  8-H ) :   0.9437 B(  6-C ,  9-C ) :   1.0938
B(  9-C , 10-H ) :   0.9395 B(  9-C , 11-H ) :   0.9546 B(  9-C , 12-C ) :   1.0853
B( 12-C , 13-H ) :   0.9693 B( 12-C , 14-H ) :   0.9731 B( 12-C , 15-H ) :   0.9711
B( 16-S , 17-C ) :   1.1661 B( 16-S , 20-C ) :   1.1304 B( 17-C , 18-C ) :   1.6012
B( 17-C , 20-C ) :   0.1069 B( 17-C , 33-H ) :   0.9623 B( 18-C , 19-C ) :   1.2495
B( 18-C , 21-H ) :   0.9723 B( 19-C , 20-C ) :   1.5779 B( 19-C , 22-C ) :   1.0366
B( 22-C , 23-H ) :   0.9276 B( 22-C , 24-H ) :   0.9301 B( 22-C , 25-C ) :   1.0633
B( 25-C , 26-H ) :   0.9583 B( 25-C , 27-H ) :   0.9593 B( 25-C , 28-C ) :   1.0689
B( 28-C , 29-H ) :   0.9712 B( 28-C , 30-H ) :   0.9730 B( 28-C , 31-H ) :   0.9687

Dispersion correction           -0.015699549
FINAL SINGLE POINT ENERGY     -1339.861058883209

DIPOLE MOMENT
-------------
                                X             Y             Z
Electronic contribution:     -1.44840     -10.04918     -28.43488
Nuclear contribution   :      1.35835      10.23005      29.16282
                        -----------------------------------------
Total Dipole Moment    :     -0.09005       0.18087       0.72794
                        -----------------------------------------
Magnitude (a.u.)       :      0.75546
Magnitude (Debye)      :      1.92024

Rotational constants in cm-1:     0.018683     0.009418     0.007415
Rotational constants in MHz :   560.098549   282.333475   222.296592

                             ****ORCA TERMINATED NORMALLY****
TOTAL RUN TIME: 0 days 0 hours 0 minutes 37 seconds 414 msec
