                         Program Version 4.2.1 -  RELEASE  -
|  1> ! wB97X-D3 SP def2-SVP
|  2> %pal
|  3> nprocs 16
|  4> end
|  5>
|  6> * xyz 0 1
|  7> S 	 2.84975 	 12.7091 	 88.0006
|  8> C 	 1.86266 	 13.9242 	 87.2365
|  9> C 	 2.57479 	 14.6129 	 86.2163
| 10> C 	 3.86362 	 14.0435 	 86.0128
| 11> C 	 4.18951 	 13.0599 	 86.8913
| 12> H 	 4.4978 	 14.3712 	 85.1935
| 13> C 	 2.00484 	 15.7627 	 85.2973
| 14> H 	 2.83008 	 16.0262 	 84.6413
| 15> H 	 1.73163 	 16.6303 	 85.9449
| 16> C 	 0.766612 	 15.2874 	 84.4646
| 17> H 	 1.01967 	 14.2746 	 84.1345
| 18> H 	 -0.0597991 	 15.1659 	 85.0937
| 19> C 	 0.362806 	 16.2095 	 83.2912
| 20> H 	 -0.0160313 	 17.1564 	 83.6472
| 21> H 	 1.16785 	 16.5427 	 82.6659
| 22> H 	 -0.407248 	 15.699 	 82.6145
| 23> S 	 5.49691 	 10.4996 	 87.1441
| 24> C 	 7.17095 	 10.3587 	 86.796
| 25> C 	 7.75158 	 11.5965 	 86.7207
| 26> C 	 6.78826 	 12.6024 	 86.7633
| 27> C 	 5.41977 	 12.2147 	 86.8238
| 28> H 	 8.80309 	 11.7085 	 86.728
| 29> C 	 7.13942 	 14.1017 	 86.7297
| 30> H 	 6.29375 	 14.5631 	 87.2745
| 31> H 	 7.07472 	 14.456 	 85.7089
| 32> C 	 8.42708 	 14.5397 	 87.3882
| 33> H 	 9.33764 	 13.953 	 87.0681
| 34> H 	 8.48294 	 14.3707 	 88.4523
| 35> C 	 8.67674 	 15.9692 	 87.1392
| 36> H 	 9.48736 	 16.1784 	 87.7678
| 37> H 	 7.88795 	 16.5661 	 87.4507
| 38> H 	 8.95507 	 16.2612 	 86.1663
| 39> H 	 0.937072 	 14.2491 	 87.6181
| 40> H 	 7.78528 	 9.50729 	 86.8041
| 41> *
| 42>
| 43>                          ****END OF INPUT****

CARTESIAN COORDINATES (ANGSTROEM)
---------------------------------
  S      2.849750   12.709100   88.000600
  C      1.862660   13.924200   87.236500
  C      2.574790   14.612900   86.216300
  C      3.863620   14.043500   86.012800
  C      4.189510   13.059900   86.891300
  H      4.497800   14.371200   85.193500
  C      2.004840   15.762700   85.297300
  H      2.830080   16.026200   84.641300
  H      1.731630   16.630300   85.944900
  C      0.766612   15.287400   84.464600
  H      1.019670   14.274600   84.134500
  H     -0.059799   15.165900   85.093700
  C      0.362806   16.209500   83.291200
  H     -0.016031   17.156400   83.647200
  H      1.167850   16.542700   82.665900
  H     -0.407248   15.699000   82.614500
  S      5.496910   10.499600   87.144100
  C      7.170950   10.358700   86.796000
  C      7.751580   11.596500   86.720700
  C      6.788260   12.602400   86.763300
  C      5.419770   12.214700   86.823800
  H      8.803090   11.708500   86.728000
  C      7.139420   14.101700   86.729700
  H      6.293750   14.563100   87.274500
  H      7.074720   14.456000   85.708900
  C      8.427080   14.539700   87.388200
  H      9.337640   13.953000   87.068100
  H      8.482940   14.370700   88.452300
  C      8.676740   15.969200   87.139200
  H      9.487360   16.178400   87.767800
  H      7.887950   16.566100   87.450700
  H      8.955070   16.261200   86.166300
  H      0.937072   14.249100   87.618100
  H      7.785280    9.507290   86.804100

 Total Charge           Charge          ....    0
 Multiplicity           Mult            ....    1
 Number of Electrons    NEL             ....  134
 Basis Dimension        Dim             ....  322

ORBITAL ENERGIES
----------------

  NO   OCC          E(Eh)            E(eV)
   0   2.0000     -88.971409     -2421.0351
   1   2.0000     -88.965182     -2420.8657
   2   2.0000     -10.336003      -281.2570
   3   2.0000     -10.328770      -281.0601
   4   2.0000     -10.316340      -280.7219
   5   2.0000     -10.310212      -280.5551
   6   2.0000     -10.308050      -280.4963
   7   2.0000     -10.302752      -280.3521
   8   2.0000     -10.298978      -280.2494
   9   2.0000     -10.295042      -280.1423
  10   2.0000     -10.286518      -279.9104
  11   2.0000     -10.284877      -279.8657
  12   2.0000     -10.283567      -279.8301
  13   2.0000     -10.282884      -279.8115
  14   2.0000     -10.280794      -279.7546
  15   2.0000     -10.257380      -279.1175
  16   2.0000      -8.085623      -220.0210
  17   2.0000      -8.080158      -219.8723
  18   2.0000      -6.044212      -164.4714
  19   2.0000      -6.040135      -164.3604
  20   2.0000      -6.038568      -164.3178
  21   2.0000      -6.036406      -164.2590
  22   2.0000      -6.034603      -164.2099
  23   2.0000      -6.031026      -164.1126
  24   2.0000      -1.006764       -27.3954
  25   2.0000      -0.987140       -26.8615
  26   2.0000      -0.915031       -24.8993
  27   2.0000      -0.902866       -24.5682
  28   2.0000      -0.868431       -23.6312
  29   2.0000      -0.855604       -23.2822
  30   2.0000      -0.848376       -23.0855
  31   2.0000      -0.817988       -22.2586
  32   2.0000      -0.780232       -21.2312
  33   2.0000      -0.768594       -20.9145
  34   2.0000      -0.708829       -19.2882
  35   2.0000      -0.702736       -19.1224
  36   2.0000      -0.699573       -19.0363
  37   2.0000      -0.652290       -17.7497
  38   2.0000      -0.642422       -17.4812
  39   2.0000      -0.624099       -16.9826
  40   2.0000      -0.597112       -16.2483
  41   2.0000      -0.569678       -15.5017
  42   2.0000      -0.566889       -15.4258
  43   2.0000      -0.562646       -15.3104
  44   2.0000      -0.533039       -14.5047
  45   2.0000      -0.522604       -14.2208
  46   2.0000      -0.517688       -14.0870
  47   2.0000      -0.514228       -13.9929
  48   2.0000      -0.506707       -13.7882
  49   2.0000      -0.499550       -13.5935
  50   2.0000      -0.494220       -13.4484
  51   2.0000      -0.478208       -13.0127
  52   2.0000      -0.471787       -12.8380
  53   2.0000      -0.467781       -12.7290
  54   2.0000      -0.462674       -12.5900
  55   2.0000      -0.455269       -12.3885
  56   2.0000      -0.445020       -12.1096
  57   2.0000      -0.438205       -11.9242
  58   2.0000      -0.434614       -11.8265
  59   2.0000      -0.426016       -11.5925
  60   2.0000      -0.421097       -11.4586
  61   2.0000      -0.412227       -11.2173
  62   2.0000      -0.403651       -10.9839
  63   2.0000      -0.354140        -9.6366
  64   2.0000      -0.334532        -9.1031
  65   2.0000      -0.327014        -8.8985
  66   2.0000      -0.286622        -7.7994
  67   0.0000       0.024765         0.6739
  68   0.0000       0.070184         1.9098
  69   0.0000       0.108094         2.9414
  70   0.0000       0.132193         3.5972
  71   0.0000       0.140261         3.8167

MULLIKEN ATOMIC CHARGES
-----------------------
   0 S :    0.118813
   1 C :   -0.107406
   2 C :   -0.112747
   3 C :    0.006906
   4 C :   -0.142031
   5 H :    0.021102
   6 C :    0.062085
   7 H :    0.017832
   8 H :    0.046712
   9 C :   -0.059842
  10 H :    0.035716
  11 H :    0.019729
  12 C :   -0.053543
  13 H :    0.023033
  14 H :    0.022336
  15 H :    0.050840
  16 S :    0.109144
  17 C :   -0.057787
  18 C :   -0.025478
  19 C :   -0.064706
  20 C :   -0.125818
  21 H :    0.005047
  22 C :    0.051597
  23 H :    0.040071
  24 H :    0.034189
  25 C :   -0.101674
  26 H :    0.021797
  27 H :    0.023417
  28 C :    0.038648
  29 H :    0.006177
  30 H :    0.007998
  31 H :    0.017467
  32 H :    0.035871
  33 H :    0.034504
Sum of atomic charges:    0.0000000

LOEWDIN ATOMIC CHARGES
----------------------
   0 S :    0.405698
   1 C :   -0.195034
   2 C :   -0.057818
   3 C :   -0.064289
   4 C :   -0.182765
   5 H :    0.035364
   6 C :   -0.026001
   7 H :    0.025554
   8 H :    0.035065
   9 C :   -0.036986
  10 H :    0.027272
  11 H :    0.016040
  12 C :   -0.070454
  13 H :    0.022328
  14 H :    0.019937
  15 H :    0.038530
  16 S :    0.426586
  17 C :   -0.183788
  18 C :   -0.075697
  19 C :   -0.055660
  20 C :   -0.212775
  21 H :    0.027206
  22 C :   -0.037310
  23 H :    0.036203
  24 H :    0.027800
  25 C :   -0.044732
  26 H :    0.023968
  27 H :    0.024576
  28 C :   -0.049286
  29 H :    0.023669
  30 H :    0.017342
  31 H :    0.018768
  32 H :    0.017250
  33 H :    0.023441

  Mayer bond orders larger than 0.100000
B(  0-S ,  1-C ) :   1.1513 B(  0-S ,  4-C ) :   1.1423 B(  1-C ,  2-C ) :   1.5818
B(  1-C , 32-H ) :   0.9746 B(  2-C ,  3-C ) :   1.2703 B(  2-C ,  6-C ) :   1.0181
B(  3-C ,  4-C ) :   1.5633 B(  3-C ,  5-H ) :   0.9884 B(  4-C , 20-C ) :   1.0567
B(  6-C ,  7-H ) :   0.9466 B(  6-C ,  8-H ) :   0.9399 B(  6-C ,  9-C ) :   1.0567
B(  9-C , 10-H ) :   0.9611 B(  9-C , 11-H ) :   0.9551 B(  9-C , 12-C ) :   1.0785
B( 12-C , 13-H ) :   0.9733 B( 12-C , 14-H ) :   0.9769 B( 12-C , 15-H ) :   0.9752
B( 16-S , 17-C ) :   1.1940 B( 16-S , 20-C ) :   1.1377 B( 17-C , 18-C ) :   1.5439
B( 17-C , 20-C ) :   0.1058 B( 17-C , 33-H ) :   0.9685 B( 18-C , 19-C ) :   1.3120
B( 18-C , 21-H ) :   1.0000 B( 19-C , 20-C ) :   1.5250 B( 19-C , 22-C ) :   1.0228
B( 22-C , 23-H ) :   0.9280 B( 22-C , 24-H ) :   0.9404 B( 22-C , 25-C ) :   1.0751
B( 25-C , 26-H ) :   0.9443 B( 25-C , 27-H ) :   0.9537 B( 25-C , 28-C ) :   1.1029
B( 28-C , 29-H ) :   0.9652 B( 28-C , 30-H ) :   0.9671 B( 28-C , 31-H ) :   0.9713

Dispersion correction           -0.013379808
FINAL SINGLE POINT ENERGY     -1339.866911002426

DIPOLE MOMENT
-------------
                                X             Y             Z
Electronic contribution:     -2.17439     -24.90661      12.33739
Nuclear contribution   :      2.38467      25.49605     -12.54409
                        -----------------------------------------
Total Dipole Moment    :      0.21027       0.58944      -0.20669
                        -----------------------------------------
Magnitude (a.u.)       :      0.65908
Magnitude (Debye)      :      1.67524

Rotational constants in cm-1:     0.018210     0.007539     0.006072
Rotational constants in MHz :   545.911871   226.018471   182.046628

                             ****ORCA TERMINATED NORMALLY****
TOTAL RUN TIME: 0 days 0 hours 0 minutes 35 seconds 309 msec
