                         Program Version 4.2.1 -  RELEASE  -
|  1> ! wB97X-D3 SP def2-SVP
|  2> %pal
|  3> nprocs 16
|  4> end
|  5>
|  6> * xyz 0 1
|  7> S 	 38.93 	 26.4737 	 82.2441
|  8> C 	 38.0716 	 26.8081 	 83.7728
|  9> C 	 38.9351 	 26.9881 	 84.8448
| 10> C 	 40.3303 	 26.7503 	 84.461
| 11> C 	 40.4498 	 26.4361 	 83.1075
| 12> H 	 41.1984 	 26.8763 	 85.1158
| 13> C 	 38.5682 	 27.5424 	 86.1729
| 14> H 	 39.4447 	 27.2668 	 86.7988
| 15> H 	 37.7032 	 27.1359 	 86.7069
| 16> C 	 38.3536 	 29.0877 	 86.2912
| 17> H 	 39.2028 	 29.6076 	 85.8371
| 18> H 	 37.4557 	 29.3724 	 85.6775
| 19> C 	 38.182 	 29.6115 	 87.7617
| 20> H 	 37.809 	 30.5947 	 87.6877
| 21> H 	 37.4708 	 29.039 	 88.4664
| 22> H 	 39.1853 	 29.5213 	 88.2303
| 23> S 	 41.794 	 26.9462 	 80.7028
| 24> C 	 43.5624 	 26.9028 	 80.6646
| 25> C 	 44.0236 	 26.3052 	 81.8134
| 26> C 	 42.999 	 26.2114 	 82.8549
| 27> C 	 41.7143 	 26.43 	 82.3935
| 28> H 	 45.0356 	 26.1907 	 81.8845
| 29> C 	 43.5772 	 25.8541 	 84.1997
| 30> H 	 44.3769 	 25.0823 	 84.0144
| 31> H 	 42.8734 	 25.3375 	 84.7967
| 32> C 	 44.1966 	 27.0128 	 84.9673
| 33> H 	 43.3665 	 27.7323 	 84.91
| 34> H 	 45.0494 	 27.4289 	 84.3738
| 35> C 	 44.5046 	 26.6871 	 86.4195
| 36> H 	 45.0892 	 27.5209 	 86.8558
| 37> H 	 45.1845 	 25.8172 	 86.3704
| 38> H 	 43.6597 	 26.4172 	 87.0101
| 39> H 	 37.042 	 27.0546 	 83.8178
| 40> H 	 44.2156 	 26.9771 	 79.7631
| 41> *
| 42>
| 43>                          ****END OF INPUT****

CARTESIAN COORDINATES (ANGSTROEM)
---------------------------------
  S     38.930000   26.473700   82.244100
  C     38.071600   26.808100   83.772800
  C     38.935100   26.988100   84.844800
  C     40.330300   26.750300   84.461000
  C     40.449800   26.436100   83.107500
  H     41.198400   26.876300   85.115800
  C     38.568200   27.542400   86.172900
  H     39.444700   27.266800   86.798800
  H     37.703200   27.135900   86.706900
  C     38.353600   29.087700   86.291200
  H     39.202800   29.607600   85.837100
  H     37.455700   29.372400   85.677500
  C     38.182000   29.611500   87.761700
  H     37.809000   30.594700   87.687700
  H     37.470800   29.039000   88.466400
  H     39.185300   29.521300   88.230300
  S     41.794000   26.946200   80.702800
  C     43.562400   26.902800   80.664600
  C     44.023600   26.305200   81.813400
  C     42.999000   26.211400   82.854900
  C     41.714300   26.430000   82.393500
  H     45.035600   26.190700   81.884500
  C     43.577200   25.854100   84.199700
  H     44.376900   25.082300   84.014400
  H     42.873400   25.337500   84.796700
  C     44.196600   27.012800   84.967300
  H     43.366500   27.732300   84.910000
  H     45.049400   27.428900   84.373800
  C     44.504600   26.687100   86.419500
  H     45.089200   27.520900   86.855800
  H     45.184500   25.817200   86.370400
  H     43.659700   26.417200   87.010100
  H     37.042000   27.054600   83.817800
  H     44.215600   26.977100   79.763100

 Total Charge           Charge          ....    0
 Multiplicity           Mult            ....    1
 Number of Electrons    NEL             ....  134
 Basis Dimension        Dim             ....  322

ORBITAL ENERGIES
----------------

  NO   OCC          E(Eh)            E(eV)
   0   2.0000     -88.971430     -2421.0357
   1   2.0000     -88.963774     -2420.8274
   2   2.0000     -10.335312      -281.2381
   3   2.0000     -10.332016      -281.1484
   4   2.0000     -10.320932      -280.8468
   5   2.0000     -10.316036      -280.7136
   6   2.0000     -10.307932      -280.4931
   7   2.0000     -10.304911      -280.4109
   8   2.0000     -10.302980      -280.3583
   9   2.0000     -10.296294      -280.1764
  10   2.0000     -10.295760      -280.1619
  11   2.0000     -10.290615      -280.0219
  12   2.0000     -10.289758      -279.9985
  13   2.0000     -10.289141      -279.9818
  14   2.0000     -10.288934      -279.9761
  15   2.0000     -10.283721      -279.8343
  16   2.0000      -8.085561      -220.0193
  17   2.0000      -8.078069      -219.8154
  18   2.0000      -6.044227      -164.4718
  19   2.0000      -6.040300      -164.3649
  20   2.0000      -6.036894      -164.2722
  21   2.0000      -6.036056      -164.2494
  22   2.0000      -6.032697      -164.1580
  23   2.0000      -6.028458      -164.0427
  24   2.0000      -1.004603       -27.3366
  25   2.0000      -0.979575       -26.6556
  26   2.0000      -0.915671       -24.9167
  27   2.0000      -0.908615       -24.7247
  28   2.0000      -0.870080       -23.6761
  29   2.0000      -0.853422       -23.2228
  30   2.0000      -0.844986       -22.9932
  31   2.0000      -0.815847       -22.2003
  32   2.0000      -0.781619       -21.2689
  33   2.0000      -0.773605       -21.0509
  34   2.0000      -0.707248       -19.2452
  35   2.0000      -0.700500       -19.0616
  36   2.0000      -0.692435       -18.8421
  37   2.0000      -0.667714       -18.1694
  38   2.0000      -0.638962       -17.3871
  39   2.0000      -0.623391       -16.9633
  40   2.0000      -0.594798       -16.1853
  41   2.0000      -0.572134       -15.5686
  42   2.0000      -0.569559       -15.4985
  43   2.0000      -0.558692       -15.2028
  44   2.0000      -0.527326       -14.3493
  45   2.0000      -0.525933       -14.3114
  46   2.0000      -0.518930       -14.1208
  47   2.0000      -0.513217       -13.9653
  48   2.0000      -0.508223       -13.8295
  49   2.0000      -0.497701       -13.5431
  50   2.0000      -0.492163       -13.3924
  51   2.0000      -0.484944       -13.1960
  52   2.0000      -0.472350       -12.8533
  53   2.0000      -0.464424       -12.6376
  54   2.0000      -0.461070       -12.5463
  55   2.0000      -0.450323       -12.2539
  56   2.0000      -0.443441       -12.0666
  57   2.0000      -0.438201       -11.9241
  58   2.0000      -0.434236       -11.8162
  59   2.0000      -0.429662       -11.6917
  60   2.0000      -0.420775       -11.4499
  61   2.0000      -0.413467       -11.2510
  62   2.0000      -0.408969       -11.1286
  63   2.0000      -0.362238        -9.8570
  64   2.0000      -0.334113        -9.0917
  65   2.0000      -0.324699        -8.8355
  66   2.0000      -0.285707        -7.7745
  67   0.0000       0.018958         0.5159
  68   0.0000       0.072862         1.9827
  69   0.0000       0.099456         2.7063
  70   0.0000       0.111445         3.0326
  71   0.0000       0.124179         3.3791

MULLIKEN ATOMIC CHARGES
-----------------------
   0 S :    0.100546
   1 C :   -0.101736
   2 C :   -0.055438
   3 C :   -0.015362
   4 C :   -0.100439
   5 H :    0.011580
   6 C :    0.031566
   7 H :    0.018908
   8 H :    0.033566
   9 C :   -0.092893
  10 H :    0.034596
  11 H :    0.033789
  12 C :   -0.069165
  13 H :    0.039853
  14 H :    0.041470
  15 H :    0.042497
  16 S :    0.079244
  17 C :   -0.102089
  18 C :    0.000231
  19 C :   -0.079928
  20 C :   -0.088213
  21 H :   -0.007039
  22 C :    0.027595
  23 H :    0.028928
  24 H :    0.007892
  25 C :   -0.081764
  26 H :    0.023743
  27 H :    0.036618
  28 C :   -0.018161
  29 H :    0.045863
  30 H :    0.025475
  31 H :    0.033206
  32 H :    0.038030
  33 H :    0.077030
Sum of atomic charges:   -0.0000000

LOEWDIN ATOMIC CHARGES
----------------------
   0 S :    0.393640
   1 C :   -0.179310
   2 C :   -0.056614
   3 C :   -0.061489
   4 C :   -0.181899
   5 H :    0.032271
   6 C :   -0.043655
   7 H :    0.031211
   8 H :    0.032667
   9 C :   -0.038970
  10 H :    0.024909
  11 H :    0.024181
  12 C :   -0.070543
  13 H :    0.022431
  14 H :    0.032147
  15 H :    0.029801
  16 S :    0.376341
  17 C :   -0.183336
  18 C :   -0.057342
  19 C :   -0.055964
  20 C :   -0.187904
  21 H :    0.015370
  22 C :   -0.039375
  23 H :    0.033891
  24 H :    0.016754
  25 C :   -0.044605
  26 H :    0.020456
  27 H :    0.029852
  28 C :   -0.062206
  29 H :    0.034010
  30 H :    0.027822
  31 H :    0.021940
  32 H :    0.020995
  33 H :    0.042525

  Mayer bond orders larger than 0.100000
B(  0-S ,  1-C ) :   1.1171 B(  0-S ,  4-C ) :   1.1438 B(  1-C ,  2-C ) :   1.6266
B(  1-C , 32-H ) :   0.9728 B(  2-C ,  3-C ) :   1.2263 B(  2-C ,  6-C ) :   1.0352
B(  3-C ,  4-C ) :   1.5668 B(  3-C ,  5-H ) :   0.9816 B(  4-C , 20-C ) :   1.0834
B(  6-C ,  7-H ) :   0.9403 B(  6-C ,  8-H ) :   0.9421 B(  6-C ,  9-C ) :   1.0541
B(  9-C , 10-H ) :   0.9564 B(  9-C , 11-H ) :   0.9588 B(  9-C , 12-C ) :   1.0679
B( 12-C , 13-H ) :   0.9750 B( 12-C , 14-H ) :   0.9762 B( 12-C , 15-H ) :   0.9767
B( 16-S , 17-C ) :   1.1339 B( 16-S , 20-C ) :   1.1043 B( 17-C , 18-C ) :   1.6539
B( 17-C , 33-H ) :   0.9555 B( 18-C , 19-C ) :   1.2091 B( 18-C , 21-H ) :   0.9951
B( 19-C , 20-C ) :   1.6200 B( 19-C , 22-C ) :   1.0538 B( 22-C , 23-H ) :   0.9269
B( 22-C , 24-H ) :   0.9327 B( 22-C , 25-C ) :   1.0570 B( 25-C , 26-H ) :   0.9519
B( 25-C , 27-H ) :   0.9498 B( 25-C , 28-C ) :   1.0834 B( 28-C , 29-H ) :   0.9725
B( 28-C , 30-H ) :   0.9712 B( 28-C , 31-H ) :   0.9731

Dispersion correction           -0.013915005
FINAL SINGLE POINT ENERGY     -1339.870217559208

DIPOLE MOMENT
-------------
                                X             Y             Z
Electronic contribution:     -6.04808      -8.31337     -30.28675
Nuclear contribution   :      6.39533       8.57021      30.93427
                        -----------------------------------------
Total Dipole Moment    :      0.34726       0.25684       0.64752
                        -----------------------------------------
Magnitude (a.u.)       :      0.77835
Magnitude (Debye)      :      1.97842

Rotational constants in cm-1:     0.016768     0.009098     0.006428
Rotational constants in MHz :   502.704718   272.750670   192.716367

                             ****ORCA TERMINATED NORMALLY****
TOTAL RUN TIME: 0 days 0 hours 0 minutes 30 seconds 84 msec
