                         Program Version 4.2.1 -  RELEASE  -
|  1> ! wB97X-D3 SP def2-SVP
|  2> %pal
|  3> nprocs 16
|  4> end
|  5>
|  6> * xyz 0 1
|  7> S 	 -35.6938 	 33.0197 	 44.4466
|  8> C 	 -35.3443 	 32.432 	 46.0493
|  9> C 	 -34.2973 	 33.1008 	 46.6829
| 10> C 	 -33.5786 	 33.9836 	 45.7722
| 11> C 	 -34.2485 	 34.069 	 44.5669
| 12> H 	 -32.8125 	 34.6868 	 45.9971
| 13> C 	 -33.8325 	 32.8788 	 48.1231
| 14> H 	 -34.1914 	 31.8994 	 48.4585
| 15> H 	 -34.3965 	 33.6092 	 48.7294
| 16> C 	 -32.3132 	 32.9772 	 48.4328
| 17> H 	 -31.7884 	 33.7904 	 47.9514
| 18> H 	 -32.2736 	 33.1087 	 49.5424
| 19> C 	 -31.4489 	 31.7823 	 48.1709
| 20> H 	 -31.8281 	 30.8848 	 48.6595
| 21> H 	 -31.4931 	 31.612 	 47.1268
| 22> H 	 -30.4592 	 31.896 	 48.5705
| 23> S 	 -34.9835 	 36.5171 	 43.4711
| 24> C 	 -34.1875 	 37.0199 	 41.9975
| 25> C 	 -33.2176 	 36.1898 	 41.6714
| 26> C 	 -33.0179 	 35.125 	 42.5645
| 27> C 	 -33.983 	 35.0614 	 43.5676
| 28> H 	 -32.6625 	 36.3844 	 40.7818
| 29> C 	 -31.8048 	 34.1993 	 42.3758
| 30> H 	 -31.6563 	 34.1154 	 41.316
| 31> H 	 -32.0168 	 33.1536 	 42.7352
| 32> C 	 -30.5234 	 34.6484 	 43.0165
| 33> H 	 -30.4256 	 35.7341 	 43.0358
| 34> H 	 -29.6893 	 34.3024 	 42.4207
| 35> C 	 -30.3505 	 34.3001 	 44.4597
| 36> H 	 -30.9448 	 34.8967 	 45.0985
| 37> H 	 -29.3442 	 34.6513 	 44.6769
| 38> H 	 -30.4737 	 33.251 	 44.8182
| 39> H 	 -36.0081 	 31.7129 	 46.5988
| 40> H 	 -34.5057 	 37.9422 	 41.5014
| 41> *
| 42>
| 43>                          ****END OF INPUT****

CARTESIAN COORDINATES (ANGSTROEM)
---------------------------------
  S    -35.693800   33.019700   44.446600
  C    -35.344300   32.432000   46.049300
  C    -34.297300   33.100800   46.682900
  C    -33.578600   33.983600   45.772200
  C    -34.248500   34.069000   44.566900
  H    -32.812500   34.686800   45.997100
  C    -33.832500   32.878800   48.123100
  H    -34.191400   31.899400   48.458500
  H    -34.396500   33.609200   48.729400
  C    -32.313200   32.977200   48.432800
  H    -31.788400   33.790400   47.951400
  H    -32.273600   33.108700   49.542400
  C    -31.448900   31.782300   48.170900
  H    -31.828100   30.884800   48.659500
  H    -31.493100   31.612000   47.126800
  H    -30.459200   31.896000   48.570500
  S    -34.983500   36.517100   43.471100
  C    -34.187500   37.019900   41.997500
  C    -33.217600   36.189800   41.671400
  C    -33.017900   35.125000   42.564500
  C    -33.983000   35.061400   43.567600
  H    -32.662500   36.384400   40.781800
  C    -31.804800   34.199300   42.375800
  H    -31.656300   34.115400   41.316000
  H    -32.016800   33.153600   42.735200
  C    -30.523400   34.648400   43.016500
  H    -30.425600   35.734100   43.035800
  H    -29.689300   34.302400   42.420700
  C    -30.350500   34.300100   44.459700
  H    -30.944800   34.896700   45.098500
  H    -29.344200   34.651300   44.676900
  H    -30.473700   33.251000   44.818200
  H    -36.008100   31.712900   46.598800
  H    -34.505700   37.942200   41.501400

 Total Charge           Charge          ....    0
 Multiplicity           Mult            ....    1
 Number of Electrons    NEL             ....  134
 Basis Dimension        Dim             ....  322

ORBITAL ENERGIES
----------------

  NO   OCC          E(Eh)            E(eV)
   0   2.0000     -88.968352     -2420.9519
   1   2.0000     -88.958133     -2420.6739
   2   2.0000     -10.327841      -281.0348
   3   2.0000     -10.321604      -280.8651
   4   2.0000     -10.317211      -280.7456
   5   2.0000     -10.310393      -280.5600
   6   2.0000     -10.305594      -280.4295
   7   2.0000     -10.299722      -280.2697
   8   2.0000     -10.297754      -280.2161
   9   2.0000     -10.296063      -280.1701
  10   2.0000     -10.287780      -279.9447
  11   2.0000     -10.287615      -279.9402
  12   2.0000     -10.281340      -279.7695
  13   2.0000     -10.280077      -279.7351
  14   2.0000     -10.271415      -279.4994
  15   2.0000     -10.268811      -279.4286
  16   2.0000      -8.082476      -219.9353
  17   2.0000      -8.073209      -219.6832
  18   2.0000      -6.040946      -164.3825
  19   2.0000      -6.037204      -164.2807
  20   2.0000      -6.033173      -164.1710
  21   2.0000      -6.031668      -164.1300
  22   2.0000      -6.027712      -164.0224
  23   2.0000      -6.023963      -163.9204
  24   2.0000      -1.005384       -27.3579
  25   2.0000      -0.981685       -26.7130
  26   2.0000      -0.913017       -24.8445
  27   2.0000      -0.909965       -24.7614
  28   2.0000      -0.873815       -23.7777
  29   2.0000      -0.850576       -23.1454
  30   2.0000      -0.849288       -23.1103
  31   2.0000      -0.817822       -22.2541
  32   2.0000      -0.785477       -21.3739
  33   2.0000      -0.771986       -21.0068
  34   2.0000      -0.709967       -19.3192
  35   2.0000      -0.692100       -18.8330
  36   2.0000      -0.686348       -18.6765
  37   2.0000      -0.655704       -17.8426
  38   2.0000      -0.641351       -17.4520
  39   2.0000      -0.621854       -16.9215
  40   2.0000      -0.601676       -16.3724
  41   2.0000      -0.567453       -15.4412
  42   2.0000      -0.557395       -15.1675
  43   2.0000      -0.555763       -15.1231
  44   2.0000      -0.541902       -14.7459
  45   2.0000      -0.534929       -14.5561
  46   2.0000      -0.520724       -14.1696
  47   2.0000      -0.515604       -14.0303
  48   2.0000      -0.497978       -13.5507
  49   2.0000      -0.497087       -13.5264
  50   2.0000      -0.493503       -13.4289
  51   2.0000      -0.478134       -13.0107
  52   2.0000      -0.471752       -12.8370
  53   2.0000      -0.466881       -12.7045
  54   2.0000      -0.454668       -12.3721
  55   2.0000      -0.450143       -12.2490
  56   2.0000      -0.440280       -11.9806
  57   2.0000      -0.438030       -11.9194
  58   2.0000      -0.432417       -11.7667
  59   2.0000      -0.424725       -11.5573
  60   2.0000      -0.422231       -11.4895
  61   2.0000      -0.409542       -11.1442
  62   2.0000      -0.408998       -11.1294
  63   2.0000      -0.342495        -9.3198
  64   2.0000      -0.327954        -8.9241
  65   2.0000      -0.320906        -8.7323
  66   2.0000      -0.302657        -8.2357
  67   0.0000       0.039964         1.0875
  68   0.0000       0.057676         1.5695
  69   0.0000       0.116299         3.1647
  70   0.0000       0.121271         3.2999
  71   0.0000       0.129791         3.5318

MULLIKEN ATOMIC CHARGES
-----------------------
   0 S :    0.124892
   1 C :   -0.131346
   2 C :   -0.104626
   3 C :    0.051750
   4 C :   -0.169627
   5 H :    0.016097
   6 C :    0.074108
   7 H :    0.015737
   8 H :    0.047776
   9 C :   -0.100124
  10 H :    0.029738
  11 H :    0.028921
  12 C :   -0.016830
  13 H :    0.014399
  14 H :    0.028045
  15 H :    0.034985
  16 S :    0.093689
  17 C :   -0.096825
  18 C :   -0.010200
  19 C :   -0.024341
  20 C :   -0.197236
  21 H :    0.005781
  22 C :    0.089085
  23 H :    0.011220
  24 H :    0.033792
  25 C :   -0.052278
  26 H :    0.019918
  27 H :    0.025992
  28 C :   -0.031657
  29 H :    0.002566
  30 H :    0.018892
  31 H :    0.043181
  32 H :    0.062751
  33 H :    0.061775
Sum of atomic charges:    0.0000000

LOEWDIN ATOMIC CHARGES
----------------------
   0 S :    0.397723
   1 C :   -0.211133
   2 C :   -0.063066
   3 C :   -0.048766
   4 C :   -0.181926
   5 H :    0.027599
   6 C :   -0.032896
   7 H :    0.029909
   8 H :    0.039934
   9 C :   -0.044753
  10 H :    0.021462
  11 H :    0.030040
  12 C :   -0.059535
  13 H :    0.021837
  14 H :    0.020226
  15 H :    0.026959
  16 S :    0.387014
  17 C :   -0.175478
  18 C :   -0.078468
  19 C :   -0.051670
  20 C :   -0.203121
  21 H :    0.030838
  22 C :   -0.031842
  23 H :    0.026559
  24 H :    0.036704
  25 C :   -0.042397
  26 H :    0.028801
  27 H :    0.024695
  28 C :   -0.063798
  29 H :    0.013299
  30 H :    0.029118
  31 H :    0.026954
  32 H :    0.036280
  33 H :    0.032900

  Mayer bond orders larger than 0.100000
B(  0-S ,  1-C ) :   1.1293 B(  0-S ,  4-C ) :   1.1381 B(  1-C ,  2-C ) :   1.6463
B(  1-C , 32-H ) :   0.9576 B(  2-C ,  3-C ) :   1.2085 B(  2-C ,  6-C ) :   1.0148
B(  3-C ,  4-C ) :   1.6165 B(  3-C ,  5-H ) :   0.9831 B(  4-C , 20-C ) :   1.0478
B(  6-C ,  7-H ) :   0.9443 B(  6-C ,  8-H ) :   0.9325 B(  6-C ,  9-C ) :   1.0688
B(  9-C , 10-H ) :   0.9540 B(  9-C , 11-H ) :   0.9526 B(  9-C , 12-C ) :   1.0904
B( 12-C , 13-H ) :   0.9687 B( 12-C , 14-H ) :   0.9754 B( 12-C , 15-H ) :   0.9717
B( 16-S , 17-C ) :   1.1460 B( 16-S , 20-C ) :   1.1389 B( 17-C , 18-C ) :   1.6200
B( 17-C , 33-H ) :   0.9650 B( 18-C , 19-C ) :   1.2367 B( 18-C , 21-H ) :   0.9977
B( 19-C , 20-C ) :   1.5978 B( 19-C , 22-C ) :   1.0487 B( 22-C , 23-H ) :   0.9294
B( 22-C , 24-H ) :   0.9329 B( 22-C , 25-C ) :   1.0723 B( 25-C , 26-H ) :   0.9495
B( 25-C , 27-H ) :   0.9549 B( 25-C , 28-C ) :   1.0895 B( 28-C , 29-H ) :   0.9716
B( 28-C , 30-H ) :   0.9615 B( 28-C , 31-H ) :   0.9729

Dispersion correction           -0.015697522
FINAL SINGLE POINT ENERGY     -1339.878506867995

DIPOLE MOMENT
-------------
                                X             Y             Z
Electronic contribution:    -24.62869       8.61699     -13.37268
Nuclear contribution   :     25.15617      -8.58512      13.58416
                        -----------------------------------------
Total Dipole Moment    :      0.52748       0.03187       0.21148
                        -----------------------------------------
Magnitude (a.u.)       :      0.56919
Magnitude (Debye)      :      1.44676

Rotational constants in cm-1:     0.018980     0.009814     0.007496
Rotational constants in MHz :   569.016461   294.214782   224.716402

                             ****ORCA TERMINATED NORMALLY****
TOTAL RUN TIME: 0 days 0 hours 0 minutes 33 seconds 659 msec
