                         Program Version 4.2.1 -  RELEASE  -
|  1> ! wB97X-D3 SP def2-SVP
|  2> %pal
|  3> nprocs 16
|  4> end
|  5>
|  6> * xyz 0 1
|  7> S 	 -82.4928 	 41.0342 	 129.906
|  8> C 	 -82.1947 	 40.0166 	 131.341
|  9> C 	 -83.3649 	 39.4854 	 131.83
| 10> C 	 -84.4943 	 40.1448 	 131.269
| 11> C 	 -84.1808 	 40.973 	 130.214
| 12> H 	 -85.5171 	 39.9735 	 131.507
| 13> C 	 -83.542 	 38.5846 	 133.038
| 14> H 	 -82.5415 	 38.4324 	 133.483
| 15> H 	 -83.7812 	 37.5968 	 132.671
| 16> C 	 -84.537 	 39.0446 	 134.142
| 17> H 	 -85.5109 	 38.7946 	 133.838
| 18> H 	 -84.3969 	 38.4898 	 135.049
| 19> C 	 -84.4954 	 40.5409 	 134.573
| 20> H 	 -83.49 	 40.779 	 134.731
| 21> H 	 -84.8394 	 41.2829 	 133.876
| 22> H 	 -85.1177 	 40.5339 	 135.463
| 23> S 	 -84.9438 	 41.6867 	 127.645
| 24> C 	 -86.3472 	 42.7088 	 127.326
| 25> C 	 -86.9093 	 43.0014 	 128.578
| 26> C 	 -86.2555 	 42.4664 	 129.732
| 27> C 	 -85.1851 	 41.7245 	 129.415
| 28> H 	 -87.752 	 43.6277 	 128.503
| 29> C 	 -86.7523 	 42.7468 	 131.116
| 30> H 	 -86.2599 	 43.6988 	 131.358
| 31> H 	 -86.3515 	 42.0426 	 131.833
| 32> C 	 -88.3026 	 42.9103 	 131.225
| 33> H 	 -88.8354 	 42.3316 	 130.463
| 34> H 	 -88.5248 	 43.9631 	 131.01
| 35> C 	 -88.8089 	 42.2986 	 132.57
| 36> H 	 -89.8704 	 42.2061 	 132.481
| 37> H 	 -88.6045 	 42.948 	 133.408
| 38> H 	 -88.4944 	 41.2663 	 132.744
| 39> H 	 -81.2265 	 39.7901 	 131.646
| 40> H 	 -86.8535 	 43.093 	 126.415
| 41> *
| 42>
| 43>                          ****END OF INPUT****

CARTESIAN COORDINATES (ANGSTROEM)
---------------------------------
  S    -82.492800   41.034200  129.906000
  C    -82.194700   40.016600  131.341000
  C    -83.364900   39.485400  131.830000
  C    -84.494300   40.144800  131.269000
  C    -84.180800   40.973000  130.214000
  H    -85.517100   39.973500  131.507000
  C    -83.542000   38.584600  133.038000
  H    -82.541500   38.432400  133.483000
  H    -83.781200   37.596800  132.671000
  C    -84.537000   39.044600  134.142000
  H    -85.510900   38.794600  133.838000
  H    -84.396900   38.489800  135.049000
  C    -84.495400   40.540900  134.573000
  H    -83.490000   40.779000  134.731000
  H    -84.839400   41.282900  133.876000
  H    -85.117700   40.533900  135.463000
  S    -84.943800   41.686700  127.645000
  C    -86.347200   42.708800  127.326000
  C    -86.909300   43.001400  128.578000
  C    -86.255500   42.466400  129.732000
  C    -85.185100   41.724500  129.415000
  H    -87.752000   43.627700  128.503000
  C    -86.752300   42.746800  131.116000
  H    -86.259900   43.698800  131.358000
  H    -86.351500   42.042600  131.833000
  C    -88.302600   42.910300  131.225000
  H    -88.835400   42.331600  130.463000
  H    -88.524800   43.963100  131.010000
  C    -88.808900   42.298600  132.570000
  H    -89.870400   42.206100  132.481000
  H    -88.604500   42.948000  133.408000
  H    -88.494400   41.266300  132.744000
  H    -81.226500   39.790100  131.646000
  H    -86.853500   43.093000  126.415000

 Total Charge           Charge          ....    0
 Multiplicity           Mult            ....    1
 Number of Electrons    NEL             ....  134
 Basis Dimension        Dim             ....  322

ORBITAL ENERGIES
----------------

  NO   OCC          E(Eh)            E(eV)
   0   2.0000     -88.967457     -2420.9276
   1   2.0000     -88.961158     -2420.7562
   2   2.0000     -10.328571      -281.0547
   3   2.0000     -10.324776      -280.9514
   4   2.0000     -10.320884      -280.8455
   5   2.0000     -10.312064      -280.6055
   6   2.0000     -10.302088      -280.3341
   7   2.0000     -10.298022      -280.2234
   8   2.0000     -10.294813      -280.1361
   9   2.0000     -10.292730      -280.0794
  10   2.0000     -10.289677      -279.9964
  11   2.0000     -10.288882      -279.9747
  12   2.0000     -10.288255      -279.9577
  13   2.0000     -10.285986      -279.8959
  14   2.0000     -10.279768      -279.7267
  15   2.0000     -10.272191      -279.5205
  16   2.0000      -8.082211      -219.9282
  17   2.0000      -8.074988      -219.7316
  18   2.0000      -6.040704      -164.3759
  19   2.0000      -6.036810      -164.2700
  20   2.0000      -6.033754      -164.1868
  21   2.0000      -6.032890      -164.1633
  22   2.0000      -6.029548      -164.0724
  23   2.0000      -6.025589      -163.9646
  24   2.0000      -1.006697       -27.3936
  25   2.0000      -0.983387       -26.7593
  26   2.0000      -0.910400       -24.7733
  27   2.0000      -0.905712       -24.6457
  28   2.0000      -0.867640       -23.6097
  29   2.0000      -0.852120       -23.1874
  30   2.0000      -0.842135       -22.9156
  31   2.0000      -0.815769       -22.1982
  32   2.0000      -0.786162       -21.3926
  33   2.0000      -0.776578       -21.1317
  34   2.0000      -0.711226       -19.3534
  35   2.0000      -0.705595       -19.2002
  36   2.0000      -0.699053       -19.0222
  37   2.0000      -0.654272       -17.8037
  38   2.0000      -0.643997       -17.5240
  39   2.0000      -0.623677       -16.9711
  40   2.0000      -0.590996       -16.0818
  41   2.0000      -0.567029       -15.4297
  42   2.0000      -0.561710       -15.2849
  43   2.0000      -0.557473       -15.1696
  44   2.0000      -0.546701       -14.8765
  45   2.0000      -0.528249       -14.3744
  46   2.0000      -0.522886       -14.2284
  47   2.0000      -0.508691       -13.8422
  48   2.0000      -0.504099       -13.7172
  49   2.0000      -0.496779       -13.5180
  50   2.0000      -0.495634       -13.4869
  51   2.0000      -0.482823       -13.1383
  52   2.0000      -0.475599       -12.9417
  53   2.0000      -0.462996       -12.5988
  54   2.0000      -0.457890       -12.4598
  55   2.0000      -0.451737       -12.2924
  56   2.0000      -0.441055       -12.0017
  57   2.0000      -0.436584       -11.8800
  58   2.0000      -0.432539       -11.7700
  59   2.0000      -0.430029       -11.7017
  60   2.0000      -0.424120       -11.5409
  61   2.0000      -0.419286       -11.4093
  62   2.0000      -0.404736       -11.0134
  63   2.0000      -0.348665        -9.4877
  64   2.0000      -0.333283        -9.0691
  65   2.0000      -0.325452        -8.8560
  66   2.0000      -0.291022        -7.9191
  67   0.0000       0.033856         0.9213
  68   0.0000       0.072363         1.9691
  69   0.0000       0.108803         2.9607
  70   0.0000       0.123480         3.3601
  71   0.0000       0.125487         3.4147

MULLIKEN ATOMIC CHARGES
-----------------------
   0 S :    0.115851
   1 C :   -0.118152
   2 C :   -0.058524
   3 C :   -0.004722
   4 C :   -0.122277
   5 H :    0.006848
   6 C :    0.085491
   7 H :    0.013677
   8 H :    0.035301
   9 C :   -0.075757
  10 H :    0.012800
  11 H :    0.026981
  12 C :   -0.023676
  13 H :    0.019213
  14 H :    0.037900
  15 H :    0.036107
  16 S :    0.084195
  17 C :   -0.094272
  18 C :   -0.060429
  19 C :   -0.035258
  20 C :   -0.155971
  21 H :   -0.002332
  22 C :    0.109354
  23 H :    0.043061
  24 H :    0.000627
  25 C :   -0.110433
  26 H :    0.039008
  27 H :    0.040395
  28 C :   -0.035200
  29 H :    0.021488
  30 H :    0.039099
  31 H :    0.036680
  32 H :    0.022846
  33 H :    0.070081
Sum of atomic charges:    0.0000000

LOEWDIN ATOMIC CHARGES
----------------------
   0 S :    0.407106
   1 C :   -0.175264
   2 C :   -0.056532
   3 C :   -0.064582
   4 C :   -0.196607
   5 H :    0.025364
   6 C :   -0.032024
   7 H :    0.029393
   8 H :    0.034437
   9 C :   -0.034556
  10 H :    0.012923
  11 H :    0.027068
  12 C :   -0.055221
  13 H :    0.019508
  14 H :    0.021766
  15 H :    0.030290
  16 S :    0.375117
  17 C :   -0.192298
  18 C :   -0.071861
  19 C :   -0.064982
  20 C :   -0.179811
  21 H :    0.019808
  22 C :   -0.029807
  23 H :    0.042433
  24 H :    0.022994
  25 C :   -0.039087
  26 H :    0.025570
  27 H :    0.027364
  28 C :   -0.061695
  29 H :    0.022700
  30 H :    0.024323
  31 H :    0.028064
  32 H :    0.012164
  33 H :    0.045933

  Mayer bond orders larger than 0.100000
B(  0-S ,  1-C ) :   1.1271 B(  0-S ,  4-C ) :   1.1596 B(  1-C ,  2-C ) :   1.6097
B(  1-C , 32-H ) :   0.9781 B(  2-C ,  3-C ) :   1.2189 B(  2-C ,  6-C ) :   1.0279
B(  3-C ,  4-C ) :   1.5836 B(  3-C ,  5-H ) :   0.9959 B(  4-C , 20-C ) :   1.0091
B(  6-C ,  7-H ) :   0.9429 B(  6-C ,  8-H ) :   0.9301 B(  6-C ,  9-C ) :   1.0685
B(  9-C , 10-H ) :   0.9505 B(  9-C , 11-H ) :   0.9570 B(  9-C , 12-C ) :   1.0782
B( 12-C , 13-H ) :   0.9747 B( 12-C , 14-H ) :   0.9718 B( 12-C , 15-H ) :   0.9745
B( 16-S , 17-C ) :   1.1356 B( 16-S , 20-C ) :   1.1173 B( 17-C , 18-C ) :   1.6397
B( 17-C , 33-H ) :   0.9609 B( 18-C , 19-C ) :   1.2009 B( 18-C , 21-H ) :   0.9935
B( 19-C , 20-C ) :   1.6554 B( 19-C , 22-C ) :   1.0380 B( 22-C , 23-H ) :   0.9162
B( 22-C , 24-H ) :   0.9420 B( 22-C , 25-C ) :   1.0444 B( 25-C , 26-H ) :   0.9695
B( 25-C , 27-H ) :   0.9507 B( 25-C , 28-C ) :   1.0803 B( 28-C , 29-H ) :   0.9753
B( 28-C , 30-H ) :   0.9764 B( 28-C , 31-H ) :   0.9740

Dispersion correction           -0.014975428
FINAL SINGLE POINT ENERGY     -1339.869944780363

DIPOLE MOMENT
-------------
                                X             Y             Z
Electronic contribution:     16.38783       1.18981     -26.69256
Nuclear contribution   :    -16.90224      -1.22960      27.36878
                        -----------------------------------------
Total Dipole Moment    :     -0.51441      -0.03980       0.67621
                        -----------------------------------------
Magnitude (a.u.)       :      0.85057
Magnitude (Debye)      :      2.16197

Rotational constants in cm-1:     0.016334     0.010886     0.006961
Rotational constants in MHz :   489.681403   326.352216   208.686377

                             ****ORCA TERMINATED NORMALLY****
TOTAL RUN TIME: 0 days 0 hours 0 minutes 34 seconds 522 msec
