                         Program Version 4.2.1 -  RELEASE  -
|  1> ! wB97X-D3 SP def2-SVP
|  2> %pal
|  3> nprocs 16
|  4> end
|  5>
|  6> * xyz 0 1
|  7> S 	 -73.0354 	 51.609 	 137.062
|  8> C 	 -73.2644 	 53.3468 	 137.473
|  9> C 	 -73.9872 	 53.9721 	 136.516
| 10> C 	 -74.4838 	 53.0863 	 135.516
| 11> C 	 -74.1043 	 51.7745 	 135.717
| 12> H 	 -75.1094 	 53.2962 	 134.684
| 13> C 	 -74.1485 	 55.5097 	 136.436
| 14> H 	 -74.423 	 55.804 	 135.418
| 15> H 	 -73.1089 	 55.9478 	 136.565
| 16> C 	 -74.9355 	 56.1948 	 137.565
| 17> H 	 -74.4862 	 56.0047 	 138.57
| 18> H 	 -74.8618 	 57.3051 	 137.361
| 19> C 	 -76.3754 	 55.7575 	 137.773
| 20> H 	 -76.992 	 55.7978 	 136.865
| 21> H 	 -76.3568 	 54.718 	 138.072
| 22> H 	 -76.7413 	 56.483 	 138.444
| 23> S 	 -73.3835 	 49.4262 	 134.616
| 24> C 	 -74.5759 	 48.4302 	 133.732
| 25> C 	 -75.7916 	 49.0204 	 133.628
| 26> C 	 -75.8488 	 50.2681 	 134.36
| 27> C 	 -74.6311 	 50.5719 	 134.995
| 28> H 	 -76.569 	 48.5663 	 132.992
| 29> C 	 -77.1477 	 51.0048 	 134.537
| 30> H 	 -77.8266 	 50.3173 	 134.064
| 31> H 	 -77.1684 	 51.8563 	 133.942
| 32> C 	 -77.6373 	 51.2594 	 135.944
| 33> H 	 -78.5572 	 51.7571 	 135.824
| 34> H 	 -76.9701 	 51.9419 	 136.458
| 35> C 	 -77.8246 	 49.997 	 136.824
| 36> H 	 -78.3881 	 49.267 	 136.231
| 37> H 	 -78.3899 	 50.2718 	 137.703
| 38> H 	 -76.8635 	 49.5707 	 137.143
| 39> H 	 -72.7705 	 53.835 	 138.318
| 40> H 	 -74.3092 	 47.6186 	 133.113
| 41> *
| 42>
| 43>                          ****END OF INPUT****

CARTESIAN COORDINATES (ANGSTROEM)
---------------------------------
  S    -73.035400   51.609000  137.062000
  C    -73.264400   53.346800  137.473000
  C    -73.987200   53.972100  136.516000
  C    -74.483800   53.086300  135.516000
  C    -74.104300   51.774500  135.717000
  H    -75.109400   53.296200  134.684000
  C    -74.148500   55.509700  136.436000
  H    -74.423000   55.804000  135.418000
  H    -73.108900   55.947800  136.565000
  C    -74.935500   56.194800  137.565000
  H    -74.486200   56.004700  138.570000
  H    -74.861800   57.305100  137.361000
  C    -76.375400   55.757500  137.773000
  H    -76.992000   55.797800  136.865000
  H    -76.356800   54.718000  138.072000
  H    -76.741300   56.483000  138.444000
  S    -73.383500   49.426200  134.616000
  C    -74.575900   48.430200  133.732000
  C    -75.791600   49.020400  133.628000
  C    -75.848800   50.268100  134.360000
  C    -74.631100   50.571900  134.995000
  H    -76.569000   48.566300  132.992000
  C    -77.147700   51.004800  134.537000
  H    -77.826600   50.317300  134.064000
  H    -77.168400   51.856300  133.942000
  C    -77.637300   51.259400  135.944000
  H    -78.557200   51.757100  135.824000
  H    -76.970100   51.941900  136.458000
  C    -77.824600   49.997000  136.824000
  H    -78.388100   49.267000  136.231000
  H    -78.389900   50.271800  137.703000
  H    -76.863500   49.570700  137.143000
  H    -72.770500   53.835000  138.318000
  H    -74.309200   47.618600  133.113000

 Total Charge           Charge          ....    0
 Multiplicity           Mult            ....    1
 Number of Electrons    NEL             ....  134
 Basis Dimension        Dim             ....  322

ORBITAL ENERGIES
----------------

  NO   OCC          E(Eh)            E(eV)
   0   2.0000     -88.966749     -2420.9083
   1   2.0000     -88.964522     -2420.8477
   2   2.0000     -10.331165      -281.1253
   3   2.0000     -10.330059      -281.0952
   4   2.0000     -10.315631      -280.7026
   5   2.0000     -10.313310      -280.6394
   6   2.0000     -10.305666      -280.4314
   7   2.0000     -10.302674      -280.3500
   8   2.0000     -10.299438      -280.2620
   9   2.0000     -10.297217      -280.2015
  10   2.0000     -10.293558      -280.1020
  11   2.0000     -10.291020      -280.0329
  12   2.0000     -10.280687      -279.7517
  13   2.0000     -10.276124      -279.6276
  14   2.0000     -10.272829      -279.5379
  15   2.0000     -10.270715      -279.4804
  16   2.0000      -8.081242      -219.9018
  17   2.0000      -8.079240      -219.8473
  18   2.0000      -6.039819      -164.3518
  19   2.0000      -6.037726      -164.2949
  20   2.0000      -6.035824      -164.2431
  21   2.0000      -6.033856      -164.1896
  22   2.0000      -6.031896      -164.1362
  23   2.0000      -6.029916      -164.0824
  24   2.0000      -1.006174       -27.3794
  25   2.0000      -0.983080       -26.7510
  26   2.0000      -0.911922       -24.8146
  27   2.0000      -0.908823       -24.7303
  28   2.0000      -0.870464       -23.6865
  29   2.0000      -0.846337       -23.0300
  30   2.0000      -0.843535       -22.9538
  31   2.0000      -0.817546       -22.2465
  32   2.0000      -0.785696       -21.3799
  33   2.0000      -0.775518       -21.1029
  34   2.0000      -0.709298       -19.3010
  35   2.0000      -0.694564       -18.9000
  36   2.0000      -0.685916       -18.6647
  37   2.0000      -0.663883       -18.0652
  38   2.0000      -0.639866       -17.4116
  39   2.0000      -0.611155       -16.6304
  40   2.0000      -0.589290       -16.0354
  41   2.0000      -0.575178       -15.6514
  42   2.0000      -0.559713       -15.2306
  43   2.0000      -0.551623       -15.0104
  44   2.0000      -0.548279       -14.9194
  45   2.0000      -0.537399       -14.6234
  46   2.0000      -0.518491       -14.1089
  47   2.0000      -0.508316       -13.8320
  48   2.0000      -0.499632       -13.5957
  49   2.0000      -0.497162       -13.5285
  50   2.0000      -0.484275       -13.1778
  51   2.0000      -0.481474       -13.1016
  52   2.0000      -0.476074       -12.9546
  53   2.0000      -0.466957       -12.7065
  54   2.0000      -0.458483       -12.4760
  55   2.0000      -0.447696       -12.1824
  56   2.0000      -0.441545       -12.0151
  57   2.0000      -0.435913       -11.8618
  58   2.0000      -0.430606       -11.7174
  59   2.0000      -0.420920       -11.4538
  60   2.0000      -0.419832       -11.4242
  61   2.0000      -0.414540       -11.2802
  62   2.0000      -0.412391       -11.2217
  63   2.0000      -0.353522        -9.6198
  64   2.0000      -0.333223        -9.0674
  65   2.0000      -0.329102        -8.9553
  66   2.0000      -0.290603        -7.9077
  67   0.0000       0.025601         0.6967
  68   0.0000       0.072505         1.9730
  69   0.0000       0.093105         2.5335
  70   0.0000       0.126316         3.4372
  71   0.0000       0.126995         3.4557

MULLIKEN ATOMIC CHARGES
-----------------------
   0 S :    0.100407
   1 C :   -0.142687
   2 C :   -0.056702
   3 C :    0.018606
   4 C :   -0.124691
   5 H :   -0.005769
   6 C :    0.055107
   7 H :    0.025845
   8 H :    0.041634
   9 C :   -0.124078
  10 H :    0.033284
  11 H :    0.039026
  12 C :   -0.023004
  13 H :    0.020771
  14 H :    0.046859
  15 H :    0.031331
  16 S :    0.085068
  17 C :   -0.061905
  18 C :   -0.046881
  19 C :   -0.091651
  20 C :   -0.131723
  21 H :    0.035403
  22 C :    0.111945
  23 H :   -0.005833
  24 H :    0.016738
  25 C :   -0.051043
  26 H :    0.014374
  27 H :    0.036898
  28 C :   -0.047006
  29 H :    0.023065
  30 H :    0.032971
  31 H :    0.048820
  32 H :    0.054047
  33 H :    0.040774
Sum of atomic charges:   -0.0000000

LOEWDIN ATOMIC CHARGES
----------------------
   0 S :    0.390959
   1 C :   -0.183141
   2 C :   -0.065347
   3 C :   -0.068010
   4 C :   -0.195374
   5 H :    0.026820
   6 C :   -0.035739
   7 H :    0.028540
   8 H :    0.041960
   9 C :   -0.048212
  10 H :    0.027385
  11 H :    0.029022
  12 C :   -0.063974
  13 H :    0.021714
  14 H :    0.027716
  15 H :    0.024070
  16 S :    0.392236
  17 C :   -0.167346
  18 C :   -0.070202
  19 C :   -0.056922
  20 C :   -0.195385
  21 H :    0.040872
  22 C :   -0.030459
  23 H :    0.027056
  24 H :    0.022162
  25 C :   -0.033798
  26 H :    0.019158
  27 H :    0.023151
  28 C :   -0.058606
  29 H :    0.022241
  30 H :    0.025615
  31 H :    0.030094
  32 H :    0.031273
  33 H :    0.020473

  Mayer bond orders larger than 0.100000
B(  0-S ,  1-C ) :   1.1146 B(  0-S ,  4-C ) :   1.1600 B(  1-C ,  2-C ) :   1.6354
B(  1-C , 32-H ) :   0.9705 B(  2-C ,  3-C ) :   1.2109 B(  2-C ,  6-C ) :   0.9999
B(  3-C ,  4-C ) :   1.5830 B(  3-C ,  5-H ) :   1.0099 B(  4-C , 20-C ) :   1.0029
B(  6-C ,  7-H ) :   0.9494 B(  6-C ,  8-H ) :   0.9430 B(  6-C ,  9-C ) :   1.0710
B(  9-C , 10-H ) :   0.9565 B(  9-C , 11-H ) :   0.9561 B(  9-C , 12-C ) :   1.0735
B( 12-C , 13-H ) :   0.9765 B( 12-C , 14-H ) :   0.9712 B( 12-C , 15-H ) :   0.9732
B( 16-S , 17-C ) :   1.1350 B( 16-S , 20-C ) :   1.1457 B( 17-C , 18-C ) :   1.6530
B( 17-C , 33-H ) :   0.9657 B( 18-C , 19-C ) :   1.2292 B( 18-C , 21-H ) :   0.9803
B( 19-C , 20-C ) :   1.6037 B( 19-C , 22-C ) :   1.0304 B( 22-C , 23-H ) :   0.9262
B( 22-C , 24-H ) :   0.9188 B( 22-C , 25-C ) :   1.0902 B( 25-C , 26-H ) :   0.9502
B( 25-C , 27-H ) :   0.9488 B( 25-C , 28-C ) :   1.0775 B( 28-C , 29-H ) :   0.9779
B( 28-C , 30-H ) :   0.9744 B( 28-C , 31-H ) :   0.9740

Dispersion correction           -0.015512690
FINAL SINGLE POINT ENERGY     -1339.880599623092

DIPOLE MOMENT
-------------
                                X             Y             Z
Electronic contribution:     20.80683     -16.72418      -6.60062
Nuclear contribution   :    -21.29493      17.20137       6.39070
                        -----------------------------------------
Total Dipole Moment    :     -0.48810       0.47719      -0.20993
                        -----------------------------------------
Magnitude (a.u.)       :      0.71415
Magnitude (Debye)      :      1.81524

Rotational constants in cm-1:     0.021303     0.009169     0.007347
Rotational constants in MHz :   638.636323   274.891413   220.243309

                             ****ORCA TERMINATED NORMALLY****
TOTAL RUN TIME: 0 days 0 hours 0 minutes 36 seconds 685 msec
