                         Program Version 4.2.1 -  RELEASE  -
|  1> ! wB97X-D3 SP def2-SVP
|  2> %pal
|  3> nprocs 16
|  4> end
|  5>
|  6> * xyz 0 1
|  7> S 	 -94.8473 	 38.7101 	 124.167
|  8> C 	 -93.4961 	 37.7047 	 124.29
|  9> C 	 -93.0694 	 37.3055 	 123.076
| 10> C 	 -93.9681 	 37.7392 	 122.021
| 11> C 	 -94.937 	 38.6286 	 122.403
| 12> H 	 -93.9238 	 37.3241 	 121.037
| 13> C 	 -91.8731 	 36.4494 	 122.796
| 14> H 	 -91.8848 	 35.9267 	 121.883
| 15> H 	 -91.9421 	 35.6332 	 123.449
| 16> C 	 -90.5518 	 37.2011 	 122.834
| 17> H 	 -89.8692 	 36.5884 	 122.223
| 18> H 	 -90.7821 	 38.1586 	 122.283
| 19> C 	 -89.9971 	 37.421 	 124.22
| 20> H 	 -90.4668 	 38.2487 	 124.865
| 21> H 	 -89.9444 	 36.5295 	 124.79
| 22> H 	 -88.999 	 37.706 	 124.14
| 23> S 	 -97.6216 	 38.8945 	 122.174
| 24> C 	 -98.1819 	 39.807 	 120.87
| 25> C 	 -97.3099 	 40.0676 	 119.92
| 26> C 	 -95.9943 	 39.6616 	 120.341
| 27> C 	 -95.9967 	 39.2481 	 121.657
| 28> H 	 -97.4635 	 40.582 	 118.973
| 29> C 	 -94.8215 	 39.6969 	 119.316
| 30> H 	 -95.3532 	 39.6745 	 118.346
| 31> H 	 -94.1711 	 38.912 	 119.3
| 32> C 	 -93.9679 	 41.0663 	 119.314
| 33> H 	 -94.6566 	 41.8981 	 119.177
| 34> H 	 -93.3059 	 41.1003 	 118.476
| 35> C 	 -93.1277 	 41.2591 	 120.586
| 36> H 	 -92.5451 	 42.2046 	 120.606
| 37> H 	 -92.3566 	 40.4531 	 120.855
| 38> H 	 -93.7799 	 41.3908 	 121.418
| 39> H 	 -92.9128 	 37.5513 	 125.209
| 40> H 	 -99.237 	 40.1066 	 120.721
| 41> *
| 42>
| 43>                          ****END OF INPUT****

CARTESIAN COORDINATES (ANGSTROEM)
---------------------------------
  S    -94.847300   38.710100  124.167000
  C    -93.496100   37.704700  124.290000
  C    -93.069400   37.305500  123.076000
  C    -93.968100   37.739200  122.021000
  C    -94.937000   38.628600  122.403000
  H    -93.923800   37.324100  121.037000
  C    -91.873100   36.449400  122.796000
  H    -91.884800   35.926700  121.883000
  H    -91.942100   35.633200  123.449000
  C    -90.551800   37.201100  122.834000
  H    -89.869200   36.588400  122.223000
  H    -90.782100   38.158600  122.283000
  C    -89.997100   37.421000  124.220000
  H    -90.466800   38.248700  124.865000
  H    -89.944400   36.529500  124.790000
  H    -88.999000   37.706000  124.140000
  S    -97.621600   38.894500  122.174000
  C    -98.181900   39.807000  120.870000
  C    -97.309900   40.067600  119.920000
  C    -95.994300   39.661600  120.341000
  C    -95.996700   39.248100  121.657000
  H    -97.463500   40.582000  118.973000
  C    -94.821500   39.696900  119.316000
  H    -95.353200   39.674500  118.346000
  H    -94.171100   38.912000  119.300000
  C    -93.967900   41.066300  119.314000
  H    -94.656600   41.898100  119.177000
  H    -93.305900   41.100300  118.476000
  C    -93.127700   41.259100  120.586000
  H    -92.545100   42.204600  120.606000
  H    -92.356600   40.453100  120.855000
  H    -93.779900   41.390800  121.418000
  H    -92.912800   37.551300  125.209000
  H    -99.237000   40.106600  120.721000

 Total Charge           Charge          ....    0
 Multiplicity           Mult            ....    1
 Number of Electrons    NEL             ....  134
 Basis Dimension        Dim             ....  322

ORBITAL ENERGIES
----------------

  NO   OCC          E(Eh)            E(eV)
   0   2.0000     -88.963871     -2420.8300
   1   2.0000     -88.957758     -2420.6637
   2   2.0000     -10.323872      -280.9268
   3   2.0000     -10.320822      -280.8438
   4   2.0000     -10.307599      -280.4840
   5   2.0000     -10.305647      -280.4309
   6   2.0000     -10.304842      -280.4090
   7   2.0000     -10.295117      -280.1444
   8   2.0000     -10.291876      -280.0562
   9   2.0000     -10.289825      -280.0004
  10   2.0000     -10.288764      -279.9715
  11   2.0000     -10.288331      -279.9597
  12   2.0000     -10.286908      -279.9210
  13   2.0000     -10.276040      -279.6253
  14   2.0000     -10.274849      -279.5928
  15   2.0000     -10.274412      -279.5810
  16   2.0000      -8.080378      -219.8783
  17   2.0000      -8.073694      -219.6964
  18   2.0000      -6.038826      -164.3248
  19   2.0000      -6.035031      -164.2215
  20   2.0000      -6.032205      -164.1446
  21   2.0000      -6.030680      -164.1031
  22   2.0000      -6.027907      -164.0277
  23   2.0000      -6.024500      -163.9350
  24   2.0000      -1.017431       -27.6857
  25   2.0000      -0.994845       -27.0711
  26   2.0000      -0.917264       -24.9600
  27   2.0000      -0.898713       -24.4552
  28   2.0000      -0.876908       -23.8619
  29   2.0000      -0.849415       -23.1138
  30   2.0000      -0.844613       -22.9831
  31   2.0000      -0.816078       -22.2066
  32   2.0000      -0.787906       -21.4400
  33   2.0000      -0.777113       -21.1463
  34   2.0000      -0.708824       -19.2881
  35   2.0000      -0.697216       -18.9722
  36   2.0000      -0.691940       -18.8286
  37   2.0000      -0.663258       -18.0482
  38   2.0000      -0.639357       -17.3978
  39   2.0000      -0.621662       -16.9163
  40   2.0000      -0.602588       -16.3973
  41   2.0000      -0.580538       -15.7972
  42   2.0000      -0.548106       -14.9147
  43   2.0000      -0.543236       -14.7822
  44   2.0000      -0.539045       -14.6682
  45   2.0000      -0.532594       -14.4926
  46   2.0000      -0.522437       -14.2162
  47   2.0000      -0.508966       -13.8497
  48   2.0000      -0.500454       -13.6181
  49   2.0000      -0.499520       -13.5926
  50   2.0000      -0.490541       -13.3483
  51   2.0000      -0.481342       -13.0980
  52   2.0000      -0.473295       -12.8790
  53   2.0000      -0.468999       -12.7621
  54   2.0000      -0.463203       -12.6044
  55   2.0000      -0.448972       -12.2172
  56   2.0000      -0.438900       -11.9431
  57   2.0000      -0.432798       -11.7770
  58   2.0000      -0.430265       -11.7081
  59   2.0000      -0.422111       -11.4862
  60   2.0000      -0.421074       -11.4580
  61   2.0000      -0.416704       -11.3391
  62   2.0000      -0.410101       -11.1594
  63   2.0000      -0.355494        -9.6735
  64   2.0000      -0.329544        -8.9673
  65   2.0000      -0.322566        -8.7775
  66   2.0000      -0.293165        -7.9774
  67   0.0000       0.030432         0.8281
  68   0.0000       0.079696         2.1686
  69   0.0000       0.103941         2.8284
  70   0.0000       0.129546         3.5251
  71   0.0000       0.136157         3.7050

MULLIKEN ATOMIC CHARGES
-----------------------
   0 S :    0.094925
   1 C :   -0.108911
   2 C :   -0.122564
   3 C :    0.021568
   4 C :   -0.150406
   5 H :    0.005195
   6 C :    0.110662
   7 H :   -0.006648
   8 H :    0.005747
   9 C :   -0.083828
  10 H :    0.029087
  11 H :    0.043835
  12 C :   -0.024085
  13 H :    0.047246
  14 H :    0.016199
  15 H :    0.014374
  16 S :    0.119104
  17 C :   -0.063481
  18 C :   -0.030116
  19 C :   -0.072547
  20 C :   -0.120960
  21 H :    0.020038
  22 C :    0.091560
  23 H :    0.019501
  24 H :    0.002629
  25 C :   -0.044439
  26 H :    0.022211
  27 H :    0.023685
  28 C :   -0.078835
  29 H :    0.029921
  30 H :    0.045455
  31 H :    0.031250
  32 H :    0.056791
  33 H :    0.055836
Sum of atomic charges:   -0.0000000

LOEWDIN ATOMIC CHARGES
----------------------
   0 S :    0.411834
   1 C :   -0.213183
   2 C :   -0.068413
   3 C :   -0.059349
   4 C :   -0.191892
   5 H :    0.024346
   6 C :   -0.033691
   7 H :    0.024432
   8 H :    0.022716
   9 C :   -0.037259
  10 H :    0.026456
  11 H :    0.033970
  12 C :   -0.070004
  13 H :    0.036564
  14 H :    0.019950
  15 H :    0.019859
  16 S :    0.430290
  17 C :   -0.197871
  18 C :   -0.075952
  19 C :   -0.044296
  20 C :   -0.207272
  21 H :    0.035126
  22 C :   -0.015889
  23 H :    0.034629
  24 H :    0.009941
  25 C :   -0.029496
  26 H :    0.023267
  27 H :    0.017547
  28 C :   -0.078160
  29 H :    0.027699
  30 H :    0.032269
  31 H :    0.020954
  32 H :    0.036068
  33 H :    0.034810

  Mayer bond orders larger than 0.100000
B(  0-S ,  1-C ) :   1.1445 B(  0-S ,  4-C ) :   1.1437 B(  1-C ,  2-C ) :   1.6270
B(  1-C , 32-H ) :   0.9581 B(  2-C ,  3-C ) :   1.2445 B(  2-C ,  6-C ) :   1.0246
B(  3-C ,  4-C ) :   1.5751 B(  3-C ,  5-H ) :   0.9964 B(  4-C , 20-C ) :   1.0456
B(  6-C ,  7-H ) :   0.9349 B(  6-C ,  8-H ) :   0.9353 B(  6-C ,  9-C ) :   1.0671
B(  9-C , 10-H ) :   0.9557 B(  9-C , 11-H ) :   0.9517 B(  9-C , 12-C ) :   1.0895
B( 12-C , 13-H ) :   0.9690 B( 12-C , 14-H ) :   0.9708 B( 12-C , 15-H ) :   0.9674
B( 16-S , 17-C ) :   1.1529 B( 16-S , 20-C ) :   1.1368 B( 17-C , 18-C ) :   1.6389
B( 17-C , 33-H ) :   0.9549 B( 18-C , 19-C ) :   1.2296 B( 18-C , 21-H ) :   0.9909
B( 19-C , 20-C ) :   1.6221 B( 19-C , 22-C ) :   1.0227 B( 22-C , 23-H ) :   0.9364
B( 22-C , 24-H ) :   0.9484 B( 22-C , 25-C ) :   1.0664 B( 25-C , 26-H ) :   0.9559
B( 25-C , 27-H ) :   0.9596 B( 25-C , 28-C ) :   1.0772 B( 28-C , 29-H ) :   0.9716
B( 28-C , 30-H ) :   0.9743 B( 28-C , 31-H ) :   0.9736

Dispersion correction           -0.015477248
FINAL SINGLE POINT ENERGY     -1339.858951345203

DIPOLE MOMENT
-------------
                                X             Y             Z
Electronic contribution:    -26.36593      -1.50491       8.22026
Nuclear contribution   :     26.82259       1.32736      -8.77572
                        -----------------------------------------
Total Dipole Moment    :      0.45666      -0.17755      -0.55545
                        -----------------------------------------
Magnitude (a.u.)       :      0.74067
Magnitude (Debye)      :      1.88263

Rotational constants in cm-1:     0.022038     0.008955     0.007136
Rotational constants in MHz :   660.696277   268.463181   213.926816

                             ****ORCA TERMINATED NORMALLY****
TOTAL RUN TIME: 0 days 0 hours 0 minutes 35 seconds 807 msec
