                         Program Version 4.2.1 -  RELEASE  -
|  1> ! wB97X-D3 SP def2-SVP
|  2> %pal
|  3> nprocs 16
|  4> end
|  5>
|  6> * xyz 0 1
|  7> S 	 -103.104 	 58.0333 	 123.089
|  8> C 	 -103.471 	 56.3688 	 122.649
|  9> C 	 -102.482 	 55.5034 	 123.043
| 10> C 	 -101.453 	 56.1436 	 123.779
| 11> C 	 -101.684 	 57.5031 	 123.93
| 12> H 	 -100.564 	 55.7468 	 124.189
| 13> C 	 -102.226 	 54.049 	 122.594
| 14> H 	 -101.174 	 53.7822 	 122.553
| 15> H 	 -102.617 	 54.1312 	 121.624
| 16> C 	 -102.96 	 52.9268 	 123.308
| 17> H 	 -102.831 	 52.8384 	 124.375
| 18> H 	 -103.952 	 53.3455 	 123.185
| 19> C 	 -102.874 	 51.5487 	 122.548
| 20> H 	 -103.422 	 51.7287 	 121.602
| 21> H 	 -101.805 	 51.2224 	 122.368
| 22> H 	 -103.301 	 50.7473 	 123.175
| 23> S 	 -101.653 	 59.6248 	 125.746
| 24> C 	 -100.2 	 60.5131 	 126.063
| 25> C 	 -99.1832 	 60.0824 	 125.296
| 26> C 	 -99.5288 	 58.8931 	 124.535
| 27> C 	 -100.857 	 58.5537 	 124.586
| 28> H 	 -98.1766 	 60.524 	 125.352
| 29> C 	 -98.4669 	 58.1901 	 123.756
| 30> H 	 -97.9243 	 58.9897 	 123.231
| 31> H 	 -98.8478 	 57.6737 	 122.915
| 32> C 	 -97.6109 	 57.3598 	 124.635
| 33> H 	 -98.2847 	 56.7796 	 125.239
| 34> H 	 -97.1259 	 57.9057 	 125.44
| 35> C 	 -96.5877 	 56.5213 	 123.819
| 36> H 	 -97.1367 	 55.7926 	 123.21
| 37> H 	 -95.8925 	 55.8996 	 124.399
| 38> H 	 -96.0398 	 57.2005 	 123.072
| 39> H 	 -104.241 	 56.0291 	 121.935
| 40> H 	 -100.128 	 61.4849 	 126.553
| 41> *
| 42>
| 43>                          ****END OF INPUT****

CARTESIAN COORDINATES (ANGSTROEM)
---------------------------------
  S    -103.104000   58.033300  123.089000
  C    -103.471000   56.368800  122.649000
  C    -102.482000   55.503400  123.043000
  C    -101.453000   56.143600  123.779000
  C    -101.684000   57.503100  123.930000
  H    -100.564000   55.746800  124.189000
  C    -102.226000   54.049000  122.594000
  H    -101.174000   53.782200  122.553000
  H    -102.617000   54.131200  121.624000
  C    -102.960000   52.926800  123.308000
  H    -102.831000   52.838400  124.375000
  H    -103.952000   53.345500  123.185000
  C    -102.874000   51.548700  122.548000
  H    -103.422000   51.728700  121.602000
  H    -101.805000   51.222400  122.368000
  H    -103.301000   50.747300  123.175000
  S    -101.653000   59.624800  125.746000
  C    -100.200000   60.513100  126.063000
  C    -99.183200   60.082400  125.296000
  C    -99.528800   58.893100  124.535000
  C    -100.857000   58.553700  124.586000
  H    -98.176600   60.524000  125.352000
  C    -98.466900   58.190100  123.756000
  H    -97.924300   58.989700  123.231000
  H    -98.847800   57.673700  122.915000
  C    -97.610900   57.359800  124.635000
  H    -98.284700   56.779600  125.239000
  H    -97.125900   57.905700  125.440000
  C    -96.587700   56.521300  123.819000
  H    -97.136700   55.792600  123.210000
  H    -95.892500   55.899600  124.399000
  H    -96.039800   57.200500  123.072000
  H    -104.241000   56.029100  121.935000
  H    -100.128000   61.484900  126.553000

 Total Charge           Charge          ....    0
 Multiplicity           Mult            ....    1
 Number of Electrons    NEL             ....  134
 Basis Dimension        Dim             ....  322

ORBITAL ENERGIES
----------------

  NO   OCC          E(Eh)            E(eV)
   0   2.0000     -88.970633     -2421.0140
   1   2.0000     -88.960574     -2420.7403
   2   2.0000     -10.332080      -281.1502
   3   2.0000     -10.328160      -281.0435
   4   2.0000     -10.317257      -280.7468
   5   2.0000     -10.312835      -280.6265
   6   2.0000     -10.302556      -280.3468
   7   2.0000     -10.300837      -280.3000
   8   2.0000     -10.292624      -280.0765
   9   2.0000     -10.291497      -280.0459
  10   2.0000     -10.291050      -280.0337
  11   2.0000     -10.289553      -279.9930
  12   2.0000     -10.288427      -279.9623
  13   2.0000     -10.284735      -279.8619
  14   2.0000     -10.283880      -279.8386
  15   2.0000     -10.282100      -279.7902
  16   2.0000      -8.085280      -220.0116
  17   2.0000      -8.075665      -219.7500
  18   2.0000      -6.043777      -164.4595
  19   2.0000      -6.039815      -164.3517
  20   2.0000      -6.036024      -164.2486
  21   2.0000      -6.034351      -164.2030
  22   2.0000      -6.030043      -164.0858
  23   2.0000      -6.026284      -163.9835
  24   2.0000      -1.008939       -27.4546
  25   2.0000      -0.988620       -26.9017
  26   2.0000      -0.918232       -24.9864
  27   2.0000      -0.913506       -24.8578
  28   2.0000      -0.868711       -23.6388
  29   2.0000      -0.850649       -23.1473
  30   2.0000      -0.843208       -22.9449
  31   2.0000      -0.817062       -22.2334
  32   2.0000      -0.781994       -21.2791
  33   2.0000      -0.772057       -21.0087
  34   2.0000      -0.709647       -19.3105
  35   2.0000      -0.701110       -19.0782
  36   2.0000      -0.698315       -19.0021
  37   2.0000      -0.661662       -18.0047
  38   2.0000      -0.642899       -17.4942
  39   2.0000      -0.621206       -16.9039
  40   2.0000      -0.599767       -16.3205
  41   2.0000      -0.576968       -15.7001
  42   2.0000      -0.564767       -15.3681
  43   2.0000      -0.556577       -15.1452
  44   2.0000      -0.528928       -14.3929
  45   2.0000      -0.527716       -14.3599
  46   2.0000      -0.516779       -14.0623
  47   2.0000      -0.507110       -13.7992
  48   2.0000      -0.503391       -13.6980
  49   2.0000      -0.502471       -13.6729
  50   2.0000      -0.491613       -13.3775
  51   2.0000      -0.477660       -12.9978
  52   2.0000      -0.470693       -12.8082
  53   2.0000      -0.465429       -12.6650
  54   2.0000      -0.456635       -12.4257
  55   2.0000      -0.454461       -12.3665
  56   2.0000      -0.450493       -12.2585
  57   2.0000      -0.446264       -12.1434
  58   2.0000      -0.441456       -12.0126
  59   2.0000      -0.421651       -11.4737
  60   2.0000      -0.417386       -11.3577
  61   2.0000      -0.409176       -11.1342
  62   2.0000      -0.407246       -11.0817
  63   2.0000      -0.348146        -9.4735
  64   2.0000      -0.335885        -9.1399
  65   2.0000      -0.326883        -8.8949
  66   2.0000      -0.299708        -8.1555
  67   0.0000       0.033998         0.9251
  68   0.0000       0.070765         1.9256
  69   0.0000       0.103538         2.8174
  70   0.0000       0.126211         3.4344
  71   0.0000       0.128689         3.5018

MULLIKEN ATOMIC CHARGES
-----------------------
   0 S :    0.124795
   1 C :   -0.122387
   2 C :   -0.083559
   3 C :    0.046498
   4 C :   -0.153319
   5 H :   -0.008726
   6 C :    0.080283
   7 H :    0.023396
   8 H :    0.006379
   9 C :   -0.074032
  10 H :    0.032120
  11 H :    0.016096
  12 C :   -0.070280
  13 H :    0.043205
  14 H :    0.041000
  15 H :    0.046011
  16 S :    0.089955
  17 C :   -0.073531
  18 C :   -0.043271
  19 C :   -0.077714
  20 C :   -0.144042
  21 H :    0.030464
  22 C :    0.086407
  23 H :    0.015434
  24 H :    0.006969
  25 C :   -0.047413
  26 H :    0.012358
  27 H :    0.019490
  28 C :   -0.047578
  29 H :    0.025251
  30 H :    0.040317
  31 H :    0.041463
  32 H :    0.053569
  33 H :    0.064393
Sum of atomic charges:    0.0000000

LOEWDIN ATOMIC CHARGES
----------------------
   0 S :    0.419788
   1 C :   -0.205791
   2 C :   -0.059297
   3 C :   -0.057179
   4 C :   -0.190761
   5 H :    0.025793
   6 C :   -0.023104
   7 H :    0.025500
   8 H :    0.024671
   9 C :   -0.044763
  10 H :    0.020299
  11 H :    0.023054
  12 C :   -0.069150
  13 H :    0.030390
  14 H :    0.028742
  15 H :    0.029971
  16 S :    0.393902
  17 C :   -0.190876
  18 C :   -0.074853
  19 C :   -0.054408
  20 C :   -0.198603
  21 H :    0.036856
  22 C :   -0.034611
  23 H :    0.031982
  24 H :    0.023961
  25 C :   -0.042565
  26 H :    0.020877
  27 H :    0.024118
  28 C :   -0.069243
  29 H :    0.023426
  30 H :    0.026300
  31 H :    0.034376
  32 H :    0.034124
  33 H :    0.037073

  Mayer bond orders larger than 0.100000
B(  0-S ,  1-C ) :   1.1297 B(  0-S ,  4-C ) :   1.1750 B(  1-C ,  2-C ) :   1.6334
B(  1-C , 32-H ) :   0.9589 B(  2-C ,  3-C ) :   1.2285 B(  2-C ,  6-C ) :   0.9948
B(  3-C ,  4-C ) :   1.5771 B(  3-C ,  5-H ) :   1.0113 B(  4-C , 20-C ) :   0.9991
B(  6-C ,  7-H ) :   0.9512 B(  6-C ,  8-H ) :   0.9398 B(  6-C ,  9-C ) :   1.0508
B(  9-C , 10-H ) :   0.9617 B(  9-C , 11-H ) :   0.9592 B(  9-C , 12-C ) :   1.0689
B( 12-C , 13-H ) :   0.9759 B( 12-C , 14-H ) :   0.9772 B( 12-C , 15-H ) :   0.9758
B( 16-S , 17-C ) :   1.1457 B( 16-S , 20-C ) :   1.1200 B( 17-C , 18-C ) :   1.6458
B( 17-C , 33-H ) :   0.9567 B( 18-C , 19-C ) :   1.2174 B( 18-C , 21-H ) :   0.9837
B( 19-C , 20-C ) :   1.6382 B( 19-C , 22-C ) :   1.0546 B( 22-C , 23-H ) :   0.9213
B( 22-C , 24-H ) :   0.9359 B( 22-C , 25-C ) :   1.0514 B( 25-C , 26-H ) :   0.9493
B( 25-C , 27-H ) :   0.9519 B( 25-C , 28-C ) :   1.0711 B( 28-C , 29-H ) :   0.9750
B( 28-C , 30-H ) :   0.9759 B( 28-C , 31-H ) :   0.9731

Dispersion correction           -0.013825100
FINAL SINGLE POINT ENERGY     -1339.872547432673

DIPOLE MOMENT
-------------
                                X             Y             Z
Electronic contribution:    -14.59474      25.55587       6.97219
Nuclear contribution   :     15.10907     -25.93089      -7.24605
                        -----------------------------------------
Total Dipole Moment    :      0.51433      -0.37502      -0.27386
                        -----------------------------------------
Magnitude (a.u.)       :      0.69295
Magnitude (Debye)      :      1.76133

Rotational constants in cm-1:     0.018554     0.008095     0.006108
Rotational constants in MHz :   556.238182   242.688224   183.123627

                             ****ORCA TERMINATED NORMALLY****
TOTAL RUN TIME: 0 days 0 hours 0 minutes 33 seconds 432 msec
