                         Program Version 4.2.1 -  RELEASE  -
|  1> ! wB97X-D3 SP def2-SVP
|  2> %pal
|  3> nprocs 16
|  4> end
|  5>
|  6> * xyz 0 1
|  7> S 	 -11.3273 	 -11.6658 	 85.671
|  8> C 	 -12.7596 	 -12.4921 	 86.1236
|  9> C 	 -13.8253 	 -11.6479 	 86.2015
| 10> C 	 -13.5535 	 -10.3283 	 85.8753
| 11> C 	 -12.2116 	 -10.1322 	 85.565
| 12> H 	 -14.2203 	 -9.52265 	 85.877
| 13> C 	 -15.226 	 -12.2029 	 86.5298
| 14> H 	 -15.9054 	 -11.3707 	 86.7305
| 15> H 	 -15.2023 	 -12.8959 	 87.3266
| 16> C 	 -15.9929 	 -12.7448 	 85.3156
| 17> H 	 -15.8994 	 -12.1291 	 84.3599
| 18> H 	 -15.5538 	 -13.6579 	 85.159
| 19> C 	 -17.4503 	 -12.9696 	 85.6895
| 20> H 	 -17.4091 	 -13.7365 	 86.4067
| 21> H 	 -17.9891 	 -12.1387 	 86.1387
| 22> H 	 -18.1973 	 -13.4489 	 84.9643
| 23> S 	 -10.6283 	 -8.74036 	 83.8279
| 24> C 	 -10.5772 	 -6.99538 	 83.8258
| 25> C 	 -11.0663 	 -6.5047 	 85.0019
| 26> C 	 -11.6349 	 -7.53868 	 85.7785
| 27> C 	 -11.6007 	 -8.84613 	 85.2461
| 28> H 	 -11.0234 	 -5.41744 	 85.2135
| 29> C 	 -12.1822 	 -7.31461 	 87.1375
| 30> H 	 -11.2731 	 -7.02433 	 87.8279
| 31> H 	 -12.5514 	 -8.30045 	 87.4682
| 32> C 	 -13.309 	 -6.2156 	 87.3334
| 33> H 	 -14.0958 	 -6.38987 	 86.6152
| 34> H 	 -12.8701 	 -5.2123 	 87.2816
| 35> C 	 -13.8839 	 -6.25077 	 88.7224
| 36> H 	 -14.8333 	 -5.61673 	 88.6379
| 37> H 	 -13.1226 	 -5.99391 	 89.4717
| 38> H 	 -14.3392 	 -7.17992 	 89.033
| 39> H 	 -12.8442 	 -13.524 	 86.2551
| 40> H 	 -9.98935 	 -6.36552 	 83.1432
| 41> *
| 42>
| 43>                          ****END OF INPUT****

CARTESIAN COORDINATES (ANGSTROEM)
---------------------------------
  S    -11.327300  -11.665800   85.671000
  C    -12.759600  -12.492100   86.123600
  C    -13.825300  -11.647900   86.201500
  C    -13.553500  -10.328300   85.875300
  C    -12.211600  -10.132200   85.565000
  H    -14.220300   -9.522650   85.877000
  C    -15.226000  -12.202900   86.529800
  H    -15.905400  -11.370700   86.730500
  H    -15.202300  -12.895900   87.326600
  C    -15.992900  -12.744800   85.315600
  H    -15.899400  -12.129100   84.359900
  H    -15.553800  -13.657900   85.159000
  C    -17.450300  -12.969600   85.689500
  H    -17.409100  -13.736500   86.406700
  H    -17.989100  -12.138700   86.138700
  H    -18.197300  -13.448900   84.964300
  S    -10.628300   -8.740360   83.827900
  C    -10.577200   -6.995380   83.825800
  C    -11.066300   -6.504700   85.001900
  C    -11.634900   -7.538680   85.778500
  C    -11.600700   -8.846130   85.246100
  H    -11.023400   -5.417440   85.213500
  C    -12.182200   -7.314610   87.137500
  H    -11.273100   -7.024330   87.827900
  H    -12.551400   -8.300450   87.468200
  C    -13.309000   -6.215600   87.333400
  H    -14.095800   -6.389870   86.615200
  H    -12.870100   -5.212300   87.281600
  C    -13.883900   -6.250770   88.722400
  H    -14.833300   -5.616730   88.637900
  H    -13.122600   -5.993910   89.471700
  H    -14.339200   -7.179920   89.033000
  H    -12.844200  -13.524000   86.255100
  H     -9.989350   -6.365520   83.143200

 Total Charge           Charge          ....    0
 Multiplicity           Mult            ....    1
 Number of Electrons    NEL             ....  134
 Basis Dimension        Dim             ....  322

ORBITAL ENERGIES
----------------

  NO   OCC          E(Eh)            E(eV)
   0   2.0000     -88.970294     -2421.0048
   1   2.0000     -88.960587     -2420.7406
   2   2.0000     -10.334948      -281.2282
   3   2.0000     -10.326121      -280.9880
   4   2.0000     -10.317645      -280.7574
   5   2.0000     -10.306635      -280.4578
   6   2.0000     -10.301455      -280.3169
   7   2.0000     -10.296212      -280.1742
   8   2.0000     -10.294068      -280.1158
   9   2.0000     -10.293077      -280.0889
  10   2.0000     -10.291443      -280.0444
  11   2.0000     -10.290248      -280.0119
  12   2.0000     -10.286790      -279.9178
  13   2.0000     -10.284409      -279.8530
  14   2.0000     -10.279553      -279.7209
  15   2.0000     -10.278287      -279.6864
  16   2.0000      -8.085131      -220.0076
  17   2.0000      -8.076200      -219.7646
  18   2.0000      -6.043604      -164.4548
  19   2.0000      -6.039574      -164.3452
  20   2.0000      -6.035979      -164.2473
  21   2.0000      -6.034660      -164.2114
  22   2.0000      -6.030464      -164.0973
  23   2.0000      -6.027063      -164.0047
  24   2.0000      -1.012547       -27.5528
  25   2.0000      -0.992801       -27.0155
  26   2.0000      -0.917128       -24.9563
  27   2.0000      -0.904380       -24.6094
  28   2.0000      -0.876176       -23.8420
  29   2.0000      -0.857423       -23.3317
  30   2.0000      -0.850718       -23.1492
  31   2.0000      -0.821874       -22.3643
  32   2.0000      -0.778793       -21.1920
  33   2.0000      -0.760853       -20.7039
  34   2.0000      -0.708515       -19.2797
  35   2.0000      -0.702313       -19.1109
  36   2.0000      -0.694222       -18.8907
  37   2.0000      -0.659690       -17.9511
  38   2.0000      -0.646496       -17.5921
  39   2.0000      -0.624903       -17.0045
  40   2.0000      -0.589183       -16.0325
  41   2.0000      -0.580755       -15.8031
  42   2.0000      -0.573849       -15.6152
  43   2.0000      -0.569065       -15.4850
  44   2.0000      -0.526468       -14.3259
  45   2.0000      -0.525523       -14.3002
  46   2.0000      -0.514990       -14.0136
  47   2.0000      -0.510965       -13.9041
  48   2.0000      -0.507784       -13.8175
  49   2.0000      -0.505217       -13.7476
  50   2.0000      -0.490568       -13.3490
  51   2.0000      -0.478858       -13.0304
  52   2.0000      -0.475114       -12.9285
  53   2.0000      -0.469930       -12.7874
  54   2.0000      -0.462644       -12.5892
  55   2.0000      -0.453924       -12.3519
  56   2.0000      -0.438460       -11.9311
  57   2.0000      -0.429248       -11.6804
  58   2.0000      -0.428832       -11.6691
  59   2.0000      -0.423004       -11.5105
  60   2.0000      -0.421420       -11.4674
  61   2.0000      -0.417497       -11.3607
  62   2.0000      -0.406892       -11.0721
  63   2.0000      -0.351917        -9.5762
  64   2.0000      -0.337475        -9.1832
  65   2.0000      -0.323459        -8.8018
  66   2.0000      -0.290270        -7.8987
  67   0.0000       0.027841         0.7576
  68   0.0000       0.068997         1.8775
  69   0.0000       0.112456         3.0601
  70   0.0000       0.118946         3.2367
  71   0.0000       0.133825         3.6416

MULLIKEN ATOMIC CHARGES
-----------------------
   0 S :    0.127680
   1 C :   -0.095813
   2 C :   -0.062349
   3 C :    0.055198
   4 C :   -0.148023
   5 H :   -0.011276
   6 C :    0.052183
   7 H :    0.010267
   8 H :    0.025172
   9 C :   -0.029289
  10 H :    0.049784
  11 H :   -0.000626
  12 C :   -0.064986
  13 H :    0.005919
  14 H :    0.032830
  15 H :    0.042057
  16 S :    0.094818
  17 C :   -0.091543
  18 C :   -0.038559
  19 C :   -0.030783
  20 C :   -0.148561
  21 H :    0.036254
  22 C :   -0.009473
  23 H :    0.048627
  24 H :    0.024657
  25 C :   -0.062250
  26 H :    0.028926
  27 H :    0.034556
  28 C :   -0.061529
  29 H :    0.039093
  30 H :    0.041526
  31 H :    0.018876
  32 H :    0.022876
  33 H :    0.063760
Sum of atomic charges:    0.0000000

LOEWDIN ATOMIC CHARGES
----------------------
   0 S :    0.418653
   1 C :   -0.197070
   2 C :   -0.063715
   3 C :   -0.049213
   4 C :   -0.185608
   5 H :    0.025106
   6 C :   -0.021790
   7 H :    0.028674
   8 H :    0.023766
   9 C :   -0.034652
  10 H :    0.033658
  11 H :    0.008716
  12 C :   -0.076549
  13 H :    0.018176
  14 H :    0.022306
  15 H :    0.036648
  16 S :    0.417323
  17 C :   -0.184648
  18 C :   -0.078777
  19 C :   -0.064659
  20 C :   -0.213851
  21 H :    0.042014
  22 C :   -0.044897
  23 H :    0.043231
  24 H :    0.027427
  25 C :   -0.042246
  26 H :    0.021300
  27 H :    0.026770
  28 C :   -0.072327
  29 H :    0.037544
  30 H :    0.028134
  31 H :    0.017539
  32 H :    0.017877
  33 H :    0.035139

  Mayer bond orders larger than 0.100000
B(  0-S ,  1-C ) :   1.1452 B(  0-S ,  4-C ) :   1.1636 B(  1-C ,  2-C ) :   1.5866
B(  1-C ,  4-C ) :   0.1011 B(  1-C , 32-H ) :   0.9770 B(  2-C ,  3-C ) :   1.2742
B(  2-C ,  6-C ) :   1.0231 B(  3-C ,  4-C ) :   1.5293 B(  3-C ,  5-H ) :   1.0115
B(  4-C , 20-C ) :   1.0411 B(  6-C ,  7-H ) :   0.9476 B(  6-C ,  8-H ) :   0.9451
B(  6-C ,  9-C ) :   1.0447 B(  9-C , 10-H ) :   0.9597 B(  9-C , 11-H ) :   0.9530
B(  9-C , 12-C ) :   1.0723 B( 12-C , 13-H ) :   0.9698 B( 12-C , 14-H ) :   0.9777
B( 12-C , 15-H ) :   0.9728 B( 16-S , 17-C ) :   1.1757 B( 16-S , 20-C ) :   1.1400
B( 17-C , 18-C ) :   1.5820 B( 17-C , 20-C ) :   0.1027 B( 17-C , 33-H ) :   0.9617
B( 18-C , 19-C ) :   1.2591 B( 18-C , 21-H ) :   0.9914 B( 19-C , 20-C ) :   1.5456
B( 19-C , 22-C ) :   1.0647 B( 22-C , 23-H ) :   0.9281 B( 22-C , 24-H ) :   0.9414
B( 22-C , 25-C ) :   1.0554 B( 25-C , 26-H ) :   0.9593 B( 25-C , 27-H ) :   0.9495
B( 25-C , 28-C ) :   1.0940 B( 28-C , 29-H ) :   0.9722 B( 28-C , 30-H ) :   0.9728
B( 28-C , 31-H ) :   0.9732

Dispersion correction           -0.013568738
FINAL SINGLE POINT ENERGY     -1339.857662160577

DIPOLE MOMENT
-------------
                                X             Y             Z
Electronic contribution:     26.01383      -3.18750     -13.50426
Nuclear contribution   :    -26.48659       3.34733      13.80803
                        -----------------------------------------
Total Dipole Moment    :     -0.47276       0.15984       0.30377
                        -----------------------------------------
Magnitude (a.u.)       :      0.58423
Magnitude (Debye)      :      1.48500

Rotational constants in cm-1:     0.017254     0.008251     0.006406
Rotational constants in MHz :   517.263521   247.360406   192.048526

                             ****ORCA TERMINATED NORMALLY****
TOTAL RUN TIME: 0 days 0 hours 0 minutes 33 seconds 300 msec
