                         Program Version 4.2.1 -  RELEASE  -
|  1> ! wB97X-D3 SP def2-SVP
|  2> %pal
|  3> nprocs 16
|  4> end
|  5>
|  6> * xyz 0 1
|  7> S 	 0.369313 	 79.1903 	 49.4525
|  8> C 	 1.85137 	 78.8468 	 48.531
|  9> C 	 2.68249 	 77.9681 	 49.2049
| 10> C 	 1.99873 	 77.2796 	 50.2816
| 11> C 	 0.626134 	 77.6562 	 50.3724
| 12> H 	 2.49962 	 76.5237 	 50.878
| 13> C 	 4.15788 	 77.7761 	 48.7837
| 14> H 	 4.28319 	 78.5893 	 48.0933
| 15> H 	 4.2381 	 76.8034 	 48.2465
| 16> C 	 5.25694 	 77.9583 	 49.8715
| 17> H 	 5.09842 	 78.9072 	 50.3867
| 18> H 	 5.12058 	 77.0389 	 50.5229
| 19> C 	 6.72021 	 78.0019 	 49.3441
| 20> H 	 7.05114 	 78.9579 	 48.8427
| 21> H 	 7.33725 	 77.9437 	 50.1864
| 22> H 	 6.98397 	 77.1116 	 48.6531
| 23> S 	 -1.17901 	 78.1077 	 52.335
| 24> C 	 -1.76338 	 76.7239 	 53.2384
| 25> C 	 -1.47119 	 75.5377 	 52.6211
| 26> C 	 -0.616575 	 75.7479 	 51.5331
| 27> C 	 -0.377809 	 77.0465 	 51.2239
| 28> H 	 -1.68584 	 74.6095 	 53.1375
| 29> C 	 -0.0274102 	 74.6242 	 50.6562
| 30> H 	 1.01887 	 74.5466 	 50.7198
| 31> H 	 -0.183748 	 74.9774 	 49.6482
| 32> C 	 -0.632911 	 73.2278 	 50.6729
| 33> H 	 -0.432087 	 72.5066 	 49.8756
| 34> H 	 -1.66701 	 73.2632 	 50.8023
| 35> C 	 -0.184682 	 72.36 	 51.9219
| 36> H 	 -0.283821 	 72.8423 	 52.9129
| 37> H 	 0.8646 	 72.1017 	 51.9244
| 38> H 	 -0.902911 	 71.5517 	 51.9555
| 39> H 	 2.20383 	 79.5863 	 47.7525
| 40> H 	 -2.17628 	 76.8935 	 54.1989
| 41> *
| 42>
| 43>                          ****END OF INPUT****

CARTESIAN COORDINATES (ANGSTROEM)
---------------------------------
  S      0.369313   79.190300   49.452500
  C      1.851370   78.846800   48.531000
  C      2.682490   77.968100   49.204900
  C      1.998730   77.279600   50.281600
  C      0.626134   77.656200   50.372400
  H      2.499620   76.523700   50.878000
  C      4.157880   77.776100   48.783700
  H      4.283190   78.589300   48.093300
  H      4.238100   76.803400   48.246500
  C      5.256940   77.958300   49.871500
  H      5.098420   78.907200   50.386700
  H      5.120580   77.038900   50.522900
  C      6.720210   78.001900   49.344100
  H      7.051140   78.957900   48.842700
  H      7.337250   77.943700   50.186400
  H      6.983970   77.111600   48.653100
  S     -1.179010   78.107700   52.335000
  C     -1.763380   76.723900   53.238400
  C     -1.471190   75.537700   52.621100
  C     -0.616575   75.747900   51.533100
  C     -0.377809   77.046500   51.223900
  H     -1.685840   74.609500   53.137500
  C     -0.027410   74.624200   50.656200
  H      1.018870   74.546600   50.719800
  H     -0.183748   74.977400   49.648200
  C     -0.632911   73.227800   50.672900
  H     -0.432087   72.506600   49.875600
  H     -1.667010   73.263200   50.802300
  C     -0.184682   72.360000   51.921900
  H     -0.283821   72.842300   52.912900
  H      0.864600   72.101700   51.924400
  H     -0.902911   71.551700   51.955500
  H      2.203830   79.586300   47.752500
  H     -2.176280   76.893500   54.198900

 Total Charge           Charge          ....    0
 Multiplicity           Mult            ....    1
 Number of Electrons    NEL             ....  134
 Basis Dimension        Dim             ....  322

ORBITAL ENERGIES
----------------

  NO   OCC          E(Eh)            E(eV)
   0   2.0000     -88.965031     -2420.8616
   1   2.0000     -88.963034     -2420.8072
   2   2.0000     -10.339360      -281.3483
   3   2.0000     -10.319440      -280.8062
   4   2.0000     -10.318177      -280.7719
   5   2.0000     -10.316764      -280.7334
   6   2.0000     -10.305269      -280.4206
   7   2.0000     -10.302679      -280.3501
   8   2.0000     -10.302472      -280.3445
   9   2.0000     -10.299571      -280.2656
  10   2.0000     -10.295789      -280.1627
  11   2.0000     -10.294151      -280.1181
  12   2.0000     -10.288850      -279.9738
  13   2.0000     -10.285064      -279.8708
  14   2.0000     -10.284482      -279.8550
  15   2.0000     -10.276479      -279.6372
  16   2.0000      -8.078768      -219.8345
  17   2.0000      -8.078677      -219.8320
  18   2.0000      -6.037293      -164.2831
  19   2.0000      -6.037079      -164.2773
  20   2.0000      -6.033799      -164.1880
  21   2.0000      -6.033201      -164.1717
  22   2.0000      -6.029605      -164.0739
  23   2.0000      -6.028954      -164.0562
  24   2.0000      -1.010596       -27.4997
  25   2.0000      -0.977399       -26.5964
  26   2.0000      -0.906916       -24.6784
  27   2.0000      -0.903648       -24.5895
  28   2.0000      -0.871026       -23.7018
  29   2.0000      -0.851060       -23.1585
  30   2.0000      -0.841061       -22.8864
  31   2.0000      -0.813811       -22.1449
  32   2.0000      -0.785051       -21.3623
  33   2.0000      -0.770602       -20.9691
  34   2.0000      -0.708544       -19.2805
  35   2.0000      -0.702301       -19.1106
  36   2.0000      -0.687600       -18.7105
  37   2.0000      -0.663660       -18.0591
  38   2.0000      -0.630675       -17.1615
  39   2.0000      -0.620119       -16.8743
  40   2.0000      -0.605252       -16.4697
  41   2.0000      -0.573037       -15.5931
  42   2.0000      -0.557429       -15.1684
  43   2.0000      -0.548924       -14.9370
  44   2.0000      -0.537914       -14.6374
  45   2.0000      -0.523850       -14.2547
  46   2.0000      -0.518102       -14.0983
  47   2.0000      -0.506855       -13.7922
  48   2.0000      -0.504930       -13.7398
  49   2.0000      -0.500416       -13.6170
  50   2.0000      -0.490903       -13.3581
  51   2.0000      -0.479080       -13.0364
  52   2.0000      -0.474817       -12.9204
  53   2.0000      -0.470768       -12.8102
  54   2.0000      -0.454513       -12.3679
  55   2.0000      -0.451713       -12.2917
  56   2.0000      -0.440227       -11.9792
  57   2.0000      -0.437485       -11.9046
  58   2.0000      -0.432751       -11.7758
  59   2.0000      -0.421683       -11.4746
  60   2.0000      -0.420290       -11.4367
  61   2.0000      -0.412916       -11.2360
  62   2.0000      -0.409313       -11.1380
  63   2.0000      -0.351963        -9.5774
  64   2.0000      -0.333172        -9.0661
  65   2.0000      -0.326103        -8.8737
  66   2.0000      -0.284651        -7.7457
  67   0.0000       0.020440         0.5562
  68   0.0000       0.060562         1.6480
  69   0.0000       0.094893         2.5822
  70   0.0000       0.123108         3.3499
  71   0.0000       0.135390         3.6841

MULLIKEN ATOMIC CHARGES
-----------------------
   0 S :    0.089233
   1 C :   -0.136990
   2 C :   -0.111891
   3 C :    0.035781
   4 C :   -0.147319
   5 H :    0.021517
   6 C :    0.067461
   7 H :    0.005275
   8 H :    0.049331
   9 C :   -0.101002
  10 H :    0.044040
  11 H :    0.043581
  12 C :   -0.067705
  13 H :    0.044321
  14 H :    0.026618
  15 H :    0.042970
  16 S :    0.093974
  17 C :   -0.092691
  18 C :   -0.023179
  19 C :   -0.053283
  20 C :   -0.121603
  21 H :    0.026445
  22 C :    0.100964
  23 H :    0.015278
  24 H :    0.037403
  25 C :   -0.049959
  26 H :    0.040054
  27 H :    0.014226
  28 C :   -0.096880
  29 H :    0.019396
  30 H :    0.032406
  31 H :    0.032586
  32 H :    0.071133
  33 H :    0.048510
Sum of atomic charges:   -0.0000000

LOEWDIN ATOMIC CHARGES
----------------------
   0 S :    0.359634
   1 C :   -0.199344
   2 C :   -0.063650
   3 C :   -0.058204
   4 C :   -0.166850
   5 H :    0.030150
   6 C :   -0.034494
   7 H :    0.023287
   8 H :    0.035345
   9 C :   -0.041859
  10 H :    0.030205
  11 H :    0.029857
  12 C :   -0.073597
  13 H :    0.031590
  14 H :    0.019094
  15 H :    0.033909
  16 S :    0.408451
  17 C :   -0.162666
  18 C :   -0.073724
  19 C :   -0.049827
  20 C :   -0.208001
  21 H :    0.036491
  22 C :   -0.029030
  23 H :    0.021929
  24 H :    0.039140
  25 C :   -0.034354
  26 H :    0.033771
  27 H :    0.015655
  28 C :   -0.072560
  29 H :    0.018641
  30 H :    0.020255
  31 H :    0.024454
  32 H :    0.036340
  33 H :    0.019962

  Mayer bond orders larger than 0.100000
B(  0-S ,  1-C ) :   1.1148 B(  0-S ,  4-C ) :   1.1344 B(  1-C ,  2-C ) :   1.6428
B(  1-C ,  4-C ) :   0.1011 B(  1-C , 32-H ) :   0.9543 B(  2-C ,  3-C ) :   1.2261
B(  2-C ,  6-C ) :   1.0149 B(  3-C ,  4-C ) :   1.5526 B(  3-C ,  5-H ) :   0.9927
B(  4-C , 20-C ) :   1.0544 B(  6-C ,  7-H ) :   0.9418 B(  6-C ,  8-H ) :   0.9397
B(  6-C ,  9-C ) :   1.0632 B(  9-C , 10-H ) :   0.9565 B(  9-C , 11-H ) :   0.9553
B(  9-C , 12-C ) :   1.0835 B( 12-C , 13-H ) :   0.9745 B( 12-C , 14-H ) :   0.9736
B( 12-C , 15-H ) :   0.9736 B( 16-S , 17-C ) :   1.1795 B( 16-S , 20-C ) :   1.1308
B( 17-C , 18-C ) :   1.5852 B( 17-C , 33-H ) :   0.9717 B( 18-C , 19-C ) :   1.2468
B( 18-C , 21-H ) :   0.9909 B( 19-C , 20-C ) :   1.6316 B( 19-C , 22-C ) :   1.0069
B( 22-C , 23-H ) :   0.9326 B( 22-C , 24-H ) :   0.9358 B( 22-C , 25-C ) :   1.0772
B( 25-C , 26-H ) :   0.9586 B( 25-C , 27-H ) :   0.9560 B( 25-C , 28-C ) :   1.0633
B( 28-C , 29-H ) :   0.9766 B( 28-C , 30-H ) :   0.9756 B( 28-C , 31-H ) :   0.9787

Dispersion correction           -0.013709009
FINAL SINGLE POINT ENERGY     -1339.847115115508

DIPOLE MOMENT
-------------
                                X             Y             Z
Electronic contribution:    -20.73714      19.39266       3.13402
Nuclear contribution   :     21.32819     -19.84596      -2.96269
                        -----------------------------------------
Total Dipole Moment    :      0.59105      -0.45330       0.17133
                        -----------------------------------------
Magnitude (a.u.)       :      0.76431
Magnitude (Debye)      :      1.94273

Rotational constants in cm-1:     0.017921     0.007813     0.006205
Rotational constants in MHz :   537.259156   234.231880   186.016011

                             ****ORCA TERMINATED NORMALLY****
TOTAL RUN TIME: 0 days 0 hours 0 minutes 32 seconds 895 msec
