                         Program Version 4.2.1 -  RELEASE  -
|  1> ! wB97X-D3 SP def2-SVP
|  2> %pal
|  3> nprocs 16
|  4> end
|  5>
|  6> * xyz 0 1
|  7> S 	 -18.7522 	 -8.74465 	 82.2761
|  8> C 	 -18.2776 	 -9.16296 	 80.67
|  9> C 	 -16.9266 	 -9.29741 	 80.5706
| 10> C 	 -16.254 	 -8.71945 	 81.7379
| 11> C 	 -17.0726 	 -8.29193 	 82.7312
| 12> H 	 -15.1919 	 -8.51644 	 81.9109
| 13> C 	 -16.1634 	 -9.59498 	 79.257
| 14> H 	 -16.8043 	 -9.32135 	 78.4124
| 15> H 	 -16.0898 	 -10.6505 	 79.1222
| 16> C 	 -14.8222 	 -8.86689 	 79.1555
| 17> H 	 -15.008 	 -7.79553 	 78.8426
| 18> H 	 -14.2714 	 -8.84786 	 80.1233
| 19> C 	 -13.8617 	 -9.57628 	 78.1733
| 20> H 	 -12.931 	 -8.97206 	 77.9698
| 21> H 	 -13.6263 	 -10.6269 	 78.5391
| 22> H 	 -14.4373 	 -9.68255 	 77.2261
| 23> S 	 -16.129 	 -8.64906 	 85.2382
| 24> C 	 -15.7891 	 -7.23327 	 86.2568
| 25> C 	 -16.3403 	 -6.03453 	 85.7006
| 26> C 	 -16.9356 	 -6.32532 	 84.4499
| 27> C 	 -16.6757 	 -7.59247 	 83.9708
| 28> H 	 -16.3928 	 -5.17947 	 86.2964
| 29> C 	 -17.7142 	 -5.23649 	 83.7313
| 30> H 	 -18.643 	 -5.08369 	 84.3091
| 31> H 	 -18.0494 	 -5.54399 	 82.7505
| 32> C 	 -16.96 	 -3.9503 	 83.6569
| 33> H 	 -16.0412 	 -4.07475 	 83.1633
| 34> H 	 -16.6848 	 -3.59627 	 84.5724
| 35> C 	 -17.6927 	 -2.77313 	 83.0266
| 36> H 	 -17.009 	 -2.1681 	 82.4691
| 37> H 	 -18.0703 	 -2.20303 	 83.8405
| 38> H 	 -18.5423 	 -3.01267 	 82.4861
| 39> H 	 -19.0047 	 -9.51739 	 79.918
| 40> H 	 -15.1905 	 -7.17293 	 87.1869
| 41> *
| 42>
| 43>                          ****END OF INPUT****

CARTESIAN COORDINATES (ANGSTROEM)
---------------------------------
  S    -18.752200   -8.744650   82.276100
  C    -18.277600   -9.162960   80.670000
  C    -16.926600   -9.297410   80.570600
  C    -16.254000   -8.719450   81.737900
  C    -17.072600   -8.291930   82.731200
  H    -15.191900   -8.516440   81.910900
  C    -16.163400   -9.594980   79.257000
  H    -16.804300   -9.321350   78.412400
  H    -16.089800  -10.650500   79.122200
  C    -14.822200   -8.866890   79.155500
  H    -15.008000   -7.795530   78.842600
  H    -14.271400   -8.847860   80.123300
  C    -13.861700   -9.576280   78.173300
  H    -12.931000   -8.972060   77.969800
  H    -13.626300  -10.626900   78.539100
  H    -14.437300   -9.682550   77.226100
  S    -16.129000   -8.649060   85.238200
  C    -15.789100   -7.233270   86.256800
  C    -16.340300   -6.034530   85.700600
  C    -16.935600   -6.325320   84.449900
  C    -16.675700   -7.592470   83.970800
  H    -16.392800   -5.179470   86.296400
  C    -17.714200   -5.236490   83.731300
  H    -18.643000   -5.083690   84.309100
  H    -18.049400   -5.543990   82.750500
  C    -16.960000   -3.950300   83.656900
  H    -16.041200   -4.074750   83.163300
  H    -16.684800   -3.596270   84.572400
  C    -17.692700   -2.773130   83.026600
  H    -17.009000   -2.168100   82.469100
  H    -18.070300   -2.203030   83.840500
  H    -18.542300   -3.012670   82.486100
  H    -19.004700   -9.517390   79.918000
  H    -15.190500   -7.172930   87.186900

 Total Charge           Charge          ....    0
 Multiplicity           Mult            ....    1
 Number of Electrons    NEL             ....  134
 Basis Dimension        Dim             ....  322

ORBITAL ENERGIES
----------------

  NO   OCC          E(Eh)            E(eV)
   0   2.0000     -88.968516     -2420.9564
   1   2.0000     -88.958503     -2420.6839
   2   2.0000     -10.327247      -281.0187
   3   2.0000     -10.325921      -280.9826
   4   2.0000     -10.323705      -280.9223
   5   2.0000     -10.314140      -280.6620
   6   2.0000     -10.303466      -280.3716
   7   2.0000     -10.303156      -280.3631
   8   2.0000     -10.294841      -280.1369
   9   2.0000     -10.293985      -280.1136
  10   2.0000     -10.292630      -280.0767
  11   2.0000     -10.292562      -280.0748
  12   2.0000     -10.289338      -279.9871
  13   2.0000     -10.285856      -279.8924
  14   2.0000     -10.265321      -279.3336
  15   2.0000     -10.261904      -279.2406
  16   2.0000      -8.082735      -219.9424
  17   2.0000      -8.073268      -219.6848
  18   2.0000      -6.041265      -164.3912
  19   2.0000      -6.037401      -164.2860
  20   2.0000      -6.033405      -164.1773
  21   2.0000      -6.031826      -164.1343
  22   2.0000      -6.027832      -164.0257
  23   2.0000      -6.023898      -163.9186
  24   2.0000      -1.003581       -27.3088
  25   2.0000      -0.982803       -26.7434
  26   2.0000      -0.916190       -24.9308
  27   2.0000      -0.906452       -24.6658
  28   2.0000      -0.869225       -23.6528
  29   2.0000      -0.852798       -23.2058
  30   2.0000      -0.837995       -22.8030
  31   2.0000      -0.816176       -22.2093
  32   2.0000      -0.781090       -21.2546
  33   2.0000      -0.766464       -20.8565
  34   2.0000      -0.709084       -19.2952
  35   2.0000      -0.701182       -19.0801
  36   2.0000      -0.683199       -18.5908
  37   2.0000      -0.664533       -18.0829
  38   2.0000      -0.642768       -17.4906
  39   2.0000      -0.615766       -16.7558
  40   2.0000      -0.594956       -16.1896
  41   2.0000      -0.570705       -15.5297
  42   2.0000      -0.564296       -15.3553
  43   2.0000      -0.560036       -15.2394
  44   2.0000      -0.533920       -14.5287
  45   2.0000      -0.523953       -14.2575
  46   2.0000      -0.522216       -14.2102
  47   2.0000      -0.506965       -13.7952
  48   2.0000      -0.501021       -13.6335
  49   2.0000      -0.496084       -13.4991
  50   2.0000      -0.488957       -13.3052
  51   2.0000      -0.479673       -13.0526
  52   2.0000      -0.470058       -12.7909
  53   2.0000      -0.464248       -12.6328
  54   2.0000      -0.455267       -12.3884
  55   2.0000      -0.447683       -12.1821
  56   2.0000      -0.443441       -12.0666
  57   2.0000      -0.441481       -12.0133
  58   2.0000      -0.435890       -11.8612
  59   2.0000      -0.423619       -11.5273
  60   2.0000      -0.419230       -11.4078
  61   2.0000      -0.412307       -11.2195
  62   2.0000      -0.407458       -11.0875
  63   2.0000      -0.334871        -9.1123
  64   2.0000      -0.331660        -9.0249
  65   2.0000      -0.316882        -8.6228
  66   2.0000      -0.307639        -8.3713
  67   0.0000       0.032847         0.8938
  68   0.0000       0.061755         1.6804
  69   0.0000       0.101061         2.7500
  70   0.0000       0.124434         3.3860
  71   0.0000       0.133054         3.6206

MULLIKEN ATOMIC CHARGES
-----------------------
   0 S :    0.099408
   1 C :   -0.141814
   2 C :   -0.054062
   3 C :    0.017524
   4 C :   -0.161836
   5 H :    0.020971
   6 C :    0.077173
   7 H :    0.024411
   8 H :    0.024508
   9 C :   -0.117843
  10 H :    0.048340
  11 H :    0.050108
  12 C :   -0.091262
  13 H :    0.050829
  14 H :    0.047739
  15 H :    0.031406
  16 S :    0.124861
  17 C :   -0.106879
  18 C :   -0.038633
  19 C :   -0.015117
  20 C :   -0.197832
  21 H :    0.010236
  22 C :    0.113453
  23 H :    0.030910
  24 H :    0.017282
  25 C :   -0.069226
  26 H :    0.013814
  27 H :   -0.004883
  28 C :    0.013638
  29 H :    0.027666
  30 H :    0.011747
  31 H :    0.010090
  32 H :    0.064911
  33 H :    0.068363
Sum of atomic charges:    0.0000000

LOEWDIN ATOMIC CHARGES
----------------------
   0 S :    0.377119
   1 C :   -0.197371
   2 C :   -0.067491
   3 C :   -0.060228
   4 C :   -0.189665
   5 H :    0.035598
   6 C :   -0.031870
   7 H :    0.033511
   8 H :    0.026215
   9 C :   -0.050167
  10 H :    0.032876
  11 H :    0.025674
  12 C :   -0.074913
  13 H :    0.032001
  14 H :    0.031383
  15 H :    0.023517
  16 S :    0.414196
  17 C :   -0.179890
  18 C :   -0.063914
  19 C :   -0.045057
  20 C :   -0.212933
  21 H :    0.023920
  22 C :   -0.024393
  23 H :    0.036675
  24 H :    0.025513
  25 C :   -0.035518
  26 H :    0.020127
  27 H :    0.009384
  28 C :   -0.050037
  29 H :    0.026627
  30 H :    0.023312
  31 H :    0.014833
  32 H :    0.035956
  33 H :    0.035012

  Mayer bond orders larger than 0.100000
B(  0-S ,  1-C ) :   1.1433 B(  0-S ,  4-C ) :   1.1025 B(  1-C ,  2-C ) :   1.6498
B(  1-C , 32-H ) :   0.9619 B(  2-C ,  3-C ) :   1.1896 B(  2-C ,  6-C ) :   1.0062
B(  3-C ,  4-C ) :   1.6583 B(  3-C ,  5-H ) :   0.9817 B(  4-C , 20-C ) :   1.0231
B(  6-C ,  7-H ) :   0.9447 B(  6-C ,  8-H ) :   0.9362 B(  6-C ,  9-C ) :   1.0642
B(  9-C , 10-H ) :   0.9546 B(  9-C , 11-H ) :   0.9537 B(  9-C , 12-C ) :   1.0746
B( 12-C , 13-H ) :   0.9731 B( 12-C , 14-H ) :   0.9757 B( 12-C , 15-H ) :   0.9754
B( 16-S , 17-C ) :   1.1689 B( 16-S , 20-C ) :   1.1455 B( 17-C , 18-C ) :   1.5911
B( 17-C , 20-C ) :   0.1097 B( 17-C , 33-H ) :   0.9616 B( 18-C , 19-C ) :   1.2409
B( 18-C , 21-H ) :   0.9981 B( 19-C , 20-C ) :   1.5902 B( 19-C , 22-C ) :   1.0448
B( 22-C , 23-H ) :   0.9259 B( 22-C , 24-H ) :   0.9303 B( 22-C , 25-C ) :   1.0735
B( 25-C , 26-H ) :   0.9588 B( 25-C , 27-H ) :   0.9521 B( 25-C , 28-C ) :   1.0797
B( 28-C , 29-H ) :   0.9752 B( 28-C , 30-H ) :   0.9765 B( 28-C , 31-H ) :   0.9749

Dispersion correction           -0.013540884
FINAL SINGLE POINT ENERGY     -1339.855708957159

DIPOLE MOMENT
-------------
                                X             Y             Z
Electronic contribution:     -8.66899     -14.29017      17.50735
Nuclear contribution   :      8.86233      14.67989     -17.75324
                        -----------------------------------------
Total Dipole Moment    :      0.19334       0.38972      -0.24589
                        -----------------------------------------
Magnitude (a.u.)       :      0.49972
Magnitude (Debye)      :      1.27019

Rotational constants in cm-1:     0.017000     0.007735     0.006983
Rotational constants in MHz :   509.637891   231.889278   209.335636

                             ****ORCA TERMINATED NORMALLY****
TOTAL RUN TIME: 0 days 0 hours 0 minutes 31 seconds 809 msec
