                         Program Version 4.2.1 -  RELEASE  -
|  1> ! wB97X-D3 SP def2-SVP
|  2> %pal
|  3> nprocs 16
|  4> end
|  5>
|  6> * xyz 0 1
|  7> S 	 45.6285 	 5.17723 	 88.1072
|  8> C 	 45.6881 	 5.95571 	 86.5288
|  9> C 	 46.8596 	 5.77316 	 85.8174
| 10> C 	 47.6499 	 4.85659 	 86.5614
| 11> C 	 47.1894 	 4.53926 	 87.8175
| 12> H 	 48.5634 	 4.44034 	 86.2153
| 13> C 	 47.2351 	 6.20389 	 84.4601
| 14> H 	 48.0176 	 6.95805 	 84.5553
| 15> H 	 46.3877 	 6.74367 	 83.993
| 16> C 	 47.6293 	 4.94641 	 83.511
| 17> H 	 48.4345 	 4.33292 	 83.9727
| 18> H 	 46.7442 	 4.33123 	 83.3444
| 19> C 	 48.1007 	 5.44131 	 82.1048
| 20> H 	 49.0464 	 6.01659 	 82.214
| 21> H 	 48.1944 	 4.56032 	 81.5029
| 22> H 	 47.4206 	 6.11824 	 81.5179
| 23> S 	 46.979 	 2.47652 	 89.518
| 24> C 	 48.3571 	 1.94757 	 90.4729
| 25> C 	 49.5157 	 2.68314 	 90.1911
| 26> C 	 49.2121 	 3.67505 	 89.1967
| 27> C 	 47.8748 	 3.66629 	 88.7522
| 28> H 	 50.4346 	 2.33632 	 90.5706
| 29> C 	 50.2906 	 4.51918 	 88.6639
| 30> H 	 50.8013 	 5.01601 	 89.4994
| 31> H 	 49.8356 	 5.23023 	 87.9857
| 32> C 	 51.3126 	 3.80048 	 87.7133
| 33> H 	 50.8844 	 3.51974 	 86.6983
| 34> H 	 51.5937 	 2.89187 	 88.169
| 35> C 	 52.62 	 4.61208 	 87.4835
| 36> H 	 53.0819 	 4.18939 	 86.636
| 37> H 	 53.2206 	 4.55806 	 88.3413
| 38> H 	 52.3562 	 5.65411 	 87.3514
| 39> H 	 44.7961 	 6.34704 	 86.2464
| 40> H 	 48.3717 	 0.971748 	 90.9295
| 41> *
| 42>
| 43>                          ****END OF INPUT****

CARTESIAN COORDINATES (ANGSTROEM)
---------------------------------
  S     45.628500    5.177230   88.107200
  C     45.688100    5.955710   86.528800
  C     46.859600    5.773160   85.817400
  C     47.649900    4.856590   86.561400
  C     47.189400    4.539260   87.817500
  H     48.563400    4.440340   86.215300
  C     47.235100    6.203890   84.460100
  H     48.017600    6.958050   84.555300
  H     46.387700    6.743670   83.993000
  C     47.629300    4.946410   83.511000
  H     48.434500    4.332920   83.972700
  H     46.744200    4.331230   83.344400
  C     48.100700    5.441310   82.104800
  H     49.046400    6.016590   82.214000
  H     48.194400    4.560320   81.502900
  H     47.420600    6.118240   81.517900
  S     46.979000    2.476520   89.518000
  C     48.357100    1.947570   90.472900
  C     49.515700    2.683140   90.191100
  C     49.212100    3.675050   89.196700
  C     47.874800    3.666290   88.752200
  H     50.434600    2.336320   90.570600
  C     50.290600    4.519180   88.663900
  H     50.801300    5.016010   89.499400
  H     49.835600    5.230230   87.985700
  C     51.312600    3.800480   87.713300
  H     50.884400    3.519740   86.698300
  H     51.593700    2.891870   88.169000
  C     52.620000    4.612080   87.483500
  H     53.081900    4.189390   86.636000
  H     53.220600    4.558060   88.341300
  H     52.356200    5.654110   87.351400
  H     44.796100    6.347040   86.246400
  H     48.371700    0.971748   90.929500

 Total Charge           Charge          ....    0
 Multiplicity           Mult            ....    1
 Number of Electrons    NEL             ....  134
 Basis Dimension        Dim             ....  322

ORBITAL ENERGIES
----------------

  NO   OCC          E(Eh)            E(eV)
   0   2.0000     -88.964528     -2420.8479
   1   2.0000     -88.964427     -2420.8451
   2   2.0000     -10.321687      -280.8674
   3   2.0000     -10.319858      -280.8176
   4   2.0000     -10.315504      -280.6991
   5   2.0000     -10.306297      -280.4486
   6   2.0000     -10.302424      -280.3432
   7   2.0000     -10.300231      -280.2835
   8   2.0000     -10.299996      -280.2771
   9   2.0000     -10.299626      -280.2671
  10   2.0000     -10.294587      -280.1300
  11   2.0000     -10.287648      -279.9411
  12   2.0000     -10.286105      -279.8991
  13   2.0000     -10.285105      -279.8719
  14   2.0000     -10.284169      -279.8465
  15   2.0000     -10.270208      -279.4666
  16   2.0000      -8.080564      -219.8833
  17   2.0000      -8.080084      -219.8703
  18   2.0000      -6.038835      -164.3251
  19   2.0000      -6.038383      -164.3127
  20   2.0000      -6.034765      -164.2143
  21   2.0000      -6.034630      -164.2106
  22   2.0000      -6.031621      -164.1288
  23   2.0000      -6.030862      -164.1081
  24   2.0000      -1.013416       -27.5765
  25   2.0000      -0.987678       -26.8761
  26   2.0000      -0.910329       -24.7713
  27   2.0000      -0.906209       -24.6592
  28   2.0000      -0.869811       -23.6688
  29   2.0000      -0.853711       -23.2307
  30   2.0000      -0.849699       -23.1215
  31   2.0000      -0.816118       -22.2077
  32   2.0000      -0.782404       -21.2903
  33   2.0000      -0.767766       -20.8920
  34   2.0000      -0.708404       -19.2766
  35   2.0000      -0.699907       -19.0454
  36   2.0000      -0.693176       -18.8623
  37   2.0000      -0.667090       -18.1524
  38   2.0000      -0.648002       -17.6330
  39   2.0000      -0.626693       -17.0532
  40   2.0000      -0.594971       -16.1900
  41   2.0000      -0.570291       -15.5184
  42   2.0000      -0.564959       -15.3733
  43   2.0000      -0.556033       -15.1304
  44   2.0000      -0.532462       -14.4890
  45   2.0000      -0.527725       -14.3601
  46   2.0000      -0.517390       -14.0789
  47   2.0000      -0.513662       -13.9775
  48   2.0000      -0.509791       -13.8721
  49   2.0000      -0.502925       -13.6853
  50   2.0000      -0.491261       -13.3679
  51   2.0000      -0.475719       -12.9450
  52   2.0000      -0.466761       -12.7012
  53   2.0000      -0.464542       -12.6408
  54   2.0000      -0.458081       -12.4650
  55   2.0000      -0.456352       -12.4180
  56   2.0000      -0.443058       -12.0562
  57   2.0000      -0.439951       -11.9717
  58   2.0000      -0.439238       -11.9523
  59   2.0000      -0.432485       -11.7685
  60   2.0000      -0.422132       -11.4868
  61   2.0000      -0.416460       -11.3324
  62   2.0000      -0.414775       -11.2866
  63   2.0000      -0.347407        -9.4534
  64   2.0000      -0.331501        -9.0206
  65   2.0000      -0.326844        -8.8939
  66   2.0000      -0.286564        -7.7978
  67   0.0000       0.033140         0.9018
  68   0.0000       0.074916         2.0386
  69   0.0000       0.109998         2.9932
  70   0.0000       0.118533         3.2254
  71   0.0000       0.127515         3.4699

MULLIKEN ATOMIC CHARGES
-----------------------
   0 S :    0.108725
   1 C :   -0.116057
   2 C :   -0.021291
   3 C :    0.004809
   4 C :   -0.129726
   5 H :   -0.021749
   6 C :    0.073643
   7 H :    0.040652
   8 H :    0.022081
   9 C :   -0.114717
  10 H :    0.051682
  11 H :    0.046207
  12 C :   -0.063091
  13 H :    0.038913
  14 H :    0.035629
  15 H :    0.037008
  16 S :    0.108563
  17 C :   -0.107680
  18 C :   -0.014097
  19 C :   -0.041265
  20 C :   -0.142595
  21 H :    0.010959
  22 C :    0.059453
  23 H :    0.032973
  24 H :    0.018539
  25 C :   -0.105215
  26 H :    0.036817
  27 H :    0.008346
  28 C :    0.000900
  29 H :    0.029212
  30 H :    0.021432
  31 H :    0.025345
  32 H :    0.004662
  33 H :    0.060932
Sum of atomic charges:    0.0000000

LOEWDIN ATOMIC CHARGES
----------------------
   0 S :    0.413116
   1 C :   -0.172763
   2 C :   -0.059214
   3 C :   -0.061301
   4 C :   -0.205258
   5 H :    0.018787
   6 C :   -0.032331
   7 H :    0.034948
   8 H :    0.033753
   9 C :   -0.030809
  10 H :    0.028460
  11 H :    0.028455
  12 C :   -0.073530
  13 H :    0.027849
  14 H :    0.023710
  15 H :    0.028850
  16 S :    0.436713
  17 C :   -0.186650
  18 C :   -0.056670
  19 C :   -0.058086
  20 C :   -0.224605
  21 H :    0.026762
  22 C :   -0.039188
  23 H :    0.034045
  24 H :    0.027370
  25 C :   -0.033376
  26 H :    0.025277
  27 H :    0.009653
  28 C :   -0.052113
  29 H :    0.022578
  30 H :    0.017998
  31 H :    0.024003
  32 H :   -0.001698
  33 H :    0.025265

  Mayer bond orders larger than 0.100000
B(  0-S ,  1-C ) :   1.1442 B(  0-S ,  4-C ) :   1.1564 B(  1-C ,  2-C ) :   1.5777
B(  1-C , 32-H ) :   0.9860 B(  2-C ,  3-C ) :   1.2353 B(  2-C ,  6-C ) :   1.0398
B(  3-C ,  4-C ) :   1.5707 B(  3-C ,  5-H ) :   0.9968 B(  4-C , 20-C ) :   1.0335
B(  6-C ,  7-H ) :   0.9302 B(  6-C ,  8-H ) :   0.9407 B(  6-C ,  9-C ) :   1.0455
B(  9-C , 10-H ) :   0.9564 B(  9-C , 11-H ) :   0.9604 B(  9-C , 12-C ) :   1.0783
B( 12-C , 13-H ) :   0.9766 B( 12-C , 14-H ) :   0.9754 B( 12-C , 15-H ) :   0.9760
B( 16-S , 17-C ) :   1.1705 B( 16-S , 20-C ) :   1.1654 B( 17-C , 18-C ) :   1.5861
B( 17-C , 33-H ) :   0.9653 B( 18-C , 19-C ) :   1.2464 B( 18-C , 21-H ) :   0.9980
B( 19-C , 20-C ) :   1.5537 B( 19-C , 22-C ) :   1.0761 B( 22-C , 23-H ) :   0.9328
B( 22-C , 24-H ) :   0.9193 B( 22-C , 25-C ) :   1.0554 B( 25-C , 26-H ) :   0.9560
B( 25-C , 27-H ) :   0.9591 B( 25-C , 28-C ) :   1.0741 B( 28-C , 29-H ) :   0.9752
B( 28-C , 30-H ) :   0.9772 B( 28-C , 31-H ) :   0.9760

Dispersion correction           -0.014025016
FINAL SINGLE POINT ENERGY     -1339.871385289422

DIPOLE MOMENT
-------------
                                X             Y             Z
Electronic contribution:    -21.87290      -6.11354      22.52626
Nuclear contribution   :     22.37677       6.04543     -23.09516
                        -----------------------------------------
Total Dipole Moment    :      0.50387      -0.06811      -0.56890
                        -----------------------------------------
Magnitude (a.u.)       :      0.76300
Magnitude (Debye)      :      1.93939

Rotational constants in cm-1:     0.016127     0.009619     0.006734
Rotational constants in MHz :   483.479286   288.355801   201.891815

                             ****ORCA TERMINATED NORMALLY****
TOTAL RUN TIME: 0 days 0 hours 0 minutes 31 seconds 31 msec
