                         Program Version 4.2.1 -  RELEASE  -
|  1> ! wB97X-D3 SP def2-SVP
|  2> %pal
|  3> nprocs 16
|  4> end
|  5>
|  6> * xyz 0 1
|  7> S 	 -40.7722 	 -9.06934 	 99.9032
|  8> C 	 -42.4985 	 -8.9639 	 99.6019
|  9> C 	 -43.0005 	 -7.71894 	 99.6015
| 10> C 	 -41.9971 	 -6.7746 	 100.015
| 11> C 	 -40.7897 	 -7.35114 	 100.363
| 12> H 	 -42.1205 	 -5.69265 	 100.05
| 13> C 	 -44.3967 	 -7.30531 	 99.1825
| 14> H 	 -44.6716 	 -6.43134 	 99.7827
| 15> H 	 -45.1169 	 -8.1052 	 99.4741
| 16> C 	 -44.6967 	 -6.93172 	 97.717
| 17> H 	 -45.7283 	 -6.73255 	 97.4816
| 18> H 	 -44.222 	 -6.00834 	 97.5922
| 19> C 	 -44.2312 	 -7.99716 	 96.7405
| 20> H 	 -43.1621 	 -8.28457 	 96.813
| 21> H 	 -44.759 	 -8.91269 	 96.7666
| 22> H 	 -44.3681 	 -7.55474 	 95.764
| 23> S 	 -38.0024 	 -7.13806 	 99.9539
| 24> C 	 -37.1424 	 -6.40113 	 101.274
| 25> C 	 -37.9457 	 -5.74653 	 102.161
| 26> C 	 -39.3251 	 -5.97045 	 101.879
| 27> C 	 -39.5498 	 -6.70296 	 100.727
| 28> H 	 -37.4008 	 -5.34312 	 102.964
| 29> C 	 -40.4161 	 -5.56304 	 102.835
| 30> H 	 -41.3361 	 -6.0626 	 102.501
| 31> H 	 -40.6988 	 -4.53949 	 102.605
| 32> C 	 -40.3434 	 -5.87288 	 104.341
| 33> H 	 -39.6282 	 -5.19498 	 104.739
| 34> H 	 -39.9291 	 -6.83239 	 104.674
| 35> C 	 -41.6394 	 -5.66495 	 105.124
| 36> H 	 -41.6162 	 -5.85954 	 106.174
| 37> H 	 -42.3542 	 -6.26394 	 104.71
| 38> H 	 -41.952 	 -4.64799 	 104.982
| 39> H 	 -43.0779 	 -9.81901 	 99.2228
| 40> H 	 -36.0912 	 -6.48499 	 101.479
| 41> *
| 42>
| 43>                          ****END OF INPUT****

CARTESIAN COORDINATES (ANGSTROEM)
---------------------------------
  S    -40.772200   -9.069340   99.903200
  C    -42.498500   -8.963900   99.601900
  C    -43.000500   -7.718940   99.601500
  C    -41.997100   -6.774600  100.015000
  C    -40.789700   -7.351140  100.363000
  H    -42.120500   -5.692650  100.050000
  C    -44.396700   -7.305310   99.182500
  H    -44.671600   -6.431340   99.782700
  H    -45.116900   -8.105200   99.474100
  C    -44.696700   -6.931720   97.717000
  H    -45.728300   -6.732550   97.481600
  H    -44.222000   -6.008340   97.592200
  C    -44.231200   -7.997160   96.740500
  H    -43.162100   -8.284570   96.813000
  H    -44.759000   -8.912690   96.766600
  H    -44.368100   -7.554740   95.764000
  S    -38.002400   -7.138060   99.953900
  C    -37.142400   -6.401130  101.274000
  C    -37.945700   -5.746530  102.161000
  C    -39.325100   -5.970450  101.879000
  C    -39.549800   -6.702960  100.727000
  H    -37.400800   -5.343120  102.964000
  C    -40.416100   -5.563040  102.835000
  H    -41.336100   -6.062600  102.501000
  H    -40.698800   -4.539490  102.605000
  C    -40.343400   -5.872880  104.341000
  H    -39.628200   -5.194980  104.739000
  H    -39.929100   -6.832390  104.674000
  C    -41.639400   -5.664950  105.124000
  H    -41.616200   -5.859540  106.174000
  H    -42.354200   -6.263940  104.710000
  H    -41.952000   -4.647990  104.982000
  H    -43.077900   -9.819010   99.222800
  H    -36.091200   -6.484990  101.479000

 Total Charge           Charge          ....    0
 Multiplicity           Mult            ....    1
 Number of Electrons    NEL             ....  134
 Basis Dimension        Dim             ....  322

ORBITAL ENERGIES
----------------

  NO   OCC          E(Eh)            E(eV)
   0   2.0000     -88.966367     -2420.8979
   1   2.0000     -88.964987     -2420.8604
   2   2.0000     -10.329532      -281.0809
   3   2.0000     -10.324246      -280.9370
   4   2.0000     -10.313358      -280.6407
   5   2.0000     -10.311454      -280.5889
   6   2.0000     -10.304885      -280.4102
   7   2.0000     -10.298743      -280.2430
   8   2.0000     -10.296383      -280.1788
   9   2.0000     -10.293872      -280.1105
  10   2.0000     -10.287886      -279.9476
  11   2.0000     -10.287425      -279.9351
  12   2.0000     -10.281600      -279.7765
  13   2.0000     -10.281425      -279.7718
  14   2.0000     -10.270269      -279.4682
  15   2.0000     -10.264943      -279.3233
  16   2.0000      -8.080786      -219.8894
  17   2.0000      -8.079462      -219.8533
  18   2.0000      -6.039373      -164.3397
  19   2.0000      -6.038024      -164.3030
  20   2.0000      -6.035415      -164.2320
  21   2.0000      -6.034279      -164.2011
  22   2.0000      -6.031410      -164.1230
  23   2.0000      -6.029900      -164.0819
  24   2.0000      -1.006537       -27.3893
  25   2.0000      -0.984679       -26.7945
  26   2.0000      -0.912170       -24.8214
  27   2.0000      -0.907518       -24.6948
  28   2.0000      -0.873133       -23.7591
  29   2.0000      -0.855796       -23.2874
  30   2.0000      -0.845386       -23.0041
  31   2.0000      -0.816846       -22.2275
  32   2.0000      -0.786453       -21.4005
  33   2.0000      -0.775374       -21.0990
  34   2.0000      -0.712818       -19.3968
  35   2.0000      -0.703922       -19.1547
  36   2.0000      -0.698700       -19.0126
  37   2.0000      -0.654307       -17.8046
  38   2.0000      -0.637544       -17.3485
  39   2.0000      -0.620723       -16.8907
  40   2.0000      -0.596839       -16.2408
  41   2.0000      -0.569535       -15.4978
  42   2.0000      -0.561700       -15.2846
  43   2.0000      -0.553100       -15.0506
  44   2.0000      -0.547375       -14.8948
  45   2.0000      -0.528904       -14.3922
  46   2.0000      -0.521182       -14.1821
  47   2.0000      -0.512403       -13.9432
  48   2.0000      -0.499231       -13.5848
  49   2.0000      -0.494664       -13.4605
  50   2.0000      -0.490016       -13.3340
  51   2.0000      -0.481196       -13.0940
  52   2.0000      -0.470179       -12.7942
  53   2.0000      -0.462367       -12.5816
  54   2.0000      -0.461878       -12.5683
  55   2.0000      -0.451633       -12.2896
  56   2.0000      -0.449645       -12.2355
  57   2.0000      -0.437126       -11.8948
  58   2.0000      -0.429689       -11.6924
  59   2.0000      -0.428377       -11.6567
  60   2.0000      -0.423780       -11.5316
  61   2.0000      -0.414499       -11.2791
  62   2.0000      -0.404391       -11.0040
  63   2.0000      -0.347492        -9.4557
  64   2.0000      -0.334650        -9.1063
  65   2.0000      -0.329548        -8.9675
  66   2.0000      -0.291387        -7.9290
  67   0.0000       0.026707         0.7267
  68   0.0000       0.069237         1.8840
  69   0.0000       0.108326         2.9477
  70   0.0000       0.125725         3.4212
  71   0.0000       0.130863         3.5610

MULLIKEN ATOMIC CHARGES
-----------------------
   0 S :    0.102826
   1 C :   -0.128881
   2 C :   -0.069452
   3 C :    0.019676
   4 C :   -0.154390
   5 H :    0.018217
   6 C :    0.041609
   7 H :    0.022522
   8 H :    0.029737
   9 C :   -0.015147
  10 H :    0.027389
  11 H :    0.008999
  12 C :   -0.061678
  13 H :    0.045496
  14 H :    0.021054
  15 H :    0.026523
  16 S :    0.102475
  17 C :   -0.103821
  18 C :   -0.007158
  19 C :   -0.027679
  20 C :   -0.144997
  21 H :    0.003453
  22 C :    0.067181
  23 H :    0.010853
  24 H :    0.029650
  25 C :   -0.054242
  26 H :    0.011666
  27 H :    0.030098
  28 C :   -0.011772
  29 H :    0.031461
  30 H :    0.011057
  31 H :    0.015887
  32 H :    0.049945
  33 H :    0.051442
Sum of atomic charges:    0.0000000

LOEWDIN ATOMIC CHARGES
----------------------
   0 S :    0.386278
   1 C :   -0.187437
   2 C :   -0.070626
   3 C :   -0.055604
   4 C :   -0.177857
   5 H :    0.032215
   6 C :   -0.034481
   7 H :    0.029822
   8 H :    0.032812
   9 C :   -0.032945
  10 H :    0.027507
  11 H :    0.016191
  12 C :   -0.066611
  13 H :    0.030075
  14 H :    0.017457
  15 H :    0.026738
  16 S :    0.386052
  17 C :   -0.175520
  18 C :   -0.069854
  19 C :   -0.043607
  20 C :   -0.198067
  21 H :    0.028583
  22 C :   -0.038331
  23 H :    0.029966
  24 H :    0.034586
  25 C :   -0.039085
  26 H :    0.014689
  27 H :    0.027558
  28 C :   -0.051170
  29 H :    0.027153
  30 H :    0.012604
  31 H :    0.022503
  32 H :    0.030223
  33 H :    0.028184

  Mayer bond orders larger than 0.100000
B(  0-S ,  1-C ) :   1.1268 B(  0-S ,  4-C ) :   1.1265 B(  1-C ,  2-C ) :   1.6517
B(  1-C , 32-H ) :   0.9591 B(  2-C ,  3-C ) :   1.2160 B(  2-C ,  6-C ) :   1.0208
B(  3-C ,  4-C ) :   1.5840 B(  3-C ,  5-H ) :   0.9929 B(  4-C , 20-C ) :   1.0714
B(  6-C ,  7-H ) :   0.9410 B(  6-C ,  8-H ) :   0.9431 B(  6-C ,  9-C ) :   1.0734
B(  9-C , 10-H ) :   0.9534 B(  9-C , 11-H ) :   0.9527 B(  9-C , 12-C ) :   1.0834
B( 12-C , 13-H ) :   0.9721 B( 12-C , 14-H ) :   0.9765 B( 12-C , 15-H ) :   0.9726
B( 16-S , 17-C ) :   1.1485 B( 16-S , 20-C ) :   1.1109 B( 17-C , 18-C ) :   1.6521
B( 17-C , 33-H ) :   0.9621 B( 18-C , 19-C ) :   1.1982 B( 18-C , 21-H ) :   1.0031
B( 19-C , 20-C ) :   1.6157 B( 19-C , 22-C ) :   1.0489 B( 22-C , 23-H ) :   0.9255
B( 22-C , 24-H ) :   0.9232 B( 22-C , 25-C ) :   1.0482 B( 25-C , 26-H ) :   0.9485
B( 25-C , 27-H ) :   0.9606 B( 25-C , 28-C ) :   1.0894 B( 28-C , 29-H ) :   0.9729
B( 28-C , 30-H ) :   0.9760 B( 28-C , 31-H ) :   0.9741

Dispersion correction           -0.014150018
FINAL SINGLE POINT ENERGY     -1339.869140838129

DIPOLE MOMENT
-------------
                                X             Y             Z
Electronic contribution:     21.06607      -8.35364      -6.23144
Nuclear contribution   :    -21.44783       8.66298       6.45087
                        -----------------------------------------
Total Dipole Moment    :     -0.38177       0.30934       0.21943
                        -----------------------------------------
Magnitude (a.u.)       :      0.53813
Magnitude (Debye)      :      1.36782

Rotational constants in cm-1:     0.019072     0.008362     0.006593
Rotational constants in MHz :   571.755897   250.690709   197.641696

                             ****ORCA TERMINATED NORMALLY****
TOTAL RUN TIME: 0 days 0 hours 0 minutes 29 seconds 862 msec
