                         Program Version 4.2.1 -  RELEASE  -
|  1> ! wB97X-D3 SP def2-SVP
|  2> %pal
|  3> nprocs 16
|  4> end
|  5>
|  6> * xyz 0 1
|  7> S 	 61.4892 	 -7.5652 	 88.6168
|  8> C 	 60.0719 	 -6.54409 	 88.8995
|  9> C 	 60.3824 	 -5.1941 	 88.8355
| 10> C 	 61.7888 	 -5.03161 	 89.0181
| 11> C 	 62.5267 	 -6.14455 	 88.8982
| 12> H 	 62.181 	 -4.04093 	 89.3047
| 13> C 	 59.362 	 -4.04895 	 88.8049
| 14> H 	 58.7144 	 -4.29986 	 88.0137
| 15> H 	 59.7642 	 -3.0519 	 88.6102
| 16> C 	 58.5445 	 -3.7869 	 90.1122
| 17> H 	 57.6541 	 -3.23335 	 89.7631
| 18> H 	 58.2476 	 -4.73961 	 90.5794
| 19> C 	 59.3633 	 -3.03109 	 91.1733
| 20> H 	 60.1022 	 -2.35374 	 90.7172
| 21> H 	 58.7031 	 -2.36787 	 91.7732
| 22> H 	 59.9226 	 -3.68644 	 91.8248
| 23> S 	 64.6504 	 -7.43359 	 90.1228
| 24> C 	 66.249 	 -6.92201 	 89.6598
| 25> C 	 66.2703 	 -5.70032 	 88.9859
| 26> C 	 64.9073 	 -5.20157 	 88.787
| 27> C 	 63.978 	 -6.1582 	 89.1384
| 28> H 	 67.1743 	 -5.24062 	 88.5618
| 29> C 	 64.8109 	 -3.87267 	 87.9346
| 30> H 	 63.8025 	 -3.76059 	 87.4274
| 31> H 	 65.5373 	 -4.03295 	 87.1145
| 32> C 	 65.0362 	 -2.54853 	 88.7341
| 33> H 	 66.0563 	 -2.58002 	 89.1618
| 34> H 	 64.3502 	 -2.53811 	 89.6478
| 35> C 	 65.0082 	 -1.28182 	 87.9299
| 36> H 	 65.846 	 -1.10121 	 87.2184
| 37> H 	 65.0614 	 -0.447967 	 88.6429
| 38> H 	 64.1059 	 -1.26406 	 87.3017
| 39> H 	 59.0862 	 -6.98603 	 88.9446
| 40> H 	 67.1825 	 -7.46566 	 89.988
| 41> *
| 42>
| 43>                          ****END OF INPUT****

CARTESIAN COORDINATES (ANGSTROEM)
---------------------------------
  S     61.489200   -7.565200   88.616800
  C     60.071900   -6.544090   88.899500
  C     60.382400   -5.194100   88.835500
  C     61.788800   -5.031610   89.018100
  C     62.526700   -6.144550   88.898200
  H     62.181000   -4.040930   89.304700
  C     59.362000   -4.048950   88.804900
  H     58.714400   -4.299860   88.013700
  H     59.764200   -3.051900   88.610200
  C     58.544500   -3.786900   90.112200
  H     57.654100   -3.233350   89.763100
  H     58.247600   -4.739610   90.579400
  C     59.363300   -3.031090   91.173300
  H     60.102200   -2.353740   90.717200
  H     58.703100   -2.367870   91.773200
  H     59.922600   -3.686440   91.824800
  S     64.650400   -7.433590   90.122800
  C     66.249000   -6.922010   89.659800
  C     66.270300   -5.700320   88.985900
  C     64.907300   -5.201570   88.787000
  C     63.978000   -6.158200   89.138400
  H     67.174300   -5.240620   88.561800
  C     64.810900   -3.872670   87.934600
  H     63.802500   -3.760590   87.427400
  H     65.537300   -4.032950   87.114500
  C     65.036200   -2.548530   88.734100
  H     66.056300   -2.580020   89.161800
  H     64.350200   -2.538110   89.647800
  C     65.008200   -1.281820   87.929900
  H     65.846000   -1.101210   87.218400
  H     65.061400   -0.447967   88.642900
  H     64.105900   -1.264060   87.301700
  H     59.086200   -6.986030   88.944600
  H     67.182500   -7.465660   89.988000

 Total Charge           Charge          ....    0
 Multiplicity           Mult            ....    1
 Number of Electrons    NEL             ....  134
 Basis Dimension        Dim             ....  322

ORBITAL ENERGIES
----------------

  NO   OCC          E(Eh)            E(eV)
   0   2.0000     -88.966182     -2420.8929
   1   2.0000     -88.965452     -2420.8730
   2   2.0000     -10.326594      -281.0009
   3   2.0000     -10.324521      -280.9445
   4   2.0000     -10.320432      -280.8332
   5   2.0000     -10.315924      -280.7106
   6   2.0000     -10.307802      -280.4895
   7   2.0000     -10.304251      -280.3929
   8   2.0000     -10.302833      -280.3543
   9   2.0000     -10.298595      -280.2390
  10   2.0000     -10.295748      -280.1615
  11   2.0000     -10.292567      -280.0750
  12   2.0000     -10.292525      -280.0738
  13   2.0000     -10.289454      -279.9903
  14   2.0000     -10.283778      -279.8358
  15   2.0000     -10.280796      -279.7547
  16   2.0000      -8.080537      -219.8826
  17   2.0000      -8.080159      -219.8723
  18   2.0000      -6.039048      -164.3309
  19   2.0000      -6.038845      -164.3253
  20   2.0000      -6.035172      -164.2254
  21   2.0000      -6.035010      -164.2210
  22   2.0000      -6.031103      -164.1147
  23   2.0000      -6.030544      -164.0995
  24   2.0000      -1.004259       -27.3273
  25   2.0000      -0.981562       -26.7097
  26   2.0000      -0.907667       -24.6989
  27   2.0000      -0.902606       -24.5611
  28   2.0000      -0.864628       -23.5277
  29   2.0000      -0.852487       -23.1973
  30   2.0000      -0.843229       -22.9454
  31   2.0000      -0.809643       -22.0315
  32   2.0000      -0.781965       -21.2783
  33   2.0000      -0.770701       -20.9718
  34   2.0000      -0.700597       -19.0642
  35   2.0000      -0.695922       -18.9370
  36   2.0000      -0.685066       -18.6416
  37   2.0000      -0.660469       -17.9723
  38   2.0000      -0.636074       -17.3084
  39   2.0000      -0.618359       -16.8264
  40   2.0000      -0.591970       -16.1083
  41   2.0000      -0.572506       -15.5787
  42   2.0000      -0.557377       -15.1670
  43   2.0000      -0.549687       -14.9577
  44   2.0000      -0.537082       -14.6148
  45   2.0000      -0.525294       -14.2940
  46   2.0000      -0.517253       -14.0752
  47   2.0000      -0.505899       -13.7662
  48   2.0000      -0.502779       -13.6813
  49   2.0000      -0.492491       -13.4014
  50   2.0000      -0.489625       -13.3234
  51   2.0000      -0.473355       -12.8806
  52   2.0000      -0.468158       -12.7392
  53   2.0000      -0.465998       -12.6805
  54   2.0000      -0.456395       -12.4191
  55   2.0000      -0.451577       -12.2880
  56   2.0000      -0.439598       -11.9621
  57   2.0000      -0.436539       -11.8788
  58   2.0000      -0.433623       -11.7995
  59   2.0000      -0.424616       -11.5544
  60   2.0000      -0.422584       -11.4991
  61   2.0000      -0.422321       -11.4919
  62   2.0000      -0.409368       -11.1395
  63   2.0000      -0.348466        -9.4822
  64   2.0000      -0.331117        -9.0102
  65   2.0000      -0.326526        -8.8852
  66   2.0000      -0.287790        -7.8312
  67   0.0000       0.025935         0.7057
  68   0.0000       0.077792         2.1168
  69   0.0000       0.101457         2.7608
  70   0.0000       0.110630         3.0104
  71   0.0000       0.123846         3.3700

MULLIKEN ATOMIC CHARGES
-----------------------
   0 S :    0.104281
   1 C :   -0.146207
   2 C :   -0.069939
   3 C :   -0.005080
   4 C :   -0.108466
   5 H :    0.016400
   6 C :    0.072044
   7 H :    0.023655
   8 H :    0.020991
   9 C :   -0.081444
  10 H :    0.038672
  11 H :    0.033838
  12 C :   -0.058806
  13 H :    0.018169
  14 H :    0.038891
  15 H :    0.044092
  16 S :    0.116879
  17 C :   -0.114224
  18 C :   -0.039501
  19 C :   -0.020966
  20 C :   -0.159550
  21 H :    0.034930
  22 C :   -0.001636
  23 H :    0.035731
  24 H :    0.039099
  25 C :   -0.096619
  26 H :    0.025315
  27 H :    0.046859
  28 C :   -0.040480
  29 H :    0.036921
  30 H :    0.039962
  31 H :    0.028644
  32 H :    0.051614
  33 H :    0.075929
Sum of atomic charges:   -0.0000000

LOEWDIN ATOMIC CHARGES
----------------------
   0 S :    0.375653
   1 C :   -0.181799
   2 C :   -0.059787
   3 C :   -0.062509
   4 C :   -0.186409
   5 H :    0.034735
   6 C :   -0.028584
   7 H :    0.026663
   8 H :    0.029267
   9 C :   -0.038272
  10 H :    0.027452
  11 H :    0.024983
  12 C :   -0.069979
  13 H :    0.020362
  14 H :    0.031562
  15 H :    0.027323
  16 S :    0.405355
  17 C :   -0.198012
  18 C :   -0.071333
  19 C :   -0.054839
  20 C :   -0.194209
  21 H :    0.035778
  22 C :   -0.036545
  23 H :    0.030292
  24 H :    0.032308
  25 C :   -0.052633
  26 H :    0.024936
  27 H :    0.032089
  28 C :   -0.070860
  29 H :    0.029824
  30 H :    0.031856
  31 H :    0.023416
  32 H :    0.023452
  33 H :    0.038466

  Mayer bond orders larger than 0.100000
B(  0-S ,  1-C ) :   1.1320 B(  0-S ,  4-C ) :   1.1166 B(  1-C ,  2-C ) :   1.6145
B(  1-C , 32-H ) :   0.9704 B(  2-C ,  3-C ) :   1.2202 B(  2-C ,  6-C ) :   1.0213
B(  3-C ,  4-C ) :   1.6107 B(  3-C ,  5-H ) :   0.9853 B(  4-C , 20-C ) :   1.0510
B(  6-C ,  7-H ) :   0.9342 B(  6-C ,  8-H ) :   0.9496 B(  6-C ,  9-C ) :   1.0715
B(  9-C , 10-H ) :   0.9589 B(  9-C , 11-H ) :   0.9596 B(  9-C , 12-C ) :   1.0637
B( 12-C , 13-H ) :   0.9777 B( 12-C , 14-H ) :   0.9753 B( 12-C , 15-H ) :   0.9781
B( 16-S , 17-C ) :   1.1406 B( 16-S , 20-C ) :   1.1358 B( 17-C , 18-C ) :   1.6305
B( 17-C , 33-H ) :   0.9600 B( 18-C , 19-C ) :   1.2109 B( 18-C , 21-H ) :   0.9846
B( 19-C , 20-C ) :   1.6265 B( 19-C , 22-C ) :   1.0241 B( 22-C , 23-H ) :   0.9414
B( 22-C , 24-H ) :   0.9483 B( 22-C , 25-C ) :   1.0523 B( 25-C , 26-H ) :   0.9510
B( 25-C , 27-H ) :   0.9533 B( 25-C , 28-C ) :   1.0842 B( 28-C , 29-H ) :   0.9731
B( 28-C , 30-H ) :   0.9717 B( 28-C , 31-H ) :   0.9729

Dispersion correction           -0.014131767
FINAL SINGLE POINT ENERGY     -1339.871955605015

DIPOLE MOMENT
-------------
                                X             Y             Z
Electronic contribution:      6.38435     -29.86173       0.03145
Nuclear contribution   :     -6.46449      30.59107      -0.09167
                        -----------------------------------------
Total Dipole Moment    :     -0.08014       0.72933      -0.06022
                        -----------------------------------------
Magnitude (a.u.)       :      0.73619
Magnitude (Debye)      :      1.87124

Rotational constants in cm-1:     0.015696     0.009631     0.006756
Rotational constants in MHz :   470.554808   288.720022   202.535282

                             ****ORCA TERMINATED NORMALLY****
TOTAL RUN TIME: 0 days 0 hours 0 minutes 30 seconds 288 msec
