                         Program Version 4.2.1 -  RELEASE  -
|  1> ! wB97X-D3 SP def2-SVP
|  2> %pal
|  3> nprocs 16
|  4> end
|  5>
|  6> * xyz 0 1
|  7> S 	 -119.18 	 47.6143 	 133.688
|  8> C 	 -120.227 	 47.3312 	 135.068
|  9> C 	 -119.56 	 46.7156 	 136.128
| 10> C 	 -118.398 	 46.0741 	 135.64
| 11> C 	 -118.073 	 46.3878 	 134.311
| 12> H 	 -117.667 	 45.3746 	 136.12
| 13> C 	 -120.174 	 46.3753 	 137.447
| 14> H 	 -119.94 	 45.2859 	 137.686
| 15> H 	 -121.192 	 46.3166 	 137.396
| 16> C 	 -119.519 	 47.1611 	 138.675
| 17> H 	 -119.954 	 46.8597 	 139.665
| 18> H 	 -118.461 	 47.0122 	 138.791
| 19> C 	 -119.753 	 48.6659 	 138.709
| 20> H 	 -119.202 	 49.0622 	 139.532
| 21> H 	 -119.239 	 49.0902 	 137.811
| 22> H 	 -120.8 	 48.9298 	 138.828
| 23> S 	 -117.317 	 45.2761 	 131.958
| 24> C 	 -115.648 	 44.7662 	 131.616
| 25> C 	 -114.849 	 45.1032 	 132.697
| 26> C 	 -115.534 	 45.695 	 133.782
| 27> C 	 -116.934 	 45.8473 	 133.54
| 28> H 	 -113.753 	 44.8386 	 132.69
| 29> C 	 -114.809 	 46.0961 	 135.088
| 30> H 	 -114.122 	 45.2951 	 135.233
| 31> H 	 -115.476 	 46.1 	 135.883
| 32> C 	 -113.877 	 47.4007 	 135.09
| 33> H 	 -113.16 	 47.3372 	 134.212
| 34> H 	 -113.347 	 47.5224 	 136.003
| 35> C 	 -114.752 	 48.6068 	 134.975
| 36> H 	 -115.464 	 48.6336 	 134.086
| 37> H 	 -114.166 	 49.4655 	 134.719
| 38> H 	 -115.101 	 48.9862 	 135.956
| 39> H 	 -121.146 	 47.794 	 135.281
| 40> H 	 -115.36 	 44.2584 	 130.725
| 41> *
| 42>
| 43>                          ****END OF INPUT****

CARTESIAN COORDINATES (ANGSTROEM)
---------------------------------
  S    -119.180000   47.614300  133.688000
  C    -120.227000   47.331200  135.068000
  C    -119.560000   46.715600  136.128000
  C    -118.398000   46.074100  135.640000
  C    -118.073000   46.387800  134.311000
  H    -117.667000   45.374600  136.120000
  C    -120.174000   46.375300  137.447000
  H    -119.940000   45.285900  137.686000
  H    -121.192000   46.316600  137.396000
  C    -119.519000   47.161100  138.675000
  H    -119.954000   46.859700  139.665000
  H    -118.461000   47.012200  138.791000
  C    -119.753000   48.665900  138.709000
  H    -119.202000   49.062200  139.532000
  H    -119.239000   49.090200  137.811000
  H    -120.800000   48.929800  138.828000
  S    -117.317000   45.276100  131.958000
  C    -115.648000   44.766200  131.616000
  C    -114.849000   45.103200  132.697000
  C    -115.534000   45.695000  133.782000
  C    -116.934000   45.847300  133.540000
  H    -113.753000   44.838600  132.690000
  C    -114.809000   46.096100  135.088000
  H    -114.122000   45.295100  135.233000
  H    -115.476000   46.100000  135.883000
  C    -113.877000   47.400700  135.090000
  H    -113.160000   47.337200  134.212000
  H    -113.347000   47.522400  136.003000
  C    -114.752000   48.606800  134.975000
  H    -115.464000   48.633600  134.086000
  H    -114.166000   49.465500  134.719000
  H    -115.101000   48.986200  135.956000
  H    -121.146000   47.794000  135.281000
  H    -115.360000   44.258400  130.725000

 Total Charge           Charge          ....    0
 Multiplicity           Mult            ....    1
 Number of Electrons    NEL             ....  134
 Basis Dimension        Dim             ....  322

ORBITAL ENERGIES
----------------

  NO   OCC          E(Eh)            E(eV)
   0   2.0000     -88.970519     -2421.0109
   1   2.0000     -88.964978     -2420.8601
   2   2.0000     -10.332317      -281.1566
   3   2.0000     -10.331571      -281.1363
   4   2.0000     -10.319825      -280.8167
   5   2.0000     -10.312131      -280.6073
   6   2.0000     -10.309570      -280.5377
   7   2.0000     -10.302408      -280.3428
   8   2.0000     -10.300258      -280.2843
   9   2.0000     -10.297591      -280.2117
  10   2.0000     -10.294917      -280.1389
  11   2.0000     -10.291543      -280.0471
  12   2.0000     -10.290713      -280.0245
  13   2.0000     -10.287368      -279.9335
  14   2.0000     -10.272591      -279.5314
  15   2.0000     -10.271469      -279.5009
  16   2.0000      -8.084483      -219.9900
  17   2.0000      -8.079671      -219.8590
  18   2.0000      -6.042950      -164.4370
  19   2.0000      -6.039323      -164.3383
  20   2.0000      -6.038064      -164.3041
  21   2.0000      -6.035109      -164.2237
  22   2.0000      -6.033947      -164.1920
  23   2.0000      -6.030775      -164.1057
  24   2.0000      -1.003616       -27.3098
  25   2.0000      -0.982760       -26.7422
  26   2.0000      -0.907373       -24.6909
  27   2.0000      -0.902257       -24.5517
  28   2.0000      -0.867590       -23.6083
  29   2.0000      -0.850244       -23.1363
  30   2.0000      -0.847476       -23.0610
  31   2.0000      -0.813942       -22.1485
  32   2.0000      -0.782846       -21.3023
  33   2.0000      -0.771597       -20.9962
  34   2.0000      -0.705090       -19.1865
  35   2.0000      -0.693564       -18.8728
  36   2.0000      -0.692993       -18.8573
  37   2.0000      -0.656872       -17.8744
  38   2.0000      -0.641484       -17.4557
  39   2.0000      -0.616114       -16.7653
  40   2.0000      -0.595356       -16.2005
  41   2.0000      -0.569797       -15.5050
  42   2.0000      -0.554417       -15.0865
  43   2.0000      -0.545310       -14.8386
  44   2.0000      -0.541811       -14.7434
  45   2.0000      -0.540997       -14.7213
  46   2.0000      -0.520719       -14.1695
  47   2.0000      -0.508851       -13.8466
  48   2.0000      -0.499436       -13.5903
  49   2.0000      -0.494719       -13.4620
  50   2.0000      -0.484654       -13.1881
  51   2.0000      -0.477578       -12.9955
  52   2.0000      -0.468435       -12.7468
  53   2.0000      -0.465735       -12.6733
  54   2.0000      -0.461351       -12.5540
  55   2.0000      -0.442766       -12.0483
  56   2.0000      -0.441508       -12.0141
  57   2.0000      -0.435901       -11.8615
  58   2.0000      -0.434731       -11.8296
  59   2.0000      -0.423116       -11.5136
  60   2.0000      -0.417835       -11.3699
  61   2.0000      -0.411210       -11.1896
  62   2.0000      -0.405835       -11.0433
  63   2.0000      -0.346220        -9.4211
  64   2.0000      -0.330671        -8.9980
  65   2.0000      -0.328393        -8.9360
  66   2.0000      -0.289094        -7.8667
  67   0.0000       0.023446         0.6380
  68   0.0000       0.066997         1.8231
  69   0.0000       0.104424         2.8415
  70   0.0000       0.118352         3.2205
  71   0.0000       0.129277         3.5178

MULLIKEN ATOMIC CHARGES
-----------------------
   0 S :    0.125843
   1 C :   -0.091617
   2 C :   -0.071102
   3 C :    0.013434
   4 C :   -0.146332
   5 H :    0.033611
   6 C :    0.071401
   7 H :    0.036250
   8 H :    0.002617
   9 C :   -0.088648
  10 H :    0.027111
  11 H :    0.026103
  12 C :   -0.051494
  13 H :    0.022284
  14 H :    0.041131
  15 H :    0.035599
  16 S :    0.102493
  17 C :   -0.095925
  18 C :   -0.049506
  19 C :   -0.046443
  20 C :   -0.178926
  21 H :    0.041886
  22 C :    0.121566
  23 H :    0.012198
  24 H :   -0.008798
  25 C :   -0.056983
  26 H :    0.036854
  27 H :    0.026190
  28 C :   -0.064850
  29 H :    0.051246
  30 H :    0.006686
  31 H :    0.031719
  32 H :    0.030583
  33 H :    0.053819
Sum of atomic charges:   -0.0000000

LOEWDIN ATOMIC CHARGES
----------------------
   0 S :    0.400153
   1 C :   -0.184715
   2 C :   -0.063739
   3 C :   -0.062673
   4 C :   -0.193703
   5 H :    0.038767
   6 C :   -0.027194
   7 H :    0.043837
   8 H :    0.017045
   9 C :   -0.040157
  10 H :    0.026694
  11 H :    0.021494
  12 C :   -0.068982
  13 H :    0.021848
  14 H :    0.029069
  15 H :    0.022730
  16 S :    0.416006
  17 C :   -0.177283
  18 C :   -0.077308
  19 C :   -0.058175
  20 C :   -0.210430
  21 H :    0.042585
  22 C :   -0.019788
  23 H :    0.025810
  24 H :    0.014105
  25 C :   -0.033884
  26 H :    0.029296
  27 H :    0.022842
  28 C :   -0.084312
  29 H :    0.036792
  30 H :    0.020310
  31 H :    0.029908
  32 H :    0.017558
  33 H :    0.025491

  Mayer bond orders larger than 0.100000
B(  0-S ,  1-C ) :   1.1426 B(  0-S ,  4-C ) :   1.1394 B(  1-C ,  2-C ) :   1.5909
B(  1-C ,  4-C ) :   0.1001 B(  1-C , 32-H ) :   0.9687 B(  2-C ,  3-C ) :   1.2271
B(  2-C ,  6-C ) :   1.0323 B(  3-C ,  4-C ) :   1.5923 B(  3-C ,  5-H ) :   0.9810
B(  4-C , 20-C ) :   1.0440 B(  6-C ,  7-H ) :   0.9467 B(  6-C ,  8-H ) :   0.9526
B(  6-C ,  9-C ) :   1.0395 B(  9-C , 10-H ) :   0.9596 B(  9-C , 11-H ) :   0.9621
B(  9-C , 12-C ) :   1.0851 B( 12-C , 13-H ) :   0.9718 B( 12-C , 14-H ) :   0.9734
B( 12-C , 15-H ) :   0.9778 B( 16-S , 17-C ) :   1.1611 B( 16-S , 20-C ) :   1.1705
B( 17-C , 18-C ) :   1.5692 B( 17-C , 20-C ) :   0.1100 B( 17-C , 33-H ) :   0.9765
B( 18-C , 19-C ) :   1.2841 B( 18-C , 21-H ) :   0.9777 B( 19-C , 20-C ) :   1.5291
B( 19-C , 22-C ) :   1.0332 B( 22-C , 23-H ) :   0.9310 B( 22-C , 24-H ) :   0.9369
B( 22-C , 25-C ) :   1.0662 B( 25-C , 26-H ) :   0.9581 B( 25-C , 27-H ) :   0.9532
B( 25-C , 28-C ) :   1.0914 B( 28-C , 29-H ) :   0.9709 B( 28-C , 30-H ) :   0.9641
B( 28-C , 31-H ) :   0.9718

Dispersion correction           -0.014695671
FINAL SINGLE POINT ENERGY     -1339.851051461016

DIPOLE MOMENT
-------------
                                X             Y             Z
Electronic contribution:     -7.06136      -9.01921     -24.63941
Nuclear contribution   :      7.41826       8.96541      25.22014
                        -----------------------------------------
Total Dipole Moment    :      0.35690      -0.05380       0.58072
                        -----------------------------------------
Magnitude (a.u.)       :      0.68375
Magnitude (Debye)      :      1.73796

Rotational constants in cm-1:     0.020043     0.008764     0.007109
Rotational constants in MHz :   600.868392   262.735348   213.114305

                             ****ORCA TERMINATED NORMALLY****
TOTAL RUN TIME: 0 days 0 hours 0 minutes 34 seconds 625 msec
