                         Program Version 4.2.1 -  RELEASE  -
|  1> ! wB97X-D3 SP def2-SVP
|  2> %pal
|  3> nprocs 16
|  4> end
|  5>
|  6> * xyz 0 1
|  7> S 	 -30.8449 	 59.6099 	 104.951
|  8> C 	 -29.546 	 59.2905 	 106.082
|  9> C 	 -29.369 	 60.3496 	 106.994
| 10> C 	 -30.2967 	 61.3888 	 106.753
| 11> C 	 -31.0577 	 61.195 	 105.573
| 12> H 	 -30.5504 	 62.2499 	 107.402
| 13> C 	 -28.3345 	 60.2393 	 108.122
| 14> H 	 -27.7913 	 59.346 	 107.915
| 15> H 	 -28.7781 	 60.0215 	 109.069
| 16> C 	 -27.2842 	 61.321 	 108.4
| 17> H 	 -27.7435 	 61.995 	 109.138
| 18> H 	 -26.3985 	 60.9298 	 108.982
| 19> C 	 -26.7833 	 62.0422 	 107.176
| 20> H 	 -26.296 	 61.268 	 106.563
| 21> H 	 -27.6087 	 62.5265 	 106.683
| 22> H 	 -26.0503 	 62.7595 	 107.346
| 23> S 	 -33.531 	 61.4408 	 104.226
| 24> C 	 -34.2163 	 62.9083 	 103.821
| 25> C 	 -33.3686 	 63.8667 	 104.351
| 26> C 	 -32.1975 	 63.4214 	 105.025
| 27> C 	 -32.1165 	 62.0581 	 105.056
| 28> H 	 -33.8151 	 64.8484 	 104.25
| 29> C 	 -31.1855 	 64.4919 	 105.606
| 30> H 	 -31.049 	 64.2351 	 106.649
| 31> H 	 -31.7921 	 65.3884 	 105.729
| 32> C 	 -29.9019 	 64.7534 	 104.751
| 33> H 	 -30.1572 	 64.9265 	 103.643
| 34> H 	 -29.2299 	 63.9638 	 104.876
| 35> C 	 -29.2034 	 66.1044 	 105.077
| 36> H 	 -29.9045 	 66.9461 	 105.067
| 37> H 	 -28.4474 	 66.435 	 104.392
| 38> H 	 -28.747 	 66.0518 	 106.115
| 39> H 	 -28.7992 	 58.5387 	 105.996
| 40> H 	 -35.022 	 63.1782 	 103.142
| 41> *
| 42>
| 43>                          ****END OF INPUT****

CARTESIAN COORDINATES (ANGSTROEM)
---------------------------------
  S    -30.844900   59.609900  104.951000
  C    -29.546000   59.290500  106.082000
  C    -29.369000   60.349600  106.994000
  C    -30.296700   61.388800  106.753000
  C    -31.057700   61.195000  105.573000
  H    -30.550400   62.249900  107.402000
  C    -28.334500   60.239300  108.122000
  H    -27.791300   59.346000  107.915000
  H    -28.778100   60.021500  109.069000
  C    -27.284200   61.321000  108.400000
  H    -27.743500   61.995000  109.138000
  H    -26.398500   60.929800  108.982000
  C    -26.783300   62.042200  107.176000
  H    -26.296000   61.268000  106.563000
  H    -27.608700   62.526500  106.683000
  H    -26.050300   62.759500  107.346000
  S    -33.531000   61.440800  104.226000
  C    -34.216300   62.908300  103.821000
  C    -33.368600   63.866700  104.351000
  C    -32.197500   63.421400  105.025000
  C    -32.116500   62.058100  105.056000
  H    -33.815100   64.848400  104.250000
  C    -31.185500   64.491900  105.606000
  H    -31.049000   64.235100  106.649000
  H    -31.792100   65.388400  105.729000
  C    -29.901900   64.753400  104.751000
  H    -30.157200   64.926500  103.643000
  H    -29.229900   63.963800  104.876000
  C    -29.203400   66.104400  105.077000
  H    -29.904500   66.946100  105.067000
  H    -28.447400   66.435000  104.392000
  H    -28.747000   66.051800  106.115000
  H    -28.799200   58.538700  105.996000
  H    -35.022000   63.178200  103.142000

 Total Charge           Charge          ....    0
 Multiplicity           Mult            ....    1
 Number of Electrons    NEL             ....  134
 Basis Dimension        Dim             ....  322

ORBITAL ENERGIES
----------------

  NO   OCC          E(Eh)            E(eV)
   0   2.0000     -88.972650     -2421.0689
   1   2.0000     -88.963388     -2420.8169
   2   2.0000     -10.334979      -281.2291
   3   2.0000     -10.327552      -281.0270
   4   2.0000     -10.314284      -280.6659
   5   2.0000     -10.312048      -280.6051
   6   2.0000     -10.308570      -280.5104
   7   2.0000     -10.304109      -280.3890
   8   2.0000     -10.300913      -280.3021
   9   2.0000     -10.298839      -280.2457
  10   2.0000     -10.292781      -280.0808
  11   2.0000     -10.288991      -279.9777
  12   2.0000     -10.288130      -279.9543
  13   2.0000     -10.288125      -279.9541
  14   2.0000     -10.281093      -279.7628
  15   2.0000     -10.268276      -279.4140
  16   2.0000      -8.087541      -220.0732
  17   2.0000      -8.079462      -219.8533
  18   2.0000      -6.045908      -164.5175
  19   2.0000      -6.041986      -164.4108
  20   2.0000      -6.038479      -164.3154
  21   2.0000      -6.037910      -164.2999
  22   2.0000      -6.033499      -164.1798
  23   2.0000      -6.030451      -164.0969
  24   2.0000      -1.015252       -27.6264
  25   2.0000      -0.991582       -26.9823
  26   2.0000      -0.914290       -24.8791
  27   2.0000      -0.900389       -24.5008
  28   2.0000      -0.872400       -23.7392
  29   2.0000      -0.853728       -23.2311
  30   2.0000      -0.841961       -22.9109
  31   2.0000      -0.817005       -22.2318
  32   2.0000      -0.787427       -21.4270
  33   2.0000      -0.777899       -21.1677
  34   2.0000      -0.711959       -19.3734
  35   2.0000      -0.698564       -19.0089
  36   2.0000      -0.693285       -18.8652
  37   2.0000      -0.657741       -17.8981
  38   2.0000      -0.636647       -17.3240
  39   2.0000      -0.622034       -16.9264
  40   2.0000      -0.588776       -16.0214
  41   2.0000      -0.569160       -15.4876
  42   2.0000      -0.561151       -15.2697
  43   2.0000      -0.558986       -15.2108
  44   2.0000      -0.549500       -14.9526
  45   2.0000      -0.526202       -14.3187
  46   2.0000      -0.520325       -14.1588
  47   2.0000      -0.514519       -14.0008
  48   2.0000      -0.510613       -13.8945
  49   2.0000      -0.497956       -13.5501
  50   2.0000      -0.490725       -13.3533
  51   2.0000      -0.479396       -13.0450
  52   2.0000      -0.476599       -12.9689
  53   2.0000      -0.463052       -12.6003
  54   2.0000      -0.457996       -12.4627
  55   2.0000      -0.449164       -12.2224
  56   2.0000      -0.446643       -12.1538
  57   2.0000      -0.441718       -12.0198
  58   2.0000      -0.432102       -11.7581
  59   2.0000      -0.426518       -11.6061
  60   2.0000      -0.412628       -11.2282
  61   2.0000      -0.407910       -11.0998
  62   2.0000      -0.402484       -10.9521
  63   2.0000      -0.359651        -9.7866
  64   2.0000      -0.336186        -9.1481
  65   2.0000      -0.329177        -8.9574
  66   2.0000      -0.285870        -7.7789
  67   0.0000       0.019442         0.5290
  68   0.0000       0.081850         2.2273
  69   0.0000       0.110859         3.0166
  70   0.0000       0.120886         3.2895
  71   0.0000       0.127391         3.4665

MULLIKEN ATOMIC CHARGES
-----------------------
   0 S :    0.125961
   1 C :   -0.103830
   2 C :   -0.106203
   3 C :   -0.005785
   4 C :   -0.150560
   5 H :    0.030389
   6 C :    0.118431
   7 H :   -0.002899
   8 H :    0.031652
   9 C :   -0.123772
  10 H :    0.020313
  11 H :    0.034628
  12 C :   -0.004313
  13 H :    0.027216
  14 H :    0.036707
  15 H :    0.017609
  16 S :    0.103929
  17 C :   -0.093498
  18 C :   -0.074538
  19 C :   -0.050838
  20 C :   -0.125331
  21 H :    0.014794
  22 C :    0.086410
  23 H :    0.017686
  24 H :    0.008134
  25 C :   -0.044956
  26 H :    0.047723
  27 H :    0.037171
  28 C :   -0.077594
  29 H :    0.025689
  30 H :    0.035706
  31 H :    0.034046
  32 H :    0.041927
  33 H :    0.067994
Sum of atomic charges:    0.0000000

LOEWDIN ATOMIC CHARGES
----------------------
   0 S :    0.434290
   1 C :   -0.199529
   2 C :   -0.054738
   3 C :   -0.071646
   4 C :   -0.194662
   5 H :    0.036507
   6 C :   -0.029957
   7 H :    0.025753
   8 H :    0.033710
   9 C :   -0.049096
  10 H :    0.017836
  11 H :    0.031537
  12 C :   -0.060432
  13 H :    0.030275
  14 H :    0.024800
  15 H :    0.016906
  16 S :    0.433771
  17 C :   -0.219475
  18 C :   -0.084666
  19 C :   -0.062730
  20 C :   -0.202757
  21 H :    0.027830
  22 C :   -0.025577
  23 H :    0.024544
  24 H :    0.029308
  25 C :   -0.033245
  26 H :    0.039703
  27 H :    0.016616
  28 C :   -0.072791
  29 H :    0.022559
  30 H :    0.023067
  31 H :    0.027281
  32 H :    0.022034
  33 H :    0.042973

  Mayer bond orders larger than 0.100000
B(  0-S ,  1-C ) :   1.1501 B(  0-S ,  4-C ) :   1.1800 B(  1-C ,  2-C ) :   1.5853
B(  1-C ,  4-C ) :   0.1091 B(  1-C , 32-H ) :   0.9623 B(  2-C ,  3-C ) :   1.2720
B(  2-C ,  6-C ) :   1.0234 B(  3-C ,  4-C ) :   1.5180 B(  3-C ,  5-H ) :   0.9856
B(  4-C , 20-C ) :   1.0755 B(  6-C ,  7-H ) :   0.9308 B(  6-C ,  8-H ) :   0.9380
B(  6-C ,  9-C ) :   1.0623 B(  9-C , 10-H ) :   0.9545 B(  9-C , 11-H ) :   0.9566
B(  9-C , 12-C ) :   1.0929 B( 12-C , 13-H ) :   0.9733 B( 12-C , 14-H ) :   0.9663
B( 12-C , 15-H ) :   0.9698 B( 16-S , 17-C ) :   1.1783 B( 16-S , 20-C ) :   1.1457
B( 17-C , 18-C ) :   1.5830 B( 17-C , 33-H ) :   0.9661 B( 18-C , 19-C ) :   1.2769
B( 18-C , 21-H ) :   0.9905 B( 19-C , 20-C ) :   1.5717 B( 19-C , 22-C ) :   1.0200
B( 22-C , 23-H ) :   0.9361 B( 22-C , 24-H ) :   0.9356 B( 22-C , 25-C ) :   1.0471
B( 25-C , 26-H ) :   0.9588 B( 25-C , 27-H ) :   0.9577 B( 25-C , 28-C ) :   1.0768
B( 28-C , 29-H ) :   0.9758 B( 28-C , 30-H ) :   0.9779 B( 28-C , 31-H ) :   0.9752

Dispersion correction           -0.014619406
FINAL SINGLE POINT ENERGY     -1339.861256249269

DIPOLE MOMENT
-------------
                                X             Y             Z
Electronic contribution:    -23.42080     -18.64717     -11.20252
Nuclear contribution   :     23.76714      19.12398      11.45798
                        -----------------------------------------
Total Dipole Moment    :      0.34634       0.47681       0.25546
                        -----------------------------------------
Magnitude (a.u.)       :      0.64231
Magnitude (Debye)      :      1.63261

Rotational constants in cm-1:     0.017327     0.010127     0.006873
Rotational constants in MHz :   519.442222   303.587350   206.060673

                             ****ORCA TERMINATED NORMALLY****
TOTAL RUN TIME: 0 days 0 hours 0 minutes 29 seconds 80 msec
