                         Program Version 4.2.1 -  RELEASE  -
|  1> ! wB97X-D3 SP def2-SVP
|  2> %pal
|  3> nprocs 16
|  4> end
|  5>
|  6> * xyz 0 1
|  7> S 	 64.0309 	 18.2816 	 76.5957
|  8> C 	 63.1943 	 19.7977 	 76.2336
|  9> C 	 64.0099 	 20.8844 	 76.3986
| 10> C 	 65.3109 	 20.4964 	 76.793
| 11> C 	 65.5662 	 19.1321 	 76.7061
| 12> H 	 66.1259 	 21.195 	 77.0052
| 13> C 	 63.5106 	 22.2813 	 76.3922
| 14> H 	 62.5655 	 22.2318 	 75.8857
| 15> H 	 64.2979 	 22.8237 	 75.9049
| 16> C 	 63.3134 	 22.851 	 77.7394
| 17> H 	 64.2862 	 22.9402 	 78.2784
| 18> H 	 62.7802 	 23.7651 	 77.551
| 19> C 	 62.4419 	 22.0928 	 78.8064
| 20> H 	 61.3885 	 22.0325 	 78.5263
| 21> H 	 62.8137 	 21.1215 	 79.0239
| 22> H 	 62.5477 	 22.6204 	 79.6947
| 23> S 	 68.1983 	 19.6549 	 77.5793
| 24> C 	 69.3933 	 18.4635 	 77.4668
| 25> C 	 68.8712 	 17.2759 	 76.9237
| 26> C 	 67.4924 	 17.342 	 76.5218
| 27> C 	 66.9238 	 18.5845 	 76.8863
| 28> H 	 69.5126 	 16.3971 	 76.7575
| 29> C 	 66.7333 	 16.1101 	 75.9986
| 30> H 	 67.2826 	 15.5139 	 75.2808
| 31> H 	 65.848 	 16.441 	 75.5123
| 32> C 	 66.202 	 15.1598 	 77.1095
| 33> H 	 65.3006 	 14.6753 	 76.6881
| 34> H 	 65.9583 	 15.8578 	 77.9533
| 35> C 	 67.1708 	 14.0694 	 77.4864
| 36> H 	 67.7735 	 14.3951 	 78.2449
| 37> H 	 67.7032 	 13.7281 	 76.5988
| 38> H 	 66.5142 	 13.2685 	 77.8237
| 39> H 	 62.1047 	 20.0096 	 76.1079
| 40> H 	 70.353 	 18.4583 	 78.0046
| 41> *
| 42>
| 43>                          ****END OF INPUT****

CARTESIAN COORDINATES (ANGSTROEM)
---------------------------------
  S     64.030900   18.281600   76.595700
  C     63.194300   19.797700   76.233600
  C     64.009900   20.884400   76.398600
  C     65.310900   20.496400   76.793000
  C     65.566200   19.132100   76.706100
  H     66.125900   21.195000   77.005200
  C     63.510600   22.281300   76.392200
  H     62.565500   22.231800   75.885700
  H     64.297900   22.823700   75.904900
  C     63.313400   22.851000   77.739400
  H     64.286200   22.940200   78.278400
  H     62.780200   23.765100   77.551000
  C     62.441900   22.092800   78.806400
  H     61.388500   22.032500   78.526300
  H     62.813700   21.121500   79.023900
  H     62.547700   22.620400   79.694700
  S     68.198300   19.654900   77.579300
  C     69.393300   18.463500   77.466800
  C     68.871200   17.275900   76.923700
  C     67.492400   17.342000   76.521800
  C     66.923800   18.584500   76.886300
  H     69.512600   16.397100   76.757500
  C     66.733300   16.110100   75.998600
  H     67.282600   15.513900   75.280800
  H     65.848000   16.441000   75.512300
  C     66.202000   15.159800   77.109500
  H     65.300600   14.675300   76.688100
  H     65.958300   15.857800   77.953300
  C     67.170800   14.069400   77.486400
  H     67.773500   14.395100   78.244900
  H     67.703200   13.728100   76.598800
  H     66.514200   13.268500   77.823700
  H     62.104700   20.009600   76.107900
  H     70.353000   18.458300   78.004600

 Total Charge           Charge          ....    0
 Multiplicity           Mult            ....    1
 Number of Electrons    NEL             ....  134
 Basis Dimension        Dim             ....  322

ORBITAL ENERGIES
----------------

  NO   OCC          E(Eh)            E(eV)
   0   2.0000     -88.972810     -2421.0733
   1   2.0000     -88.970185     -2421.0018
   2   2.0000     -10.337410      -281.2952
   3   2.0000     -10.335553      -281.2447
   4   2.0000     -10.319701      -280.8134
   5   2.0000     -10.312451      -280.6161
   6   2.0000     -10.309811      -280.5442
   7   2.0000     -10.297802      -280.2174
   8   2.0000     -10.292130      -280.0631
   9   2.0000     -10.290615      -280.0219
  10   2.0000     -10.287043      -279.9247
  11   2.0000     -10.285778      -279.8903
  12   2.0000     -10.285114      -279.8722
  13   2.0000     -10.283586      -279.8306
  14   2.0000     -10.268376      -279.4167
  15   2.0000     -10.266944      -279.3778
  16   2.0000      -8.086041      -220.0324
  17   2.0000      -8.084675      -219.9952
  18   2.0000      -6.044841      -164.4885
  19   2.0000      -6.043279      -164.4460
  20   2.0000      -6.040867      -164.3803
  21   2.0000      -6.039098      -164.3322
  22   2.0000      -6.036481      -164.2610
  23   2.0000      -6.035502      -164.2344
  24   2.0000      -1.005027       -27.3482
  25   2.0000      -0.985112       -26.8062
  26   2.0000      -0.922161       -25.0933
  27   2.0000      -0.910769       -24.7833
  28   2.0000      -0.866354       -23.5747
  29   2.0000      -0.853491       -23.2247
  30   2.0000      -0.845701       -23.0127
  31   2.0000      -0.808566       -22.0022
  32   2.0000      -0.791309       -21.5326
  33   2.0000      -0.780497       -21.2384
  34   2.0000      -0.708287       -19.2735
  35   2.0000      -0.693188       -18.8626
  36   2.0000      -0.684422       -18.6241
  37   2.0000      -0.664006       -18.0685
  38   2.0000      -0.627590       -17.0776
  39   2.0000      -0.615700       -16.7541
  40   2.0000      -0.600290       -16.3347
  41   2.0000      -0.569185       -15.4883
  42   2.0000      -0.562824       -15.3152
  43   2.0000      -0.556079       -15.1317
  44   2.0000      -0.548370       -14.9219
  45   2.0000      -0.542215       -14.7544
  46   2.0000      -0.522039       -14.2054
  47   2.0000      -0.513354       -13.9691
  48   2.0000      -0.502458       -13.6726
  49   2.0000      -0.494166       -13.4469
  50   2.0000      -0.486277       -13.2323
  51   2.0000      -0.479805       -13.0562
  52   2.0000      -0.478526       -13.0214
  53   2.0000      -0.468982       -12.7617
  54   2.0000      -0.462635       -12.5889
  55   2.0000      -0.449067       -12.2197
  56   2.0000      -0.442964       -12.0537
  57   2.0000      -0.438391       -11.9292
  58   2.0000      -0.426408       -11.6032
  59   2.0000      -0.424685       -11.5563
  60   2.0000      -0.417675       -11.3655
  61   2.0000      -0.417360       -11.3569
  62   2.0000      -0.407217       -11.0809
  63   2.0000      -0.360739        -9.8162
  64   2.0000      -0.333151        -9.0655
  65   2.0000      -0.329915        -8.9774
  66   2.0000      -0.278784        -7.5861
  67   0.0000       0.016115         0.4385
  68   0.0000       0.081142         2.2080
  69   0.0000       0.105753         2.8777
  70   0.0000       0.111072         3.0224
  71   0.0000       0.130057         3.5390

MULLIKEN ATOMIC CHARGES
-----------------------
   0 S :    0.110112
   1 C :   -0.125816
   2 C :   -0.118930
   3 C :   -0.050096
   4 C :   -0.083515
   5 H :    0.022749
   6 C :    0.147805
   7 H :    0.007323
   8 H :    0.027866
   9 C :   -0.102620
  10 H :    0.035555
  11 H :    0.032768
  12 C :   -0.029117
  13 H :    0.026070
  14 H :    0.032824
  15 H :    0.019849
  16 S :    0.093034
  17 C :   -0.080525
  18 C :   -0.060909
  19 C :   -0.057903
  20 C :   -0.149144
  21 H :    0.027882
  22 C :    0.071570
  23 H :    0.020125
  24 H :    0.011356
  25 C :   -0.122930
  26 H :    0.034818
  27 H :    0.041752
  28 C :    0.011371
  29 H :    0.024277
  30 H :    0.022972
  31 H :    0.030842
  32 H :    0.052753
  33 H :    0.075832
Sum of atomic charges:    0.0000000

LOEWDIN ATOMIC CHARGES
----------------------
   0 S :    0.402035
   1 C :   -0.209031
   2 C :   -0.063523
   3 C :   -0.079348
   4 C :   -0.179441
   5 H :    0.021962
   6 C :   -0.029130
   7 H :    0.028936
   8 H :    0.035842
   9 C :   -0.036541
  10 H :    0.029753
  11 H :    0.025876
  12 C :   -0.058026
  13 H :    0.021807
  14 H :    0.021655
  15 H :    0.019813
  16 S :    0.418772
  17 C :   -0.212874
  18 C :   -0.077721
  19 C :   -0.053594
  20 C :   -0.178027
  21 H :    0.032563
  22 C :   -0.032819
  23 H :    0.025952
  24 H :    0.016953
  25 C :   -0.039451
  26 H :    0.026025
  27 H :    0.029664
  28 C :   -0.057562
  29 H :    0.014226
  30 H :    0.024526
  31 H :    0.031694
  32 H :    0.038168
  33 H :    0.040869

  Mayer bond orders larger than 0.100000
B(  0-S ,  1-C ) :   1.1132 B(  0-S ,  4-C ) :   1.1355 B(  1-C ,  2-C ) :   1.6259
B(  1-C , 32-H ) :   0.9513 B(  2-C ,  3-C ) :   1.2576 B(  2-C ,  6-C ) :   1.0345
B(  3-C ,  4-C ) :   1.5455 B(  3-C ,  5-H ) :   0.9805 B(  4-C , 20-C ) :   1.1026
B(  6-C ,  7-H ) :   0.9268 B(  6-C ,  8-H ) :   0.9230 B(  6-C ,  9-C ) :   1.0883
B(  9-C , 10-H ) :   0.9535 B(  9-C , 11-H ) :   0.9553 B(  9-C , 12-C ) :   1.0835
B( 12-C , 13-H ) :   0.9760 B( 12-C , 14-H ) :   0.9709 B( 12-C , 15-H ) :   0.9732
B( 16-S , 17-C ) :   1.1701 B( 16-S , 20-C ) :   1.1425 B( 17-C , 18-C ) :   1.5878
B( 17-C , 33-H ) :   0.9600 B( 18-C , 19-C ) :   1.2629 B( 18-C , 21-H ) :   0.9818
B( 19-C , 20-C ) :   1.5402 B( 19-C , 22-C ) :   1.0629 B( 22-C , 23-H ) :   0.9376
B( 22-C , 24-H ) :   0.9257 B( 22-C , 25-C ) :   1.0602 B( 25-C , 26-H ) :   0.9634
B( 25-C , 27-H ) :   0.9524 B( 25-C , 28-C ) :   1.0801 B( 28-C , 29-H ) :   0.9743
B( 28-C , 30-H ) :   0.9739 B( 28-C , 31-H ) :   0.9738

Dispersion correction           -0.014800657
FINAL SINGLE POINT ENERGY     -1339.863583293587

DIPOLE MOMENT
-------------
                                X             Y             Z
Electronic contribution:      8.50117       2.64496      -4.11040
Nuclear contribution   :     -8.55944      -2.62237       4.26647
                        -----------------------------------------
Total Dipole Moment    :     -0.05827       0.02259       0.15608
                        -----------------------------------------
Magnitude (a.u.)       :      0.16812
Magnitude (Debye)      :      0.42733

Rotational constants in cm-1:     0.023641     0.008065     0.006540
Rotational constants in MHz :   708.728614   241.771887   196.061339

                             ****ORCA TERMINATED NORMALLY****
TOTAL RUN TIME: 0 days 0 hours 0 minutes 32 seconds 713 msec
