                         Program Version 4.2.1 -  RELEASE  -
|  1> ! wB97X-D3 SP def2-SVP
|  2> %pal
|  3> nprocs 16
|  4> end
|  5>
|  6> * xyz 0 1
|  7> S 	 44.0723 	 13.5902 	 86.7555
|  8> C 	 44.7203 	 13.2383 	 85.2768
|  9> C 	 43.7008 	 13.0537 	 84.3303
| 10> C 	 42.4161 	 13.0799 	 84.9426
| 11> C 	 42.3687 	 13.4767 	 86.2473
| 12> H 	 41.4203 	 13.0068 	 84.4297
| 13> C 	 43.9198 	 12.9329 	 82.7908
| 14> H 	 44.9417 	 12.8293 	 82.721
| 15> H 	 43.7066 	 13.9359 	 82.271
| 16> C 	 43.2785 	 11.6485 	 82.0934
| 17> H 	 42.2076 	 11.8086 	 82.0036
| 18> H 	 43.6847 	 11.5957 	 81.0736
| 19> C 	 43.475 	 10.2087 	 82.731
| 20> H 	 42.976 	 10.1266 	 83.6438
| 21> H 	 42.9421 	 9.50584 	 82.0232
| 22> H 	 44.5105 	 9.96446 	 82.9878
| 23> S 	 41.5349 	 15.3256 	 88.1379
| 24> C 	 39.9255 	 15.2108 	 88.7992
| 25> C 	 39.2007 	 14.1364 	 88.2667
| 26> C 	 39.9041 	 13.4353 	 87.2613
| 27> C 	 41.2249 	 13.9366 	 87.0837
| 28> H 	 38.2196 	 13.8293 	 88.623
| 29> C 	 39.3504 	 12.1769 	 86.714
| 30> H 	 39.0688 	 11.4903 	 87.572
| 31> H 	 40.1784 	 11.7092 	 86.2181
| 32> C 	 38.2133 	 12.4533 	 85.7437
| 33> H 	 38.6637 	 13.0838 	 84.9975
| 34> H 	 37.5163 	 13.127 	 86.2646
| 35> C 	 37.6117 	 11.146 	 85.2407
| 36> H 	 36.7607 	 11.3544 	 84.6111
| 37> H 	 37.4024 	 10.5503 	 86.1022
| 38> H 	 38.2748 	 10.7036 	 84.5728
| 39> H 	 45.7837 	 13.1906 	 85.1044
| 40> H 	 39.5033 	 16.0363 	 89.4166
| 41> *
| 42>
| 43>                          ****END OF INPUT****

CARTESIAN COORDINATES (ANGSTROEM)
---------------------------------
  S     44.072300   13.590200   86.755500
  C     44.720300   13.238300   85.276800
  C     43.700800   13.053700   84.330300
  C     42.416100   13.079900   84.942600
  C     42.368700   13.476700   86.247300
  H     41.420300   13.006800   84.429700
  C     43.919800   12.932900   82.790800
  H     44.941700   12.829300   82.721000
  H     43.706600   13.935900   82.271000
  C     43.278500   11.648500   82.093400
  H     42.207600   11.808600   82.003600
  H     43.684700   11.595700   81.073600
  C     43.475000   10.208700   82.731000
  H     42.976000   10.126600   83.643800
  H     42.942100    9.505840   82.023200
  H     44.510500    9.964460   82.987800
  S     41.534900   15.325600   88.137900
  C     39.925500   15.210800   88.799200
  C     39.200700   14.136400   88.266700
  C     39.904100   13.435300   87.261300
  C     41.224900   13.936600   87.083700
  H     38.219600   13.829300   88.623000
  C     39.350400   12.176900   86.714000
  H     39.068800   11.490300   87.572000
  H     40.178400   11.709200   86.218100
  C     38.213300   12.453300   85.743700
  H     38.663700   13.083800   84.997500
  H     37.516300   13.127000   86.264600
  C     37.611700   11.146000   85.240700
  H     36.760700   11.354400   84.611100
  H     37.402400   10.550300   86.102200
  H     38.274800   10.703600   84.572800
  H     45.783700   13.190600   85.104400
  H     39.503300   16.036300   89.416600

 Total Charge           Charge          ....    0
 Multiplicity           Mult            ....    1
 Number of Electrons    NEL             ....  134
 Basis Dimension        Dim             ....  322

ORBITAL ENERGIES
----------------

  NO   OCC          E(Eh)            E(eV)
   0   2.0000     -88.970081     -2420.9990
   1   2.0000     -88.962960     -2420.8052
   2   2.0000     -10.336908      -281.2816
   3   2.0000     -10.332238      -281.1545
   4   2.0000     -10.322794      -280.8975
   5   2.0000     -10.312186      -280.6088
   6   2.0000     -10.304041      -280.3872
   7   2.0000     -10.303007      -280.3591
   8   2.0000     -10.298096      -280.2255
   9   2.0000     -10.296486      -280.1816
  10   2.0000     -10.294819      -280.1363
  11   2.0000     -10.294652      -280.1317
  12   2.0000     -10.287580      -279.9393
  13   2.0000     -10.283839      -279.8375
  14   2.0000     -10.280817      -279.7553
  15   2.0000     -10.271890      -279.5123
  16   2.0000      -8.084379      -219.9871
  17   2.0000      -8.079189      -219.8459
  18   2.0000      -6.042771      -164.4322
  19   2.0000      -6.038929      -164.3276
  20   2.0000      -6.037603      -164.2915
  21   2.0000      -6.035309      -164.2291
  22   2.0000      -6.033245      -164.1729
  23   2.0000      -6.030181      -164.0896
  24   2.0000      -1.009136       -27.4600
  25   2.0000      -0.987333       -26.8667
  26   2.0000      -0.919153       -25.0114
  27   2.0000      -0.894735       -24.3470
  28   2.0000      -0.868874       -23.6433
  29   2.0000      -0.857089       -23.3226
  30   2.0000      -0.842227       -22.9182
  31   2.0000      -0.815108       -22.1802
  32   2.0000      -0.783561       -21.3218
  33   2.0000      -0.769240       -20.9321
  34   2.0000      -0.707702       -19.2576
  35   2.0000      -0.699450       -19.0330
  36   2.0000      -0.691088       -18.8055
  37   2.0000      -0.660522       -17.9737
  38   2.0000      -0.644820       -17.5465
  39   2.0000      -0.619299       -16.8520
  40   2.0000      -0.596845       -16.2410
  41   2.0000      -0.573855       -15.6154
  42   2.0000      -0.558862       -15.2074
  43   2.0000      -0.543038       -14.7768
  44   2.0000      -0.532554       -14.4915
  45   2.0000      -0.527773       -14.3614
  46   2.0000      -0.520375       -14.1601
  47   2.0000      -0.511057       -13.9066
  48   2.0000      -0.505959       -13.7679
  49   2.0000      -0.500340       -13.6150
  50   2.0000      -0.489948       -13.3322
  51   2.0000      -0.484004       -13.1704
  52   2.0000      -0.470596       -12.8056
  53   2.0000      -0.469617       -12.7789
  54   2.0000      -0.456751       -12.4288
  55   2.0000      -0.451912       -12.2972
  56   2.0000      -0.442341       -12.0367
  57   2.0000      -0.435912       -11.8618
  58   2.0000      -0.432194       -11.7606
  59   2.0000      -0.426611       -11.6087
  60   2.0000      -0.421707       -11.4752
  61   2.0000      -0.419147       -11.4056
  62   2.0000      -0.409699       -11.1485
  63   2.0000      -0.359802        -9.7907
  64   2.0000      -0.334228        -9.0948
  65   2.0000      -0.326719        -8.8905
  66   2.0000      -0.283114        -7.7039
  67   0.0000       0.026058         0.7091
  68   0.0000       0.070791         1.9263
  69   0.0000       0.116839         3.1794
  70   0.0000       0.117258         3.1907
  71   0.0000       0.123904         3.3716

MULLIKEN ATOMIC CHARGES
-----------------------
   0 S :    0.107831
   1 C :   -0.109107
   2 C :   -0.138106
   3 C :    0.017027
   4 C :   -0.153603
   5 H :    0.025058
   6 C :    0.101101
   7 H :   -0.011739
   8 H :    0.061389
   9 C :   -0.109371
  10 H :    0.032202
  11 H :    0.037589
  12 C :   -0.046797
  13 H :    0.023190
  14 H :    0.046063
  15 H :    0.037326
  16 S :    0.112454
  17 C :   -0.112234
  18 C :   -0.023651
  19 C :   -0.054030
  20 C :   -0.150214
  21 H :    0.022345
  22 C :    0.039560
  23 H :    0.042751
  24 H :    0.009402
  25 C :   -0.097091
  26 H :    0.017979
  27 H :    0.022597
  28 C :    0.044592
  29 H :    0.028406
  30 H :    0.030249
  31 H :    0.013711
  32 H :    0.054410
  33 H :    0.078709
Sum of atomic charges:    0.0000000

LOEWDIN ATOMIC CHARGES
----------------------
   0 S :    0.431163
   1 C :   -0.224876
   2 C :   -0.072982
   3 C :   -0.077728
   4 C :   -0.191814
   5 H :    0.037088
   6 C :   -0.031111
   7 H :    0.013525
   8 H :    0.046251
   9 C :   -0.041209
  10 H :    0.019806
  11 H :    0.025998
  12 C :   -0.064474
  13 H :    0.015746
  14 H :    0.037934
  15 H :    0.026575
  16 S :    0.410370
  17 C :   -0.195767
  18 C :   -0.068814
  19 C :   -0.057807
  20 C :   -0.190538
  21 H :    0.032489
  22 C :   -0.035951
  23 H :    0.037357
  24 H :    0.023574
  25 C :   -0.037556
  26 H :    0.021012
  27 H :    0.021393
  28 C :   -0.051619
  29 H :    0.027748
  30 H :    0.025819
  31 H :    0.019796
  32 H :    0.031211
  33 H :    0.037392

  Mayer bond orders larger than 0.100000
B(  0-S ,  1-C ) :   1.1817 B(  0-S ,  4-C ) :   1.1513 B(  1-C ,  2-C ) :   1.5602
B(  1-C , 32-H ) :   0.9697 B(  2-C ,  3-C ) :   1.2747 B(  2-C ,  6-C ) :   1.0174
B(  3-C ,  4-C ) :   1.5673 B(  3-C ,  5-H ) :   0.9826 B(  4-C , 20-C ) :   1.0445
B(  6-C ,  7-H ) :   0.9321 B(  6-C ,  8-H ) :   0.9453 B(  6-C ,  9-C ) :   1.0516
B(  9-C , 10-H ) :   0.9606 B(  9-C , 11-H ) :   0.9625 B(  9-C , 12-C ) :   1.0709
B( 12-C , 13-H ) :   0.9734 B( 12-C , 14-H ) :   0.9737 B( 12-C , 15-H ) :   0.9776
B( 16-S , 17-C ) :   1.1663 B( 16-S , 20-C ) :   1.1551 B( 17-C , 18-C ) :   1.5684
B( 17-C , 20-C ) :   0.1061 B( 17-C , 33-H ) :   0.9617 B( 18-C , 19-C ) :   1.2801
B( 18-C , 21-H ) :   0.9856 B( 19-C , 20-C ) :   1.5410 B( 19-C , 22-C ) :   1.0503
B( 22-C , 23-H ) :   0.9370 B( 22-C , 24-H ) :   0.9289 B( 22-C , 25-C ) :   1.0482
B( 25-C , 26-H ) :   0.9493 B( 25-C , 27-H ) :   0.9614 B( 25-C , 28-C ) :   1.0760
B( 28-C , 29-H ) :   0.9705 B( 28-C , 30-H ) :   0.9723 B( 28-C , 31-H ) :   0.9695

Dispersion correction           -0.014068397
FINAL SINGLE POINT ENERGY     -1339.868475748562

DIPOLE MOMENT
-------------
                                X             Y             Z
Electronic contribution:     12.03648      18.71102      21.01508
Nuclear contribution   :    -12.37035     -18.91977     -21.42524
                        -----------------------------------------
Total Dipole Moment    :     -0.33387      -0.20875      -0.41015
                        -----------------------------------------
Magnitude (a.u.)       :      0.56857
Magnitude (Debye)      :      1.44518

Rotational constants in cm-1:     0.016598     0.009646     0.006509
Rotational constants in MHz :   497.605544   289.167950   195.143997

                             ****ORCA TERMINATED NORMALLY****
TOTAL RUN TIME: 0 days 0 hours 0 minutes 29 seconds 798 msec
