                         Program Version 4.2.1 -  RELEASE  -
|  1> ! wB97X-D3 SP def2-SVP
|  2> %pal
|  3> nprocs 16
|  4> end
|  5>
|  6> * xyz 0 1
|  7> S 	 -74.3955 	 43.9119 	 125.287
|  8> C 	 -73.0858 	 43.0401 	 124.507
|  9> C 	 -71.9146 	 43.7356 	 124.683
| 10> C 	 -72.052 	 44.9327 	 125.451
| 11> C 	 -73.3633 	 45.2363 	 125.783
| 12> H 	 -71.2359 	 45.5512 	 125.806
| 13> C 	 -70.5772 	 43.3924 	 124.009
| 14> H 	 -70.7363 	 42.5473 	 123.445
| 15> H 	 -69.8698 	 43.0239 	 124.713
| 16> C 	 -69.8007 	 44.5072 	 123.244
| 17> H 	 -69.9034 	 45.4384 	 123.876
| 18> H 	 -68.714 	 44.2771 	 123.066
| 19> C 	 -70.541 	 44.9655 	 121.963
| 20> H 	 -71.5599 	 45.2684 	 122.12
| 21> H 	 -70.046 	 45.8165 	 121.52
| 22> H 	 -70.6937 	 44.1839 	 121.231
| 23> S 	 -75.2044 	 47.2426 	 125.568
| 24> C 	 -75.0335 	 48.6305 	 126.508
| 25> C 	 -74.1293 	 48.4473 	 127.532
| 26> C 	 -73.3676 	 47.2715 	 127.369
| 27> C 	 -73.8715 	 46.489 	 126.32
| 28> H 	 -74.0621 	 49.2814 	 128.179
| 29> C 	 -72.1948 	 46.8606 	 128.268
| 30> H 	 -71.5088 	 47.7397 	 128.307
| 31> H 	 -71.5451 	 46.0561 	 127.819
| 32> C 	 -72.6542 	 46.3092 	 129.679
| 33> H 	 -73.0999 	 47.0895 	 130.18
| 34> H 	 -71.7817 	 46.0981 	 130.338
| 35> C 	 -73.5501 	 45.0467 	 129.654
| 36> H 	 -73.8301 	 45.092 	 130.673
| 37> H 	 -73.0135 	 44.0949 	 129.389
| 38> H 	 -74.5112 	 45.2202 	 129.138
| 39> H 	 -73.1744 	 42.136 	 123.874
| 40> H 	 -75.43 	 49.668 	 126.339
| 41> *
| 42>
| 43>                          ****END OF INPUT****

CARTESIAN COORDINATES (ANGSTROEM)
---------------------------------
  S    -74.395500   43.911900  125.287000
  C    -73.085800   43.040100  124.507000
  C    -71.914600   43.735600  124.683000
  C    -72.052000   44.932700  125.451000
  C    -73.363300   45.236300  125.783000
  H    -71.235900   45.551200  125.806000
  C    -70.577200   43.392400  124.009000
  H    -70.736300   42.547300  123.445000
  H    -69.869800   43.023900  124.713000
  C    -69.800700   44.507200  123.244000
  H    -69.903400   45.438400  123.876000
  H    -68.714000   44.277100  123.066000
  C    -70.541000   44.965500  121.963000
  H    -71.559900   45.268400  122.120000
  H    -70.046000   45.816500  121.520000
  H    -70.693700   44.183900  121.231000
  S    -75.204400   47.242600  125.568000
  C    -75.033500   48.630500  126.508000
  C    -74.129300   48.447300  127.532000
  C    -73.367600   47.271500  127.369000
  C    -73.871500   46.489000  126.320000
  H    -74.062100   49.281400  128.179000
  C    -72.194800   46.860600  128.268000
  H    -71.508800   47.739700  128.307000
  H    -71.545100   46.056100  127.819000
  C    -72.654200   46.309200  129.679000
  H    -73.099900   47.089500  130.180000
  H    -71.781700   46.098100  130.338000
  C    -73.550100   45.046700  129.654000
  H    -73.830100   45.092000  130.673000
  H    -73.013500   44.094900  129.389000
  H    -74.511200   45.220200  129.138000
  H    -73.174400   42.136000  123.874000
  H    -75.430000   49.668000  126.339000

 Total Charge           Charge          ....    0
 Multiplicity           Mult            ....    1
 Number of Electrons    NEL             ....  134
 Basis Dimension        Dim             ....  322

ORBITAL ENERGIES
----------------

  NO   OCC          E(Eh)            E(eV)
   0   2.0000     -88.968829     -2420.9649
   1   2.0000     -88.965215     -2420.8666
   2   2.0000     -10.331070      -281.1227
   3   2.0000     -10.324463      -280.9429
   4   2.0000     -10.314683      -280.6768
   5   2.0000     -10.313957      -280.6570
   6   2.0000     -10.306175      -280.4453
   7   2.0000     -10.300908      -280.3019
   8   2.0000     -10.298510      -280.2367
   9   2.0000     -10.296434      -280.1802
  10   2.0000     -10.290955      -280.0311
  11   2.0000     -10.289626      -279.9950
  12   2.0000     -10.284941      -279.8675
  13   2.0000     -10.283295      -279.8227
  14   2.0000     -10.275028      -279.5977
  15   2.0000     -10.267820      -279.4016
  16   2.0000      -8.085326      -220.0129
  17   2.0000      -8.079745      -219.8610
  18   2.0000      -6.043593      -164.4545
  19   2.0000      -6.039468      -164.3423
  20   2.0000      -6.038409      -164.3135
  21   2.0000      -6.036334      -164.2570
  22   2.0000      -6.034208      -164.1992
  23   2.0000      -6.030427      -164.0963
  24   2.0000      -1.016361       -27.6566
  25   2.0000      -0.989057       -26.9136
  26   2.0000      -0.905485       -24.6395
  27   2.0000      -0.901890       -24.5417
  28   2.0000      -0.870788       -23.6953
  29   2.0000      -0.852824       -23.2065
  30   2.0000      -0.840009       -22.8578
  31   2.0000      -0.815675       -22.1956
  32   2.0000      -0.785053       -21.3624
  33   2.0000      -0.773217       -21.0403
  34   2.0000      -0.710292       -19.3280
  35   2.0000      -0.694481       -18.8978
  36   2.0000      -0.690421       -18.7873
  37   2.0000      -0.657446       -17.8900
  38   2.0000      -0.635833       -17.3019
  39   2.0000      -0.625970       -17.0335
  40   2.0000      -0.593435       -16.1482
  41   2.0000      -0.569074       -15.4853
  42   2.0000      -0.548557       -14.9270
  43   2.0000      -0.544289       -14.8109
  44   2.0000      -0.539972       -14.6934
  45   2.0000      -0.532344       -14.4858
  46   2.0000      -0.521526       -14.1914
  47   2.0000      -0.512516       -13.9463
  48   2.0000      -0.504452       -13.7269
  49   2.0000      -0.493509       -13.4291
  50   2.0000      -0.491222       -13.3668
  51   2.0000      -0.481084       -13.0910
  52   2.0000      -0.469194       -12.7674
  53   2.0000      -0.467552       -12.7227
  54   2.0000      -0.456307       -12.4168
  55   2.0000      -0.446471       -12.1491
  56   2.0000      -0.444085       -12.0842
  57   2.0000      -0.429571       -11.6892
  58   2.0000      -0.426897       -11.6164
  59   2.0000      -0.422390       -11.4938
  60   2.0000      -0.419308       -11.4099
  61   2.0000      -0.414879       -11.2894
  62   2.0000      -0.409249       -11.1362
  63   2.0000      -0.352851        -9.6016
  64   2.0000      -0.334671        -9.1069
  65   2.0000      -0.327619        -8.9150
  66   2.0000      -0.286663        -7.8005
  67   0.0000       0.030755         0.8369
  68   0.0000       0.071211         1.9378
  69   0.0000       0.118770         3.2319
  70   0.0000       0.124833         3.3969
  71   0.0000       0.131459         3.5772

MULLIKEN ATOMIC CHARGES
-----------------------
   0 S :    0.100142
   1 C :   -0.135941
   2 C :   -0.101038
   3 C :    0.013850
   4 C :   -0.145818
   5 H :    0.024055
   6 C :    0.136054
   7 H :   -0.017283
   8 H :    0.020038
   9 C :   -0.112196
  10 H :    0.039072
  11 H :    0.049822
  12 C :   -0.043089
  13 H :    0.028859
  14 H :    0.030932
  15 H :    0.017601
  16 S :    0.143640
  17 C :   -0.125522
  18 C :   -0.039617
  19 C :   -0.021100
  20 C :   -0.153262
  21 H :    0.003979
  22 C :    0.038792
  23 H :    0.034497
  24 H :    0.029812
  25 C :   -0.071588
  26 H :    0.005675
  27 H :    0.028940
  28 C :   -0.042363
  29 H :    0.019680
  30 H :    0.059955
  31 H :    0.046678
  32 H :    0.061364
  33 H :    0.075380
Sum of atomic charges:    0.0000000

LOEWDIN ATOMIC CHARGES
----------------------
   0 S :    0.397496
   1 C :   -0.207777
   2 C :   -0.061470
   3 C :   -0.071048
   4 C :   -0.183929
   5 H :    0.028626
   6 C :   -0.027798
   7 H :    0.014672
   8 H :    0.030429
   9 C :   -0.042472
  10 H :    0.031212
  11 H :    0.032360
  12 C :   -0.069684
  13 H :    0.026088
  14 H :    0.023891
  15 H :    0.018586
  16 S :    0.459554
  17 C :   -0.218341
  18 C :   -0.072206
  19 C :   -0.053124
  20 C :   -0.218757
  21 H :    0.026515
  22 C :   -0.041219
  23 H :    0.032623
  24 H :    0.032285
  25 C :   -0.034387
  26 H :    0.008796
  27 H :    0.028566
  28 C :   -0.066588
  29 H :    0.025079
  30 H :    0.036113
  31 H :    0.031098
  32 H :    0.039062
  33 H :    0.045749

  Mayer bond orders larger than 0.100000
B(  0-S ,  1-C ) :   1.1190 B(  0-S ,  4-C ) :   1.1552 B(  1-C ,  2-C ) :   1.6218
B(  1-C , 32-H ) :   0.9619 B(  2-C ,  3-C ) :   1.2434 B(  2-C ,  6-C ) :   1.0243
B(  3-C ,  4-C ) :   1.5674 B(  3-C ,  5-H ) :   0.9837 B(  4-C , 20-C ) :   1.0493
B(  6-C ,  7-H ) :   0.9364 B(  6-C ,  8-H ) :   0.9287 B(  6-C ,  9-C ) :   1.0627
B(  9-C , 10-H ) :   0.9558 B(  9-C , 11-H ) :   0.9574 B(  9-C , 12-C ) :   1.0666
B( 12-C , 13-H ) :   0.9746 B( 12-C , 14-H ) :   0.9763 B( 12-C , 15-H ) :   0.9763
B( 16-S , 17-C ) :   1.1846 B( 16-S , 20-C ) :   1.1675 B( 17-C , 18-C ) :   1.5880
B( 17-C , 33-H ) :   0.9586 B( 18-C , 19-C ) :   1.2586 B( 18-C , 21-H ) :   0.9991
B( 19-C , 20-C ) :   1.5386 B( 19-C , 22-C ) :   1.0386 B( 22-C , 23-H ) :   0.9376
B( 22-C , 24-H ) :   0.9375 B( 22-C , 25-C ) :   1.0564 B( 25-C , 26-H ) :   0.9613
B( 25-C , 27-H ) :   0.9559 B( 25-C , 28-C ) :   1.0704 B( 28-C , 29-H ) :   0.9700
B( 28-C , 30-H ) :   0.9754 B( 28-C , 31-H ) :   0.9721

Dispersion correction           -0.015154744
FINAL SINGLE POINT ENERGY     -1339.864788199674

DIPOLE MOMENT
-------------
                                X             Y             Z
Electronic contribution:    -19.40828       2.48252      -3.27601
Nuclear contribution   :     19.91240      -2.20577       3.46935
                        -----------------------------------------
Total Dipole Moment    :      0.50413       0.27675       0.19334
                        -----------------------------------------
Magnitude (a.u.)       :      0.60672
Magnitude (Debye)      :      1.54217

Rotational constants in cm-1:     0.019215     0.008768     0.008144
Rotational constants in MHz :   576.057493   262.863927   244.158910

                             ****ORCA TERMINATED NORMALLY****
TOTAL RUN TIME: 0 days 0 hours 0 minutes 32 seconds 856 msec
