                         Program Version 4.2.1 -  RELEASE  -
|  1> ! wB97X-D3 SP def2-SVP
|  2> %pal
|  3> nprocs 16
|  4> end
|  5>
|  6> * xyz 0 1
|  7> S 	 -38.5468 	 62.0905 	 109.064
|  8> C 	 -37.5082 	 61.5671 	 110.366
|  9> C 	 -36.2362 	 61.2774 	 109.938
| 10> C 	 -36.1375 	 61.4111 	 108.496
| 11> C 	 -37.3029 	 61.7447 	 107.86
| 12> H 	 -35.2541 	 61.2262 	 107.989
| 13> C 	 -35.0892 	 60.9784 	 110.821
| 14> H 	 -34.5527 	 60.1087 	 110.548
| 15> H 	 -35.4511 	 60.7367 	 111.864
| 16> C 	 -34.159 	 62.156 	 110.982
| 17> H 	 -34.627 	 63.0533 	 111.353
| 18> H 	 -33.343 	 61.9656 	 111.639
| 19> C 	 -33.4935 	 62.683 	 109.677
| 20> H 	 -32.7372 	 63.4264 	 109.79
| 21> H 	 -32.9921 	 61.8674 	 109.215
| 22> H 	 -34.2475 	 63.1087 	 109.024
| 23> S 	 -36.3642 	 61.178 	 105.305
| 24> C 	 -36.7576 	 62.1674 	 103.957
| 25> C 	 -37.735 	 63.0772 	 104.375
| 26> C 	 -38.1273 	 62.9846 	 105.744
| 27> C 	 -37.4377 	 61.9605 	 106.422
| 28> H 	 -38.0852 	 63.8676 	 103.738
| 29> C 	 -39.1816 	 63.9276 	 106.229
| 30> H 	 -38.8915 	 64.85 	 105.697
| 31> H 	 -38.9375 	 64.3108 	 107.258
| 32> C 	 -40.5729 	 63.5513 	 105.925
| 33> H 	 -40.6503 	 62.5829 	 106.47
| 34> H 	 -40.7757 	 63.5237 	 104.795
| 35> C 	 -41.7181 	 64.4124 	 106.51
| 36> H 	 -41.8 	 65.4511 	 105.988
| 37> H 	 -41.5843 	 64.6012 	 107.626
| 38> H 	 -42.647 	 63.8636 	 106.355
| 39> H 	 -37.7435 	 61.6297 	 111.439
| 40> H 	 -36.1858 	 62.1011 	 103.019
| 41> *
| 42>
| 43>                          ****END OF INPUT****

CARTESIAN COORDINATES (ANGSTROEM)
---------------------------------
  S    -38.546800   62.090500  109.064000
  C    -37.508200   61.567100  110.366000
  C    -36.236200   61.277400  109.938000
  C    -36.137500   61.411100  108.496000
  C    -37.302900   61.744700  107.860000
  H    -35.254100   61.226200  107.989000
  C    -35.089200   60.978400  110.821000
  H    -34.552700   60.108700  110.548000
  H    -35.451100   60.736700  111.864000
  C    -34.159000   62.156000  110.982000
  H    -34.627000   63.053300  111.353000
  H    -33.343000   61.965600  111.639000
  C    -33.493500   62.683000  109.677000
  H    -32.737200   63.426400  109.790000
  H    -32.992100   61.867400  109.215000
  H    -34.247500   63.108700  109.024000
  S    -36.364200   61.178000  105.305000
  C    -36.757600   62.167400  103.957000
  C    -37.735000   63.077200  104.375000
  C    -38.127300   62.984600  105.744000
  C    -37.437700   61.960500  106.422000
  H    -38.085200   63.867600  103.738000
  C    -39.181600   63.927600  106.229000
  H    -38.891500   64.850000  105.697000
  H    -38.937500   64.310800  107.258000
  C    -40.572900   63.551300  105.925000
  H    -40.650300   62.582900  106.470000
  H    -40.775700   63.523700  104.795000
  C    -41.718100   64.412400  106.510000
  H    -41.800000   65.451100  105.988000
  H    -41.584300   64.601200  107.626000
  H    -42.647000   63.863600  106.355000
  H    -37.743500   61.629700  111.439000
  H    -36.185800   62.101100  103.019000

 Total Charge           Charge          ....    0
 Multiplicity           Mult            ....    1
 Number of Electrons    NEL             ....  134
 Basis Dimension        Dim             ....  322

ORBITAL ENERGIES
----------------

  NO   OCC          E(Eh)            E(eV)
   0   2.0000     -88.968386     -2420.9529
   1   2.0000     -88.966545     -2420.9028
   2   2.0000     -10.332845      -281.1710
   3   2.0000     -10.330094      -281.0961
   4   2.0000     -10.321868      -280.8723
   5   2.0000     -10.314439      -280.6702
   6   2.0000     -10.302620      -280.3485
   7   2.0000     -10.299244      -280.2567
   8   2.0000     -10.294570      -280.1295
   9   2.0000     -10.292295      -280.0676
  10   2.0000     -10.292113      -280.0626
  11   2.0000     -10.289374      -279.9881
  12   2.0000     -10.289133      -279.9815
  13   2.0000     -10.288070      -279.9526
  14   2.0000     -10.280443      -279.7451
  15   2.0000     -10.267154      -279.3835
  16   2.0000      -8.082435      -219.9342
  17   2.0000      -8.081836      -219.9179
  18   2.0000      -6.041203      -164.3895
  19   2.0000      -6.040364      -164.3667
  20   2.0000      -6.037066      -164.2769
  21   2.0000      -6.035968      -164.2470
  22   2.0000      -6.032941      -164.1647
  23   2.0000      -6.032850      -164.1622
  24   2.0000      -1.009425       -27.4678
  25   2.0000      -0.987780       -26.8789
  26   2.0000      -0.917883       -24.9769
  27   2.0000      -0.915567       -24.9139
  28   2.0000      -0.871528       -23.7155
  29   2.0000      -0.850905       -23.1543
  30   2.0000      -0.843083       -22.9415
  31   2.0000      -0.815326       -22.1862
  32   2.0000      -0.785819       -21.3832
  33   2.0000      -0.773935       -21.0598
  34   2.0000      -0.703425       -19.1412
  35   2.0000      -0.701370       -19.0853
  36   2.0000      -0.686750       -18.6874
  37   2.0000      -0.669156       -18.2087
  38   2.0000      -0.639065       -17.3898
  39   2.0000      -0.619565       -16.8592
  40   2.0000      -0.600168       -16.3314
  41   2.0000      -0.579326       -15.7643
  42   2.0000      -0.564964       -15.3735
  43   2.0000      -0.547002       -14.8847
  44   2.0000      -0.543517       -14.7898
  45   2.0000      -0.529099       -14.3975
  46   2.0000      -0.518018       -14.0960
  47   2.0000      -0.513732       -13.9793
  48   2.0000      -0.510181       -13.8827
  49   2.0000      -0.501893       -13.6572
  50   2.0000      -0.492424       -13.3995
  51   2.0000      -0.481606       -13.1052
  52   2.0000      -0.473191       -12.8762
  53   2.0000      -0.461883       -12.5685
  54   2.0000      -0.458881       -12.4868
  55   2.0000      -0.447585       -12.1794
  56   2.0000      -0.444454       -12.0942
  57   2.0000      -0.438000       -11.9186
  58   2.0000      -0.427414       -11.6305
  59   2.0000      -0.421956       -11.4820
  60   2.0000      -0.416403       -11.3309
  61   2.0000      -0.411298       -11.1920
  62   2.0000      -0.401952       -10.9377
  63   2.0000      -0.360209        -9.8018
  64   2.0000      -0.331054        -9.0084
  65   2.0000      -0.329155        -8.9568
  66   2.0000      -0.287106        -7.8126
  67   0.0000       0.023836         0.6486
  68   0.0000       0.084252         2.2926
  69   0.0000       0.106904         2.9090
  70   0.0000       0.123987         3.3739
  71   0.0000       0.128416         3.4944

MULLIKEN ATOMIC CHARGES
-----------------------
   0 S :    0.097161
   1 C :   -0.116460
   2 C :   -0.094369
   3 C :    0.008065
   4 C :   -0.098476
   5 H :   -0.014546
   6 C :    0.091508
   7 H :    0.023702
   8 H :    0.023329
   9 C :   -0.056180
  10 H :    0.020641
  11 H :    0.021749
  12 C :   -0.067268
  13 H :    0.024649
  14 H :    0.015511
  15 H :    0.048734
  16 S :    0.099176
  17 C :   -0.109977
  18 C :   -0.019508
  19 C :   -0.083407
  20 C :   -0.109402
  21 H :    0.014108
  22 C :    0.044610
  23 H :    0.007876
  24 H :    0.030666
  25 C :   -0.063989
  26 H :    0.034112
  27 H :    0.048737
  28 C :   -0.082757
  29 H :    0.042037
  30 H :    0.043098
  31 H :    0.044713
  32 H :    0.053391
  33 H :    0.078767
Sum of atomic charges:   -0.0000000

LOEWDIN ATOMIC CHARGES
----------------------
   0 S :    0.400347
   1 C :   -0.198777
   2 C :   -0.059913
   3 C :   -0.058642
   4 C :   -0.178288
   5 H :    0.012901
   6 C :   -0.030954
   7 H :    0.027113
   8 H :    0.039605
   9 C :   -0.034488
  10 H :    0.023438
  11 H :    0.019994
  12 C :   -0.064133
  13 H :    0.022521
  14 H :    0.015437
  15 H :    0.026360
  16 S :    0.435276
  17 C :   -0.202756
  18 C :   -0.069581
  19 C :   -0.057861
  20 C :   -0.202666
  21 H :    0.026915
  22 C :   -0.056721
  23 H :    0.030571
  24 H :    0.030696
  25 C :   -0.050840
  26 H :    0.030917
  27 H :    0.038017
  28 C :   -0.075924
  29 H :    0.030493
  30 H :    0.030238
  31 H :    0.027270
  32 H :    0.034319
  33 H :    0.039116

  Mayer bond orders larger than 0.100000
B(  0-S ,  1-C ) :   1.1254 B(  0-S ,  4-C ) :   1.1289 B(  1-C ,  2-C ) :   1.6424
B(  1-C , 32-H ) :   0.9585 B(  2-C ,  3-C ) :   1.2308 B(  2-C ,  6-C ) :   1.0386
B(  3-C ,  4-C ) :   1.5694 B(  3-C ,  5-H ) :   0.9972 B(  4-C , 20-C ) :   1.0672
B(  6-C ,  7-H ) :   0.9354 B(  6-C ,  8-H ) :   0.9336 B(  6-C ,  9-C ) :   1.0746
B(  9-C , 10-H ) :   0.9538 B(  9-C , 11-H ) :   0.9563 B(  9-C , 12-C ) :   1.0843
B( 12-C , 13-H ) :   0.9713 B( 12-C , 14-H ) :   0.9736 B( 12-C , 15-H ) :   0.9692
B( 16-S , 17-C ) :   1.1790 B( 16-S , 20-C ) :   1.1578 B( 17-C , 18-C ) :   1.5332
B( 17-C , 33-H ) :   0.9705 B( 18-C , 19-C ) :   1.3098 B( 18-C , 21-H ) :   0.9909
B( 19-C , 20-C ) :   1.5106 B( 19-C , 22-C ) :   1.0483 B( 22-C , 23-H ) :   0.9149
B( 22-C , 24-H ) :   0.9254 B( 22-C , 25-C ) :   1.0643 B( 25-C , 26-H ) :   0.9502
B( 25-C , 27-H ) :   0.9492 B( 25-C , 28-C ) :   1.0849 B( 28-C , 29-H ) :   0.9735
B( 28-C , 30-H ) :   0.9727 B( 28-C , 31-H ) :   0.9745

Dispersion correction           -0.014593480
FINAL SINGLE POINT ENERGY     -1339.878406615858

DIPOLE MOMENT
-------------
                                X             Y             Z
Electronic contribution:     -0.54389     -10.63586      -7.08418
Nuclear contribution   :      0.85769      11.00190       7.18556
                        -----------------------------------------
Total Dipole Moment    :      0.31380       0.36604       0.10137
                        -----------------------------------------
Magnitude (a.u.)       :      0.49268
Magnitude (Debye)      :      1.25229

Rotational constants in cm-1:     0.019766     0.008971     0.006874
Rotational constants in MHz :   592.576123   268.928949   206.065175

                             ****ORCA TERMINATED NORMALLY****
TOTAL RUN TIME: 0 days 0 hours 0 minutes 30 seconds 292 msec
