                         Program Version 4.2.1 -  RELEASE  -
|  1> ! wB97X-D3 SP def2-SVP
|  2> %pal
|  3> nprocs 16
|  4> end
|  5>
|  6> * xyz 0 1
|  7> S 	 -71.8573 	 35.8633 	 124.731
|  8> C 	 -70.2791 	 35.7637 	 125.463
|  9> C 	 -70.0816 	 36.769 	 126.369
| 10> C 	 -71.3192 	 37.4242 	 126.748
| 11> C 	 -72.423 	 37.0821 	 125.971
| 12> H 	 -71.4134 	 38.2267 	 127.474
| 13> C 	 -68.8254 	 37.1454 	 127.068
| 14> H 	 -68.62 	 38.1826 	 127.032
| 15> H 	 -67.9782 	 36.772 	 126.463
| 16> C 	 -68.7414 	 36.7308 	 128.569
| 17> H 	 -69.5526 	 37.3509 	 128.942
| 18> H 	 -68.9412 	 35.6849 	 128.752
| 19> C 	 -67.3465 	 37.1043 	 129.121
| 20> H 	 -67.4254 	 37.299 	 130.251
| 21> H 	 -66.5845 	 36.2752 	 128.981
| 22> H 	 -66.9771 	 38.0941 	 128.749
| 23> S 	 -74.4584 	 38.2278 	 127.463
| 24> C 	 -75.7151 	 39.0608 	 126.665
| 25> C 	 -75.5604 	 39.0752 	 125.336
| 26> C 	 -74.4169 	 38.4001 	 124.861
| 27> C 	 -73.7055 	 37.8095 	 125.925
| 28> H 	 -76.2481 	 39.6169 	 124.756
| 29> C 	 -74.071 	 38.2772 	 123.411
| 30> H 	 -74.862 	 37.6632 	 123.071
| 31> H 	 -73.1452 	 37.7829 	 123.167
| 32> C 	 -74 	 39.6247 	 122.682
| 33> H 	 -73.3018 	 40.42 	 123.021
| 34> H 	 -74.9691 	 40.1824 	 122.78
| 35> C 	 -73.4779 	 39.4282 	 121.287
| 36> H 	 -74.0302 	 38.6501 	 120.781
| 37> H 	 -72.4674 	 39.0849 	 121.2
| 38> H 	 -73.5898 	 40.3512 	 120.598
| 39> H 	 -69.4839 	 35.0842 	 125.085
| 40> H 	 -76.5836 	 39.466 	 127.172
| 41> *
| 42>
| 43>                          ****END OF INPUT****

CARTESIAN COORDINATES (ANGSTROEM)
---------------------------------
  S    -71.857300   35.863300  124.731000
  C    -70.279100   35.763700  125.463000
  C    -70.081600   36.769000  126.369000
  C    -71.319200   37.424200  126.748000
  C    -72.423000   37.082100  125.971000
  H    -71.413400   38.226700  127.474000
  C    -68.825400   37.145400  127.068000
  H    -68.620000   38.182600  127.032000
  H    -67.978200   36.772000  126.463000
  C    -68.741400   36.730800  128.569000
  H    -69.552600   37.350900  128.942000
  H    -68.941200   35.684900  128.752000
  C    -67.346500   37.104300  129.121000
  H    -67.425400   37.299000  130.251000
  H    -66.584500   36.275200  128.981000
  H    -66.977100   38.094100  128.749000
  S    -74.458400   38.227800  127.463000
  C    -75.715100   39.060800  126.665000
  C    -75.560400   39.075200  125.336000
  C    -74.416900   38.400100  124.861000
  C    -73.705500   37.809500  125.925000
  H    -76.248100   39.616900  124.756000
  C    -74.071000   38.277200  123.411000
  H    -74.862000   37.663200  123.071000
  H    -73.145200   37.782900  123.167000
  C    -74.000000   39.624700  122.682000
  H    -73.301800   40.420000  123.021000
  H    -74.969100   40.182400  122.780000
  C    -73.477900   39.428200  121.287000
  H    -74.030200   38.650100  120.781000
  H    -72.467400   39.084900  121.200000
  H    -73.589800   40.351200  120.598000
  H    -69.483900   35.084200  125.085000
  H    -76.583600   39.466000  127.172000

 Total Charge           Charge          ....    0
 Multiplicity           Mult            ....    1
 Number of Electrons    NEL             ....  134
 Basis Dimension        Dim             ....  322

ORBITAL ENERGIES
----------------

  NO   OCC          E(Eh)            E(eV)
   0   2.0000     -88.965665     -2420.8788
   1   2.0000     -88.964704     -2420.8527
   2   2.0000     -10.337727      -281.3038
   3   2.0000     -10.329261      -281.0735
   4   2.0000     -10.317135      -280.7435
   5   2.0000     -10.309797      -280.5438
   6   2.0000     -10.302784      -280.3530
   7   2.0000     -10.300098      -280.2799
   8   2.0000     -10.296677      -280.1868
   9   2.0000     -10.293454      -280.0991
  10   2.0000     -10.288987      -279.9776
  11   2.0000     -10.288746      -279.9710
  12   2.0000     -10.287035      -279.9245
  13   2.0000     -10.286964      -279.9225
  14   2.0000     -10.284078      -279.8440
  15   2.0000     -10.276959      -279.6503
  16   2.0000      -8.080081      -219.8702
  17   2.0000      -8.079037      -219.8418
  18   2.0000      -6.038506      -164.3161
  19   2.0000      -6.037831      -164.2977
  20   2.0000      -6.034498      -164.2071
  21   2.0000      -6.033787      -164.1877
  22   2.0000      -6.030913      -164.1095
  23   2.0000      -6.029515      -164.0715
  24   2.0000      -1.006619       -27.3915
  25   2.0000      -0.983825       -26.7712
  26   2.0000      -0.915812       -24.9205
  27   2.0000      -0.909304       -24.7434
  28   2.0000      -0.871300       -23.7093
  29   2.0000      -0.855507       -23.2795
  30   2.0000      -0.842264       -22.9192
  31   2.0000      -0.815396       -22.1880
  32   2.0000      -0.780217       -21.2308
  33   2.0000      -0.766578       -20.8596
  34   2.0000      -0.706559       -19.2264
  35   2.0000      -0.702706       -19.1216
  36   2.0000      -0.694346       -18.8941
  37   2.0000      -0.662033       -18.0148
  38   2.0000      -0.636034       -17.3074
  39   2.0000      -0.620562       -16.8864
  40   2.0000      -0.605369       -16.4729
  41   2.0000      -0.575836       -15.6693
  42   2.0000      -0.563772       -15.3410
  43   2.0000      -0.556418       -15.1409
  44   2.0000      -0.530604       -14.4385
  45   2.0000      -0.516599       -14.0574
  46   2.0000      -0.514300       -13.9948
  47   2.0000      -0.509696       -13.8695
  48   2.0000      -0.507714       -13.8156
  49   2.0000      -0.504569       -13.7300
  50   2.0000      -0.486160       -13.2291
  51   2.0000      -0.474909       -12.9229
  52   2.0000      -0.472726       -12.8635
  53   2.0000      -0.466469       -12.6933
  54   2.0000      -0.462558       -12.5869
  55   2.0000      -0.456702       -12.4275
  56   2.0000      -0.446941       -12.1619
  57   2.0000      -0.436947       -11.8899
  58   2.0000      -0.432845       -11.7783
  59   2.0000      -0.425224       -11.5709
  60   2.0000      -0.419654       -11.4194
  61   2.0000      -0.413701       -11.2574
  62   2.0000      -0.397514       -10.8169
  63   2.0000      -0.356756        -9.7078
  64   2.0000      -0.333332        -9.0704
  65   2.0000      -0.324199        -8.8219
  66   2.0000      -0.286437        -7.7944
  67   0.0000       0.029587         0.8051
  68   0.0000       0.073912         2.0113
  69   0.0000       0.106441         2.8964
  70   0.0000       0.118922         3.2360
  71   0.0000       0.136768         3.7217

MULLIKEN ATOMIC CHARGES
-----------------------
   0 S :    0.086285
   1 C :   -0.124951
   2 C :   -0.073475
   3 C :    0.005149
   4 C :   -0.113364
   5 H :    0.021348
   6 C :    0.046582
   7 H :    0.017097
   8 H :    0.009937
   9 C :   -0.052123
  10 H :    0.029278
  11 H :    0.038618
  12 C :   -0.094436
  13 H :    0.042043
  14 H :    0.056578
  15 H :    0.034936
  16 S :    0.104571
  17 C :   -0.082044
  18 C :   -0.022099
  19 C :   -0.025267
  20 C :   -0.172142
  21 H :   -0.003630
  22 C :    0.104178
  23 H :    0.036019
  24 H :    0.015236
  25 C :   -0.101690
  26 H :    0.038683
  27 H :    0.029973
  28 C :   -0.061020
  29 H :    0.011964
  30 H :    0.034664
  31 H :    0.042348
  32 H :    0.065143
  33 H :    0.055611
Sum of atomic charges:    0.0000000

LOEWDIN ATOMIC CHARGES
----------------------
   0 S :    0.376238
   1 C :   -0.198621
   2 C :   -0.067056
   3 C :   -0.061350
   4 C :   -0.166823
   5 H :    0.027638
   6 C :   -0.037744
   7 H :    0.025868
   8 H :    0.026445
   9 C :   -0.033839
  10 H :    0.024530
  11 H :    0.025830
  12 C :   -0.079719
  13 H :    0.033532
  14 H :    0.034614
  15 H :    0.026493
  16 S :    0.418223
  17 C :   -0.192689
  18 C :   -0.072491
  19 C :   -0.049332
  20 C :   -0.195125
  21 H :    0.024079
  22 C :   -0.028212
  23 H :    0.035888
  24 H :    0.021010
  25 C :   -0.049528
  26 H :    0.033207
  27 H :    0.024740
  28 C :   -0.073307
  29 H :    0.017183
  30 H :    0.023193
  31 H :    0.036041
  32 H :    0.038756
  33 H :    0.032328

  Mayer bond orders larger than 0.100000
B(  0-S ,  1-C ) :   1.1272 B(  0-S ,  4-C ) :   1.1182 B(  1-C ,  2-C ) :   1.6332
B(  1-C , 32-H ) :   0.9603 B(  2-C ,  3-C ) :   1.2161 B(  2-C ,  6-C ) :   1.0476
B(  3-C ,  4-C ) :   1.5972 B(  3-C ,  5-H ) :   0.9828 B(  4-C , 20-C ) :   1.0452
B(  6-C ,  7-H ) :   0.9352 B(  6-C ,  8-H ) :   0.9389 B(  6-C ,  9-C ) :   1.0433
B(  9-C , 10-H ) :   0.9575 B(  9-C , 11-H ) :   0.9604 B(  9-C , 12-C ) :   1.0733
B( 12-C , 13-H ) :   0.9742 B( 12-C , 14-H ) :   0.9760 B( 12-C , 15-H ) :   0.9727
B( 16-S , 17-C ) :   1.1598 B( 16-S , 20-C ) :   1.1463 B( 17-C , 18-C ) :   1.6136
B( 17-C , 33-H ) :   0.9634 B( 18-C , 19-C ) :   1.2448 B( 18-C , 21-H ) :   0.9996
B( 19-C , 20-C ) :   1.5676 B( 19-C , 22-C ) :   1.0334 B( 22-C , 23-H ) :   0.9235
B( 22-C , 24-H ) :   0.9380 B( 22-C , 25-C ) :   1.0489 B( 25-C , 26-H ) :   0.9591
B( 25-C , 27-H ) :   0.9528 B( 25-C , 28-C ) :   1.0860 B( 28-C , 29-H ) :   0.9695
B( 28-C , 30-H ) :   0.9719 B( 28-C , 31-H ) :   0.9720

Dispersion correction           -0.013500656
FINAL SINGLE POINT ENERGY     -1339.872098429766

DIPOLE MOMENT
-------------
                                X             Y             Z
Electronic contribution:    -14.96117      -7.54584       5.11620
Nuclear contribution   :     15.19425       7.93239      -5.23682
                        -----------------------------------------
Total Dipole Moment    :      0.23308       0.38654      -0.12062
                        -----------------------------------------
Magnitude (a.u.)       :      0.46722
Magnitude (Debye)      :      1.18757

Rotational constants in cm-1:     0.019742     0.007585     0.006246
Rotational constants in MHz :   591.849627   227.396453   187.243425

                             ****ORCA TERMINATED NORMALLY****
TOTAL RUN TIME: 0 days 0 hours 0 minutes 32 seconds 526 msec
