                         Program Version 4.2.1 -  RELEASE  -
|  1> ! wB97X-D3 SP def2-SVP
|  2> %pal
|  3> nprocs 16
|  4> end
|  5>
|  6> * xyz 0 1
|  7> S 	 31.5108 	 4.66859 	 63.5475
|  8> C 	 32.7027 	 5.46363 	 64.6521
|  9> C 	 32.0414 	 6.46274 	 65.4042
| 10> C 	 30.6505 	 6.57974 	 65.0753
| 11> C 	 30.1468 	 5.52462 	 64.2928
| 12> H 	 29.8439 	 7.14846 	 65.5523
| 13> C 	 32.6362 	 7.21667 	 66.5475
| 14> H 	 33.2428 	 6.55977 	 67.1723
| 15> H 	 31.7892 	 7.58487 	 67.1426
| 16> C 	 33.4892 	 8.41217 	 66.0737
| 17> H 	 32.79 	 9.07319 	 65.5314
| 18> H 	 33.8795 	 9.05347 	 66.9621
| 19> C 	 34.6035 	 7.96465 	 65.1393
| 20> H 	 35.1913 	 7.19658 	 65.5902
| 21> H 	 34.2898 	 7.79314 	 64.166
| 22> H 	 35.3474 	 8.75535 	 65.1314
| 23> S 	 28.1793 	 4.84417 	 62.4845
| 24> C 	 26.7541 	 4.1632 	 63.0054
| 25> C 	 26.5491 	 4.38384 	 64.3374
| 26> C 	 27.6529 	 4.98176 	 64.9548
| 27> C 	 28.7328 	 5.16588 	 64.121
| 28> H 	 25.7109 	 3.9005 	 64.7486
| 29> C 	 27.7395 	 5.14728 	 66.4834
| 30> H 	 28.7999 	 5.13377 	 66.7892
| 31> H 	 27.1226 	 4.36703 	 66.9097
| 32> C 	 27.2993 	 6.48732 	 67.1473
| 33> H 	 26.1987 	 6.48538 	 67.0337
| 34> H 	 27.7522 	 7.24622 	 66.4684
| 35> C 	 27.8119 	 6.67498 	 68.5866
| 36> H 	 27.1803 	 6.12202 	 69.2402
| 37> H 	 27.675 	 7.64325 	 68.9789
| 38> H 	 28.8646 	 6.43969 	 68.5923
| 39> H 	 33.8185 	 5.36182 	 64.6884
| 40> H 	 25.9366 	 3.89876 	 62.338
| 41> *
| 42>
| 43>                          ****END OF INPUT****

CARTESIAN COORDINATES (ANGSTROEM)
---------------------------------
  S     31.510800    4.668590   63.547500
  C     32.702700    5.463630   64.652100
  C     32.041400    6.462740   65.404200
  C     30.650500    6.579740   65.075300
  C     30.146800    5.524620   64.292800
  H     29.843900    7.148460   65.552300
  C     32.636200    7.216670   66.547500
  H     33.242800    6.559770   67.172300
  H     31.789200    7.584870   67.142600
  C     33.489200    8.412170   66.073700
  H     32.790000    9.073190   65.531400
  H     33.879500    9.053470   66.962100
  C     34.603500    7.964650   65.139300
  H     35.191300    7.196580   65.590200
  H     34.289800    7.793140   64.166000
  H     35.347400    8.755350   65.131400
  S     28.179300    4.844170   62.484500
  C     26.754100    4.163200   63.005400
  C     26.549100    4.383840   64.337400
  C     27.652900    4.981760   64.954800
  C     28.732800    5.165880   64.121000
  H     25.710900    3.900500   64.748600
  C     27.739500    5.147280   66.483400
  H     28.799900    5.133770   66.789200
  H     27.122600    4.367030   66.909700
  C     27.299300    6.487320   67.147300
  H     26.198700    6.485380   67.033700
  H     27.752200    7.246220   66.468400
  C     27.811900    6.674980   68.586600
  H     27.180300    6.122020   69.240200
  H     27.675000    7.643250   68.978900
  H     28.864600    6.439690   68.592300
  H     33.818500    5.361820   64.688400
  H     25.936600    3.898760   62.338000

 Total Charge           Charge          ....    0
 Multiplicity           Mult            ....    1
 Number of Electrons    NEL             ....  134
 Basis Dimension        Dim             ....  322

ORBITAL ENERGIES
----------------

  NO   OCC          E(Eh)            E(eV)
   0   2.0000     -88.969163     -2420.9740
   1   2.0000     -88.961802     -2420.7737
   2   2.0000     -10.337342      -281.2934
   3   2.0000     -10.328481      -281.0523
   4   2.0000     -10.325476      -280.9705
   5   2.0000     -10.310313      -280.5579
   6   2.0000     -10.306807      -280.4625
   7   2.0000     -10.305581      -280.4291
   8   2.0000     -10.299189      -280.2552
   9   2.0000     -10.294543      -280.1287
  10   2.0000     -10.291872      -280.0561
  11   2.0000     -10.291064      -280.0341
  12   2.0000     -10.290232      -280.0115
  13   2.0000     -10.285993      -279.8961
  14   2.0000     -10.275804      -279.6188
  15   2.0000     -10.269857      -279.4570
  16   2.0000      -8.082207      -219.9280
  17   2.0000      -8.078655      -219.8314
  18   2.0000      -6.040957      -164.3828
  19   2.0000      -6.036900      -164.2724
  20   2.0000      -6.036828      -164.2705
  21   2.0000      -6.032832      -164.1617
  22   2.0000      -6.032777      -164.1602
  23   2.0000      -6.029712      -164.0768
  24   2.0000      -1.015175       -27.6243
  25   2.0000      -0.982068       -26.7234
  26   2.0000      -0.915175       -24.9032
  27   2.0000      -0.908316       -24.7165
  28   2.0000      -0.867683       -23.6109
  29   2.0000      -0.857376       -23.3304
  30   2.0000      -0.845054       -22.9951
  31   2.0000      -0.813321       -22.1316
  32   2.0000      -0.787508       -21.4292
  33   2.0000      -0.779134       -21.2013
  34   2.0000      -0.707659       -19.2564
  35   2.0000      -0.694312       -18.8932
  36   2.0000      -0.690574       -18.7915
  37   2.0000      -0.664104       -18.0712
  38   2.0000      -0.637529       -17.3480
  39   2.0000      -0.616845       -16.7852
  40   2.0000      -0.596706       -16.2372
  41   2.0000      -0.577969       -15.7273
  42   2.0000      -0.573973       -15.6186
  43   2.0000      -0.549590       -14.9551
  44   2.0000      -0.545554       -14.8453
  45   2.0000      -0.524264       -14.2659
  46   2.0000      -0.518814       -14.1176
  47   2.0000      -0.516986       -14.0679
  48   2.0000      -0.507286       -13.8040
  49   2.0000      -0.502292       -13.6680
  50   2.0000      -0.488274       -13.2866
  51   2.0000      -0.482573       -13.1315
  52   2.0000      -0.478093       -13.0096
  53   2.0000      -0.465564       -12.6686
  54   2.0000      -0.464447       -12.6382
  55   2.0000      -0.450842       -12.2680
  56   2.0000      -0.442569       -12.0429
  57   2.0000      -0.433879       -11.8064
  58   2.0000      -0.427128       -11.6227
  59   2.0000      -0.425174       -11.5696
  60   2.0000      -0.419381       -11.4119
  61   2.0000      -0.412089       -11.2135
  62   2.0000      -0.411939       -11.2094
  63   2.0000      -0.345251        -9.3948
  64   2.0000      -0.333559        -9.0766
  65   2.0000      -0.328501        -8.9390
  66   2.0000      -0.291836        -7.9413
  67   0.0000       0.020077         0.5463
  68   0.0000       0.066321         1.8047
  69   0.0000       0.110550         3.0082
  70   0.0000       0.117182         3.1887
  71   0.0000       0.120351         3.2749

MULLIKEN ATOMIC CHARGES
-----------------------
   0 S :    0.112271
   1 C :   -0.121528
   2 C :   -0.121282
   3 C :    0.044517
   4 C :   -0.148112
   5 H :    0.008715
   6 C :    0.064707
   7 H :    0.037081
   8 H :    0.024200
   9 C :   -0.107548
  10 H :    0.028174
  11 H :    0.045291
  12 C :   -0.015449
  13 H :    0.017194
  14 H :    0.044939
  15 H :    0.019506
  16 S :    0.108654
  17 C :   -0.086613
  18 C :   -0.047757
  19 C :    0.010888
  20 C :   -0.179655
  21 H :    0.007161
  22 C :    0.032717
  23 H :    0.024927
  24 H :    0.022412
  25 C :   -0.109337
  26 H :    0.030077
  27 H :    0.030142
  28 C :    0.008667
  29 H :    0.023543
  30 H :    0.022206
  31 H :    0.033555
  32 H :    0.070937
  33 H :    0.064800
Sum of atomic charges:    0.0000000

LOEWDIN ATOMIC CHARGES
----------------------
   0 S :    0.379409
   1 C :   -0.191904
   2 C :   -0.062799
   3 C :   -0.068643
   4 C :   -0.183995
   5 H :    0.031155
   6 C :   -0.035095
   7 H :    0.030291
   8 H :    0.031261
   9 C :   -0.042803
  10 H :    0.024689
  11 H :    0.031224
  12 C :   -0.062464
  13 H :    0.020378
  14 H :    0.020111
  15 H :    0.029956
  16 S :    0.437293
  17 C :   -0.204241
  18 C :   -0.078598
  19 C :   -0.052352
  20 C :   -0.197697
  21 H :    0.027271
  22 C :   -0.030915
  23 H :    0.029118
  24 H :    0.025450
  25 C :   -0.042524
  26 H :    0.022340
  27 H :    0.019258
  28 C :   -0.057060
  29 H :    0.025351
  30 H :    0.023883
  31 H :    0.026469
  32 H :    0.042223
  33 H :    0.033963

  Mayer bond orders larger than 0.100000
B(  0-S ,  1-C ) :   1.1198 B(  0-S ,  4-C ) :   1.1438 B(  1-C ,  2-C ) :   1.6004
B(  1-C ,  4-C ) :   0.1057 B(  1-C , 32-H ) :   0.9585 B(  2-C ,  3-C ) :   1.2364
B(  2-C ,  6-C ) :   1.0180 B(  3-C ,  4-C ) :   1.5614 B(  3-C ,  5-H ) :   0.9849
B(  4-C , 20-C ) :   1.0567 B(  6-C ,  7-H ) :   0.9496 B(  6-C ,  8-H ) :   0.9416
B(  6-C ,  9-C ) :   1.0668 B(  9-C , 10-H ) :   0.9535 B(  9-C , 11-H ) :   0.9597
B(  9-C , 12-C ) :   1.0819 B( 12-C , 13-H ) :   0.9710 B( 12-C , 14-H ) :   0.9693
B( 12-C , 15-H ) :   0.9639 B( 16-S , 17-C ) :   1.1950 B( 16-S , 20-C ) :   1.1506
B( 17-C , 18-C ) :   1.5843 B( 17-C , 33-H ) :   0.9598 B( 18-C , 19-C ) :   1.2596
B( 18-C , 21-H ) :   1.0025 B( 19-C , 20-C ) :   1.5697 B( 19-C , 22-C ) :   1.0432
B( 22-C , 23-H ) :   0.9360 B( 22-C , 24-H ) :   0.9412 B( 22-C , 25-C ) :   1.0521
B( 25-C , 26-H ) :   0.9547 B( 25-C , 27-H ) :   0.9552 B( 25-C , 28-C ) :   1.0802
B( 28-C , 29-H ) :   0.9725 B( 28-C , 30-H ) :   0.9719 B( 28-C , 31-H ) :   0.9713

Dispersion correction           -0.014649820
FINAL SINGLE POINT ENERGY     -1339.853884770544

DIPOLE MOMENT
-------------
                                X             Y             Z
Electronic contribution:     -6.47593     -14.89991     -23.38884
Nuclear contribution   :      6.36656      15.16282      24.01679
                        -----------------------------------------
Total Dipole Moment    :     -0.10937       0.26291       0.62795
                        -----------------------------------------
Magnitude (a.u.)       :      0.68950
Magnitude (Debye)      :      1.75257

Rotational constants in cm-1:     0.018922     0.009058     0.006531
Rotational constants in MHz :   567.261062   271.549689   195.806549

                             ****ORCA TERMINATED NORMALLY****
TOTAL RUN TIME: 0 days 0 hours 0 minutes 30 seconds 487 msec
