                         Program Version 4.2.1 -  RELEASE  -
|  1> ! wB97X-D3 SP def2-SVP
|  2> %pal
|  3> nprocs 16
|  4> end
|  5>
|  6> * xyz 0 1
|  7> S 	 49.2453 	 29.3522 	 43.3316
|  8> C 	 50.9988 	 29.6934 	 43.3519
|  9> C 	 51.7056 	 28.5548 	 43.5697
| 10> C 	 50.8582 	 27.3765 	 43.6284
| 11> C 	 49.5108 	 27.5905 	 43.4163
| 12> H 	 51.1235 	 26.3694 	 43.9366
| 13> C 	 53.188 	 28.5678 	 43.7942
| 14> H 	 53.7336 	 28.912 	 42.8755
| 15> H 	 53.634 	 27.6048 	 44.1758
| 16> C 	 53.5433 	 29.5786 	 44.9731
| 17> H 	 53.4068 	 30.6052 	 44.4756
| 18> H 	 52.8838 	 29.5486 	 45.8164
| 19> C 	 55.0359 	 29.393 	 45.3322
| 20> H 	 55.2274 	 28.469 	 45.8021
| 21> H 	 55.6966 	 29.5332 	 44.5014
| 22> H 	 55.2731 	 30.2798 	 45.9837
| 23> S 	 47.0107 	 27.0255 	 44.4679
| 24> C 	 46.048 	 25.663 	 43.9581
| 25> C 	 46.7702 	 24.925 	 43.0696
| 26> C 	 48.1022 	 25.3909 	 42.7814
| 27> C 	 48.3889 	 26.6126 	 43.4396
| 28> H 	 46.3044 	 23.9881 	 42.7418
| 29> C 	 48.9987 	 24.7322 	 41.7616
| 30> H 	 49.7865 	 25.4716 	 41.475
| 31> H 	 48.4616 	 24.6752 	 40.8346
| 32> C 	 49.5588 	 23.2968 	 42.0249
| 33> H 	 48.8013 	 22.5989 	 42.1811
| 34> H 	 50.1027 	 23.2632 	 43.0089
| 35> C 	 50.5807 	 22.8814 	 40.9185
| 36> H 	 50.552 	 21.7946 	 40.7072
| 37> H 	 51.5808 	 23.3166 	 41.074
| 38> H 	 50.1615 	 23.1903 	 39.9656
| 39> H 	 51.4252 	 30.7093 	 43.337
| 40> H 	 45.0648 	 25.3266 	 44.2317
| 41> *
| 42>
| 43>                          ****END OF INPUT****

CARTESIAN COORDINATES (ANGSTROEM)
---------------------------------
  S     49.245300   29.352200   43.331600
  C     50.998800   29.693400   43.351900
  C     51.705600   28.554800   43.569700
  C     50.858200   27.376500   43.628400
  C     49.510800   27.590500   43.416300
  H     51.123500   26.369400   43.936600
  C     53.188000   28.567800   43.794200
  H     53.733600   28.912000   42.875500
  H     53.634000   27.604800   44.175800
  C     53.543300   29.578600   44.973100
  H     53.406800   30.605200   44.475600
  H     52.883800   29.548600   45.816400
  C     55.035900   29.393000   45.332200
  H     55.227400   28.469000   45.802100
  H     55.696600   29.533200   44.501400
  H     55.273100   30.279800   45.983700
  S     47.010700   27.025500   44.467900
  C     46.048000   25.663000   43.958100
  C     46.770200   24.925000   43.069600
  C     48.102200   25.390900   42.781400
  C     48.388900   26.612600   43.439600
  H     46.304400   23.988100   42.741800
  C     48.998700   24.732200   41.761600
  H     49.786500   25.471600   41.475000
  H     48.461600   24.675200   40.834600
  C     49.558800   23.296800   42.024900
  H     48.801300   22.598900   42.181100
  H     50.102700   23.263200   43.008900
  C     50.580700   22.881400   40.918500
  H     50.552000   21.794600   40.707200
  H     51.580800   23.316600   41.074000
  H     50.161500   23.190300   39.965600
  H     51.425200   30.709300   43.337000
  H     45.064800   25.326600   44.231700

 Total Charge           Charge          ....    0
 Multiplicity           Mult            ....    1
 Number of Electrons    NEL             ....  134
 Basis Dimension        Dim             ....  322

ORBITAL ENERGIES
----------------

  NO   OCC          E(Eh)            E(eV)
   0   2.0000     -88.964844     -2420.8565
   1   2.0000     -88.964112     -2420.8365
   2   2.0000     -10.337255      -281.2910
   3   2.0000     -10.336929      -281.2821
   4   2.0000     -10.317204      -280.7454
   5   2.0000     -10.315869      -280.7091
   6   2.0000     -10.310777      -280.5705
   7   2.0000     -10.303081      -280.3611
   8   2.0000     -10.301506      -280.3182
   9   2.0000     -10.298297      -280.2309
  10   2.0000     -10.295066      -280.1430
  11   2.0000     -10.293085      -280.0891
  12   2.0000     -10.291606      -280.0488
  13   2.0000     -10.289468      -279.9907
  14   2.0000     -10.283163      -279.8191
  15   2.0000     -10.278767      -279.6995
  16   2.0000      -8.079276      -219.8483
  17   2.0000      -8.077820      -219.8087
  18   2.0000      -6.037931      -164.3005
  19   2.0000      -6.036572      -164.2635
  20   2.0000      -6.033659      -164.1842
  21   2.0000      -6.032529      -164.1535
  22   2.0000      -6.030030      -164.0854
  23   2.0000      -6.028295      -164.0382
  24   2.0000      -1.001110       -27.2416
  25   2.0000      -0.981597       -26.7106
  26   2.0000      -0.908376       -24.7182
  27   2.0000      -0.902538       -24.5593
  28   2.0000      -0.868461       -23.6320
  29   2.0000      -0.847552       -23.0631
  30   2.0000      -0.840359       -22.8673
  31   2.0000      -0.819660       -22.3041
  32   2.0000      -0.776368       -21.1260
  33   2.0000      -0.766953       -20.8699
  34   2.0000      -0.709075       -19.2949
  35   2.0000      -0.703988       -19.1565
  36   2.0000      -0.696725       -18.9589
  37   2.0000      -0.654720       -17.8158
  38   2.0000      -0.640255       -17.4222
  39   2.0000      -0.614449       -16.7200
  40   2.0000      -0.592937       -16.1346
  41   2.0000      -0.572694       -15.5838
  42   2.0000      -0.565353       -15.3840
  43   2.0000      -0.560498       -15.2519
  44   2.0000      -0.522835       -14.2271
  45   2.0000      -0.519631       -14.1399
  46   2.0000      -0.516382       -14.0515
  47   2.0000      -0.509345       -13.8600
  48   2.0000      -0.506952       -13.7949
  49   2.0000      -0.500443       -13.6178
  50   2.0000      -0.495157       -13.4739
  51   2.0000      -0.480067       -13.0633
  52   2.0000      -0.470099       -12.7920
  53   2.0000      -0.465092       -12.6558
  54   2.0000      -0.460117       -12.5204
  55   2.0000      -0.450047       -12.2464
  56   2.0000      -0.442952       -12.0533
  57   2.0000      -0.434517       -11.8238
  58   2.0000      -0.432770       -11.7763
  59   2.0000      -0.423068       -11.5123
  60   2.0000      -0.417655       -11.3650
  61   2.0000      -0.411551       -11.1989
  62   2.0000      -0.408354       -11.1119
  63   2.0000      -0.350108        -9.5269
  64   2.0000      -0.328611        -8.9420
  65   2.0000      -0.326147        -8.8749
  66   2.0000      -0.295875        -8.0512
  67   0.0000       0.026648         0.7251
  68   0.0000       0.069575         1.8932
  69   0.0000       0.111670         3.0387
  70   0.0000       0.122363         3.3297
  71   0.0000       0.131666         3.5828

MULLIKEN ATOMIC CHARGES
-----------------------
   0 S :    0.093949
   1 C :   -0.140233
   2 C :   -0.047248
   3 C :    0.038283
   4 C :   -0.146969
   5 H :    0.013637
   6 C :    0.024332
   7 H :    0.054622
   8 H :    0.032033
   9 C :   -0.137078
  10 H :    0.031680
  11 H :    0.045908
  12 C :   -0.024099
  13 H :    0.035702
  14 H :    0.023060
  15 H :    0.037131
  16 S :    0.097486
  17 C :   -0.071271
  18 C :   -0.053323
  19 C :   -0.007594
  20 C :   -0.160901
  21 H :    0.023384
  22 C :    0.028960
  23 H :    0.030703
  24 H :    0.023271
  25 C :   -0.054168
  26 H :    0.013109
  27 H :    0.029936
  28 C :   -0.053783
  29 H :    0.033576
  30 H :    0.056556
  31 H :    0.015247
  32 H :    0.064311
  33 H :    0.049792
Sum of atomic charges:   -0.0000000

LOEWDIN ATOMIC CHARGES
----------------------
   0 S :    0.372944
   1 C :   -0.183215
   2 C :   -0.069761
   3 C :   -0.061529
   4 C :   -0.183944
   5 H :    0.032479
   6 C :   -0.038591
   7 H :    0.040388
   8 H :    0.031339
   9 C :   -0.036956
  10 H :    0.025084
  11 H :    0.021788
  12 C :   -0.064806
  13 H :    0.018346
  14 H :    0.022573
  15 H :    0.035073
  16 S :    0.401398
  17 C :   -0.186931
  18 C :   -0.077546
  19 C :   -0.055260
  20 C :   -0.190905
  21 H :    0.033191
  22 C :   -0.040735
  23 H :    0.036653
  24 H :    0.029487
  25 C :   -0.036535
  26 H :    0.012747
  27 H :    0.027335
  28 C :   -0.070406
  29 H :    0.031958
  30 H :    0.032366
  31 H :    0.022356
  32 H :    0.035397
  33 H :    0.034218

  Mayer bond orders larger than 0.100000
B(  0-S ,  1-C ) :   1.1223 B(  0-S ,  4-C ) :   1.1336 B(  1-C ,  2-C ) :   1.6243
B(  1-C , 32-H ) :   0.9685 B(  2-C ,  3-C ) :   1.2131 B(  2-C ,  6-C ) :   1.0210
B(  3-C ,  4-C ) :   1.5956 B(  3-C ,  5-H ) :   0.9963 B(  4-C , 20-C ) :   1.0344
B(  6-C ,  7-H ) :   0.9385 B(  6-C ,  8-H ) :   0.9571 B(  6-C ,  9-C ) :   1.0422
B(  9-C , 10-H ) :   0.9530 B(  9-C , 11-H ) :   0.9668 B(  9-C , 12-C ) :   1.0828
B( 12-C , 13-H ) :   0.9767 B( 12-C , 14-H ) :   0.9709 B( 12-C , 15-H ) :   0.9727
B( 16-S , 17-C ) :   1.1403 B( 16-S , 20-C ) :   1.1444 B( 17-C , 18-C ) :   1.6348
B( 17-C , 33-H ) :   0.9665 B( 18-C , 19-C ) :   1.2348 B( 18-C , 21-H ) :   0.9847
B( 19-C , 20-C ) :   1.5725 B( 19-C , 22-C ) :   1.0528 B( 22-C , 23-H ) :   0.9393
B( 22-C , 24-H ) :   0.9305 B( 22-C , 25-C ) :   1.0470 B( 25-C , 26-H ) :   0.9576
B( 25-C , 27-H ) :   0.9590 B( 25-C , 28-C ) :   1.0747 B( 28-C , 29-H ) :   0.9733
B( 28-C , 30-H ) :   0.9779 B( 28-C , 31-H ) :   0.9719

Dispersion correction           -0.013201936
FINAL SINGLE POINT ENERGY     -1339.870897710814

DIPOLE MOMENT
-------------
                                X             Y             Z
Electronic contribution:    -25.25591      10.75898       4.36916
Nuclear contribution   :     25.73214     -11.17347      -4.45456
                        -----------------------------------------
Total Dipole Moment    :      0.47623      -0.41449      -0.08540
                        -----------------------------------------
Magnitude (a.u.)       :      0.63709
Magnitude (Debye)      :      1.61936

Rotational constants in cm-1:     0.018146     0.007627     0.005858
Rotational constants in MHz :   544.005734   228.651021   175.609912

                             ****ORCA TERMINATED NORMALLY****
TOTAL RUN TIME: 0 days 0 hours 0 minutes 31 seconds 666 msec
