                         Program Version 4.2.1 -  RELEASE  -
|  1> ! wB97X-D3 SP def2-SVP
|  2> %pal
|  3> nprocs 16
|  4> end
|  5>
|  6> * xyz 0 1
|  7> S 	 -37.5244 	 34.7834 	 84.7811
|  8> C 	 -35.9808 	 35.5925 	 84.3567
|  9> C 	 -36.1526 	 36.4884 	 83.3181
| 10> C 	 -37.4082 	 36.3369 	 82.645
| 11> C 	 -38.2861 	 35.5856 	 83.4251
| 12> H 	 -37.6431 	 36.7062 	 81.6051
| 13> C 	 -35.0477 	 37.2915 	 82.6649
| 14> H 	 -35.4191 	 38.2235 	 82.2969
| 15> H 	 -34.774 	 36.661 	 81.7816
| 16> C 	 -33.8387 	 37.5303 	 83.5497
| 17> H 	 -34.1735 	 38.0031 	 84.4987
| 18> H 	 -33.3985 	 36.4822 	 83.7859
| 19> C 	 -32.8164 	 38.4499 	 82.9171
| 20> H 	 -32.4313 	 38.143 	 81.9035
| 21> H 	 -33.2006 	 39.4691 	 82.7166
| 22> H 	 -32.0879 	 38.6683 	 83.6764
| 23> S 	 -40.9294 	 35.2219 	 84.1108
| 24> C 	 -42.0571 	 34.5546 	 82.966
| 25> C 	 -41.4649 	 34.5351 	 81.7209
| 26> C 	 -40.0175 	 34.6657 	 81.7604
| 27> C 	 -39.5885 	 35.1726 	 82.9689
| 28> H 	 -42.0658 	 34.2313 	 80.9401
| 29> C 	 -39.1278 	 34.4219 	 80.5876
| 30> H 	 -38.2114 	 35.0483 	 80.597
| 31> H 	 -39.6641 	 34.7114 	 79.6126
| 32> C 	 -38.5691 	 32.9314 	 80.4034
| 33> H 	 -39.4144 	 32.293 	 80.2217
| 34> H 	 -38.1751 	 32.6228 	 81.4084
| 35> C 	 -37.4458 	 32.7246 	 79.3732
| 36> H 	 -37.5116 	 33.1718 	 78.3527
| 37> H 	 -37.2316 	 31.7005 	 79.3217
| 38> H 	 -36.5829 	 33.2509 	 79.8183
| 39> H 	 -35.0558 	 35.4576 	 84.814
| 40> H 	 -43.0985 	 34.3269 	 83.0936
| 41> *
| 42>
| 43>                          ****END OF INPUT****

CARTESIAN COORDINATES (ANGSTROEM)
---------------------------------
  S    -37.524400   34.783400   84.781100
  C    -35.980800   35.592500   84.356700
  C    -36.152600   36.488400   83.318100
  C    -37.408200   36.336900   82.645000
  C    -38.286100   35.585600   83.425100
  H    -37.643100   36.706200   81.605100
  C    -35.047700   37.291500   82.664900
  H    -35.419100   38.223500   82.296900
  H    -34.774000   36.661000   81.781600
  C    -33.838700   37.530300   83.549700
  H    -34.173500   38.003100   84.498700
  H    -33.398500   36.482200   83.785900
  C    -32.816400   38.449900   82.917100
  H    -32.431300   38.143000   81.903500
  H    -33.200600   39.469100   82.716600
  H    -32.087900   38.668300   83.676400
  S    -40.929400   35.221900   84.110800
  C    -42.057100   34.554600   82.966000
  C    -41.464900   34.535100   81.720900
  C    -40.017500   34.665700   81.760400
  C    -39.588500   35.172600   82.968900
  H    -42.065800   34.231300   80.940100
  C    -39.127800   34.421900   80.587600
  H    -38.211400   35.048300   80.597000
  H    -39.664100   34.711400   79.612600
  C    -38.569100   32.931400   80.403400
  H    -39.414400   32.293000   80.221700
  H    -38.175100   32.622800   81.408400
  C    -37.445800   32.724600   79.373200
  H    -37.511600   33.171800   78.352700
  H    -37.231600   31.700500   79.321700
  H    -36.582900   33.250900   79.818300
  H    -35.055800   35.457600   84.814000
  H    -43.098500   34.326900   83.093600

 Total Charge           Charge          ....    0
 Multiplicity           Mult            ....    1
 Number of Electrons    NEL             ....  134
 Basis Dimension        Dim             ....  322

ORBITAL ENERGIES
----------------

  NO   OCC          E(Eh)            E(eV)
   0   2.0000     -88.970251     -2421.0036
   1   2.0000     -88.960757     -2420.7453
   2   2.0000     -10.329425      -281.0779
   3   2.0000     -10.322925      -280.9011
   4   2.0000     -10.313880      -280.6549
   5   2.0000     -10.313222      -280.6370
   6   2.0000     -10.303174      -280.3636
   7   2.0000     -10.302352      -280.3412
   8   2.0000     -10.301855      -280.3277
   9   2.0000     -10.298351      -280.2324
  10   2.0000     -10.297641      -280.2131
  11   2.0000     -10.292834      -280.0822
  12   2.0000     -10.289454      -279.9903
  13   2.0000     -10.288507      -279.9645
  14   2.0000     -10.284353      -279.8515
  15   2.0000     -10.278523      -279.6928
  16   2.0000      -8.084063      -219.9785
  17   2.0000      -8.075662      -219.7499
  18   2.0000      -6.042723      -164.4309
  19   2.0000      -6.038803      -164.3242
  20   2.0000      -6.034591      -164.2096
  21   2.0000      -6.034271      -164.2009
  22   2.0000      -6.030044      -164.0858
  23   2.0000      -6.026418      -163.9872
  24   2.0000      -1.006139       -27.3784
  25   2.0000      -0.981704       -26.7135
  26   2.0000      -0.917439       -24.9648
  27   2.0000      -0.898314       -24.4444
  28   2.0000      -0.870675       -23.6923
  29   2.0000      -0.853665       -23.2294
  30   2.0000      -0.845277       -23.0011
  31   2.0000      -0.814468       -22.1628
  32   2.0000      -0.782626       -21.2963
  33   2.0000      -0.770027       -20.9535
  34   2.0000      -0.714764       -19.4497
  35   2.0000      -0.697788       -18.9878
  36   2.0000      -0.687368       -18.7042
  37   2.0000      -0.661817       -18.0090
  38   2.0000      -0.637468       -17.3464
  39   2.0000      -0.613922       -16.7057
  40   2.0000      -0.591956       -16.1079
  41   2.0000      -0.575507       -15.6604
  42   2.0000      -0.569931       -15.5086
  43   2.0000      -0.554007       -15.0753
  44   2.0000      -0.528638       -14.3850
  45   2.0000      -0.524975       -14.2853
  46   2.0000      -0.519979       -14.1493
  47   2.0000      -0.515281       -14.0215
  48   2.0000      -0.505119       -13.7450
  49   2.0000      -0.501107       -13.6358
  50   2.0000      -0.494229       -13.4487
  51   2.0000      -0.483260       -13.1502
  52   2.0000      -0.473351       -12.8805
  53   2.0000      -0.458251       -12.4696
  54   2.0000      -0.455569       -12.3967
  55   2.0000      -0.449966       -12.2442
  56   2.0000      -0.447146       -12.1675
  57   2.0000      -0.435246       -11.8436
  58   2.0000      -0.430698       -11.7199
  59   2.0000      -0.426145       -11.5960
  60   2.0000      -0.420662       -11.4468
  61   2.0000      -0.411992       -11.2109
  62   2.0000      -0.409451       -11.1417
  63   2.0000      -0.343972        -9.3600
  64   2.0000      -0.331555        -9.0221
  65   2.0000      -0.325123        -8.8470
  66   2.0000      -0.290491        -7.9047
  67   0.0000       0.028488         0.7752
  68   0.0000       0.069480         1.8907
  69   0.0000       0.105565         2.8726
  70   0.0000       0.108525         2.9531
  71   0.0000       0.127936         3.4813

MULLIKEN ATOMIC CHARGES
-----------------------
   0 S :    0.121351
   1 C :   -0.114349
   2 C :   -0.076479
   3 C :   -0.027277
   4 C :   -0.103300
   5 H :    0.054103
   6 C :    0.063903
   7 H :    0.018648
   8 H :    0.045548
   9 C :   -0.133882
  10 H :    0.042443
  11 H :    0.044881
  12 C :   -0.023838
  13 H :    0.039675
  14 H :    0.022353
  15 H :    0.032455
  16 S :    0.097763
  17 C :   -0.091768
  18 C :   -0.000026
  19 C :   -0.020867
  20 C :   -0.159719
  21 H :   -0.008128
  22 C :    0.010882
  23 H :    0.009677
  24 H :    0.035694
  25 C :   -0.085743
  26 H :    0.023318
  27 H :    0.038197
  28 C :   -0.036469
  29 H :    0.038433
  30 H :    0.032833
  31 H :    0.028218
  32 H :    0.026003
  33 H :    0.055465
Sum of atomic charges:   -0.0000000

LOEWDIN ATOMIC CHARGES
----------------------
   0 S :    0.395895
   1 C :   -0.181414
   2 C :   -0.058431
   3 C :   -0.058180
   4 C :   -0.194785
   5 H :    0.044580
   6 C :   -0.035764
   7 H :    0.024332
   8 H :    0.042293
   9 C :   -0.051149
  10 H :    0.030891
  11 H :    0.031603
  12 C :   -0.072189
  13 H :    0.031157
  14 H :    0.027106
  15 H :    0.027252
  16 S :    0.395633
  17 C :   -0.185052
  18 C :   -0.059568
  19 C :   -0.060725
  20 C :   -0.194231
  21 H :    0.016756
  22 C :   -0.042331
  23 H :    0.025199
  24 H :    0.036582
  25 C :   -0.037282
  26 H :    0.014787
  27 H :    0.031316
  28 C :   -0.068495
  29 H :    0.028858
  30 H :    0.022451
  31 H :    0.028892
  32 H :    0.013072
  33 H :    0.030939

  Mayer bond orders larger than 0.100000
B(  0-S ,  1-C ) :   1.1108 B(  0-S ,  4-C ) :   1.1446 B(  1-C ,  2-C ) :   1.6308
B(  1-C , 32-H ) :   0.9724 B(  2-C ,  3-C ) :   1.2159 B(  2-C ,  6-C ) :   1.0228
B(  3-C ,  4-C ) :   1.5816 B(  3-C ,  5-H ) :   0.9820 B(  4-C , 20-C ) :   1.0404
B(  6-C ,  7-H ) :   0.9407 B(  6-C ,  8-H ) :   0.9276 B(  6-C ,  9-C ) :   1.0821
B(  9-C , 10-H ) :   0.9560 B(  9-C , 11-H ) :   0.9401 B(  9-C , 12-C ) :   1.0944
B( 12-C , 13-H ) :   0.9713 B( 12-C , 14-H ) :   0.9684 B( 12-C , 15-H ) :   0.9698
B( 16-S , 17-C ) :   1.1467 B( 16-S , 20-C ) :   1.1265 B( 17-C , 18-C ) :   1.6343
B( 17-C , 33-H ) :   0.9684 B( 18-C , 19-C ) :   1.2129 B( 18-C , 21-H ) :   0.9936
B( 19-C , 20-C ) :   1.6067 B( 19-C , 22-C ) :   1.0600 B( 22-C , 23-H ) :   0.9372
B( 22-C , 24-H ) :   0.9348 B( 22-C , 25-C ) :   1.0449 B( 25-C , 26-H ) :   0.9605
B( 25-C , 27-H ) :   0.9567 B( 25-C , 28-C ) :   1.0759 B( 28-C , 29-H ) :   0.9766
B( 28-C , 30-H ) :   0.9733 B( 28-C , 31-H ) :   0.9727

Dispersion correction           -0.013955171
FINAL SINGLE POINT ENERGY     -1339.865970568116

DIPOLE MOMENT
-------------
                                X             Y             Z
Electronic contribution:    -22.29184      -2.83305      18.63090
Nuclear contribution   :     22.73795       2.90109     -19.27617
                        -----------------------------------------
Total Dipole Moment    :      0.44611       0.06804      -0.64528
                        -----------------------------------------
Magnitude (a.u.)       :      0.78742
Magnitude (Debye)      :      2.00146

Rotational constants in cm-1:     0.019848     0.007912     0.006421
Rotational constants in MHz :   595.026570   237.196789   192.501409

                             ****ORCA TERMINATED NORMALLY****
TOTAL RUN TIME: 0 days 0 hours 0 minutes 30 seconds 67 msec
