                         Program Version 4.2.1 -  RELEASE  -
|  1> ! wB97X-D3 SP def2-SVP
|  2> %pal
|  3> nprocs 16
|  4> end
|  5>
|  6> * xyz 0 1
|  7> S 	 -0.747101 	 -7.45471 	 86.7022
|  8> C 	 0.623355 	 -8.20063 	 87.4975
|  9> C 	 0.376223 	 -8.56057 	 88.7715
| 10> C 	 -0.911429 	 -8.15634 	 89.229
| 11> C 	 -1.56523 	 -7.44429 	 88.2882
| 12> H 	 -1.28209 	 -8.25849 	 90.209
| 13> C 	 1.33897 	 -9.31206 	 89.6902
| 14> H 	 1.40146 	 -8.65912 	 90.6369
| 15> H 	 2.29265 	 -9.30667 	 89.1739
| 16> C 	 0.960774 	 -10.7132 	 89.9787
| 17> H 	 1.75918 	 -11.2132 	 90.5265
| 18> H 	 -0.00526117 	 -10.8229 	 90.5088
| 19> C 	 0.707984 	 -11.42 	 88.6182
| 20> H 	 1.53393 	 -11.4257 	 87.9604
| 21> H 	 0.433206 	 -12.4693 	 88.7954
| 22> H 	 -0.193202 	 -10.9275 	 88.1359
| 23> S 	 -4.12788 	 -7.67931 	 87.1842
| 24> C 	 -5.41324 	 -6.69459 	 87.8291
| 25> C 	 -5.01448 	 -5.92769 	 88.9488
| 26> C 	 -3.60963 	 -6.05286 	 89.1818
| 27> C 	 -2.96239 	 -6.90491 	 88.2964
| 28> H 	 -5.65577 	 -5.34298 	 89.499
| 29> C 	 -2.81113 	 -5.30021 	 90.2234
| 30> H 	 -3.1829 	 -4.26801 	 90.2711
| 31> H 	 -1.69462 	 -5.23987 	 90.0285
| 32> C 	 -2.94615 	 -5.85594 	 91.6689
| 33> H 	 -2.28089 	 -5.29947 	 92.3124
| 34> H 	 -2.53601 	 -6.90313 	 91.7105
| 35> C 	 -4.37825 	 -5.78459 	 92.2581
| 36> H 	 -4.69111 	 -4.71669 	 92.2353
| 37> H 	 -4.36776 	 -6.06032 	 93.3104
| 38> H 	 -5.03825 	 -6.45183 	 91.7109
| 39> H 	 1.55943 	 -8.58675 	 87.0049
| 40> H 	 -6.41231 	 -6.89373 	 87.5119
| 41> *
| 42>
| 43>                          ****END OF INPUT****

CARTESIAN COORDINATES (ANGSTROEM)
---------------------------------
  S     -0.747101   -7.454710   86.702200
  C      0.623355   -8.200630   87.497500
  C      0.376223   -8.560570   88.771500
  C     -0.911429   -8.156340   89.229000
  C     -1.565230   -7.444290   88.288200
  H     -1.282090   -8.258490   90.209000
  C      1.338970   -9.312060   89.690200
  H      1.401460   -8.659120   90.636900
  H      2.292650   -9.306670   89.173900
  C      0.960774  -10.713200   89.978700
  H      1.759180  -11.213200   90.526500
  H     -0.005261  -10.822900   90.508800
  C      0.707984  -11.420000   88.618200
  H      1.533930  -11.425700   87.960400
  H      0.433206  -12.469300   88.795400
  H     -0.193202  -10.927500   88.135900
  S     -4.127880   -7.679310   87.184200
  C     -5.413240   -6.694590   87.829100
  C     -5.014480   -5.927690   88.948800
  C     -3.609630   -6.052860   89.181800
  C     -2.962390   -6.904910   88.296400
  H     -5.655770   -5.342980   89.499000
  C     -2.811130   -5.300210   90.223400
  H     -3.182900   -4.268010   90.271100
  H     -1.694620   -5.239870   90.028500
  C     -2.946150   -5.855940   91.668900
  H     -2.280890   -5.299470   92.312400
  H     -2.536010   -6.903130   91.710500
  C     -4.378250   -5.784590   92.258100
  H     -4.691110   -4.716690   92.235300
  H     -4.367760   -6.060320   93.310400
  H     -5.038250   -6.451830   91.710900
  H      1.559430   -8.586750   87.004900
  H     -6.412310   -6.893730   87.511900

 Total Charge           Charge          ....    0
 Multiplicity           Mult            ....    1
 Number of Electrons    NEL             ....  134
 Basis Dimension        Dim             ....  322

ORBITAL ENERGIES
----------------

  NO   OCC          E(Eh)            E(eV)
   0   2.0000     -88.966526     -2420.9023
   1   2.0000     -88.965142     -2420.8646
   2   2.0000     -10.332014      -281.1484
   3   2.0000     -10.327953      -281.0379
   4   2.0000     -10.321250      -280.8555
   5   2.0000     -10.311688      -280.5953
   6   2.0000     -10.304743      -280.4063
   7   2.0000     -10.296567      -280.1838
   8   2.0000     -10.296180      -280.1733
   9   2.0000     -10.294582      -280.1298
  10   2.0000     -10.294421      -280.1254
  11   2.0000     -10.290392      -280.0158
  12   2.0000     -10.290163      -280.0096
  13   2.0000     -10.287082      -279.9257
  14   2.0000     -10.281436      -279.7721
  15   2.0000     -10.274911      -279.5946
  16   2.0000      -8.080869      -219.8916
  17   2.0000      -8.079604      -219.8572
  18   2.0000      -6.039298      -164.3377
  19   2.0000      -6.038136      -164.3060
  20   2.0000      -6.035407      -164.2318
  21   2.0000      -6.034456      -164.2059
  22   2.0000      -6.031775      -164.1329
  23   2.0000      -6.030032      -164.0855
  24   2.0000      -1.005345       -27.3568
  25   2.0000      -0.983070       -26.7507
  26   2.0000      -0.917970       -24.9792
  27   2.0000      -0.905389       -24.6369
  28   2.0000      -0.863555       -23.4985
  29   2.0000      -0.849769       -23.1234
  30   2.0000      -0.844614       -22.9831
  31   2.0000      -0.813424       -22.1344
  32   2.0000      -0.782578       -21.2950
  33   2.0000      -0.771891       -21.0042
  34   2.0000      -0.705300       -19.1922
  35   2.0000      -0.692677       -18.8487
  36   2.0000      -0.687493       -18.7076
  37   2.0000      -0.668495       -18.1907
  38   2.0000      -0.639897       -17.4125
  39   2.0000      -0.624059       -16.9815
  40   2.0000      -0.595601       -16.2071
  41   2.0000      -0.568131       -15.4596
  42   2.0000      -0.552596       -15.0369
  43   2.0000      -0.549966       -14.9653
  44   2.0000      -0.548083       -14.9141
  45   2.0000      -0.542526       -14.7629
  46   2.0000      -0.516367       -14.0511
  47   2.0000      -0.505179       -13.7466
  48   2.0000      -0.494475       -13.4554
  49   2.0000      -0.493477       -13.4282
  50   2.0000      -0.488877       -13.3030
  51   2.0000      -0.482104       -13.1187
  52   2.0000      -0.470120       -12.7926
  53   2.0000      -0.467044       -12.7089
  54   2.0000      -0.455672       -12.3995
  55   2.0000      -0.448486       -12.2039
  56   2.0000      -0.443929       -12.0799
  57   2.0000      -0.437374       -11.9016
  58   2.0000      -0.428524       -11.6607
  59   2.0000      -0.427325       -11.6281
  60   2.0000      -0.422616       -11.5000
  61   2.0000      -0.417002       -11.3472
  62   2.0000      -0.413963       -11.2645
  63   2.0000      -0.345410        -9.3991
  64   2.0000      -0.332637        -9.0515
  65   2.0000      -0.329631        -8.9697
  66   2.0000      -0.297186        -8.0868
  67   0.0000       0.033271         0.9054
  68   0.0000       0.062190         1.6923
  69   0.0000       0.107251         2.9184
  70   0.0000       0.119928         3.2634
  71   0.0000       0.127251         3.4627

MULLIKEN ATOMIC CHARGES
-----------------------
   0 S :    0.098719
   1 C :   -0.117601
   2 C :   -0.141827
   3 C :    0.069536
   4 C :   -0.153295
   5 H :   -0.011546
   6 C :    0.077764
   7 H :    0.045654
   8 H :    0.012254
   9 C :   -0.058582
  10 H :    0.038270
  11 H :    0.036623
  12 C :   -0.084956
  13 H :    0.020871
  14 H :    0.030382
  15 H :    0.063622
  16 S :    0.101644
  17 C :   -0.086235
  18 C :    0.003891
  19 C :   -0.018168
  20 C :   -0.152829
  21 H :   -0.011387
  22 C :    0.029944
  23 H :    0.024881
  24 H :    0.053087
  25 C :   -0.088893
  26 H :    0.024441
  27 H :    0.027357
  28 C :   -0.061876
  29 H :    0.032255
  30 H :    0.036295
  31 H :    0.047892
  32 H :    0.055814
  33 H :    0.055998
Sum of atomic charges:   -0.0000000

LOEWDIN ATOMIC CHARGES
----------------------
   0 S :    0.382449
   1 C :   -0.203345
   2 C :   -0.070454
   3 C :   -0.053897
   4 C :   -0.167824
   5 H :    0.025094
   6 C :   -0.033590
   7 H :    0.038413
   8 H :    0.027051
   9 C :   -0.043786
  10 H :    0.026198
  11 H :    0.027952
  12 C :   -0.065026
  13 H :    0.012530
  14 H :    0.024234
  15 H :    0.038099
  16 S :    0.396058
  17 C :   -0.176094
  18 C :   -0.057789
  19 C :   -0.055960
  20 C :   -0.192613
  21 H :    0.017026
  22 C :   -0.036355
  23 H :    0.029499
  24 H :    0.042542
  25 C :   -0.041971
  26 H :    0.019790
  27 H :    0.021113
  28 C :   -0.068550
  29 H :    0.027512
  30 H :    0.027359
  31 H :    0.025086
  32 H :    0.037737
  33 H :    0.021510

  Mayer bond orders larger than 0.100000
B(  0-S ,  1-C ) :   1.1133 B(  0-S ,  4-C ) :   1.1378 B(  1-C ,  2-C ) :   1.6825
B(  1-C , 32-H ) :   0.9485 B(  2-C ,  3-C ) :   1.1917 B(  2-C ,  6-C ) :   1.0122
B(  3-C ,  4-C ) :   1.6208 B(  3-C ,  5-H ) :   1.0043 B(  4-C , 20-C ) :   0.9928
B(  6-C ,  7-H ) :   0.9404 B(  6-C ,  8-H ) :   0.9378 B(  6-C ,  9-C ) :   1.0778
B(  9-C , 10-H ) :   0.9568 B(  9-C , 11-H ) :   0.9537 B(  9-C , 12-C ) :   1.0708
B( 12-C , 13-H ) :   0.9792 B( 12-C , 14-H ) :   0.9737 B( 12-C , 15-H ) :   0.9678
B( 16-S , 17-C ) :   1.1740 B( 16-S , 20-C ) :   1.1400 B( 17-C , 18-C ) :   1.5691
B( 17-C , 20-C ) :   0.1017 B( 17-C , 33-H ) :   0.9708 B( 18-C , 19-C ) :   1.2454
B( 18-C , 21-H ) :   1.0040 B( 19-C , 20-C ) :   1.6157 B( 19-C , 22-C ) :   1.0389
B( 22-C , 23-H ) :   0.9366 B( 22-C , 24-H ) :   0.9385 B( 22-C , 25-C ) :   1.0714
B( 25-C , 26-H ) :   0.9550 B( 25-C , 27-H ) :   0.9506 B( 25-C , 28-C ) :   1.0795
B( 28-C , 29-H ) :   0.9737 B( 28-C , 30-H ) :   0.9718 B( 28-C , 31-H ) :   0.9721

Dispersion correction           -0.015306388
FINAL SINGLE POINT ENERGY     -1339.886763244921

DIPOLE MOMENT
-------------
                                X             Y             Z
Electronic contribution:     -6.56608       5.31482     -21.69469
Nuclear contribution   :      6.62685      -5.46463      22.37587
                        -----------------------------------------
Total Dipole Moment    :      0.06077      -0.14981       0.68118
                        -----------------------------------------
Magnitude (a.u.)       :      0.70010
Magnitude (Debye)      :      1.77951

Rotational constants in cm-1:     0.019877     0.008884     0.007246
Rotational constants in MHz :   595.896749   266.335528   217.227535

                             ****ORCA TERMINATED NORMALLY****
TOTAL RUN TIME: 0 days 0 hours 0 minutes 35 seconds 232 msec
