                         Program Version 4.2.1 -  RELEASE  -
|  1> ! wB97X-D3 SP def2-SVP
|  2> %pal
|  3> nprocs 16
|  4> end
|  5>
|  6> * xyz 0 1
|  7> S 	 -89.0351 	 48.2661 	 127.106
|  8> C 	 -90.1773 	 49.05 	 126.069
|  9> C 	 -89.6535 	 49.9784 	 125.248
| 10> C 	 -88.2517 	 49.8869 	 125.322
| 11> C 	 -87.7293 	 48.9011 	 126.137
| 12> H 	 -87.5712 	 50.531 	 124.71
| 13> C 	 -90.3802 	 50.8777 	 124.273
| 14> H 	 -91.187 	 50.3628 	 123.784
| 15> H 	 -89.6876 	 51.0014 	 123.432
| 16> C 	 -90.8277 	 52.2231 	 124.895
| 17> H 	 -91.3195 	 52.0909 	 125.913
| 18> H 	 -89.8232 	 52.7275 	 125.1
| 19> C 	 -91.5826 	 53.0756 	 123.834
| 20> H 	 -90.9575 	 53.1323 	 122.958
| 21> H 	 -92.4746 	 52.5872 	 123.466
| 22> H 	 -91.7752 	 54.1 	 124.135
| 23> S 	 -85.6544 	 47.2009 	 126.247
| 24> C 	 -84.2077 	 47.7062 	 127.141
| 25> C 	 -84.1608 	 49.0451 	 127.352
| 26> C 	 -85.3707 	 49.6862 	 126.88
| 27> C 	 -86.3468 	 48.7683 	 126.458
| 28> H 	 -83.2338 	 49.4279 	 127.845
| 29> C 	 -85.5488 	 51.1496 	 126.97
| 30> H 	 -86.5366 	 51.4111 	 126.672
| 31> H 	 -84.792 	 51.4999 	 126.26
| 32> C 	 -85.2885 	 51.738 	 128.39
| 33> H 	 -85.4495 	 52.7835 	 128.485
| 34> H 	 -84.2598 	 51.4638 	 128.555
| 35> C 	 -86.229 	 51.0617 	 129.396
| 36> H 	 -86.5106 	 51.765 	 130.243
| 37> H 	 -85.7327 	 50.1788 	 129.874
| 38> H 	 -87.1316 	 50.647 	 129.069
| 39> H 	 -91.1748 	 48.9546 	 126.259
| 40> H 	 -83.3321 	 47.1512 	 127.357
| 41> *
| 42>
| 43>                          ****END OF INPUT****

CARTESIAN COORDINATES (ANGSTROEM)
---------------------------------
  S    -89.035100   48.266100  127.106000
  C    -90.177300   49.050000  126.069000
  C    -89.653500   49.978400  125.248000
  C    -88.251700   49.886900  125.322000
  C    -87.729300   48.901100  126.137000
  H    -87.571200   50.531000  124.710000
  C    -90.380200   50.877700  124.273000
  H    -91.187000   50.362800  123.784000
  H    -89.687600   51.001400  123.432000
  C    -90.827700   52.223100  124.895000
  H    -91.319500   52.090900  125.913000
  H    -89.823200   52.727500  125.100000
  C    -91.582600   53.075600  123.834000
  H    -90.957500   53.132300  122.958000
  H    -92.474600   52.587200  123.466000
  H    -91.775200   54.100000  124.135000
  S    -85.654400   47.200900  126.247000
  C    -84.207700   47.706200  127.141000
  C    -84.160800   49.045100  127.352000
  C    -85.370700   49.686200  126.880000
  C    -86.346800   48.768300  126.458000
  H    -83.233800   49.427900  127.845000
  C    -85.548800   51.149600  126.970000
  H    -86.536600   51.411100  126.672000
  H    -84.792000   51.499900  126.260000
  C    -85.288500   51.738000  128.390000
  H    -85.449500   52.783500  128.485000
  H    -84.259800   51.463800  128.555000
  C    -86.229000   51.061700  129.396000
  H    -86.510600   51.765000  130.243000
  H    -85.732700   50.178800  129.874000
  H    -87.131600   50.647000  129.069000
  H    -91.174800   48.954600  126.259000
  H    -83.332100   47.151200  127.357000

 Total Charge           Charge          ....    0
 Multiplicity           Mult            ....    1
 Number of Electrons    NEL             ....  134
 Basis Dimension        Dim             ....  322

ORBITAL ENERGIES
----------------

  NO   OCC          E(Eh)            E(eV)
   0   2.0000     -88.965988     -2420.8876
   1   2.0000     -88.961131     -2420.7555
   2   2.0000     -10.322470      -280.8887
   3   2.0000     -10.320504      -280.8352
   4   2.0000     -10.311313      -280.5851
   5   2.0000     -10.304678      -280.4046
   6   2.0000     -10.303193      -280.3641
   7   2.0000     -10.302688      -280.3504
   8   2.0000     -10.295618      -280.1580
   9   2.0000     -10.294782      -280.1353
  10   2.0000     -10.294403      -280.1250
  11   2.0000     -10.293455      -280.0991
  12   2.0000     -10.283512      -279.8286
  13   2.0000     -10.282308      -279.7958
  14   2.0000     -10.280900      -279.7575
  15   2.0000     -10.271371      -279.4982
  16   2.0000      -8.081217      -219.9011
  17   2.0000      -8.076111      -219.7621
  18   2.0000      -6.039657      -164.3474
  19   2.0000      -6.035807      -164.2427
  20   2.0000      -6.034680      -164.2120
  21   2.0000      -6.031861      -164.1353
  22   2.0000      -6.030689      -164.1034
  23   2.0000      -6.026691      -163.9946
  24   2.0000      -1.013069       -27.5670
  25   2.0000      -0.988783       -26.9062
  26   2.0000      -0.913022       -24.8446
  27   2.0000      -0.909962       -24.7613
  28   2.0000      -0.876109       -23.8401
  29   2.0000      -0.851055       -23.1584
  30   2.0000      -0.841350       -22.8943
  31   2.0000      -0.816966       -22.2308
  32   2.0000      -0.784992       -21.3607
  33   2.0000      -0.768847       -20.9214
  34   2.0000      -0.712296       -19.3825
  35   2.0000      -0.703349       -19.1391
  36   2.0000      -0.697919       -18.9913
  37   2.0000      -0.655381       -17.8338
  38   2.0000      -0.645080       -17.5535
  39   2.0000      -0.623163       -16.9571
  40   2.0000      -0.592920       -16.1342
  41   2.0000      -0.573362       -15.6020
  42   2.0000      -0.556581       -15.1453
  43   2.0000      -0.552489       -15.0340
  44   2.0000      -0.544921       -14.8281
  45   2.0000      -0.528316       -14.3762
  46   2.0000      -0.520216       -14.1558
  47   2.0000      -0.505999       -13.7689
  48   2.0000      -0.500776       -13.6268
  49   2.0000      -0.497925       -13.5492
  50   2.0000      -0.496813       -13.5190
  51   2.0000      -0.476612       -12.9693
  52   2.0000      -0.468694       -12.7538
  53   2.0000      -0.462374       -12.5818
  54   2.0000      -0.455555       -12.3963
  55   2.0000      -0.448674       -12.2090
  56   2.0000      -0.445230       -12.1153
  57   2.0000      -0.443231       -12.0609
  58   2.0000      -0.433846       -11.8056
  59   2.0000      -0.427533       -11.6338
  60   2.0000      -0.421290       -11.4639
  61   2.0000      -0.416160       -11.3243
  62   2.0000      -0.408385       -11.1127
  63   2.0000      -0.342534        -9.3208
  64   2.0000      -0.334977        -9.1152
  65   2.0000      -0.325421        -8.8551
  66   2.0000      -0.294109        -8.0031
  67   0.0000       0.030965         0.8426
  68   0.0000       0.069177         1.8824
  69   0.0000       0.110393         3.0039
  70   0.0000       0.114925         3.1273
  71   0.0000       0.130033         3.5384

MULLIKEN ATOMIC CHARGES
-----------------------
   0 S :    0.118026
   1 C :   -0.083325
   2 C :   -0.061770
   3 C :   -0.009171
   4 C :   -0.126188
   5 H :    0.025342
   6 C :    0.064455
   7 H :    0.019024
   8 H :    0.020782
   9 C :   -0.116824
  10 H :    0.053061
  11 H :    0.035656
  12 C :   -0.004803
  13 H :    0.015604
  14 H :    0.027967
  15 H :    0.040329
  16 S :    0.107433
  17 C :   -0.064960
  18 C :   -0.078273
  19 C :   -0.033675
  20 C :   -0.197189
  21 H :    0.043895
  22 C :    0.081183
  23 H :    0.010455
  24 H :    0.039486
  25 C :   -0.043036
  26 H :    0.031778
  27 H :    0.023285
  28 C :   -0.065018
  29 H :    0.034877
  30 H :    0.033197
  31 H :    0.018886
  32 H :    0.004429
  33 H :    0.035083
Sum of atomic charges:    0.0000000

LOEWDIN ATOMIC CHARGES
----------------------
   0 S :    0.419326
   1 C :   -0.173322
   2 C :   -0.069137
   3 C :   -0.058801
   4 C :   -0.212359
   5 H :    0.033920
   6 C :   -0.031436
   7 H :    0.025956
   8 H :    0.031992
   9 C :   -0.045118
  10 H :    0.031519
  11 H :    0.031358
  12 C :   -0.064712
  13 H :    0.024890
  14 H :    0.023629
  15 H :    0.026941
  16 S :    0.400539
  17 C :   -0.170997
  18 C :   -0.079754
  19 C :   -0.045475
  20 C :   -0.213658
  21 H :    0.044150
  22 C :   -0.029976
  23 H :    0.020440
  24 H :    0.037300
  25 C :   -0.032238
  26 H :    0.021254
  27 H :    0.019719
  28 C :   -0.072202
  29 H :    0.030814
  30 H :    0.032641
  31 H :    0.014354
  32 H :    0.005783
  33 H :    0.022659

  Mayer bond orders larger than 0.100000
B(  0-S ,  1-C ) :   1.1563 B(  0-S ,  4-C ) :   1.1422 B(  1-C ,  2-C ) :   1.6016
B(  1-C , 32-H ) :   0.9764 B(  2-C ,  3-C ) :   1.2675 B(  2-C ,  6-C ) :   1.0060
B(  3-C ,  4-C ) :   1.5562 B(  3-C ,  5-H ) :   0.9880 B(  4-C , 20-C ) :   1.0555
B(  6-C ,  7-H ) :   0.9456 B(  6-C ,  8-H ) :   0.9421 B(  6-C ,  9-C ) :   1.0394
B(  9-C , 10-H ) :   0.9632 B(  9-C , 11-H ) :   0.9550 B(  9-C , 12-C ) :   1.0692
B( 12-C , 13-H ) :   0.9690 B( 12-C , 14-H ) :   0.9760 B( 12-C , 15-H ) :   0.9757
B( 16-S , 17-C ) :   1.1355 B( 16-S , 20-C ) :   1.1350 B( 17-C , 18-C ) :   1.6692
B( 17-C , 33-H ) :   0.9645 B( 18-C , 19-C ) :   1.1928 B( 18-C , 21-H ) :   0.9796
B( 19-C , 20-C ) :   1.5914 B( 19-C , 22-C ) :   1.0501 B( 22-C , 23-H ) :   0.9331
B( 22-C , 24-H ) :   0.9274 B( 22-C , 25-C ) :   1.0716 B( 25-C , 26-H ) :   0.9649
B( 25-C , 27-H ) :   0.9578 B( 25-C , 28-C ) :   1.0595 B( 28-C , 29-H ) :   0.9783
B( 28-C , 30-H ) :   0.9710 B( 28-C , 31-H ) :   0.9797

Dispersion correction           -0.014993542
FINAL SINGLE POINT ENERGY     -1339.862928129159

DIPOLE MOMENT
-------------
                                X             Y             Z
Electronic contribution:      6.98544     -25.64000       1.01218
Nuclear contribution   :     -6.98822      26.34629      -1.15329
                        -----------------------------------------
Total Dipole Moment    :     -0.00278       0.70628      -0.14110
                        -----------------------------------------
Magnitude (a.u.)       :      0.72025
Magnitude (Debye)      :      1.83072

Rotational constants in cm-1:     0.021245     0.008184     0.006962
Rotational constants in MHz :   636.899341   245.335392   208.701082

                             ****ORCA TERMINATED NORMALLY****
TOTAL RUN TIME: 0 days 0 hours 0 minutes 36 seconds 138 msec
