                         Program Version 4.2.1 -  RELEASE  -
|  1> ! wB97X-D3 SP def2-SVP
|  2> %pal
|  3> nprocs 16
|  4> end
|  5>
|  6> * xyz 0 1
|  7> S 	 -15.2681 	 -11.9359 	 90.1164
|  8> C 	 -16.6807 	 -11.2912 	 90.9815
|  9> C 	 -16.3814 	 -10.0087 	 91.4952
| 10> C 	 -15.0507 	 -9.619 	 91.0952
| 11> C 	 -14.3456 	 -10.5269 	 90.3607
| 12> H 	 -14.6391 	 -8.60085 	 91.2685
| 13> C 	 -17.3445 	 -9.07681 	 92.317
| 14> H 	 -18.1363 	 -9.66372 	 92.7874
| 15> H 	 -17.8977 	 -8.5739 	 91.5724
| 16> C 	 -16.8062 	 -8.03102 	 93.3084
| 17> H 	 -16.1564 	 -8.63424 	 93.836
| 18> H 	 -16.3467 	 -7.19329 	 92.7494
| 19> C 	 -17.9709 	 -7.46691 	 94.1112
| 20> H 	 -18.7646 	 -7.10047 	 93.4299
| 21> H 	 -18.5047 	 -8.29542 	 94.6289
| 22> H 	 -17.613 	 -6.64248 	 94.7293
| 23> S 	 -11.6989 	 -10.4001 	 91.1418
| 24> C 	 -10.4828 	 -10.1604 	 89.901
| 25> C 	 -11.0017 	 -9.99624 	 88.6344
| 26> C 	 -12.4283 	 -10.1329 	 88.6335
| 27> C 	 -12.95 	 -10.3546 	 89.8737
| 28> H 	 -10.2895 	 -9.77664 	 87.7864
| 29> C 	 -13.2244 	 -10.131 	 87.2723
| 30> H 	 -14.2124 	 -10.6385 	 87.3939
| 31> H 	 -12.7284 	 -10.7691 	 86.5585
| 32> C 	 -13.563 	 -8.75278 	 86.6802
| 33> H 	 -12.6061 	 -8.21923 	 86.5054
| 34> H 	 -14.1425 	 -8.14967 	 87.3574
| 35> C 	 -14.4727 	 -8.89866 	 85.4631
| 36> H 	 -13.9805 	 -9.32696 	 84.6234
| 37> H 	 -14.9251 	 -7.93534 	 85.2663
| 38> H 	 -15.2286 	 -9.58982 	 85.6796
| 39> H 	 -17.4516 	 -11.9353 	 91.315
| 40> H 	 -9.46289 	 -10.1229 	 90.201
| 41> *
| 42>
| 43>                          ****END OF INPUT****

CARTESIAN COORDINATES (ANGSTROEM)
---------------------------------
  S    -15.268100  -11.935900   90.116400
  C    -16.680700  -11.291200   90.981500
  C    -16.381400  -10.008700   91.495200
  C    -15.050700   -9.619000   91.095200
  C    -14.345600  -10.526900   90.360700
  H    -14.639100   -8.600850   91.268500
  C    -17.344500   -9.076810   92.317000
  H    -18.136300   -9.663720   92.787400
  H    -17.897700   -8.573900   91.572400
  C    -16.806200   -8.031020   93.308400
  H    -16.156400   -8.634240   93.836000
  H    -16.346700   -7.193290   92.749400
  C    -17.970900   -7.466910   94.111200
  H    -18.764600   -7.100470   93.429900
  H    -18.504700   -8.295420   94.628900
  H    -17.613000   -6.642480   94.729300
  S    -11.698900  -10.400100   91.141800
  C    -10.482800  -10.160400   89.901000
  C    -11.001700   -9.996240   88.634400
  C    -12.428300  -10.132900   88.633500
  C    -12.950000  -10.354600   89.873700
  H    -10.289500   -9.776640   87.786400
  C    -13.224400  -10.131000   87.272300
  H    -14.212400  -10.638500   87.393900
  H    -12.728400  -10.769100   86.558500
  C    -13.563000   -8.752780   86.680200
  H    -12.606100   -8.219230   86.505400
  H    -14.142500   -8.149670   87.357400
  C    -14.472700   -8.898660   85.463100
  H    -13.980500   -9.326960   84.623400
  H    -14.925100   -7.935340   85.266300
  H    -15.228600   -9.589820   85.679600
  H    -17.451600  -11.935300   91.315000
  H     -9.462890  -10.122900   90.201000

 Total Charge           Charge          ....    0
 Multiplicity           Mult            ....    1
 Number of Electrons    NEL             ....  134
 Basis Dimension        Dim             ....  322

ORBITAL ENERGIES
----------------

  NO   OCC          E(Eh)            E(eV)
   0   2.0000     -88.965179     -2420.8656
   1   2.0000     -88.964079     -2420.8357
   2   2.0000     -10.328057      -281.0407
   3   2.0000     -10.325288      -280.9654
   4   2.0000     -10.316200      -280.7181
   5   2.0000     -10.314677      -280.6766
   6   2.0000     -10.311363      -280.5864
   7   2.0000     -10.307553      -280.4828
   8   2.0000     -10.300010      -280.2775
   9   2.0000     -10.293798      -280.1085
  10   2.0000     -10.292273      -280.0670
  11   2.0000     -10.291486      -280.0456
  12   2.0000     -10.285205      -279.8747
  13   2.0000     -10.284395      -279.8526
  14   2.0000     -10.282600      -279.8038
  15   2.0000     -10.267184      -279.3843
  16   2.0000      -8.079975      -219.8673
  17   2.0000      -8.078621      -219.8305
  18   2.0000      -6.038415      -164.3136
  19   2.0000      -6.037082      -164.2774
  20   2.0000      -6.034327      -164.2024
  21   2.0000      -6.033254      -164.1732
  22   2.0000      -6.030945      -164.1103
  23   2.0000      -6.029351      -164.0670
  24   2.0000      -1.004048       -27.3215
  25   2.0000      -0.981526       -26.7087
  26   2.0000      -0.913959       -24.8701
  27   2.0000      -0.904949       -24.6249
  28   2.0000      -0.866203       -23.5706
  29   2.0000      -0.850125       -23.1331
  30   2.0000      -0.843356       -22.9489
  31   2.0000      -0.810541       -22.0559
  32   2.0000      -0.781465       -21.2647
  33   2.0000      -0.772584       -21.0231
  34   2.0000      -0.707650       -19.2561
  35   2.0000      -0.698499       -19.0071
  36   2.0000      -0.687973       -18.7207
  37   2.0000      -0.662902       -18.0385
  38   2.0000      -0.639021       -17.3886
  39   2.0000      -0.615165       -16.7395
  40   2.0000      -0.596735       -16.2380
  41   2.0000      -0.579595       -15.7716
  42   2.0000      -0.564856       -15.3705
  43   2.0000      -0.560599       -15.2547
  44   2.0000      -0.531302       -14.4575
  45   2.0000      -0.524651       -14.2765
  46   2.0000      -0.512621       -13.9491
  47   2.0000      -0.508806       -13.8453
  48   2.0000      -0.502640       -13.6775
  49   2.0000      -0.496279       -13.5044
  50   2.0000      -0.487008       -13.2522
  51   2.0000      -0.474529       -12.9126
  52   2.0000      -0.470715       -12.8088
  53   2.0000      -0.465669       -12.6715
  54   2.0000      -0.453024       -12.3274
  55   2.0000      -0.450817       -12.2674
  56   2.0000      -0.444965       -12.1081
  57   2.0000      -0.438956       -11.9446
  58   2.0000      -0.431608       -11.7447
  59   2.0000      -0.426342       -11.6014
  60   2.0000      -0.422037       -11.4842
  61   2.0000      -0.417048       -11.3485
  62   2.0000      -0.412037       -11.2121
  63   2.0000      -0.335635        -9.1331
  64   2.0000      -0.332880        -9.0581
  65   2.0000      -0.326897        -8.8953
  66   2.0000      -0.305445        -8.3116
  67   0.0000       0.044718         1.2168
  68   0.0000       0.059298         1.6136
  69   0.0000       0.110248         3.0000
  70   0.0000       0.124713         3.3936
  71   0.0000       0.129701         3.5293

MULLIKEN ATOMIC CHARGES
-----------------------
   0 S :    0.113029
   1 C :   -0.133067
   2 C :   -0.077055
   3 C :    0.002033
   4 C :   -0.146692
   5 H :    0.025244
   6 C :    0.032127
   7 H :    0.010530
   8 H :    0.024129
   9 C :   -0.036505
  10 H :    0.025578
  11 H :    0.042218
  12 C :   -0.057589
  13 H :    0.027012
  14 H :    0.034365
  15 H :    0.048345
  16 S :    0.105570
  17 C :   -0.094114
  18 C :   -0.045834
  19 C :    0.015400
  20 C :   -0.183369
  21 H :    0.046103
  22 C :    0.034756
  23 H :    0.016171
  24 H :    0.026825
  25 C :   -0.074565
  26 H :    0.029413
  27 H :    0.025606
  28 C :    0.004478
  29 H :    0.019196
  30 H :    0.034141
  31 H :    0.010072
  32 H :    0.047596
  33 H :    0.048854
Sum of atomic charges:   -0.0000000

LOEWDIN ATOMIC CHARGES
----------------------
   0 S :    0.421884
   1 C :   -0.197735
   2 C :   -0.051385
   3 C :   -0.079471
   4 C :   -0.215188
   5 H :    0.035806
   6 C :   -0.032409
   7 H :    0.027427
   8 H :    0.026624
   9 C :   -0.035289
  10 H :    0.016711
  11 H :    0.030151
  12 C :   -0.065064
  13 H :    0.027953
  14 H :    0.029299
  15 H :    0.029412
  16 S :    0.391364
  17 C :   -0.171527
  18 C :   -0.079139
  19 C :   -0.051871
  20 C :   -0.187878
  21 H :    0.045682
  22 C :   -0.030683
  23 H :    0.027479
  24 H :    0.026816
  25 C :   -0.038598
  26 H :    0.022838
  27 H :    0.023616
  28 C :   -0.054524
  29 H :    0.020193
  30 H :    0.028397
  31 H :    0.019148
  32 H :    0.020070
  33 H :    0.019890

  Mayer bond orders larger than 0.100000
B(  0-S ,  1-C ) :   1.1452 B(  0-S ,  4-C ) :   1.1726 B(  1-C ,  2-C ) :   1.5919
B(  1-C , 32-H ) :   0.9734 B(  2-C ,  3-C ) :   1.2565 B(  2-C ,  6-C ) :   1.0004
B(  3-C ,  4-C ) :   1.5830 B(  3-C ,  5-H ) :   0.9870 B(  4-C , 20-C ) :   0.9811
B(  6-C ,  7-H ) :   0.9481 B(  6-C ,  8-H ) :   0.9319 B(  6-C ,  9-C ) :   1.0579
B(  9-C , 10-H ) :   0.9635 B(  9-C , 11-H ) :   0.9447 B(  9-C , 12-C ) :   1.0893
B( 12-C , 13-H ) :   0.9726 B( 12-C , 14-H ) :   0.9729 B( 12-C , 15-H ) :   0.9726
B( 16-S , 17-C ) :   1.1556 B( 16-S , 20-C ) :   1.1341 B( 17-C , 18-C ) :   1.6284
B( 17-C , 33-H ) :   0.9717 B( 18-C , 19-C ) :   1.2060 B( 18-C , 21-H ) :   0.9834
B( 19-C , 20-C ) :   1.6621 B( 19-C , 22-C ) :   1.0203 B( 22-C , 23-H ) :   0.9363
B( 22-C , 24-H ) :   0.9463 B( 22-C , 25-C ) :   1.0662 B( 25-C , 26-H ) :   0.9563
B( 25-C , 27-H ) :   0.9558 B( 25-C , 28-C ) :   1.0825 B( 28-C , 29-H ) :   0.9736
B( 28-C , 30-H ) :   0.9755 B( 28-C , 31-H ) :   0.9699

Dispersion correction           -0.013526343
FINAL SINGLE POINT ENERGY     -1339.875637938409

DIPOLE MOMENT
-------------
                                X             Y             Z
Electronic contribution:     15.01847     -16.58640       4.77915
Nuclear contribution   :    -15.19909      17.01063      -4.86199
                        -----------------------------------------
Total Dipole Moment    :     -0.18061       0.42423      -0.08284
                        -----------------------------------------
Magnitude (a.u.)       :      0.46846
Magnitude (Debye)      :      1.19073

Rotational constants in cm-1:     0.017301     0.007686     0.006733
Rotational constants in MHz :   518.671515   230.425607   201.851140

                             ****ORCA TERMINATED NORMALLY****
TOTAL RUN TIME: 0 days 0 hours 0 minutes 30 seconds 596 msec
