                         Program Version 4.2.1 -  RELEASE  -
|  1> ! wB97X-D3 SP def2-SVP
|  2> %pal
|  3> nprocs 16
|  4> end
|  5>
|  6> * xyz 0 1
|  7> S 	 -42.5698 	 28.0976 	 87.3437
|  8> C 	 -42.3405 	 28.1565 	 89.0979
|  9> C 	 -42.7064 	 29.4154 	 89.5884
| 10> C 	 -43.0518 	 30.2578 	 88.4446
| 11> C 	 -43.023 	 29.7299 	 87.2019
| 12> H 	 -43.3432 	 31.333 	 88.5545
| 13> C 	 -42.8777 	 29.8007 	 90.9329
| 14> H 	 -43.0107 	 28.8601 	 91.4812
| 15> H 	 -43.8152 	 30.2664 	 91.0521
| 16> C 	 -41.5857 	 30.5649 	 91.5314
| 17> H 	 -41.6986 	 30.7377 	 92.6012
| 18> H 	 -40.6493 	 29.9308 	 91.5451
| 19> C 	 -41.1678 	 31.8881 	 90.8555
| 20> H 	 -40.863 	 31.7043 	 89.8276
| 21> H 	 -42.0452 	 32.5211 	 90.6935
| 22> H 	 -40.3454 	 32.3472 	 91.2743
| 23> S 	 -44.8878 	 29.3818 	 85.2359
| 24> C 	 -45.0422 	 30.541 	 83.9206
| 25> C 	 -44.1132 	 31.5729 	 84.0534
| 26> C 	 -43.3388 	 31.3931 	 85.279
| 27> C 	 -43.5941 	 30.269 	 85.9629
| 28> H 	 -44.1486 	 32.486 	 83.4393
| 29> C 	 -42.2573 	 32.4247 	 85.653
| 30> H 	 -41.7024 	 32.5296 	 84.7226
| 31> H 	 -41.5472 	 32.1092 	 86.4238
| 32> C 	 -42.852 	 33.8358 	 86.0937
| 33> H 	 -42.6021 	 34.1013 	 87.0881
| 34> H 	 -43.9889 	 33.7341 	 86.1092
| 35> C 	 -42.6423 	 34.9294 	 85.0908
| 36> H 	 -42.9577 	 35.8809 	 85.5865
| 37> H 	 -43.1576 	 34.9057 	 84.1419
| 38> H 	 -41.6404 	 35.0781 	 84.9643
| 39> H 	 -42.1069 	 27.3965 	 89.7859
| 40> H 	 -45.6894 	 30.4142 	 83.0074
| 41> *
| 42>
| 43>                          ****END OF INPUT****

CARTESIAN COORDINATES (ANGSTROEM)
---------------------------------
  S    -42.569800   28.097600   87.343700
  C    -42.340500   28.156500   89.097900
  C    -42.706400   29.415400   89.588400
  C    -43.051800   30.257800   88.444600
  C    -43.023000   29.729900   87.201900
  H    -43.343200   31.333000   88.554500
  C    -42.877700   29.800700   90.932900
  H    -43.010700   28.860100   91.481200
  H    -43.815200   30.266400   91.052100
  C    -41.585700   30.564900   91.531400
  H    -41.698600   30.737700   92.601200
  H    -40.649300   29.930800   91.545100
  C    -41.167800   31.888100   90.855500
  H    -40.863000   31.704300   89.827600
  H    -42.045200   32.521100   90.693500
  H    -40.345400   32.347200   91.274300
  S    -44.887800   29.381800   85.235900
  C    -45.042200   30.541000   83.920600
  C    -44.113200   31.572900   84.053400
  C    -43.338800   31.393100   85.279000
  C    -43.594100   30.269000   85.962900
  H    -44.148600   32.486000   83.439300
  C    -42.257300   32.424700   85.653000
  H    -41.702400   32.529600   84.722600
  H    -41.547200   32.109200   86.423800
  C    -42.852000   33.835800   86.093700
  H    -42.602100   34.101300   87.088100
  H    -43.988900   33.734100   86.109200
  C    -42.642300   34.929400   85.090800
  H    -42.957700   35.880900   85.586500
  H    -43.157600   34.905700   84.141900
  H    -41.640400   35.078100   84.964300
  H    -42.106900   27.396500   89.785900
  H    -45.689400   30.414200   83.007400

 Total Charge           Charge          ....    0
 Multiplicity           Mult            ....    1
 Number of Electrons    NEL             ....  134
 Basis Dimension        Dim             ....  322

ORBITAL ENERGIES
----------------

  NO   OCC          E(Eh)            E(eV)
   0   2.0000     -88.963845     -2420.8293
   1   2.0000     -88.963802     -2420.8281
   2   2.0000     -10.325877      -280.9814
   3   2.0000     -10.323603      -280.9195
   4   2.0000     -10.321519      -280.8628
   5   2.0000     -10.313420      -280.6424
   6   2.0000     -10.301437      -280.3163
   7   2.0000     -10.300973      -280.3037
   8   2.0000     -10.298827      -280.2453
   9   2.0000     -10.298674      -280.2412
  10   2.0000     -10.292441      -280.0716
  11   2.0000     -10.292212      -280.0653
  12   2.0000     -10.292121      -280.0628
  13   2.0000     -10.288072      -279.9527
  14   2.0000     -10.273126      -279.5460
  15   2.0000     -10.271120      -279.4914
  16   2.0000      -8.079044      -219.8420
  17   2.0000      -8.078939      -219.8391
  18   2.0000      -6.037642      -164.2926
  19   2.0000      -6.037541      -164.2898
  20   2.0000      -6.033393      -164.1770
  21   2.0000      -6.033355      -164.1759
  22   2.0000      -6.029726      -164.0772
  23   2.0000      -6.029593      -164.0736
  24   2.0000      -1.012268       -27.5452
  25   2.0000      -0.987088       -26.8600
  26   2.0000      -0.918014       -24.9804
  27   2.0000      -0.903793       -24.5935
  28   2.0000      -0.868160       -23.6238
  29   2.0000      -0.852165       -23.1886
  30   2.0000      -0.844891       -22.9907
  31   2.0000      -0.818368       -22.2689
  32   2.0000      -0.785650       -21.3786
  33   2.0000      -0.774138       -21.0654
  34   2.0000      -0.710790       -19.3416
  35   2.0000      -0.704149       -19.1609
  36   2.0000      -0.693807       -18.8795
  37   2.0000      -0.664265       -18.0756
  38   2.0000      -0.640721       -17.4349
  39   2.0000      -0.615056       -16.7365
  40   2.0000      -0.593461       -16.1489
  41   2.0000      -0.575400       -15.6574
  42   2.0000      -0.552749       -15.0411
  43   2.0000      -0.552092       -15.0232
  44   2.0000      -0.544161       -14.8074
  45   2.0000      -0.531944       -14.4749
  46   2.0000      -0.517320       -14.0770
  47   2.0000      -0.513639       -13.9768
  48   2.0000      -0.510445       -13.8899
  49   2.0000      -0.505400       -13.7526
  50   2.0000      -0.496981       -13.5235
  51   2.0000      -0.479246       -13.0409
  52   2.0000      -0.476757       -12.9732
  53   2.0000      -0.466039       -12.6816
  54   2.0000      -0.460923       -12.5423
  55   2.0000      -0.446633       -12.1535
  56   2.0000      -0.443061       -12.0563
  57   2.0000      -0.438573       -11.9342
  58   2.0000      -0.428829       -11.6690
  59   2.0000      -0.424432       -11.5494
  60   2.0000      -0.414801       -11.2873
  61   2.0000      -0.411887       -11.2080
  62   2.0000      -0.406446       -11.0600
  63   2.0000      -0.346415        -9.4264
  64   2.0000      -0.328573        -8.9409
  65   2.0000      -0.322715        -8.7815
  66   2.0000      -0.301866        -8.2142
  67   0.0000       0.039471         1.0741
  68   0.0000       0.069566         1.8930
  69   0.0000       0.114580         3.1179
  70   0.0000       0.123260         3.3541
  71   0.0000       0.125681         3.4199

MULLIKEN ATOMIC CHARGES
-----------------------
   0 S :    0.105275
   1 C :   -0.080571
   2 C :   -0.113889
   3 C :    0.010086
   4 C :   -0.143612
   5 H :    0.015099
   6 C :    0.086144
   7 H :    0.017058
   8 H :    0.030640
   9 C :   -0.092706
  10 H :    0.029827
  11 H :    0.033114
  12 C :   -0.024700
  13 H :    0.025550
  14 H :    0.027407
  15 H :    0.025889
  16 S :    0.108027
  17 C :   -0.115967
  18 C :   -0.036238
  19 C :   -0.065224
  20 C :   -0.132327
  21 H :    0.035880
  22 C :    0.060489
  23 H :    0.033002
  24 H :    0.035254
  25 C :   -0.092341
  26 H :    0.024976
  27 H :    0.041793
  28 C :   -0.024666
  29 H :    0.023485
  30 H :    0.036774
  31 H :    0.009696
  32 H :    0.024698
  33 H :    0.082077
Sum of atomic charges:   -0.0000000

LOEWDIN ATOMIC CHARGES
----------------------
   0 S :    0.418751
   1 C :   -0.186076
   2 C :   -0.062984
   3 C :   -0.069857
   4 C :   -0.214939
   5 H :    0.031539
   6 C :   -0.033927
   7 H :    0.039192
   8 H :    0.032861
   9 C :   -0.035453
  10 H :    0.020281
  11 H :    0.031124
  12 C :   -0.065073
  13 H :    0.025731
  14 H :    0.024303
  15 H :    0.018142
  16 S :    0.406687
  17 C :   -0.187354
  18 C :   -0.075637
  19 C :   -0.057428
  20 C :   -0.207146
  21 H :    0.037017
  22 C :   -0.029621
  23 H :    0.031450
  24 H :    0.030915
  25 C :   -0.041433
  26 H :    0.018354
  27 H :    0.032497
  28 C :   -0.063337
  29 H :    0.033764
  30 H :    0.023839
  31 H :    0.009663
  32 H :    0.020544
  33 H :    0.043611

  Mayer bond orders larger than 0.100000
B(  0-S ,  1-C ) :   1.1366 B(  0-S ,  4-C ) :   1.1468 B(  1-C ,  2-C ) :   1.6058
B(  1-C , 32-H ) :   0.9683 B(  2-C ,  3-C ) :   1.2280 B(  2-C ,  6-C ) :   1.0506
B(  3-C ,  4-C ) :   1.6012 B(  3-C ,  5-H ) :   0.9853 B(  4-C , 20-C ) :   0.9969
B(  6-C ,  7-H ) :   0.9277 B(  6-C ,  8-H ) :   0.9409 B(  6-C ,  9-C ) :   1.0474
B(  9-C , 10-H ) :   0.9608 B(  9-C , 11-H ) :   0.9584 B(  9-C , 12-C ) :   1.0804
B( 12-C , 13-H ) :   0.9683 B( 12-C , 14-H ) :   0.9743 B( 12-C , 15-H ) :   0.9716
B( 16-S , 17-C ) :   1.1551 B( 16-S , 20-C ) :   1.1231 B( 17-C , 18-C ) :   1.6277
B( 17-C , 33-H ) :   0.9592 B( 18-C , 19-C ) :   1.2129 B( 18-C , 21-H ) :   0.9831
B( 19-C , 20-C ) :   1.6682 B( 19-C , 22-C ) :   1.0465 B( 22-C , 23-H ) :   0.9478
B( 22-C , 24-H ) :   0.9416 B( 22-C , 25-C ) :   1.0190 B( 25-C , 26-H ) :   0.9607
B( 25-C , 27-H ) :   0.9687 B( 25-C , 28-C ) :   1.0852 B( 28-C , 29-H ) :   0.9655
B( 28-C , 30-H ) :   0.9755 B( 28-C , 31-H ) :   0.9733

Dispersion correction           -0.014782897
FINAL SINGLE POINT ENERGY     -1339.853914346546

DIPOLE MOMENT
-------------
                                X             Y             Z
Electronic contribution:     -9.55208     -24.59566     -12.34510
Nuclear contribution   :      9.60934      25.20237      12.68240
                        -----------------------------------------
Total Dipole Moment    :      0.05725       0.60671       0.33730
                        -----------------------------------------
Magnitude (a.u.)       :      0.69652
Magnitude (Debye)      :      1.77042

Rotational constants in cm-1:     0.017619     0.009641     0.006702
Rotational constants in MHz :   528.190136   289.018702   200.908742

                             ****ORCA TERMINATED NORMALLY****
TOTAL RUN TIME: 0 days 0 hours 0 minutes 30 seconds 547 msec
