                         Program Version 4.2.1 -  RELEASE  -
|  1> ! wB97X-D3 SP def2-SVP
|  2> %pal
|  3> nprocs 16
|  4> end
|  5>
|  6> * xyz 0 1
|  7> S 	 -46.2375 	 38.4293 	 82.6231
|  8> C 	 -46.9293 	 38.0261 	 84.1928
|  9> C 	 -46.0164 	 38.306 	 85.1463
| 10> C 	 -45.0396 	 39.2242 	 84.6684
| 11> C 	 -44.9586 	 39.3674 	 83.3078
| 12> H 	 -44.247 	 39.5768 	 85.3326
| 13> C 	 -46.2877 	 37.967 	 86.591
| 14> H 	 -45.2917 	 37.9617 	 87.0307
| 15> H 	 -46.6207 	 36.8984 	 86.791
| 16> C 	 -47.1068 	 38.9405 	 87.4138
| 17> H 	 -46.6717 	 39.9528 	 87.1299
| 18> H 	 -48.0823 	 38.9719 	 86.9467
| 19> C 	 -46.8942 	 38.6605 	 88.9083
| 20> H 	 -47.3065 	 39.3254 	 89.6688
| 21> H 	 -47.2168 	 37.6876 	 89.3322
| 22> H 	 -45.8256 	 38.6221 	 89.182
| 23> S 	 -44.14 	 41.5539 	 82.0455
| 24> C 	 -42.4743 	 41.747 	 81.5446
| 25> C 	 -41.7312 	 40.6385 	 81.9056
| 26> C 	 -42.4651 	 39.5983 	 82.5328
| 27> C 	 -43.8181 	 39.9161 	 82.6281
| 28> H 	 -40.6494 	 40.5868 	 81.7428
| 29> C 	 -41.8411 	 38.2922 	 82.9949
| 30> H 	 -42.4273 	 37.8236 	 83.7961
| 31> H 	 -40.9057 	 38.6951 	 83.4142
| 32> C 	 -41.7822 	 37.3623 	 81.8784
| 33> H 	 -42.8218 	 37.1214 	 81.6035
| 34> H 	 -41.3604 	 36.4251 	 82.3039
| 35> C 	 -40.9112 	 37.838 	 80.6168
| 36> H 	 -40.4422 	 37.1182 	 79.9597
| 37> H 	 -40.0543 	 38.3458 	 81.1546
| 38> H 	 -41.4539 	 38.6183 	 80.0602
| 39> H 	 -47.764 	 37.314 	 84.3588
| 40> H 	 -42.0608 	 42.6554 	 81.1443
| 41> *
| 42>
| 43>                          ****END OF INPUT****

CARTESIAN COORDINATES (ANGSTROEM)
---------------------------------
  S    -46.237500   38.429300   82.623100
  C    -46.929300   38.026100   84.192800
  C    -46.016400   38.306000   85.146300
  C    -45.039600   39.224200   84.668400
  C    -44.958600   39.367400   83.307800
  H    -44.247000   39.576800   85.332600
  C    -46.287700   37.967000   86.591000
  H    -45.291700   37.961700   87.030700
  H    -46.620700   36.898400   86.791000
  C    -47.106800   38.940500   87.413800
  H    -46.671700   39.952800   87.129900
  H    -48.082300   38.971900   86.946700
  C    -46.894200   38.660500   88.908300
  H    -47.306500   39.325400   89.668800
  H    -47.216800   37.687600   89.332200
  H    -45.825600   38.622100   89.182000
  S    -44.140000   41.553900   82.045500
  C    -42.474300   41.747000   81.544600
  C    -41.731200   40.638500   81.905600
  C    -42.465100   39.598300   82.532800
  C    -43.818100   39.916100   82.628100
  H    -40.649400   40.586800   81.742800
  C    -41.841100   38.292200   82.994900
  H    -42.427300   37.823600   83.796100
  H    -40.905700   38.695100   83.414200
  C    -41.782200   37.362300   81.878400
  H    -42.821800   37.121400   81.603500
  H    -41.360400   36.425100   82.303900
  C    -40.911200   37.838000   80.616800
  H    -40.442200   37.118200   79.959700
  H    -40.054300   38.345800   81.154600
  H    -41.453900   38.618300   80.060200
  H    -47.764000   37.314000   84.358800
  H    -42.060800   42.655400   81.144300

 Total Charge           Charge          ....    0
 Multiplicity           Mult            ....    1
 Number of Electrons    NEL             ....  134
 Basis Dimension        Dim             ....  322

ORBITAL ENERGIES
----------------

  NO   OCC          E(Eh)            E(eV)
   0   2.0000     -88.963757     -2420.8269
   1   2.0000     -88.962310     -2420.7875
   2   2.0000     -10.325490      -280.9709
   3   2.0000     -10.324754      -280.9508
   4   2.0000     -10.318192      -280.7723
   5   2.0000     -10.314075      -280.6603
   6   2.0000     -10.304080      -280.3883
   7   2.0000     -10.296360      -280.1782
   8   2.0000     -10.295034      -280.1421
   9   2.0000     -10.294758      -280.1346
  10   2.0000     -10.292707      -280.0788
  11   2.0000     -10.292610      -280.0762
  12   2.0000     -10.290947      -280.0309
  13   2.0000     -10.289422      -279.9894
  14   2.0000     -10.286245      -279.9029
  15   2.0000     -10.284921      -279.8669
  16   2.0000      -8.078782      -219.8348
  17   2.0000      -8.077037      -219.7874
  18   2.0000      -6.037273      -164.2825
  19   2.0000      -6.035476      -164.2337
  20   2.0000      -6.033236      -164.1727
  21   2.0000      -6.031451      -164.1241
  22   2.0000      -6.029519      -164.0716
  23   2.0000      -6.027961      -164.0291
  24   2.0000      -1.012206       -27.5435
  25   2.0000      -0.988177       -26.8897
  26   2.0000      -0.919253       -25.0141
  27   2.0000      -0.915986       -24.9252
  28   2.0000      -0.874358       -23.7925
  29   2.0000      -0.845015       -22.9940
  30   2.0000      -0.838962       -22.8293
  31   2.0000      -0.812969       -22.1220
  32   2.0000      -0.785185       -21.3660
  33   2.0000      -0.775341       -21.0981
  34   2.0000      -0.711721       -19.3669
  35   2.0000      -0.706575       -19.2269
  36   2.0000      -0.691121       -18.8064
  37   2.0000      -0.665065       -18.0973
  38   2.0000      -0.639774       -17.4091
  39   2.0000      -0.619298       -16.8520
  40   2.0000      -0.594898       -16.1880
  41   2.0000      -0.573474       -15.6050
  42   2.0000      -0.558696       -15.2029
  43   2.0000      -0.552824       -15.0431
  44   2.0000      -0.544005       -14.8031
  45   2.0000      -0.522879       -14.2282
  46   2.0000      -0.517873       -14.0920
  47   2.0000      -0.512236       -13.9386
  48   2.0000      -0.503476       -13.7003
  49   2.0000      -0.494944       -13.4681
  50   2.0000      -0.486486       -13.2379
  51   2.0000      -0.485451       -13.2098
  52   2.0000      -0.474271       -12.9056
  53   2.0000      -0.465042       -12.6544
  54   2.0000      -0.456467       -12.4211
  55   2.0000      -0.449872       -12.2416
  56   2.0000      -0.443081       -12.0569
  57   2.0000      -0.439259       -11.9528
  58   2.0000      -0.437685       -11.9100
  59   2.0000      -0.418440       -11.3863
  60   2.0000      -0.415832       -11.3154
  61   2.0000      -0.409546       -11.1443
  62   2.0000      -0.406527       -11.0622
  63   2.0000      -0.335453        -9.1281
  64   2.0000      -0.330279        -8.9874
  65   2.0000      -0.323552        -8.8043
  66   2.0000      -0.312322        -8.4987
  67   0.0000       0.039863         1.0847
  68   0.0000       0.053841         1.4651
  69   0.0000       0.110780         3.0145
  70   0.0000       0.115379         3.1396
  71   0.0000       0.132801         3.6137

MULLIKEN ATOMIC CHARGES
-----------------------
   0 S :    0.109375
   1 C :   -0.114869
   2 C :   -0.096938
   3 C :    0.036642
   4 C :   -0.133796
   5 H :    0.015703
   6 C :   -0.001683
   7 H :    0.006967
   8 H :    0.034966
   9 C :   -0.015107
  10 H :    0.033336
  11 H :    0.027064
  12 C :   -0.055440
  13 H :    0.034887
  14 H :    0.024316
  15 H :    0.024896
  16 S :    0.101933
  17 C :   -0.076257
  18 C :   -0.061150
  19 C :   -0.038362
  20 C :   -0.202453
  21 H :    0.023634
  22 C :    0.084116
  23 H :    0.030802
  24 H :    0.029671
  25 C :   -0.055677
  26 H :    0.033155
  27 H :    0.031182
  28 C :   -0.077207
  29 H :    0.045775
  30 H :    0.019404
  31 H :    0.061332
  32 H :    0.066016
  33 H :    0.053765
Sum of atomic charges:    0.0000000

LOEWDIN ATOMIC CHARGES
----------------------
   0 S :    0.408943
   1 C :   -0.190595
   2 C :   -0.073860
   3 C :   -0.061133
   4 C :   -0.219822
   5 H :    0.031147
   6 C :   -0.042266
   7 H :    0.024792
   8 H :    0.033645
   9 C :   -0.040358
  10 H :    0.035278
  11 H :    0.023861
  12 C :   -0.078224
  13 H :    0.027734
  14 H :    0.027917
  15 H :    0.030061
  16 S :    0.406904
  17 C :   -0.181212
  18 C :   -0.077832
  19 C :   -0.047994
  20 C :   -0.197078
  21 H :    0.032388
  22 C :   -0.033983
  23 H :    0.037487
  24 H :    0.031954
  25 C :   -0.039501
  26 H :    0.027451
  27 H :    0.026322
  28 C :   -0.070826
  29 H :    0.025558
  30 H :    0.025953
  31 H :    0.030978
  32 H :    0.038426
  33 H :    0.027883

  Mayer bond orders larger than 0.100000
B(  0-S ,  1-C ) :   1.1400 B(  0-S ,  4-C ) :   1.1497 B(  1-C ,  2-C ) :   1.6029
B(  1-C , 32-H ) :   0.9629 B(  2-C ,  3-C ) :   1.2474 B(  2-C ,  6-C ) :   1.0426
B(  3-C ,  4-C ) :   1.5668 B(  3-C ,  5-H ) :   0.9918 B(  4-C , 20-C ) :   1.0176
B(  6-C ,  7-H ) :   0.9344 B(  6-C ,  8-H ) :   0.9425 B(  6-C ,  9-C ) :   1.0541
B(  9-C , 10-H ) :   0.9523 B(  9-C , 11-H ) :   0.9581 B(  9-C , 12-C ) :   1.0521
B( 12-C , 13-H ) :   0.9765 B( 12-C , 14-H ) :   0.9757 B( 12-C , 15-H ) :   0.9733
B( 16-S , 17-C ) :   1.1634 B( 16-S , 20-C ) :   1.1531 B( 17-C , 18-C ) :   1.5924
B( 17-C , 20-C ) :   0.1072 B( 17-C , 33-H ) :   0.9706 B( 18-C , 19-C ) :   1.2546
B( 18-C , 21-H ) :   0.9820 B( 19-C , 20-C ) :   1.6014 B( 19-C , 22-C ) :   1.0158
B( 22-C , 23-H ) :   0.9278 B( 22-C , 24-H ) :   0.9295 B( 22-C , 25-C ) :   1.0959
B( 25-C , 26-H ) :   0.9487 B( 25-C , 27-H ) :   0.9544 B( 25-C , 28-C ) :   1.0552
B( 28-C , 29-H ) :   0.9767 B( 28-C , 30-H ) :   0.9745 B( 28-C , 31-H ) :   0.9697

Dispersion correction           -0.014706725
FINAL SINGLE POINT ENERGY     -1339.861047950506

DIPOLE MOMENT
-------------
                                X             Y             Z
Electronic contribution:     -7.24734      11.15288     -15.86258
Nuclear contribution   :      7.70674     -11.46108      16.41469
                        -----------------------------------------
Total Dipole Moment    :      0.45940      -0.30821       0.55211
                        -----------------------------------------
Magnitude (a.u.)       :      0.78158
Magnitude (Debye)      :      1.98661

Rotational constants in cm-1:     0.022480     0.007250     0.006824
Rotational constants in MHz :   673.925440   217.356658   204.571781

                             ****ORCA TERMINATED NORMALLY****
TOTAL RUN TIME: 0 days 0 hours 0 minutes 29 seconds 713 msec
