                         Program Version 4.2.1 -  RELEASE  -
|  1> ! wB97X-D3 SP def2-SVP
|  2> %pal
|  3> nprocs 16
|  4> end
|  5>
|  6> * xyz 0 1
|  7> S 	 -95.7128 	 56.2453 	 131.89
|  8> C 	 -94.447 	 57.093 	 132.828
|  9> C 	 -95.0148 	 58.1197 	 133.618
| 10> C 	 -96.3538 	 58.3986 	 133.206
| 11> C 	 -96.9494 	 57.4861 	 132.263
| 12> H 	 -96.9882 	 59.1889 	 133.571
| 13> C 	 -94.3202 	 58.8871 	 134.665
| 14> H 	 -93.4522 	 58.3721 	 135.07
| 15> H 	 -94.9337 	 59.1406 	 135.594
| 16> C 	 -93.7591 	 60.218 	 134.185
| 17> H 	 -92.9573 	 59.9219 	 133.431
| 18> H 	 -94.4615 	 60.7721 	 133.591
| 19> C 	 -93.0217 	 61.1136 	 135.215
| 20> H 	 -92.2784 	 61.7711 	 134.656
| 21> H 	 -93.7064 	 61.762 	 135.826
| 22> H 	 -92.2662 	 60.6931 	 135.81
| 23> S 	 -99.0802 	 55.6762 	 132.365
| 24> C 	 -100.635 	 56.0934 	 131.694
| 25> C 	 -100.536 	 57.3114 	 131.059
| 26> C 	 -99.3218 	 58.0227 	 131.239
| 27> C 	 -98.383 	 57.2143 	 131.92
| 28> H 	 -101.433 	 57.5602 	 130.536
| 29> C 	 -99.1356 	 59.5192 	 131.05
| 30> H 	 -98.6808 	 59.9818 	 131.995
| 31> H 	 -100.124 	 59.8959 	 130.847
| 32> C 	 -98.4691 	 59.9163 	 129.764
| 33> H 	 -99.0537 	 59.4092 	 129.036
| 34> H 	 -97.5014 	 59.4668 	 129.597
| 35> C 	 -98.5321 	 61.3743 	 129.498
| 36> H 	 -98.0408 	 62.0813 	 130.153
| 37> H 	 -99.5624 	 61.7117 	 129.346
| 38> H 	 -97.9719 	 61.5383 	 128.564
| 39> H 	 -93.4468 	 56.8239 	 132.977
| 40> H 	 -101.424 	 55.4674 	 131.387
| 41> *
| 42>
| 43>                          ****END OF INPUT****

CARTESIAN COORDINATES (ANGSTROEM)
---------------------------------
  S    -95.712800   56.245300  131.890000
  C    -94.447000   57.093000  132.828000
  C    -95.014800   58.119700  133.618000
  C    -96.353800   58.398600  133.206000
  C    -96.949400   57.486100  132.263000
  H    -96.988200   59.188900  133.571000
  C    -94.320200   58.887100  134.665000
  H    -93.452200   58.372100  135.070000
  H    -94.933700   59.140600  135.594000
  C    -93.759100   60.218000  134.185000
  H    -92.957300   59.921900  133.431000
  H    -94.461500   60.772100  133.591000
  C    -93.021700   61.113600  135.215000
  H    -92.278400   61.771100  134.656000
  H    -93.706400   61.762000  135.826000
  H    -92.266200   60.693100  135.810000
  S    -99.080200   55.676200  132.365000
  C    -100.635000   56.093400  131.694000
  C    -100.536000   57.311400  131.059000
  C    -99.321800   58.022700  131.239000
  C    -98.383000   57.214300  131.920000
  H    -101.433000   57.560200  130.536000
  C    -99.135600   59.519200  131.050000
  H    -98.680800   59.981800  131.995000
  H    -100.124000   59.895900  130.847000
  C    -98.469100   59.916300  129.764000
  H    -99.053700   59.409200  129.036000
  H    -97.501400   59.466800  129.597000
  C    -98.532100   61.374300  129.498000
  H    -98.040800   62.081300  130.153000
  H    -99.562400   61.711700  129.346000
  H    -97.971900   61.538300  128.564000
  H    -93.446800   56.823900  132.977000
  H    -101.424000   55.467400  131.387000

 Total Charge           Charge          ....    0
 Multiplicity           Mult            ....    1
 Number of Electrons    NEL             ....  134
 Basis Dimension        Dim             ....  322

ORBITAL ENERGIES
----------------

  NO   OCC          E(Eh)            E(eV)
   0   2.0000     -88.971333     -2421.0330
   1   2.0000     -88.968115     -2420.9455
   2   2.0000     -10.343201      -281.4528
   3   2.0000     -10.334667      -281.2206
   4   2.0000     -10.320788      -280.8429
   5   2.0000     -10.310071      -280.5513
   6   2.0000     -10.308556      -280.5101
   7   2.0000     -10.305094      -280.4159
   8   2.0000     -10.304278      -280.3937
   9   2.0000     -10.296211      -280.1741
  10   2.0000     -10.292733      -280.0795
  11   2.0000     -10.292077      -280.0617
  12   2.0000     -10.291349      -280.0418
  13   2.0000     -10.286809      -279.9183
  14   2.0000     -10.274118      -279.5730
  15   2.0000     -10.273995      -279.5696
  16   2.0000      -8.084265      -219.9840
  17   2.0000      -8.082591      -219.9385
  18   2.0000      -6.042937      -164.4367
  19   2.0000      -6.041162      -164.3884
  20   2.0000      -6.038899      -164.3268
  21   2.0000      -6.036935      -164.2734
  22   2.0000      -6.035061      -164.2224
  23   2.0000      -6.033486      -164.1795
  24   2.0000      -1.001393       -27.2493
  25   2.0000      -0.978720       -26.6323
  26   2.0000      -0.919014       -25.0076
  27   2.0000      -0.913886       -24.8681
  28   2.0000      -0.865938       -23.5634
  29   2.0000      -0.853185       -23.2163
  30   2.0000      -0.843524       -22.9534
  31   2.0000      -0.815645       -22.1948
  32   2.0000      -0.784803       -21.3556
  33   2.0000      -0.773988       -21.0613
  34   2.0000      -0.709946       -19.3186
  35   2.0000      -0.699606       -19.0372
  36   2.0000      -0.693926       -18.8827
  37   2.0000      -0.658050       -17.9064
  38   2.0000      -0.645582       -17.5672
  39   2.0000      -0.620451       -16.8833
  40   2.0000      -0.593803       -16.1582
  41   2.0000      -0.577214       -15.7068
  42   2.0000      -0.571670       -15.5559
  43   2.0000      -0.561013       -15.2659
  44   2.0000      -0.524180       -14.2637
  45   2.0000      -0.518290       -14.1034
  46   2.0000      -0.515745       -14.0341
  47   2.0000      -0.511292       -13.9130
  48   2.0000      -0.506468       -13.7817
  49   2.0000      -0.502201       -13.6656
  50   2.0000      -0.500461       -13.6182
  51   2.0000      -0.480647       -13.0791
  52   2.0000      -0.475367       -12.9354
  53   2.0000      -0.462730       -12.5915
  54   2.0000      -0.460497       -12.5307
  55   2.0000      -0.449914       -12.2428
  56   2.0000      -0.443564       -12.0700
  57   2.0000      -0.431902       -11.7527
  58   2.0000      -0.426600       -11.6084
  59   2.0000      -0.425482       -11.5780
  60   2.0000      -0.421536       -11.4706
  61   2.0000      -0.412395       -11.2219
  62   2.0000      -0.407454       -11.0874
  63   2.0000      -0.342689        -9.3250
  64   2.0000      -0.329427        -8.9642
  65   2.0000      -0.329324        -8.9614
  66   2.0000      -0.292836        -7.9685
  67   0.0000       0.022881         0.6226
  68   0.0000       0.055208         1.5023
  69   0.0000       0.104915         2.8549
  70   0.0000       0.117420         3.1952
  71   0.0000       0.125755         3.4220

MULLIKEN ATOMIC CHARGES
-----------------------
   0 S :    0.104000
   1 C :   -0.077839
   2 C :   -0.079008
   3 C :    0.040257
   4 C :   -0.146607
   5 H :    0.011920
   6 C :    0.051815
   7 H :    0.015420
   8 H :    0.043206
   9 C :   -0.096513
  10 H :    0.023962
  11 H :    0.027198
  12 C :   -0.048578
  13 H :    0.030004
  14 H :    0.049505
  15 H :    0.016863
  16 S :    0.118170
  17 C :   -0.077490
  18 C :   -0.063710
  19 C :   -0.006991
  20 C :   -0.180073
  21 H :    0.011334
  22 C :    0.068937
  23 H :    0.047480
  24 H :    0.003544
  25 C :   -0.057096
  26 H :    0.007452
  27 H :    0.029643
  28 C :   -0.026895
  29 H :    0.027852
  30 H :    0.027374
  31 H :    0.027247
  32 H :    0.029286
  33 H :    0.048329
Sum of atomic charges:    0.0000000

LOEWDIN ATOMIC CHARGES
----------------------
   0 S :    0.388545
   1 C :   -0.176511
   2 C :   -0.059363
   3 C :   -0.052872
   4 C :   -0.186345
   5 H :    0.026423
   6 C :   -0.044005
   7 H :    0.029846
   8 H :    0.039991
   9 C :   -0.043682
  10 H :    0.029158
  11 H :    0.019708
  12 C :   -0.078237
  13 H :    0.039075
  14 H :    0.030349
  15 H :    0.017958
  16 S :    0.418906
  17 C :   -0.197423
  18 C :   -0.067881
  19 C :   -0.059570
  20 C :   -0.200999
  21 H :    0.028017
  22 C :   -0.030335
  23 H :    0.036918
  24 H :    0.029626
  25 C :   -0.044129
  26 H :    0.024079
  27 H :    0.023011
  28 C :   -0.066240
  29 H :    0.022952
  30 H :    0.025370
  31 H :    0.032505
  32 H :    0.018679
  33 H :    0.026478

  Mayer bond orders larger than 0.100000
B(  0-S ,  1-C ) :   1.1469 B(  0-S ,  4-C ) :   1.1462 B(  1-C ,  2-C ) :   1.5750
B(  1-C ,  4-C ) :   0.1130 B(  1-C , 32-H ) :   0.9711 B(  2-C ,  3-C ) :   1.2643
B(  2-C ,  6-C ) :   1.0521 B(  3-C ,  4-C ) :   1.5456 B(  3-C ,  5-H ) :   0.9874
B(  4-C , 20-C ) :   1.0349 B(  6-C ,  7-H ) :   0.9340 B(  6-C ,  8-H ) :   0.9405
B(  6-C ,  9-C ) :   1.0542 B(  9-C , 10-H ) :   0.9551 B(  9-C , 11-H ) :   0.9607
B(  9-C , 12-C ) :   1.0753 B( 12-C , 13-H ) :   0.9710 B( 12-C , 14-H ) :   0.9754
B( 12-C , 15-H ) :   0.9714 B( 16-S , 17-C ) :   1.1461 B( 16-S , 20-C ) :   1.1693
B( 17-C , 18-C ) :   1.6306 B( 17-C , 20-C ) :   0.1004 B( 17-C , 33-H ) :   0.9612
B( 18-C , 19-C ) :   1.2572 B( 18-C , 21-H ) :   0.9872 B( 19-C , 20-C ) :   1.5515
B( 19-C , 22-C ) :   1.0335 B( 22-C , 23-H ) :   0.9429 B( 22-C , 24-H ) :   0.9296
B( 22-C , 25-C ) :   1.0568 B( 25-C , 26-H ) :   0.9447 B( 25-C , 27-H ) :   0.9553
B( 25-C , 28-C ) :   1.0958 B( 28-C , 29-H ) :   0.9735 B( 28-C , 30-H ) :   0.9696
B( 28-C , 31-H ) :   0.9684

Dispersion correction           -0.013484447
FINAL SINGLE POINT ENERGY     -1339.846060981276

DIPOLE MOMENT
-------------
                                X             Y             Z
Electronic contribution:     -9.07476     -28.73011      -1.20731
Nuclear contribution   :      9.15815      29.29771       1.26103
                        -----------------------------------------
Total Dipole Moment    :      0.08338       0.56760       0.05373
                        -----------------------------------------
Magnitude (a.u.)       :      0.57620
Magnitude (Debye)      :      1.46458

Rotational constants in cm-1:     0.017666     0.008185     0.006334
Rotational constants in MHz :   529.627956   245.375899   189.894210

                             ****ORCA TERMINATED NORMALLY****
TOTAL RUN TIME: 0 days 0 hours 0 minutes 33 seconds 707 msec
