                         Program Version 4.2.1 -  RELEASE  -
|  1> ! wB97X-D3 SP def2-SVP
|  2> %pal
|  3> nprocs 16
|  4> end
|  5>
|  6> * xyz 0 1
|  7> S 	 4.02362 	 -6.4835 	 83.8753
|  8> C 	 3.8444 	 -4.72517 	 83.7433
|  9> C 	 3.92519 	 -4.19756 	 85.0284
| 10> C 	 4.13936 	 -5.1775 	 86.0681
| 11> C 	 4.02587 	 -6.49343 	 85.6544
| 12> H 	 4.41008 	 -4.94959 	 87.0452
| 13> C 	 4.01229 	 -2.80655 	 85.347
| 14> H 	 3.0151 	 -2.43026 	 85.7369
| 15> H 	 4.0723 	 -2.27602 	 84.3748
| 16> C 	 5.16807 	 -2.3579 	 86.2739
| 17> H 	 4.96239 	 -1.30267 	 86.4432
| 18> H 	 5.06451 	 -2.86333 	 87.2267
| 19> C 	 6.57741 	 -2.51348 	 85.8777
| 20> H 	 7.20883 	 -1.99865 	 86.5729
| 21> H 	 6.93537 	 -3.49787 	 86.0855
| 22> H 	 6.82715 	 -2.15359 	 84.8874
| 23> S 	 2.88506 	 -8.88835 	 86.389
| 24> C 	 3.45874 	 -9.59804 	 87.8969
| 25> C 	 4.58482 	 -8.95932 	 88.3511
| 26> C 	 5.03537 	 -7.84152 	 87.5833
| 27> C 	 4.15629 	 -7.64156 	 86.5228
| 28> H 	 5.05026 	 -9.34941 	 89.2314
| 29> C 	 6.32068 	 -7.11057 	 87.9991
| 30> H 	 6.65824 	 -6.41829 	 87.1562
| 31> H 	 7.16407 	 -7.86971 	 88.1784
| 32> C 	 6.11245 	 -6.03307 	 89.1411
| 33> H 	 5.95095 	 -6.49714 	 90.1483
| 34> H 	 5.28714 	 -5.35587 	 88.8244
| 35> C 	 7.29076 	 -5.11688 	 89.3311
| 36> H 	 7.22697 	 -4.47257 	 90.1787
| 37> H 	 7.63065 	 -4.52071 	 88.4535
| 38> H 	 8.2282 	 -5.64724 	 89.4779
| 39> H 	 3.81575 	 -4.07592 	 82.9075
| 40> H 	 3.08786 	 -10.4232 	 88.4626
| 41> *
| 42>
| 43>                          ****END OF INPUT****

CARTESIAN COORDINATES (ANGSTROEM)
---------------------------------
  S      4.023620   -6.483500   83.875300
  C      3.844400   -4.725170   83.743300
  C      3.925190   -4.197560   85.028400
  C      4.139360   -5.177500   86.068100
  C      4.025870   -6.493430   85.654400
  H      4.410080   -4.949590   87.045200
  C      4.012290   -2.806550   85.347000
  H      3.015100   -2.430260   85.736900
  H      4.072300   -2.276020   84.374800
  C      5.168070   -2.357900   86.273900
  H      4.962390   -1.302670   86.443200
  H      5.064510   -2.863330   87.226700
  C      6.577410   -2.513480   85.877700
  H      7.208830   -1.998650   86.572900
  H      6.935370   -3.497870   86.085500
  H      6.827150   -2.153590   84.887400
  S      2.885060   -8.888350   86.389000
  C      3.458740   -9.598040   87.896900
  C      4.584820   -8.959320   88.351100
  C      5.035370   -7.841520   87.583300
  C      4.156290   -7.641560   86.522800
  H      5.050260   -9.349410   89.231400
  C      6.320680   -7.110570   87.999100
  H      6.658240   -6.418290   87.156200
  H      7.164070   -7.869710   88.178400
  C      6.112450   -6.033070   89.141100
  H      5.950950   -6.497140   90.148300
  H      5.287140   -5.355870   88.824400
  C      7.290760   -5.116880   89.331100
  H      7.226970   -4.472570   90.178700
  H      7.630650   -4.520710   88.453500
  H      8.228200   -5.647240   89.477900
  H      3.815750   -4.075920   82.907500
  H      3.087860  -10.423200   88.462600

 Total Charge           Charge          ....    0
 Multiplicity           Mult            ....    1
 Number of Electrons    NEL             ....  134
 Basis Dimension        Dim             ....  322

ORBITAL ENERGIES
----------------

  NO   OCC          E(Eh)            E(eV)
   0   2.0000     -88.969066     -2420.9714
   1   2.0000     -88.964080     -2420.8357
   2   2.0000     -10.332553      -281.1631
   3   2.0000     -10.330344      -281.1030
   4   2.0000     -10.316150      -280.7167
   5   2.0000     -10.314009      -280.6585
   6   2.0000     -10.313610      -280.6476
   7   2.0000     -10.309834      -280.5448
   8   2.0000     -10.302017      -280.3321
   9   2.0000     -10.293569      -280.1022
  10   2.0000     -10.290528      -280.0195
  11   2.0000     -10.290370      -280.0152
  12   2.0000     -10.287409      -279.9346
  13   2.0000     -10.285394      -279.8798
  14   2.0000     -10.279482      -279.7189
  15   2.0000     -10.270787      -279.4823
  16   2.0000      -8.083018      -219.9501
  17   2.0000      -8.077716      -219.8058
  18   2.0000      -6.041647      -164.4016
  19   2.0000      -6.037690      -164.2939
  20   2.0000      -6.036512      -164.2618
  21   2.0000      -6.033622      -164.1832
  22   2.0000      -6.032403      -164.1500
  23   2.0000      -6.028187      -164.0353
  24   2.0000      -1.002548       -27.2807
  25   2.0000      -0.980634       -26.6844
  26   2.0000      -0.918495       -24.9935
  27   2.0000      -0.907663       -24.6988
  28   2.0000      -0.874605       -23.7992
  29   2.0000      -0.856465       -23.3056
  30   2.0000      -0.849050       -23.1038
  31   2.0000      -0.817758       -22.2523
  32   2.0000      -0.783794       -21.3281
  33   2.0000      -0.774089       -21.0640
  34   2.0000      -0.715262       -19.4633
  35   2.0000      -0.700755       -19.0685
  36   2.0000      -0.694557       -18.8999
  37   2.0000      -0.660613       -17.9762
  38   2.0000      -0.637538       -17.3483
  39   2.0000      -0.626498       -17.0479
  40   2.0000      -0.595590       -16.2068
  41   2.0000      -0.570144       -15.5144
  42   2.0000      -0.568505       -15.4698
  43   2.0000      -0.556752       -15.1500
  44   2.0000      -0.539479       -14.6800
  45   2.0000      -0.527542       -14.3552
  46   2.0000      -0.522533       -14.2189
  47   2.0000      -0.519440       -14.1347
  48   2.0000      -0.507793       -13.8178
  49   2.0000      -0.501086       -13.6352
  50   2.0000      -0.497356       -13.5337
  51   2.0000      -0.478854       -13.0303
  52   2.0000      -0.473463       -12.8836
  53   2.0000      -0.466728       -12.7003
  54   2.0000      -0.458292       -12.4707
  55   2.0000      -0.451258       -12.2794
  56   2.0000      -0.443276       -12.0622
  57   2.0000      -0.436490       -11.8775
  58   2.0000      -0.430125       -11.7043
  59   2.0000      -0.426422       -11.6035
  60   2.0000      -0.421828       -11.4785
  61   2.0000      -0.417880       -11.3711
  62   2.0000      -0.405966       -11.0469
  63   2.0000      -0.346751        -9.4356
  64   2.0000      -0.333741        -9.0815
  65   2.0000      -0.321533        -8.7494
  66   2.0000      -0.291588        -7.9345
  67   0.0000       0.026671         0.7258
  68   0.0000       0.066894         1.8203
  69   0.0000       0.106937         2.9099
  70   0.0000       0.110086         2.9956
  71   0.0000       0.121234         3.2989

MULLIKEN ATOMIC CHARGES
-----------------------
   0 S :    0.097032
   1 C :   -0.088558
   2 C :   -0.086752
   3 C :    0.061543
   4 C :   -0.104403
   5 H :   -0.069003
   6 C :    0.047758
   7 H :    0.046734
   8 H :    0.003962
   9 C :   -0.088035
  10 H :    0.026526
  11 H :    0.020814
  12 C :    0.013859
  13 H :    0.015265
  14 H :    0.015727
  15 H :    0.030861
  16 S :    0.116475
  17 C :   -0.068627
  18 C :   -0.045082
  19 C :    0.011670
  20 C :   -0.179722
  21 H :    0.006881
  22 C :    0.001025
  23 H :    0.038292
  24 H :    0.059952
  25 C :   -0.075656
  26 H :    0.043039
  27 H :    0.050718
  28 C :   -0.046995
  29 H :    0.034686
  30 H :    0.020223
  31 H :    0.013188
  32 H :    0.031856
  33 H :    0.044747
Sum of atomic charges:   -0.0000000

LOEWDIN ATOMIC CHARGES
----------------------
   0 S :    0.382948
   1 C :   -0.189394
   2 C :   -0.068428
   3 C :   -0.053682
   4 C :   -0.183012
   5 H :    0.010084
   6 C :   -0.043347
   7 H :    0.042865
   8 H :    0.028264
   9 C :   -0.039776
  10 H :    0.027017
  11 H :    0.022086
  12 C :   -0.061165
  13 H :    0.028883
  14 H :    0.020900
  15 H :    0.025550
  16 S :    0.392830
  17 C :   -0.178682
  18 C :   -0.066915
  19 C :   -0.054197
  20 C :   -0.182716
  21 H :    0.026448
  22 C :   -0.038237
  23 H :    0.037995
  24 H :    0.044244
  25 C :   -0.041639
  26 H :    0.030689
  27 H :    0.028637
  28 C :   -0.077667
  29 H :    0.024811
  30 H :    0.025982
  31 H :    0.023912
  32 H :    0.025789
  33 H :    0.028922

  Mayer bond orders larger than 0.100000
B(  0-S ,  1-C ) :   1.1160 B(  0-S ,  4-C ) :   1.1381 B(  1-C ,  2-C ) :   1.6012
B(  1-C , 32-H ) :   0.9704 B(  2-C ,  3-C ) :   1.2300 B(  2-C ,  6-C ) :   1.0570
B(  3-C ,  4-C ) :   1.5693 B(  3-C ,  5-H ) :   1.0056 B(  4-C , 20-C ) :   1.0450
B(  6-C ,  7-H ) :   0.9231 B(  6-C ,  8-H ) :   0.9327 B(  6-C ,  9-C ) :   1.0760
B(  9-C , 10-H ) :   0.9509 B(  9-C , 11-H ) :   0.9475 B(  9-C , 12-C ) :   1.0983
B( 12-C , 13-H ) :   0.9612 B( 12-C , 14-H ) :   0.9638 B( 12-C , 15-H ) :   0.9699
B( 16-S , 17-C ) :   1.1294 B( 16-S , 20-C ) :   1.1317 B( 17-C , 18-C ) :   1.6536
B( 17-C , 33-H ) :   0.9675 B( 18-C , 19-C ) :   1.2090 B( 18-C , 21-H ) :   0.9887
B( 19-C , 20-C ) :   1.6045 B( 19-C , 22-C ) :   1.0399 B( 22-C , 23-H ) :   0.9375
B( 22-C , 24-H ) :   0.9399 B( 22-C , 25-C ) :   1.0474 B( 25-C , 26-H ) :   0.9500
B( 25-C , 27-H ) :   0.9518 B( 25-C , 28-C ) :   1.0904 B( 28-C , 29-H ) :   0.9732
B( 28-C , 30-H ) :   0.9672 B( 28-C , 31-H ) :   0.9650

Dispersion correction           -0.015903211
FINAL SINGLE POINT ENERGY     -1339.861987555585

DIPOLE MOMENT
-------------
                                X             Y             Z
Electronic contribution:    -18.26996     -23.16977     -14.75457
Nuclear contribution   :     18.80217      23.65665      15.41831
                        -----------------------------------------
Total Dipole Moment    :      0.53221       0.48688       0.66374
                        -----------------------------------------
Magnitude (a.u.)       :      0.98023
Magnitude (Debye)      :      2.49154

Rotational constants in cm-1:     0.016972     0.011063     0.007294
Rotational constants in MHz :   508.801698   331.672801   218.667069

                             ****ORCA TERMINATED NORMALLY****
TOTAL RUN TIME: 0 days 0 hours 0 minutes 36 seconds 741 msec
