                         Program Version 4.2.1 -  RELEASE  -
|  1> ! wB97X-D3 SP def2-SVP
|  2> %pal
|  3> nprocs 16
|  4> end
|  5>
|  6> * xyz 0 1
|  7> S 	 -41.5339 	 57.303 	 109.817
|  8> C 	 -42.5533 	 58.1989 	 108.825
|  9> C 	 -42.9091 	 57.4211 	 107.752
| 10> C 	 -41.9232 	 56.3838 	 107.519
| 11> C 	 -40.9207 	 56.3566 	 108.493
| 12> H 	 -41.8268 	 55.8746 	 106.561
| 13> C 	 -44.04 	 57.7764 	 106.911
| 14> H 	 -44.7509 	 58.2798 	 107.471
| 15> H 	 -44.5059 	 56.8329 	 106.544
| 16> C 	 -43.7059 	 58.7081 	 105.786
| 17> H 	 -42.8375 	 59.2902 	 105.885
| 18> H 	 -43.3907 	 58.0762 	 105.035
| 19> C 	 -44.823 	 59.5052 	 105.178
| 20> H 	 -45.7653 	 58.879 	 105.054
| 21> H 	 -45.0946 	 60.3592 	 105.852
| 22> H 	 -44.6322 	 60.0112 	 104.276
| 23> S 	 -38.1595 	 56.9533 	 108.542
| 24> C 	 -37.0427 	 55.8691 	 107.715
| 25> C 	 -37.6989 	 54.7177 	 107.263
| 26> C 	 -39.0552 	 54.6498 	 107.773
| 27> C 	 -39.5026 	 55.8368 	 108.371
| 28> H 	 -37.1404 	 53.9835 	 106.681
| 29> C 	 -39.9372 	 53.4495 	 107.524
| 30> H 	 -40.7954 	 53.7257 	 106.882
| 31> H 	 -40.3557 	 53.2403 	 108.517
| 32> C 	 -39.3592 	 52.0845 	 107.046
| 33> H 	 -38.7486 	 51.676 	 107.866
| 34> H 	 -38.6554 	 52.3096 	 106.247
| 35> C 	 -40.4486 	 51.1379 	 106.557
| 36> H 	 -41.2356 	 50.924 	 107.272
| 37> H 	 -40.1093 	 50.1401 	 106.167
| 38> H 	 -41.0069 	 51.561 	 105.735
| 39> H 	 -42.9342 	 59.1621 	 109.107
| 40> H 	 -36.0024 	 56.0301 	 107.433
| 41> *
| 42>
| 43>                          ****END OF INPUT****

CARTESIAN COORDINATES (ANGSTROEM)
---------------------------------
  S    -41.533900   57.303000  109.817000
  C    -42.553300   58.198900  108.825000
  C    -42.909100   57.421100  107.752000
  C    -41.923200   56.383800  107.519000
  C    -40.920700   56.356600  108.493000
  H    -41.826800   55.874600  106.561000
  C    -44.040000   57.776400  106.911000
  H    -44.750900   58.279800  107.471000
  H    -44.505900   56.832900  106.544000
  C    -43.705900   58.708100  105.786000
  H    -42.837500   59.290200  105.885000
  H    -43.390700   58.076200  105.035000
  C    -44.823000   59.505200  105.178000
  H    -45.765300   58.879000  105.054000
  H    -45.094600   60.359200  105.852000
  H    -44.632200   60.011200  104.276000
  S    -38.159500   56.953300  108.542000
  C    -37.042700   55.869100  107.715000
  C    -37.698900   54.717700  107.263000
  C    -39.055200   54.649800  107.773000
  C    -39.502600   55.836800  108.371000
  H    -37.140400   53.983500  106.681000
  C    -39.937200   53.449500  107.524000
  H    -40.795400   53.725700  106.882000
  H    -40.355700   53.240300  108.517000
  C    -39.359200   52.084500  107.046000
  H    -38.748600   51.676000  107.866000
  H    -38.655400   52.309600  106.247000
  C    -40.448600   51.137900  106.557000
  H    -41.235600   50.924000  107.272000
  H    -40.109300   50.140100  106.167000
  H    -41.006900   51.561000  105.735000
  H    -42.934200   59.162100  109.107000
  H    -36.002400   56.030100  107.433000

 Total Charge           Charge          ....    0
 Multiplicity           Mult            ....    1
 Number of Electrons    NEL             ....  134
 Basis Dimension        Dim             ....  322

ORBITAL ENERGIES
----------------

  NO   OCC          E(Eh)            E(eV)
   0   2.0000     -88.968235     -2420.9487
   1   2.0000     -88.955590     -2420.6047
   2   2.0000     -10.333278      -281.1828
   3   2.0000     -10.332627      -281.1651
   4   2.0000     -10.322304      -280.8842
   5   2.0000     -10.308846      -280.5180
   6   2.0000     -10.305167      -280.4179
   7   2.0000     -10.299227      -280.2562
   8   2.0000     -10.299218      -280.2560
   9   2.0000     -10.297177      -280.2004
  10   2.0000     -10.291851      -280.0555
  11   2.0000     -10.291337      -280.0415
  12   2.0000     -10.282168      -279.7920
  13   2.0000     -10.281973      -279.7867
  14   2.0000     -10.279899      -279.7303
  15   2.0000     -10.268673      -279.4248
  16   2.0000      -8.082217      -219.9283
  17   2.0000      -8.072542      -219.6650
  18   2.0000      -6.040870      -164.3804
  19   2.0000      -6.036647      -164.2655
  20   2.0000      -6.033023      -164.1669
  21   2.0000      -6.030873      -164.1084
  22   2.0000      -6.027003      -164.0031
  23   2.0000      -6.023086      -163.8965
  24   2.0000      -1.009832       -27.4789
  25   2.0000      -0.985644       -26.8207
  26   2.0000      -0.924796       -25.1650
  27   2.0000      -0.906128       -24.6570
  28   2.0000      -0.866532       -23.5795
  29   2.0000      -0.851763       -23.1776
  30   2.0000      -0.845993       -23.0206
  31   2.0000      -0.819000       -22.2861
  32   2.0000      -0.780685       -21.2435
  33   2.0000      -0.769178       -20.9304
  34   2.0000      -0.711591       -19.3634
  35   2.0000      -0.705630       -19.2012
  36   2.0000      -0.693427       -18.8691
  37   2.0000      -0.651218       -17.7205
  38   2.0000      -0.643945       -17.5226
  39   2.0000      -0.623725       -16.9724
  40   2.0000      -0.593540       -16.1511
  41   2.0000      -0.579930       -15.7807
  42   2.0000      -0.566537       -15.4163
  43   2.0000      -0.562176       -15.2976
  44   2.0000      -0.533914       -14.5285
  45   2.0000      -0.520145       -14.1539
  46   2.0000      -0.516560       -14.0563
  47   2.0000      -0.514025       -13.9873
  48   2.0000      -0.510784       -13.8992
  49   2.0000      -0.498252       -13.5581
  50   2.0000      -0.495564       -13.4850
  51   2.0000      -0.481129       -13.0922
  52   2.0000      -0.471787       -12.8380
  53   2.0000      -0.468896       -12.7593
  54   2.0000      -0.457464       -12.4482
  55   2.0000      -0.451758       -12.2930
  56   2.0000      -0.447821       -12.1858
  57   2.0000      -0.441365       -12.0102
  58   2.0000      -0.431986       -11.7549
  59   2.0000      -0.423467       -11.5231
  60   2.0000      -0.419321       -11.4103
  61   2.0000      -0.414753       -11.2860
  62   2.0000      -0.405131       -11.0242
  63   2.0000      -0.342288        -9.3141
  64   2.0000      -0.326974        -8.8974
  65   2.0000      -0.315129        -8.5751
  66   2.0000      -0.289900        -7.8886
  67   0.0000       0.019172         0.5217
  68   0.0000       0.063858         1.7377
  69   0.0000       0.098765         2.6875
  70   0.0000       0.127169         3.4605
  71   0.0000       0.133572         3.6347

MULLIKEN ATOMIC CHARGES
-----------------------
   0 S :    0.106534
   1 C :   -0.126170
   2 C :   -0.117193
   3 C :    0.044689
   4 C :   -0.172503
   5 H :    0.022313
   6 C :    0.112970
   7 H :   -0.003684
   8 H :    0.032299
   9 C :   -0.016409
  10 H :    0.016445
  11 H :   -0.005624
  12 C :   -0.061970
  13 H :    0.035198
  14 H :    0.026224
  15 H :    0.025345
  16 S :    0.118134
  17 C :   -0.094813
  18 C :   -0.058857
  19 C :   -0.050395
  20 C :   -0.111814
  21 H :    0.031931
  22 C :    0.017673
  23 H :    0.031990
  24 H :    0.039396
  25 C :   -0.055508
  26 H :    0.037840
  27 H :    0.027584
  28 C :   -0.051369
  29 H :    0.029068
  30 H :    0.040315
  31 H :    0.021810
  32 H :    0.047671
  33 H :    0.060879
Sum of atomic charges:   -0.0000000

LOEWDIN ATOMIC CHARGES
----------------------
   0 S :    0.415532
   1 C :   -0.198089
   2 C :   -0.063099
   3 C :   -0.059913
   4 C :   -0.196514
   5 H :    0.029772
   6 C :   -0.027856
   7 H :    0.019101
   8 H :    0.039816
   9 C :   -0.043573
  10 H :    0.022233
  11 H :    0.017506
  12 C :   -0.065574
  13 H :    0.031488
  14 H :    0.025374
  15 H :    0.020202
  16 S :    0.412956
  17 C :   -0.184833
  18 C :   -0.077255
  19 C :   -0.051875
  20 C :   -0.207540
  21 H :    0.033621
  22 C :   -0.041787
  23 H :    0.031363
  24 H :    0.039041
  25 C :   -0.040683
  26 H :    0.027971
  27 H :    0.019821
  28 C :   -0.069623
  29 H :    0.025224
  30 H :    0.033004
  31 H :    0.023667
  32 H :    0.025733
  33 H :    0.034790

  Mayer bond orders larger than 0.100000
B(  0-S ,  1-C ) :   1.1573 B(  0-S ,  4-C ) :   1.1564 B(  1-C ,  2-C ) :   1.5730
B(  1-C , 32-H ) :   0.9814 B(  2-C ,  3-C ) :   1.2330 B(  2-C ,  6-C ) :   1.0580
B(  3-C ,  4-C ) :   1.5552 B(  3-C ,  5-H ) :   0.9880 B(  4-C , 20-C ) :   1.0336
B(  6-C ,  7-H ) :   0.9387 B(  6-C ,  8-H ) :   0.9264 B(  6-C ,  9-C ) :   1.0463
B(  9-C , 10-H ) :   0.9557 B(  9-C , 11-H ) :   0.9393 B(  9-C , 12-C ) :   1.0933
B( 12-C , 13-H ) :   0.9718 B( 12-C , 14-H ) :   0.9729 B( 12-C , 15-H ) :   0.9719
B( 16-S , 17-C ) :   1.1679 B( 16-S , 20-C ) :   1.1305 B( 17-C , 18-C ) :   1.6007
B( 17-C , 33-H ) :   0.9621 B( 18-C , 19-C ) :   1.2522 B( 18-C , 21-H ) :   0.9838
B( 19-C , 20-C ) :   1.5747 B( 19-C , 22-C ) :   1.0270 B( 22-C , 23-H ) :   0.9358
B( 22-C , 24-H ) :   0.9314 B( 22-C , 25-C ) :   1.0688 B( 25-C , 26-H ) :   0.9563
B( 25-C , 27-H ) :   0.9502 B( 25-C , 28-C ) :   1.0820 B( 28-C , 29-H ) :   0.9752
B( 28-C , 30-H ) :   0.9735 B( 28-C , 31-H ) :   0.9718

Dispersion correction           -0.013445651
FINAL SINGLE POINT ENERGY     -1339.834113961185

DIPOLE MOMENT
-------------
                                X             Y             Z
Electronic contribution:     15.16589       9.86919      19.04244
Nuclear contribution   :    -15.36194     -10.04335     -19.77661
                        -----------------------------------------
Total Dipole Moment    :     -0.19605      -0.17416      -0.73417
                        -----------------------------------------
Magnitude (a.u.)       :      0.77959
Magnitude (Debye)      :      1.98157

Rotational constants in cm-1:     0.017452     0.007623     0.006334
Rotational constants in MHz :   523.198741   228.537456   189.897085

                             ****ORCA TERMINATED NORMALLY****
TOTAL RUN TIME: 0 days 0 hours 0 minutes 29 seconds 120 msec
