                         Program Version 4.2.1 -  RELEASE  -
|  1> ! wB97X-D3 SP def2-SVP
|  2> %pal
|  3> nprocs 16
|  4> end
|  5>
|  6> * xyz 0 1
|  7> S 	 -14.4102 	 -11.551 	 91.035
|  8> C 	 -15.7826 	 -10.4972 	 90.8631
|  9> C 	 -15.6277 	 -9.60989 	 89.809
| 10> C 	 -14.425 	 -9.86941 	 89.1006
| 11> C 	 -13.6358 	 -10.9109 	 89.5724
| 12> H 	 -13.9319 	 -9.27191 	 88.2983
| 13> C 	 -16.5657 	 -8.47036 	 89.5989
| 14> H 	 -16.72 	 -7.91393 	 90.5755
| 15> H 	 -17.5007 	 -8.9687 	 89.2313
| 16> C 	 -16.1492 	 -7.41704 	 88.5032
| 17> H 	 -15.2278 	 -6.91705 	 88.7669
| 18> H 	 -16.0393 	 -8.04742 	 87.5846
| 19> C 	 -17.1777 	 -6.33016 	 88.3314
| 20> H 	 -18.1892 	 -6.67175 	 88.0823
| 21> H 	 -17.2692 	 -5.68247 	 89.1666
| 22> H 	 -16.855 	 -5.74452 	 87.4558
| 23> S 	 -11.1545 	 -11.6021 	 90.6192
| 24> C 	 -9.86002 	 -11.892 	 89.4635
| 25> C 	 -10.2717 	 -11.73 	 88.1789
| 26> C 	 -11.6099 	 -11.3823 	 88.0093
| 27> C 	 -12.244 	 -11.2179 	 89.2788
| 28> H 	 -9.58611 	 -11.818 	 87.3619
| 29> C 	 -12.2765 	 -11.0446 	 86.7371
| 30> H 	 -13.3467 	 -11.1295 	 86.8691
| 31> H 	 -11.9745 	 -11.8381 	 86.022
| 32> C 	 -11.8966 	 -9.75506 	 86.0579
| 33> H 	 -10.8449 	 -9.4711 	 86.0946
| 34> H 	 -12.4229 	 -8.84977 	 86.4809
| 35> C 	 -12.3124 	 -9.72518 	 84.53
| 36> H 	 -11.7522 	 -10.5317 	 83.9497
| 37> H 	 -12.0069 	 -8.73691 	 84.1276
| 38> H 	 -13.3613 	 -9.88108 	 84.353
| 39> H 	 -16.5536 	 -10.3554 	 91.6369
| 40> H 	 -8.78547 	 -12.0063 	 89.7974
| 41> *
| 42>
| 43>                          ****END OF INPUT****

CARTESIAN COORDINATES (ANGSTROEM)
---------------------------------
  S    -14.410200  -11.551000   91.035000
  C    -15.782600  -10.497200   90.863100
  C    -15.627700   -9.609890   89.809000
  C    -14.425000   -9.869410   89.100600
  C    -13.635800  -10.910900   89.572400
  H    -13.931900   -9.271910   88.298300
  C    -16.565700   -8.470360   89.598900
  H    -16.720000   -7.913930   90.575500
  H    -17.500700   -8.968700   89.231300
  C    -16.149200   -7.417040   88.503200
  H    -15.227800   -6.917050   88.766900
  H    -16.039300   -8.047420   87.584600
  C    -17.177700   -6.330160   88.331400
  H    -18.189200   -6.671750   88.082300
  H    -17.269200   -5.682470   89.166600
  H    -16.855000   -5.744520   87.455800
  S    -11.154500  -11.602100   90.619200
  C     -9.860020  -11.892000   89.463500
  C    -10.271700  -11.730000   88.178900
  C    -11.609900  -11.382300   88.009300
  C    -12.244000  -11.217900   89.278800
  H     -9.586110  -11.818000   87.361900
  C    -12.276500  -11.044600   86.737100
  H    -13.346700  -11.129500   86.869100
  H    -11.974500  -11.838100   86.022000
  C    -11.896600   -9.755060   86.057900
  H    -10.844900   -9.471100   86.094600
  H    -12.422900   -8.849770   86.480900
  C    -12.312400   -9.725180   84.530000
  H    -11.752200  -10.531700   83.949700
  H    -12.006900   -8.736910   84.127600
  H    -13.361300   -9.881080   84.353000
  H    -16.553600  -10.355400   91.636900
  H     -8.785470  -12.006300   89.797400

 Total Charge           Charge          ....    0
 Multiplicity           Mult            ....    1
 Number of Electrons    NEL             ....  134
 Basis Dimension        Dim             ....  322

ORBITAL ENERGIES
----------------

  NO   OCC          E(Eh)            E(eV)
   0   2.0000     -88.968556     -2420.9575
   1   2.0000     -88.964265     -2420.8407
   2   2.0000     -10.330602      -281.1100
   3   2.0000     -10.329462      -281.0790
   4   2.0000     -10.319952      -280.8202
   5   2.0000     -10.311956      -280.6026
   6   2.0000     -10.300790      -280.2988
   7   2.0000     -10.300330      -280.2862
   8   2.0000     -10.299794      -280.2716
   9   2.0000     -10.296901      -280.1929
  10   2.0000     -10.294718      -280.1335
  11   2.0000     -10.291957      -280.0584
  12   2.0000     -10.290593      -280.0213
  13   2.0000     -10.289320      -279.9866
  14   2.0000     -10.287559      -279.9387
  15   2.0000     -10.277185      -279.6564
  16   2.0000      -8.082712      -219.9418
  17   2.0000      -8.078737      -219.8336
  18   2.0000      -6.041194      -164.3892
  19   2.0000      -6.037350      -164.2847
  20   2.0000      -6.037267      -164.2824
  21   2.0000      -6.033485      -164.1795
  22   2.0000      -6.033202      -164.1718
  23   2.0000      -6.029568      -164.0729
  24   2.0000      -1.005455       -27.3598
  25   2.0000      -0.984004       -26.7761
  26   2.0000      -0.913224       -24.8501
  27   2.0000      -0.910739       -24.7825
  28   2.0000      -0.872248       -23.7351
  29   2.0000      -0.852389       -23.1947
  30   2.0000      -0.846429       -23.0325
  31   2.0000      -0.816038       -22.2055
  32   2.0000      -0.781976       -21.2787
  33   2.0000      -0.766290       -20.8518
  34   2.0000      -0.710786       -19.3415
  35   2.0000      -0.698466       -19.0062
  36   2.0000      -0.688009       -18.7217
  37   2.0000      -0.658063       -17.9068
  38   2.0000      -0.638413       -17.3721
  39   2.0000      -0.615448       -16.7472
  40   2.0000      -0.599596       -16.3158
  41   2.0000      -0.577251       -15.7078
  42   2.0000      -0.565189       -15.3796
  43   2.0000      -0.559007       -15.2114
  44   2.0000      -0.531209       -14.4549
  45   2.0000      -0.521979       -14.2038
  46   2.0000      -0.515255       -14.0208
  47   2.0000      -0.508374       -13.8336
  48   2.0000      -0.499117       -13.5817
  49   2.0000      -0.495405       -13.4807
  50   2.0000      -0.493680       -13.4337
  51   2.0000      -0.485735       -13.2175
  52   2.0000      -0.473366       -12.8809
  53   2.0000      -0.464371       -12.6362
  54   2.0000      -0.461898       -12.5689
  55   2.0000      -0.448464       -12.2033
  56   2.0000      -0.448410       -12.2018
  57   2.0000      -0.441781       -12.0215
  58   2.0000      -0.434395       -11.8205
  59   2.0000      -0.428304       -11.6548
  60   2.0000      -0.421091       -11.4585
  61   2.0000      -0.412256       -11.2180
  62   2.0000      -0.409468       -11.1422
  63   2.0000      -0.354060        -9.6345
  64   2.0000      -0.335667        -9.1340
  65   2.0000      -0.328234        -8.9317
  66   2.0000      -0.280486        -7.6324
  67   0.0000       0.020659         0.5622
  68   0.0000       0.072339         1.9684
  69   0.0000       0.108165         2.9433
  70   0.0000       0.126173         3.4333
  71   0.0000       0.128167         3.4876

MULLIKEN ATOMIC CHARGES
-----------------------
   0 S :    0.095851
   1 C :   -0.129271
   2 C :   -0.064652
   3 C :   -0.011207
   4 C :   -0.137466
   5 H :    0.019208
   6 C :    0.007232
   7 H :    0.048507
   8 H :    0.050958
   9 C :   -0.105872
  10 H :    0.037557
  11 H :    0.040327
  12 C :   -0.014110
  13 H :    0.023071
  14 H :    0.026838
  15 H :    0.032950
  16 S :    0.106466
  17 C :   -0.115973
  18 C :   -0.011863
  19 C :   -0.023412
  20 C :   -0.159728
  21 H :    0.005186
  22 C :    0.076514
  23 H :    0.032614
  24 H :    0.021634
  25 C :   -0.084456
  26 H :    0.032132
  27 H :    0.035496
  28 C :   -0.086327
  29 H :    0.039170
  30 H :    0.040058
  31 H :    0.037051
  32 H :    0.055622
  33 H :    0.079897
Sum of atomic charges:    0.0000000

LOEWDIN ATOMIC CHARGES
----------------------
   0 S :    0.398933
   1 C :   -0.205003
   2 C :   -0.072828
   3 C :   -0.074747
   4 C :   -0.188857
   5 H :    0.036140
   6 C :   -0.040737
   7 H :    0.037918
   8 H :    0.042164
   9 C :   -0.043252
  10 H :    0.024347
  11 H :    0.029004
  12 C :   -0.063228
  13 H :    0.023929
  14 H :    0.020216
  15 H :    0.032009
  16 S :    0.396035
  17 C :   -0.190377
  18 C :   -0.069508
  19 C :   -0.055369
  20 C :   -0.189326
  21 H :    0.029283
  22 C :   -0.040548
  23 H :    0.033662
  24 H :    0.037280
  25 C :   -0.042117
  26 H :    0.025047
  27 H :    0.025344
  28 C :   -0.068757
  29 H :    0.027947
  30 H :    0.028741
  31 H :    0.020239
  32 H :    0.033437
  33 H :    0.042981

  Mayer bond orders larger than 0.100000
B(  0-S ,  1-C ) :   1.1482 B(  0-S ,  4-C ) :   1.1437 B(  1-C ,  2-C ) :   1.5936
B(  1-C , 32-H ) :   0.9679 B(  2-C ,  3-C ) :   1.2677 B(  2-C ,  6-C ) :   1.0054
B(  3-C ,  4-C ) :   1.5368 B(  3-C ,  5-H ) :   0.9807 B(  4-C , 20-C ) :   1.0803
B(  6-C ,  7-H ) :   0.9457 B(  6-C ,  8-H ) :   0.9359 B(  6-C ,  9-C ) :   1.0895
B(  9-C , 10-H ) :   0.9521 B(  9-C , 11-H ) :   0.9478 B(  9-C , 12-C ) :   1.0938
B( 12-C , 13-H ) :   0.9726 B( 12-C , 14-H ) :   0.9730 B( 12-C , 15-H ) :   0.9702
B( 16-S , 17-C ) :   1.1470 B( 16-S , 20-C ) :   1.1469 B( 17-C , 18-C ) :   1.5936
B( 17-C , 33-H ) :   0.9586 B( 18-C , 19-C ) :   1.2693 B( 18-C , 21-H ) :   0.9931
B( 19-C , 20-C ) :   1.5355 B( 19-C , 22-C ) :   1.0700 B( 22-C , 23-H ) :   0.9172
B( 22-C , 24-H ) :   0.9241 B( 22-C , 25-C ) :   1.0607 B( 25-C , 26-H ) :   0.9569
B( 25-C , 27-H ) :   0.9478 B( 25-C , 28-C ) :   1.0729 B( 28-C , 29-H ) :   0.9754
B( 28-C , 30-H ) :   0.9760 B( 28-C , 31-H ) :   0.9787

Dispersion correction           -0.013793209
FINAL SINGLE POINT ENERGY     -1339.887509518584

DIPOLE MOMENT
-------------
                                X             Y             Z
Electronic contribution:     10.60353     -20.21523      23.82859
Nuclear contribution   :    -10.61411      20.83547     -24.30704
                        -----------------------------------------
Total Dipole Moment    :     -0.01058       0.62023      -0.47846
                        -----------------------------------------
Magnitude (a.u.)       :      0.78341
Magnitude (Debye)      :      1.99126

Rotational constants in cm-1:     0.016117     0.009550     0.006454
Rotational constants in MHz :   483.179850   286.288541   193.482287

                             ****ORCA TERMINATED NORMALLY****
TOTAL RUN TIME: 0 days 0 hours 0 minutes 31 seconds 574 msec
