                         Program Version 4.2.1 -  RELEASE  -
|  1> ! wB97X-D3 SP def2-SVP
|  2> %pal
|  3> nprocs 16
|  4> end
|  5>
|  6> * xyz 0 1
|  7> S 	 45.9901 	 17.6023 	 104.237
|  8> C 	 46.2804 	 18.5153 	 102.772
|  9> C 	 45.3835 	 18.1718 	 101.8
| 10> C 	 44.4719 	 17.1303 	 102.153
| 11> C 	 44.7533 	 16.6571 	 103.455
| 12> H 	 43.6965 	 16.7871 	 101.52
| 13> C 	 45.3237 	 18.7751 	 100.444
| 14> H 	 45.6059 	 19.8173 	 100.699
| 15> H 	 44.2383 	 18.8629 	 100.131
| 16> C 	 46.3054 	 18.2679 	 99.3765
| 17> H 	 46.12 	 17.2654 	 99.2903
| 18> H 	 46.0986 	 18.7843 	 98.4643
| 19> C 	 47.7699 	 18.491 	 99.8447
| 20> H 	 48.1169 	 17.7845 	 100.613
| 21> H 	 48.4227 	 18.2664 	 98.9563
| 22> H 	 47.9863 	 19.5145 	 100.138
| 23> S 	 43.0872 	 15.8976 	 105.412
| 24> C 	 42.9598 	 14.2132 	 105.869
| 25> C 	 43.6199 	 13.3514 	 104.954
| 26> C 	 44.3412 	 14.1065 	 103.962
| 27> C 	 44.2351 	 15.5188 	 104.193
| 28> H 	 43.6728 	 12.2587 	 105.091
| 29> C 	 45.1491 	 13.2981 	 102.943
| 30> H 	 46.1076 	 13.2469 	 103.514
| 31> H 	 45.3636 	 13.8752 	 102.124
| 32> C 	 44.8203 	 11.8209 	 102.663
| 33> H 	 44.8608 	 11.2074 	 103.613
| 34> H 	 45.6516 	 11.4773 	 102.059
| 35> C 	 43.485 	 11.5388 	 101.888
| 36> H 	 43.5056 	 10.5021 	 101.598
| 37> H 	 43.3529 	 12.1671 	 101.002
| 38> H 	 42.6166 	 11.7818 	 102.534
| 39> H 	 46.9793 	 19.3271 	 102.837
| 40> H 	 42.6776 	 13.8185 	 106.817
| 41> *
| 42>
| 43>                          ****END OF INPUT****

CARTESIAN COORDINATES (ANGSTROEM)
---------------------------------
  S     45.990100   17.602300  104.237000
  C     46.280400   18.515300  102.772000
  C     45.383500   18.171800  101.800000
  C     44.471900   17.130300  102.153000
  C     44.753300   16.657100  103.455000
  H     43.696500   16.787100  101.520000
  C     45.323700   18.775100  100.444000
  H     45.605900   19.817300  100.699000
  H     44.238300   18.862900  100.131000
  C     46.305400   18.267900   99.376500
  H     46.120000   17.265400   99.290300
  H     46.098600   18.784300   98.464300
  C     47.769900   18.491000   99.844700
  H     48.116900   17.784500  100.613000
  H     48.422700   18.266400   98.956300
  H     47.986300   19.514500  100.138000
  S     43.087200   15.897600  105.412000
  C     42.959800   14.213200  105.869000
  C     43.619900   13.351400  104.954000
  C     44.341200   14.106500  103.962000
  C     44.235100   15.518800  104.193000
  H     43.672800   12.258700  105.091000
  C     45.149100   13.298100  102.943000
  H     46.107600   13.246900  103.514000
  H     45.363600   13.875200  102.124000
  C     44.820300   11.820900  102.663000
  H     44.860800   11.207400  103.613000
  H     45.651600   11.477300  102.059000
  C     43.485000   11.538800  101.888000
  H     43.505600   10.502100  101.598000
  H     43.352900   12.167100  101.002000
  H     42.616600   11.781800  102.534000
  H     46.979300   19.327100  102.837000
  H     42.677600   13.818500  106.817000

 Total Charge           Charge          ....    0
 Multiplicity           Mult            ....    1
 Number of Electrons    NEL             ....  134
 Basis Dimension        Dim             ....  322

ORBITAL ENERGIES
----------------

  NO   OCC          E(Eh)            E(eV)
   0   2.0000     -88.966278     -2420.8955
   1   2.0000     -88.962304     -2420.7874
   2   2.0000     -10.328443      -281.0512
   3   2.0000     -10.322469      -280.8887
   4   2.0000     -10.313860      -280.6544
   5   2.0000     -10.309922      -280.5472
   6   2.0000     -10.309074      -280.5242
   7   2.0000     -10.297434      -280.2074
   8   2.0000     -10.295853      -280.1644
   9   2.0000     -10.295529      -280.1556
  10   2.0000     -10.294342      -280.1233
  11   2.0000     -10.289433      -279.9897
  12   2.0000     -10.288486      -279.9639
  13   2.0000     -10.281829      -279.7828
  14   2.0000     -10.281764      -279.7810
  15   2.0000     -10.280289      -279.7409
  16   2.0000      -8.081209      -219.9009
  17   2.0000      -8.077521      -219.8005
  18   2.0000      -6.039626      -164.3466
  19   2.0000      -6.035860      -164.2441
  20   2.0000      -6.035661      -164.2387
  21   2.0000      -6.032087      -164.1414
  22   2.0000      -6.031844      -164.1348
  23   2.0000      -6.028554      -164.0453
  24   2.0000      -1.003613       -27.3097
  25   2.0000      -0.980064       -26.6689
  26   2.0000      -0.913576       -24.8597
  27   2.0000      -0.905965       -24.6526
  28   2.0000      -0.863491       -23.4968
  29   2.0000      -0.846993       -23.0479
  30   2.0000      -0.843696       -22.9581
  31   2.0000      -0.808689       -22.0055
  32   2.0000      -0.782743       -21.2995
  33   2.0000      -0.770152       -20.9569
  34   2.0000      -0.712297       -19.3826
  35   2.0000      -0.700993       -19.0750
  36   2.0000      -0.691036       -18.8041
  37   2.0000      -0.654245       -17.8029
  38   2.0000      -0.645736       -17.5714
  39   2.0000      -0.617199       -16.7948
  40   2.0000      -0.593409       -16.1475
  41   2.0000      -0.568301       -15.4642
  42   2.0000      -0.547422       -14.8961
  43   2.0000      -0.544131       -14.8066
  44   2.0000      -0.541833       -14.7440
  45   2.0000      -0.533121       -14.5069
  46   2.0000      -0.519536       -14.1373
  47   2.0000      -0.515448       -14.0261
  48   2.0000      -0.504674       -13.7329
  49   2.0000      -0.499994       -13.6055
  50   2.0000      -0.492246       -13.3947
  51   2.0000      -0.472335       -12.8529
  52   2.0000      -0.464915       -12.6510
  53   2.0000      -0.459052       -12.4914
  54   2.0000      -0.458565       -12.4782
  55   2.0000      -0.450810       -12.2672
  56   2.0000      -0.447713       -12.1829
  57   2.0000      -0.437340       -11.9006
  58   2.0000      -0.431433       -11.7399
  59   2.0000      -0.425429       -11.5765
  60   2.0000      -0.419801       -11.4234
  61   2.0000      -0.419106       -11.4044
  62   2.0000      -0.412797       -11.2328
  63   2.0000      -0.333675        -9.0798
  64   2.0000      -0.326854        -8.8941
  65   2.0000      -0.316817        -8.6210
  66   2.0000      -0.297189        -8.0869
  67   0.0000       0.034034         0.9261
  68   0.0000       0.059654         1.6233
  69   0.0000       0.114397         3.1129
  70   0.0000       0.115376         3.1395
  71   0.0000       0.131024         3.5653

MULLIKEN ATOMIC CHARGES
-----------------------
   0 S :    0.111260
   1 C :   -0.128940
   2 C :   -0.097471
   3 C :    0.079602
   4 C :   -0.185736
   5 H :    0.000762
   6 C :    0.000961
   7 H :    0.017485
   8 H :    0.034995
   9 C :    0.037607
  10 H :    0.005866
  11 H :    0.031299
  12 C :   -0.094394
  13 H :    0.053231
  14 H :    0.034972
  15 H :    0.028825
  16 S :    0.132695
  17 C :   -0.077239
  18 C :   -0.079991
  19 C :   -0.019120
  20 C :   -0.194913
  21 H :    0.033400
  22 C :    0.093282
  23 H :    0.047008
  24 H :    0.001206
  25 C :   -0.095343
  26 H :    0.037015
  27 H :    0.031943
  28 C :   -0.042948
  29 H :    0.038334
  30 H :    0.031156
  31 H :    0.041396
  32 H :    0.044674
  33 H :    0.047122
Sum of atomic charges:   -0.0000000

LOEWDIN ATOMIC CHARGES
----------------------
   0 S :    0.415677
   1 C :   -0.195261
   2 C :   -0.068736
   3 C :   -0.052121
   4 C :   -0.202240
   5 H :    0.027946
   6 C :   -0.043694
   7 H :    0.029624
   8 H :    0.034422
   9 C :   -0.022156
  10 H :    0.013107
  11 H :    0.025145
  12 C :   -0.068823
  13 H :    0.030293
  14 H :    0.031558
  15 H :    0.020451
  16 S :    0.433440
  17 C :   -0.192841
  18 C :   -0.075254
  19 C :   -0.045310
  20 C :   -0.237464
  21 H :    0.034570
  22 C :   -0.031650
  23 H :    0.051219
  24 H :    0.015567
  25 C :   -0.041867
  26 H :    0.028611
  27 H :    0.027918
  28 C :   -0.067426
  29 H :    0.024897
  30 H :    0.025822
  31 H :    0.029479
  32 H :    0.022393
  33 H :    0.022704

  Mayer bond orders larger than 0.100000
B(  0-S ,  1-C ) :   1.1392 B(  0-S ,  4-C ) :   1.1890 B(  1-C ,  2-C ) :   1.5936
B(  1-C ,  4-C ) :   0.1028 B(  1-C , 32-H ) :   0.9762 B(  2-C ,  3-C ) :   1.2467
B(  2-C ,  6-C ) :   1.0170 B(  3-C ,  4-C ) :   1.5400 B(  3-C ,  5-H ) :   1.0109
B(  4-C , 20-C ) :   0.9996 B(  6-C ,  7-H ) :   0.9420 B(  6-C ,  8-H ) :   0.9442
B(  6-C ,  9-C ) :   1.0608 B(  9-C , 10-H ) :   0.9507 B(  9-C , 11-H ) :   0.9555
B(  9-C , 12-C ) :   1.0819 B( 12-C , 13-H ) :   0.9710 B( 12-C , 14-H ) :   0.9724
B( 12-C , 15-H ) :   0.9771 B( 16-S , 17-C ) :   1.1696 B( 16-S , 20-C ) :   1.1716
B( 17-C , 18-C ) :   1.5850 B( 17-C , 20-C ) :   0.1129 B( 17-C , 33-H ) :   0.9653
B( 18-C , 19-C ) :   1.2690 B( 18-C , 21-H ) :   0.9771 B( 19-C , 20-C ) :   1.5544
B( 19-C , 22-C ) :   1.0233 B( 22-C , 23-H ) :   0.9245 B( 22-C , 24-H ) :   0.9357
B( 22-C , 25-C ) :   1.0862 B( 25-C , 26-H ) :   0.9447 B( 25-C , 27-H ) :   0.9504
B( 25-C , 28-C ) :   1.0722 B( 28-C , 29-H ) :   0.9760 B( 28-C , 30-H ) :   0.9756
B( 28-C , 31-H ) :   0.9753

Dispersion correction           -0.014282942
FINAL SINGLE POINT ENERGY     -1339.862869118328

DIPOLE MOMENT
-------------
                                X             Y             Z
Electronic contribution:     -7.07236       9.42784      22.85953
Nuclear contribution   :      7.32011      -9.72739     -23.39978
                        -----------------------------------------
Total Dipole Moment    :      0.24775      -0.29955      -0.54025
                        -----------------------------------------
Magnitude (a.u.)       :      0.66557
Magnitude (Debye)      :      1.69175

Rotational constants in cm-1:     0.019581     0.008283     0.006510
Rotational constants in MHz :   587.037155   248.329229   195.168414

                             ****ORCA TERMINATED NORMALLY****
TOTAL RUN TIME: 0 days 0 hours 0 minutes 29 seconds 760 msec
