                         Program Version 4.2.1 -  RELEASE  -
|  1> ! wB97X-D3 SP def2-SVP
|  2> %pal
|  3> nprocs 16
|  4> end
|  5>
|  6> * xyz 0 1
|  7> S 	 4.14576 	 -13.0224 	 78.7045
|  8> C 	 4.86133 	 -13.1112 	 80.3467
|  9> C 	 4.07246 	 -12.4199 	 81.2705
| 10> C 	 3.02493 	 -11.7039 	 80.6107
| 11> C 	 2.91259 	 -11.9879 	 79.2846
| 12> H 	 2.31556 	 -11.0309 	 81.0918
| 13> C 	 4.248 	 -12.4032 	 82.7905
| 14> H 	 4.35645 	 -11.3696 	 83.1215
| 15> H 	 5.20606 	 -12.9061 	 83.0139
| 16> C 	 3.12815 	 -13.006 	 83.6605
| 17> H 	 2.19769 	 -12.4943 	 83.4419
| 18> H 	 2.92845 	 -14.0339 	 83.4801
| 19> C 	 3.37688 	 -12.8093 	 85.1558
| 20> H 	 3.70138 	 -11.763 	 85.2602
| 21> H 	 2.51934 	 -12.9624 	 85.8358
| 22> H 	 4.22152 	 -13.4097 	 85.4662
| 23> S 	 2.20566 	 -10.4353 	 77.1335
| 24> C 	 0.538468 	 -10.463 	 76.5846
| 25> C 	 -0.317183 	 -11.1381 	 77.4281
| 26> C 	 0.417234 	 -11.8187 	 78.4627
| 27> C 	 1.80474 	 -11.5908 	 78.3579
| 28> H 	 -1.41429 	 -11.1039 	 77.3132
| 29> C 	 -0.305896 	 -12.5956 	 79.5316
| 30> H 	 -1.28924 	 -12.1241 	 79.569
| 31> H 	 0.304935 	 -12.4592 	 80.4511
| 32> C 	 -0.50616 	 -14.0909 	 79.2428
| 33> H 	 0.352632 	 -14.6554 	 79.0628
| 34> H 	 -1.05508 	 -14.2114 	 78.3266
| 35> C 	 -1.32377 	 -14.7316 	 80.3861
| 36> H 	 -1.61705 	 -15.7762 	 80.1116
| 37> H 	 -2.2866 	 -14.0949 	 80.4928
| 38> H 	 -0.781883 	 -14.595 	 81.3298
| 39> H 	 5.70607 	 -13.7266 	 80.6641
| 40> H 	 0.206893 	 -10.051 	 75.6911
| 41> *
| 42>
| 43>                          ****END OF INPUT****

CARTESIAN COORDINATES (ANGSTROEM)
---------------------------------
  S      4.145760  -13.022400   78.704500
  C      4.861330  -13.111200   80.346700
  C      4.072460  -12.419900   81.270500
  C      3.024930  -11.703900   80.610700
  C      2.912590  -11.987900   79.284600
  H      2.315560  -11.030900   81.091800
  C      4.248000  -12.403200   82.790500
  H      4.356450  -11.369600   83.121500
  H      5.206060  -12.906100   83.013900
  C      3.128150  -13.006000   83.660500
  H      2.197690  -12.494300   83.441900
  H      2.928450  -14.033900   83.480100
  C      3.376880  -12.809300   85.155800
  H      3.701380  -11.763000   85.260200
  H      2.519340  -12.962400   85.835800
  H      4.221520  -13.409700   85.466200
  S      2.205660  -10.435300   77.133500
  C      0.538468  -10.463000   76.584600
  C     -0.317183  -11.138100   77.428100
  C      0.417234  -11.818700   78.462700
  C      1.804740  -11.590800   78.357900
  H     -1.414290  -11.103900   77.313200
  C     -0.305896  -12.595600   79.531600
  H     -1.289240  -12.124100   79.569000
  H      0.304935  -12.459200   80.451100
  C     -0.506160  -14.090900   79.242800
  H      0.352632  -14.655400   79.062800
  H     -1.055080  -14.211400   78.326600
  C     -1.323770  -14.731600   80.386100
  H     -1.617050  -15.776200   80.111600
  H     -2.286600  -14.094900   80.492800
  H     -0.781883  -14.595000   81.329800
  H      5.706070  -13.726600   80.664100
  H      0.206893  -10.051000   75.691100

 Total Charge           Charge          ....    0
 Multiplicity           Mult            ....    1
 Number of Electrons    NEL             ....  134
 Basis Dimension        Dim             ....  322

ORBITAL ENERGIES
----------------

  NO   OCC          E(Eh)            E(eV)
   0   2.0000     -88.967923     -2420.9403
   1   2.0000     -88.967048     -2420.9164
   2   2.0000     -10.325819      -280.9798
   3   2.0000     -10.325620      -280.9744
   4   2.0000     -10.318825      -280.7895
   5   2.0000     -10.311842      -280.5995
   6   2.0000     -10.305418      -280.4247
   7   2.0000     -10.304132      -280.3897
   8   2.0000     -10.298837      -280.2456
   9   2.0000     -10.296340      -280.1776
  10   2.0000     -10.292383      -280.0700
  11   2.0000     -10.291711      -280.0517
  12   2.0000     -10.286380      -279.9066
  13   2.0000     -10.285016      -279.8695
  14   2.0000     -10.280782      -279.7543
  15   2.0000     -10.276870      -279.6478
  16   2.0000      -8.082534      -219.9369
  17   2.0000      -8.081989      -219.9221
  18   2.0000      -6.041011      -164.3843
  19   2.0000      -6.040357      -164.3665
  20   2.0000      -6.037099      -164.2778
  21   2.0000      -6.036596      -164.2641
  22   2.0000      -6.033282      -164.1739
  23   2.0000      -6.032765      -164.1599
  24   2.0000      -1.005912       -27.3723
  25   2.0000      -0.983121       -26.7521
  26   2.0000      -0.912908       -24.8415
  27   2.0000      -0.909064       -24.7369
  28   2.0000      -0.867148       -23.5963
  29   2.0000      -0.849456       -23.1149
  30   2.0000      -0.847180       -23.0529
  31   2.0000      -0.813887       -22.1470
  32   2.0000      -0.780254       -21.2318
  33   2.0000      -0.764719       -20.8091
  34   2.0000      -0.706205       -19.2168
  35   2.0000      -0.699761       -19.0415
  36   2.0000      -0.690622       -18.7928
  37   2.0000      -0.662244       -18.0206
  38   2.0000      -0.642042       -17.4709
  39   2.0000      -0.619878       -16.8677
  40   2.0000      -0.593339       -16.1456
  41   2.0000      -0.574327       -15.6282
  42   2.0000      -0.568047       -15.4573
  43   2.0000      -0.558907       -15.2086
  44   2.0000      -0.527281       -14.3480
  45   2.0000      -0.524421       -14.2702
  46   2.0000      -0.517345       -14.0777
  47   2.0000      -0.503296       -13.6954
  48   2.0000      -0.502879       -13.6840
  49   2.0000      -0.494504       -13.4561
  50   2.0000      -0.490016       -13.3340
  51   2.0000      -0.480751       -13.0819
  52   2.0000      -0.468479       -12.7480
  53   2.0000      -0.461129       -12.5480
  54   2.0000      -0.456625       -12.4254
  55   2.0000      -0.453747       -12.3471
  56   2.0000      -0.443903       -12.0792
  57   2.0000      -0.441031       -12.0011
  58   2.0000      -0.436245       -11.8708
  59   2.0000      -0.427419       -11.6306
  60   2.0000      -0.423209       -11.5161
  61   2.0000      -0.421668       -11.4742
  62   2.0000      -0.418090       -11.3768
  63   2.0000      -0.338039        -9.1985
  64   2.0000      -0.331524        -9.0212
  65   2.0000      -0.324831        -8.8391
  66   2.0000      -0.301723        -8.2103
  67   0.0000       0.038174         1.0388
  68   0.0000       0.063422         1.7258
  69   0.0000       0.105416         2.8685
  70   0.0000       0.115971         3.1557
  71   0.0000       0.126925         3.4538

MULLIKEN ATOMIC CHARGES
-----------------------
   0 S :    0.118303
   1 C :   -0.122943
   2 C :   -0.091502
   3 C :    0.041298
   4 C :   -0.165639
   5 H :    0.018501
   6 C :    0.057902
   7 H :    0.029557
   8 H :    0.017112
   9 C :   -0.053530
  10 H :    0.019502
  11 H :    0.025158
  12 C :   -0.054965
  13 H :    0.018734
  14 H :    0.047361
  15 H :    0.028948
  16 S :    0.121737
  17 C :   -0.064811
  18 C :   -0.048896
  19 C :   -0.035568
  20 C :   -0.174578
  21 H :    0.033163
  22 C :    0.068433
  23 H :    0.019400
  24 H :    0.026255
  25 C :   -0.032635
  26 H :    0.020541
  27 H :    0.012048
  28 C :   -0.071780
  29 H :    0.049900
  30 H :    0.027957
  31 H :    0.037890
  32 H :    0.048842
  33 H :    0.028306
Sum of atomic charges:   -0.0000000

LOEWDIN ATOMIC CHARGES
----------------------
   0 S :    0.410813
   1 C :   -0.192814
   2 C :   -0.058583
   3 C :   -0.068406
   4 C :   -0.207736
   5 H :    0.032921
   6 C :   -0.029775
   7 H :    0.032396
   8 H :    0.029798
   9 C :   -0.038643
  10 H :    0.021194
  11 H :    0.019096
  12 C :   -0.065332
  13 H :    0.024200
  14 H :    0.031186
  15 H :    0.022298
  16 S :    0.417683
  17 C :   -0.172435
  18 C :   -0.072027
  19 C :   -0.051446
  20 C :   -0.217383
  21 H :    0.038298
  22 C :   -0.030453
  23 H :    0.032270
  24 H :    0.033401
  25 C :   -0.035734
  26 H :    0.017131
  27 H :    0.020614
  28 C :   -0.070021
  29 H :    0.030712
  30 H :    0.029029
  31 H :    0.024408
  32 H :    0.030154
  33 H :    0.013185

  Mayer bond orders larger than 0.100000
B(  0-S ,  1-C ) :   1.1253 B(  0-S ,  4-C ) :   1.1693 B(  1-C ,  2-C ) :   1.6322
B(  1-C , 32-H ) :   0.9650 B(  2-C ,  3-C ) :   1.2176 B(  2-C ,  6-C ) :   1.0308
B(  3-C ,  4-C ) :   1.6074 B(  3-C ,  5-H ) :   0.9922 B(  4-C , 20-C ) :   0.9725
B(  6-C ,  7-H ) :   0.9353 B(  6-C ,  8-H ) :   0.9413 B(  6-C ,  9-C ) :   1.0622
B(  9-C , 10-H ) :   0.9528 B(  9-C , 11-H ) :   0.9565 B(  9-C , 12-C ) :   1.0813
B( 12-C , 13-H ) :   0.9723 B( 12-C , 14-H ) :   0.9747 B( 12-C , 15-H ) :   0.9767
B( 16-S , 17-C ) :   1.1589 B( 16-S , 20-C ) :   1.1606 B( 17-C , 18-C ) :   1.6125
B( 17-C , 33-H ) :   0.9735 B( 18-C , 19-C ) :   1.2468 B( 18-C , 21-H ) :   0.9841
B( 19-C , 20-C ) :   1.5927 B( 19-C , 22-C ) :   1.0429 B( 22-C , 23-H ) :   0.9293
B( 22-C , 24-H ) :   0.9270 B( 22-C , 25-C ) :   1.0757 B( 25-C , 26-H ) :   0.9537
B( 25-C , 27-H ) :   0.9503 B( 25-C , 28-C ) :   1.0806 B( 28-C , 29-H ) :   0.9730
B( 28-C , 30-H ) :   0.9738 B( 28-C , 31-H ) :   0.9751

Dispersion correction           -0.013987610
FINAL SINGLE POINT ENERGY     -1339.886276085744

DIPOLE MOMENT
-------------
                                X             Y             Z
Electronic contribution:     12.13291      10.93970     -26.72223
Nuclear contribution   :    -12.54110     -11.04090      27.22473
                        -----------------------------------------
Total Dipole Moment    :     -0.40818      -0.10120       0.50249
                        -----------------------------------------
Magnitude (a.u.)       :      0.65525
Magnitude (Debye)      :      1.66552

Rotational constants in cm-1:     0.017118     0.008896     0.006896
Rotational constants in MHz :   513.197895   266.688301   206.746378

                             ****ORCA TERMINATED NORMALLY****
TOTAL RUN TIME: 0 days 0 hours 0 minutes 34 seconds 982 msec
