                         Program Version 4.2.1 -  RELEASE  -
|  1> ! wB97X-D3 SP def2-SVP
|  2> %pal
|  3> nprocs 16
|  4> end
|  5>
|  6> * xyz 0 1
|  7> S 	 42.5249 	 12.6201 	 86.808
|  8> C 	 43.5295 	 13.0832 	 88.0901
|  9> C 	 44.7733 	 13.4103 	 87.725
| 10> C 	 44.9911 	 13.2882 	 86.3054
| 11> C 	 43.7978 	 12.883 	 85.6318
| 12> H 	 45.8776 	 13.3997 	 85.7393
| 13> C 	 45.9011 	 13.9269 	 88.5856
| 14> H 	 46.5604 	 13.0172 	 88.7806
| 15> H 	 45.3816 	 14.0778 	 89.5717
| 16> C 	 46.7856 	 15.0609 	 88.1169
| 17> H 	 47.5507 	 15.2733 	 88.9525
| 18> H 	 47.3685 	 14.6987 	 87.2497
| 19> C 	 46.0823 	 16.3379 	 87.7122
| 20> H 	 45.4479 	 16.6275 	 88.5705
| 21> H 	 46.8406 	 17.1572 	 87.5948
| 22> H 	 45.4952 	 16.33 	 86.8067
| 23> S 	 42.7997 	 11.1708 	 83.6408
| 24> C 	 43.1123 	 11.5904 	 81.9805
| 25> C 	 44.0825 	 12.5596 	 81.8647
| 26> C 	 44.4596 	 13.1218 	 83.1326
| 27> C 	 43.8149 	 12.5354 	 84.1893
| 28> H 	 44.4719 	 12.7273 	 80.8593
| 29> C 	 45.1654 	 14.4556 	 83.1614
| 30> H 	 46.184 	 14.1874 	 83.4082
| 31> H 	 44.9617 	 15.0122 	 83.9954
| 32> C 	 45.1843 	 15.3399 	 81.8722
| 33> H 	 45.6318 	 14.7222 	 81.082
| 34> H 	 45.8837 	 16.0699 	 82.1006
| 35> C 	 43.8982 	 16.1017 	 81.7115
| 36> H 	 43.0975 	 15.5396 	 81.3983
| 37> H 	 43.9836 	 16.917 	 80.9592
| 38> H 	 43.6359 	 16.6941 	 82.5767
| 39> H 	 43.1422 	 13.1616 	 89.1256
| 40> H 	 42.8453 	 10.9743 	 81.1324
| 41> *
| 42>
| 43>                          ****END OF INPUT****

CARTESIAN COORDINATES (ANGSTROEM)
---------------------------------
  S     42.524900   12.620100   86.808000
  C     43.529500   13.083200   88.090100
  C     44.773300   13.410300   87.725000
  C     44.991100   13.288200   86.305400
  C     43.797800   12.883000   85.631800
  H     45.877600   13.399700   85.739300
  C     45.901100   13.926900   88.585600
  H     46.560400   13.017200   88.780600
  H     45.381600   14.077800   89.571700
  C     46.785600   15.060900   88.116900
  H     47.550700   15.273300   88.952500
  H     47.368500   14.698700   87.249700
  C     46.082300   16.337900   87.712200
  H     45.447900   16.627500   88.570500
  H     46.840600   17.157200   87.594800
  H     45.495200   16.330000   86.806700
  S     42.799700   11.170800   83.640800
  C     43.112300   11.590400   81.980500
  C     44.082500   12.559600   81.864700
  C     44.459600   13.121800   83.132600
  C     43.814900   12.535400   84.189300
  H     44.471900   12.727300   80.859300
  C     45.165400   14.455600   83.161400
  H     46.184000   14.187400   83.408200
  H     44.961700   15.012200   83.995400
  C     45.184300   15.339900   81.872200
  H     45.631800   14.722200   81.082000
  H     45.883700   16.069900   82.100600
  C     43.898200   16.101700   81.711500
  H     43.097500   15.539600   81.398300
  H     43.983600   16.917000   80.959200
  H     43.635900   16.694100   82.576700
  H     43.142200   13.161600   89.125600
  H     42.845300   10.974300   81.132400

 Total Charge           Charge          ....    0
 Multiplicity           Mult            ....    1
 Number of Electrons    NEL             ....  134
 Basis Dimension        Dim             ....  322

ORBITAL ENERGIES
----------------

  NO   OCC          E(Eh)            E(eV)
   0   2.0000     -88.969028     -2420.9703
   1   2.0000     -88.962060     -2420.7807
   2   2.0000     -10.334212      -281.2082
   3   2.0000     -10.328842      -281.0621
   4   2.0000     -10.313674      -280.6493
   5   2.0000     -10.309034      -280.5231
   6   2.0000     -10.301719      -280.3240
   7   2.0000     -10.297887      -280.2197
   8   2.0000     -10.297223      -280.2017
   9   2.0000     -10.296737      -280.1885
  10   2.0000     -10.293876      -280.1106
  11   2.0000     -10.293241      -280.0933
  12   2.0000     -10.284269      -279.8492
  13   2.0000     -10.281651      -279.7779
  14   2.0000     -10.280517      -279.7471
  15   2.0000     -10.269797      -279.4554
  16   2.0000      -8.084464      -219.9894
  17   2.0000      -8.076621      -219.7760
  18   2.0000      -6.043046      -164.4396
  19   2.0000      -6.038796      -164.3240
  20   2.0000      -6.035222      -164.2267
  21   2.0000      -6.035174      -164.2254
  22   2.0000      -6.031255      -164.1188
  23   2.0000      -6.027211      -164.0088
  24   2.0000      -1.006970       -27.4011
  25   2.0000      -0.987043       -26.8588
  26   2.0000      -0.913534       -24.8585
  27   2.0000      -0.911723       -24.8093
  28   2.0000      -0.871022       -23.7017
  29   2.0000      -0.853927       -23.2365
  30   2.0000      -0.845505       -23.0074
  31   2.0000      -0.813621       -22.1397
  32   2.0000      -0.786591       -21.4042
  33   2.0000      -0.777282       -21.1509
  34   2.0000      -0.713736       -19.4217
  35   2.0000      -0.701147       -19.0792
  36   2.0000      -0.691338       -18.8123
  37   2.0000      -0.656666       -17.8688
  38   2.0000      -0.639791       -17.4096
  39   2.0000      -0.618076       -16.8187
  40   2.0000      -0.599388       -16.3102
  41   2.0000      -0.565386       -15.3849
  42   2.0000      -0.552176       -15.0255
  43   2.0000      -0.549188       -14.9442
  44   2.0000      -0.546216       -14.8633
  45   2.0000      -0.543743       -14.7960
  46   2.0000      -0.522434       -14.2161
  47   2.0000      -0.508420       -13.8348
  48   2.0000      -0.502297       -13.6682
  49   2.0000      -0.495752       -13.4901
  50   2.0000      -0.491929       -13.3861
  51   2.0000      -0.481435       -13.1005
  52   2.0000      -0.474027       -12.8989
  53   2.0000      -0.468207       -12.7406
  54   2.0000      -0.456981       -12.4351
  55   2.0000      -0.448200       -12.1962
  56   2.0000      -0.446731       -12.1562
  57   2.0000      -0.439145       -11.9497
  58   2.0000      -0.434730       -11.8296
  59   2.0000      -0.424589       -11.5537
  60   2.0000      -0.418447       -11.3865
  61   2.0000      -0.413376       -11.2485
  62   2.0000      -0.409803       -11.1513
  63   2.0000      -0.356948        -9.7130
  64   2.0000      -0.329442        -8.9646
  65   2.0000      -0.326491        -8.8843
  66   2.0000      -0.286710        -7.8018
  67   0.0000       0.026742         0.7277
  68   0.0000       0.083588         2.2745
  69   0.0000       0.109771         2.9870
  70   0.0000       0.123719         3.3666
  71   0.0000       0.127924         3.4810

MULLIKEN ATOMIC CHARGES
-----------------------
   0 S :    0.127461
   1 C :   -0.146946
   2 C :   -0.058918
   3 C :   -0.003140
   4 C :   -0.130044
   5 H :   -0.000688
   6 C :    0.046626
   7 H :    0.051486
   8 H :    0.014760
   9 C :   -0.089067
  10 H :    0.048554
  11 H :    0.031934
  12 C :   -0.053128
  13 H :    0.030770
  14 H :    0.035953
  15 H :    0.044944
  16 S :    0.092553
  17 C :   -0.086452
  18 C :   -0.064460
  19 C :   -0.019567
  20 C :   -0.157124
  21 H :    0.026670
  22 C :    0.046820
  23 H :    0.018168
  24 H :   -0.008683
  25 C :   -0.009189
  26 H :    0.032179
  27 H :    0.004063
  28 C :   -0.009142
  29 H :    0.023233
  30 H :    0.022173
  31 H :    0.025329
  32 H :    0.057229
  33 H :    0.055644
Sum of atomic charges:    0.0000000

LOEWDIN ATOMIC CHARGES
----------------------
   0 S :    0.429867
   1 C :   -0.219797
   2 C :   -0.073597
   3 C :   -0.055282
   4 C :   -0.191800
   5 H :    0.022184
   6 C :   -0.044025
   7 H :    0.044829
   8 H :    0.029168
   9 C :   -0.052555
  10 H :    0.040248
  11 H :    0.024238
  12 C :   -0.070631
  13 H :    0.028351
  14 H :    0.031901
  15 H :    0.023800
  16 S :    0.381038
  17 C :   -0.185112
  18 C :   -0.074092
  19 C :   -0.059316
  20 C :   -0.180072
  21 H :    0.034543
  22 C :   -0.028381
  23 H :    0.031286
  24 H :    0.014791
  25 C :   -0.031052
  26 H :    0.026970
  27 H :    0.020629
  28 C :   -0.057287
  29 H :    0.013830
  30 H :    0.029502
  31 H :    0.029985
  32 H :    0.036767
  33 H :    0.029073

  Mayer bond orders larger than 0.100000
B(  0-S ,  1-C ) :   1.1375 B(  0-S ,  4-C ) :   1.1620 B(  1-C ,  2-C ) :   1.6292
B(  1-C , 32-H ) :   0.9546 B(  2-C ,  3-C ) :   1.2322 B(  2-C ,  6-C ) :   1.0133
B(  3-C ,  4-C ) :   1.5322 B(  3-C ,  5-H ) :   1.0009 B(  4-C , 20-C ) :   1.0688
B(  6-C ,  7-H ) :   0.9306 B(  6-C ,  8-H ) :   0.9393 B(  6-C ,  9-C ) :   1.0814
B(  9-C , 10-H ) :   0.9500 B(  9-C , 11-H ) :   0.9436 B(  9-C , 12-C ) :   1.0822
B( 12-C , 13-H ) :   0.9742 B( 12-C , 14-H ) :   0.9723 B( 12-C , 15-H ) :   0.9718
B( 16-S , 17-C ) :   1.1444 B( 16-S , 20-C ) :   1.1145 B( 17-C , 18-C ) :   1.6505
B( 17-C , 33-H ) :   0.9600 B( 18-C , 19-C ) :   1.2184 B( 18-C , 21-H ) :   0.9823
B( 19-C , 20-C ) :   1.6234 B( 19-C , 22-C ) :   1.0268 B( 22-C , 23-H ) :   0.9084
B( 22-C , 24-H ) :   0.9345 B( 22-C , 25-C ) :   1.0987 B( 25-C , 26-H ) :   0.9475
B( 25-C , 27-H ) :   0.9407 B( 25-C , 28-C ) :   1.0801 B( 28-C , 29-H ) :   0.9788
B( 28-C , 30-H ) :   0.9710 B( 28-C , 31-H ) :   0.9673

Dispersion correction           -0.014680351
FINAL SINGLE POINT ENERGY     -1339.867390114048

DIPOLE MOMENT
-------------
                                X             Y             Z
Electronic contribution:    -16.97037     -23.27147       1.08868
Nuclear contribution   :     17.57357      23.74848      -1.12790
                        -----------------------------------------
Total Dipole Moment    :      0.60321       0.47701      -0.03921
                        -----------------------------------------
Magnitude (a.u.)       :      0.77002
Magnitude (Debye)      :      1.95724

Rotational constants in cm-1:     0.017820     0.009703     0.006984
Rotational constants in MHz :   534.237309   290.883298   209.378669

                             ****ORCA TERMINATED NORMALLY****
TOTAL RUN TIME: 0 days 0 hours 0 minutes 30 seconds 985 msec
