                         Program Version 4.2.1 -  RELEASE  -
|  1> ! wB97X-D3 SP def2-SVP
|  2> %pal
|  3> nprocs 16
|  4> end
|  5>
|  6> * xyz 0 1
|  7> S 	 6.47524 	 -13.9203 	 61.7674
|  8> C 	 8.18755 	 -13.9576 	 61.7385
|  9> C 	 8.69418 	 -13.4278 	 62.8987
| 10> C 	 7.68624 	 -12.9814 	 63.7806
| 11> C 	 6.4141 	 -13.1157 	 63.3393
| 12> H 	 7.88703 	 -12.5182 	 64.7433
| 13> C 	 10.187 	 -13.2539 	 63.1452
| 14> H 	 10.4117 	 -12.2752 	 63.4841
| 15> H 	 10.712 	 -13.349 	 62.1574
| 16> C 	 10.8655 	 -14.3227 	 64.0441
| 17> H 	 10.8052 	 -15.2351 	 63.5205
| 18> H 	 11.9572 	 -14.0593 	 64.187
| 19> C 	 10.208 	 -14.41 	 65.4482
| 20> H 	 10.4012 	 -13.4731 	 65.9875
| 21> H 	 9.12343 	 -14.5944 	 65.4135
| 22> H 	 10.8419 	 -15.1064 	 65.9453
| 23> S 	 4.15436 	 -11.5284 	 63.0988
| 24> C 	 3.16634 	 -11.2496 	 64.5609
| 25> C 	 3.5725 	 -11.9015 	 65.6775
| 26> C 	 4.77634 	 -12.6663 	 65.3912
| 27> C 	 5.18541 	 -12.6507 	 64.0347
| 28> H 	 3.03072 	 -11.8405 	 66.6119
| 29> C 	 5.45562 	 -13.6182 	 66.426
| 30> H 	 5.78924 	 -13.0456 	 67.3412
| 31> H 	 6.43746 	 -13.915 	 66.0239
| 32> C 	 4.38647 	 -14.6536 	 66.9317
| 33> H 	 3.57017 	 -14.2461 	 67.3975
| 34> H 	 4.73247 	 -15.2615 	 67.8101
| 35> C 	 3.85702 	 -15.6376 	 65.9181
| 36> H 	 3.47901 	 -15.0063 	 65.1824
| 37> H 	 3.12227 	 -16.3625 	 66.3647
| 38> H 	 4.64301 	 -16.2069 	 65.4123
| 39> H 	 8.77078 	 -14.2693 	 60.8266
| 40> H 	 2.25786 	 -10.6435 	 64.5928
| 41> *
| 42>
| 43>                          ****END OF INPUT****

CARTESIAN COORDINATES (ANGSTROEM)
---------------------------------
  S      6.475240  -13.920300   61.767400
  C      8.187550  -13.957600   61.738500
  C      8.694180  -13.427800   62.898700
  C      7.686240  -12.981400   63.780600
  C      6.414100  -13.115700   63.339300
  H      7.887030  -12.518200   64.743300
  C     10.187000  -13.253900   63.145200
  H     10.411700  -12.275200   63.484100
  H     10.712000  -13.349000   62.157400
  C     10.865500  -14.322700   64.044100
  H     10.805200  -15.235100   63.520500
  H     11.957200  -14.059300   64.187000
  C     10.208000  -14.410000   65.448200
  H     10.401200  -13.473100   65.987500
  H      9.123430  -14.594400   65.413500
  H     10.841900  -15.106400   65.945300
  S      4.154360  -11.528400   63.098800
  C      3.166340  -11.249600   64.560900
  C      3.572500  -11.901500   65.677500
  C      4.776340  -12.666300   65.391200
  C      5.185410  -12.650700   64.034700
  H      3.030720  -11.840500   66.611900
  C      5.455620  -13.618200   66.426000
  H      5.789240  -13.045600   67.341200
  H      6.437460  -13.915000   66.023900
  C      4.386470  -14.653600   66.931700
  H      3.570170  -14.246100   67.397500
  H      4.732470  -15.261500   67.810100
  C      3.857020  -15.637600   65.918100
  H      3.479010  -15.006300   65.182400
  H      3.122270  -16.362500   66.364700
  H      4.643010  -16.206900   65.412300
  H      8.770780  -14.269300   60.826600
  H      2.257860  -10.643500   64.592800

 Total Charge           Charge          ....    0
 Multiplicity           Mult            ....    1
 Number of Electrons    NEL             ....  134
 Basis Dimension        Dim             ....  322

ORBITAL ENERGIES
----------------

  NO   OCC          E(Eh)            E(eV)
   0   2.0000     -88.967130     -2420.9187
   1   2.0000     -88.965518     -2420.8748
   2   2.0000     -10.336694      -281.2758
   3   2.0000     -10.332056      -281.1495
   4   2.0000     -10.321929      -280.8740
   5   2.0000     -10.317679      -280.7583
   6   2.0000     -10.315634      -280.7027
   7   2.0000     -10.304191      -280.3913
   8   2.0000     -10.299467      -280.2627
   9   2.0000     -10.299066      -280.2518
  10   2.0000     -10.291538      -280.0470
  11   2.0000     -10.290236      -280.0115
  12   2.0000     -10.287991      -279.9505
  13   2.0000     -10.282177      -279.7922
  14   2.0000     -10.276992      -279.6512
  15   2.0000     -10.265995      -279.3519
  16   2.0000      -8.080844      -219.8910
  17   2.0000      -8.080817      -219.8902
  18   2.0000      -6.039501      -164.3432
  19   2.0000      -6.039337      -164.3387
  20   2.0000      -6.035569      -164.2362
  21   2.0000      -6.035161      -164.2251
  22   2.0000      -6.031621      -164.1288
  23   2.0000      -6.031392      -164.1225
  24   2.0000      -1.008405       -27.4401
  25   2.0000      -0.982381       -26.7320
  26   2.0000      -0.908013       -24.7083
  27   2.0000      -0.902634       -24.5619
  28   2.0000      -0.872187       -23.7334
  29   2.0000      -0.848729       -23.0951
  30   2.0000      -0.841892       -22.9090
  31   2.0000      -0.820636       -22.3307
  32   2.0000      -0.782680       -21.2978
  33   2.0000      -0.768317       -20.9070
  34   2.0000      -0.703944       -19.1553
  35   2.0000      -0.696790       -18.9606
  36   2.0000      -0.695011       -18.9122
  37   2.0000      -0.657250       -17.8847
  38   2.0000      -0.642864       -17.4932
  39   2.0000      -0.620395       -16.8818
  40   2.0000      -0.592217       -16.1150
  41   2.0000      -0.577405       -15.7120
  42   2.0000      -0.553863       -15.0714
  43   2.0000      -0.548612       -14.9285
  44   2.0000      -0.539767       -14.6878
  45   2.0000      -0.528761       -14.3883
  46   2.0000      -0.518635       -14.1128
  47   2.0000      -0.510266       -13.8850
  48   2.0000      -0.502547       -13.6750
  49   2.0000      -0.495110       -13.4726
  50   2.0000      -0.493040       -13.4163
  51   2.0000      -0.478705       -13.0262
  52   2.0000      -0.472107       -12.8467
  53   2.0000      -0.467087       -12.7101
  54   2.0000      -0.462170       -12.5763
  55   2.0000      -0.447192       -12.1687
  56   2.0000      -0.441831       -12.0228
  57   2.0000      -0.433140       -11.7863
  58   2.0000      -0.430080       -11.7031
  59   2.0000      -0.425108       -11.5678
  60   2.0000      -0.418477       -11.3873
  61   2.0000      -0.415100       -11.2954
  62   2.0000      -0.401737       -10.9318
  63   2.0000      -0.354101        -9.6356
  64   2.0000      -0.333156        -9.0656
  65   2.0000      -0.329342        -8.9618
  66   2.0000      -0.297155        -8.0860
  67   0.0000       0.029168         0.7937
  68   0.0000       0.071572         1.9476
  69   0.0000       0.109616         2.9828
  70   0.0000       0.120731         3.2852
  71   0.0000       0.125027         3.4021

MULLIKEN ATOMIC CHARGES
-----------------------
   0 S :    0.108650
   1 C :   -0.144970
   2 C :   -0.087947
   3 C :    0.018456
   4 C :   -0.140117
   5 H :    0.015428
   6 C :    0.065764
   7 H :    0.020028
   8 H :    0.019246
   9 C :   -0.077180
  10 H :    0.021060
  11 H :    0.038835
  12 C :   -0.058821
  13 H :    0.022577
  14 H :    0.064228
  15 H :    0.029216
  16 S :    0.094321
  17 C :   -0.081047
  18 C :   -0.023826
  19 C :   -0.082607
  20 C :   -0.136232
  21 H :    0.028456
  22 C :    0.072927
  23 H :    0.034851
  24 H :    0.023849
  25 C :   -0.062158
  26 H :    0.001809
  27 H :    0.017576
  28 C :   -0.032180
  29 H :    0.024441
  30 H :    0.042875
  31 H :    0.028052
  32 H :    0.076319
  33 H :    0.058121
Sum of atomic charges:   -0.0000000

LOEWDIN ATOMIC CHARGES
----------------------
   0 S :    0.411055
   1 C :   -0.208602
   2 C :   -0.072751
   3 C :   -0.066453
   4 C :   -0.194774
   5 H :    0.032444
   6 C :   -0.031293
   7 H :    0.021389
   8 H :    0.033467
   9 C :   -0.034566
  10 H :    0.014987
  11 H :    0.031040
  12 C :   -0.068593
  13 H :    0.024466
  14 H :    0.028559
  15 H :    0.024379
  16 S :    0.373915
  17 C :   -0.164519
  18 C :   -0.072105
  19 C :   -0.049536
  20 C :   -0.189013
  21 H :    0.037523
  22 C :   -0.031630
  23 H :    0.037915
  24 H :    0.029658
  25 C :   -0.042266
  26 H :    0.011266
  27 H :    0.025490
  28 C :   -0.062843
  29 H :    0.016619
  30 H :    0.033448
  31 H :    0.025469
  32 H :    0.044174
  33 H :    0.031682

  Mayer bond orders larger than 0.100000
B(  0-S ,  1-C ) :   1.1519 B(  0-S ,  4-C ) :   1.1508 B(  1-C ,  2-C ) :   1.6029
B(  1-C , 32-H ) :   0.9594 B(  2-C ,  3-C ) :   1.2550 B(  2-C ,  6-C ) :   1.0177
B(  3-C ,  4-C ) :   1.5700 B(  3-C ,  5-H ) :   0.9960 B(  4-C , 20-C ) :   1.0196
B(  6-C ,  7-H ) :   0.9463 B(  6-C ,  8-H ) :   0.9417 B(  6-C ,  9-C ) :   1.0702
B(  9-C , 10-H ) :   0.9558 B(  9-C , 11-H ) :   0.9554 B(  9-C , 12-C ) :   1.0822
B( 12-C , 13-H ) :   0.9732 B( 12-C , 14-H ) :   0.9700 B( 12-C , 15-H ) :   0.9725
B( 16-S , 17-C ) :   1.1385 B( 16-S , 20-C ) :   1.1196 B( 17-C , 18-C ) :   1.6597
B( 17-C , 33-H ) :   0.9591 B( 18-C , 19-C ) :   1.1959 B( 18-C , 21-H ) :   0.9907
B( 19-C , 20-C ) :   1.6222 B( 19-C , 22-C ) :   1.0382 B( 22-C , 23-H ) :   0.9345
B( 22-C , 24-H ) :   0.9462 B( 22-C , 25-C ) :   1.0497 B( 25-C , 26-H ) :   0.9541
B( 25-C , 27-H ) :   0.9526 B( 25-C , 28-C ) :   1.0755 B( 28-C , 29-H ) :   0.9747
B( 28-C , 30-H ) :   0.9719 B( 28-C , 31-H ) :   0.9742

Dispersion correction           -0.015154489
FINAL SINGLE POINT ENERGY     -1339.871993175916

DIPOLE MOMENT
-------------
                                X             Y             Z
Electronic contribution:    -13.07285      11.66200     -18.67386
Nuclear contribution   :     13.40118     -11.63686      19.20307
                        -----------------------------------------
Total Dipole Moment    :      0.32833       0.02514       0.52921
                        -----------------------------------------
Magnitude (a.u.)       :      0.62329
Magnitude (Debye)      :      1.58429

Rotational constants in cm-1:     0.019153     0.009104     0.007397
Rotational constants in MHz :   574.183151   272.934527   221.761348

                             ****ORCA TERMINATED NORMALLY****
TOTAL RUN TIME: 0 days 0 hours 0 minutes 36 seconds 626 msec
