                         Program Version 4.2.1 -  RELEASE  -
|  1> ! wB97X-D3 SP def2-SVP
|  2> %pal
|  3> nprocs 16
|  4> end
|  5>
|  6> * xyz 0 1
|  7> S 	 -15.5371 	 -6.50089 	 83.755
|  8> C 	 -16.1168 	 -8.11065 	 83.7255
|  9> C 	 -17.4592 	 -8.15115 	 83.9477
| 10> C 	 -18.0411 	 -6.87913 	 84.2567
| 11> C 	 -17.0912 	 -5.87295 	 84.2724
| 12> H 	 -18.9895 	 -6.66984 	 84.5794
| 13> C 	 -18.3984 	 -9.37048 	 83.8545
| 14> H 	 -18.6611 	 -9.53747 	 84.9323
| 15> H 	 -17.8907 	 -10.2336 	 83.4419
| 16> C 	 -19.7071 	 -9.12827 	 82.9654
| 17> H 	 -20.3926 	 -9.90658 	 83.0271
| 18> H 	 -20.3686 	 -8.34646 	 83.4147
| 19> C 	 -19.3316 	 -8.75898 	 81.5403
| 20> H 	 -18.6098 	 -7.90324 	 81.4586
| 21> H 	 -18.8383 	 -9.74762 	 81.1691
| 22> H 	 -20.2067 	 -8.40287 	 81.0111
| 23> S 	 -18.8633 	 -3.78681 	 84.088
| 24> C 	 -18.5808 	 -2.20484 	 84.7188
| 25> C 	 -17.372 	 -2.2373 	 85.3975
| 26> C 	 -16.6594 	 -3.47268 	 85.3725
| 27> C 	 -17.3631 	 -4.47601 	 84.6899
| 28> H 	 -17.1938 	 -1.36658 	 86.0314
| 29> C 	 -15.3323 	 -3.71363 	 86.0998
| 30> H 	 -14.8561 	 -2.72877 	 86.1519
| 31> H 	 -14.6276 	 -4.38935 	 85.5741
| 32> C 	 -15.4656 	 -4.30295 	 87.5413
| 33> H 	 -15.9429 	 -5.28776 	 87.5564
| 34> H 	 -16.0006 	 -3.65575 	 88.2347
| 35> C 	 -14.0754 	 -4.5028 	 88.1541
| 36> H 	 -13.4635 	 -3.55299 	 88.1661
| 37> H 	 -13.475 	 -5.27031 	 87.6028
| 38> H 	 -14.2115 	 -4.89561 	 89.1539
| 39> H 	 -15.4516 	 -9.02099 	 83.5939
| 40> H 	 -19.1855 	 -1.36384 	 84.7817
| 41> *
| 42>
| 43>                          ****END OF INPUT****

CARTESIAN COORDINATES (ANGSTROEM)
---------------------------------
  S    -15.537100   -6.500890   83.755000
  C    -16.116800   -8.110650   83.725500
  C    -17.459200   -8.151150   83.947700
  C    -18.041100   -6.879130   84.256700
  C    -17.091200   -5.872950   84.272400
  H    -18.989500   -6.669840   84.579400
  C    -18.398400   -9.370480   83.854500
  H    -18.661100   -9.537470   84.932300
  H    -17.890700  -10.233600   83.441900
  C    -19.707100   -9.128270   82.965400
  H    -20.392600   -9.906580   83.027100
  H    -20.368600   -8.346460   83.414700
  C    -19.331600   -8.758980   81.540300
  H    -18.609800   -7.903240   81.458600
  H    -18.838300   -9.747620   81.169100
  H    -20.206700   -8.402870   81.011100
  S    -18.863300   -3.786810   84.088000
  C    -18.580800   -2.204840   84.718800
  C    -17.372000   -2.237300   85.397500
  C    -16.659400   -3.472680   85.372500
  C    -17.363100   -4.476010   84.689900
  H    -17.193800   -1.366580   86.031400
  C    -15.332300   -3.713630   86.099800
  H    -14.856100   -2.728770   86.151900
  H    -14.627600   -4.389350   85.574100
  C    -15.465600   -4.302950   87.541300
  H    -15.942900   -5.287760   87.556400
  H    -16.000600   -3.655750   88.234700
  C    -14.075400   -4.502800   88.154100
  H    -13.463500   -3.552990   88.166100
  H    -13.475000   -5.270310   87.602800
  H    -14.211500   -4.895610   89.153900
  H    -15.451600   -9.020990   83.593900
  H    -19.185500   -1.363840   84.781700

 Total Charge           Charge          ....    0
 Multiplicity           Mult            ....    1
 Number of Electrons    NEL             ....  134
 Basis Dimension        Dim             ....  322

ORBITAL ENERGIES
----------------

  NO   OCC          E(Eh)            E(eV)
   0   2.0000     -88.967756     -2420.9357
   1   2.0000     -88.965356     -2420.8704
   2   2.0000     -10.334301      -281.2106
   3   2.0000     -10.332102      -281.1508
   4   2.0000     -10.315256      -280.6924
   5   2.0000     -10.313127      -280.6345
   6   2.0000     -10.307385      -280.4782
   7   2.0000     -10.301109      -280.3074
   8   2.0000     -10.299790      -280.2715
   9   2.0000     -10.295076      -280.1433
  10   2.0000     -10.294119      -280.1172
  11   2.0000     -10.288186      -279.9558
  12   2.0000     -10.287201      -279.9290
  13   2.0000     -10.285008      -279.8693
  14   2.0000     -10.283725      -279.8344
  15   2.0000     -10.279562      -279.7211
  16   2.0000      -8.082790      -219.9439
  17   2.0000      -8.080032      -219.8689
  18   2.0000      -6.041381      -164.3943
  19   2.0000      -6.038610      -164.3189
  20   2.0000      -6.037224      -164.2812
  21   2.0000      -6.034276      -164.2010
  22   2.0000      -6.033479      -164.1793
  23   2.0000      -6.030985      -164.1114
  24   2.0000      -1.009215       -27.4621
  25   2.0000      -0.988888       -26.9090
  26   2.0000      -0.904619       -24.6159
  27   2.0000      -0.902235       -24.5511
  28   2.0000      -0.872586       -23.7443
  29   2.0000      -0.850757       -23.1503
  30   2.0000      -0.844540       -22.9811
  31   2.0000      -0.815194       -22.1826
  32   2.0000      -0.775517       -21.1029
  33   2.0000      -0.766982       -20.8707
  34   2.0000      -0.708362       -19.2755
  35   2.0000      -0.695667       -18.9301
  36   2.0000      -0.688503       -18.7351
  37   2.0000      -0.665110       -18.0986
  38   2.0000      -0.644531       -17.5386
  39   2.0000      -0.616607       -16.7787
  40   2.0000      -0.593518       -16.1505
  41   2.0000      -0.568897       -15.4805
  42   2.0000      -0.560985       -15.2652
  43   2.0000      -0.553442       -15.0599
  44   2.0000      -0.536484       -14.5985
  45   2.0000      -0.521174       -14.1819
  46   2.0000      -0.519223       -14.1288
  47   2.0000      -0.511750       -13.9254
  48   2.0000      -0.506178       -13.7738
  49   2.0000      -0.495119       -13.4729
  50   2.0000      -0.489346       -13.3158
  51   2.0000      -0.480086       -13.0638
  52   2.0000      -0.470121       -12.7926
  53   2.0000      -0.467379       -12.7180
  54   2.0000      -0.458532       -12.4773
  55   2.0000      -0.448032       -12.1916
  56   2.0000      -0.436472       -11.8770
  57   2.0000      -0.434179       -11.8146
  58   2.0000      -0.426838       -11.6149
  59   2.0000      -0.425364       -11.5747
  60   2.0000      -0.421605       -11.4725
  61   2.0000      -0.411396       -11.1947
  62   2.0000      -0.408445       -11.1144
  63   2.0000      -0.354866        -9.6564
  64   2.0000      -0.329146        -8.9565
  65   2.0000      -0.328891        -8.9496
  66   2.0000      -0.291685        -7.9372
  67   0.0000       0.024372         0.6632
  68   0.0000       0.082852         2.2545
  69   0.0000       0.113431         3.0866
  70   0.0000       0.123450         3.3593
  71   0.0000       0.130818         3.5597

MULLIKEN ATOMIC CHARGES
-----------------------
   0 S :    0.116818
   1 C :   -0.158463
   2 C :   -0.078251
   3 C :    0.028596
   4 C :   -0.105837
   5 H :   -0.018042
   6 C :    0.060294
   7 H :    0.049461
   8 H :    0.017407
   9 C :   -0.065356
  10 H :    0.013778
  11 H :    0.018806
  12 C :   -0.074315
  13 H :    0.058479
  14 H :    0.043710
  15 H :    0.039181
  16 S :    0.096544
  17 C :   -0.056688
  18 C :   -0.070036
  19 C :   -0.017878
  20 C :   -0.153831
  21 H :    0.024179
  22 C :    0.040103
  23 H :    0.021741
  24 H :    0.030172
  25 C :   -0.059909
  26 H :    0.038375
  27 H :    0.026490
  28 C :   -0.078390
  29 H :    0.037184
  30 H :    0.035624
  31 H :    0.034161
  32 H :    0.073241
  33 H :    0.032654
Sum of atomic charges:    0.0000000

LOEWDIN ATOMIC CHARGES
----------------------
   0 S :    0.420472
   1 C :   -0.223205
   2 C :   -0.067579
   3 C :   -0.054877
   4 C :   -0.185858
   5 H :    0.013186
   6 C :   -0.026818
   7 H :    0.039239
   8 H :    0.022836
   9 C :   -0.044470
  10 H :    0.014911
  11 H :    0.022567
  12 C :   -0.072057
  13 H :    0.034050
  14 H :    0.036815
  15 H :    0.025793
  16 S :    0.421194
  17 C :   -0.188544
  18 C :   -0.076072
  19 C :   -0.061910
  20 C :   -0.190774
  21 H :    0.032780
  22 C :   -0.034719
  23 H :    0.030779
  24 H :    0.026613
  25 C :   -0.037685
  26 H :    0.028364
  27 H :    0.021927
  28 C :   -0.072362
  29 H :    0.027463
  30 H :    0.026044
  31 H :    0.024148
  32 H :    0.045938
  33 H :    0.021813

  Mayer bond orders larger than 0.100000
B(  0-S ,  1-C ) :   1.1343 B(  0-S ,  4-C ) :   1.1512 B(  1-C ,  2-C ) :   1.6291
B(  1-C , 32-H ) :   0.9575 B(  2-C ,  3-C ) :   1.2243 B(  2-C ,  6-C ) :   1.0105
B(  3-C ,  4-C ) :   1.5559 B(  3-C ,  5-H ) :   1.0110 B(  4-C , 20-C ) :   1.0402
B(  6-C ,  7-H ) :   0.9399 B(  6-C ,  8-H ) :   0.9511 B(  6-C ,  9-C ) :   1.0623
B(  9-C , 10-H ) :   0.9578 B(  9-C , 11-H ) :   0.9493 B(  9-C , 12-C ) :   1.0663
B( 12-C , 13-H ) :   0.9731 B( 12-C , 14-H ) :   0.9753 B( 12-C , 15-H ) :   0.9726
B( 16-S , 17-C ) :   1.1612 B( 16-S , 20-C ) :   1.1523 B( 17-C , 18-C ) :   1.5992
B( 17-C , 20-C ) :   0.1033 B( 17-C , 33-H ) :   0.9731 B( 18-C , 19-C ) :   1.2637
B( 18-C , 21-H ) :   0.9840 B( 19-C , 20-C ) :   1.5558 B( 19-C , 22-C ) :   1.0429
B( 22-C , 23-H ) :   0.9319 B( 22-C , 24-H ) :   0.9413 B( 22-C , 25-C ) :   1.0649
B( 25-C , 26-H ) :   0.9547 B( 25-C , 27-H ) :   0.9553 B( 25-C , 28-C ) :   1.0854
B( 28-C , 29-H ) :   0.9741 B( 28-C , 30-H ) :   0.9743 B( 28-C , 31-H ) :   0.9731

Dispersion correction           -0.014515251
FINAL SINGLE POINT ENERGY     -1339.876987665743

DIPOLE MOMENT
-------------
                                X             Y             Z
Electronic contribution:     -1.38479       9.57605      -7.01555
Nuclear contribution   :      1.23211      -9.73882       7.40219
                        -----------------------------------------
Total Dipole Moment    :     -0.15268      -0.16278       0.38664
                        -----------------------------------------
Magnitude (a.u.)       :      0.44643
Magnitude (Debye)      :      1.13473

Rotational constants in cm-1:     0.019711     0.008895     0.006846
Rotational constants in MHz :   590.930056   266.675994   205.229617

                             ****ORCA TERMINATED NORMALLY****
TOTAL RUN TIME: 0 days 0 hours 0 minutes 34 seconds 748 msec
