                         Program Version 4.2.1 -  RELEASE  -
|  1> ! wB97X-D3 SP def2-SVP
|  2> %pal
|  3> nprocs 16
|  4> end
|  5>
|  6> * xyz 0 1
|  7> S 	 -63.1295 	 40.7712 	 134.355
|  8> C 	 -63.0402 	 39.6715 	 135.721
|  9> C 	 -63.5215 	 38.3913 	 135.485
| 10> C 	 -63.8304 	 38.2497 	 134.096
| 11> C 	 -63.5879 	 39.3941 	 133.349
| 12> H 	 -64.1922 	 37.3022 	 133.687
| 13> C 	 -63.7378 	 37.2862 	 136.568
| 14> H 	 -63.5344 	 37.6426 	 137.553
| 15> H 	 -63.0049 	 36.5289 	 136.217
| 16> C 	 -65.04 	 36.4566 	 136.513
| 17> H 	 -65.2542 	 36.1518 	 135.452
| 18> H 	 -64.7616 	 35.663 	 137.109
| 19> C 	 -66.2952 	 37.0784 	 137.065
| 20> H 	 -67.2366 	 36.5925 	 136.795
| 21> H 	 -66.243 	 36.9372 	 138.138
| 22> H 	 -66.3772 	 38.1208 	 136.767
| 23> S 	 -65.3935 	 40.238 	 131.421
| 24> C 	 -65.0984 	 39.8486 	 129.784
| 25> C 	 -63.8303 	 39.4257 	 129.612
| 26> C 	 -63.1337 	 39.2571 	 130.863
| 27> C 	 -63.8937 	 39.5623 	 131.893
| 28> H 	 -63.5993 	 39.2832 	 128.581
| 29> C 	 -61.7879 	 38.4986 	 130.89
| 30> H 	 -62.0104 	 37.6039 	 130.246
| 31> H 	 -61.7664 	 38.0964 	 131.899
| 32> C 	 -60.6203 	 39.2912 	 130.429
| 33> H 	 -60.9631 	 39.7468 	 129.45
| 34> H 	 -59.8375 	 38.6374 	 130.106
| 35> C 	 -60.2149 	 40.3755 	 131.501
| 36> H 	 -60.9471 	 41.0147 	 131.85
| 37> H 	 -59.4245 	 40.9956 	 131.022
| 38> H 	 -59.7185 	 39.9979 	 132.418
| 39> H 	 -62.7458 	 40.036 	 136.675
| 40> H 	 -65.6663 	 40.2101 	 128.945
| 41> *
| 42>
| 43>                          ****END OF INPUT****

CARTESIAN COORDINATES (ANGSTROEM)
---------------------------------
  S    -63.129500   40.771200  134.355000
  C    -63.040200   39.671500  135.721000
  C    -63.521500   38.391300  135.485000
  C    -63.830400   38.249700  134.096000
  C    -63.587900   39.394100  133.349000
  H    -64.192200   37.302200  133.687000
  C    -63.737800   37.286200  136.568000
  H    -63.534400   37.642600  137.553000
  H    -63.004900   36.528900  136.217000
  C    -65.040000   36.456600  136.513000
  H    -65.254200   36.151800  135.452000
  H    -64.761600   35.663000  137.109000
  C    -66.295200   37.078400  137.065000
  H    -67.236600   36.592500  136.795000
  H    -66.243000   36.937200  138.138000
  H    -66.377200   38.120800  136.767000
  S    -65.393500   40.238000  131.421000
  C    -65.098400   39.848600  129.784000
  C    -63.830300   39.425700  129.612000
  C    -63.133700   39.257100  130.863000
  C    -63.893700   39.562300  131.893000
  H    -63.599300   39.283200  128.581000
  C    -61.787900   38.498600  130.890000
  H    -62.010400   37.603900  130.246000
  H    -61.766400   38.096400  131.899000
  C    -60.620300   39.291200  130.429000
  H    -60.963100   39.746800  129.450000
  H    -59.837500   38.637400  130.106000
  C    -60.214900   40.375500  131.501000
  H    -60.947100   41.014700  131.850000
  H    -59.424500   40.995600  131.022000
  H    -59.718500   39.997900  132.418000
  H    -62.745800   40.036000  136.675000
  H    -65.666300   40.210100  128.945000

 Total Charge           Charge          ....    0
 Multiplicity           Mult            ....    1
 Number of Electrons    NEL             ....  134
 Basis Dimension        Dim             ....  322

ORBITAL ENERGIES
----------------

  NO   OCC          E(Eh)            E(eV)
   0   2.0000     -88.969236     -2420.9760
   1   2.0000     -88.955812     -2420.6107
   2   2.0000     -10.331720      -281.1404
   3   2.0000     -10.314113      -280.6613
   4   2.0000     -10.311864      -280.6001
   5   2.0000     -10.304503      -280.3998
   6   2.0000     -10.304310      -280.3945
   7   2.0000     -10.300019      -280.2778
   8   2.0000     -10.298248      -280.2296
   9   2.0000     -10.292353      -280.0692
  10   2.0000     -10.287807      -279.9455
  11   2.0000     -10.285566      -279.8845
  12   2.0000     -10.284806      -279.8638
  13   2.0000     -10.283518      -279.8287
  14   2.0000     -10.272740      -279.5355
  15   2.0000     -10.272640      -279.5327
  16   2.0000      -8.083366      -219.9596
  17   2.0000      -8.072705      -219.6695
  18   2.0000      -6.041779      -164.4052
  19   2.0000      -6.038142      -164.3062
  20   2.0000      -6.034104      -164.1963
  21   2.0000      -6.031133      -164.1155
  22   2.0000      -6.027035      -164.0039
  23   2.0000      -6.023298      -163.9023
  24   2.0000      -1.013914       -27.5900
  25   2.0000      -0.986260       -26.8375
  26   2.0000      -0.912875       -24.8406
  27   2.0000      -0.906867       -24.6771
  28   2.0000      -0.868765       -23.6403
  29   2.0000      -0.849827       -23.1250
  30   2.0000      -0.841408       -22.8959
  31   2.0000      -0.816147       -22.2085
  32   2.0000      -0.785978       -21.3875
  33   2.0000      -0.776066       -21.1178
  34   2.0000      -0.706288       -19.2191
  35   2.0000      -0.698773       -19.0146
  36   2.0000      -0.689449       -18.7609
  37   2.0000      -0.655751       -17.8439
  38   2.0000      -0.638741       -17.3810
  39   2.0000      -0.626256       -17.0413
  40   2.0000      -0.590439       -16.0667
  41   2.0000      -0.571735       -15.5577
  42   2.0000      -0.552088       -15.0231
  43   2.0000      -0.549766       -14.9599
  44   2.0000      -0.547771       -14.9056
  45   2.0000      -0.531477       -14.4622
  46   2.0000      -0.514166       -13.9912
  47   2.0000      -0.511689       -13.9238
  48   2.0000      -0.501626       -13.6499
  49   2.0000      -0.494367       -13.4524
  50   2.0000      -0.489326       -13.3152
  51   2.0000      -0.473806       -12.8929
  52   2.0000      -0.472627       -12.8608
  53   2.0000      -0.467938       -12.7332
  54   2.0000      -0.456185       -12.4134
  55   2.0000      -0.453433       -12.3385
  56   2.0000      -0.446369       -12.1463
  57   2.0000      -0.436435       -11.8760
  58   2.0000      -0.426646       -11.6096
  59   2.0000      -0.422592       -11.4993
  60   2.0000      -0.418424       -11.3859
  61   2.0000      -0.415574       -11.3084
  62   2.0000      -0.405303       -11.0289
  63   2.0000      -0.336870        -9.1667
  64   2.0000      -0.329376        -8.9628
  65   2.0000      -0.324499        -8.8301
  66   2.0000      -0.310426        -8.4471
  67   0.0000       0.048335         1.3153
  68   0.0000       0.065005         1.7689
  69   0.0000       0.109556         2.9812
  70   0.0000       0.125405         3.4124
  71   0.0000       0.130296         3.5455

MULLIKEN ATOMIC CHARGES
-----------------------
   0 S :    0.117339
   1 C :   -0.127719
   2 C :   -0.080681
   3 C :    0.035300
   4 C :   -0.175304
   5 H :    0.019279
   6 C :    0.078011
   7 H :    0.017001
   8 H :    0.042986
   9 C :   -0.073494
  10 H :    0.034762
  11 H :    0.016891
  12 C :   -0.034767
  13 H :    0.031924
  14 H :    0.020982
  15 H :    0.042402
  16 S :    0.108701
  17 C :   -0.089267
  18 C :   -0.046185
  19 C :   -0.022074
  20 C :   -0.184201
  21 H :    0.007398
  22 C :    0.063303
  23 H :    0.032802
  24 H :    0.018188
  25 C :   -0.031332
  26 H :    0.026243
  27 H :    0.024332
  28 C :   -0.037949
  29 H :    0.020332
  30 H :    0.029532
  31 H :    0.034756
  32 H :    0.028881
  33 H :    0.051630
Sum of atomic charges:   -0.0000000

LOEWDIN ATOMIC CHARGES
----------------------
   0 S :    0.400304
   1 C :   -0.191083
   2 C :   -0.063369
   3 C :   -0.058138
   4 C :   -0.186366
   5 H :    0.033196
   6 C :   -0.020694
   7 H :    0.024284
   8 H :    0.043544
   9 C :   -0.038866
  10 H :    0.028225
  11 H :    0.016885
  12 C :   -0.067959
  13 H :    0.028088
  14 H :    0.023995
  15 H :    0.028413
  16 S :    0.419213
  17 C :   -0.194588
  18 C :   -0.073307
  19 C :   -0.059739
  20 C :   -0.216426
  21 H :    0.028470
  22 C :   -0.032411
  23 H :    0.035335
  24 H :    0.025001
  25 C :   -0.039607
  26 H :    0.030723
  27 H :    0.022717
  28 C :   -0.061567
  29 H :    0.011082
  30 H :    0.029461
  31 H :    0.030952
  32 H :    0.015174
  33 H :    0.029059

  Mayer bond orders larger than 0.100000
B(  0-S ,  1-C ) :   1.1415 B(  0-S ,  4-C ) :   1.1544 B(  1-C ,  2-C ) :   1.6208
B(  1-C , 32-H ) :   0.9700 B(  2-C ,  3-C ) :   1.2374 B(  2-C ,  6-C ) :   1.0084
B(  3-C ,  4-C ) :   1.5994 B(  3-C ,  5-H ) :   0.9875 B(  4-C , 20-C ) :   0.9805
B(  6-C ,  7-H ) :   0.9487 B(  6-C ,  8-H ) :   0.9335 B(  6-C ,  9-C ) :   1.0724
B(  9-C , 10-H ) :   0.9527 B(  9-C , 11-H ) :   0.9581 B(  9-C , 12-C ) :   1.0770
B( 12-C , 13-H ) :   0.9737 B( 12-C , 14-H ) :   0.9751 B( 12-C , 15-H ) :   0.9780
B( 16-S , 17-C ) :   1.1472 B( 16-S , 20-C ) :   1.1424 B( 17-C , 18-C ) :   1.6730
B( 17-C , 33-H ) :   0.9606 B( 18-C , 19-C ) :   1.1829 B( 18-C , 21-H ) :   0.9961
B( 19-C , 20-C ) :   1.6757 B( 19-C , 22-C ) :   1.0117 B( 22-C , 23-H ) :   0.9424
B( 22-C , 24-H ) :   0.9348 B( 22-C , 25-C ) :   1.0726 B( 25-C , 26-H ) :   0.9560
B( 25-C , 27-H ) :   0.9532 B( 25-C , 28-C ) :   1.0571 B( 28-C , 29-H ) :   0.9787
B( 28-C , 30-H ) :   0.9753 B( 28-C , 31-H ) :   0.9762

Dispersion correction           -0.014941243
FINAL SINGLE POINT ENERGY     -1339.863393381283

DIPOLE MOMENT
-------------
                                X             Y             Z
Electronic contribution:     -7.07206      13.42096      -6.71626
Nuclear contribution   :      7.19771     -13.93390       6.81675
                        -----------------------------------------
Total Dipole Moment    :      0.12565      -0.51294       0.10049
                        -----------------------------------------
Magnitude (a.u.)       :      0.53758
Magnitude (Debye)      :      1.36643

Rotational constants in cm-1:     0.020357     0.008419     0.007328
Rotational constants in MHz :   610.276520   252.407170   219.699961

                             ****ORCA TERMINATED NORMALLY****
TOTAL RUN TIME: 0 days 0 hours 0 minutes 35 seconds 141 msec
