                         Program Version 4.2.1 -  RELEASE  -
|  1> ! wB97X-D3 SP def2-SVP
|  2> %pal
|  3> nprocs 16
|  4> end
|  5>
|  6> * xyz 0 1
|  7> S 	 53.0135 	 21.7006 	 91.9873
|  8> C 	 51.7049 	 21.6662 	 93.1144
|  9> C 	 52.2275 	 21.4564 	 94.4217
| 10> C 	 53.6479 	 21.3478 	 94.3938
| 11> C 	 54.2635 	 21.5638 	 93.1651
| 12> H 	 54.3136 	 21.1227 	 95.2097
| 13> C 	 51.4501 	 21.398 	 95.6692
| 14> H 	 51.7384 	 20.5348 	 96.2437
| 15> H 	 50.4409 	 21.2012 	 95.3794
| 16> C 	 51.6603 	 22.7116 	 96.6443
| 17> H 	 50.9136 	 22.6951 	 97.4413
| 18> H 	 52.5656 	 22.7711 	 97.1535
| 19> C 	 51.3041 	 23.9495 	 95.7717
| 20> H 	 50.4622 	 23.8126 	 95.1637
| 21> H 	 51.1058 	 24.8315 	 96.2959
| 22> H 	 52.1382 	 24.1811 	 95.0753
| 23> S 	 56.4646 	 23.0386 	 92.2722
| 24> C 	 58.0267 	 22.2837 	 91.9832
| 25> C 	 57.9076 	 20.8797 	 92.1656
| 26> C 	 56.621 	 20.4695 	 92.6372
| 27> C 	 55.7188 	 21.5369 	 92.7436
| 28> H 	 58.8592 	 20.344 	 92.0411
| 29> C 	 56.3561 	 19.0264 	 92.9539
| 30> H 	 55.3416 	 19.0456 	 93.4063
| 31> H 	 57.1498 	 18.9088 	 93.6833
| 32> C 	 56.6375 	 18.0122 	 91.7859
| 33> H 	 57.7001 	 17.9209 	 91.6049
| 34> H 	 56.1135 	 18.3226 	 90.8562
| 35> C 	 56.2576 	 16.5984 	 92.177
| 36> H 	 56.4493 	 15.7434 	 91.6659
| 37> H 	 55.2038 	 16.5992 	 92.3793
| 38> H 	 56.7185 	 16.3475 	 93.0857
| 39> H 	 50.6376 	 21.6785 	 92.9771
| 40> H 	 58.9099 	 22.7803 	 91.611
| 41> *
| 42>
| 43>                          ****END OF INPUT****

CARTESIAN COORDINATES (ANGSTROEM)
---------------------------------
  S     53.013500   21.700600   91.987300
  C     51.704900   21.666200   93.114400
  C     52.227500   21.456400   94.421700
  C     53.647900   21.347800   94.393800
  C     54.263500   21.563800   93.165100
  H     54.313600   21.122700   95.209700
  C     51.450100   21.398000   95.669200
  H     51.738400   20.534800   96.243700
  H     50.440900   21.201200   95.379400
  C     51.660300   22.711600   96.644300
  H     50.913600   22.695100   97.441300
  H     52.565600   22.771100   97.153500
  C     51.304100   23.949500   95.771700
  H     50.462200   23.812600   95.163700
  H     51.105800   24.831500   96.295900
  H     52.138200   24.181100   95.075300
  S     56.464600   23.038600   92.272200
  C     58.026700   22.283700   91.983200
  C     57.907600   20.879700   92.165600
  C     56.621000   20.469500   92.637200
  C     55.718800   21.536900   92.743600
  H     58.859200   20.344000   92.041100
  C     56.356100   19.026400   92.953900
  H     55.341600   19.045600   93.406300
  H     57.149800   18.908800   93.683300
  C     56.637500   18.012200   91.785900
  H     57.700100   17.920900   91.604900
  H     56.113500   18.322600   90.856200
  C     56.257600   16.598400   92.177000
  H     56.449300   15.743400   91.665900
  H     55.203800   16.599200   92.379300
  H     56.718500   16.347500   93.085700
  H     50.637600   21.678500   92.977100
  H     58.909900   22.780300   91.611000

 Total Charge           Charge          ....    0
 Multiplicity           Mult            ....    1
 Number of Electrons    NEL             ....  134
 Basis Dimension        Dim             ....  322

ORBITAL ENERGIES
----------------

  NO   OCC          E(Eh)            E(eV)
   0   2.0000     -88.966539     -2420.9026
   1   2.0000     -88.965747     -2420.8810
   2   2.0000     -10.331867      -281.1444
   3   2.0000     -10.331757      -281.1414
   4   2.0000     -10.322447      -280.8881
   5   2.0000     -10.315988      -280.7123
   6   2.0000     -10.307230      -280.4740
   7   2.0000     -10.300641      -280.2947
   8   2.0000     -10.298871      -280.2465
   9   2.0000     -10.294355      -280.1236
  10   2.0000     -10.292599      -280.0759
  11   2.0000     -10.292285      -280.0673
  12   2.0000     -10.291596      -280.0486
  13   2.0000     -10.291476      -280.0453
  14   2.0000     -10.265092      -279.3274
  15   2.0000     -10.260115      -279.1919
  16   2.0000      -8.080983      -219.8947
  17   2.0000      -8.080842      -219.8909
  18   2.0000      -6.039467      -164.3422
  19   2.0000      -6.039318      -164.3382
  20   2.0000      -6.035347      -164.2301
  21   2.0000      -6.034941      -164.2191
  22   2.0000      -6.031976      -164.1384
  23   2.0000      -6.031967      -164.1382
  24   2.0000      -1.004236       -27.3266
  25   2.0000      -0.983891       -26.7730
  26   2.0000      -0.909650       -24.7528
  27   2.0000      -0.905142       -24.6302
  28   2.0000      -0.860129       -23.4053
  29   2.0000      -0.856121       -23.2962
  30   2.0000      -0.843665       -22.9573
  31   2.0000      -0.815246       -22.1840
  32   2.0000      -0.781495       -21.2656
  33   2.0000      -0.770704       -20.9719
  34   2.0000      -0.715342       -19.4654
  35   2.0000      -0.707584       -19.2543
  36   2.0000      -0.693237       -18.8639
  37   2.0000      -0.657331       -17.8869
  38   2.0000      -0.642669       -17.4879
  39   2.0000      -0.617762       -16.8102
  40   2.0000      -0.587381       -15.9835
  41   2.0000      -0.570381       -15.5208
  42   2.0000      -0.567634       -15.4461
  43   2.0000      -0.548046       -14.9131
  44   2.0000      -0.538206       -14.6453
  45   2.0000      -0.530148       -14.4261
  46   2.0000      -0.519556       -14.1378
  47   2.0000      -0.516294       -14.0491
  48   2.0000      -0.505426       -13.7533
  49   2.0000      -0.501279       -13.6405
  50   2.0000      -0.482042       -13.1170
  51   2.0000      -0.478343       -13.0164
  52   2.0000      -0.468928       -12.7602
  53   2.0000      -0.464956       -12.6521
  54   2.0000      -0.459223       -12.4961
  55   2.0000      -0.448528       -12.2051
  56   2.0000      -0.444632       -12.0990
  57   2.0000      -0.429504       -11.6874
  58   2.0000      -0.426340       -11.6013
  59   2.0000      -0.425885       -11.5889
  60   2.0000      -0.423600       -11.5267
  61   2.0000      -0.419299       -11.4097
  62   2.0000      -0.415522       -11.3069
  63   2.0000      -0.334898        -9.1130
  64   2.0000      -0.326438        -8.8828
  65   2.0000      -0.324012        -8.8168
  66   2.0000      -0.303966        -8.2713
  67   0.0000       0.041846         1.1387
  68   0.0000       0.056523         1.5381
  69   0.0000       0.117886         3.2078
  70   0.0000       0.120232         3.2717
  71   0.0000       0.129076         3.5123

MULLIKEN ATOMIC CHARGES
-----------------------
   0 S :    0.126972
   1 C :   -0.096346
   2 C :   -0.135618
   3 C :    0.051835
   4 C :   -0.184365
   5 H :    0.003525
   6 C :    0.082523
   7 H :    0.026063
   8 H :    0.009921
   9 C :   -0.050004
  10 H :    0.027665
  11 H :    0.027550
  12 C :   -0.032119
  13 H :    0.008759
  14 H :    0.016217
  15 H :    0.045912
  16 S :    0.116565
  17 C :   -0.110340
  18 C :   -0.061050
  19 C :   -0.017792
  20 C :   -0.180587
  21 H :    0.032988
  22 C :    0.073044
  23 H :    0.038955
  24 H :    0.032433
  25 C :   -0.071652
  26 H :    0.026868
  27 H :    0.047765
  28 C :    0.017859
  29 H :    0.008833
  30 H :    0.015582
  31 H :   -0.003303
  32 H :    0.043339
  33 H :    0.062003
Sum of atomic charges:   -0.0000000

LOEWDIN ATOMIC CHARGES
----------------------
   0 S :    0.438530
   1 C :   -0.210692
   2 C :   -0.067500
   3 C :   -0.064559
   4 C :   -0.212241
   5 H :    0.028634
   6 C :   -0.027536
   7 H :    0.029995
   8 H :    0.025923
   9 C :   -0.021574
  10 H :    0.024168
  11 H :    0.015582
  12 C :   -0.062372
  13 H :    0.016277
  14 H :    0.015377
  15 H :    0.033211
  16 S :    0.415288
  17 C :   -0.183952
  18 C :   -0.077750
  19 C :   -0.053444
  20 C :   -0.219600
  21 H :    0.036211
  22 C :   -0.030332
  23 H :    0.036841
  24 H :    0.037478
  25 C :   -0.031127
  26 H :    0.023513
  27 H :    0.029865
  28 C :   -0.063201
  29 H :    0.013978
  30 H :    0.024692
  31 H :    0.020774
  32 H :    0.029674
  33 H :    0.029869

  Mayer bond orders larger than 0.100000
B(  0-S ,  1-C ) :   1.1660 B(  0-S ,  4-C ) :   1.1827 B(  1-C ,  2-C ) :   1.5494
B(  1-C ,  4-C ) :   0.1058 B(  1-C , 32-H ) :   0.9683 B(  2-C ,  3-C ) :   1.2589
B(  2-C ,  6-C ) :   1.0538 B(  3-C ,  4-C ) :   1.5584 B(  3-C ,  5-H ) :   1.0029
B(  4-C , 20-C ) :   0.9814 B(  6-C ,  7-H ) :   0.9371 B(  6-C ,  8-H ) :   0.9392
B(  6-C ,  9-C ) :   1.0473 B(  9-C , 10-H ) :   0.9622 B(  9-C , 11-H ) :   0.9640
B(  9-C , 12-C ) :   1.0680 B( 12-C , 13-H ) :   0.9771 B( 12-C , 14-H ) :   0.9752
B( 12-C , 15-H ) :   0.9717 B( 16-S , 17-C ) :   1.1727 B( 16-S , 20-C ) :   1.1565
B( 17-C , 18-C ) :   1.5912 B( 17-C , 20-C ) :   0.1047 B( 17-C , 33-H ) :   0.9690
B( 18-C , 19-C ) :   1.2402 B( 18-C , 21-H ) :   0.9877 B( 19-C , 20-C ) :   1.5764
B( 19-C , 22-C ) :   1.0326 B( 22-C , 23-H ) :   0.9363 B( 22-C , 24-H ) :   0.9236
B( 22-C , 25-C ) :   1.0610 B( 25-C , 26-H ) :   0.9494 B( 25-C , 27-H ) :   0.9634
B( 25-C , 28-C ) :   1.0831 B( 28-C , 29-H ) :   0.9746 B( 28-C , 30-H ) :   0.9730
B( 28-C , 31-H ) :   0.9637

Dispersion correction           -0.014367351
FINAL SINGLE POINT ENERGY     -1339.853364281503

DIPOLE MOMENT
-------------
                                X             Y             Z
Electronic contribution:      5.48109      12.63558     -12.28329
Nuclear contribution   :     -5.36571     -13.06569      12.67955
                        -----------------------------------------
Total Dipole Moment    :      0.11537      -0.43011       0.39626
                        -----------------------------------------
Magnitude (a.u.)       :      0.59609
Magnitude (Debye)      :      1.51515

Rotational constants in cm-1:     0.019611     0.007998     0.006689
Rotational constants in MHz :   587.911076   239.783381   200.543814

                             ****ORCA TERMINATED NORMALLY****
TOTAL RUN TIME: 0 days 0 hours 0 minutes 29 seconds 369 msec
