                         Program Version 4.2.1 -  RELEASE  -
|  1> ! wB97X-D3 SP def2-SVP
|  2> %pal
|  3> nprocs 16
|  4> end
|  5>
|  6> * xyz 0 1
|  7> S 	 -39.2716 	 30.7735 	 76.0174
|  8> C 	 -39.6071 	 32.5118 	 75.8143
|  9> C 	 -39.4672 	 33.122 	 77.0615
| 10> C 	 -38.9756 	 32.2337 	 78.1425
| 11> C 	 -38.9229 	 30.9129 	 77.6849
| 12> H 	 -38.7901 	 32.4637 	 79.1955
| 13> C 	 -39.9256 	 34.6023 	 77.3069
| 14> H 	 -39.8655 	 35.0978 	 76.4148
| 15> H 	 -39.2999 	 34.9614 	 78.0473
| 16> C 	 -41.3929 	 34.6145 	 77.7874
| 17> H 	 -41.9882 	 34.0584 	 77.049
| 18> H 	 -41.6017 	 34.2263 	 78.8394
| 19> C 	 -41.9324 	 35.9775 	 77.7812
| 20> H 	 -41.8956 	 36.5851 	 76.8593
| 21> H 	 -42.9518 	 35.9817 	 78.1642
| 22> H 	 -41.3718 	 36.5798 	 78.4439
| 23> S 	 -37.1143 	 28.92 	 77.6222
| 24> C 	 -36.8577 	 27.9922 	 79.1439
| 25> C 	 -37.7128 	 28.3401 	 80.1386
| 26> C 	 -38.6193 	 29.4066 	 79.7286
| 27> C 	 -38.4514 	 29.7759 	 78.4164
| 28> H 	 -37.6754 	 27.8744 	 81.1376
| 29> C 	 -39.584 	 29.9526 	 80.8137
| 30> H 	 -39.7075 	 31.0104 	 80.6574
| 31> H 	 -39.0056 	 29.8103 	 81.7208
| 32> C 	 -40.9821 	 29.2702 	 80.9173
| 33> H 	 -41.5739 	 29.4802 	 79.9646
| 34> H 	 -41.6048 	 29.8155 	 81.6023
| 35> C 	 -41.1502 	 27.79 	 81.1067
| 36> H 	 -40.8937 	 27.6372 	 82.191
| 37> H 	 -40.4962 	 27.2063 	 80.3865
| 38> H 	 -42.1962 	 27.5453 	 80.8903
| 39> H 	 -40.0906 	 32.9851 	 74.968
| 40> H 	 -36.1306 	 27.225 	 79.3403
| 41> *
| 42>
| 43>                          ****END OF INPUT****

CARTESIAN COORDINATES (ANGSTROEM)
---------------------------------
  S    -39.271600   30.773500   76.017400
  C    -39.607100   32.511800   75.814300
  C    -39.467200   33.122000   77.061500
  C    -38.975600   32.233700   78.142500
  C    -38.922900   30.912900   77.684900
  H    -38.790100   32.463700   79.195500
  C    -39.925600   34.602300   77.306900
  H    -39.865500   35.097800   76.414800
  H    -39.299900   34.961400   78.047300
  C    -41.392900   34.614500   77.787400
  H    -41.988200   34.058400   77.049000
  H    -41.601700   34.226300   78.839400
  C    -41.932400   35.977500   77.781200
  H    -41.895600   36.585100   76.859300
  H    -42.951800   35.981700   78.164200
  H    -41.371800   36.579800   78.443900
  S    -37.114300   28.920000   77.622200
  C    -36.857700   27.992200   79.143900
  C    -37.712800   28.340100   80.138600
  C    -38.619300   29.406600   79.728600
  C    -38.451400   29.775900   78.416400
  H    -37.675400   27.874400   81.137600
  C    -39.584000   29.952600   80.813700
  H    -39.707500   31.010400   80.657400
  H    -39.005600   29.810300   81.720800
  C    -40.982100   29.270200   80.917300
  H    -41.573900   29.480200   79.964600
  H    -41.604800   29.815500   81.602300
  C    -41.150200   27.790000   81.106700
  H    -40.893700   27.637200   82.191000
  H    -40.496200   27.206300   80.386500
  H    -42.196200   27.545300   80.890300
  H    -40.090600   32.985100   74.968000
  H    -36.130600   27.225000   79.340300

 Total Charge           Charge          ....    0
 Multiplicity           Mult            ....    1
 Number of Electrons    NEL             ....  134
 Basis Dimension        Dim             ....  322

ORBITAL ENERGIES
----------------

  NO   OCC          E(Eh)            E(eV)
   0   2.0000     -88.966574     -2420.9036
   1   2.0000     -88.964554     -2420.8486
   2   2.0000     -10.328212      -281.0449
   3   2.0000     -10.326181      -280.9897
   4   2.0000     -10.318004      -280.7672
   5   2.0000     -10.315371      -280.6955
   6   2.0000     -10.309952      -280.5481
   7   2.0000     -10.306670      -280.4588
   8   2.0000     -10.300778      -280.2984
   9   2.0000     -10.297489      -280.2089
  10   2.0000     -10.296402      -280.1793
  11   2.0000     -10.288262      -279.9578
  12   2.0000     -10.287023      -279.9241
  13   2.0000     -10.284913      -279.8667
  14   2.0000     -10.283747      -279.8350
  15   2.0000     -10.269370      -279.4438
  16   2.0000      -8.080247      -219.8747
  17   2.0000      -8.079507      -219.8546
  18   2.0000      -6.039028      -164.3303
  19   2.0000      -6.038114      -164.3054
  20   2.0000      -6.035031      -164.2215
  21   2.0000      -6.033898      -164.1907
  22   2.0000      -6.030610      -164.1012
  23   2.0000      -6.030226      -164.0908
  24   2.0000      -1.005302       -27.3557
  25   2.0000      -0.975941       -26.5567
  26   2.0000      -0.918382       -24.9904
  27   2.0000      -0.903504       -24.5856
  28   2.0000      -0.874141       -23.7866
  29   2.0000      -0.850314       -23.1382
  30   2.0000      -0.842806       -22.9339
  31   2.0000      -0.815461       -22.1898
  32   2.0000      -0.784803       -21.3556
  33   2.0000      -0.774385       -21.0721
  34   2.0000      -0.707130       -19.2420
  35   2.0000      -0.695943       -18.9376
  36   2.0000      -0.683807       -18.6073
  37   2.0000      -0.663940       -18.0667
  38   2.0000      -0.639827       -17.4106
  39   2.0000      -0.613689       -16.6993
  40   2.0000      -0.584099       -15.8941
  41   2.0000      -0.576885       -15.6978
  42   2.0000      -0.561197       -15.2709
  43   2.0000      -0.552213       -15.0265
  44   2.0000      -0.545943       -14.8559
  45   2.0000      -0.529977       -14.4214
  46   2.0000      -0.522473       -14.2172
  47   2.0000      -0.515858       -14.0372
  48   2.0000      -0.508617       -13.8402
  49   2.0000      -0.496872       -13.5206
  50   2.0000      -0.489383       -13.3168
  51   2.0000      -0.478855       -13.0303
  52   2.0000      -0.473761       -12.8917
  53   2.0000      -0.468744       -12.7552
  54   2.0000      -0.459048       -12.4913
  55   2.0000      -0.448019       -12.1912
  56   2.0000      -0.440931       -11.9983
  57   2.0000      -0.438654       -11.9364
  58   2.0000      -0.433282       -11.7902
  59   2.0000      -0.420923       -11.4539
  60   2.0000      -0.419549       -11.4165
  61   2.0000      -0.409463       -11.1421
  62   2.0000      -0.400777       -10.9057
  63   2.0000      -0.351615        -9.5679
  64   2.0000      -0.331169        -9.0116
  65   2.0000      -0.325877        -8.8676
  66   2.0000      -0.292716        -7.9652
  67   0.0000       0.029298         0.7972
  68   0.0000       0.071696         1.9510
  69   0.0000       0.100571         2.7367
  70   0.0000       0.113271         3.0823
  71   0.0000       0.132600         3.6082

MULLIKEN ATOMIC CHARGES
-----------------------
   0 S :    0.097504
   1 C :   -0.113583
   2 C :   -0.135676
   3 C :    0.031966
   4 C :   -0.158740
   5 H :    0.025369
   6 C :    0.146626
   7 H :   -0.000949
   8 H :    0.009958
   9 C :   -0.092440
  10 H :    0.028332
  11 H :    0.042013
  12 C :   -0.026518
  13 H :    0.026007
  14 H :    0.031437
  15 H :    0.002967
  16 S :    0.097542
  17 C :   -0.071243
  18 C :   -0.051024
  19 C :   -0.079555
  20 C :   -0.120929
  21 H :    0.034365
  22 C :    0.118874
  23 H :    0.012349
  24 H :    0.019768
  25 C :   -0.096384
  26 H :    0.026351
  27 H :    0.020468
  28 C :   -0.059965
  29 H :    0.035749
  30 H :    0.055704
  31 H :    0.041509
  32 H :    0.055429
  33 H :    0.046720
Sum of atomic charges:   -0.0000000

LOEWDIN ATOMIC CHARGES
----------------------
   0 S :    0.407031
   1 C :   -0.206811
   2 C :   -0.043867
   3 C :   -0.072333
   4 C :   -0.201543
   5 H :    0.032769
   6 C :   -0.008320
   7 H :    0.018404
   8 H :    0.020566
   9 C :   -0.042323
  10 H :    0.024813
  11 H :    0.035365
  12 C :   -0.071076
  13 H :    0.024526
  14 H :    0.027677
  15 H :    0.015539
  16 S :    0.373825
  17 C :   -0.164927
  18 C :   -0.073314
  19 C :   -0.053251
  20 C :   -0.191614
  21 H :    0.038385
  22 C :   -0.024159
  23 H :    0.026987
  24 H :    0.028263
  25 C :   -0.052318
  26 H :    0.030268
  27 H :    0.019905
  28 C :   -0.071545
  29 H :    0.027348
  30 H :    0.035090
  31 H :    0.031141
  32 H :    0.031336
  33 H :    0.028163

  Mayer bond orders larger than 0.100000
B(  0-S ,  1-C ) :   1.1053 B(  0-S ,  4-C ) :   1.1705 B(  1-C ,  2-C ) :   1.6324
B(  1-C , 32-H ) :   0.9697 B(  2-C ,  3-C ) :   1.2121 B(  2-C ,  6-C ) :   1.0319
B(  3-C ,  4-C ) :   1.5686 B(  3-C ,  5-H ) :   0.9844 B(  4-C , 20-C ) :   1.0336
B(  6-C ,  7-H ) :   0.9392 B(  6-C ,  8-H ) :   0.9336 B(  6-C ,  9-C ) :   1.0710
B(  9-C , 10-H ) :   0.9564 B(  9-C , 11-H ) :   0.9509 B(  9-C , 12-C ) :   1.0972
B( 12-C , 13-H ) :   0.9709 B( 12-C , 14-H ) :   0.9699 B( 12-C , 15-H ) :   0.9651
B( 16-S , 17-C ) :   1.1183 B( 16-S , 20-C ) :   1.1101 B( 17-C , 18-C ) :   1.6797
B( 17-C , 33-H ) :   0.9629 B( 18-C , 19-C ) :   1.1894 B( 18-C , 21-H ) :   0.9807
B( 19-C , 20-C ) :   1.6656 B( 19-C , 22-C ) :   1.0222 B( 22-C , 23-H ) :   0.9303
B( 22-C , 24-H ) :   0.9365 B( 22-C , 25-C ) :   1.0684 B( 25-C , 26-H ) :   0.9550
B( 25-C , 27-H ) :   0.9546 B( 25-C , 28-C ) :   1.0831 B( 28-C , 29-H ) :   0.9758
B( 28-C , 30-H ) :   0.9695 B( 28-C , 31-H ) :   0.9715

Dispersion correction           -0.014027253
FINAL SINGLE POINT ENERGY     -1339.862508741089

DIPOLE MOMENT
-------------
                                X             Y             Z
Electronic contribution:     18.93930     -13.54652     -15.61107
Nuclear contribution   :    -19.28685      13.93511      16.24636
                        -----------------------------------------
Total Dipole Moment    :     -0.34755       0.38859       0.63529
                        -----------------------------------------
Magnitude (a.u.)       :      0.82182
Magnitude (Debye)      :      2.08890

Rotational constants in cm-1:     0.019527     0.008270     0.006487
Rotational constants in MHz :   585.408371   247.924952   194.479186

                             ****ORCA TERMINATED NORMALLY****
TOTAL RUN TIME: 0 days 0 hours 0 minutes 29 seconds 959 msec
