                         Program Version 4.2.1 -  RELEASE  -
|  1> ! wB97X-D3 SP def2-SVP
|  2> %pal
|  3> nprocs 16
|  4> end
|  5>
|  6> * xyz 0 1
|  7> S 	 -29.5139 	 69.7087 	 159.315
|  8> C 	 -28.3779 	 70.9822 	 159.62
|  9> C 	 -28.997 	 72.171 	 159.736
| 10> C 	 -30.4015 	 72.1254 	 159.579
| 11> C 	 -30.8608 	 70.829 	 159.284
| 12> H 	 -31.1428 	 72.9037 	 159.766
| 13> C 	 -28.1927 	 73.4612 	 159.955
| 14> H 	 -28.132 	 73.6764 	 161.011
| 15> H 	 -28.707 	 74.2383 	 159.514
| 16> C 	 -26.7432 	 73.5028 	 159.459
| 17> H 	 -26.3212 	 74.3968 	 159.842
| 18> H 	 -26.1212 	 72.823 	 159.868
| 19> C 	 -26.7001 	 73.516 	 157.968
| 20> H 	 -25.6819 	 73.8293 	 157.661
| 21> H 	 -27.0349 	 72.5615 	 157.548
| 22> H 	 -27.3476 	 74.2882 	 157.574
| 23> S 	 -32.5285 	 68.9371 	 160.092
| 24> C 	 -34.241 	 69.1049 	 159.761
| 25> C 	 -34.439 	 70.1562 	 158.94
| 26> C 	 -33.2989 	 70.891 	 158.522
| 27> C 	 -32.1985 	 70.4097 	 159.192
| 28> H 	 -35.4475 	 70.3662 	 158.701
| 29> C 	 -33.3316 	 72.0824 	 157.562
| 30> H 	 -32.6251 	 72.8347 	 157.824
| 31> H 	 -34.3059 	 72.5417 	 157.69
| 32> C 	 -33.0058 	 71.6934 	 156.107
| 33> H 	 -33.3068 	 72.4515 	 155.422
| 34> H 	 -33.6349 	 70.8302 	 155.809
| 35> C 	 -31.5055 	 71.3156 	 155.907
| 36> H 	 -31.3814 	 70.3108 	 156.386
| 37> H 	 -30.8835 	 72.1224 	 156.337
| 38> H 	 -31.2275 	 71.2776 	 154.914
| 39> H 	 -27.2894 	 70.8065 	 159.82
| 40> H 	 -34.9317 	 68.6427 	 160.336
| 41> *
| 42>
| 43>                          ****END OF INPUT****

CARTESIAN COORDINATES (ANGSTROEM)
---------------------------------
  S    -29.513900   69.708700  159.315000
  C    -28.377900   70.982200  159.620000
  C    -28.997000   72.171000  159.736000
  C    -30.401500   72.125400  159.579000
  C    -30.860800   70.829000  159.284000
  H    -31.142800   72.903700  159.766000
  C    -28.192700   73.461200  159.955000
  H    -28.132000   73.676400  161.011000
  H    -28.707000   74.238300  159.514000
  C    -26.743200   73.502800  159.459000
  H    -26.321200   74.396800  159.842000
  H    -26.121200   72.823000  159.868000
  C    -26.700100   73.516000  157.968000
  H    -25.681900   73.829300  157.661000
  H    -27.034900   72.561500  157.548000
  H    -27.347600   74.288200  157.574000
  S    -32.528500   68.937100  160.092000
  C    -34.241000   69.104900  159.761000
  C    -34.439000   70.156200  158.940000
  C    -33.298900   70.891000  158.522000
  C    -32.198500   70.409700  159.192000
  H    -35.447500   70.366200  158.701000
  C    -33.331600   72.082400  157.562000
  H    -32.625100   72.834700  157.824000
  H    -34.305900   72.541700  157.690000
  C    -33.005800   71.693400  156.107000
  H    -33.306800   72.451500  155.422000
  H    -33.634900   70.830200  155.809000
  C    -31.505500   71.315600  155.907000
  H    -31.381400   70.310800  156.386000
  H    -30.883500   72.122400  156.337000
  H    -31.227500   71.277600  154.914000
  H    -27.289400   70.806500  159.820000
  H    -34.931700   68.642700  160.336000

 Total Charge           Charge          ....    0
 Multiplicity           Mult            ....    1
 Number of Electrons    NEL             ....  134
 Basis Dimension        Dim             ....  322

ORBITAL ENERGIES
----------------

  NO   OCC          E(Eh)            E(eV)
   0   2.0000     -88.964120     -2420.8368
   1   2.0000     -88.959757     -2420.7181
   2   2.0000     -10.326051      -280.9861
   3   2.0000     -10.322408      -280.8870
   4   2.0000     -10.308921      -280.5200
   5   2.0000     -10.305355      -280.4230
   6   2.0000     -10.303386      -280.3694
   7   2.0000     -10.295512      -280.1551
   8   2.0000     -10.293852      -280.1099
   9   2.0000     -10.291796      -280.0540
  10   2.0000     -10.288212      -279.9565
  11   2.0000     -10.283450      -279.8269
  12   2.0000     -10.281976      -279.7868
  13   2.0000     -10.272052      -279.5167
  14   2.0000     -10.271236      -279.4945
  15   2.0000     -10.270419      -279.4723
  16   2.0000      -8.079056      -219.8423
  17   2.0000      -8.075122      -219.7353
  18   2.0000      -6.037586      -164.2911
  19   2.0000      -6.033612      -164.1829
  20   2.0000      -6.033503      -164.1800
  21   2.0000      -6.029822      -164.0798
  22   2.0000      -6.029609      -164.0740
  23   2.0000      -6.025777      -163.9697
  24   2.0000      -1.013359       -27.5749
  25   2.0000      -0.987821       -26.8800
  26   2.0000      -0.919307       -25.0156
  27   2.0000      -0.906823       -24.6759
  28   2.0000      -0.878263       -23.8988
  29   2.0000      -0.851398       -23.1677
  30   2.0000      -0.843289       -22.9471
  31   2.0000      -0.813337       -22.1320
  32   2.0000      -0.784495       -21.3472
  33   2.0000      -0.776458       -21.1285
  34   2.0000      -0.712877       -19.3984
  35   2.0000      -0.709579       -19.3086
  36   2.0000      -0.696867       -18.9627
  37   2.0000      -0.668235       -18.1836
  38   2.0000      -0.637688       -17.3524
  39   2.0000      -0.612074       -16.6554
  40   2.0000      -0.601761       -16.3747
  41   2.0000      -0.578702       -15.7473
  42   2.0000      -0.560835       -15.2611
  43   2.0000      -0.555307       -15.1107
  44   2.0000      -0.545618       -14.8470
  45   2.0000      -0.530398       -14.4329
  46   2.0000      -0.519128       -14.1262
  47   2.0000      -0.514178       -13.9915
  48   2.0000      -0.501879       -13.6568
  49   2.0000      -0.498676       -13.5697
  50   2.0000      -0.490841       -13.3565
  51   2.0000      -0.481127       -13.0921
  52   2.0000      -0.478762       -13.0278
  53   2.0000      -0.466575       -12.6962
  54   2.0000      -0.454100       -12.3567
  55   2.0000      -0.448611       -12.2073
  56   2.0000      -0.442059       -12.0290
  57   2.0000      -0.440498       -11.9866
  58   2.0000      -0.431305       -11.7364
  59   2.0000      -0.422686       -11.5019
  60   2.0000      -0.420453       -11.4411
  61   2.0000      -0.415507       -11.3065
  62   2.0000      -0.411464       -11.1965
  63   2.0000      -0.354693        -9.6517
  64   2.0000      -0.332877        -9.0580
  65   2.0000      -0.329425        -8.9641
  66   2.0000      -0.285127        -7.7587
  67   0.0000       0.025346         0.6897
  68   0.0000       0.073783         2.0077
  69   0.0000       0.109331         2.9751
  70   0.0000       0.124155         3.3784
  71   0.0000       0.138545         3.7700

MULLIKEN ATOMIC CHARGES
-----------------------
   0 S :    0.108071
   1 C :   -0.147661
   2 C :   -0.079803
   3 C :    0.007330
   4 C :   -0.147060
   5 H :    0.023877
   6 C :    0.108121
   7 H :    0.031619
   8 H :   -0.004866
   9 C :   -0.026164
  10 H :    0.003963
  11 H :   -0.007406
  12 C :   -0.036062
  13 H :    0.029527
  14 H :    0.043876
  15 H :    0.015749
  16 S :    0.086140
  17 C :   -0.041377
  18 C :   -0.032195
  19 C :   -0.033896
  20 C :   -0.172687
  21 H :   -0.000287
  22 C :    0.116886
  23 H :    0.006802
  24 H :    0.018333
  25 C :   -0.078239
  26 H :    0.021060
  27 H :    0.025657
  28 C :   -0.033478
  29 H :    0.054570
  30 H :    0.032367
  31 H :    0.017874
  32 H :    0.067284
  33 H :    0.022076
Sum of atomic charges:    0.0000000

LOEWDIN ATOMIC CHARGES
----------------------
   0 S :    0.407088
   1 C :   -0.212478
   2 C :   -0.067894
   3 C :   -0.066791
   4 C :   -0.189242
   5 H :    0.033942
   6 C :   -0.016677
   7 H :    0.032908
   8 H :    0.016536
   9 C :   -0.034886
  10 H :    0.024306
  11 H :    0.006088
  12 C :   -0.059740
  13 H :    0.027658
  14 H :    0.027191
  15 H :    0.021708
  16 S :    0.392588
  17 C :   -0.165680
  18 C :   -0.060250
  19 C :   -0.055950
  20 C :   -0.186077
  21 H :    0.024559
  22 C :   -0.023439
  23 H :    0.023425
  24 H :    0.030790
  25 C :   -0.037061
  26 H :    0.016560
  27 H :    0.024650
  28 C :   -0.059675
  29 H :    0.035632
  30 H :    0.027871
  31 H :    0.013389
  32 H :    0.040369
  33 H :    0.008580

  Mayer bond orders larger than 0.100000
B(  0-S ,  1-C ) :   1.1214 B(  0-S ,  4-C ) :   1.1530 B(  1-C ,  2-C ) :   1.6319
B(  1-C , 32-H ) :   0.9568 B(  2-C ,  3-C ) :   1.2504 B(  2-C ,  6-C ) :   1.0017
B(  3-C ,  4-C ) :   1.5509 B(  3-C ,  5-H ) :   0.9924 B(  4-C , 20-C ) :   1.0916
B(  6-C ,  7-H ) :   0.9276 B(  6-C ,  8-H ) :   0.9425 B(  6-C ,  9-C ) :   1.1009
B(  9-C , 10-H ) :   0.9416 B(  9-C , 11-H ) :   0.9420 B(  9-C , 12-C ) :   1.0872
B( 12-C , 13-H ) :   0.9728 B( 12-C , 14-H ) :   0.9747 B( 12-C , 15-H ) :   0.9728
B( 16-S , 17-C ) :   1.1279 B( 16-S , 20-C ) :   1.1432 B( 17-C , 18-C ) :   1.6382
B( 17-C , 33-H ) :   0.9794 B( 18-C , 19-C ) :   1.2150 B( 18-C , 21-H ) :   0.9927
B( 19-C , 20-C ) :   1.5870 B( 19-C , 22-C ) :   1.0354 B( 22-C , 23-H ) :   0.9363
B( 22-C , 24-H ) :   0.9281 B( 22-C , 25-C ) :   1.0694 B( 25-C , 26-H ) :   0.9573
B( 25-C , 27-H ) :   0.9565 B( 25-C , 28-C ) :   1.0737 B( 28-C , 29-H ) :   0.9726
B( 28-C , 30-H ) :   0.9743 B( 28-C , 31-H ) :   0.9741

Dispersion correction           -0.015596070
FINAL SINGLE POINT ENERGY     -1339.870788479827

DIPOLE MOMENT
-------------
                                X             Y             Z
Electronic contribution:     -9.65086     -19.91949      13.39797
Nuclear contribution   :      9.57612      20.60631     -13.42104
                        -----------------------------------------
Total Dipole Moment    :     -0.07475       0.68682      -0.02306
                        -----------------------------------------
Magnitude (a.u.)       :      0.69126
Magnitude (Debye)      :      1.75705

Rotational constants in cm-1:     0.023290     0.008795     0.007331
Rotational constants in MHz :   698.222498   263.661433   219.776678

                             ****ORCA TERMINATED NORMALLY****
TOTAL RUN TIME: 0 days 0 hours 0 minutes 37 seconds 25 msec
