                         Program Version 4.2.1 -  RELEASE  -
|  1> ! wB97X-D3 SP def2-SVP
|  2> %pal
|  3> nprocs 16
|  4> end
|  5>
|  6> * xyz 0 1
|  7> S 	 1.51539 	 -17.697 	 84.4346
|  8> C 	 -0.146842 	 -18.2441 	 84.5012
|  9> C 	 -0.707787 	 -17.9242 	 85.7405
| 10> C 	 0.221978 	 -17.3555 	 86.6155
| 11> C 	 1.46083 	 -17.1597 	 86.0929
| 12> H 	 -0.024681 	 -17.0105 	 87.618
| 13> C 	 -2.19017 	 -17.9962 	 86.1082
| 14> H 	 -2.76122 	 -17.1577 	 85.6661
| 15> H 	 -2.20825 	 -17.8405 	 87.1648
| 16> C 	 -2.83325 	 -19.3712 	 85.8561
| 17> H 	 -2.74171 	 -19.5682 	 84.7932
| 18> H 	 -2.21573 	 -20.069 	 86.4281
| 19> C 	 -4.2084 	 -19.5987 	 86.373
| 20> H 	 -4.22891 	 -19.8432 	 87.4734
| 21> H 	 -4.80342 	 -18.7105 	 86.1324
| 22> H 	 -4.55968 	 -20.5461 	 85.8298
| 23> S 	 3.80576 	 -15.7245 	 85.8243
| 24> C 	 5.08388 	 -15.6877 	 87.0592
| 25> C 	 4.61017 	 -16.3581 	 88.1395
| 26> C 	 3.21836 	 -16.8163 	 88.0315
| 27> C 	 2.66214 	 -16.6686 	 86.7974
| 28> H 	 5.28062 	 -16.44 	 88.9725
| 29> C 	 2.64966 	 -17.5408 	 89.1683
| 30> H 	 3.49026 	 -17.9671 	 89.664
| 31> H 	 2.17497 	 -18.4137 	 88.7367
| 32> C 	 1.72015 	 -16.649 	 90.0484
| 33> H 	 0.848571 	 -16.3319 	 89.6489
| 34> H 	 2.25762 	 -15.7082 	 90.2766
| 35> C 	 1.34339 	 -17.4391 	 91.2929
| 36> H 	 0.657569 	 -18.2118 	 91.0564
| 37> H 	 0.854178 	 -16.7785 	 92.1174
| 38> H 	 2.28951 	 -17.7988 	 91.761
| 39> H 	 -0.721851 	 -18.6086 	 83.6738
| 40> H 	 6.06941 	 -15.2691 	 86.986
| 41> *
| 42>
| 43>                          ****END OF INPUT****

CARTESIAN COORDINATES (ANGSTROEM)
---------------------------------
  S      1.515390  -17.697000   84.434600
  C     -0.146842  -18.244100   84.501200
  C     -0.707787  -17.924200   85.740500
  C      0.221978  -17.355500   86.615500
  C      1.460830  -17.159700   86.092900
  H     -0.024681  -17.010500   87.618000
  C     -2.190170  -17.996200   86.108200
  H     -2.761220  -17.157700   85.666100
  H     -2.208250  -17.840500   87.164800
  C     -2.833250  -19.371200   85.856100
  H     -2.741710  -19.568200   84.793200
  H     -2.215730  -20.069000   86.428100
  C     -4.208400  -19.598700   86.373000
  H     -4.228910  -19.843200   87.473400
  H     -4.803420  -18.710500   86.132400
  H     -4.559680  -20.546100   85.829800
  S      3.805760  -15.724500   85.824300
  C      5.083880  -15.687700   87.059200
  C      4.610170  -16.358100   88.139500
  C      3.218360  -16.816300   88.031500
  C      2.662140  -16.668600   86.797400
  H      5.280620  -16.440000   88.972500
  C      2.649660  -17.540800   89.168300
  H      3.490260  -17.967100   89.664000
  H      2.174970  -18.413700   88.736700
  C      1.720150  -16.649000   90.048400
  H      0.848571  -16.331900   89.648900
  H      2.257620  -15.708200   90.276600
  C      1.343390  -17.439100   91.292900
  H      0.657569  -18.211800   91.056400
  H      0.854178  -16.778500   92.117400
  H      2.289510  -17.798800   91.761000
  H     -0.721851  -18.608600   83.673800
  H      6.069410  -15.269100   86.986000

 Total Charge           Charge          ....    0
 Multiplicity           Mult            ....    1
 Number of Electrons    NEL             ....  134
 Basis Dimension        Dim             ....  322

ORBITAL ENERGIES
----------------

  NO   OCC          E(Eh)            E(eV)
   0   2.0000     -88.970543     -2421.0116
   1   2.0000     -88.956199     -2420.6212
   2   2.0000     -10.331936      -281.1463
   3   2.0000     -10.329476      -281.0793
   4   2.0000     -10.317372      -280.7500
   5   2.0000     -10.315469      -280.6982
   6   2.0000     -10.300192      -280.2825
   7   2.0000     -10.300159      -280.2816
   8   2.0000     -10.292515      -280.0736
   9   2.0000     -10.291576      -280.0480
  10   2.0000     -10.290538      -280.0198
  11   2.0000     -10.287369      -279.9335
  12   2.0000     -10.283963      -279.8409
  13   2.0000     -10.283464      -279.8273
  14   2.0000     -10.283353      -279.8243
  15   2.0000     -10.282792      -279.8090
  16   2.0000      -8.085001      -220.0041
  17   2.0000      -8.070699      -219.6149
  18   2.0000      -6.043547      -164.4533
  19   2.0000      -6.039488      -164.3428
  20   2.0000      -6.035770      -164.2416
  21   2.0000      -6.029541      -164.0722
  22   2.0000      -6.025096      -163.9512
  23   2.0000      -6.021256      -163.8467
  24   2.0000      -1.009263       -27.4634
  25   2.0000      -0.985808       -26.8252
  26   2.0000      -0.915915       -24.9233
  27   2.0000      -0.913315       -24.8526
  28   2.0000      -0.872399       -23.7392
  29   2.0000      -0.857319       -23.3288
  30   2.0000      -0.848222       -23.0813
  31   2.0000      -0.820850       -22.3365
  32   2.0000      -0.779194       -21.2029
  33   2.0000      -0.767212       -20.8769
  34   2.0000      -0.712313       -19.3830
  35   2.0000      -0.704204       -19.1624
  36   2.0000      -0.689761       -18.7694
  37   2.0000      -0.666758       -18.1434
  38   2.0000      -0.642522       -17.4839
  39   2.0000      -0.621558       -16.9135
  40   2.0000      -0.590806       -16.0766
  41   2.0000      -0.575234       -15.6529
  42   2.0000      -0.571554       -15.5528
  43   2.0000      -0.568794       -15.4777
  44   2.0000      -0.532329       -14.4854
  45   2.0000      -0.525736       -14.3060
  46   2.0000      -0.523654       -14.2493
  47   2.0000      -0.517881       -14.0923
  48   2.0000      -0.510100       -13.8805
  49   2.0000      -0.506117       -13.7722
  50   2.0000      -0.494370       -13.4525
  51   2.0000      -0.479705       -13.0534
  52   2.0000      -0.475592       -12.9415
  53   2.0000      -0.464063       -12.6278
  54   2.0000      -0.459410       -12.5012
  55   2.0000      -0.448824       -12.2131
  56   2.0000      -0.444345       -12.0912
  57   2.0000      -0.434154       -11.8139
  58   2.0000      -0.427214       -11.6251
  59   2.0000      -0.426091       -11.5945
  60   2.0000      -0.420661       -11.4468
  61   2.0000      -0.414841       -11.2884
  62   2.0000      -0.402736       -10.9590
  63   2.0000      -0.357334        -9.7236
  64   2.0000      -0.336668        -9.1612
  65   2.0000      -0.322573        -8.7777
  66   2.0000      -0.292361        -7.9555
  67   0.0000       0.025862         0.7037
  68   0.0000       0.074929         2.0389
  69   0.0000       0.113539         3.0896
  70   0.0000       0.130062         3.5392
  71   0.0000       0.131098         3.5673

MULLIKEN ATOMIC CHARGES
-----------------------
   0 S :    0.127695
   1 C :   -0.124482
   2 C :   -0.084585
   3 C :   -0.002549
   4 C :   -0.099480
   5 H :   -0.001629
   6 C :    0.084142
   7 H :    0.047626
   8 H :   -0.000555
   9 C :   -0.108262
  10 H :    0.029758
  11 H :    0.028405
  12 C :   -0.055769
  13 H :    0.045324
  14 H :    0.035753
  15 H :    0.047610
  16 S :    0.056436
  17 C :   -0.073364
  18 C :   -0.031855
  19 C :   -0.078124
  20 C :   -0.113806
  21 H :    0.014131
  22 C :    0.069608
  23 H :    0.005430
  24 H :    0.024452
  25 C :   -0.017244
  26 H :    0.003861
  27 H :    0.029453
  28 C :   -0.066791
  29 H :    0.033109
  30 H :    0.041368
  31 H :    0.033016
  32 H :    0.046000
  33 H :    0.055314
Sum of atomic charges:    0.0000000

LOEWDIN ATOMIC CHARGES
----------------------
   0 S :    0.421858
   1 C :   -0.195677
   2 C :   -0.061706
   3 C :   -0.069330
   4 C :   -0.191506
   5 H :    0.031287
   6 C :   -0.030361
   7 H :    0.033876
   8 H :    0.021515
   9 C :   -0.049968
  10 H :    0.019144
  11 H :    0.028553
  12 C :   -0.071661
  13 H :    0.031424
  14 H :    0.023923
  15 H :    0.040348
  16 S :    0.364059
  17 C :   -0.168434
  18 C :   -0.073619
  19 C :   -0.061182
  20 C :   -0.179703
  21 H :    0.028561
  22 C :   -0.031390
  23 H :    0.028108
  24 H :    0.032635
  25 C :   -0.027737
  26 H :    0.005819
  27 H :    0.030610
  28 C :   -0.066613
  29 H :    0.019151
  30 H :    0.033139
  31 H :    0.026361
  32 H :    0.025333
  33 H :    0.033184

  Mayer bond orders larger than 0.100000
B(  0-S ,  1-C ) :   1.1449 B(  0-S ,  4-C ) :   1.1598 B(  1-C ,  2-C ) :   1.5755
B(  1-C ,  4-C ) :   0.1034 B(  1-C , 32-H ) :   0.9726 B(  2-C ,  3-C ) :   1.2818
B(  2-C ,  6-C ) :   1.0161 B(  3-C ,  4-C ) :   1.5525 B(  3-C ,  5-H ) :   0.9982
B(  4-C , 20-C ) :   1.0326 B(  6-C ,  7-H ) :   0.9329 B(  6-C ,  8-H ) :   0.9391
B(  6-C ,  9-C ) :   1.0641 B(  9-C , 10-H ) :   0.9587 B(  9-C , 11-H ) :   0.9564
B(  9-C , 12-C ) :   1.0897 B( 12-C , 13-H ) :   0.9746 B( 12-C , 14-H ) :   0.9722
B( 12-C , 15-H ) :   0.9711 B( 16-S , 17-C ) :   1.1284 B( 16-S , 20-C ) :   1.1053
B( 17-C , 18-C ) :   1.6509 B( 17-C , 33-H ) :   0.9693 B( 18-C , 19-C ) :   1.2005
B( 18-C , 21-H ) :   0.9904 B( 19-C , 20-C ) :   1.6309 B( 19-C , 22-C ) :   1.0574
B( 22-C , 23-H ) :   0.9336 B( 22-C , 24-H ) :   0.9286 B( 22-C , 25-C ) :   1.0454
B( 25-C , 26-H ) :   0.9537 B( 25-C , 27-H ) :   0.9520 B( 25-C , 28-C ) :   1.0831
B( 28-C , 29-H ) :   0.9746 B( 28-C , 30-H ) :   0.9739 B( 28-C , 31-H ) :   0.9761

Dispersion correction           -0.013681534
FINAL SINGLE POINT ENERGY     -1339.869142666836

DIPOLE MOMENT
-------------
                                X             Y             Z
Electronic contribution:     21.98212       9.73207     -20.18902
Nuclear contribution   :    -22.31725      -9.93174      20.74864
                        -----------------------------------------
Total Dipole Moment    :     -0.33513      -0.19966       0.55962
                        -----------------------------------------
Magnitude (a.u.)       :      0.68217
Magnitude (Debye)      :      1.73394

Rotational constants in cm-1:     0.018982     0.008356     0.006022
Rotational constants in MHz :   569.065451   250.492987   180.522395

                             ****ORCA TERMINATED NORMALLY****
TOTAL RUN TIME: 0 days 0 hours 0 minutes 33 seconds 722 msec
