                         Program Version 4.2.1 -  RELEASE  -
|  1> ! wB97X-D3 SP def2-SVP
|  2> %pal
|  3> nprocs 16
|  4> end
|  5>
|  6> * xyz 0 1
|  7> S 	 -59.5719 	 56.7189 	 126
|  8> C 	 -60.6875 	 57.3761 	 127.182
|  9> C 	 -61.9835 	 57.4731 	 126.678
| 10> C 	 -61.9812 	 57.2033 	 125.277
| 11> C 	 -60.8214 	 56.6549 	 124.782
| 12> H 	 -62.8066 	 57.2045 	 124.577
| 13> C 	 -63.1892 	 57.9826 	 127.395
| 14> H 	 -62.9116 	 58.2057 	 128.405
| 15> H 	 -63.9337 	 57.1706 	 127.555
| 16> C 	 -64.0271 	 59.1502 	 126.86
| 17> H 	 -63.2839 	 59.9265 	 126.669
| 18> H 	 -64.3056 	 58.8602 	 125.813
| 19> C 	 -65.2063 	 59.6644 	 127.77
| 20> H 	 -65.6086 	 60.6165 	 127.414
| 21> H 	 -66.0532 	 58.984 	 127.801
| 22> H 	 -64.8838 	 59.9147 	 128.737
| 23> S 	 -60.3567 	 57.3185 	 122.113
| 24> C 	 -60.3376 	 56.0115 	 120.928
| 25> C 	 -60.4939 	 54.7734 	 121.5
| 26> C 	 -60.7525 	 54.8261 	 122.888
| 27> C 	 -60.6988 	 56.1305 	 123.408
| 28> H 	 -60.5532 	 53.8714 	 120.881
| 29> C 	 -61.0559 	 53.533 	 123.545
| 30> H 	 -60.9176 	 52.663 	 122.887
| 31> H 	 -62.0742 	 53.6871 	 123.988
| 32> C 	 -60.2673 	 53.2221 	 124.829
| 33> H 	 -60.5795 	 53.9318 	 125.59
| 34> H 	 -59.2196 	 53.4047 	 124.779
| 35> C 	 -60.5441 	 51.7614 	 125.33
| 36> H 	 -60.1659 	 51.6311 	 126.333
| 37> H 	 -59.9961 	 51.0068 	 124.782
| 38> H 	 -61.6374 	 51.5373 	 125.395
| 39> H 	 -60.4562 	 57.5021 	 128.259
| 40> H 	 -60.2984 	 56.2338 	 119.86
| 41> *
| 42>
| 43>                          ****END OF INPUT****

CARTESIAN COORDINATES (ANGSTROEM)
---------------------------------
  S    -59.571900   56.718900  126.000000
  C    -60.687500   57.376100  127.182000
  C    -61.983500   57.473100  126.678000
  C    -61.981200   57.203300  125.277000
  C    -60.821400   56.654900  124.782000
  H    -62.806600   57.204500  124.577000
  C    -63.189200   57.982600  127.395000
  H    -62.911600   58.205700  128.405000
  H    -63.933700   57.170600  127.555000
  C    -64.027100   59.150200  126.860000
  H    -63.283900   59.926500  126.669000
  H    -64.305600   58.860200  125.813000
  C    -65.206300   59.664400  127.770000
  H    -65.608600   60.616500  127.414000
  H    -66.053200   58.984000  127.801000
  H    -64.883800   59.914700  128.737000
  S    -60.356700   57.318500  122.113000
  C    -60.337600   56.011500  120.928000
  C    -60.493900   54.773400  121.500000
  C    -60.752500   54.826100  122.888000
  C    -60.698800   56.130500  123.408000
  H    -60.553200   53.871400  120.881000
  C    -61.055900   53.533000  123.545000
  H    -60.917600   52.663000  122.887000
  H    -62.074200   53.687100  123.988000
  C    -60.267300   53.222100  124.829000
  H    -60.579500   53.931800  125.590000
  H    -59.219600   53.404700  124.779000
  C    -60.544100   51.761400  125.330000
  H    -60.165900   51.631100  126.333000
  H    -59.996100   51.006800  124.782000
  H    -61.637400   51.537300  125.395000
  H    -60.456200   57.502100  128.259000
  H    -60.298400   56.233800  119.860000

 Total Charge           Charge          ....    0
 Multiplicity           Mult            ....    1
 Number of Electrons    NEL             ....  134
 Basis Dimension        Dim             ....  322

ORBITAL ENERGIES
----------------

  NO   OCC          E(Eh)            E(eV)
   0   2.0000     -88.968853     -2420.9656
   1   2.0000     -88.965159     -2420.8650
   2   2.0000     -10.329548      -281.0813
   3   2.0000     -10.327305      -281.0202
   4   2.0000     -10.320245      -280.8281
   5   2.0000     -10.319010      -280.7945
   6   2.0000     -10.304440      -280.3981
   7   2.0000     -10.303464      -280.3715
   8   2.0000     -10.293675      -280.1051
   9   2.0000     -10.292025      -280.0602
  10   2.0000     -10.291687      -280.0510
  11   2.0000     -10.291385      -280.0428
  12   2.0000     -10.289680      -279.9964
  13   2.0000     -10.283235      -279.8211
  14   2.0000     -10.278460      -279.6911
  15   2.0000     -10.277320      -279.6601
  16   2.0000      -8.082997      -219.9495
  17   2.0000      -8.079126      -219.8442
  18   2.0000      -6.041519      -164.3981
  19   2.0000      -6.037656      -164.2930
  20   2.0000      -6.037470      -164.2879
  21   2.0000      -6.033884      -164.1903
  22   2.0000      -6.033720      -164.1859
  23   2.0000      -6.029941      -164.0830
  24   2.0000      -1.003365       -27.3030
  25   2.0000      -0.982722       -26.7412
  26   2.0000      -0.909043       -24.7363
  27   2.0000      -0.906659       -24.6714
  28   2.0000      -0.866517       -23.5791
  29   2.0000      -0.848061       -23.0769
  30   2.0000      -0.847022       -23.0486
  31   2.0000      -0.811950       -22.0943
  32   2.0000      -0.784840       -21.3566
  33   2.0000      -0.770290       -20.9607
  34   2.0000      -0.712416       -19.3858
  35   2.0000      -0.700173       -19.0527
  36   2.0000      -0.686344       -18.6764
  37   2.0000      -0.660839       -17.9823
  38   2.0000      -0.641989       -17.4694
  39   2.0000      -0.617528       -16.8038
  40   2.0000      -0.597845       -16.2682
  41   2.0000      -0.570379       -15.5208
  42   2.0000      -0.566062       -15.4033
  43   2.0000      -0.556202       -15.1350
  44   2.0000      -0.518874       -14.1193
  45   2.0000      -0.516965       -14.0673
  46   2.0000      -0.513254       -13.9664
  47   2.0000      -0.506626       -13.7860
  48   2.0000      -0.504452       -13.7268
  49   2.0000      -0.495712       -13.4890
  50   2.0000      -0.490869       -13.3572
  51   2.0000      -0.480812       -13.0836
  52   2.0000      -0.472024       -12.8444
  53   2.0000      -0.467867       -12.7313
  54   2.0000      -0.458955       -12.4888
  55   2.0000      -0.453566       -12.3422
  56   2.0000      -0.446428       -12.1479
  57   2.0000      -0.431872       -11.7518
  58   2.0000      -0.431206       -11.7337
  59   2.0000      -0.427527       -11.6336
  60   2.0000      -0.421684       -11.4746
  61   2.0000      -0.415319       -11.3014
  62   2.0000      -0.410827       -11.1792
  63   2.0000      -0.335851        -9.1390
  64   2.0000      -0.331499        -9.0205
  65   2.0000      -0.317612        -8.6427
  66   2.0000      -0.308442        -8.3931
  67   0.0000       0.040365         1.0984
  68   0.0000       0.052087         1.4173
  69   0.0000       0.109649         2.9837
  70   0.0000       0.122966         3.3461
  71   0.0000       0.128890         3.5073

MULLIKEN ATOMIC CHARGES
-----------------------
   0 S :    0.124195
   1 C :   -0.136215
   2 C :   -0.059198
   3 C :    0.031816
   4 C :   -0.180281
   5 H :    0.014340
   6 C :    0.071980
   7 H :   -0.005282
   8 H :    0.030059
   9 C :   -0.099563
  10 H :    0.028546
  11 H :    0.032842
  12 C :   -0.017414
  13 H :    0.031435
  14 H :    0.038018
  15 H :    0.021660
  16 S :    0.106180
  17 C :   -0.101814
  18 C :   -0.041109
  19 C :    0.010646
  20 C :   -0.202868
  21 H :    0.026092
  22 C :    0.075762
  23 H :    0.028979
  24 H :    0.044778
  25 C :   -0.098925
  26 H :    0.035610
  27 H :    0.020239
  28 C :   -0.049243
  29 H :    0.023900
  30 H :    0.032459
  31 H :    0.034647
  32 H :    0.064022
  33 H :    0.063707
Sum of atomic charges:    0.0000000

LOEWDIN ATOMIC CHARGES
----------------------
   0 S :    0.414630
   1 C :   -0.198826
   2 C :   -0.064356
   3 C :   -0.057953
   4 C :   -0.207490
   5 H :    0.030839
   6 C :   -0.041712
   7 H :    0.021397
   8 H :    0.034113
   9 C :   -0.042564
  10 H :    0.023534
  11 H :    0.025438
  12 C :   -0.057336
  13 H :    0.032562
  14 H :    0.027143
  15 H :    0.019794
  16 S :    0.388587
  17 C :   -0.173866
  18 C :   -0.076811
  19 C :   -0.049062
  20 C :   -0.198694
  21 H :    0.036296
  22 C :   -0.034437
  23 H :    0.032039
  24 H :    0.048864
  25 C :   -0.041038
  26 H :    0.019294
  27 H :    0.015373
  28 C :   -0.068484
  29 H :    0.025234
  30 H :    0.022300
  31 H :    0.028939
  32 H :    0.036254
  33 H :    0.030002

  Mayer bond orders larger than 0.100000
B(  0-S ,  1-C ) :   1.1479 B(  0-S ,  4-C ) :   1.1383 B(  1-C ,  2-C ) :   1.6046
B(  1-C , 32-H ) :   0.9579 B(  2-C ,  3-C ) :   1.2212 B(  2-C ,  6-C ) :   1.0458
B(  3-C ,  4-C ) :   1.6080 B(  3-C ,  5-H ) :   0.9866 B(  4-C , 20-C ) :   1.0233
B(  6-C ,  7-H ) :   0.9341 B(  6-C ,  8-H ) :   0.9278 B(  6-C ,  9-C ) :   1.0551
B(  9-C , 10-H ) :   0.9592 B(  9-C , 11-H ) :   0.9527 B(  9-C , 12-C ) :   1.0725
B( 12-C , 13-H ) :   0.9738 B( 12-C , 14-H ) :   0.9776 B( 12-C , 15-H ) :   0.9749
B( 16-S , 17-C ) :   1.1632 B( 16-S , 20-C ) :   1.1336 B( 17-C , 18-C ) :   1.5975
B( 17-C , 20-C ) :   0.1029 B( 17-C , 33-H ) :   0.9647 B( 18-C , 19-C ) :   1.2547
B( 18-C , 21-H ) :   0.9872 B( 19-C , 20-C ) :   1.5802 B( 19-C , 22-C ) :   1.0521
B( 22-C , 23-H ) :   0.9464 B( 22-C , 24-H ) :   0.9165 B( 22-C , 25-C ) :   1.0538
B( 25-C , 26-H ) :   0.9520 B( 25-C , 27-H ) :   0.9605 B( 25-C , 28-C ) :   1.0874
B( 28-C , 29-H ) :   0.9725 B( 28-C , 30-H ) :   0.9758 B( 28-C , 31-H ) :   0.9736

Dispersion correction           -0.014238828
FINAL SINGLE POINT ENERGY     -1339.879207128002

DIPOLE MOMENT
-------------
                                X             Y             Z
Electronic contribution:     16.41915       7.07895     -13.71613
Nuclear contribution   :    -16.90348      -7.30614      13.89941
                        -----------------------------------------
Total Dipole Moment    :     -0.48433      -0.22720       0.18329
                        -----------------------------------------
Magnitude (a.u.)       :      0.56550
Magnitude (Debye)      :      1.43738

Rotational constants in cm-1:     0.017875     0.008011     0.006744
Rotational constants in MHz :   535.876665   240.150805   202.192218

                             ****ORCA TERMINATED NORMALLY****
TOTAL RUN TIME: 0 days 0 hours 0 minutes 33 seconds 590 msec
