                         Program Version 4.2.1 -  RELEASE  -
|  1> ! wB97X-D3 SP def2-SVP
|  2> %pal
|  3> nprocs 16
|  4> end
|  5>
|  6> * xyz 0 1
|  7> S 	 5.02012 	 -18.6949 	 84.571
|  8> C 	 3.59337 	 -19.4266 	 83.896
|  9> C 	 2.53385 	 -18.5613 	 83.8624
| 10> C 	 2.86297 	 -17.2833 	 84.3976
| 11> C 	 4.19043 	 -17.1546 	 84.8263
| 12> H 	 2.15599 	 -16.4427 	 84.5183
| 13> C 	 1.13422 	 -18.7881 	 83.3516
| 14> H 	 1.20423 	 -19.5948 	 82.7165
| 15> H 	 0.78535 	 -17.9898 	 82.7961
| 16> C 	 0.0877306 	 -19.304 	 84.417
| 17> H 	 0.439924 	 -20.2427 	 84.8877
| 18> H 	 0.0124927 	 -18.5466 	 85.2127
| 19> C 	 -1.28305 	 -19.6235 	 83.8092
| 20> H 	 -1.9465 	 -19.5371 	 84.6787
| 21> H 	 -1.7144 	 -18.9604 	 83.1515
| 22> H 	 -1.38472 	 -20.6119 	 83.3747
| 23> S 	 6.37528 	 -15.4842 	 84.7811
| 24> C 	 6.44046 	 -14.1986 	 85.9315
| 25> C 	 5.22914 	 -14.0608 	 86.5922
| 26> C 	 4.26392 	 -15.0737 	 86.3302
| 27> C 	 4.80326 	 -15.9959 	 85.451
| 28> H 	 5.00284 	 -13.263 	 87.2454
| 29> C 	 2.91835 	 -15.1153 	 87.0415
| 30> H 	 3.16769 	 -15.0541 	 88.0623
| 31> H 	 2.40066 	 -16.0717 	 86.8451
| 32> C 	 1.76712 	 -14.051 	 86.7978
| 33> H 	 1.46224 	 -14.1013 	 85.7287
| 34> H 	 2.27445 	 -13.0741 	 86.7594
| 35> C 	 0.604411 	 -14.194 	 87.7248
| 36> H 	 0.33227 	 -15.2359 	 88.0778
| 37> H 	 -0.309439 	 -13.8114 	 87.196
| 38> H 	 0.82158 	 -13.7995 	 88.6905
| 39> H 	 3.46267 	 -20.4216 	 83.4167
| 40> H 	 7.2506 	 -13.5124 	 85.994
| 41> *
| 42>
| 43>                          ****END OF INPUT****

CARTESIAN COORDINATES (ANGSTROEM)
---------------------------------
  S      5.020120  -18.694900   84.571000
  C      3.593370  -19.426600   83.896000
  C      2.533850  -18.561300   83.862400
  C      2.862970  -17.283300   84.397600
  C      4.190430  -17.154600   84.826300
  H      2.155990  -16.442700   84.518300
  C      1.134220  -18.788100   83.351600
  H      1.204230  -19.594800   82.716500
  H      0.785350  -17.989800   82.796100
  C      0.087731  -19.304000   84.417000
  H      0.439924  -20.242700   84.887700
  H      0.012493  -18.546600   85.212700
  C     -1.283050  -19.623500   83.809200
  H     -1.946500  -19.537100   84.678700
  H     -1.714400  -18.960400   83.151500
  H     -1.384720  -20.611900   83.374700
  S      6.375280  -15.484200   84.781100
  C      6.440460  -14.198600   85.931500
  C      5.229140  -14.060800   86.592200
  C      4.263920  -15.073700   86.330200
  C      4.803260  -15.995900   85.451000
  H      5.002840  -13.263000   87.245400
  C      2.918350  -15.115300   87.041500
  H      3.167690  -15.054100   88.062300
  H      2.400660  -16.071700   86.845100
  C      1.767120  -14.051000   86.797800
  H      1.462240  -14.101300   85.728700
  H      2.274450  -13.074100   86.759400
  C      0.604411  -14.194000   87.724800
  H      0.332270  -15.235900   88.077800
  H     -0.309439  -13.811400   87.196000
  H      0.821580  -13.799500   88.690500
  H      3.462670  -20.421600   83.416700
  H      7.250600  -13.512400   85.994000

 Total Charge           Charge          ....    0
 Multiplicity           Mult            ....    1
 Number of Electrons    NEL             ....  134
 Basis Dimension        Dim             ....  322

ORBITAL ENERGIES
----------------

  NO   OCC          E(Eh)            E(eV)
   0   2.0000     -88.966616     -2420.9047
   1   2.0000     -88.965778     -2420.8819
   2   2.0000     -10.327997      -281.0391
   3   2.0000     -10.327357      -281.0217
   4   2.0000     -10.315615      -280.7021
   5   2.0000     -10.313279      -280.6386
   6   2.0000     -10.304616      -280.4029
   7   2.0000     -10.295412      -280.1524
   8   2.0000     -10.294628      -280.1311
   9   2.0000     -10.293394      -280.0975
  10   2.0000     -10.293311      -280.0952
  11   2.0000     -10.292351      -280.0691
  12   2.0000     -10.290512      -280.0191
  13   2.0000     -10.288075      -279.9527
  14   2.0000     -10.279610      -279.7224
  15   2.0000     -10.272961      -279.5415
  16   2.0000      -8.080928      -219.8932
  17   2.0000      -8.080561      -219.8832
  18   2.0000      -6.039581      -164.3454
  19   2.0000      -6.038971      -164.3287
  20   2.0000      -6.035432      -164.2324
  21   2.0000      -6.035184      -164.2257
  22   2.0000      -6.031623      -164.1288
  23   2.0000      -6.031307      -164.1202
  24   2.0000      -1.004447       -27.3324
  25   2.0000      -0.983349       -26.7583
  26   2.0000      -0.909196       -24.7405
  27   2.0000      -0.908311       -24.7164
  28   2.0000      -0.868673       -23.6378
  29   2.0000      -0.858918       -23.3723
  30   2.0000      -0.847191       -23.0532
  31   2.0000      -0.809732       -22.0339
  32   2.0000      -0.786572       -21.4037
  33   2.0000      -0.775147       -21.0928
  34   2.0000      -0.708690       -19.2844
  35   2.0000      -0.703891       -19.1538
  36   2.0000      -0.697893       -18.9906
  37   2.0000      -0.666245       -18.1294
  38   2.0000      -0.634438       -17.2639
  39   2.0000      -0.617976       -16.8160
  40   2.0000      -0.600227       -16.3330
  41   2.0000      -0.570631       -15.5277
  42   2.0000      -0.565093       -15.3770
  43   2.0000      -0.556396       -15.1403
  44   2.0000      -0.529625       -14.4118
  45   2.0000      -0.524865       -14.2823
  46   2.0000      -0.517341       -14.0776
  47   2.0000      -0.512575       -13.9479
  48   2.0000      -0.505702       -13.7608
  49   2.0000      -0.500783       -13.6270
  50   2.0000      -0.493601       -13.4316
  51   2.0000      -0.485370       -13.2076
  52   2.0000      -0.470685       -12.8080
  53   2.0000      -0.466209       -12.6862
  54   2.0000      -0.464903       -12.6507
  55   2.0000      -0.452707       -12.3188
  56   2.0000      -0.444253       -12.0887
  57   2.0000      -0.436842       -11.8871
  58   2.0000      -0.433150       -11.7866
  59   2.0000      -0.427198       -11.6246
  60   2.0000      -0.425180       -11.5697
  61   2.0000      -0.416238       -11.3264
  62   2.0000      -0.406864       -11.0713
  63   2.0000      -0.346523        -9.4294
  64   2.0000      -0.332114        -9.0373
  65   2.0000      -0.327965        -8.9244
  66   2.0000      -0.288277        -7.8444
  67   0.0000       0.026570         0.7230
  68   0.0000       0.076223         2.0741
  69   0.0000       0.106819         2.9067
  70   0.0000       0.124339         3.3834
  71   0.0000       0.127758         3.4765

MULLIKEN ATOMIC CHARGES
-----------------------
   0 S :    0.117422
   1 C :   -0.123195
   2 C :   -0.109412
   3 C :    0.014377
   4 C :   -0.155505
   5 H :    0.015112
   6 C :    0.141080
   7 H :   -0.015966
   8 H :    0.011006
   9 C :   -0.096853
  10 H :    0.034761
  11 H :    0.028388
  12 C :   -0.017326
  13 H :    0.026275
  14 H :    0.009700
  15 H :    0.037126
  16 S :    0.107197
  17 C :   -0.066905
  18 C :   -0.025117
  19 C :   -0.001359
  20 C :   -0.162788
  21 H :   -0.002137
  22 C :    0.031627
  23 H :    0.021795
  24 H :    0.030079
  25 C :   -0.069021
  26 H :    0.024940
  27 H :    0.023734
  28 C :   -0.044957
  29 H :    0.030602
  30 H :    0.054064
  31 H :    0.029050
  32 H :    0.053909
  33 H :    0.048297
Sum of atomic charges:    0.0000000

LOEWDIN ATOMIC CHARGES
----------------------
   0 S :    0.405579
   1 C :   -0.210812
   2 C :   -0.066797
   3 C :   -0.064418
   4 C :   -0.193884
   5 H :    0.032441
   6 C :   -0.021909
   7 H :    0.018197
   8 H :    0.021206
   9 C :   -0.030458
  10 H :    0.030129
  11 H :    0.019947
  12 C :   -0.065353
  13 H :    0.034523
  14 H :    0.012097
  15 H :    0.026848
  16 S :    0.402928
  17 C :   -0.183890
  18 C :   -0.064464
  19 C :   -0.052451
  20 C :   -0.185820
  21 H :    0.021698
  22 C :   -0.031496
  23 H :    0.025527
  24 H :    0.031534
  25 C :   -0.046705
  26 H :    0.023300
  27 H :    0.024279
  28 C :   -0.073556
  29 H :    0.034187
  30 H :    0.040138
  31 H :    0.024402
  32 H :    0.039679
  33 H :    0.023374

  Mayer bond orders larger than 0.100000
B(  0-S ,  1-C ) :   1.1310 B(  0-S ,  4-C ) :   1.1489 B(  1-C ,  2-C ) :   1.6257
B(  1-C , 32-H ) :   0.9547 B(  2-C ,  3-C ) :   1.2515 B(  2-C ,  6-C ) :   1.0318
B(  3-C ,  4-C ) :   1.5557 B(  3-C ,  5-H ) :   0.9890 B(  4-C , 20-C ) :   1.0487
B(  6-C ,  7-H ) :   0.9251 B(  6-C ,  8-H ) :   0.9414 B(  6-C ,  9-C ) :   1.0558
B(  9-C , 10-H ) :   0.9560 B(  9-C , 11-H ) :   0.9653 B(  9-C , 12-C ) :   1.0740
B( 12-C , 13-H ) :   0.9719 B( 12-C , 14-H ) :   0.9753 B( 12-C , 15-H ) :   0.9770
B( 16-S , 17-C ) :   1.1501 B( 16-S , 20-C ) :   1.1458 B( 17-C , 18-C ) :   1.5905
B( 17-C , 33-H ) :   0.9748 B( 18-C , 19-C ) :   1.2447 B( 18-C , 21-H ) :   0.9945
B( 19-C , 20-C ) :   1.5935 B( 19-C , 22-C ) :   1.0332 B( 22-C , 23-H ) :   0.9370
B( 22-C , 24-H ) :   0.9358 B( 22-C , 25-C ) :   1.0558 B( 25-C , 26-H ) :   0.9570
B( 25-C , 27-H ) :   0.9516 B( 25-C , 28-C ) :   1.0689 B( 28-C , 29-H ) :   0.9722
B( 28-C , 30-H ) :   0.9731 B( 28-C , 31-H ) :   0.9714

Dispersion correction           -0.013726436
FINAL SINGLE POINT ENERGY     -1339.868180714023

DIPOLE MOMENT
-------------
                                X             Y             Z
Electronic contribution:     33.55532      -0.95276      -5.83205
Nuclear contribution   :    -34.35625       1.20515       5.97994
                        -----------------------------------------
Total Dipole Moment    :     -0.80093       0.25239       0.14789
                        -----------------------------------------
Magnitude (a.u.)       :      0.85268
Magnitude (Debye)      :      2.16735

Rotational constants in cm-1:     0.016492     0.009171     0.006186
Rotational constants in MHz :   494.412925   274.929446   185.461174

                             ****ORCA TERMINATED NORMALLY****
TOTAL RUN TIME: 0 days 0 hours 0 minutes 33 seconds 50 msec
