                         Program Version 4.2.1 -  RELEASE  -
|  1> ! wB97X-D3 SP def2-SVP
|  2> %pal
|  3> nprocs 16
|  4> end
|  5>
|  6> * xyz 0 1
|  7> S 	 -36.5644 	 35.5998 	 84.07
|  8> C 	 -35.4432 	 36.0182 	 82.8539
|  9> C 	 -35.9771 	 36.0605 	 81.5771
| 10> C 	 -37.3982 	 35.8966 	 81.6233
| 11> C 	 -37.9142 	 35.6269 	 82.8725
| 12> H 	 -38.0737 	 36 	 80.7968
| 13> C 	 -35.2844 	 36.6301 	 80.2973
| 14> H 	 -35.827 	 36.3002 	 79.423
| 15> H 	 -34.2117 	 36.2642 	 80.1911
| 16> C 	 -35.2198 	 38.1783 	 80.352
| 17> H 	 -36.3363 	 38.384 	 80.2042
| 18> H 	 -34.8171 	 38.3708 	 81.3569
| 19> C 	 -34.1629 	 38.8435 	 79.4234
| 20> H 	 -33.2464 	 38.8574 	 79.9515
| 21> H 	 -33.8547 	 38.2416 	 78.5547
| 22> H 	 -34.4158 	 39.8333 	 79.1011
| 23> S 	 -39.769 	 36.3477 	 84.6878
| 24> C 	 -41.4278 	 35.8894 	 84.4812
| 25> C 	 -41.6006 	 35.1831 	 83.3568
| 26> C 	 -40.3638 	 34.8898 	 82.5939
| 27> C 	 -39.2459 	 35.453 	 83.2741
| 28> H 	 -42.6312 	 34.9181 	 83.1337
| 29> C 	 -40.2329 	 34.0064 	 81.368
| 30> H 	 -39.2922 	 33.4431 	 81.4924
| 31> H 	 -40.0507 	 34.6388 	 80.5452
| 32> C 	 -41.3923 	 33.1019 	 81.172
| 33> H 	 -42.3977 	 33.6374 	 81.173
| 34> H 	 -41.5976 	 32.4774 	 82.0246
| 35> C 	 -41.1806 	 32.1633 	 79.9414
| 36> H 	 -40.3946 	 31.4241 	 80.226
| 37> H 	 -40.9078 	 32.6313 	 78.9578
| 38> H 	 -42.0887 	 31.5815 	 79.725
| 39> H 	 -34.4224 	 36.4313 	 83.0132
| 40> H 	 -42.2401 	 36.2648 	 85.1052
| 41> *
| 42>
| 43>                          ****END OF INPUT****

CARTESIAN COORDINATES (ANGSTROEM)
---------------------------------
  S    -36.564400   35.599800   84.070000
  C    -35.443200   36.018200   82.853900
  C    -35.977100   36.060500   81.577100
  C    -37.398200   35.896600   81.623300
  C    -37.914200   35.626900   82.872500
  H    -38.073700   36.000000   80.796800
  C    -35.284400   36.630100   80.297300
  H    -35.827000   36.300200   79.423000
  H    -34.211700   36.264200   80.191100
  C    -35.219800   38.178300   80.352000
  H    -36.336300   38.384000   80.204200
  H    -34.817100   38.370800   81.356900
  C    -34.162900   38.843500   79.423400
  H    -33.246400   38.857400   79.951500
  H    -33.854700   38.241600   78.554700
  H    -34.415800   39.833300   79.101100
  S    -39.769000   36.347700   84.687800
  C    -41.427800   35.889400   84.481200
  C    -41.600600   35.183100   83.356800
  C    -40.363800   34.889800   82.593900
  C    -39.245900   35.453000   83.274100
  H    -42.631200   34.918100   83.133700
  C    -40.232900   34.006400   81.368000
  H    -39.292200   33.443100   81.492400
  H    -40.050700   34.638800   80.545200
  C    -41.392300   33.101900   81.172000
  H    -42.397700   33.637400   81.173000
  H    -41.597600   32.477400   82.024600
  C    -41.180600   32.163300   79.941400
  H    -40.394600   31.424100   80.226000
  H    -40.907800   32.631300   78.957800
  H    -42.088700   31.581500   79.725000
  H    -34.422400   36.431300   83.013200
  H    -42.240100   36.264800   85.105200

 Total Charge           Charge          ....    0
 Multiplicity           Mult            ....    1
 Number of Electrons    NEL             ....  134
 Basis Dimension        Dim             ....  322

ORBITAL ENERGIES
----------------

  NO   OCC          E(Eh)            E(eV)
   0   2.0000     -88.966482     -2420.9010
   1   2.0000     -88.960778     -2420.7458
   2   2.0000     -10.327956      -281.0380
   3   2.0000     -10.324348      -280.9398
   4   2.0000     -10.314890      -280.6824
   5   2.0000     -10.313462      -280.6436
   6   2.0000     -10.313128      -280.6345
   7   2.0000     -10.302941      -280.3573
   8   2.0000     -10.299217      -280.2559
   9   2.0000     -10.295783      -280.1625
  10   2.0000     -10.295099      -280.1439
  11   2.0000     -10.294746      -280.1343
  12   2.0000     -10.290897      -280.0295
  13   2.0000     -10.290187      -280.0102
  14   2.0000     -10.287475      -279.9364
  15   2.0000     -10.278108      -279.6815
  16   2.0000      -8.081223      -219.9013
  17   2.0000      -8.076194      -219.7644
  18   2.0000      -6.039771      -164.3505
  19   2.0000      -6.035747      -164.2410
  20   2.0000      -6.034726      -164.2133
  21   2.0000      -6.031920      -164.1369
  22   2.0000      -6.030571      -164.1002
  23   2.0000      -6.026907      -164.0005
  24   2.0000      -1.007426       -27.4135
  25   2.0000      -0.982857       -26.7449
  26   2.0000      -0.915265       -24.9056
  27   2.0000      -0.906769       -24.6744
  28   2.0000      -0.877654       -23.8822
  29   2.0000      -0.850655       -23.1475
  30   2.0000      -0.840134       -22.8612
  31   2.0000      -0.816155       -22.2087
  32   2.0000      -0.783581       -21.3223
  33   2.0000      -0.769979       -20.9522
  34   2.0000      -0.711019       -19.3478
  35   2.0000      -0.703893       -19.1539
  36   2.0000      -0.693011       -18.8578
  37   2.0000      -0.652684       -17.7604
  38   2.0000      -0.634494       -17.2654
  39   2.0000      -0.620352       -16.8806
  40   2.0000      -0.599279       -16.3072
  41   2.0000      -0.572624       -15.5819
  42   2.0000      -0.565218       -15.3804
  43   2.0000      -0.558526       -15.1983
  44   2.0000      -0.531069       -14.4511
  45   2.0000      -0.518583       -14.1113
  46   2.0000      -0.516538       -14.0557
  47   2.0000      -0.507858       -13.8195
  48   2.0000      -0.505919       -13.7668
  49   2.0000      -0.504102       -13.7173
  50   2.0000      -0.496076       -13.4989
  51   2.0000      -0.474396       -12.9090
  52   2.0000      -0.472532       -12.8582
  53   2.0000      -0.468688       -12.7537
  54   2.0000      -0.461749       -12.5648
  55   2.0000      -0.452835       -12.3223
  56   2.0000      -0.444258       -12.0889
  57   2.0000      -0.439362       -11.9557
  58   2.0000      -0.428905       -11.6711
  59   2.0000      -0.421077       -11.4581
  60   2.0000      -0.417180       -11.3520
  61   2.0000      -0.414614       -11.2822
  62   2.0000      -0.413124       -11.2417
  63   2.0000      -0.356657        -9.7051
  64   2.0000      -0.332709        -9.0535
  65   2.0000      -0.325742        -8.8639
  66   2.0000      -0.285646        -7.7728
  67   0.0000       0.020690         0.5630
  68   0.0000       0.077972         2.1217
  69   0.0000       0.110683         3.0118
  70   0.0000       0.122209         3.3255
  71   0.0000       0.131021         3.5653

MULLIKEN ATOMIC CHARGES
-----------------------
   0 S :    0.115758
   1 C :   -0.124317
   2 C :   -0.075692
   3 C :    0.012962
   4 C :   -0.153687
   5 H :    0.003184
   6 C :    0.011975
   7 H :    0.027185
   8 H :    0.029795
   9 C :   -0.087270
  10 H :    0.046692
  11 H :    0.031982
  12 C :   -0.016342
  13 H :    0.016962
  14 H :    0.025133
  15 H :    0.041003
  16 S :    0.093936
  17 C :   -0.084589
  18 C :   -0.049339
  19 C :   -0.057662
  20 C :   -0.136410
  21 H :    0.017572
  22 C :    0.112057
  23 H :    0.041322
  24 H :    0.023236
  25 C :   -0.105052
  26 H :    0.033724
  27 H :    0.026161
  28 C :   -0.062668
  29 H :    0.041522
  30 H :    0.040858
  31 H :    0.033681
  32 H :    0.063927
  33 H :    0.062402
Sum of atomic charges:    0.0000000

LOEWDIN ATOMIC CHARGES
----------------------
   0 S :    0.400465
   1 C :   -0.211802
   2 C :   -0.066993
   3 C :   -0.056375
   4 C :   -0.182494
   5 H :    0.027499
   6 C :   -0.033911
   7 H :    0.023384
   8 H :    0.029445
   9 C :   -0.045853
  10 H :    0.034651
  11 H :    0.026134
  12 C :   -0.066770
  13 H :    0.023212
  14 H :    0.026479
  15 H :    0.026816
  16 S :    0.404818
  17 C :   -0.189711
  18 C :   -0.080179
  19 C :   -0.041256
  20 C :   -0.205242
  21 H :    0.031755
  22 C :   -0.034304
  23 H :    0.042143
  24 H :    0.026038
  25 C :   -0.049514
  26 H :    0.028163
  27 H :    0.025616
  28 C :   -0.071293
  29 H :    0.031041
  30 H :    0.028323
  31 H :    0.026771
  32 H :    0.037044
  33 H :    0.035901

  Mayer bond orders larger than 0.100000
B(  0-S ,  1-C ) :   1.1556 B(  0-S ,  4-C ) :   1.1188 B(  1-C ,  2-C ) :   1.6120
B(  1-C , 32-H ) :   0.9540 B(  2-C ,  3-C ) :   1.2400 B(  2-C ,  6-C ) :   1.0322
B(  3-C ,  4-C ) :   1.5793 B(  3-C ,  5-H ) :   0.9936 B(  4-C , 20-C ) :   1.1029
B(  6-C ,  7-H ) :   0.9459 B(  6-C ,  8-H ) :   0.9454 B(  6-C ,  9-C ) :   1.0448
B(  9-C , 10-H ) :   0.9618 B(  9-C , 11-H ) :   0.9663 B(  9-C , 12-C ) :   1.0572
B( 12-C , 13-H ) :   0.9741 B( 12-C , 14-H ) :   0.9765 B( 12-C , 15-H ) :   0.9765
B( 16-S , 17-C ) :   1.1424 B( 16-S , 20-C ) :   1.1370 B( 17-C , 18-C ) :   1.6455
B( 17-C , 33-H ) :   0.9611 B( 18-C , 19-C ) :   1.2074 B( 18-C , 21-H ) :   0.9888
B( 19-C , 20-C ) :   1.5717 B( 19-C , 22-C ) :   1.0296 B( 22-C , 23-H ) :   0.9350
B( 22-C , 24-H ) :   0.9152 B( 22-C , 25-C ) :   1.0821 B( 25-C , 26-H ) :   0.9453
B( 25-C , 27-H ) :   0.9529 B( 25-C , 28-C ) :   1.0753 B( 28-C , 29-H ) :   0.9747
B( 28-C , 30-H ) :   0.9776 B( 28-C , 31-H ) :   0.9741

Dispersion correction           -0.013523975
FINAL SINGLE POINT ENERGY     -1339.869555082089

DIPOLE MOMENT
-------------
                                X             Y             Z
Electronic contribution:     -2.37102       2.29369      25.79541
Nuclear contribution   :      2.19563      -2.21977     -26.41862
                        -----------------------------------------
Total Dipole Moment    :     -0.17539       0.07392      -0.62321
                        -----------------------------------------
Magnitude (a.u.)       :      0.65162
Magnitude (Debye)      :      1.65630

Rotational constants in cm-1:     0.018155     0.007703     0.006207
Rotational constants in MHz :   544.281013   230.938364   186.067753

                             ****ORCA TERMINATED NORMALLY****
TOTAL RUN TIME: 0 days 0 hours 0 minutes 28 seconds 783 msec
