                         Program Version 4.2.1 -  RELEASE  -
|  1> ! wB97X-D3 SP def2-SVP
|  2> %pal
|  3> nprocs 16
|  4> end
|  5>
|  6> * xyz 0 1
|  7> S 	 -38.1304 	 39.3795 	 96.1396
|  8> C 	 -37.4879 	 40.4512 	 97.3713
|  9> C 	 -36.3231 	 41.1289 	 97.0017
| 10> C 	 -36.0925 	 40.9626 	 95.6015
| 11> C 	 -36.9659 	 40.0809 	 94.9563
| 12> H 	 -35.2983 	 41.3842 	 94.9472
| 13> C 	 -35.618 	 42.157 	 97.8936
| 14> H 	 -34.6151 	 42.2853 	 97.5773
| 15> H 	 -35.5484 	 41.7878 	 98.8674
| 16> C 	 -36.2587 	 43.4867 	 98.1131
| 17> H 	 -36.08 	 44.0377 	 97.2376
| 18> H 	 -37.3953 	 43.3213 	 98.1784
| 19> C 	 -35.6177 	 44.3591 	 99.1888
| 20> H 	 -34.5914 	 44.5026 	 98.8639
| 21> H 	 -36.1511 	 45.3158 	 99.2894
| 22> H 	 -35.5263 	 43.8708 	 100.111
| 23> S 	 -36.4354 	 40.539 	 92.2807
| 24> C 	 -36.087 	 39.2777 	 91.2163
| 25> C 	 -35.9348 	 38.0742 	 91.8425
| 26> C 	 -36.2612 	 38.1548 	 93.2557
| 27> C 	 -36.6489 	 39.4436 	 93.6713
| 28> H 	 -35.4719 	 37.2761 	 91.2885
| 29> C 	 -36.2726 	 36.8859 	 94.0442
| 30> H 	 -37.215 	 36.7603 	 94.5963
| 31> H 	 -35.4741 	 36.9175 	 94.8474
| 32> C 	 -35.9887 	 35.5754 	 93.2826
| 33> H 	 -34.966 	 35.6762 	 92.8869
| 34> H 	 -36.635 	 35.5333 	 92.3618
| 35> C 	 -36.2209 	 34.3465 	 94.2645
| 36> H 	 -35.9075 	 33.4225 	 93.7977
| 37> H 	 -37.324 	 34.3093 	 94.5984
| 38> H 	 -35.6853 	 34.4135 	 95.252
| 39> H 	 -37.9028 	 40.5195 	 98.3386
| 40> H 	 -35.8883 	 39.4141 	 90.1785
| 41> *
| 42>
| 43>                          ****END OF INPUT****

CARTESIAN COORDINATES (ANGSTROEM)
---------------------------------
  S    -38.130400   39.379500   96.139600
  C    -37.487900   40.451200   97.371300
  C    -36.323100   41.128900   97.001700
  C    -36.092500   40.962600   95.601500
  C    -36.965900   40.080900   94.956300
  H    -35.298300   41.384200   94.947200
  C    -35.618000   42.157000   97.893600
  H    -34.615100   42.285300   97.577300
  H    -35.548400   41.787800   98.867400
  C    -36.258700   43.486700   98.113100
  H    -36.080000   44.037700   97.237600
  H    -37.395300   43.321300   98.178400
  C    -35.617700   44.359100   99.188800
  H    -34.591400   44.502600   98.863900
  H    -36.151100   45.315800   99.289400
  H    -35.526300   43.870800  100.111000
  S    -36.435400   40.539000   92.280700
  C    -36.087000   39.277700   91.216300
  C    -35.934800   38.074200   91.842500
  C    -36.261200   38.154800   93.255700
  C    -36.648900   39.443600   93.671300
  H    -35.471900   37.276100   91.288500
  C    -36.272600   36.885900   94.044200
  H    -37.215000   36.760300   94.596300
  H    -35.474100   36.917500   94.847400
  C    -35.988700   35.575400   93.282600
  H    -34.966000   35.676200   92.886900
  H    -36.635000   35.533300   92.361800
  C    -36.220900   34.346500   94.264500
  H    -35.907500   33.422500   93.797700
  H    -37.324000   34.309300   94.598400
  H    -35.685300   34.413500   95.252000
  H    -37.902800   40.519500   98.338600
  H    -35.888300   39.414100   90.178500

 Total Charge           Charge          ....    0
 Multiplicity           Mult            ....    1
 Number of Electrons    NEL             ....  134
 Basis Dimension        Dim             ....  322

ORBITAL ENERGIES
----------------

  NO   OCC          E(Eh)            E(eV)
   0   2.0000     -88.972199     -2421.0566
   1   2.0000     -88.961482     -2420.7650
   2   2.0000     -10.334454      -281.2148
   3   2.0000     -10.330076      -281.0957
   4   2.0000     -10.317686      -280.7585
   5   2.0000     -10.308086      -280.4973
   6   2.0000     -10.307908      -280.4924
   7   2.0000     -10.306641      -280.4580
   8   2.0000     -10.302167      -280.3362
   9   2.0000     -10.295587      -280.1572
  10   2.0000     -10.291990      -280.0593
  11   2.0000     -10.290578      -280.0209
  12   2.0000     -10.289161      -279.9823
  13   2.0000     -10.283658      -279.8326
  14   2.0000     -10.282519      -279.8016
  15   2.0000     -10.277317      -279.6600
  16   2.0000      -8.085540      -220.0187
  17   2.0000      -8.077005      -219.7865
  18   2.0000      -6.044063      -164.4673
  19   2.0000      -6.040283      -164.3645
  20   2.0000      -6.036353      -164.2575
  21   2.0000      -6.035474      -164.2336
  22   2.0000      -6.031339      -164.1211
  23   2.0000      -6.027837      -164.0258
  24   2.0000      -1.002168       -27.2704
  25   2.0000      -0.982210       -26.7273
  26   2.0000      -0.919389       -25.0178
  27   2.0000      -0.905146       -24.6303
  28   2.0000      -0.870332       -23.6829
  29   2.0000      -0.851150       -23.1610
  30   2.0000      -0.840567       -22.8730
  31   2.0000      -0.813233       -22.1292
  32   2.0000      -0.784421       -21.3452
  33   2.0000      -0.767737       -20.8912
  34   2.0000      -0.707833       -19.2611
  35   2.0000      -0.700598       -19.0643
  36   2.0000      -0.695719       -18.9315
  37   2.0000      -0.655628       -17.8405
  38   2.0000      -0.635760       -17.2999
  39   2.0000      -0.617945       -16.8151
  40   2.0000      -0.600929       -16.3521
  41   2.0000      -0.578022       -15.7288
  42   2.0000      -0.566634       -15.4189
  43   2.0000      -0.559889       -15.2354
  44   2.0000      -0.526827       -14.3357
  45   2.0000      -0.520672       -14.1682
  46   2.0000      -0.512699       -13.9512
  47   2.0000      -0.511044       -13.9062
  48   2.0000      -0.509619       -13.8674
  49   2.0000      -0.499747       -13.5988
  50   2.0000      -0.480511       -13.0754
  51   2.0000      -0.474783       -12.9195
  52   2.0000      -0.470718       -12.8089
  53   2.0000      -0.466388       -12.6911
  54   2.0000      -0.456858       -12.4317
  55   2.0000      -0.452713       -12.3190
  56   2.0000      -0.446574       -12.1519
  57   2.0000      -0.440879       -11.9969
  58   2.0000      -0.426978       -11.6187
  59   2.0000      -0.425920       -11.5899
  60   2.0000      -0.420952       -11.4547
  61   2.0000      -0.416794       -11.3415
  62   2.0000      -0.413301       -11.2465
  63   2.0000      -0.348758        -9.4902
  64   2.0000      -0.332674        -9.0525
  65   2.0000      -0.325900        -8.8682
  66   2.0000      -0.288733        -7.8568
  67   0.0000       0.029173         0.7938
  68   0.0000       0.063419         1.7257
  69   0.0000       0.104865         2.8535
  70   0.0000       0.116887         3.1807
  71   0.0000       0.129083         3.5125

MULLIKEN ATOMIC CHARGES
-----------------------
   0 S :    0.110802
   1 C :   -0.109279
   2 C :   -0.066392
   3 C :    0.015173
   4 C :   -0.142688
   5 H :    0.033096
   6 C :    0.097832
   7 H :    0.007121
   8 H :   -0.002302
   9 C :   -0.075911
  10 H :    0.012283
  11 H :    0.036706
  12 C :   -0.022654
  13 H :    0.022248
  14 H :    0.049778
  15 H :    0.016300
  16 S :    0.095990
  17 C :   -0.060663
  18 C :   -0.063501
  19 C :   -0.007225
  20 C :   -0.171297
  21 H :    0.023481
  22 C :    0.009169
  23 H :    0.032327
  24 H :    0.041806
  25 C :   -0.113544
  26 H :    0.036969
  27 H :    0.044203
  28 C :   -0.057966
  29 H :    0.039156
  30 H :    0.047671
  31 H :    0.038781
  32 H :    0.037155
  33 H :    0.045374
Sum of atomic charges:    0.0000000

LOEWDIN ATOMIC CHARGES
----------------------
   0 S :    0.392781
   1 C :   -0.177059
   2 C :   -0.058504
   3 C :   -0.054804
   4 C :   -0.190774
   5 H :    0.037050
   6 C :   -0.029470
   7 H :    0.024920
   8 H :    0.021617
   9 C :   -0.043240
  10 H :    0.016762
  11 H :    0.029769
  12 C :   -0.056278
  13 H :    0.027657
  14 H :    0.035325
  15 H :    0.013454
  16 S :    0.418489
  17 C :   -0.196754
  18 C :   -0.082428
  19 C :   -0.053940
  20 C :   -0.193478
  21 H :    0.032830
  22 C :   -0.046490
  23 H :    0.027628
  24 H :    0.040262
  25 C :   -0.047448
  26 H :    0.022670
  27 H :    0.027480
  28 C :   -0.072171
  29 H :    0.023316
  30 H :    0.036588
  31 H :    0.030680
  32 H :    0.018238
  33 H :    0.025325

  Mayer bond orders larger than 0.100000
B(  0-S ,  1-C ) :   1.1573 B(  0-S ,  4-C ) :   1.1269 B(  1-C ,  2-C ) :   1.5888
B(  1-C , 32-H ) :   0.9726 B(  2-C ,  3-C ) :   1.2514 B(  2-C ,  6-C ) :   1.0375
B(  3-C ,  4-C ) :   1.5834 B(  3-C ,  5-H ) :   0.9782 B(  4-C , 20-C ) :   1.0337
B(  6-C ,  7-H ) :   0.9333 B(  6-C ,  8-H ) :   0.9320 B(  6-C ,  9-C ) :   1.0688
B(  9-C , 10-H ) :   0.9529 B(  9-C , 11-H ) :   0.9533 B(  9-C , 12-C ) :   1.0756
B( 12-C , 13-H ) :   0.9711 B( 12-C , 14-H ) :   0.9724 B( 12-C , 15-H ) :   0.9776
B( 16-S , 17-C ) :   1.1787 B( 16-S , 20-C ) :   1.1330 B( 17-C , 18-C ) :   1.5971
B( 17-C , 33-H ) :   0.9598 B( 18-C , 19-C ) :   1.2497 B( 18-C , 21-H ) :   0.9863
B( 19-C , 20-C ) :   1.5826 B( 19-C , 22-C ) :   1.0307 B( 22-C , 23-H ) :   0.9460
B( 22-C , 24-H ) :   0.9192 B( 22-C , 25-C ) :   1.0877 B( 25-C , 26-H ) :   0.9465
B( 25-C , 27-H ) :   0.9502 B( 25-C , 28-C ) :   1.0632 B( 28-C , 29-H ) :   0.9746
B( 28-C , 30-H ) :   0.9742 B( 28-C , 31-H ) :   0.9750

Dispersion correction           -0.013293252
FINAL SINGLE POINT ENERGY     -1339.865412265650

DIPOLE MOMENT
-------------
                                X             Y             Z
Electronic contribution:     -8.45822       3.26674     -13.29090
Nuclear contribution   :      8.93421      -3.34266      13.58001
                        -----------------------------------------
Total Dipole Moment    :      0.47599      -0.07592       0.28911
                        -----------------------------------------
Magnitude (a.u.)       :      0.56206
Magnitude (Debye)      :      1.42865

Rotational constants in cm-1:     0.022247     0.006772     0.005694
Rotational constants in MHz :   666.947961   203.031725   170.705226

                             ****ORCA TERMINATED NORMALLY****
TOTAL RUN TIME: 0 days 0 hours 0 minutes 28 seconds 351 msec
