                         Program Version 4.2.1 -  RELEASE  -
|  1> ! wB97X-D3 SP def2-SVP
|  2> %pal
|  3> nprocs 16
|  4> end
|  5>
|  6> * xyz 0 1
|  7> S 	 -0.748097 	 -19.6426 	 61.5983
|  8> C 	 -0.150998 	 -20.0299 	 59.9966
|  9> C 	 -1.14154 	 -20.5465 	 59.1381
| 10> C 	 -2.37973 	 -20.5289 	 59.8239
| 11> C 	 -2.36778 	 -20.1211 	 61.1404
| 12> H 	 -3.27409 	 -20.7823 	 59.3707
| 13> C 	 -0.989286 	 -20.9382 	 57.7607
| 14> H 	 -0.131384 	 -20.3188 	 57.3054
| 15> H 	 -1.91231 	 -20.5111 	 57.2657
| 16> C 	 -0.830317 	 -22.4246 	 57.4427
| 17> H 	 -0.785246 	 -22.5658 	 56.3772
| 18> H 	 0.164838 	 -22.8275 	 57.7825
| 19> C 	 -1.94943 	 -23.374 	 57.9129
| 20> H 	 -2.80055 	 -23.2427 	 57.2522
| 21> H 	 -1.66975 	 -24.4091 	 57.9102
| 22> H 	 -2.20782 	 -23.3069 	 58.9561
| 23> S 	 -3.5513 	 -20.6338 	 63.6208
| 24> C 	 -5.22695 	 -20.3408 	 63.8307
| 25> C 	 -5.75438 	 -19.7193 	 62.7428
| 26> C 	 -4.84198 	 -19.4707 	 61.6591
| 27> C 	 -3.57011 	 -19.9447 	 61.9952
| 28> H 	 -6.76646 	 -19.4315 	 62.7183
| 29> C 	 -5.27029 	 -18.7537 	 60.4393
| 30> H 	 -6.3761 	 -18.9806 	 60.3037
| 31> H 	 -4.68289 	 -19.1767 	 59.6088
| 32> C 	 -4.97273 	 -17.295 	 60.4672
| 33> H 	 -3.96925 	 -17.064 	 60.1099
| 34> H 	 -5.13525 	 -16.8642 	 61.4372
| 35> C 	 -5.78711 	 -16.4897 	 59.512
| 36> H 	 -6.85537 	 -16.4769 	 59.5739
| 37> H 	 -5.57254 	 -16.7984 	 58.4969
| 38> H 	 -5.4175 	 -15.4621 	 59.6655
| 39> H 	 0.859943 	 -19.9202 	 59.6584
| 40> H 	 -5.81631 	 -20.4334 	 64.7441
| 41> *
| 42>
| 43>                          ****END OF INPUT****

CARTESIAN COORDINATES (ANGSTROEM)
---------------------------------
  S     -0.748097  -19.642600   61.598300
  C     -0.150998  -20.029900   59.996600
  C     -1.141540  -20.546500   59.138100
  C     -2.379730  -20.528900   59.823900
  C     -2.367780  -20.121100   61.140400
  H     -3.274090  -20.782300   59.370700
  C     -0.989286  -20.938200   57.760700
  H     -0.131384  -20.318800   57.305400
  H     -1.912310  -20.511100   57.265700
  C     -0.830317  -22.424600   57.442700
  H     -0.785246  -22.565800   56.377200
  H      0.164838  -22.827500   57.782500
  C     -1.949430  -23.374000   57.912900
  H     -2.800550  -23.242700   57.252200
  H     -1.669750  -24.409100   57.910200
  H     -2.207820  -23.306900   58.956100
  S     -3.551300  -20.633800   63.620800
  C     -5.226950  -20.340800   63.830700
  C     -5.754380  -19.719300   62.742800
  C     -4.841980  -19.470700   61.659100
  C     -3.570110  -19.944700   61.995200
  H     -6.766460  -19.431500   62.718300
  C     -5.270290  -18.753700   60.439300
  H     -6.376100  -18.980600   60.303700
  H     -4.682890  -19.176700   59.608800
  C     -4.972730  -17.295000   60.467200
  H     -3.969250  -17.064000   60.109900
  H     -5.135250  -16.864200   61.437200
  C     -5.787110  -16.489700   59.512000
  H     -6.855370  -16.476900   59.573900
  H     -5.572540  -16.798400   58.496900
  H     -5.417500  -15.462100   59.665500
  H      0.859943  -19.920200   59.658400
  H     -5.816310  -20.433400   64.744100

 Total Charge           Charge          ....    0
 Multiplicity           Mult            ....    1
 Number of Electrons    NEL             ....  134
 Basis Dimension        Dim             ....  322

ORBITAL ENERGIES
----------------

  NO   OCC          E(Eh)            E(eV)
   0   2.0000     -88.968986     -2420.9692
   1   2.0000     -88.963955     -2420.8323
   2   2.0000     -10.329128      -281.0699
   3   2.0000     -10.328434      -281.0510
   4   2.0000     -10.314287      -280.6660
   5   2.0000     -10.312250      -280.6106
   6   2.0000     -10.300559      -280.2925
   7   2.0000     -10.300441      -280.2893
   8   2.0000     -10.296914      -280.1933
   9   2.0000     -10.291565      -280.0477
  10   2.0000     -10.291117      -280.0355
  11   2.0000     -10.285399      -279.8799
  12   2.0000     -10.285364      -279.8790
  13   2.0000     -10.276489      -279.6375
  14   2.0000     -10.273209      -279.5482
  15   2.0000     -10.270311      -279.4694
  16   2.0000      -8.083353      -219.9592
  17   2.0000      -8.079149      -219.8448
  18   2.0000      -6.041877      -164.4078
  19   2.0000      -6.037853      -164.2983
  20   2.0000      -6.037656      -164.2930
  21   2.0000      -6.034205      -164.1991
  22   2.0000      -6.033579      -164.1820
  23   2.0000      -6.029901      -164.0819
  24   2.0000      -1.005817       -27.3697
  25   2.0000      -0.986457       -26.8429
  26   2.0000      -0.921881       -25.0857
  27   2.0000      -0.915976       -24.9250
  28   2.0000      -0.866391       -23.5757
  29   2.0000      -0.858332       -23.3564
  30   2.0000      -0.849532       -23.1169
  31   2.0000      -0.816618       -22.2213
  32   2.0000      -0.786119       -21.3914
  33   2.0000      -0.772412       -21.0184
  34   2.0000      -0.707788       -19.2599
  35   2.0000      -0.703465       -19.1422
  36   2.0000      -0.689403       -18.7596
  37   2.0000      -0.662758       -18.0346
  38   2.0000      -0.639765       -17.4089
  39   2.0000      -0.620309       -16.8795
  40   2.0000      -0.598184       -16.2774
  41   2.0000      -0.573898       -15.6166
  42   2.0000      -0.571384       -15.5481
  43   2.0000      -0.548020       -14.9124
  44   2.0000      -0.545821       -14.8525
  45   2.0000      -0.532049       -14.4778
  46   2.0000      -0.523462       -14.2441
  47   2.0000      -0.511888       -13.9292
  48   2.0000      -0.508936       -13.8489
  49   2.0000      -0.495710       -13.4890
  50   2.0000      -0.493024       -13.4159
  51   2.0000      -0.478995       -13.0341
  52   2.0000      -0.472178       -12.8486
  53   2.0000      -0.461392       -12.5551
  54   2.0000      -0.456605       -12.4249
  55   2.0000      -0.445583       -12.1249
  56   2.0000      -0.442104       -12.0302
  57   2.0000      -0.439275       -11.9533
  58   2.0000      -0.436046       -11.8654
  59   2.0000      -0.428319       -11.6552
  60   2.0000      -0.418504       -11.3881
  61   2.0000      -0.416336       -11.3291
  62   2.0000      -0.412520       -11.2253
  63   2.0000      -0.346530        -9.4296
  64   2.0000      -0.332128        -9.0377
  65   2.0000      -0.328494        -8.9388
  66   2.0000      -0.289422        -7.8756
  67   0.0000       0.031355         0.8532
  68   0.0000       0.072253         1.9661
  69   0.0000       0.109670         2.9843
  70   0.0000       0.118575         3.2266
  71   0.0000       0.137193         3.7332

MULLIKEN ATOMIC CHARGES
-----------------------
   0 S :    0.119175
   1 C :   -0.112340
   2 C :   -0.072938
   3 C :    0.026917
   4 C :   -0.129065
   5 H :   -0.018169
   6 C :    0.017993
   7 H :    0.039302
   8 H :    0.033613
   9 C :   -0.042492
  10 H :    0.024988
  11 H :    0.029280
  12 C :   -0.055680
  13 H :    0.031724
  14 H :    0.024437
  15 H :    0.038814
  16 S :    0.106705
  17 C :   -0.074485
  18 C :   -0.036498
  19 C :   -0.051175
  20 C :   -0.156616
  21 H :   -0.004963
  22 C :    0.081228
  23 H :    0.033596
  24 H :    0.011218
  25 C :   -0.041190
  26 H :    0.033814
  27 H :    0.023934
  28 C :   -0.046994
  29 H :    0.023517
  30 H :    0.015937
  31 H :    0.031931
  32 H :    0.034316
  33 H :    0.060169
Sum of atomic charges:    0.0000000

LOEWDIN ATOMIC CHARGES
----------------------
   0 S :    0.409159
   1 C :   -0.192634
   2 C :   -0.067801
   3 C :   -0.055799
   4 C :   -0.196643
   5 H :    0.014712
   6 C :   -0.046010
   7 H :    0.043454
   8 H :    0.039282
   9 C :   -0.039147
  10 H :    0.023779
  11 H :    0.028149
  12 C :   -0.069034
  13 H :    0.024698
  14 H :    0.027961
  15 H :    0.026303
  16 S :    0.411538
  17 C :   -0.198481
  18 C :   -0.070755
  19 C :   -0.053130
  20 C :   -0.196006
  21 H :    0.021375
  22 C :   -0.038643
  23 H :    0.038599
  24 H :    0.033762
  25 C :   -0.038289
  26 H :    0.033903
  27 H :    0.021826
  28 C :   -0.061806
  29 H :    0.015407
  30 H :    0.019953
  31 H :    0.031404
  32 H :    0.022176
  33 H :    0.036741

  Mayer bond orders larger than 0.100000
B(  0-S ,  1-C ) :   1.1504 B(  0-S ,  4-C ) :   1.1490 B(  1-C ,  2-C ) :   1.5850
B(  1-C , 32-H ) :   0.9666 B(  2-C ,  3-C ) :   1.2580 B(  2-C ,  6-C ) :   1.0282
B(  3-C ,  4-C ) :   1.5673 B(  3-C ,  5-H ) :   1.0001 B(  4-C , 20-C ) :   1.0142
B(  6-C ,  7-H ) :   0.9361 B(  6-C ,  8-H ) :   0.9383 B(  6-C ,  9-C ) :   1.0688
B(  9-C , 10-H ) :   0.9546 B(  9-C , 11-H ) :   0.9551 B(  9-C , 12-C ) :   1.0798
B( 12-C , 13-H ) :   0.9773 B( 12-C , 14-H ) :   0.9700 B( 12-C , 15-H ) :   0.9709
B( 16-S , 17-C ) :   1.1530 B( 16-S , 20-C ) :   1.1449 B( 17-C , 18-C ) :   1.6130
B( 17-C , 33-H ) :   0.9621 B( 18-C , 19-C ) :   1.2480 B( 18-C , 21-H ) :   0.9942
B( 19-C , 20-C ) :   1.5831 B( 19-C , 22-C ) :   1.0582 B( 22-C , 23-H ) :   0.9361
B( 22-C , 24-H ) :   0.9094 B( 22-C , 25-C ) :   1.0768 B( 25-C , 26-H ) :   0.9467
B( 25-C , 27-H ) :   0.9593 B( 25-C , 28-C ) :   1.0881 B( 28-C , 29-H ) :   0.9764
B( 28-C , 30-H ) :   0.9712 B( 28-C , 31-H ) :   0.9746

Dispersion correction           -0.014338460
FINAL SINGLE POINT ENERGY     -1339.880951258716

DIPOLE MOMENT
-------------
                                X             Y             Z
Electronic contribution:      8.05837      -1.75218      23.89089
Nuclear contribution   :     -8.37037       1.82785     -24.49119
                        -----------------------------------------
Total Dipole Moment    :     -0.31200       0.07567      -0.60031
                        -----------------------------------------
Magnitude (a.u.)       :      0.68077
Magnitude (Debye)      :      1.73037

Rotational constants in cm-1:     0.017036     0.008859     0.007544
Rotational constants in MHz :   510.730567   265.600049   226.158887

                             ****ORCA TERMINATED NORMALLY****
TOTAL RUN TIME: 0 days 0 hours 0 minutes 35 seconds 531 msec
