                         Program Version 4.2.1 -  RELEASE  -
|  1> ! wB97X-D3 SP def2-SVP
|  2> %pal
|  3> nprocs 16
|  4> end
|  5>
|  6> * xyz 0 1
|  7> S 	 15.2838 	 23.4624 	 60.6129
|  8> C 	 15.6401 	 21.8716 	 60.0208
|  9> C 	 15.1535 	 20.9192 	 60.92
| 10> C 	 14.2899 	 21.5041 	 61.9302
| 11> C 	 14.1149 	 22.9106 	 61.7665
| 12> H 	 13.7633 	 21.0246 	 62.7642
| 13> C 	 15.2476 	 19.3817 	 60.7449
| 14> H 	 14.7557 	 19.0239 	 59.7758
| 15> H 	 14.6841 	 18.9379 	 61.5667
| 16> C 	 16.6938 	 18.7995 	 60.7901
| 17> H 	 16.6292 	 17.7819 	 60.4338
| 18> H 	 17.3362 	 19.3103 	 60.0511
| 19> C 	 17.401 	 19.0441 	 62.1138
| 20> H 	 17.5041 	 20.1127 	 62.2372
| 21> H 	 16.8656 	 18.6412 	 63.0284
| 22> H 	 18.3851 	 18.585 	 62.1589
| 23> S 	 13.8165 	 24.5693 	 63.9136
| 24> C 	 12.611 	 25.8118 	 63.829
| 25> C 	 11.7737 	 25.5974 	 62.7569
| 26> C 	 12.1847 	 24.5124 	 61.9371
| 27> C 	 13.2792 	 23.8596 	 62.4746
| 28> H 	 10.921 	 26.225 	 62.6217
| 29> C 	 11.4868 	 24.0731 	 60.6396
| 30> H 	 11.7065 	 22.9782 	 60.4623
| 31> H 	 12.0516 	 24.6024 	 59.8858
| 32> C 	 10.0409 	 24.3374 	 60.4852
| 33> H 	 9.80904 	 24.0782 	 59.4356
| 34> H 	 9.65327 	 25.267 	 60.6065
| 35> C 	 9.18859 	 23.3381 	 61.2502
| 36> H 	 9.16313 	 23.6387 	 62.2924
| 37> H 	 9.67269 	 22.367 	 61.2489
| 38> H 	 8.21595 	 23.2919 	 60.9277
| 39> H 	 16.2317 	 21.6896 	 59.1462
| 40> H 	 12.3521 	 26.6046 	 64.5192
| 41> *
| 42>
| 43>                          ****END OF INPUT****

CARTESIAN COORDINATES (ANGSTROEM)
---------------------------------
  S     15.283800   23.462400   60.612900
  C     15.640100   21.871600   60.020800
  C     15.153500   20.919200   60.920000
  C     14.289900   21.504100   61.930200
  C     14.114900   22.910600   61.766500
  H     13.763300   21.024600   62.764200
  C     15.247600   19.381700   60.744900
  H     14.755700   19.023900   59.775800
  H     14.684100   18.937900   61.566700
  C     16.693800   18.799500   60.790100
  H     16.629200   17.781900   60.433800
  H     17.336200   19.310300   60.051100
  C     17.401000   19.044100   62.113800
  H     17.504100   20.112700   62.237200
  H     16.865600   18.641200   63.028400
  H     18.385100   18.585000   62.158900
  S     13.816500   24.569300   63.913600
  C     12.611000   25.811800   63.829000
  C     11.773700   25.597400   62.756900
  C     12.184700   24.512400   61.937100
  C     13.279200   23.859600   62.474600
  H     10.921000   26.225000   62.621700
  C     11.486800   24.073100   60.639600
  H     11.706500   22.978200   60.462300
  H     12.051600   24.602400   59.885800
  C     10.040900   24.337400   60.485200
  H      9.809040   24.078200   59.435600
  H      9.653270   25.267000   60.606500
  C      9.188590   23.338100   61.250200
  H      9.163130   23.638700   62.292400
  H      9.672690   22.367000   61.248900
  H      8.215950   23.291900   60.927700
  H     16.231700   21.689600   59.146200
  H     12.352100   26.604600   64.519200

 Total Charge           Charge          ....    0
 Multiplicity           Mult            ....    1
 Number of Electrons    NEL             ....  134
 Basis Dimension        Dim             ....  322

ORBITAL ENERGIES
----------------

  NO   OCC          E(Eh)            E(eV)
   0   2.0000     -88.966720     -2420.9075
   1   2.0000     -88.963717     -2420.8258
   2   2.0000     -10.328648      -281.0568
   3   2.0000     -10.315642      -280.7029
   4   2.0000     -10.314803      -280.6801
   5   2.0000     -10.314703      -280.6773
   6   2.0000     -10.307680      -280.4862
   7   2.0000     -10.301853      -280.3277
   8   2.0000     -10.300132      -280.2808
   9   2.0000     -10.299650      -280.2677
  10   2.0000     -10.289360      -279.9877
  11   2.0000     -10.289251      -279.9848
  12   2.0000     -10.286335      -279.9054
  13   2.0000     -10.276065      -279.6259
  14   2.0000     -10.274230      -279.5760
  15   2.0000     -10.262673      -279.2615
  16   2.0000      -8.082526      -219.9367
  17   2.0000      -8.078903      -219.8381
  18   2.0000      -6.040965      -164.3830
  19   2.0000      -6.037245      -164.2818
  20   2.0000      -6.036687      -164.2666
  21   2.0000      -6.033496      -164.1798
  22   2.0000      -6.033278      -164.1738
  23   2.0000      -6.029879      -164.0813
  24   2.0000      -1.012412       -27.5491
  25   2.0000      -0.985275       -26.8107
  26   2.0000      -0.917430       -24.9645
  27   2.0000      -0.904957       -24.6251
  28   2.0000      -0.869901       -23.6712
  29   2.0000      -0.851903       -23.1815
  30   2.0000      -0.841249       -22.8915
  31   2.0000      -0.812530       -22.1101
  32   2.0000      -0.782883       -21.3033
  33   2.0000      -0.771629       -20.9971
  34   2.0000      -0.705758       -19.2047
  35   2.0000      -0.699133       -19.0244
  36   2.0000      -0.697200       -18.9718
  37   2.0000      -0.655072       -17.8254
  38   2.0000      -0.643253       -17.5038
  39   2.0000      -0.608276       -16.5520
  40   2.0000      -0.597854       -16.2684
  41   2.0000      -0.574774       -15.6404
  42   2.0000      -0.564120       -15.3505
  43   2.0000      -0.546120       -14.8607
  44   2.0000      -0.540339       -14.7034
  45   2.0000      -0.538518       -14.6538
  46   2.0000      -0.521533       -14.1916
  47   2.0000      -0.510889       -13.9020
  48   2.0000      -0.500842       -13.6286
  49   2.0000      -0.496105       -13.4997
  50   2.0000      -0.487747       -13.2723
  51   2.0000      -0.475923       -12.9505
  52   2.0000      -0.468847       -12.7580
  53   2.0000      -0.466324       -12.6893
  54   2.0000      -0.459631       -12.5072
  55   2.0000      -0.451598       -12.2886
  56   2.0000      -0.439549       -11.9607
  57   2.0000      -0.436563       -11.8795
  58   2.0000      -0.434089       -11.8122
  59   2.0000      -0.431220       -11.7341
  60   2.0000      -0.422813       -11.5053
  61   2.0000      -0.411306       -11.1922
  62   2.0000      -0.403311       -10.9747
  63   2.0000      -0.336605        -9.1595
  64   2.0000      -0.326832        -8.8935
  65   2.0000      -0.314287        -8.5522
  66   2.0000      -0.311403        -8.4737
  67   0.0000       0.037190         1.0120
  68   0.0000       0.056836         1.5466
  69   0.0000       0.112653         3.0654
  70   0.0000       0.126510         3.4425
  71   0.0000       0.133134         3.6228

MULLIKEN ATOMIC CHARGES
-----------------------
   0 S :    0.124029
   1 C :   -0.125403
   2 C :   -0.079170
   3 C :    0.034763
   4 C :   -0.200438
   5 H :    0.023442
   6 C :    0.026702
   7 H :    0.054649
   8 H :    0.022642
   9 C :   -0.063678
  10 H :    0.026607
  11 H :    0.023788
  12 C :   -0.065471
  13 H :    0.043990
  14 H :    0.030999
  15 H :    0.034866
  16 S :    0.137291
  17 C :   -0.086541
  18 C :   -0.045302
  19 C :   -0.044327
  20 C :   -0.178113
  21 H :    0.007800
  22 C :    0.085992
  23 H :    0.045409
  24 H :    0.031644
  25 C :   -0.036038
  26 H :    0.020369
  27 H :    0.004063
  28 C :   -0.013058
  29 H :    0.020034
  30 H :    0.020373
  31 H :    0.016836
  32 H :    0.049663
  33 H :    0.051589
Sum of atomic charges:   -0.0000000

LOEWDIN ATOMIC CHARGES
----------------------
   0 S :    0.426053
   1 C :   -0.199376
   2 C :   -0.068592
   3 C :   -0.064523
   4 C :   -0.203631
   5 H :    0.034806
   6 C :   -0.033987
   7 H :    0.041161
   8 H :    0.026851
   9 C :   -0.045024
  10 H :    0.020385
  11 H :    0.024067
  12 C :   -0.070030
  13 H :    0.027623
  14 H :    0.026982
  15 H :    0.026004
  16 S :    0.445606
  17 C :   -0.192646
  18 C :   -0.073406
  19 C :   -0.048213
  20 C :   -0.244462
  21 H :    0.026681
  22 C :   -0.030313
  23 H :    0.042169
  24 H :    0.034746
  25 C :   -0.038508
  26 H :    0.033324
  27 H :    0.008656
  28 C :   -0.051922
  29 H :    0.023053
  30 H :    0.025204
  31 H :    0.012446
  32 H :    0.025595
  33 H :    0.033222

  Mayer bond orders larger than 0.100000
B(  0-S ,  1-C ) :   1.1614 B(  0-S ,  4-C ) :   1.1706 B(  1-C ,  2-C ) :   1.5666
B(  1-C ,  4-C ) :   0.1074 B(  1-C , 32-H ) :   0.9784 B(  2-C ,  3-C ) :   1.2468
B(  2-C ,  6-C ) :   1.0133 B(  3-C ,  4-C ) :   1.5588 B(  3-C ,  5-H ) :   0.9921
B(  4-C , 20-C ) :   1.0184 B(  6-C ,  7-H ) :   0.9489 B(  6-C ,  8-H ) :   0.9477
B(  6-C ,  9-C ) :   1.0650 B(  9-C , 10-H ) :   0.9587 B(  9-C , 11-H ) :   0.9570
B(  9-C , 12-C ) :   1.0692 B( 12-C , 13-H ) :   0.9729 B( 12-C , 14-H ) :   0.9763
B( 12-C , 15-H ) :   0.9736 B( 16-S , 17-C ) :   1.1709 B( 16-S , 20-C ) :   1.1629
B( 17-C , 18-C ) :   1.5965 B( 17-C , 33-H ) :   0.9626 B( 18-C , 19-C ) :   1.2678
B( 18-C , 21-H ) :   0.9919 B( 19-C , 20-C ) :   1.5767 B( 19-C , 22-C ) :   1.0174
B( 22-C , 23-H ) :   0.9352 B( 22-C , 24-H ) :   0.9164 B( 22-C , 25-C ) :   1.0931
B( 25-C , 26-H ) :   0.9450 B( 25-C , 27-H ) :   0.9517 B( 25-C , 28-C ) :   1.0820
B( 28-C , 29-H ) :   0.9736 B( 28-C , 30-H ) :   0.9723 B( 28-C , 31-H ) :   0.9753

Dispersion correction           -0.014536225
FINAL SINGLE POINT ENERGY     -1339.872653846856

DIPOLE MOMENT
-------------
                                X             Y             Z
Electronic contribution:      7.21280      16.64965       6.95710
Nuclear contribution   :     -7.54358     -16.83063      -7.20540
                        -----------------------------------------
Total Dipole Moment    :     -0.33078      -0.18097      -0.24830
                        -----------------------------------------
Magnitude (a.u.)       :      0.45146
Magnitude (Debye)      :      1.14753

Rotational constants in cm-1:     0.022574     0.007592     0.006629
Rotational constants in MHz :   676.753418   227.599706   198.746748

                             ****ORCA TERMINATED NORMALLY****
TOTAL RUN TIME: 0 days 0 hours 0 minutes 34 seconds 858 msec
