                         Program Version 4.2.1 -  RELEASE  -
|  1> ! wB97X-D3 SP def2-SVP
|  2> %pal
|  3> nprocs 16
|  4> end
|  5>
|  6> * xyz 0 1
|  7> S 	 -15.4502 	 50.3833 	 45.123
|  8> C 	 -15.9455 	 50.9437 	 43.5566
|  9> C 	 -14.8161 	 51.047 	 42.7423
| 10> C 	 -13.5654 	 50.7971 	 43.3772
| 11> C 	 -13.7617 	 50.4495 	 44.6803
| 12> H 	 -12.5785 	 50.7545 	 42.9666
| 13> C 	 -14.7851 	 51.3429 	 41.275
| 14> H 	 -15.3272 	 50.6588 	 40.6838
| 15> H 	 -13.7602 	 51.3366 	 40.9464
| 16> C 	 -15.32 	 52.7906 	 41.0996
| 17> H 	 -16.2948 	 53.0377 	 41.4789
| 18> H 	 -14.7294 	 53.3797 	 41.8118
| 19> C 	 -15.1434 	 53.323 	 39.5887
| 20> H 	 -15.8049 	 52.7371 	 38.9826
| 21> H 	 -15.4445 	 54.3242 	 39.5725
| 22> H 	 -14.0768 	 53.2969 	 39.2347
| 23> S 	 -12.1374 	 48.2647 	 45.2525
| 24> C 	 -11.0881 	 48.2332 	 46.6368
| 25> C 	 -10.8757 	 49.5553 	 47.0155
| 26> C 	 -11.7744 	 50.483 	 46.4346
| 27> C 	 -12.7145 	 49.9102 	 45.5741
| 28> H 	 -10.1376 	 49.7138 	 47.8091
| 29> C 	 -11.8313 	 51.9526 	 46.8553
| 30> H 	 -11.375 	 52.1612 	 47.8619
| 31> H 	 -12.8746 	 52.0881 	 47.0844
| 32> C 	 -11.4339 	 53.0865 	 45.8156
| 33> H 	 -11.6011 	 54.0801 	 46.3041
| 34> H 	 -12.1957 	 52.9812 	 44.9538
| 35> C 	 -10.0007 	 53.0174 	 45.2918
| 36> H 	 -9.2294 	 53.2812 	 46.013
| 37> H 	 -9.90473 	 53.7612 	 44.4979
| 38> H 	 -9.83438 	 52.044 	 44.7849
| 39> H 	 -16.9061 	 51.1116 	 43.2125
| 40> H 	 -10.5275 	 47.4228 	 47.004
| 41> *
| 42>
| 43>                          ****END OF INPUT****

CARTESIAN COORDINATES (ANGSTROEM)
---------------------------------
  S    -15.450200   50.383300   45.123000
  C    -15.945500   50.943700   43.556600
  C    -14.816100   51.047000   42.742300
  C    -13.565400   50.797100   43.377200
  C    -13.761700   50.449500   44.680300
  H    -12.578500   50.754500   42.966600
  C    -14.785100   51.342900   41.275000
  H    -15.327200   50.658800   40.683800
  H    -13.760200   51.336600   40.946400
  C    -15.320000   52.790600   41.099600
  H    -16.294800   53.037700   41.478900
  H    -14.729400   53.379700   41.811800
  C    -15.143400   53.323000   39.588700
  H    -15.804900   52.737100   38.982600
  H    -15.444500   54.324200   39.572500
  H    -14.076800   53.296900   39.234700
  S    -12.137400   48.264700   45.252500
  C    -11.088100   48.233200   46.636800
  C    -10.875700   49.555300   47.015500
  C    -11.774400   50.483000   46.434600
  C    -12.714500   49.910200   45.574100
  H    -10.137600   49.713800   47.809100
  C    -11.831300   51.952600   46.855300
  H    -11.375000   52.161200   47.861900
  H    -12.874600   52.088100   47.084400
  C    -11.433900   53.086500   45.815600
  H    -11.601100   54.080100   46.304100
  H    -12.195700   52.981200   44.953800
  C    -10.000700   53.017400   45.291800
  H     -9.229400   53.281200   46.013000
  H     -9.904730   53.761200   44.497900
  H     -9.834380   52.044000   44.784900
  H    -16.906100   51.111600   43.212500
  H    -10.527500   47.422800   47.004000

 Total Charge           Charge          ....    0
 Multiplicity           Mult            ....    1
 Number of Electrons    NEL             ....  134
 Basis Dimension        Dim             ....  322

ORBITAL ENERGIES
----------------

  NO   OCC          E(Eh)            E(eV)
   0   2.0000     -88.969639     -2420.9870
   1   2.0000     -88.960590     -2420.7407
   2   2.0000     -10.329332      -281.0754
   3   2.0000     -10.327606      -281.0285
   4   2.0000     -10.314768      -280.6791
   5   2.0000     -10.311801      -280.5984
   6   2.0000     -10.306545      -280.4554
   7   2.0000     -10.300267      -280.2845
   8   2.0000     -10.295689      -280.1599
   9   2.0000     -10.293173      -280.0915
  10   2.0000     -10.292559      -280.0748
  11   2.0000     -10.290957      -280.0312
  12   2.0000     -10.288477      -279.9637
  13   2.0000     -10.285395      -279.8798
  14   2.0000     -10.279249      -279.7126
  15   2.0000     -10.276101      -279.6269
  16   2.0000      -8.084290      -219.9847
  17   2.0000      -8.075324      -219.7408
  18   2.0000      -6.042770      -164.4321
  19   2.0000      -6.038718      -164.3219
  20   2.0000      -6.035171      -164.2254
  21   2.0000      -6.033785      -164.1876
  22   2.0000      -6.029852      -164.0806
  23   2.0000      -6.026094      -163.9783
  24   2.0000      -1.008425       -27.4406
  25   2.0000      -0.986922       -26.8555
  26   2.0000      -0.909857       -24.7585
  27   2.0000      -0.895219       -24.3601
  28   2.0000      -0.868237       -23.6259
  29   2.0000      -0.847959       -23.0741
  30   2.0000      -0.843458       -22.9517
  31   2.0000      -0.814732       -22.1700
  32   2.0000      -0.780100       -21.2276
  33   2.0000      -0.771123       -20.9833
  34   2.0000      -0.711922       -19.3724
  35   2.0000      -0.702091       -19.1049
  36   2.0000      -0.682897       -18.5826
  37   2.0000      -0.659121       -17.9356
  38   2.0000      -0.652302       -17.7500
  39   2.0000      -0.617495       -16.8029
  40   2.0000      -0.585115       -15.9218
  41   2.0000      -0.573433       -15.6039
  42   2.0000      -0.560190       -15.2435
  43   2.0000      -0.549728       -14.9589
  44   2.0000      -0.537639       -14.6299
  45   2.0000      -0.523095       -14.2341
  46   2.0000      -0.519940       -14.1483
  47   2.0000      -0.515959       -14.0400
  48   2.0000      -0.505911       -13.7665
  49   2.0000      -0.498397       -13.5621
  50   2.0000      -0.486211       -13.2305
  51   2.0000      -0.479459       -13.0468
  52   2.0000      -0.472481       -12.8568
  53   2.0000      -0.470273       -12.7968
  54   2.0000      -0.461213       -12.5502
  55   2.0000      -0.450529       -12.2595
  56   2.0000      -0.436850       -11.8873
  57   2.0000      -0.435788       -11.8584
  58   2.0000      -0.424242       -11.5442
  59   2.0000      -0.421220       -11.4620
  60   2.0000      -0.418389       -11.3849
  61   2.0000      -0.412351       -11.2206
  62   2.0000      -0.410255       -11.1636
  63   2.0000      -0.339024        -9.2253
  64   2.0000      -0.324878        -8.8404
  65   2.0000      -0.318014        -8.6536
  66   2.0000      -0.310376        -8.4458
  67   0.0000       0.038706         1.0533
  68   0.0000       0.045958         1.2506
  69   0.0000       0.110838         3.0161
  70   0.0000       0.122336         3.3289
  71   0.0000       0.134189         3.6515

MULLIKEN ATOMIC CHARGES
-----------------------
   0 S :    0.128430
   1 C :   -0.076945
   2 C :   -0.124822
   3 C :    0.049978
   4 C :   -0.164814
   5 H :    0.017307
   6 C :    0.140932
   7 H :    0.024842
   8 H :    0.010426
   9 C :   -0.136953
  10 H :    0.024619
  11 H :    0.023172
  12 C :   -0.023005
  13 H :    0.031279
  14 H :    0.023524
  15 H :    0.041119
  16 S :    0.099707
  17 C :   -0.075493
  18 C :   -0.052050
  19 C :   -0.002482
  20 C :   -0.177138
  21 H :    0.024387
  22 C :    0.049405
  23 H :    0.025200
  24 H :    0.025867
  25 C :   -0.111332
  26 H :    0.036486
  27 H :    0.048128
  28 C :   -0.045290
  29 H :    0.035884
  30 H :    0.026186
  31 H :    0.041798
  32 H :    0.017348
  33 H :    0.044298
Sum of atomic charges:    0.0000000

LOEWDIN ATOMIC CHARGES
----------------------
   0 S :    0.427008
   1 C :   -0.195161
   2 C :   -0.054624
   3 C :   -0.058711
   4 C :   -0.198539
   5 H :    0.034361
   6 C :   -0.022481
   7 H :    0.022470
   8 H :    0.028649
   9 C :   -0.038221
  10 H :    0.017929
  11 H :    0.023108
  12 C :   -0.061168
  13 H :    0.021462
  14 H :    0.017435
  15 H :    0.031160
  16 S :    0.402133
  17 C :   -0.177872
  18 C :   -0.077961
  19 C :   -0.056816
  20 C :   -0.198901
  21 H :    0.033759
  22 C :   -0.042104
  23 H :    0.030787
  24 H :    0.032024
  25 C :   -0.045616
  26 H :    0.027819
  27 H :    0.032612
  28 C :   -0.073724
  29 H :    0.024931
  30 H :    0.026019
  31 H :    0.029699
  32 H :    0.015456
  33 H :    0.023077

  Mayer bond orders larger than 0.100000
B(  0-S ,  1-C ) :   1.1375 B(  0-S ,  4-C ) :   1.1752 B(  1-C ,  2-C ) :   1.5860
B(  1-C , 32-H ) :   0.9841 B(  2-C ,  3-C ) :   1.2400 B(  2-C ,  6-C ) :   1.0311
B(  3-C ,  4-C ) :   1.5700 B(  3-C ,  5-H ) :   1.0004 B(  4-C , 20-C ) :   0.9998
B(  6-C ,  7-H ) :   0.9366 B(  6-C ,  8-H ) :   0.9409 B(  6-C ,  9-C ) :   1.0439
B(  9-C , 10-H ) :   0.9638 B(  9-C , 11-H ) :   0.9562 B(  9-C , 12-C ) :   1.0713
B( 12-C , 13-H ) :   0.9769 B( 12-C , 14-H ) :   0.9761 B( 12-C , 15-H ) :   0.9776
B( 16-S , 17-C ) :   1.1713 B( 16-S , 20-C ) :   1.1438 B( 17-C , 18-C ) :   1.5782
B( 17-C , 20-C ) :   0.1147 B( 17-C , 33-H ) :   0.9758 B( 18-C , 19-C ) :   1.2580
B( 18-C , 21-H ) :   0.9917 B( 19-C , 20-C ) :   1.5682 B( 19-C , 22-C ) :   1.0229
B( 22-C , 23-H ) :   0.9473 B( 22-C , 24-H ) :   0.9356 B( 22-C , 25-C ) :   1.0618
B( 25-C , 26-H ) :   0.9542 B( 25-C , 27-H ) :   0.9548 B( 25-C , 28-C ) :   1.0799
B( 28-C , 29-H ) :   0.9742 B( 28-C , 30-H ) :   0.9725 B( 28-C , 31-H ) :   0.9729

Dispersion correction           -0.014800019
FINAL SINGLE POINT ENERGY     -1339.863319138942

DIPOLE MOMENT
-------------
                                X             Y             Z
Electronic contribution:     -5.34496     -22.14030      14.04237
Nuclear contribution   :      5.53533      22.50977     -14.28651
                        -----------------------------------------
Total Dipole Moment    :      0.19036       0.36947      -0.24413
                        -----------------------------------------
Magnitude (a.u.)       :      0.48202
Magnitude (Debye)      :      1.22521

Rotational constants in cm-1:     0.019904     0.008171     0.006969
Rotational constants in MHz :   596.716546   244.956777   208.930736

                             ****ORCA TERMINATED NORMALLY****
TOTAL RUN TIME: 0 days 0 hours 0 minutes 34 seconds 235 msec
