                         Program Version 4.2.1 -  RELEASE  -
|  1> ! wB97X-D3 SP def2-SVP
|  2> %pal
|  3> nprocs 16
|  4> end
|  5>
|  6> * xyz 0 1
|  7> S 	 9.42317 	 21.014 	 38.0271
|  8> C 	 10.5346 	 21.6664 	 36.7596
|  9> C 	 11.6508 	 22.2906 	 37.3471
| 10> C 	 11.4084 	 22.5609 	 38.7209
| 11> C 	 10.336 	 21.9956 	 39.2908
| 12> H 	 12.0375 	 23.1191 	 39.3776
| 13> C 	 12.9175 	 22.7768 	 36.5959
| 14> H 	 12.8816 	 22.3075 	 35.5504
| 15> H 	 13.817 	 22.3133 	 36.9928
| 16> C 	 13.1063 	 24.3225 	 36.6361
| 17> H 	 12.1785 	 24.7453 	 36.365
| 18> H 	 13.3668 	 24.6779 	 37.6321
| 19> C 	 14.1476 	 24.7264 	 35.5316
| 20> H 	 13.9987 	 25.7985 	 35.3656
| 21> H 	 15.1958 	 24.4949 	 35.8691
| 22> H 	 13.8882 	 24.2272 	 34.6321
| 23> S 	 9.07354 	 20.7824 	 41.2903
| 24> C 	 8.94472 	 21.5677 	 42.8282
| 25> C 	 9.55978 	 22.7861 	 42.8425
| 26> C 	 10.0364 	 23.2116 	 41.5573
| 27> C 	 9.85759 	 22.2001 	 40.6104
| 28> H 	 9.66678 	 23.4078 	 43.7002
| 29> C 	 10.6769 	 24.5479 	 41.3001
| 30> H 	 9.95491 	 25.3934 	 41.3994
| 31> H 	 10.7901 	 24.5849 	 40.1983
| 32> C 	 11.9668 	 24.8464 	 42.1022
| 33> H 	 12.6517 	 24.0029 	 42.0123
| 34> H 	 11.784 	 24.971 	 43.1515
| 35> C 	 12.6724 	 26.1413 	 41.5296
| 36> H 	 13.6938 	 26.3167 	 41.7433
| 37> H 	 12.1925 	 27.0782 	 41.9592
| 38> H 	 12.6726 	 26.1106 	 40.4393
| 39> H 	 10.5123 	 21.5964 	 35.659
| 40> H 	 8.58272 	 21.0832 	 43.7074
| 41> *
| 42>
| 43>                          ****END OF INPUT****

CARTESIAN COORDINATES (ANGSTROEM)
---------------------------------
  S      9.423170   21.014000   38.027100
  C     10.534600   21.666400   36.759600
  C     11.650800   22.290600   37.347100
  C     11.408400   22.560900   38.720900
  C     10.336000   21.995600   39.290800
  H     12.037500   23.119100   39.377600
  C     12.917500   22.776800   36.595900
  H     12.881600   22.307500   35.550400
  H     13.817000   22.313300   36.992800
  C     13.106300   24.322500   36.636100
  H     12.178500   24.745300   36.365000
  H     13.366800   24.677900   37.632100
  C     14.147600   24.726400   35.531600
  H     13.998700   25.798500   35.365600
  H     15.195800   24.494900   35.869100
  H     13.888200   24.227200   34.632100
  S      9.073540   20.782400   41.290300
  C      8.944720   21.567700   42.828200
  C      9.559780   22.786100   42.842500
  C     10.036400   23.211600   41.557300
  C      9.857590   22.200100   40.610400
  H      9.666780   23.407800   43.700200
  C     10.676900   24.547900   41.300100
  H      9.954910   25.393400   41.399400
  H     10.790100   24.584900   40.198300
  C     11.966800   24.846400   42.102200
  H     12.651700   24.002900   42.012300
  H     11.784000   24.971000   43.151500
  C     12.672400   26.141300   41.529600
  H     13.693800   26.316700   41.743300
  H     12.192500   27.078200   41.959200
  H     12.672600   26.110600   40.439300
  H     10.512300   21.596400   35.659000
  H      8.582720   21.083200   43.707400

 Total Charge           Charge          ....    0
 Multiplicity           Mult            ....    1
 Number of Electrons    NEL             ....  134
 Basis Dimension        Dim             ....  322

ORBITAL ENERGIES
----------------

  NO   OCC          E(Eh)            E(eV)
   0   2.0000     -88.966324     -2420.8968
   1   2.0000     -88.964700     -2420.8526
   2   2.0000     -10.328633      -281.0564
   3   2.0000     -10.326417      -280.9961
   4   2.0000     -10.323086      -280.9055
   5   2.0000     -10.313477      -280.6440
   6   2.0000     -10.305278      -280.4209
   7   2.0000     -10.304837      -280.4089
   8   2.0000     -10.302389      -280.3422
   9   2.0000     -10.298017      -280.2233
  10   2.0000     -10.296196      -280.1737
  11   2.0000     -10.291096      -280.0349
  12   2.0000     -10.289742      -279.9981
  13   2.0000     -10.287263      -279.9307
  14   2.0000     -10.285786      -279.8905
  15   2.0000     -10.284210      -279.8476
  16   2.0000      -8.080102      -219.8707
  17   2.0000      -8.078779      -219.8348
  18   2.0000      -6.038617      -164.3191
  19   2.0000      -6.037776      -164.2962
  20   2.0000      -6.034588      -164.2095
  21   2.0000      -6.033847      -164.1893
  22   2.0000      -6.030747      -164.1050
  23   2.0000      -6.028908      -164.0549
  24   2.0000      -1.007229       -27.4081
  25   2.0000      -0.976841       -26.5812
  26   2.0000      -0.908286       -24.7157
  27   2.0000      -0.906072       -24.6555
  28   2.0000      -0.873094       -23.7581
  29   2.0000      -0.852767       -23.2050
  30   2.0000      -0.839702       -22.8494
  31   2.0000      -0.815421       -22.1887
  32   2.0000      -0.781171       -21.2567
  33   2.0000      -0.767618       -20.8879
  34   2.0000      -0.716080       -19.4855
  35   2.0000      -0.706017       -19.2117
  36   2.0000      -0.698531       -19.0080
  37   2.0000      -0.665385       -18.1060
  38   2.0000      -0.639923       -17.4132
  39   2.0000      -0.618907       -16.8413
  40   2.0000      -0.601248       -16.3608
  41   2.0000      -0.571727       -15.5575
  42   2.0000      -0.563408       -15.3311
  43   2.0000      -0.553571       -15.0634
  44   2.0000      -0.527059       -14.3420
  45   2.0000      -0.525880       -14.3099
  46   2.0000      -0.518310       -14.1039
  47   2.0000      -0.507823       -13.8186
  48   2.0000      -0.501736       -13.6529
  49   2.0000      -0.496340       -13.5061
  50   2.0000      -0.486991       -13.2517
  51   2.0000      -0.481401       -13.0996
  52   2.0000      -0.468923       -12.7600
  53   2.0000      -0.466608       -12.6970
  54   2.0000      -0.462297       -12.5797
  55   2.0000      -0.454113       -12.3570
  56   2.0000      -0.446372       -12.1464
  57   2.0000      -0.443411       -12.0658
  58   2.0000      -0.431852       -11.7513
  59   2.0000      -0.430149       -11.7049
  60   2.0000      -0.420858       -11.4521
  61   2.0000      -0.418763       -11.3951
  62   2.0000      -0.415693       -11.3116
  63   2.0000      -0.359848        -9.7920
  64   2.0000      -0.334899        -9.1131
  65   2.0000      -0.327122        -8.9014
  66   2.0000      -0.279842        -7.6149
  67   0.0000       0.021034         0.5724
  68   0.0000       0.067905         1.8478
  69   0.0000       0.095516         2.5991
  70   0.0000       0.119278         3.2457
  71   0.0000       0.124590         3.3903

MULLIKEN ATOMIC CHARGES
-----------------------
   0 S :    0.088802
   1 C :   -0.125281
   2 C :   -0.073617
   3 C :   -0.010041
   4 C :   -0.085938
   5 H :   -0.005437
   6 C :    0.026959
   7 H :    0.026476
   8 H :    0.034952
   9 C :   -0.072871
  10 H :    0.024663
  11 H :    0.039722
  12 C :   -0.047313
  13 H :    0.038057
  14 H :    0.046734
  15 H :    0.024953
  16 S :    0.093622
  17 C :   -0.061672
  18 C :   -0.016028
  19 C :   -0.050969
  20 C :   -0.133434
  21 H :    0.004232
  22 C :    0.023332
  23 H :    0.038160
  24 H :    0.019981
  25 C :   -0.055208
  26 H :    0.035260
  27 H :    0.035003
  28 C :   -0.063156
  29 H :    0.023281
  30 H :    0.042100
  31 H :    0.029308
  32 H :    0.055456
  33 H :    0.049913
Sum of atomic charges:    0.0000000

LOEWDIN ATOMIC CHARGES
----------------------
   0 S :    0.333457
   1 C :   -0.182677
   2 C :   -0.060187
   3 C :   -0.064804
   4 C :   -0.161709
   5 H :    0.026528
   6 C :   -0.035880
   7 H :    0.034541
   8 H :    0.030374
   9 C :   -0.033916
  10 H :    0.018104
  11 H :    0.023024
  12 C :   -0.060266
  13 H :    0.028119
  14 H :    0.031336
  15 H :    0.018912
  16 S :    0.408385
  17 C :   -0.182685
  18 C :   -0.063532
  19 C :   -0.056950
  20 C :   -0.185557
  21 H :    0.026479
  22 C :   -0.043047
  23 H :    0.037582
  24 H :    0.032957
  25 C :   -0.033497
  26 H :    0.024448
  27 H :    0.022513
  28 C :   -0.070740
  29 H :    0.019251
  30 H :    0.034470
  31 H :    0.023998
  32 H :    0.035602
  33 H :    0.025365

  Mayer bond orders larger than 0.100000
B(  0-S ,  1-C ) :   1.1133 B(  0-S ,  4-C ) :   1.0710 B(  1-C ,  2-C ) :   1.6475
B(  1-C , 32-H ) :   0.9587 B(  2-C ,  3-C ) :   1.1876 B(  2-C ,  6-C ) :   1.0302
B(  3-C ,  4-C ) :   1.6566 B(  3-C ,  5-H ) :   0.9900 B(  4-C , 20-C ) :   1.0802
B(  6-C ,  7-H ) :   0.9468 B(  6-C ,  8-H ) :   0.9395 B(  6-C ,  9-C ) :   1.0472
B(  9-C , 10-H ) :   0.9621 B(  9-C , 11-H ) :   0.9539 B(  9-C , 12-C ) :   1.0787
B( 12-C , 13-H ) :   0.9772 B( 12-C , 14-H ) :   0.9773 B( 12-C , 15-H ) :   0.9773
B( 16-S , 17-C ) :   1.1466 B( 16-S , 20-C ) :   1.1333 B( 17-C , 18-C ) :   1.6104
B( 17-C , 33-H ) :   0.9709 B( 18-C , 19-C ) :   1.2378 B( 18-C , 21-H ) :   0.9959
B( 19-C , 20-C ) :   1.5878 B( 19-C , 22-C ) :   1.0457 B( 22-C , 23-H ) :   0.9273
B( 22-C , 24-H ) :   0.9389 B( 22-C , 25-C ) :   1.0425 B( 25-C , 26-H ) :   0.9598
B( 25-C , 27-H ) :   0.9566 B( 25-C , 28-C ) :   1.0726 B( 28-C , 29-H ) :   0.9771
B( 28-C , 30-H ) :   0.9758 B( 28-C , 31-H ) :   0.9778

Dispersion correction           -0.014168231
FINAL SINGLE POINT ENERGY     -1339.867849270317

DIPOLE MOMENT
-------------
                                X             Y             Z
Electronic contribution:    -22.94969     -24.93228       5.88973
Nuclear contribution   :     23.60194      25.58897      -5.78536
                        -----------------------------------------
Total Dipole Moment    :      0.65225       0.65669       0.10437
                        -----------------------------------------
Magnitude (a.u.)       :      0.93143
Magnitude (Debye)      :      2.36752

Rotational constants in cm-1:     0.016724     0.009685     0.006336
Rotational constants in MHz :   501.384781   290.357760   189.959775

                             ****ORCA TERMINATED NORMALLY****
TOTAL RUN TIME: 0 days 0 hours 0 minutes 32 seconds 608 msec
