                         Program Version 4.2.1 -  RELEASE  -
|  1> ! wB97X-D3 SP def2-SVP
|  2> %pal
|  3> nprocs 16
|  4> end
|  5>
|  6> * xyz 0 1
|  7> S 	 -3.80005 	 -20.7377 	 56.278
|  8> C 	 -2.95952 	 -20.952 	 54.7338
|  9> C 	 -2.87386 	 -19.8444 	 53.967
| 10> C 	 -3.58746 	 -18.7602 	 54.6254
| 11> C 	 -4.18377 	 -19.1285 	 55.8117
| 12> H 	 -3.71491 	 -17.7744 	 54.0976
| 13> C 	 -2.03926 	 -19.6681 	 52.7943
| 14> H 	 -1.09984 	 -19.2646 	 53.1421
| 15> H 	 -2.52429 	 -19.0292 	 52.086
| 16> C 	 -1.63126 	 -20.9906 	 51.9991
| 17> H 	 -0.670599 	 -20.7004 	 51.5002
| 18> H 	 -1.36797 	 -21.7206 	 52.6841
| 19> C 	 -2.74891 	 -21.3758 	 51.0397
| 20> H 	 -3.05214 	 -20.6994 	 50.2742
| 21> H 	 -2.29649 	 -22.2673 	 50.5085
| 22> H 	 -3.57057 	 -21.6947 	 51.716
| 23> S 	 -6.57407 	 -17.7815 	 55.969
| 24> C 	 -6.7877 	 -16.6897 	 57.3382
| 25> C 	 -5.68744 	 -16.7629 	 58.244
| 26> C 	 -4.72138 	 -17.6917 	 57.8666
| 27> C 	 -4.98444 	 -18.223 	 56.655
| 28> H 	 -5.60355 	 -16.137 	 59.0967
| 29> C 	 -3.50805 	 -17.8397 	 58.7354
| 30> H 	 -2.96641 	 -18.7723 	 58.5359
| 31> H 	 -3.59793 	 -17.9915 	 59.8036
| 32> C 	 -2.49144 	 -16.703 	 58.4922
| 33> H 	 -1.77535 	 -16.5449 	 59.2705
| 34> H 	 -3.01761 	 -15.7664 	 58.4835
| 35> C 	 -1.74536 	 -16.8778 	 57.197
| 36> H 	 -2.37496 	 -16.8301 	 56.3078
| 37> H 	 -1.38417 	 -17.8741 	 57.1656
| 38> H 	 -0.978887 	 -16.1212 	 57.2813
| 39> H 	 -2.52522 	 -21.8976 	 54.518
| 40> H 	 -7.69006 	 -16.1555 	 57.5848
| 41> *
| 42>
| 43>                          ****END OF INPUT****

CARTESIAN COORDINATES (ANGSTROEM)
---------------------------------
  S     -3.800050  -20.737700   56.278000
  C     -2.959520  -20.952000   54.733800
  C     -2.873860  -19.844400   53.967000
  C     -3.587460  -18.760200   54.625400
  C     -4.183770  -19.128500   55.811700
  H     -3.714910  -17.774400   54.097600
  C     -2.039260  -19.668100   52.794300
  H     -1.099840  -19.264600   53.142100
  H     -2.524290  -19.029200   52.086000
  C     -1.631260  -20.990600   51.999100
  H     -0.670599  -20.700400   51.500200
  H     -1.367970  -21.720600   52.684100
  C     -2.748910  -21.375800   51.039700
  H     -3.052140  -20.699400   50.274200
  H     -2.296490  -22.267300   50.508500
  H     -3.570570  -21.694700   51.716000
  S     -6.574070  -17.781500   55.969000
  C     -6.787700  -16.689700   57.338200
  C     -5.687440  -16.762900   58.244000
  C     -4.721380  -17.691700   57.866600
  C     -4.984440  -18.223000   56.655000
  H     -5.603550  -16.137000   59.096700
  C     -3.508050  -17.839700   58.735400
  H     -2.966410  -18.772300   58.535900
  H     -3.597930  -17.991500   59.803600
  C     -2.491440  -16.703000   58.492200
  H     -1.775350  -16.544900   59.270500
  H     -3.017610  -15.766400   58.483500
  C     -1.745360  -16.877800   57.197000
  H     -2.374960  -16.830100   56.307800
  H     -1.384170  -17.874100   57.165600
  H     -0.978887  -16.121200   57.281300
  H     -2.525220  -21.897600   54.518000
  H     -7.690060  -16.155500   57.584800

 Total Charge           Charge          ....    0
 Multiplicity           Mult            ....    1
 Number of Electrons    NEL             ....  134
 Basis Dimension        Dim             ....  322

ORBITAL ENERGIES
----------------

  NO   OCC          E(Eh)            E(eV)
   0   2.0000     -88.969316     -2420.9782
   1   2.0000     -88.964817     -2420.8557
   2   2.0000     -10.325876      -280.9814
   3   2.0000     -10.324510      -280.9442
   4   2.0000     -10.319894      -280.8186
   5   2.0000     -10.306484      -280.4537
   6   2.0000     -10.296694      -280.1873
   7   2.0000     -10.296229      -280.1746
   8   2.0000     -10.295166      -280.1457
   9   2.0000     -10.290700      -280.0242
  10   2.0000     -10.288275      -279.9582
  11   2.0000     -10.287388      -279.9341
  12   2.0000     -10.286459      -279.9088
  13   2.0000     -10.282237      -279.7939
  14   2.0000     -10.274575      -279.5854
  15   2.0000     -10.261610      -279.2326
  16   2.0000      -8.082972      -219.9488
  17   2.0000      -8.079839      -219.8636
  18   2.0000      -6.041397      -164.3948
  19   2.0000      -6.038275      -164.3098
  20   2.0000      -6.037754      -164.2956
  21   2.0000      -6.034474      -164.2064
  22   2.0000      -6.033762      -164.1870
  23   2.0000      -6.030498      -164.0982
  24   2.0000      -1.007154       -27.4061
  25   2.0000      -0.984710       -26.7953
  26   2.0000      -0.916714       -24.9450
  27   2.0000      -0.911767       -24.8104
  28   2.0000      -0.864134       -23.5143
  29   2.0000      -0.854738       -23.2586
  30   2.0000      -0.847424       -23.0596
  31   2.0000      -0.806379       -21.9427
  32   2.0000      -0.784738       -21.3538
  33   2.0000      -0.774746       -21.0819
  34   2.0000      -0.712596       -19.3907
  35   2.0000      -0.698463       -19.0061
  36   2.0000      -0.692833       -18.8529
  37   2.0000      -0.665562       -18.1109
  38   2.0000      -0.638845       -17.3839
  39   2.0000      -0.612335       -16.6625
  40   2.0000      -0.603434       -16.4203
  41   2.0000      -0.576050       -15.6751
  42   2.0000      -0.560863       -15.2619
  43   2.0000      -0.557713       -15.1761
  44   2.0000      -0.535625       -14.5751
  45   2.0000      -0.530875       -14.4458
  46   2.0000      -0.515345       -14.0233
  47   2.0000      -0.513818       -13.9817
  48   2.0000      -0.503588       -13.7033
  49   2.0000      -0.498905       -13.5759
  50   2.0000      -0.490222       -13.3396
  51   2.0000      -0.478106       -13.0099
  52   2.0000      -0.472651       -12.8615
  53   2.0000      -0.462748       -12.5920
  54   2.0000      -0.457563       -12.4509
  55   2.0000      -0.452593       -12.3157
  56   2.0000      -0.444814       -12.1040
  57   2.0000      -0.440964       -11.9992
  58   2.0000      -0.432199       -11.7607
  59   2.0000      -0.423619       -11.5273
  60   2.0000      -0.416955       -11.3459
  61   2.0000      -0.411275       -11.1914
  62   2.0000      -0.403460       -10.9787
  63   2.0000      -0.338213        -9.2032
  64   2.0000      -0.331306        -9.0153
  65   2.0000      -0.327076        -8.9002
  66   2.0000      -0.298738        -8.1291
  67   0.0000       0.040986         1.1153
  68   0.0000       0.062564         1.7025
  69   0.0000       0.106522         2.8986
  70   0.0000       0.109051         2.9674
  71   0.0000       0.130458         3.5499

MULLIKEN ATOMIC CHARGES
-----------------------
   0 S :    0.118722
   1 C :   -0.146805
   2 C :   -0.058040
   3 C :    0.005818
   4 C :   -0.161067
   5 H :    0.035632
   6 C :    0.054934
   7 H :    0.045591
   8 H :    0.020935
   9 C :   -0.077978
  10 H :    0.028498
  11 H :    0.013691
  12 C :   -0.051959
  13 H :    0.040140
  14 H :    0.040030
  15 H :    0.047912
  16 S :    0.124072
  17 C :   -0.093047
  18 C :   -0.039130
  19 C :    0.041887
  20 C :   -0.200262
  21 H :    0.008106
  22 C :    0.063309
  23 H :    0.003113
  24 H :    0.024940
  25 C :   -0.068798
  26 H :    0.014493
  27 H :    0.011791
  28 C :   -0.007683
  29 H :    0.031754
  30 H :    0.013288
  31 H :    0.029642
  32 H :    0.030717
  33 H :    0.055755
Sum of atomic charges:    0.0000000

LOEWDIN ATOMIC CHARGES
----------------------
   0 S :    0.406494
   1 C :   -0.188268
   2 C :   -0.066111
   3 C :   -0.066666
   4 C :   -0.206223
   5 H :    0.039063
   6 C :   -0.029034
   7 H :    0.038977
   8 H :    0.026945
   9 C :   -0.031514
  10 H :    0.026817
  11 H :    0.010533
  12 C :   -0.066981
  13 H :    0.022108
  14 H :    0.034279
  15 H :    0.034382
  16 S :    0.397528
  17 C :   -0.183936
  18 C :   -0.056424
  19 C :   -0.059134
  20 C :   -0.183186
  21 H :    0.025411
  22 C :   -0.035614
  23 H :    0.023852
  24 H :    0.032710
  25 C :   -0.035515
  26 H :    0.018503
  27 H :    0.018183
  28 C :   -0.056804
  29 H :    0.025323
  30 H :    0.018804
  31 H :    0.025949
  32 H :    0.013614
  33 H :    0.025937

  Mayer bond orders larger than 0.100000
B(  0-S ,  1-C ) :   1.1177 B(  0-S ,  4-C ) :   1.1540 B(  1-C ,  2-C ) :   1.6353
B(  1-C , 32-H ) :   0.9685 B(  2-C ,  3-C ) :   1.2175 B(  2-C ,  6-C ) :   1.0350
B(  3-C ,  4-C ) :   1.5996 B(  3-C ,  5-H ) :   0.9816 B(  4-C , 20-C ) :   0.9984
B(  6-C ,  7-H ) :   0.9286 B(  6-C ,  8-H ) :   0.9358 B(  6-C ,  9-C ) :   1.0830
B(  9-C , 10-H ) :   0.9569 B(  9-C , 11-H ) :   0.9538 B(  9-C , 12-C ) :   1.0716
B( 12-C , 13-H ) :   0.9768 B( 12-C , 14-H ) :   0.9742 B( 12-C , 15-H ) :   0.9750
B( 16-S , 17-C ) :   1.1500 B( 16-S , 20-C ) :   1.1471 B( 17-C , 18-C ) :   1.5976
B( 17-C , 20-C ) :   0.1068 B( 17-C , 33-H ) :   0.9690 B( 18-C , 19-C ) :   1.2412
B( 18-C , 21-H ) :   0.9901 B( 19-C , 20-C ) :   1.6146 B( 19-C , 22-C ) :   1.0486
B( 22-C , 23-H ) :   0.9289 B( 22-C , 24-H ) :   0.9370 B( 22-C , 25-C ) :   1.0705
B( 25-C , 26-H ) :   0.9558 B( 25-C , 27-H ) :   0.9525 B( 25-C , 28-C ) :   1.0801
B( 28-C , 29-H ) :   0.9713 B( 28-C , 30-H ) :   0.9723 B( 28-C , 31-H ) :   0.9728

Dispersion correction           -0.015733799
FINAL SINGLE POINT ENERGY     -1339.865234635651

DIPOLE MOMENT
-------------
                                X             Y             Z
Electronic contribution:    -18.79890      -1.48750       8.96275
Nuclear contribution   :     19.26624       1.64950      -9.04345
                        -----------------------------------------
Total Dipole Moment    :      0.46734       0.16200      -0.08070
                        -----------------------------------------
Magnitude (a.u.)       :      0.50116
Magnitude (Debye)      :      1.27386

Rotational constants in cm-1:     0.023582     0.008104     0.007148
Rotational constants in MHz :   706.959559   242.958939   214.286667

                             ****ORCA TERMINATED NORMALLY****
TOTAL RUN TIME: 0 days 0 hours 0 minutes 37 seconds 235 msec
