                         Program Version 4.2.1 -  RELEASE  -
|  1> ! wB97X-D3 SP def2-SVP
|  2> %pal
|  3> nprocs 16
|  4> end
|  5>
|  6> * xyz 0 1
|  7> S 	 -97.8741 	 56.5199 	 114.449
|  8> C 	 -98.3281 	 55.4852 	 113.12
|  9> C 	 -98.9884 	 54.3836 	 113.546
| 10> C 	 -99.2093 	 54.3856 	 114.96
| 11> C 	 -98.6749 	 55.4735 	 115.6
| 12> H 	 -99.7887 	 53.6396 	 115.544
| 13> C 	 -99.4558 	 53.2931 	 112.577
| 14> H 	 -99.931 	 53.7965 	 111.732
| 15> H 	 -100.248 	 52.6567 	 112.985
| 16> C 	 -98.295 	 52.564 	 111.823
| 17> H 	 -97.6148 	 53.2715 	 111.315
| 18> H 	 -97.6629 	 52.0557 	 112.533
| 19> C 	 -98.8354 	 51.4459 	 110.91
| 20> H 	 -99.2792 	 50.5602 	 111.393
| 21> H 	 -99.6364 	 51.7784 	 110.279
| 22> H 	 -97.9785 	 51.1408 	 110.279
| 23> S 	 -100.162 	 55.3647 	 117.867
| 24> C 	 -99.5046 	 55.8571 	 119.38
| 25> C 	 -98.1554 	 56.228 	 119.24
| 26> C 	 -97.6717 	 56.2133 	 117.89
| 27> C 	 -98.6509 	 55.6292 	 117.023
| 28> H 	 -97.5913 	 56.6013 	 120.092
| 29> C 	 -96.2203 	 56.6943 	 117.52
| 30> H 	 -96.0888 	 57.6341 	 118.089
| 31> H 	 -96.2021 	 57.059 	 116.473
| 32> C 	 -95.1993 	 55.6895 	 117.815
| 33> H 	 -95.2395 	 55.2854 	 118.849
| 34> H 	 -94.196 	 56.1443 	 117.789
| 35> C 	 -95.1738 	 54.5276 	 116.775
| 36> H 	 -95.9928 	 53.8024 	 116.736
| 37> H 	 -94.2121 	 54.0097 	 117.084
| 38> H 	 -94.9886 	 54.8449 	 115.781
| 39> H 	 -97.9927 	 55.7837 	 112.142
| 40> H 	 -100.112 	 55.7457 	 120.347
| 41> *
| 42>
| 43>                          ****END OF INPUT****

CARTESIAN COORDINATES (ANGSTROEM)
---------------------------------
  S    -97.874100   56.519900  114.449000
  C    -98.328100   55.485200  113.120000
  C    -98.988400   54.383600  113.546000
  C    -99.209300   54.385600  114.960000
  C    -98.674900   55.473500  115.600000
  H    -99.788700   53.639600  115.544000
  C    -99.455800   53.293100  112.577000
  H    -99.931000   53.796500  111.732000
  H    -100.248000   52.656700  112.985000
  C    -98.295000   52.564000  111.823000
  H    -97.614800   53.271500  111.315000
  H    -97.662900   52.055700  112.533000
  C    -98.835400   51.445900  110.910000
  H    -99.279200   50.560200  111.393000
  H    -99.636400   51.778400  110.279000
  H    -97.978500   51.140800  110.279000
  S    -100.162000   55.364700  117.867000
  C    -99.504600   55.857100  119.380000
  C    -98.155400   56.228000  119.240000
  C    -97.671700   56.213300  117.890000
  C    -98.650900   55.629200  117.023000
  H    -97.591300   56.601300  120.092000
  C    -96.220300   56.694300  117.520000
  H    -96.088800   57.634100  118.089000
  H    -96.202100   57.059000  116.473000
  C    -95.199300   55.689500  117.815000
  H    -95.239500   55.285400  118.849000
  H    -94.196000   56.144300  117.789000
  C    -95.173800   54.527600  116.775000
  H    -95.992800   53.802400  116.736000
  H    -94.212100   54.009700  117.084000
  H    -94.988600   54.844900  115.781000
  H    -97.992700   55.783700  112.142000
  H    -100.112000   55.745700  120.347000

 Total Charge           Charge          ....    0
 Multiplicity           Mult            ....    1
 Number of Electrons    NEL             ....  134
 Basis Dimension        Dim             ....  322

ORBITAL ENERGIES
----------------

  NO   OCC          E(Eh)            E(eV)
   0   2.0000     -88.966925     -2420.9131
   1   2.0000     -88.964484     -2420.8467
   2   2.0000     -10.327360      -281.0217
   3   2.0000     -10.325261      -280.9646
   4   2.0000     -10.323400      -280.9140
   5   2.0000     -10.310129      -280.5529
   6   2.0000     -10.309473      -280.5350
   7   2.0000     -10.300732      -280.2972
   8   2.0000     -10.297541      -280.2103
   9   2.0000     -10.293894      -280.1111
  10   2.0000     -10.293782      -280.1081
  11   2.0000     -10.293742      -280.1070
  12   2.0000     -10.290101      -280.0079
  13   2.0000     -10.286162      -279.9007
  14   2.0000     -10.279672      -279.7241
  15   2.0000     -10.272917      -279.5403
  16   2.0000      -8.081871      -219.9189
  17   2.0000      -8.079246      -219.8475
  18   2.0000      -6.040294      -164.3648
  19   2.0000      -6.037832      -164.2978
  20   2.0000      -6.036224      -164.2540
  21   2.0000      -6.033704      -164.1854
  22   2.0000      -6.032859      -164.1624
  23   2.0000      -6.029986      -164.0843
  24   2.0000      -1.008015       -27.4295
  25   2.0000      -0.983321       -26.7575
  26   2.0000      -0.910288       -24.7702
  27   2.0000      -0.907104       -24.6836
  28   2.0000      -0.871085       -23.7034
  29   2.0000      -0.849870       -23.1261
  30   2.0000      -0.840487       -22.8708
  31   2.0000      -0.807948       -21.9854
  32   2.0000      -0.782541       -21.2940
  33   2.0000      -0.768643       -20.9158
  34   2.0000      -0.705387       -19.1946
  35   2.0000      -0.700834       -19.0707
  36   2.0000      -0.687308       -18.7026
  37   2.0000      -0.663666       -18.0593
  38   2.0000      -0.637635       -17.3509
  39   2.0000      -0.614912       -16.7326
  40   2.0000      -0.594914       -16.1884
  41   2.0000      -0.565514       -15.3884
  42   2.0000      -0.554714       -15.0945
  43   2.0000      -0.549279       -14.9466
  44   2.0000      -0.536034       -14.5862
  45   2.0000      -0.525331       -14.2950
  46   2.0000      -0.516062       -14.0428
  47   2.0000      -0.510542       -13.8926
  48   2.0000      -0.505663       -13.7598
  49   2.0000      -0.498751       -13.5717
  50   2.0000      -0.489607       -13.3229
  51   2.0000      -0.472594       -12.8599
  52   2.0000      -0.468846       -12.7579
  53   2.0000      -0.464480       -12.6392
  54   2.0000      -0.461228       -12.5506
  55   2.0000      -0.451237       -12.2788
  56   2.0000      -0.446065       -12.1380
  57   2.0000      -0.440733       -11.9929
  58   2.0000      -0.430133       -11.7045
  59   2.0000      -0.420805       -11.4507
  60   2.0000      -0.414405       -11.2765
  61   2.0000      -0.410600       -11.1730
  62   2.0000      -0.407957       -11.1011
  63   2.0000      -0.353254        -9.6125
  64   2.0000      -0.331713        -9.0264
  65   2.0000      -0.329934        -8.9780
  66   2.0000      -0.284142        -7.7319
  67   0.0000       0.025769         0.7012
  68   0.0000       0.079708         2.1690
  69   0.0000       0.111859         3.0438
  70   0.0000       0.117442         3.1958
  71   0.0000       0.126516         3.4427

MULLIKEN ATOMIC CHARGES
-----------------------
   0 S :    0.093812
   1 C :   -0.146578
   2 C :   -0.017406
   3 C :   -0.030912
   4 C :   -0.098571
   5 H :    0.026513
   6 C :    0.057278
   7 H :    0.025735
   8 H :    0.026822
   9 C :   -0.083589
  10 H :    0.035503
  11 H :    0.027394
  12 C :   -0.053534
  13 H :    0.038226
  14 H :    0.018621
  15 H :    0.040622
  16 S :    0.108988
  17 C :   -0.126290
  18 C :   -0.037356
  19 C :   -0.078755
  20 C :   -0.163259
  21 H :    0.021839
  22 C :    0.081122
  23 H :    0.026454
  24 H :    0.025693
  25 C :   -0.056645
  26 H :    0.031895
  27 H :    0.026516
  28 C :   -0.060686
  29 H :    0.052872
  30 H :    0.029081
  31 H :    0.020834
  32 H :    0.046477
  33 H :    0.091284
Sum of atomic charges:   -0.0000000

LOEWDIN ATOMIC CHARGES
----------------------
   0 S :    0.411298
   1 C :   -0.190418
   2 C :   -0.062903
   3 C :   -0.072973
   4 C :   -0.193698
   5 H :    0.034299
   6 C :   -0.034111
   7 H :    0.033226
   8 H :    0.030103
   9 C :   -0.037631
  10 H :    0.026394
  11 H :    0.021089
  12 C :   -0.069603
  13 H :    0.028921
  14 H :    0.017472
  15 H :    0.032245
  16 S :    0.428049
  17 C :   -0.214111
  18 C :   -0.074246
  19 C :   -0.053224
  20 C :   -0.200993
  21 H :    0.031145
  22 C :   -0.038025
  23 H :    0.033478
  24 H :    0.021837
  25 C :   -0.046010
  26 H :    0.028689
  27 H :    0.027578
  28 C :   -0.065719
  29 H :    0.027686
  30 H :    0.033265
  31 H :    0.016744
  32 H :    0.023160
  33 H :    0.046988

  Mayer bond orders larger than 0.100000
B(  0-S ,  1-C ) :   1.1338 B(  0-S ,  4-C ) :   1.1415 B(  1-C ,  2-C ) :   1.6019
B(  1-C , 32-H ) :   0.9775 B(  2-C ,  3-C ) :   1.2386 B(  2-C ,  6-C ) :   1.0167
B(  3-C ,  4-C ) :   1.5498 B(  3-C ,  5-H ) :   0.9941 B(  4-C , 20-C ) :   1.0721
B(  6-C ,  7-H ) :   0.9387 B(  6-C ,  8-H ) :   0.9525 B(  6-C ,  9-C ) :   1.0496
B(  9-C , 10-H ) :   0.9586 B(  9-C , 11-H ) :   0.9572 B(  9-C , 12-C ) :   1.0766
B( 12-C , 13-H ) :   0.9760 B( 12-C , 14-H ) :   0.9751 B( 12-C , 15-H ) :   0.9740
B( 16-S , 17-C ) :   1.1705 B( 16-S , 20-C ) :   1.1645 B( 17-C , 18-C ) :   1.5676
B( 17-C , 20-C ) :   0.1075 B( 17-C , 33-H ) :   0.9581 B( 18-C , 19-C ) :   1.2794
B( 18-C , 21-H ) :   0.9873 B( 19-C , 20-C ) :   1.5307 B( 19-C , 22-C ) :   1.0236
B( 22-C , 23-H ) :   0.9285 B( 22-C , 24-H ) :   0.9346 B( 22-C , 25-C ) :   1.0877
B( 25-C , 26-H ) :   0.9533 B( 25-C , 27-H ) :   0.9499 B( 25-C , 28-C ) :   1.0679
B( 28-C , 29-H ) :   0.9783 B( 28-C , 30-H ) :   0.9743 B( 28-C , 31-H ) :   0.9756

Dispersion correction           -0.014692470
FINAL SINGLE POINT ENERGY     -1339.887283952898

DIPOLE MOMENT
-------------
                                X             Y             Z
Electronic contribution:    -12.54263      14.53434      12.04764
Nuclear contribution   :     12.78564     -14.74722     -12.14482
                        -----------------------------------------
Total Dipole Moment    :      0.24300      -0.21288      -0.09719
                        -----------------------------------------
Magnitude (a.u.)       :      0.33737
Magnitude (Debye)      :      0.85751

Rotational constants in cm-1:     0.022111     0.007806     0.006817
Rotational constants in MHz :   662.880702   234.023953   204.365080

                             ****ORCA TERMINATED NORMALLY****
TOTAL RUN TIME: 0 days 0 hours 0 minutes 34 seconds 592 msec
