                         Program Version 4.2.1 -  RELEASE  -
|  1> ! wB97X-D3 SP def2-SVP
|  2> %pal
|  3> nprocs 16
|  4> end
|  5>
|  6> * xyz 0 1
|  7> S 	 -72.7512 	 37.7365 	 114.806
|  8> C 	 -73.336 	 37.6509 	 116.448
|  9> C 	 -72.5998 	 36.7041 	 117.158
| 10> C 	 -71.5784 	 36.1174 	 116.379
| 11> C 	 -71.4798 	 36.5791 	 115.115
| 12> H 	 -70.7677 	 35.3861 	 116.769
| 13> C 	 -72.9758 	 36.1721 	 118.485
| 14> H 	 -73.9612 	 36.6521 	 118.562
| 15> H 	 -72.375 	 36.4621 	 119.3
| 16> C 	 -73.1949 	 34.6526 	 118.696
| 17> H 	 -73.7918 	 34.3336 	 117.813
| 18> H 	 -72.2031 	 34.1574 	 118.497
| 19> C 	 -73.9088 	 34.3172 	 119.998
| 20> H 	 -74.7501 	 34.992 	 120.238
| 21> H 	 -74.2167 	 33.2955 	 120.104
| 22> H 	 -73.1305 	 34.5331 	 120.796
| 23> S 	 -71.2403 	 35.138 	 112.738
| 24> C 	 -69.6381 	 34.8359 	 112.105
| 25> C 	 -68.6251 	 35.3384 	 112.906
| 26> C 	 -69.1882 	 35.9902 	 114.077
| 27> C 	 -70.5654 	 36.0696 	 114.085
| 28> H 	 -67.6278 	 35.241 	 112.652
| 29> C 	 -68.2943 	 36.5882 	 115.11
| 30> H 	 -68.9123 	 37.1199 	 115.732
| 31> H 	 -67.6233 	 37.2532 	 114.576
| 32> C 	 -67.4434 	 35.5869 	 115.92
| 33> H 	 -66.8804 	 34.9266 	 115.357
| 34> H 	 -68.0893 	 35.0897 	 116.538
| 35> C 	 -66.4506 	 36.3606 	 116.83
| 36> H 	 -65.9676 	 35.6514 	 117.369
| 37> H 	 -66.9509 	 37.0374 	 117.589
| 38> H 	 -65.7719 	 37.0105 	 116.266
| 39> H 	 -74.2846 	 38.0565 	 116.821
| 40> H 	 -69.3783 	 34.2793 	 111.177
| 41> *
| 42>
| 43>                          ****END OF INPUT****

CARTESIAN COORDINATES (ANGSTROEM)
---------------------------------
  S    -72.751200   37.736500  114.806000
  C    -73.336000   37.650900  116.448000
  C    -72.599800   36.704100  117.158000
  C    -71.578400   36.117400  116.379000
  C    -71.479800   36.579100  115.115000
  H    -70.767700   35.386100  116.769000
  C    -72.975800   36.172100  118.485000
  H    -73.961200   36.652100  118.562000
  H    -72.375000   36.462100  119.300000
  C    -73.194900   34.652600  118.696000
  H    -73.791800   34.333600  117.813000
  H    -72.203100   34.157400  118.497000
  C    -73.908800   34.317200  119.998000
  H    -74.750100   34.992000  120.238000
  H    -74.216700   33.295500  120.104000
  H    -73.130500   34.533100  120.796000
  S    -71.240300   35.138000  112.738000
  C    -69.638100   34.835900  112.105000
  C    -68.625100   35.338400  112.906000
  C    -69.188200   35.990200  114.077000
  C    -70.565400   36.069600  114.085000
  H    -67.627800   35.241000  112.652000
  C    -68.294300   36.588200  115.110000
  H    -68.912300   37.119900  115.732000
  H    -67.623300   37.253200  114.576000
  C    -67.443400   35.586900  115.920000
  H    -66.880400   34.926600  115.357000
  H    -68.089300   35.089700  116.538000
  C    -66.450600   36.360600  116.830000
  H    -65.967600   35.651400  117.369000
  H    -66.950900   37.037400  117.589000
  H    -65.771900   37.010500  116.266000
  H    -74.284600   38.056500  116.821000
  H    -69.378300   34.279300  111.177000

 Total Charge           Charge          ....    0
 Multiplicity           Mult            ....    1
 Number of Electrons    NEL             ....  134
 Basis Dimension        Dim             ....  322

ORBITAL ENERGIES
----------------

  NO   OCC          E(Eh)            E(eV)
   0   2.0000     -88.967336     -2420.9243
   1   2.0000     -88.964958     -2420.8596
   2   2.0000     -10.327032      -281.0128
   3   2.0000     -10.324956      -280.9563
   4   2.0000     -10.321148      -280.8527
   5   2.0000     -10.318238      -280.7735
   6   2.0000     -10.300888      -280.3014
   7   2.0000     -10.298977      -280.2494
   8   2.0000     -10.295243      -280.1478
   9   2.0000     -10.292559      -280.0748
  10   2.0000     -10.290433      -280.0169
  11   2.0000     -10.286491      -279.9097
  12   2.0000     -10.284896      -279.8663
  13   2.0000     -10.278701      -279.6977
  14   2.0000     -10.276944      -279.6499
  15   2.0000     -10.274747      -279.5901
  16   2.0000      -8.082148      -219.9264
  17   2.0000      -8.079354      -219.8504
  18   2.0000      -6.040643      -164.3742
  19   2.0000      -6.037963      -164.3013
  20   2.0000      -6.036598      -164.2642
  21   2.0000      -6.033952      -164.1922
  22   2.0000      -6.032941      -164.1647
  23   2.0000      -6.029989      -164.0844
  24   2.0000      -1.008596       -27.4453
  25   2.0000      -0.984761       -26.7967
  26   2.0000      -0.914204       -24.8768
  27   2.0000      -0.913087       -24.8464
  28   2.0000      -0.870535       -23.6885
  29   2.0000      -0.853186       -23.2164
  30   2.0000      -0.848158       -23.0795
  31   2.0000      -0.818956       -22.2849
  32   2.0000      -0.782235       -21.2857
  33   2.0000      -0.769574       -20.9412
  34   2.0000      -0.712650       -19.3922
  35   2.0000      -0.703578       -19.1453
  36   2.0000      -0.691040       -18.8041
  37   2.0000      -0.662863       -18.0374
  38   2.0000      -0.641242       -17.4491
  39   2.0000      -0.619023       -16.8445
  40   2.0000      -0.593974       -16.1628
  41   2.0000      -0.580457       -15.7950
  42   2.0000      -0.576639       -15.6912
  43   2.0000      -0.557731       -15.1766
  44   2.0000      -0.530066       -14.4238
  45   2.0000      -0.528787       -14.3890
  46   2.0000      -0.516772       -14.0621
  47   2.0000      -0.510502       -13.8915
  48   2.0000      -0.505817       -13.7640
  49   2.0000      -0.502734       -13.6801
  50   2.0000      -0.495484       -13.4828
  51   2.0000      -0.475073       -12.9274
  52   2.0000      -0.472783       -12.8651
  53   2.0000      -0.465879       -12.6772
  54   2.0000      -0.457601       -12.4520
  55   2.0000      -0.452068       -12.3014
  56   2.0000      -0.446389       -12.1469
  57   2.0000      -0.440470       -11.9858
  58   2.0000      -0.434744       -11.8300
  59   2.0000      -0.426640       -11.6095
  60   2.0000      -0.422238       -11.4897
  61   2.0000      -0.414662       -11.2835
  62   2.0000      -0.411539       -11.1986
  63   2.0000      -0.344207        -9.3664
  64   2.0000      -0.329579        -8.9683
  65   2.0000      -0.326694        -8.8898
  66   2.0000      -0.301717        -8.2101
  67   0.0000       0.036376         0.9899
  68   0.0000       0.066638         1.8133
  69   0.0000       0.117159         3.1881
  70   0.0000       0.122015         3.3202
  71   0.0000       0.127645         3.4734

MULLIKEN ATOMIC CHARGES
-----------------------
   0 S :    0.115280
   1 C :   -0.113659
   2 C :   -0.099835
   3 C :    0.009013
   4 C :   -0.182614
   5 H :    0.048462
   6 C :    0.074155
   7 H :    0.003559
   8 H :    0.023650
   9 C :   -0.107192
  10 H :    0.029387
  11 H :    0.037778
  12 C :   -0.041439
  13 H :    0.038155
  14 H :    0.043484
  15 H :    0.031266
  16 S :    0.107521
  17 C :   -0.098353
  18 C :   -0.001620
  19 C :   -0.048328
  20 C :   -0.143009
  21 H :   -0.008356
  22 C :    0.101082
  23 H :   -0.002205
  24 H :    0.021399
  25 C :   -0.020626
  26 H :    0.014105
  27 H :    0.001991
  28 C :   -0.033604
  29 H :    0.011318
  30 H :    0.030767
  31 H :    0.030949
  32 H :    0.059152
  33 H :    0.068367
Sum of atomic charges:   -0.0000000

LOEWDIN ATOMIC CHARGES
----------------------
   0 S :    0.413651
   1 C :   -0.200955
   2 C :   -0.069742
   3 C :   -0.072325
   4 C :   -0.201144
   5 H :    0.046814
   6 C :   -0.035157
   7 H :    0.030878
   8 H :    0.022217
   9 C :   -0.047895
  10 H :    0.023591
  11 H :    0.025985
  12 C :   -0.066512
  13 H :    0.030175
  14 H :    0.026445
  15 H :    0.032774
  16 S :    0.394477
  17 C :   -0.182816
  18 C :   -0.064146
  19 C :   -0.045779
  20 C :   -0.201428
  21 H :    0.019421
  22 C :   -0.020961
  23 H :    0.017032
  24 H :    0.031590
  25 C :   -0.014515
  26 H :    0.014234
  27 H :    0.011755
  28 C :   -0.054741
  29 H :    0.009503
  30 H :    0.030759
  31 H :    0.024049
  32 H :    0.034324
  33 H :    0.038443

  Mayer bond orders larger than 0.100000
B(  0-S ,  1-C ) :   1.1430 B(  0-S ,  4-C ) :   1.1531 B(  1-C ,  2-C ) :   1.6083
B(  1-C , 32-H ) :   0.9577 B(  2-C ,  3-C ) :   1.2474 B(  2-C ,  6-C ) :   1.0309
B(  3-C ,  4-C ) :   1.5918 B(  3-C ,  5-H ) :   0.9759 B(  4-C , 20-C ) :   1.0118
B(  6-C ,  7-H ) :   0.9388 B(  6-C ,  8-H ) :   0.9311 B(  6-C ,  9-C ) :   1.0621
B(  9-C , 10-H ) :   0.9568 B(  9-C , 11-H ) :   0.9501 B(  9-C , 12-C ) :   1.0757
B( 12-C , 13-H ) :   0.9747 B( 12-C , 14-H ) :   0.9744 B( 12-C , 15-H ) :   0.9728
B( 16-S , 17-C ) :   1.1550 B( 16-S , 20-C ) :   1.1175 B( 17-C , 18-C ) :   1.6271
B( 17-C , 33-H ) :   0.9591 B( 18-C , 19-C ) :   1.2037 B( 18-C , 21-H ) :   1.0038
B( 19-C , 20-C ) :   1.6308 B( 19-C , 22-C ) :   1.0585 B( 22-C , 23-H ) :   0.9257
B( 22-C , 24-H ) :   0.9336 B( 22-C , 25-C ) :   1.0716 B( 25-C , 26-H ) :   0.9572
B( 25-C , 27-H ) :   0.9498 B( 25-C , 28-C ) :   1.0897 B( 28-C , 29-H ) :   0.9742
B( 28-C , 30-H ) :   0.9746 B( 28-C , 31-H ) :   0.9767

Dispersion correction           -0.013901133
FINAL SINGLE POINT ENERGY     -1339.865874640928

DIPOLE MOMENT
-------------
                                X             Y             Z
Electronic contribution:    -10.02892       6.43448     -25.59753
Nuclear contribution   :     10.38855      -6.75009      26.08878
                        -----------------------------------------
Total Dipole Moment    :      0.35963      -0.31561       0.49124
                        -----------------------------------------
Magnitude (a.u.)       :      0.68576
Magnitude (Debye)      :      1.74305

Rotational constants in cm-1:     0.016335     0.008560     0.006866
Rotational constants in MHz :   489.703416   256.627370   205.836061

                             ****ORCA TERMINATED NORMALLY****
TOTAL RUN TIME: 0 days 0 hours 0 minutes 29 seconds 459 msec
