                         Program Version 4.2.1 -  RELEASE  -
|  1> ! wB97X-D3 SP def2-SVP
|  2> %pal
|  3> nprocs 16
|  4> end
|  5>
|  6> * xyz 0 1
|  7> S 	 -35.8113 	 56.2941 	 110.475
|  8> C 	 -36.0652 	 56.6228 	 112.158
|  9> C 	 -37.0161 	 55.7546 	 112.744
| 10> C 	 -37.5015 	 54.8058 	 111.83
| 11> C 	 -36.9893 	 54.9437 	 110.562
| 12> H 	 -38.1538 	 54.0753 	 112.187
| 13> C 	 -37.3338 	 55.7306 	 114.204
| 14> H 	 -37.535 	 56.7123 	 114.609
| 15> H 	 -36.4078 	 55.4831 	 114.728
| 16> C 	 -38.4985 	 54.7369 	 114.63
| 17> H 	 -38.4699 	 53.7125 	 114.206
| 18> H 	 -38.4607 	 54.5972 	 115.727
| 19> C 	 -39.8846 	 55.3558 	 114.412
| 20> H 	 -39.9842 	 55.6045 	 113.357
| 21> H 	 -40.716 	 54.6273 	 114.689
| 22> H 	 -39.9277 	 56.2347 	 114.991
| 23> S 	 -35.8901 	 53.6824 	 108.263
| 24> C 	 -36.8728 	 52.9279 	 107.099
| 25> C 	 -38.1868 	 52.9313 	 107.597
| 26> C 	 -38.3366 	 53.6102 	 108.867
| 27> C 	 -37.2111 	 54.1134 	 109.342
| 28> H 	 -39.033 	 52.6071 	 107.058
| 29> C 	 -39.688 	 53.8352 	 109.535
| 30> H 	 -40.3772 	 53.9671 	 108.67
| 31> H 	 -39.6557 	 54.6303 	 110.28
| 32> C 	 -40.2875 	 52.532 	 110.157
| 33> H 	 -41.2711 	 52.7182 	 110.547
| 34> H 	 -39.6897 	 52.2537 	 111.027
| 35> C 	 -40.8107 	 51.4189 	 109.277
| 36> H 	 -41.232 	 50.6226 	 109.875
| 37> H 	 -39.9672 	 50.9662 	 108.822
| 38> H 	 -41.5713 	 51.8164 	 108.527
| 39> H 	 -35.4776 	 57.2614 	 112.766
| 40> H 	 -36.5459 	 52.7823 	 106.108
| 41> *
| 42>
| 43>                          ****END OF INPUT****

CARTESIAN COORDINATES (ANGSTROEM)
---------------------------------
  S    -35.811300   56.294100  110.475000
  C    -36.065200   56.622800  112.158000
  C    -37.016100   55.754600  112.744000
  C    -37.501500   54.805800  111.830000
  C    -36.989300   54.943700  110.562000
  H    -38.153800   54.075300  112.187000
  C    -37.333800   55.730600  114.204000
  H    -37.535000   56.712300  114.609000
  H    -36.407800   55.483100  114.728000
  C    -38.498500   54.736900  114.630000
  H    -38.469900   53.712500  114.206000
  H    -38.460700   54.597200  115.727000
  C    -39.884600   55.355800  114.412000
  H    -39.984200   55.604500  113.357000
  H    -40.716000   54.627300  114.689000
  H    -39.927700   56.234700  114.991000
  S    -35.890100   53.682400  108.263000
  C    -36.872800   52.927900  107.099000
  C    -38.186800   52.931300  107.597000
  C    -38.336600   53.610200  108.867000
  C    -37.211100   54.113400  109.342000
  H    -39.033000   52.607100  107.058000
  C    -39.688000   53.835200  109.535000
  H    -40.377200   53.967100  108.670000
  H    -39.655700   54.630300  110.280000
  C    -40.287500   52.532000  110.157000
  H    -41.271100   52.718200  110.547000
  H    -39.689700   52.253700  111.027000
  C    -40.810700   51.418900  109.277000
  H    -41.232000   50.622600  109.875000
  H    -39.967200   50.966200  108.822000
  H    -41.571300   51.816400  108.527000
  H    -35.477600   57.261400  112.766000
  H    -36.545900   52.782300  106.108000

 Total Charge           Charge          ....    0
 Multiplicity           Mult            ....    1
 Number of Electrons    NEL             ....  134
 Basis Dimension        Dim             ....  322

ORBITAL ENERGIES
----------------

  NO   OCC          E(Eh)            E(eV)
   0   2.0000     -88.970943     -2421.0224
   1   2.0000     -88.959033     -2420.6984
   2   2.0000     -10.336585      -281.2728
   3   2.0000     -10.320600      -280.8378
   4   2.0000     -10.316369      -280.7227
   5   2.0000     -10.311770      -280.5975
   6   2.0000     -10.300238      -280.2837
   7   2.0000     -10.297773      -280.2166
   8   2.0000     -10.297313      -280.2041
   9   2.0000     -10.295817      -280.1634
  10   2.0000     -10.294510      -280.1279
  11   2.0000     -10.294298      -280.1221
  12   2.0000     -10.291140      -280.0361
  13   2.0000     -10.281594      -279.7764
  14   2.0000     -10.280329      -279.7420
  15   2.0000     -10.279569      -279.7213
  16   2.0000      -8.084839      -219.9996
  17   2.0000      -8.074922      -219.7298
  18   2.0000      -6.043304      -164.4467
  19   2.0000      -6.039398      -164.3404
  20   2.0000      -6.035774      -164.2418
  21   2.0000      -6.033443      -164.1783
  22   2.0000      -6.029106      -164.0603
  23   2.0000      -6.025746      -163.9689
  24   2.0000      -1.009042       -27.4574
  25   2.0000      -0.987184       -26.8627
  26   2.0000      -0.911033       -24.7905
  27   2.0000      -0.910550       -24.7773
  28   2.0000      -0.871006       -23.7013
  29   2.0000      -0.854833       -23.2612
  30   2.0000      -0.846283       -23.0285
  31   2.0000      -0.818967       -22.2852
  32   2.0000      -0.785471       -21.3737
  33   2.0000      -0.771863       -21.0035
  34   2.0000      -0.709237       -19.2993
  35   2.0000      -0.694128       -18.8882
  36   2.0000      -0.691869       -18.8267
  37   2.0000      -0.668720       -18.1968
  38   2.0000      -0.640191       -17.4205
  39   2.0000      -0.636141       -17.3103
  40   2.0000      -0.592124       -16.1125
  41   2.0000      -0.569617       -15.5001
  42   2.0000      -0.567490       -15.4422
  43   2.0000      -0.549069       -14.9409
  44   2.0000      -0.547981       -14.9113
  45   2.0000      -0.538190       -14.6449
  46   2.0000      -0.519749       -14.1431
  47   2.0000      -0.515692       -14.0327
  48   2.0000      -0.503287       -13.6951
  49   2.0000      -0.499662       -13.5965
  50   2.0000      -0.492540       -13.4027
  51   2.0000      -0.482203       -13.1214
  52   2.0000      -0.477117       -12.9830
  53   2.0000      -0.465404       -12.6643
  54   2.0000      -0.463929       -12.6241
  55   2.0000      -0.452447       -12.3117
  56   2.0000      -0.449625       -12.2349
  57   2.0000      -0.437479       -11.9044
  58   2.0000      -0.431032       -11.7290
  59   2.0000      -0.426564       -11.6074
  60   2.0000      -0.421394       -11.4667
  61   2.0000      -0.416469       -11.3327
  62   2.0000      -0.395027       -10.7492
  63   2.0000      -0.351637        -9.5685
  64   2.0000      -0.334171        -9.0933
  65   2.0000      -0.324315        -8.8251
  66   2.0000      -0.290592        -7.9074
  67   0.0000       0.024786         0.6745
  68   0.0000       0.073874         2.0102
  69   0.0000       0.110199         2.9987
  70   0.0000       0.122272         3.3272
  71   0.0000       0.128853         3.5063

MULLIKEN ATOMIC CHARGES
-----------------------
   0 S :    0.122618
   1 C :   -0.102898
   2 C :   -0.102442
   3 C :    0.045976
   4 C :   -0.133557
   5 H :   -0.023371
   6 C :    0.070214
   7 H :    0.024764
   8 H :    0.041206
   9 C :   -0.125912
  10 H :    0.044169
  11 H :    0.031853
  12 C :   -0.043811
  13 H :    0.030041
  14 H :    0.048747
  15 H :    0.024721
  16 S :    0.091616
  17 C :   -0.075544
  18 C :   -0.017943
  19 C :   -0.055234
  20 C :   -0.134257
  21 H :    0.002499
  22 C :    0.084795
  23 H :    0.016266
  24 H :    0.041759
  25 C :   -0.095684
  26 H :    0.018439
  27 H :    0.026872
  28 C :   -0.048925
  29 H :    0.034481
  30 H :    0.024866
  31 H :    0.045549
  32 H :    0.029248
  33 H :    0.058878
Sum of atomic charges:    0.0000000

LOEWDIN ATOMIC CHARGES
----------------------
   0 S :    0.408560
   1 C :   -0.201202
   2 C :   -0.060970
   3 C :   -0.059163
   4 C :   -0.167114
   5 H :    0.021415
   6 C :   -0.032514
   7 H :    0.032032
   8 H :    0.038267
   9 C :   -0.047166
  10 H :    0.024719
  11 H :    0.028361
  12 C :   -0.064340
  13 H :    0.021054
  14 H :    0.035094
  15 H :    0.017823
  16 S :    0.410234
  17 C :   -0.190120
  18 C :   -0.065671
  19 C :   -0.064602
  20 C :   -0.200158
  21 H :    0.019639
  22 C :   -0.022922
  23 H :    0.034020
  24 H :    0.032482
  25 C :   -0.050424
  26 H :    0.023771
  27 H :    0.018490
  28 C :   -0.063872
  29 H :    0.029986
  30 H :    0.014480
  31 H :    0.034576
  32 H :    0.019189
  33 H :    0.026046

  Mayer bond orders larger than 0.100000
B(  0-S ,  1-C ) :   1.1533 B(  0-S ,  4-C ) :   1.1578 B(  1-C ,  2-C ) :   1.5822
B(  1-C ,  4-C ) :   0.1079 B(  1-C , 32-H ) :   0.9732 B(  2-C ,  3-C ) :   1.2991
B(  2-C ,  6-C ) :   1.0093 B(  3-C ,  4-C ) :   1.5226 B(  3-C ,  5-H ) :   0.9977
B(  4-C , 20-C ) :   1.0231 B(  6-C ,  7-H ) :   0.9380 B(  6-C ,  8-H ) :   0.9334
B(  6-C ,  9-C ) :   1.0730 B(  9-C , 10-H ) :   0.9551 B(  9-C , 11-H ) :   0.9544
B(  9-C , 12-C ) :   1.0698 B( 12-C , 13-H ) :   0.9783 B( 12-C , 14-H ) :   0.9736
B( 12-C , 15-H ) :   0.9746 B( 16-S , 17-C ) :   1.1750 B( 16-S , 20-C ) :   1.1234
B( 17-C , 18-C ) :   1.5647 B( 17-C , 33-H ) :   0.9767 B( 18-C , 19-C ) :   1.2485
B( 18-C , 21-H ) :   0.9906 B( 19-C , 20-C ) :   1.6377 B( 19-C , 22-C ) :   1.0427
B( 22-C , 23-H ) :   0.9267 B( 22-C , 24-H ) :   0.9336 B( 22-C , 25-C ) :   1.0741
B( 25-C , 26-H ) :   0.9586 B( 25-C , 27-H ) :   0.9523 B( 25-C , 28-C ) :   1.0721
B( 28-C , 29-H ) :   0.9687 B( 28-C , 30-H ) :   0.9699 B( 28-C , 31-H ) :   0.9712

Dispersion correction           -0.014804110
FINAL SINGLE POINT ENERGY     -1339.863308444847

DIPOLE MOMENT
-------------
                                X             Y             Z
Electronic contribution:     24.53171       8.04313     -16.77749
Nuclear contribution   :    -25.04367      -8.15068      17.25869
                        -----------------------------------------
Total Dipole Moment    :     -0.51196      -0.10755       0.48121
                        -----------------------------------------
Magnitude (a.u.)       :      0.71080
Magnitude (Debye)      :      1.80670

Rotational constants in cm-1:     0.017392     0.010306     0.006833
Rotational constants in MHz :   521.401709   308.966782   204.845080

                             ****ORCA TERMINATED NORMALLY****
TOTAL RUN TIME: 0 days 0 hours 0 minutes 30 seconds 345 msec
