                         Program Version 4.2.1 -  RELEASE  -
|  1> ! wB97X-D3 SP def2-SVP
|  2> %pal
|  3> nprocs 16
|  4> end
|  5>
|  6> * xyz 0 1
|  7> S 	 1.64561 	 -10.0578 	 67.2557
|  8> C 	 0.631526 	 -11.2309 	 66.3588
|  9> C 	 0.0734353 	 -12.1805 	 67.2198
| 10> C 	 0.434146 	 -11.9061 	 68.5709
| 11> C 	 1.17539 	 -10.7597 	 68.7857
| 12> H 	 0.0766241 	 -12.4218 	 69.52
| 13> C 	 -0.79263 	 -13.3021 	 66.7249
| 14> H 	 -0.556204 	 -13.477 	 65.6503
| 15> H 	 -1.80481 	 -12.8692 	 66.8174
| 16> C 	 -0.912875 	 -14.5975 	 67.5075
| 17> H 	 0.121986 	 -15.0236 	 67.5515
| 18> H 	 -1.16107 	 -14.5049 	 68.5222
| 19> C 	 -1.86861 	 -15.5956 	 66.8723
| 20> H 	 -2.80904 	 -15.1287 	 66.77
| 21> H 	 -1.45745 	 -15.8321 	 65.9303
| 22> H 	 -1.95467 	 -16.5259 	 67.4762
| 23> S 	 0.533631 	 -9.3482 	 70.9966
| 24> C 	 1.7468 	 -8.82883 	 72.0647
| 25> C 	 3.00971 	 -9.24518 	 71.7127
| 26> C 	 2.95279 	 -10.0373 	 70.5131
| 27> C 	 1.69051 	 -10.1702 	 70.023
| 28> H 	 3.87623 	 -9.13796 	 72.291
| 29> C 	 4.18984 	 -10.4453 	 69.8209
| 30> H 	 4.95293 	 -9.6205 	 70.0982
| 31> H 	 4.00269 	 -10.3197 	 68.7169
| 32> C 	 4.76527 	 -11.8132 	 70.1669
| 33> H 	 4.04112 	 -12.5678 	 69.9462
| 34> H 	 4.79074 	 -11.8427 	 71.2062
| 35> C 	 6.08055 	 -12.2339 	 69.5382
| 36> H 	 6.91506 	 -11.7598 	 70.0201
| 37> H 	 6.08992 	 -11.9985 	 68.4997
| 38> H 	 6.21612 	 -13.2569 	 69.7762
| 39> H 	 0.441427 	 -11.1909 	 65.2206
| 40> H 	 1.65803 	 -8.36344 	 73.0092
| 41> *
| 42>
| 43>                          ****END OF INPUT****

CARTESIAN COORDINATES (ANGSTROEM)
---------------------------------
  S      1.645610  -10.057800   67.255700
  C      0.631526  -11.230900   66.358800
  C      0.073435  -12.180500   67.219800
  C      0.434146  -11.906100   68.570900
  C      1.175390  -10.759700   68.785700
  H      0.076624  -12.421800   69.520000
  C     -0.792630  -13.302100   66.724900
  H     -0.556204  -13.477000   65.650300
  H     -1.804810  -12.869200   66.817400
  C     -0.912875  -14.597500   67.507500
  H      0.121986  -15.023600   67.551500
  H     -1.161070  -14.504900   68.522200
  C     -1.868610  -15.595600   66.872300
  H     -2.809040  -15.128700   66.770000
  H     -1.457450  -15.832100   65.930300
  H     -1.954670  -16.525900   67.476200
  S      0.533631   -9.348200   70.996600
  C      1.746800   -8.828830   72.064700
  C      3.009710   -9.245180   71.712700
  C      2.952790  -10.037300   70.513100
  C      1.690510  -10.170200   70.023000
  H      3.876230   -9.137960   72.291000
  C      4.189840  -10.445300   69.820900
  H      4.952930   -9.620500   70.098200
  H      4.002690  -10.319700   68.716900
  C      4.765270  -11.813200   70.166900
  H      4.041120  -12.567800   69.946200
  H      4.790740  -11.842700   71.206200
  C      6.080550  -12.233900   69.538200
  H      6.915060  -11.759800   70.020100
  H      6.089920  -11.998500   68.499700
  H      6.216120  -13.256900   69.776200
  H      0.441427  -11.190900   65.220600
  H      1.658030   -8.363440   73.009200

 Total Charge           Charge          ....    0
 Multiplicity           Mult            ....    1
 Number of Electrons    NEL             ....  134
 Basis Dimension        Dim             ....  322

ORBITAL ENERGIES
----------------

  NO   OCC          E(Eh)            E(eV)
   0   2.0000     -88.965744     -2420.8810
   1   2.0000     -88.965368     -2420.8707
   2   2.0000     -10.328454      -281.0515
   3   2.0000     -10.323309      -280.9115
   4   2.0000     -10.318463      -280.7796
   5   2.0000     -10.309125      -280.5255
   6   2.0000     -10.306101      -280.4433
   7   2.0000     -10.300162      -280.2816
   8   2.0000     -10.297144      -280.1995
   9   2.0000     -10.294636      -280.1313
  10   2.0000     -10.290269      -280.0125
  11   2.0000     -10.286686      -279.9150
  12   2.0000     -10.283625      -279.8317
  13   2.0000     -10.274835      -279.5925
  14   2.0000     -10.271554      -279.5032
  15   2.0000     -10.266935      -279.3775
  16   2.0000      -8.081879      -219.9191
  17   2.0000      -8.079134      -219.8444
  18   2.0000      -6.040259      -164.3638
  19   2.0000      -6.037645      -164.2927
  20   2.0000      -6.036149      -164.2520
  21   2.0000      -6.033722      -164.1859
  22   2.0000      -6.032727      -164.1588
  23   2.0000      -6.029998      -164.0846
  24   2.0000      -1.012755       -27.5585
  25   2.0000      -0.984835       -26.7987
  26   2.0000      -0.917582       -24.9687
  27   2.0000      -0.911484       -24.8027
  28   2.0000      -0.872624       -23.7453
  29   2.0000      -0.858020       -23.3479
  30   2.0000      -0.845826       -23.0161
  31   2.0000      -0.815993       -22.2043
  32   2.0000      -0.784462       -21.3463
  33   2.0000      -0.771025       -20.9806
  34   2.0000      -0.712125       -19.3779
  35   2.0000      -0.700432       -19.0597
  36   2.0000      -0.684383       -18.6230
  37   2.0000      -0.671125       -18.2622
  38   2.0000      -0.637258       -17.3407
  39   2.0000      -0.613591       -16.6967
  40   2.0000      -0.595099       -16.1935
  41   2.0000      -0.576626       -15.6908
  42   2.0000      -0.570714       -15.5299
  43   2.0000      -0.559657       -15.2290
  44   2.0000      -0.534640       -14.5483
  45   2.0000      -0.524918       -14.2838
  46   2.0000      -0.518213       -14.1013
  47   2.0000      -0.509229       -13.8568
  48   2.0000      -0.506546       -13.7838
  49   2.0000      -0.498257       -13.5583
  50   2.0000      -0.491542       -13.3755
  51   2.0000      -0.483467       -13.1558
  52   2.0000      -0.472905       -12.8684
  53   2.0000      -0.461813       -12.5666
  54   2.0000      -0.460022       -12.5178
  55   2.0000      -0.449828       -12.2404
  56   2.0000      -0.447075       -12.1655
  57   2.0000      -0.439033       -11.9467
  58   2.0000      -0.435935       -11.8624
  59   2.0000      -0.424341       -11.5469
  60   2.0000      -0.422718       -11.5027
  61   2.0000      -0.416317       -11.3286
  62   2.0000      -0.407243       -11.0816
  63   2.0000      -0.333942        -9.0870
  64   2.0000      -0.331855        -9.0302
  65   2.0000      -0.326902        -8.8955
  66   2.0000      -0.302562        -8.2331
  67   0.0000       0.041195         1.1210
  68   0.0000       0.064433         1.7533
  69   0.0000       0.113132         3.0785
  70   0.0000       0.118490         3.2243
  71   0.0000       0.125147         3.4054

MULLIKEN ATOMIC CHARGES
-----------------------
   0 S :    0.109480
   1 C :   -0.172249
   2 C :   -0.056905
   3 C :    0.019132
   4 C :   -0.169182
   5 H :    0.034311
   6 C :    0.039807
   7 H :    0.033575
   8 H :    0.042605
   9 C :   -0.087031
  10 H :    0.027451
  11 H :    0.018433
  12 C :   -0.006113
  13 H :    0.020389
  14 H :    0.018574
  15 H :    0.041875
  16 S :    0.135867
  17 C :   -0.056172
  18 C :   -0.030855
  19 C :   -0.023357
  20 C :   -0.186073
  21 H :    0.000589
  22 C :    0.011865
  23 H :    0.029277
  24 H :    0.024929
  25 C :   -0.040172
  26 H :    0.015948
  27 H :   -0.004049
  28 C :    0.019835
  29 H :    0.015886
  30 H :    0.032078
  31 H :    0.023165
  32 H :    0.078800
  33 H :    0.038287
Sum of atomic charges:    0.0000000

LOEWDIN ATOMIC CHARGES
----------------------
   0 S :    0.398606
   1 C :   -0.203945
   2 C :   -0.065109
   3 C :   -0.074416
   4 C :   -0.196950
   5 H :    0.042967
   6 C :   -0.037355
   7 H :    0.036071
   8 H :    0.040438
   9 C :   -0.044152
  10 H :    0.026019
  11 H :    0.014732
  12 C :   -0.050947
  13 H :    0.018655
  14 H :    0.019284
  15 H :    0.034146
  16 S :    0.446263
  17 C :   -0.194596
  18 C :   -0.063075
  19 C :   -0.058516
  20 C :   -0.218498
  21 H :    0.022776
  22 C :   -0.042230
  23 H :    0.036780
  24 H :    0.023397
  25 C :   -0.038580
  26 H :    0.023110
  27 H :    0.013990
  28 C :   -0.051726
  29 H :    0.022123
  30 H :    0.024636
  31 H :    0.025942
  32 H :    0.045978
  33 H :    0.024181

  Mayer bond orders larger than 0.100000
B(  0-S ,  1-C ) :   1.1355 B(  0-S ,  4-C ) :   1.1535 B(  1-C ,  2-C ) :   1.6080
B(  1-C ,  4-C ) :   0.1043 B(  1-C , 32-H ) :   0.9580 B(  2-C ,  3-C ) :   1.2288
B(  2-C ,  6-C ) :   1.0181 B(  3-C ,  4-C ) :   1.6090 B(  3-C ,  5-H ) :   0.9790
B(  4-C , 20-C ) :   0.9869 B(  6-C ,  7-H ) :   0.9453 B(  6-C ,  8-H ) :   0.9252
B(  6-C ,  9-C ) :   1.0749 B(  9-C , 10-H ) :   0.9554 B(  9-C , 11-H ) :   0.9454
B(  9-C , 12-C ) :   1.0882 B( 12-C , 13-H ) :   0.9747 B( 12-C , 14-H ) :   0.9750
B( 12-C , 15-H ) :   0.9723 B( 16-S , 17-C ) :   1.1694 B( 16-S , 20-C ) :   1.1500
B( 17-C , 18-C ) :   1.6043 B( 17-C , 33-H ) :   0.9657 B( 18-C , 19-C ) :   1.2477
B( 18-C , 21-H ) :   0.9945 B( 19-C , 20-C ) :   1.6176 B( 19-C , 22-C ) :   1.0457
B( 22-C , 23-H ) :   0.9374 B( 22-C , 24-H ) :   0.9241 B( 22-C , 25-C ) :   1.0647
B( 25-C , 26-H ) :   0.9503 B( 25-C , 27-H ) :   0.9473 B( 25-C , 28-C ) :   1.0916
B( 28-C , 29-H ) :   0.9715 B( 28-C , 30-H ) :   0.9742 B( 28-C , 31-H ) :   0.9703

Dispersion correction           -0.013716728
FINAL SINGLE POINT ENERGY     -1339.875038411619

DIPOLE MOMENT
-------------
                                X             Y             Z
Electronic contribution:     -5.62165      22.67583       4.88022
Nuclear contribution   :      5.64109     -23.16108      -4.78640
                        -----------------------------------------
Total Dipole Moment    :      0.01944      -0.48524       0.09382
                        -----------------------------------------
Magnitude (a.u.)       :      0.49461
Magnitude (Debye)      :      1.25720

Rotational constants in cm-1:     0.018016     0.007811     0.006805
Rotational constants in MHz :   540.105294   234.165236   204.004174

                             ****ORCA TERMINATED NORMALLY****
TOTAL RUN TIME: 0 days 0 hours 0 minutes 34 seconds 169 msec
