                         Program Version 4.2.1 -  RELEASE  -
|  1> ! wB97X-D3 SP def2-SVP
|  2> %pal
|  3> nprocs 16
|  4> end
|  5>
|  6> * xyz 0 1
|  7> S 	 -33.2171 	 74.603 	 152.877
|  8> C 	 -31.77 	 74.6161 	 151.863
|  9> C 	 -31.6401 	 73.4853 	 151.109
| 10> C 	 -32.8145 	 72.6621 	 151.25
| 11> C 	 -33.8505 	 73.1479 	 152.048
| 12> H 	 -33.0333 	 71.7586 	 150.714
| 13> C 	 -30.6021 	 73.1986 	 150.034
| 14> H 	 -30.4754 	 72.1089 	 150.022
| 15> H 	 -29.792 	 73.6789 	 150.476
| 16> C 	 -31.0227 	 73.6133 	 148.639
| 17> H 	 -31.9705 	 73.223 	 148.337
| 18> H 	 -31.1539 	 74.7515 	 148.662
| 19> C 	 -29.9993 	 73.2742 	 147.552
| 20> H 	 -30.2788 	 73.9577 	 146.741
| 21> H 	 -28.9331 	 73.502 	 147.759
| 22> H 	 -29.8847 	 72.2173 	 147.271
| 23> S 	 -36.576 	 73.5332 	 152.11
| 24> C 	 -37.5982 	 72.1388 	 152.564
| 25> C 	 -36.8469 	 70.9806 	 152.648
| 26> C 	 -35.4229 	 71.2282 	 152.669
| 27> C 	 -35.1524 	 72.5676 	 152.389
| 28> H 	 -37.248 	 70.059 	 152.753
| 29> C 	 -34.4319 	 70.1339 	 152.918
| 30> H 	 -33.4542 	 70.5284 	 152.635
| 31> H 	 -34.7978 	 69.4281 	 152.18
| 32> C 	 -34.3102 	 69.5911 	 154.376
| 33> H 	 -33.5732 	 68.6982 	 154.325
| 34> H 	 -35.225 	 69.2041 	 154.661
| 35> C 	 -33.8485 	 70.6906 	 155.361
| 36> H 	 -33.3998 	 70.2162 	 156.151
| 37> H 	 -34.7231 	 71.1666 	 155.844
| 38> H 	 -33.2205 	 71.5032 	 154.923
| 39> H 	 -30.9911 	 75.3782 	 151.997
| 40> H 	 -38.6833 	 72.1176 	 152.453
| 41> *
| 42>
| 43>                          ****END OF INPUT****

CARTESIAN COORDINATES (ANGSTROEM)
---------------------------------
  S    -33.217100   74.603000  152.877000
  C    -31.770000   74.616100  151.863000
  C    -31.640100   73.485300  151.109000
  C    -32.814500   72.662100  151.250000
  C    -33.850500   73.147900  152.048000
  H    -33.033300   71.758600  150.714000
  C    -30.602100   73.198600  150.034000
  H    -30.475400   72.108900  150.022000
  H    -29.792000   73.678900  150.476000
  C    -31.022700   73.613300  148.639000
  H    -31.970500   73.223000  148.337000
  H    -31.153900   74.751500  148.662000
  C    -29.999300   73.274200  147.552000
  H    -30.278800   73.957700  146.741000
  H    -28.933100   73.502000  147.759000
  H    -29.884700   72.217300  147.271000
  S    -36.576000   73.533200  152.110000
  C    -37.598200   72.138800  152.564000
  C    -36.846900   70.980600  152.648000
  C    -35.422900   71.228200  152.669000
  C    -35.152400   72.567600  152.389000
  H    -37.248000   70.059000  152.753000
  C    -34.431900   70.133900  152.918000
  H    -33.454200   70.528400  152.635000
  H    -34.797800   69.428100  152.180000
  C    -34.310200   69.591100  154.376000
  H    -33.573200   68.698200  154.325000
  H    -35.225000   69.204100  154.661000
  C    -33.848500   70.690600  155.361000
  H    -33.399800   70.216200  156.151000
  H    -34.723100   71.166600  155.844000
  H    -33.220500   71.503200  154.923000
  H    -30.991100   75.378200  151.997000
  H    -38.683300   72.117600  152.453000

 Total Charge           Charge          ....    0
 Multiplicity           Mult            ....    1
 Number of Electrons    NEL             ....  134
 Basis Dimension        Dim             ....  322

ORBITAL ENERGIES
----------------

  NO   OCC          E(Eh)            E(eV)
   0   2.0000     -88.967384     -2420.9256
   1   2.0000     -88.961002     -2420.7519
   2   2.0000     -10.331822      -281.1432
   3   2.0000     -10.326146      -280.9887
   4   2.0000     -10.322240      -280.8824
   5   2.0000     -10.315511      -280.6993
   6   2.0000     -10.302675      -280.3500
   7   2.0000     -10.299953      -280.2760
   8   2.0000     -10.293296      -280.0948
   9   2.0000     -10.291870      -280.0560
  10   2.0000     -10.290702      -280.0242
  11   2.0000     -10.290445      -280.0172
  12   2.0000     -10.288979      -279.9774
  13   2.0000     -10.288671      -279.9690
  14   2.0000     -10.281635      -279.7775
  15   2.0000     -10.270951      -279.4868
  16   2.0000      -8.081646      -219.9128
  17   2.0000      -8.075073      -219.7339
  18   2.0000      -6.040242      -164.3633
  19   2.0000      -6.036347      -164.2573
  20   2.0000      -6.033627      -164.1833
  21   2.0000      -6.032205      -164.1446
  22   2.0000      -6.029706      -164.0766
  23   2.0000      -6.025784      -163.9699
  24   2.0000      -1.000976       -27.2379
  25   2.0000      -0.979351       -26.6495
  26   2.0000      -0.913403       -24.8550
  27   2.0000      -0.906294       -24.6615
  28   2.0000      -0.869080       -23.6489
  29   2.0000      -0.848755       -23.0958
  30   2.0000      -0.843336       -22.9483
  31   2.0000      -0.814192       -22.1553
  32   2.0000      -0.783749       -21.3269
  33   2.0000      -0.771274       -20.9874
  34   2.0000      -0.708345       -19.2751
  35   2.0000      -0.700790       -19.0695
  36   2.0000      -0.693603       -18.8739
  37   2.0000      -0.667190       -18.1552
  38   2.0000      -0.641385       -17.4530
  39   2.0000      -0.616794       -16.7838
  40   2.0000      -0.590698       -16.0737
  41   2.0000      -0.573077       -15.5942
  42   2.0000      -0.560884       -15.2624
  43   2.0000      -0.553665       -15.0660
  44   2.0000      -0.539906       -14.6916
  45   2.0000      -0.530541       -14.4368
  46   2.0000      -0.515384       -14.0243
  47   2.0000      -0.508077       -13.8255
  48   2.0000      -0.504188       -13.7196
  49   2.0000      -0.495336       -13.4788
  50   2.0000      -0.492446       -13.4001
  51   2.0000      -0.474702       -12.9173
  52   2.0000      -0.471005       -12.8167
  53   2.0000      -0.460416       -12.5285
  54   2.0000      -0.458319       -12.4715
  55   2.0000      -0.447786       -12.1849
  56   2.0000      -0.442108       -12.0304
  57   2.0000      -0.437996       -11.9185
  58   2.0000      -0.432075       -11.7574
  59   2.0000      -0.426531       -11.6065
  60   2.0000      -0.417089       -11.3496
  61   2.0000      -0.414305       -11.2738
  62   2.0000      -0.412502       -11.2248
  63   2.0000      -0.345117        -9.3911
  64   2.0000      -0.329491        -8.9659
  65   2.0000      -0.326652        -8.8886
  66   2.0000      -0.293642        -7.9904
  67   0.0000       0.028333         0.7710
  68   0.0000       0.067620         1.8400
  69   0.0000       0.106994         2.9115
  70   0.0000       0.113023         3.0755
  71   0.0000       0.134325         3.6552

MULLIKEN ATOMIC CHARGES
-----------------------
   0 S :    0.086293
   1 C :   -0.137911
   2 C :   -0.093999
   3 C :    0.032497
   4 C :   -0.172154
   5 H :    0.006879
   6 C :    0.112231
   7 H :    0.021943
   8 H :    0.009274
   9 C :   -0.065052
  10 H :    0.028893
  11 H :    0.033809
  12 C :   -0.056533
  13 H :    0.040283
  14 H :    0.023487
  15 H :    0.038051
  16 S :    0.109432
  17 C :   -0.082606
  18 C :    0.002481
  19 C :   -0.064149
  20 C :   -0.147944
  21 H :   -0.021958
  22 C :    0.057540
  23 H :    0.019979
  24 H :    0.031233
  25 C :   -0.051794
  26 H :    0.043420
  27 H :    0.008442
  28 C :   -0.033080
  29 H :    0.014050
  30 H :    0.036256
  31 H :    0.051044
  32 H :    0.055284
  33 H :    0.064378
Sum of atomic charges:   -0.0000000

LOEWDIN ATOMIC CHARGES
----------------------
   0 S :    0.371751
   1 C :   -0.190411
   2 C :   -0.066300
   3 C :   -0.063599
   4 C :   -0.180922
   5 H :    0.024719
   6 C :   -0.025690
   7 H :    0.032519
   8 H :    0.022934
   9 C :   -0.037679
  10 H :    0.024444
  11 H :    0.033291
  12 C :   -0.075688
  13 H :    0.032911
  14 H :    0.025905
  15 H :    0.026151
  16 S :    0.398303
  17 C :   -0.171994
  18 C :   -0.051512
  19 C :   -0.049417
  20 C :   -0.211813
  21 H :    0.011549
  22 C :   -0.035801
  23 H :    0.028342
  24 H :    0.033742
  25 C :   -0.029763
  26 H :    0.033244
  27 H :    0.009307
  28 C :   -0.063180
  29 H :    0.014729
  30 H :    0.034111
  31 H :    0.034118
  32 H :    0.030276
  33 H :    0.031421

  Mayer bond orders larger than 0.100000
B(  0-S ,  1-C ) :   1.1335 B(  0-S ,  4-C ) :   1.1286 B(  1-C ,  2-C ) :   1.6296
B(  1-C , 32-H ) :   0.9647 B(  2-C ,  3-C ) :   1.2186 B(  2-C ,  6-C ) :   1.0192
B(  3-C ,  4-C ) :   1.6058 B(  3-C ,  5-H ) :   0.9890 B(  4-C , 20-C ) :   1.0243
B(  6-C ,  7-H ) :   0.9343 B(  6-C ,  8-H ) :   0.9340 B(  6-C ,  9-C ) :   1.0727
B(  9-C , 10-H ) :   0.9533 B(  9-C , 11-H ) :   0.9552 B(  9-C , 12-C ) :   1.0743
B( 12-C , 13-H ) :   0.9750 B( 12-C , 14-H ) :   0.9748 B( 12-C , 15-H ) :   0.9743
B( 16-S , 17-C ) :   1.1351 B( 16-S , 20-C ) :   1.1464 B( 17-C , 18-C ) :   1.6210
B( 17-C , 33-H ) :   0.9652 B( 18-C , 19-C ) :   1.2296 B( 18-C , 21-H ) :   1.0006
B( 19-C , 20-C ) :   1.5860 B( 19-C , 22-C ) :   1.0288 B( 22-C , 23-H ) :   0.9320
B( 22-C , 24-H ) :   0.9310 B( 22-C , 25-C ) :   1.0726 B( 25-C , 26-H ) :   0.9608
B( 25-C , 27-H ) :   0.9575 B( 25-C , 28-C ) :   1.0592 B( 28-C , 29-H ) :   0.9718
B( 28-C , 30-H ) :   0.9716 B( 28-C , 31-H ) :   0.9796

Dispersion correction           -0.014630531
FINAL SINGLE POINT ENERGY     -1339.863512662103

DIPOLE MOMENT
-------------
                                X             Y             Z
Electronic contribution:    -16.70812      13.27910       6.82895
Nuclear contribution   :     16.93570     -13.89638      -7.11962
                        -----------------------------------------
Total Dipole Moment    :      0.22758      -0.61728      -0.29067
                        -----------------------------------------
Magnitude (a.u.)       :      0.71925
Magnitude (Debye)      :      1.82818

Rotational constants in cm-1:     0.019774     0.007713     0.007186
Rotational constants in MHz :   592.817256   231.231315   215.432657

                             ****ORCA TERMINATED NORMALLY****
TOTAL RUN TIME: 0 days 0 hours 0 minutes 34 seconds 618 msec
