                         Program Version 4.2.1 -  RELEASE  -
|  1> ! wB97X-D3 SP def2-SVP
|  2> %pal
|  3> nprocs 16
|  4> end
|  5>
|  6> * xyz 0 1
|  7> S 	 -21.9662 	 -0.685827 	 79.307
|  8> C 	 -20.2353 	 -1.06042 	 78.9877
|  9> C 	 -20.0942 	 -1.37892 	 77.6519
| 10> C 	 -21.327 	 -1.15422 	 76.9263
| 11> C 	 -22.4827 	 -0.902087 	 77.6979
| 12> H 	 -21.5638 	 -1.37633 	 75.8818
| 13> C 	 -18.7385 	 -1.63352 	 76.9716
| 14> H 	 -17.929 	 -1.72425 	 77.6751
| 15> H 	 -18.4463 	 -0.733134 	 76.4547
| 16> C 	 -18.4878 	 -2.92354 	 76.1559
| 17> H 	 -19.1301 	 -3.04069 	 75.3266
| 18> H 	 -17.4503 	 -2.77323 	 75.858
| 19> C 	 -18.4962 	 -4.15498 	 77.0909
| 20> H 	 -19.5123 	 -4.39264 	 77.4574
| 21> H 	 -18.1696 	 -5.00712 	 76.4964
| 22> H 	 -17.7162 	 -4.09168 	 77.8631
| 23> S 	 -24.7516 	 0.706991 	 78.1848
| 24> C 	 -26.0024 	 0.837736 	 76.9531
| 25> C 	 -25.7528 	 0.0134718 	 75.8484
| 26> C 	 -24.5432 	 -0.800961 	 75.9956
| 27> C 	 -23.8132 	 -0.468999 	 77.1681
| 28> H 	 -26.4078 	 0.031731 	 74.9832
| 29> C 	 -24.1765 	 -1.6737 	 74.8248
| 30> H 	 -23.2857 	 -1.26925 	 74.3598
| 31> H 	 -24.8821 	 -1.5332 	 73.9578
| 32> C 	 -24.0363 	 -3.14572 	 75.2804
| 33> H 	 -25.1001 	 -3.48724 	 75.4725
| 34> H 	 -23.4322 	 -3.28581 	 76.2354
| 35> C 	 -23.4822 	 -4.14002 	 74.27
| 36> H 	 -22.4535 	 -3.92755 	 73.9765
| 37> H 	 -23.9924 	 -4.08236 	 73.3081
| 38> H 	 -23.5453 	 -5.15467 	 74.6793
| 39> H 	 -19.4335 	 -1.17743 	 79.6938
| 40> H 	 -26.853 	 1.40642 	 76.9904
| 41> *
| 42>
| 43>                          ****END OF INPUT****

CARTESIAN COORDINATES (ANGSTROEM)
---------------------------------
  S    -21.966200   -0.685827   79.307000
  C    -20.235300   -1.060420   78.987700
  C    -20.094200   -1.378920   77.651900
  C    -21.327000   -1.154220   76.926300
  C    -22.482700   -0.902087   77.697900
  H    -21.563800   -1.376330   75.881800
  C    -18.738500   -1.633520   76.971600
  H    -17.929000   -1.724250   77.675100
  H    -18.446300   -0.733134   76.454700
  C    -18.487800   -2.923540   76.155900
  H    -19.130100   -3.040690   75.326600
  H    -17.450300   -2.773230   75.858000
  C    -18.496200   -4.154980   77.090900
  H    -19.512300   -4.392640   77.457400
  H    -18.169600   -5.007120   76.496400
  H    -17.716200   -4.091680   77.863100
  S    -24.751600    0.706991   78.184800
  C    -26.002400    0.837736   76.953100
  C    -25.752800    0.013472   75.848400
  C    -24.543200   -0.800961   75.995600
  C    -23.813200   -0.468999   77.168100
  H    -26.407800    0.031731   74.983200
  C    -24.176500   -1.673700   74.824800
  H    -23.285700   -1.269250   74.359800
  H    -24.882100   -1.533200   73.957800
  C    -24.036300   -3.145720   75.280400
  H    -25.100100   -3.487240   75.472500
  H    -23.432200   -3.285810   76.235400
  C    -23.482200   -4.140020   74.270000
  H    -22.453500   -3.927550   73.976500
  H    -23.992400   -4.082360   73.308100
  H    -23.545300   -5.154670   74.679300
  H    -19.433500   -1.177430   79.693800
  H    -26.853000    1.406420   76.990400

 Total Charge           Charge          ....    0
 Multiplicity           Mult            ....    1
 Number of Electrons    NEL             ....  134
 Basis Dimension        Dim             ....  322

ORBITAL ENERGIES
----------------

  NO   OCC          E(Eh)            E(eV)
   0   2.0000     -88.970556     -2421.0119
   1   2.0000     -88.966475     -2420.9009
   2   2.0000     -10.344252      -281.4814
   3   2.0000     -10.335857      -281.2530
   4   2.0000     -10.319042      -280.7954
   5   2.0000     -10.317207      -280.7455
   6   2.0000     -10.314248      -280.6650
   7   2.0000     -10.308339      -280.5042
   8   2.0000     -10.300421      -280.2887
   9   2.0000     -10.299945      -280.2758
  10   2.0000     -10.297251      -280.2024
  11   2.0000     -10.295200      -280.1466
  12   2.0000     -10.291720      -280.0519
  13   2.0000     -10.287238      -279.9300
  14   2.0000     -10.280376      -279.7433
  15   2.0000     -10.277411      -279.6626
  16   2.0000      -8.083790      -219.9711
  17   2.0000      -8.081081      -219.8974
  18   2.0000      -6.042499      -164.4248
  19   2.0000      -6.039760      -164.3502
  20   2.0000      -6.038493      -164.3158
  21   2.0000      -6.035436      -164.2326
  22   2.0000      -6.034447      -164.2056
  23   2.0000      -6.031811      -164.1339
  24   2.0000      -1.000318       -27.2200
  25   2.0000      -0.975653       -26.5489
  26   2.0000      -0.912131       -24.8203
  27   2.0000      -0.907432       -24.6925
  28   2.0000      -0.867405       -23.6033
  29   2.0000      -0.850841       -23.1526
  30   2.0000      -0.837794       -22.7975
  31   2.0000      -0.812244       -22.1023
  32   2.0000      -0.784049       -21.3350
  33   2.0000      -0.776063       -21.1177
  34   2.0000      -0.708565       -19.2810
  35   2.0000      -0.698880       -19.0175
  36   2.0000      -0.688236       -18.7279
  37   2.0000      -0.662104       -18.0168
  38   2.0000      -0.641823       -17.4649
  39   2.0000      -0.615371       -16.7451
  40   2.0000      -0.595385       -16.2012
  41   2.0000      -0.574804       -15.6412
  42   2.0000      -0.559050       -15.2125
  43   2.0000      -0.551733       -15.0134
  44   2.0000      -0.541745       -14.7416
  45   2.0000      -0.532653       -14.4942
  46   2.0000      -0.512713       -13.9516
  47   2.0000      -0.511839       -13.9278
  48   2.0000      -0.502631       -13.6773
  49   2.0000      -0.497373       -13.5342
  50   2.0000      -0.495527       -13.4840
  51   2.0000      -0.480854       -13.0847
  52   2.0000      -0.470888       -12.8135
  53   2.0000      -0.462927       -12.5969
  54   2.0000      -0.459468       -12.5028
  55   2.0000      -0.445418       -12.1204
  56   2.0000      -0.438148       -11.9226
  57   2.0000      -0.435123       -11.8403
  58   2.0000      -0.433129       -11.7860
  59   2.0000      -0.426581       -11.6079
  60   2.0000      -0.422639       -11.5006
  61   2.0000      -0.412625       -11.2281
  62   2.0000      -0.406366       -11.0578
  63   2.0000      -0.355385        -9.6705
  64   2.0000      -0.332641        -9.0516
  65   2.0000      -0.327934        -8.9235
  66   2.0000      -0.286370        -7.7925
  67   0.0000       0.017256         0.4696
  68   0.0000       0.078749         2.1429
  69   0.0000       0.096880         2.6362
  70   0.0000       0.116106         3.1594
  71   0.0000       0.122132         3.3234

MULLIKEN ATOMIC CHARGES
-----------------------
   0 S :    0.086397
   1 C :   -0.111058
   2 C :   -0.063273
   3 C :   -0.001745
   4 C :   -0.116624
   5 H :    0.008178
   6 C :    0.047125
   7 H :   -0.004686
   8 H :    0.040847
   9 C :   -0.050918
  10 H :    0.028838
  11 H :    0.026542
  12 C :   -0.066752
  13 H :    0.052624
  14 H :    0.027663
  15 H :    0.028463
  16 S :    0.100051
  17 C :   -0.047732
  18 C :   -0.047635
  19 C :   -0.037021
  20 C :   -0.128749
  21 H :    0.025116
  22 C :    0.039954
  23 H :    0.034601
  24 H :    0.026818
  25 C :   -0.133959
  26 H :    0.041088
  27 H :    0.065045
  28 C :   -0.026582
  29 H :    0.019442
  30 H :    0.020307
  31 H :    0.043811
  32 H :    0.048119
  33 H :    0.025705
Sum of atomic charges:    0.0000000

LOEWDIN ATOMIC CHARGES
----------------------
   0 S :    0.403795
   1 C :   -0.181425
   2 C :   -0.061217
   3 C :   -0.074573
   4 C :   -0.208304
   5 H :    0.026712
   6 C :   -0.033843
   7 H :    0.025300
   8 H :    0.033094
   9 C :   -0.031295
  10 H :    0.014267
  11 H :    0.029014
  12 C :   -0.066679
  13 H :    0.030590
  14 H :    0.025584
  15 H :    0.025162
  16 S :    0.380392
  17 C :   -0.167094
  18 C :   -0.067673
  19 C :   -0.048116
  20 C :   -0.173312
  21 H :    0.031735
  22 C :   -0.040758
  23 H :    0.026494
  24 H :    0.036914
  25 C :   -0.050316
  26 H :    0.033553
  27 H :    0.036612
  28 C :   -0.071126
  29 H :    0.019696
  30 H :    0.022147
  31 H :    0.031259
  32 H :    0.030395
  33 H :    0.013017

  Mayer bond orders larger than 0.100000
B(  0-S ,  1-C ) :   1.1302 B(  0-S ,  4-C ) :   1.1600 B(  1-C ,  2-C ) :   1.6013
B(  1-C , 32-H ) :   0.9679 B(  2-C ,  3-C ) :   1.2446 B(  2-C ,  6-C ) :   1.0208
B(  3-C ,  4-C ) :   1.5489 B(  3-C ,  5-H ) :   0.9828 B(  4-C , 20-C ) :   1.0599
B(  6-C ,  7-H ) :   0.9422 B(  6-C ,  8-H ) :   0.9447 B(  6-C ,  9-C ) :   1.0647
B(  9-C , 10-H ) :   0.9619 B(  9-C , 11-H ) :   0.9538 B(  9-C , 12-C ) :   1.0808
B( 12-C , 13-H ) :   0.9763 B( 12-C , 14-H ) :   0.9738 B( 12-C , 15-H ) :   0.9732
B( 16-S , 17-C ) :   1.1480 B( 16-S , 20-C ) :   1.1201 B( 17-C , 18-C ) :   1.6239
B( 17-C , 33-H ) :   0.9752 B( 18-C , 19-C ) :   1.2369 B( 18-C , 21-H ) :   0.9849
B( 19-C , 20-C ) :   1.5890 B( 19-C , 22-C ) :   1.0387 B( 22-C , 23-H ) :   0.9363
B( 22-C , 24-H ) :   0.9355 B( 22-C , 25-C ) :   1.0368 B( 25-C , 26-H ) :   0.9528
B( 25-C , 27-H ) :   0.9601 B( 25-C , 28-C ) :   1.0862 B( 28-C , 29-H ) :   0.9726
B( 28-C , 30-H ) :   0.9696 B( 28-C , 31-H ) :   0.9735

Dispersion correction           -0.014275076
FINAL SINGLE POINT ENERGY     -1339.865167923953

DIPOLE MOMENT
-------------
                                X             Y             Z
Electronic contribution:    -14.44168      21.24681      18.76235
Nuclear contribution   :     14.72457     -21.52281     -19.46366
                        -----------------------------------------
Total Dipole Moment    :      0.28289      -0.27600      -0.70131
                        -----------------------------------------
Magnitude (a.u.)       :      0.80501
Magnitude (Debye)      :      2.04618

Rotational constants in cm-1:     0.018411     0.009321     0.006668
Rotational constants in MHz :   551.937796   279.428903   199.890746

                             ****ORCA TERMINATED NORMALLY****
TOTAL RUN TIME: 0 days 0 hours 0 minutes 34 seconds 394 msec
