                         Program Version 4.2.1 -  RELEASE  -
|  1> ! wB97X-D3 SP def2-SVP
|  2> %pal
|  3> nprocs 16
|  4> end
|  5>
|  6> * xyz 0 1
|  7> S 	 -60.8942 	 36.2666 	 118.672
|  8> C 	 -59.8183 	 36.8909 	 119.879
|  9> C 	 -59.1444 	 38.0196 	 119.412
| 10> C 	 -59.4819 	 38.3817 	 118.07
| 11> C 	 -60.4768 	 37.5289 	 117.534
| 12> H 	 -59.1128 	 39.2266 	 117.429
| 13> C 	 -58.2259 	 38.8013 	 120.257
| 14> H 	 -57.4384 	 39.0296 	 119.489
| 15> H 	 -57.8269 	 38.1741 	 121.072
| 16> C 	 -58.7289 	 40.1275 	 120.806
| 17> H 	 -57.9918 	 40.9411 	 120.694
| 18> H 	 -59.582 	 40.4503 	 120.17
| 19> C 	 -59.238 	 40.0713 	 122.274
| 20> H 	 -59.1523 	 41.0269 	 122.75
| 21> H 	 -60.2717 	 39.7753 	 122.331
| 22> H 	 -58.6197 	 39.3698 	 122.79
| 23> S 	 -59.8513 	 37.6482 	 114.828
| 24> C 	 -61.0938 	 37.4407 	 113.624
| 25> C 	 -62.3201 	 37.3954 	 114.334
| 26> C 	 -62.2792 	 37.6953 	 115.734
| 27> C 	 -60.957 	 37.7195 	 116.167
| 28> H 	 -63.2192 	 37.2567 	 113.784
| 29> C 	 -63.5069 	 37.7196 	 116.596
| 30> H 	 -63.3374 	 37.6773 	 117.625
| 31> H 	 -63.9037 	 36.7047 	 116.422
| 32> C 	 -64.6545 	 38.7825 	 116.403
| 33> H 	 -65.565 	 38.5647 	 117.05
| 34> H 	 -65.0546 	 38.6657 	 115.376
| 35> C 	 -64.3637 	 40.2455 	 116.67
| 36> H 	 -65.2926 	 40.7431 	 116.759
| 37> H 	 -63.6575 	 40.7292 	 115.995
| 38> H 	 -63.8296 	 40.4296 	 117.654
| 39> H 	 -59.8181 	 36.6458 	 120.94
| 40> H 	 -60.9623 	 37.1382 	 112.616
| 41> *
| 42>
| 43>                          ****END OF INPUT****

CARTESIAN COORDINATES (ANGSTROEM)
---------------------------------
  S    -60.894200   36.266600  118.672000
  C    -59.818300   36.890900  119.879000
  C    -59.144400   38.019600  119.412000
  C    -59.481900   38.381700  118.070000
  C    -60.476800   37.528900  117.534000
  H    -59.112800   39.226600  117.429000
  C    -58.225900   38.801300  120.257000
  H    -57.438400   39.029600  119.489000
  H    -57.826900   38.174100  121.072000
  C    -58.728900   40.127500  120.806000
  H    -57.991800   40.941100  120.694000
  H    -59.582000   40.450300  120.170000
  C    -59.238000   40.071300  122.274000
  H    -59.152300   41.026900  122.750000
  H    -60.271700   39.775300  122.331000
  H    -58.619700   39.369800  122.790000
  S    -59.851300   37.648200  114.828000
  C    -61.093800   37.440700  113.624000
  C    -62.320100   37.395400  114.334000
  C    -62.279200   37.695300  115.734000
  C    -60.957000   37.719500  116.167000
  H    -63.219200   37.256700  113.784000
  C    -63.506900   37.719600  116.596000
  H    -63.337400   37.677300  117.625000
  H    -63.903700   36.704700  116.422000
  C    -64.654500   38.782500  116.403000
  H    -65.565000   38.564700  117.050000
  H    -65.054600   38.665700  115.376000
  C    -64.363700   40.245500  116.670000
  H    -65.292600   40.743100  116.759000
  H    -63.657500   40.729200  115.995000
  H    -63.829600   40.429600  117.654000
  H    -59.818100   36.645800  120.940000
  H    -60.962300   37.138200  112.616000

 Total Charge           Charge          ....    0
 Multiplicity           Mult            ....    1
 Number of Electrons    NEL             ....  134
 Basis Dimension        Dim             ....  322

ORBITAL ENERGIES
----------------

  NO   OCC          E(Eh)            E(eV)
   0   2.0000     -88.971795     -2421.0456
   1   2.0000     -88.966428     -2420.8996
   2   2.0000     -10.331776      -281.1419
   3   2.0000     -10.325481      -280.9706
   4   2.0000     -10.320673      -280.8398
   5   2.0000     -10.312046      -280.6050
   6   2.0000     -10.305097      -280.4159
   7   2.0000     -10.299446      -280.2622
   8   2.0000     -10.298830      -280.2454
   9   2.0000     -10.295668      -280.1594
  10   2.0000     -10.295559      -280.1564
  11   2.0000     -10.290008      -280.0053
  12   2.0000     -10.289563      -279.9932
  13   2.0000     -10.287597      -279.9397
  14   2.0000     -10.274613      -279.5864
  15   2.0000     -10.273232      -279.5489
  16   2.0000      -8.085893      -220.0283
  17   2.0000      -8.081257      -219.9022
  18   2.0000      -6.044436      -164.4775
  19   2.0000      -6.040372      -164.3669
  20   2.0000      -6.039784      -164.3509
  21   2.0000      -6.036775      -164.2690
  22   2.0000      -6.035505      -164.2345
  23   2.0000      -6.032226      -164.1452
  24   2.0000      -1.006213       -27.3805
  25   2.0000      -0.984483       -26.7891
  26   2.0000      -0.913523       -24.8582
  27   2.0000      -0.903820       -24.5942
  28   2.0000      -0.867665       -23.6104
  29   2.0000      -0.853220       -23.2173
  30   2.0000      -0.848613       -23.0919
  31   2.0000      -0.809870       -22.0377
  32   2.0000      -0.785478       -21.3740
  33   2.0000      -0.774092       -21.0641
  34   2.0000      -0.707289       -19.2463
  35   2.0000      -0.698432       -19.0053
  36   2.0000      -0.692601       -18.8466
  37   2.0000      -0.662438       -18.0258
  38   2.0000      -0.633870       -17.2485
  39   2.0000      -0.614673       -16.7261
  40   2.0000      -0.598188       -16.2775
  41   2.0000      -0.570753       -15.5310
  42   2.0000      -0.554471       -15.0879
  43   2.0000      -0.551985       -15.0203
  44   2.0000      -0.538950       -14.6656
  45   2.0000      -0.532483       -14.4896
  46   2.0000      -0.522644       -14.2219
  47   2.0000      -0.514203       -13.9922
  48   2.0000      -0.502679       -13.6786
  49   2.0000      -0.495296       -13.4777
  50   2.0000      -0.490601       -13.3499
  51   2.0000      -0.477470       -12.9926
  52   2.0000      -0.475480       -12.9385
  53   2.0000      -0.466302       -12.6887
  54   2.0000      -0.457840       -12.4585
  55   2.0000      -0.448446       -12.2028
  56   2.0000      -0.441008       -12.0004
  57   2.0000      -0.440193       -11.9783
  58   2.0000      -0.436798       -11.8859
  59   2.0000      -0.425503       -11.5785
  60   2.0000      -0.416176       -11.3247
  61   2.0000      -0.409468       -11.1422
  62   2.0000      -0.405777       -11.0417
  63   2.0000      -0.342110        -9.3093
  64   2.0000      -0.329693        -8.9714
  65   2.0000      -0.326126        -8.8743
  66   2.0000      -0.292556        -7.9609
  67   0.0000       0.026762         0.7282
  68   0.0000       0.063131         1.7179
  69   0.0000       0.111030         3.0213
  70   0.0000       0.114792         3.1236
  71   0.0000       0.130616         3.5542

MULLIKEN ATOMIC CHARGES
-----------------------
   0 S :    0.129536
   1 C :   -0.123872
   2 C :   -0.097501
   3 C :   -0.014610
   4 C :   -0.141324
   5 H :    0.039546
   6 C :    0.055749
   7 H :    0.036374
   8 H :    0.025929
   9 C :   -0.085566
  10 H :    0.031812
  11 H :    0.031853
  12 C :   -0.023257
  13 H :    0.030531
  14 H :    0.035114
  15 H :    0.015164
  16 S :    0.114257
  17 C :   -0.088117
  18 C :   -0.044836
  19 C :   -0.025755
  20 C :   -0.162784
  21 H :    0.012519
  22 C :    0.075961
  23 H :    0.003962
  24 H :    0.033866
  25 C :   -0.092376
  26 H :    0.035566
  27 H :    0.026710
  28 C :   -0.045346
  29 H :    0.030774
  30 H :    0.040147
  31 H :    0.026247
  32 H :    0.053526
  33 H :    0.060203
Sum of atomic charges:   -0.0000000

LOEWDIN ATOMIC CHARGES
----------------------
   0 S :    0.423515
   1 C :   -0.217519
   2 C :   -0.065536
   3 C :   -0.071251
   4 C :   -0.193685
   5 H :    0.041298
   6 C :   -0.041295
   7 H :    0.044127
   8 H :    0.029960
   9 C :   -0.045132
  10 H :    0.025220
  11 H :    0.028916
  12 C :   -0.058748
  13 H :    0.025591
  14 H :    0.025397
  15 H :    0.017451
  16 S :    0.422363
  17 C :   -0.191164
  18 C :   -0.061376
  19 C :   -0.057755
  20 C :   -0.206771
  21 H :    0.021724
  22 C :   -0.037714
  23 H :    0.016430
  24 H :    0.042965
  25 C :   -0.043485
  26 H :    0.034555
  27 H :    0.022059
  28 C :   -0.071818
  29 H :    0.023183
  30 H :    0.025903
  31 H :    0.031076
  32 H :    0.032894
  33 H :    0.028623

  Mayer bond orders larger than 0.100000
B(  0-S ,  1-C ) :   1.1371 B(  0-S ,  4-C ) :   1.1566 B(  1-C ,  2-C ) :   1.5921
B(  1-C , 32-H ) :   0.9627 B(  2-C ,  3-C ) :   1.2489 B(  2-C ,  6-C ) :   1.0423
B(  3-C ,  4-C ) :   1.5319 B(  3-C ,  5-H ) :   0.9874 B(  4-C , 20-C ) :   1.0569
B(  6-C ,  7-H ) :   0.9294 B(  6-C ,  8-H ) :   0.9455 B(  6-C ,  9-C ) :   1.0543
B(  9-C , 10-H ) :   0.9604 B(  9-C , 11-H ) :   0.9587 B(  9-C , 12-C ) :   1.0720
B( 12-C , 13-H ) :   0.9751 B( 12-C , 14-H ) :   0.9775 B( 12-C , 15-H ) :   0.9800
B( 16-S , 17-C ) :   1.1583 B( 16-S , 20-C ) :   1.1566 B( 17-C , 18-C ) :   1.5780
B( 17-C , 20-C ) :   0.1015 B( 17-C , 33-H ) :   0.9745 B( 18-C , 19-C ) :   1.2619
B( 18-C , 21-H ) :   0.9889 B( 19-C , 20-C ) :   1.5373 B( 19-C , 22-C ) :   1.0428
B( 22-C , 23-H ) :   0.9315 B( 22-C , 24-H ) :   0.9305 B( 22-C , 25-C ) :   1.0685
B( 25-C , 26-H ) :   0.9567 B( 25-C , 27-H ) :   0.9554 B( 25-C , 28-C ) :   1.0776
B( 28-C , 29-H ) :   0.9735 B( 28-C , 30-H ) :   0.9749 B( 28-C , 31-H ) :   0.9712

Dispersion correction           -0.014134821
FINAL SINGLE POINT ENERGY     -1339.868244938687

DIPOLE MOMENT
-------------
                                X             Y             Z
Electronic contribution:      8.02396     -16.56128     -14.74365
Nuclear contribution   :     -8.28149      16.80808      14.92738
                        -----------------------------------------
Total Dipole Moment    :     -0.25753       0.24680       0.18373
                        -----------------------------------------
Magnitude (a.u.)       :      0.40123
Magnitude (Debye)      :      1.01985

Rotational constants in cm-1:     0.019280     0.008047     0.006985
Rotational constants in MHz :   578.006245   241.236076   209.394258

                             ****ORCA TERMINATED NORMALLY****
TOTAL RUN TIME: 0 days 0 hours 0 minutes 32 seconds 78 msec
