                         Program Version 4.2.1 -  RELEASE  -
|  1> ! wB97X-D3 SP def2-SVP
|  2> %pal
|  3> nprocs 16
|  4> end
|  5>
|  6> * xyz 0 1
|  7> S 	 -118.089 	 48.5624 	 132.955
|  8> C 	 -119.101 	 48.4279 	 134.348
|  9> C 	 -118.796 	 47.3106 	 135.097
| 10> C 	 -117.859 	 46.4812 	 134.488
| 11> C 	 -117.47 	 46.9602 	 133.222
| 12> H 	 -117.514 	 45.49 	 134.763
| 13> C 	 -119.543 	 47.0069 	 136.305
| 14> H 	 -120.432 	 46.541 	 135.947
| 15> H 	 -120.016 	 47.9204 	 136.689
| 16> C 	 -118.734 	 46.2465 	 137.333
| 17> H 	 -119.474 	 45.9334 	 138.13
| 18> H 	 -118.281 	 45.2993 	 137.024
| 19> C 	 -117.577 	 46.9529 	 137.901
| 20> H 	 -117.099 	 46.4343 	 138.73
| 21> H 	 -116.855 	 47.0624 	 137.149
| 22> H 	 -117.918 	 47.9307 	 138.258
| 23> S 	 -117.11 	 45.2007 	 131.097
| 24> C 	 -115.594 	 45.1851 	 130.282
| 25> C 	 -114.627 	 45.7582 	 131.019
| 26> C 	 -115.094 	 46.4359 	 132.199
| 27> C 	 -116.482 	 46.3764 	 132.296
| 28> H 	 -113.649 	 45.6961 	 130.645
| 29> C 	 -114.23 	 47.2444 	 133.086
| 30> H 	 -113.812 	 46.595 	 133.783
| 31> H 	 -114.857 	 47.9354 	 133.753
| 32> C 	 -113.157 	 48.0594 	 132.391
| 33> H 	 -112.509 	 47.319 	 131.897
| 34> H 	 -112.447 	 48.5383 	 133.113
| 35> C 	 -113.822 	 49.1395 	 131.524
| 36> H 	 -114.454 	 48.7374 	 130.775
| 37> H 	 -113.13 	 49.7248 	 130.9
| 38> H 	 -114.423 	 49.8669 	 132.195
| 39> H 	 -119.806 	 49.1708 	 134.638
| 40> H 	 -115.145 	 44.5719 	 129.443
| 41> *
| 42>
| 43>                          ****END OF INPUT****

CARTESIAN COORDINATES (ANGSTROEM)
---------------------------------
  S    -118.089000   48.562400  132.955000
  C    -119.101000   48.427900  134.348000
  C    -118.796000   47.310600  135.097000
  C    -117.859000   46.481200  134.488000
  C    -117.470000   46.960200  133.222000
  H    -117.514000   45.490000  134.763000
  C    -119.543000   47.006900  136.305000
  H    -120.432000   46.541000  135.947000
  H    -120.016000   47.920400  136.689000
  C    -118.734000   46.246500  137.333000
  H    -119.474000   45.933400  138.130000
  H    -118.281000   45.299300  137.024000
  C    -117.577000   46.952900  137.901000
  H    -117.099000   46.434300  138.730000
  H    -116.855000   47.062400  137.149000
  H    -117.918000   47.930700  138.258000
  S    -117.110000   45.200700  131.097000
  C    -115.594000   45.185100  130.282000
  C    -114.627000   45.758200  131.019000
  C    -115.094000   46.435900  132.199000
  C    -116.482000   46.376400  132.296000
  H    -113.649000   45.696100  130.645000
  C    -114.230000   47.244400  133.086000
  H    -113.812000   46.595000  133.783000
  H    -114.857000   47.935400  133.753000
  C    -113.157000   48.059400  132.391000
  H    -112.509000   47.319000  131.897000
  H    -112.447000   48.538300  133.113000
  C    -113.822000   49.139500  131.524000
  H    -114.454000   48.737400  130.775000
  H    -113.130000   49.724800  130.900000
  H    -114.423000   49.866900  132.195000
  H    -119.806000   49.170800  134.638000
  H    -115.145000   44.571900  129.443000

 Total Charge           Charge          ....    0
 Multiplicity           Mult            ....    1
 Number of Electrons    NEL             ....  134
 Basis Dimension        Dim             ....  322

ORBITAL ENERGIES
----------------

  NO   OCC          E(Eh)            E(eV)
   0   2.0000     -88.966299     -2420.8961
   1   2.0000     -88.961066     -2420.7537
   2   2.0000     -10.328520      -281.0533
   3   2.0000     -10.326311      -280.9932
   4   2.0000     -10.312861      -280.6272
   5   2.0000     -10.305736      -280.4333
   6   2.0000     -10.303486      -280.3721
   7   2.0000     -10.294247      -280.1207
   8   2.0000     -10.292031      -280.0604
   9   2.0000     -10.289495      -279.9914
  10   2.0000     -10.285082      -279.8713
  11   2.0000     -10.284929      -279.8672
  12   2.0000     -10.284629      -279.8590
  13   2.0000     -10.283350      -279.8242
  14   2.0000     -10.278150      -279.6827
  15   2.0000     -10.267752      -279.3997
  16   2.0000      -8.081315      -219.9038
  17   2.0000      -8.075788      -219.7534
  18   2.0000      -6.039517      -164.3436
  19   2.0000      -6.035719      -164.2403
  20   2.0000      -6.034390      -164.2041
  21   2.0000      -6.032462      -164.1516
  22   2.0000      -6.030427      -164.0963
  23   2.0000      -6.026302      -163.9840
  24   2.0000      -1.007810       -27.4239
  25   2.0000      -0.989357       -26.9218
  26   2.0000      -0.925381       -25.1809
  27   2.0000      -0.913296       -24.8520
  28   2.0000      -0.871899       -23.7256
  29   2.0000      -0.853166       -23.2158
  30   2.0000      -0.841000       -22.8848
  31   2.0000      -0.821787       -22.3620
  32   2.0000      -0.787577       -21.4311
  33   2.0000      -0.771459       -20.9925
  34   2.0000      -0.713223       -19.4078
  35   2.0000      -0.696874       -18.9629
  36   2.0000      -0.687349       -18.7037
  37   2.0000      -0.651719       -17.7342
  38   2.0000      -0.642003       -17.4698
  39   2.0000      -0.625943       -17.0328
  40   2.0000      -0.593228       -16.1426
  41   2.0000      -0.573513       -15.6061
  42   2.0000      -0.567043       -15.4300
  43   2.0000      -0.559440       -15.2231
  44   2.0000      -0.541959       -14.7475
  45   2.0000      -0.535970       -14.5845
  46   2.0000      -0.521228       -14.1833
  47   2.0000      -0.510250       -13.8846
  48   2.0000      -0.495508       -13.4835
  49   2.0000      -0.491274       -13.3682
  50   2.0000      -0.488131       -13.2827
  51   2.0000      -0.481437       -13.1006
  52   2.0000      -0.472092       -12.8463
  53   2.0000      -0.465332       -12.6623
  54   2.0000      -0.457928       -12.4609
  55   2.0000      -0.450724       -12.2648
  56   2.0000      -0.443491       -12.0680
  57   2.0000      -0.442378       -12.0377
  58   2.0000      -0.435762       -11.8577
  59   2.0000      -0.419601       -11.4179
  60   2.0000      -0.416971       -11.3464
  61   2.0000      -0.412046       -11.2123
  62   2.0000      -0.408401       -11.1131
  63   2.0000      -0.334768        -9.1095
  64   2.0000      -0.327186        -8.9032
  65   2.0000      -0.317921        -8.6511
  66   2.0000      -0.308610        -8.3977
  67   0.0000       0.042848         1.1659
  68   0.0000       0.052570         1.4305
  69   0.0000       0.113356         3.0846
  70   0.0000       0.124668         3.3924
  71   0.0000       0.136328         3.7097

MULLIKEN ATOMIC CHARGES
-----------------------
   0 S :    0.135002
   1 C :   -0.121904
   2 C :   -0.085710
   3 C :    0.045345
   4 C :   -0.194837
   5 H :    0.013326
   6 C :    0.115809
   7 H :    0.032458
   8 H :    0.007333
   9 C :   -0.100026
  10 H :    0.029044
  11 H :    0.026010
  12 C :   -0.007306
  13 H :    0.032952
  14 H :    0.022135
  15 H :    0.020050
  16 S :    0.103693
  17 C :   -0.070556
  18 C :   -0.065277
  19 C :    0.005761
  20 C :   -0.212224
  21 H :   -0.002126
  22 C :    0.093022
  23 H :    0.015559
  24 H :    0.031007
  25 C :   -0.087131
  26 H :    0.027569
  27 H :    0.034393
  28 C :   -0.053730
  29 H :    0.033434
  30 H :    0.029133
  31 H :    0.045556
  32 H :    0.033216
  33 H :    0.069019
Sum of atomic charges:    0.0000000

LOEWDIN ATOMIC CHARGES
----------------------
   0 S :    0.433629
   1 C :   -0.202845
   2 C :   -0.068911
   3 C :   -0.059191
   4 C :   -0.203944
   5 H :    0.033781
   6 C :   -0.034277
   7 H :    0.037697
   8 H :    0.033176
   9 C :   -0.049089
  10 H :    0.028979
  11 H :    0.024525
  12 C :   -0.056500
  13 H :    0.029225
  14 H :    0.018247
  15 H :    0.023345
  16 S :    0.394159
  17 C :   -0.202303
  18 C :   -0.079253
  19 C :   -0.045464
  20 C :   -0.194324
  21 H :    0.021274
  22 C :   -0.035708
  23 H :    0.025687
  24 H :    0.036944
  25 C :   -0.046339
  26 H :    0.021350
  27 H :    0.029869
  28 C :   -0.069460
  29 H :    0.020538
  30 H :    0.025371
  31 H :    0.038075
  32 H :    0.020844
  33 H :    0.050893

  Mayer bond orders larger than 0.100000
B(  0-S ,  1-C ) :   1.1569 B(  0-S ,  4-C ) :   1.1864 B(  1-C ,  2-C ) :   1.5680
B(  1-C ,  4-C ) :   0.1120 B(  1-C , 32-H ) :   0.9745 B(  2-C ,  3-C ) :   1.2586
B(  2-C ,  6-C ) :   1.0220 B(  3-C ,  4-C ) :   1.5454 B(  3-C ,  5-H ) :   0.9991
B(  4-C , 20-C ) :   1.0086 B(  6-C ,  7-H ) :   0.9262 B(  6-C ,  8-H ) :   0.9285
B(  6-C ,  9-C ) :   1.0730 B(  9-C , 10-H ) :   0.9508 B(  9-C , 11-H ) :   0.9499
B(  9-C , 12-C ) :   1.0883 B( 12-C , 13-H ) :   0.9700 B( 12-C , 14-H ) :   0.9686
B( 12-C , 15-H ) :   0.9717 B( 16-S , 17-C ) :   1.1409 B( 16-S , 20-C ) :   1.1274
B( 17-C , 18-C ) :   1.6650 B( 17-C , 33-H ) :   0.9491 B( 18-C , 19-C ) :   1.1975
B( 18-C , 21-H ) :   0.9945 B( 19-C , 20-C ) :   1.6132 B( 19-C , 22-C ) :   1.0431
B( 22-C , 23-H ) :   0.9151 B( 22-C , 24-H ) :   0.9339 B( 22-C , 25-C ) :   1.0786
B( 25-C , 26-H ) :   0.9490 B( 25-C , 27-H ) :   0.9537 B( 25-C , 28-C ) :   1.0667
B( 28-C , 29-H ) :   0.9744 B( 28-C , 30-H ) :   0.9739 B( 28-C , 31-H ) :   0.9718

Dispersion correction           -0.015247940
FINAL SINGLE POINT ENERGY     -1339.864604616851

DIPOLE MOMENT
-------------
                                X             Y             Z
Electronic contribution:     -9.89719      -5.06406     -16.88391
Nuclear contribution   :     10.18618       5.00163      17.33661
                        -----------------------------------------
Total Dipole Moment    :      0.28899      -0.06243       0.45270
                        -----------------------------------------
Magnitude (a.u.)       :      0.54069
Magnitude (Debye)      :      1.37434

Rotational constants in cm-1:     0.020628     0.008374     0.007666
Rotational constants in MHz :   618.422630   251.057837   229.821578

                             ****ORCA TERMINATED NORMALLY****
TOTAL RUN TIME: 0 days 0 hours 0 minutes 34 seconds 850 msec
