                         Program Version 4.2.1 -  RELEASE  -
|  1> ! wB97X-D3 SP def2-SVP
|  2> %pal
|  3> nprocs 16
|  4> end
|  5>
|  6> * xyz 0 1
|  7> S 	 15.2679 	 -8.86421 	 82.8611
|  8> C 	 14.6962 	 -10.3658 	 82.258
|  9> C 	 15.4549 	 -11.428 	 82.782
| 10> C 	 16.2939 	 -11.0929 	 83.8926
| 11> C 	 16.3324 	 -9.72724 	 84.0003
| 12> H 	 16.9104 	 -11.8175 	 84.4542
| 13> C 	 15.2909 	 -12.8493 	 82.2776
| 14> H 	 15.4899 	 -12.6426 	 81.2453
| 15> H 	 14.2081 	 -12.9998 	 82.4331
| 16> C 	 16.2766 	 -13.9441 	 82.8768
| 17> H 	 17.2203 	 -13.7662 	 82.5424
| 18> H 	 16.2347 	 -13.9342 	 84.0354
| 19> C 	 16.1822 	 -15.4025 	 82.3424
| 20> H 	 15.1949 	 -15.7882 	 82.4798
| 21> H 	 16.4398 	 -15.53 	 81.267
| 22> H 	 16.8702 	 -16.054 	 82.8001
| 23> S 	 16.2971 	 -8.37453 	 86.4363
| 24> C 	 17.8959 	 -7.92431 	 87.187
| 25> C 	 18.9166 	 -8.26653 	 86.4059
| 26> C 	 18.523 	 -9.01404 	 85.2295
| 27> C 	 17.136 	 -9.11442 	 85.0434
| 28> H 	 19.9397 	 -8.0109 	 86.7581
| 29> C 	 19.5912 	 -9.51022 	 84.2138
| 30> H 	 19.9721 	 -8.63979 	 83.6513
| 31> H 	 19.011 	 -10.1129 	 83.45
| 32> C 	 20.7155 	 -10.3547 	 84.6999
| 33> H 	 20.2171 	 -11.0629 	 85.3197
| 34> H 	 21.3257 	 -9.82837 	 85.4246
| 35> C 	 21.5342 	 -11.0071 	 83.5805
| 36> H 	 22.332 	 -11.42 	 84.0564
| 37> H 	 21.9379 	 -10.375 	 82.788
| 38> H 	 20.9794 	 -11.9153 	 83.3124
| 39> H 	 13.8725 	 -10.3069 	 81.5392
| 40> H 	 17.9786 	 -7.45913 	 88.145
| 41> *
| 42>
| 43>                          ****END OF INPUT****

CARTESIAN COORDINATES (ANGSTROEM)
---------------------------------
  S     15.267900   -8.864210   82.861100
  C     14.696200  -10.365800   82.258000
  C     15.454900  -11.428000   82.782000
  C     16.293900  -11.092900   83.892600
  C     16.332400   -9.727240   84.000300
  H     16.910400  -11.817500   84.454200
  C     15.290900  -12.849300   82.277600
  H     15.489900  -12.642600   81.245300
  H     14.208100  -12.999800   82.433100
  C     16.276600  -13.944100   82.876800
  H     17.220300  -13.766200   82.542400
  H     16.234700  -13.934200   84.035400
  C     16.182200  -15.402500   82.342400
  H     15.194900  -15.788200   82.479800
  H     16.439800  -15.530000   81.267000
  H     16.870200  -16.054000   82.800100
  S     16.297100   -8.374530   86.436300
  C     17.895900   -7.924310   87.187000
  C     18.916600   -8.266530   86.405900
  C     18.523000   -9.014040   85.229500
  C     17.136000   -9.114420   85.043400
  H     19.939700   -8.010900   86.758100
  C     19.591200   -9.510220   84.213800
  H     19.972100   -8.639790   83.651300
  H     19.011000  -10.112900   83.450000
  C     20.715500  -10.354700   84.699900
  H     20.217100  -11.062900   85.319700
  H     21.325700   -9.828370   85.424600
  C     21.534200  -11.007100   83.580500
  H     22.332000  -11.420000   84.056400
  H     21.937900  -10.375000   82.788000
  H     20.979400  -11.915300   83.312400
  H     13.872500  -10.306900   81.539200
  H     17.978600   -7.459130   88.145000

 Total Charge           Charge          ....    0
 Multiplicity           Mult            ....    1
 Number of Electrons    NEL             ....  134
 Basis Dimension        Dim             ....  322

ORBITAL ENERGIES
----------------

  NO   OCC          E(Eh)            E(eV)
   0   2.0000     -88.967137     -2420.9189
   1   2.0000     -88.957312     -2420.6515
   2   2.0000     -10.327803      -281.0338
   3   2.0000     -10.327181      -281.0169
   4   2.0000     -10.314175      -280.6630
   5   2.0000     -10.312982      -280.6305
   6   2.0000     -10.306465      -280.4532
   7   2.0000     -10.303407      -280.3700
   8   2.0000     -10.297063      -280.1973
   9   2.0000     -10.296238      -280.1749
  10   2.0000     -10.293703      -280.1059
  11   2.0000     -10.292692      -280.0784
  12   2.0000     -10.288044      -279.9519
  13   2.0000     -10.278110      -279.6816
  14   2.0000     -10.278003      -279.6787
  15   2.0000     -10.272730      -279.5352
  16   2.0000      -8.081888      -219.9193
  17   2.0000      -8.070873      -219.6196
  18   2.0000      -6.040349      -164.3663
  19   2.0000      -6.036381      -164.2583
  20   2.0000      -6.032726      -164.1588
  21   2.0000      -6.029563      -164.0727
  22   2.0000      -6.025666      -163.9667
  23   2.0000      -6.021387      -163.8503
  24   2.0000      -1.001167       -27.2431
  25   2.0000      -0.975972       -26.5575
  26   2.0000      -0.908925       -24.7331
  27   2.0000      -0.904414       -24.6104
  28   2.0000      -0.873352       -23.7651
  29   2.0000      -0.853817       -23.2335
  30   2.0000      -0.840459       -22.8701
  31   2.0000      -0.820426       -22.3249
  32   2.0000      -0.779968       -21.2240
  33   2.0000      -0.766331       -20.8529
  34   2.0000      -0.715913       -19.4810
  35   2.0000      -0.696377       -18.9494
  36   2.0000      -0.690244       -18.7825
  37   2.0000      -0.649164       -17.6646
  38   2.0000      -0.641317       -17.4511
  39   2.0000      -0.614704       -16.7269
  40   2.0000      -0.592187       -16.1142
  41   2.0000      -0.572815       -15.5871
  42   2.0000      -0.568003       -15.4561
  43   2.0000      -0.555980       -15.1290
  44   2.0000      -0.527248       -14.3471
  45   2.0000      -0.523335       -14.2407
  46   2.0000      -0.518279       -14.1031
  47   2.0000      -0.512038       -13.9333
  48   2.0000      -0.507785       -13.8175
  49   2.0000      -0.502188       -13.6652
  50   2.0000      -0.489190       -13.3116
  51   2.0000      -0.477588       -12.9958
  52   2.0000      -0.472404       -12.8548
  53   2.0000      -0.464761       -12.6468
  54   2.0000      -0.457326       -12.4445
  55   2.0000      -0.449494       -12.2313
  56   2.0000      -0.442035       -12.0284
  57   2.0000      -0.433198       -11.7879
  58   2.0000      -0.432478       -11.7683
  59   2.0000      -0.425762       -11.5856
  60   2.0000      -0.413951       -11.2642
  61   2.0000      -0.411340       -11.1931
  62   2.0000      -0.408910       -11.1270
  63   2.0000      -0.343991        -9.3605
  64   2.0000      -0.329364        -8.9625
  65   2.0000      -0.316926        -8.6240
  66   2.0000      -0.296171        -8.0592
  67   0.0000       0.036397         0.9904
  68   0.0000       0.062633         1.7043
  69   0.0000       0.115095         3.1319
  70   0.0000       0.117667         3.2019
  71   0.0000       0.130723         3.5572

MULLIKEN ATOMIC CHARGES
-----------------------
   0 S :    0.125792
   1 C :   -0.159203
   2 C :   -0.112641
   3 C :    0.025305
   4 C :   -0.150172
   5 H :    0.039901
   6 C :    0.076679
   7 H :    0.036191
   8 H :    0.050163
   9 C :   -0.096347
  10 H :    0.015477
  11 H :    0.056710
  12 C :   -0.029075
  13 H :    0.025150
  14 H :    0.031264
  15 H :    0.022456
  16 S :    0.075196
  17 C :   -0.092699
  18 C :   -0.020182
  19 C :   -0.034533
  20 C :   -0.168456
  21 H :    0.035037
  22 C :    0.045742
  23 H :    0.035198
  24 H :    0.024507
  25 C :   -0.085392
  26 H :    0.010233
  27 H :    0.016740
  28 C :    0.015860
  29 H :   -0.000969
  30 H :    0.046267
  31 H :    0.030035
  32 H :    0.060272
  33 H :    0.049497
Sum of atomic charges:   -0.0000000

LOEWDIN ATOMIC CHARGES
----------------------
   0 S :    0.412997
   1 C :   -0.220685
   2 C :   -0.058777
   3 C :   -0.057094
   4 C :   -0.190985
   5 H :    0.043066
   6 C :   -0.037500
   7 H :    0.034610
   8 H :    0.039366
   9 C :   -0.039738
  10 H :    0.013416
  11 H :    0.035374
  12 C :   -0.059873
  13 H :    0.018594
  14 H :    0.030157
  15 H :    0.021438
  16 S :    0.348161
  17 C :   -0.152802
  18 C :   -0.078350
  19 C :   -0.054342
  20 C :   -0.185310
  21 H :    0.041228
  22 C :   -0.038551
  23 H :    0.029880
  24 H :    0.032340
  25 C :   -0.045426
  26 H :    0.021839
  27 H :    0.016222
  28 C :   -0.056600
  29 H :    0.015823
  30 H :    0.031908
  31 H :    0.034266
  32 H :    0.029455
  33 H :    0.025892

  Mayer bond orders larger than 0.100000
B(  0-S ,  1-C ) :   1.1433 B(  0-S ,  4-C ) :   1.1596 B(  1-C ,  2-C ) :   1.5819
B(  1-C , 32-H ) :   0.9777 B(  2-C ,  3-C ) :   1.2614 B(  2-C ,  6-C ) :   0.9749
B(  3-C ,  4-C ) :   1.5499 B(  3-C ,  5-H ) :   0.9825 B(  4-C , 20-C ) :   1.0350
B(  6-C ,  7-H ) :   0.9415 B(  6-C ,  8-H ) :   0.9441 B(  6-C ,  9-C ) :   1.0757
B(  9-C , 10-H ) :   0.9545 B(  9-C , 11-H ) :   0.9498 B(  9-C , 12-C ) :   1.0807
B( 12-C , 13-H ) :   0.9775 B( 12-C , 14-H ) :   0.9750 B( 12-C , 15-H ) :   0.9726
B( 16-S , 17-C ) :   1.1199 B( 16-S , 20-C ) :   1.1178 B( 17-C , 18-C ) :   1.6760
B( 17-C , 33-H ) :   0.9675 B( 18-C , 19-C ) :   1.1857 B( 18-C , 21-H ) :   0.9819
B( 19-C , 20-C ) :   1.6409 B( 19-C , 22-C ) :   1.0379 B( 22-C , 23-H ) :   0.9346
B( 22-C , 24-H ) :   0.9374 B( 22-C , 25-C ) :   1.0597 B( 25-C , 26-H ) :   0.9511
B( 25-C , 27-H ) :   0.9523 B( 25-C , 28-C ) :   1.0904 B( 28-C , 29-H ) :   0.9653
B( 28-C , 30-H ) :   0.9748 B( 28-C , 31-H ) :   0.9693

Dispersion correction           -0.013795494
FINAL SINGLE POINT ENERGY     -1339.844010937565

DIPOLE MOMENT
-------------
                                X             Y             Z
Electronic contribution:    -16.79468      24.91518       8.77310
Nuclear contribution   :     17.32167     -25.51756      -8.95235
                        -----------------------------------------
Total Dipole Moment    :      0.52699      -0.60238      -0.17925
                        -----------------------------------------
Magnitude (a.u.)       :      0.82019
Magnitude (Debye)      :      2.08475

Rotational constants in cm-1:     0.015242     0.009185     0.006746
Rotational constants in MHz :   456.952589   275.368870   202.247114

                             ****ORCA TERMINATED NORMALLY****
TOTAL RUN TIME: 0 days 0 hours 0 minutes 28 seconds 260 msec
