                         Program Version 4.2.1 -  RELEASE  -
|  1> ! wB97X-D3 SP def2-SVP
|  2> %pal
|  3> nprocs 16
|  4> end
|  5>
|  6> * xyz 0 1
|  7> S 	 -8.05664 	 41.5873 	 36.4222
|  8> C 	 -8.45956 	 40.1531 	 35.4518
|  9> C 	 -7.69548 	 39.0586 	 35.9018
| 10> C 	 -6.61666 	 39.4348 	 36.7281
| 11> C 	 -6.58312 	 40.785 	 36.9353
| 12> H 	 -5.88388 	 38.9121 	 37.2193
| 13> C 	 -7.84461 	 37.6269 	 35.3995
| 14> H 	 -7.07858 	 37.4881 	 34.6524
| 15> H 	 -8.77607 	 37.4675 	 34.8958
| 16> C 	 -7.58793 	 36.5086 	 36.3417
| 17> H 	 -6.65363 	 36.5363 	 36.852
| 18> H 	 -8.25529 	 36.6239 	 37.1259
| 19> C 	 -7.74079 	 35.128 	 35.7641
| 20> H 	 -8.75236 	 34.8961 	 35.3209
| 21> H 	 -7.03224 	 35.2429 	 34.9237
| 22> H 	 -7.46641 	 34.4235 	 36.5238
| 23> S 	 -6.22904 	 42.9233 	 38.6894
| 24> C 	 -4.55396 	 43.2979 	 39.1056
| 25> C 	 -3.59233 	 42.5099 	 38.5719
| 26> C 	 -4.13924 	 41.4791 	 37.8194
| 27> C 	 -5.53539 	 41.6175 	 37.6423
| 28> H 	 -2.5595 	 42.8257 	 38.7876
| 29> C 	 -3.27779 	 40.3531 	 37.307
| 30> H 	 -3.69222 	 39.3509 	 37.5484
| 31> H 	 -2.34858 	 40.4812 	 37.961
| 32> C 	 -2.76855 	 40.4228 	 35.8081
| 33> H 	 -2.39277 	 41.437 	 35.7265
| 34> H 	 -3.52795 	 40.4228 	 35.1074
| 35> C 	 -1.81309 	 39.3209 	 35.462
| 36> H 	 -2.45404 	 38.4604 	 35.4281
| 37> H 	 -1.02617 	 39.211 	 36.2017
| 38> H 	 -1.41532 	 39.5853 	 34.5218
| 39> H 	 -9.20049 	 40.1612 	 34.7089
| 40> H 	 -4.2348 	 44.0307 	 39.7502
| 41> *
| 42>
| 43>                          ****END OF INPUT****

CARTESIAN COORDINATES (ANGSTROEM)
---------------------------------
  S     -8.056640   41.587300   36.422200
  C     -8.459560   40.153100   35.451800
  C     -7.695480   39.058600   35.901800
  C     -6.616660   39.434800   36.728100
  C     -6.583120   40.785000   36.935300
  H     -5.883880   38.912100   37.219300
  C     -7.844610   37.626900   35.399500
  H     -7.078580   37.488100   34.652400
  H     -8.776070   37.467500   34.895800
  C     -7.587930   36.508600   36.341700
  H     -6.653630   36.536300   36.852000
  H     -8.255290   36.623900   37.125900
  C     -7.740790   35.128000   35.764100
  H     -8.752360   34.896100   35.320900
  H     -7.032240   35.242900   34.923700
  H     -7.466410   34.423500   36.523800
  S     -6.229040   42.923300   38.689400
  C     -4.553960   43.297900   39.105600
  C     -3.592330   42.509900   38.571900
  C     -4.139240   41.479100   37.819400
  C     -5.535390   41.617500   37.642300
  H     -2.559500   42.825700   38.787600
  C     -3.277790   40.353100   37.307000
  H     -3.692220   39.350900   37.548400
  H     -2.348580   40.481200   37.961000
  C     -2.768550   40.422800   35.808100
  H     -2.392770   41.437000   35.726500
  H     -3.527950   40.422800   35.107400
  C     -1.813090   39.320900   35.462000
  H     -2.454040   38.460400   35.428100
  H     -1.026170   39.211000   36.201700
  H     -1.415320   39.585300   34.521800
  H     -9.200490   40.161200   34.708900
  H     -4.234800   44.030700   39.750200

 Total Charge           Charge          ....    0
 Multiplicity           Mult            ....    1
 Number of Electrons    NEL             ....  134
 Basis Dimension        Dim             ....  322

ORBITAL ENERGIES
----------------

  NO   OCC          E(Eh)            E(eV)
   0   2.0000     -88.969498     -2420.9831
   1   2.0000     -88.963565     -2420.8217
   2   2.0000     -10.335536      -281.2442
   3   2.0000     -10.331241      -281.1273
   4   2.0000     -10.313555      -280.6461
   5   2.0000     -10.308215      -280.5008
   6   2.0000     -10.306673      -280.4588
   7   2.0000     -10.306291      -280.4484
   8   2.0000     -10.301166      -280.3090
   9   2.0000     -10.290438      -280.0171
  10   2.0000     -10.285400      -279.8800
  11   2.0000     -10.285325      -279.8779
  12   2.0000     -10.281552      -279.7753
  13   2.0000     -10.278250      -279.6854
  14   2.0000     -10.272284      -279.5231
  15   2.0000     -10.271262      -279.4952
  16   2.0000      -8.083067      -219.9514
  17   2.0000      -8.078107      -219.8165
  18   2.0000      -6.041481      -164.3971
  19   2.0000      -6.038072      -164.3043
  20   2.0000      -6.036579      -164.2637
  21   2.0000      -6.033679      -164.1848
  22   2.0000      -6.032985      -164.1659
  23   2.0000      -6.028596      -164.0464
  24   2.0000      -1.003011       -27.2933
  25   2.0000      -0.983370       -26.7589
  26   2.0000      -0.923272       -25.1235
  27   2.0000      -0.908702       -24.7270
  28   2.0000      -0.868892       -23.6438
  29   2.0000      -0.859117       -23.3778
  30   2.0000      -0.849712       -23.1218
  31   2.0000      -0.819943       -22.3118
  32   2.0000      -0.782922       -21.3044
  33   2.0000      -0.769560       -20.9408
  34   2.0000      -0.710706       -19.3393
  35   2.0000      -0.700525       -19.0623
  36   2.0000      -0.692192       -18.8355
  37   2.0000      -0.660309       -17.9679
  38   2.0000      -0.651248       -17.7214
  39   2.0000      -0.625252       -17.0140
  40   2.0000      -0.596463       -16.2306
  41   2.0000      -0.580492       -15.7960
  42   2.0000      -0.569662       -15.5013
  43   2.0000      -0.563955       -15.3460
  44   2.0000      -0.534476       -14.5438
  45   2.0000      -0.532768       -14.4973
  46   2.0000      -0.521208       -14.1828
  47   2.0000      -0.509037       -13.8516
  48   2.0000      -0.500605       -13.6222
  49   2.0000      -0.496226       -13.5030
  50   2.0000      -0.489047       -13.3076
  51   2.0000      -0.482470       -13.1287
  52   2.0000      -0.474489       -12.9115
  53   2.0000      -0.466933       -12.7059
  54   2.0000      -0.456984       -12.4352
  55   2.0000      -0.454837       -12.3767
  56   2.0000      -0.449726       -12.2377
  57   2.0000      -0.439042       -11.9469
  58   2.0000      -0.433424       -11.7941
  59   2.0000      -0.428965       -11.6727
  60   2.0000      -0.423314       -11.5190
  61   2.0000      -0.415317       -11.3014
  62   2.0000      -0.409993       -11.1565
  63   2.0000      -0.349669        -9.5150
  64   2.0000      -0.337989        -9.1971
  65   2.0000      -0.327805        -8.9200
  66   2.0000      -0.278889        -7.5890
  67   0.0000       0.019662         0.5350
  68   0.0000       0.062484         1.7003
  69   0.0000       0.092329         2.5124
  70   0.0000       0.119108         3.2411
  71   0.0000       0.130425         3.5490

MULLIKEN ATOMIC CHARGES
-----------------------
   0 S :    0.087664
   1 C :   -0.111142
   2 C :   -0.031906
   3 C :    0.025934
   4 C :   -0.113440
   5 H :   -0.034637
   6 C :    0.090036
   7 H :    0.021890
   8 H :    0.010048
   9 C :   -0.071640
  10 H :    0.017319
  11 H :    0.003017
  12 C :   -0.044046
  13 H :    0.040680
  14 H :    0.022650
  15 H :    0.041575
  16 S :    0.090270
  17 C :   -0.038726
  18 C :   -0.059099
  19 C :   -0.020974
  20 C :   -0.124175
  21 H :    0.031366
  22 C :   -0.012462
  23 H :    0.033920
  24 H :    0.027910
  25 C :   -0.042668
  26 H :    0.012592
  27 H :    0.013628
  28 C :    0.012154
  29 H :    0.026443
  30 H :    0.026330
  31 H :    0.029152
  32 H :    0.027957
  33 H :    0.012380
Sum of atomic charges:    0.0000000

LOEWDIN ATOMIC CHARGES
----------------------
   0 S :    0.379307
   1 C :   -0.181665
   2 C :   -0.045899
   3 C :   -0.067244
   4 C :   -0.169153
   5 H :    0.017749
   6 C :   -0.029276
   7 H :    0.029598
   8 H :    0.026500
   9 C :   -0.045047
  10 H :    0.020536
  11 H :    0.011842
  12 C :   -0.058173
  13 H :    0.029598
  14 H :    0.026867
  15 H :    0.027327
  16 S :    0.370139
  17 C :   -0.160162
  18 C :   -0.075132
  19 C :   -0.061079
  20 C :   -0.170511
  21 H :    0.043472
  22 C :   -0.036210
  23 H :    0.025441
  24 H :    0.038337
  25 C :   -0.031872
  26 H :    0.020535
  27 H :    0.014568
  28 C :   -0.050802
  29 H :    0.026459
  30 H :    0.023137
  31 H :    0.024896
  32 H :    0.015528
  33 H :    0.010388

  Mayer bond orders larger than 0.100000
B(  0-S ,  1-C ) :   1.1214 B(  0-S ,  4-C ) :   1.1499 B(  1-C ,  2-C ) :   1.5966
B(  1-C ,  4-C ) :   0.1038 B(  1-C , 32-H ) :   0.9857 B(  2-C ,  3-C ) :   1.1909
B(  2-C ,  6-C ) :   1.0316 B(  3-C ,  4-C ) :   1.5926 B(  3-C ,  5-H ) :   1.0157
B(  4-C , 20-C ) :   1.0253 B(  6-C ,  7-H ) :   0.9305 B(  6-C ,  8-H ) :   0.9403
B(  6-C ,  9-C ) :   1.0714 B(  9-C , 10-H ) :   0.9440 B(  9-C , 11-H ) :   0.9475
B(  9-C , 12-C ) :   1.0870 B( 12-C , 13-H ) :   0.9742 B( 12-C , 14-H ) :   0.9759
B( 12-C , 15-H ) :   0.9715 B( 16-S , 17-C ) :   1.1375 B( 16-S , 20-C ) :   1.1249
B( 17-C , 18-C ) :   1.6689 B( 17-C , 20-C ) :   0.1010 B( 17-C , 33-H ) :   0.9639
B( 18-C , 19-C ) :   1.2255 B( 18-C , 21-H ) :   0.9826 B( 19-C , 20-C ) :   1.6092
B( 19-C , 22-C ) :   1.0304 B( 22-C , 23-H ) :   0.9402 B( 22-C , 24-H ) :   0.9355
B( 22-C , 25-C ) :   1.0545 B( 25-C , 26-H ) :   0.9510 B( 25-C , 27-H ) :   0.9563
B( 25-C , 28-C ) :   1.0788 B( 28-C , 29-H ) :   0.9747 B( 28-C , 30-H ) :   0.9762
B( 28-C , 31-H ) :   0.9708

Dispersion correction           -0.013546133
FINAL SINGLE POINT ENERGY     -1339.835269529569

DIPOLE MOMENT
-------------
                                X             Y             Z
Electronic contribution:    -13.09467      27.04771      10.40130
Nuclear contribution   :     13.58984     -27.52493     -10.48436
                        -----------------------------------------
Total Dipole Moment    :      0.49517      -0.47722      -0.08306
                        -----------------------------------------
Magnitude (a.u.)       :      0.69269
Magnitude (Debye)      :      1.76069

Rotational constants in cm-1:     0.016619     0.009033     0.006562
Rotational constants in MHz :   498.215105   270.790807   196.734122

                             ****ORCA TERMINATED NORMALLY****
TOTAL RUN TIME: 0 days 0 hours 0 minutes 35 seconds 427 msec
