                         Program Version 4.2.1 -  RELEASE  -
|  1> ! wB97X-D3 SP def2-SVP
|  2> %pal
|  3> nprocs 16
|  4> end
|  5>
|  6> * xyz 0 1
|  7> S 	 -31.1176 	 69.4013 	 100.972
|  8> C 	 -31.2274 	 67.6724 	 100.929
|  9> C 	 -30.9468 	 67.1273 	 102.158
| 10> C 	 -30.4341 	 68.0112 	 103.113
| 11> C 	 -30.3244 	 69.2927 	 102.584
| 12> H 	 -30.1714 	 67.8847 	 104.146
| 13> C 	 -31.0247 	 65.6236 	 102.46
| 14> H 	 -31.698 	 65.1867 	 101.758
| 15> H 	 -31.3729 	 65.4336 	 103.456
| 16> C 	 -29.7764 	 64.773 	 102.168
| 17> H 	 -28.8959 	 65.0538 	 102.824
| 18> H 	 -29.953 	 63.6515 	 102.337
| 19> C 	 -29.1377 	 64.9173 	 100.89
| 20> H 	 -29.6671 	 64.4108 	 100.147
| 21> H 	 -28.849 	 65.9771 	 100.664
| 22> H 	 -28.167 	 64.3256 	 100.897
| 23> S 	 -30.933 	 71.7168 	 103.882
| 24> C 	 -29.744 	 72.625 	 104.69
| 25> C 	 -28.4968 	 72.0924 	 104.371
| 26> C 	 -28.4789 	 70.8454 	 103.632
| 27> C 	 -29.794 	 70.4645 	 103.332
| 28> H 	 -27.5532 	 72.3863 	 104.699
| 29> C 	 -27.1866 	 69.989 	 103.495
| 30> H 	 -27.4914 	 69.0195 	 103.306
| 31> H 	 -26.7367 	 69.9373 	 104.462
| 32> C 	 -26.2525 	 70.4667 	 102.455
| 33> H 	 -25.2908 	 69.9874 	 102.576
| 34> H 	 -26.0962 	 71.4684 	 102.665
| 35> C 	 -26.8043 	 70.1621 	 101.008
| 36> H 	 -27.8151 	 70.5135 	 100.858
| 37> H 	 -26.8342 	 69.0747 	 100.862
| 38> H 	 -26.1348 	 70.5643 	 100.301
| 39> H 	 -31.5463 	 67.2419 	 100.002
| 40> H 	 -29.9192 	 73.5041 	 105.218
| 41> *
| 42>
| 43>                          ****END OF INPUT****

CARTESIAN COORDINATES (ANGSTROEM)
---------------------------------
  S    -31.117600   69.401300  100.972000
  C    -31.227400   67.672400  100.929000
  C    -30.946800   67.127300  102.158000
  C    -30.434100   68.011200  103.113000
  C    -30.324400   69.292700  102.584000
  H    -30.171400   67.884700  104.146000
  C    -31.024700   65.623600  102.460000
  H    -31.698000   65.186700  101.758000
  H    -31.372900   65.433600  103.456000
  C    -29.776400   64.773000  102.168000
  H    -28.895900   65.053800  102.824000
  H    -29.953000   63.651500  102.337000
  C    -29.137700   64.917300  100.890000
  H    -29.667100   64.410800  100.147000
  H    -28.849000   65.977100  100.664000
  H    -28.167000   64.325600  100.897000
  S    -30.933000   71.716800  103.882000
  C    -29.744000   72.625000  104.690000
  C    -28.496800   72.092400  104.371000
  C    -28.478900   70.845400  103.632000
  C    -29.794000   70.464500  103.332000
  H    -27.553200   72.386300  104.699000
  C    -27.186600   69.989000  103.495000
  H    -27.491400   69.019500  103.306000
  H    -26.736700   69.937300  104.462000
  C    -26.252500   70.466700  102.455000
  H    -25.290800   69.987400  102.576000
  H    -26.096200   71.468400  102.665000
  C    -26.804300   70.162100  101.008000
  H    -27.815100   70.513500  100.858000
  H    -26.834200   69.074700  100.862000
  H    -26.134800   70.564300  100.301000
  H    -31.546300   67.241900  100.002000
  H    -29.919200   73.504100  105.218000

 Total Charge           Charge          ....    0
 Multiplicity           Mult            ....    1
 Number of Electrons    NEL             ....  134
 Basis Dimension        Dim             ....  322

ORBITAL ENERGIES
----------------

  NO   OCC          E(Eh)            E(eV)
   0   2.0000     -88.967939     -2420.9407
   1   2.0000     -88.963082     -2420.8085
   2   2.0000     -10.334237      -281.2089
   3   2.0000     -10.329431      -281.0781
   4   2.0000     -10.315456      -280.6978
   5   2.0000     -10.315009      -280.6857
   6   2.0000     -10.305153      -280.4175
   7   2.0000     -10.302806      -280.3536
   8   2.0000     -10.295571      -280.1567
   9   2.0000     -10.289664      -279.9960
  10   2.0000     -10.287800      -279.9453
  11   2.0000     -10.286789      -279.9178
  12   2.0000     -10.281535      -279.7748
  13   2.0000     -10.276029      -279.6250
  14   2.0000     -10.270603      -279.4773
  15   2.0000     -10.270017      -279.4614
  16   2.0000      -8.082314      -219.9309
  17   2.0000      -8.078370      -219.8236
  18   2.0000      -6.040674      -164.3751
  19   2.0000      -6.036983      -164.2747
  20   2.0000      -6.036821      -164.2703
  21   2.0000      -6.033137      -164.1700
  22   2.0000      -6.032648      -164.1567
  23   2.0000      -6.029298      -164.0655
  24   2.0000      -1.003785       -27.3144
  25   2.0000      -0.985932       -26.8286
  26   2.0000      -0.916341       -24.9349
  27   2.0000      -0.915031       -24.8993
  28   2.0000      -0.867471       -23.6051
  29   2.0000      -0.856877       -23.3168
  30   2.0000      -0.842700       -22.9310
  31   2.0000      -0.813068       -22.1247
  32   2.0000      -0.786394       -21.3989
  33   2.0000      -0.775735       -21.1088
  34   2.0000      -0.707345       -19.2478
  35   2.0000      -0.699403       -19.0317
  36   2.0000      -0.681550       -18.5459
  37   2.0000      -0.660301       -17.9677
  38   2.0000      -0.652354       -17.7515
  39   2.0000      -0.618296       -16.8247
  40   2.0000      -0.605836       -16.4856
  41   2.0000      -0.571190       -15.5429
  42   2.0000      -0.557157       -15.1610
  43   2.0000      -0.555876       -15.1261
  44   2.0000      -0.549454       -14.9514
  45   2.0000      -0.539292       -14.6749
  46   2.0000      -0.526519       -14.3273
  47   2.0000      -0.515682       -14.0324
  48   2.0000      -0.502151       -13.6642
  49   2.0000      -0.492088       -13.3904
  50   2.0000      -0.490776       -13.3547
  51   2.0000      -0.477989       -13.0067
  52   2.0000      -0.467751       -12.7282
  53   2.0000      -0.463665       -12.6170
  54   2.0000      -0.460180       -12.5221
  55   2.0000      -0.452940       -12.3251
  56   2.0000      -0.447068       -12.1653
  57   2.0000      -0.436025       -11.8648
  58   2.0000      -0.432518       -11.7694
  59   2.0000      -0.425368       -11.5749
  60   2.0000      -0.415811       -11.3148
  61   2.0000      -0.411734       -11.2039
  62   2.0000      -0.398475       -10.8430
  63   2.0000      -0.341674        -9.2974
  64   2.0000      -0.331097        -9.0096
  65   2.0000      -0.326241        -8.8775
  66   2.0000      -0.301032        -8.1915
  67   0.0000       0.037279         1.0144
  68   0.0000       0.051573         1.4034
  69   0.0000       0.110864         3.0168
  70   0.0000       0.120424         3.2769
  71   0.0000       0.132555         3.6070

MULLIKEN ATOMIC CHARGES
-----------------------
   0 S :    0.109560
   1 C :   -0.129015
   2 C :   -0.068053
   3 C :    0.049604
   4 C :   -0.168058
   5 H :    0.020700
   6 C :    0.135229
   7 H :    0.003817
   8 H :    0.025678
   9 C :   -0.117151
  10 H :    0.022012
  11 H :    0.038924
  12 C :   -0.053184
  13 H :    0.007147
  14 H :    0.055026
  15 H :    0.029591
  16 S :    0.108249
  17 C :   -0.054924
  18 C :    0.002864
  19 C :   -0.069734
  20 C :   -0.208142
  21 H :   -0.016006
  22 C :    0.126086
  23 H :   -0.013390
  24 H :    0.020927
  25 C :   -0.031613
  26 H :    0.021960
  27 H :    0.004107
  28 C :   -0.032961
  29 H :    0.034780
  30 H :    0.026915
  31 H :    0.026667
  32 H :    0.049139
  33 H :    0.043245
Sum of atomic charges:    0.0000000

LOEWDIN ATOMIC CHARGES
----------------------
   0 S :    0.394719
   1 C :   -0.188672
   2 C :   -0.066075
   3 C :   -0.052189
   4 C :   -0.177845
   5 H :    0.037661
   6 C :   -0.025794
   7 H :    0.025365
   8 H :    0.029743
   9 C :   -0.056830
  10 H :    0.024228
  11 H :    0.032847
  12 C :   -0.073061
  13 H :    0.009331
  14 H :    0.032568
  15 H :    0.035314
  16 S :    0.415101
  17 C :   -0.189280
  18 C :   -0.066693
  19 C :   -0.047265
  20 C :   -0.200992
  21 H :    0.013537
  22 C :   -0.018247
  23 H :    0.016751
  24 H :    0.029497
  25 C :   -0.031234
  26 H :    0.024482
  27 H :    0.011759
  28 C :   -0.053070
  29 H :    0.023261
  30 H :    0.027209
  31 H :    0.018703
  32 H :    0.024307
  33 H :    0.020864

  Mayer bond orders larger than 0.100000
B(  0-S ,  1-C ) :   1.1478 B(  0-S ,  4-C ) :   1.1494 B(  1-C ,  2-C ) :   1.5819
B(  1-C ,  4-C ) :   0.1018 B(  1-C , 32-H ) :   0.9786 B(  2-C ,  3-C ) :   1.2252
B(  2-C ,  6-C ) :   1.0340 B(  3-C ,  4-C ) :   1.5782 B(  3-C ,  5-H ) :   1.0016
B(  4-C , 20-C ) :   1.0195 B(  6-C ,  7-H ) :   0.9330 B(  6-C ,  8-H ) :   0.9407
B(  6-C ,  9-C ) :   1.0598 B(  9-C , 10-H ) :   0.9564 B(  9-C , 11-H ) :   0.9537
B(  9-C , 12-C ) :   1.1004 B( 12-C , 13-H ) :   0.9695 B( 12-C , 14-H ) :   0.9635
B( 12-C , 15-H ) :   0.9665 B( 16-S , 17-C ) :   1.1658 B( 16-S , 20-C ) :   1.1566
B( 17-C , 18-C ) :   1.5612 B( 17-C , 20-C ) :   0.1009 B( 17-C , 33-H ) :   0.9818
B( 18-C , 19-C ) :   1.2726 B( 18-C , 21-H ) :   0.9864 B( 19-C , 20-C ) :   1.5846
B( 19-C , 22-C ) :   1.0221 B( 22-C , 23-H ) :   0.9283 B( 22-C , 24-H ) :   0.9363
B( 22-C , 25-C ) :   1.0807 B( 25-C , 26-H ) :   0.9499 B( 25-C , 27-H ) :   0.9562
B( 25-C , 28-C ) :   1.0698 B( 28-C , 29-H ) :   0.9770 B( 28-C , 30-H ) :   0.9751
B( 28-C , 31-H ) :   0.9755

Dispersion correction           -0.015366673
FINAL SINGLE POINT ENERGY     -1339.857266116735

DIPOLE MOMENT
-------------
                                X             Y             Z
Electronic contribution:    -18.15746      19.07609       5.01291
Nuclear contribution   :     18.56979     -19.50128      -4.85245
                        -----------------------------------------
Total Dipole Moment    :      0.41233      -0.42519       0.16047
                        -----------------------------------------
Magnitude (a.u.)       :      0.61364
Magnitude (Debye)      :      1.55974

Rotational constants in cm-1:     0.020101     0.008993     0.007526
Rotational constants in MHz :   602.614564   269.597024   225.614403

                             ****ORCA TERMINATED NORMALLY****
TOTAL RUN TIME: 0 days 0 hours 0 minutes 31 seconds 464 msec
