                         Program Version 4.2.1 -  RELEASE  -
|  1> ! wB97X-D3 SP def2-SVP
|  2> %pal
|  3> nprocs 16
|  4> end
|  5>
|  6> * xyz 0 1
|  7> S 	 3.38383 	 -18.431 	 88.8491
|  8> C 	 2.42621 	 -18.7293 	 87.3809
|  9> C 	 3.16518 	 -19.3302 	 86.3746
| 10> C 	 4.52354 	 -19.5204 	 86.8258
| 11> C 	 4.8466 	 -19.0874 	 88.1656
| 12> H 	 5.21889 	 -19.9774 	 86.1335
| 13> C 	 2.57613 	 -19.8086 	 85.0665
| 14> H 	 3.39941 	 -19.4862 	 84.3696
| 15> H 	 1.70336 	 -19.2582 	 84.8243
| 16> C 	 2.38272 	 -21.3095 	 84.9043
| 17> H 	 2.01889 	 -21.6177 	 83.9937
| 18> H 	 3.35816 	 -21.8488 	 84.9527
| 19> C 	 1.46408 	 -21.9865 	 85.9546
| 20> H 	 1.90713 	 -21.8068 	 86.9804
| 21> H 	 0.546118 	 -21.4964 	 85.9622
| 22> H 	 1.17046 	 -23.0592 	 85.9058
| 23> S 	 6.06759 	 -19.1648 	 90.6646
| 24> C 	 7.74322 	 -19.4448 	 90.7404
| 25> C 	 8.35232 	 -19.6654 	 89.4868
| 26> C 	 7.42803 	 -19.578 	 88.4311
| 27> C 	 6.13608 	 -19.2654 	 88.8304
| 28> H 	 9.36136 	 -19.9178 	 89.5856
| 29> C 	 7.80555 	 -20.0217 	 87.043
| 30> H 	 7.00413 	 -20.6972 	 86.6648
| 31> H 	 8.66039 	 -20.6861 	 87.1739
| 32> C 	 8.23323 	 -18.8548 	 86.1488
| 33> H 	 8.96144 	 -18.3047 	 86.6854
| 34> H 	 7.4097 	 -18.2062 	 86.068
| 35> C 	 8.68605 	 -19.3033 	 84.7446
| 36> H 	 7.98884 	 -20.0502 	 84.3061
| 37> H 	 9.71942 	 -19.71 	 84.6909
| 38> H 	 8.67254 	 -18.4251 	 84.2158
| 39> H 	 1.41445 	 -18.4907 	 87.1799
| 40> H 	 8.39244 	 -19.5798 	 91.5861
| 41> *
| 42>
| 43>                          ****END OF INPUT****

CARTESIAN COORDINATES (ANGSTROEM)
---------------------------------
  S      3.383830  -18.431000   88.849100
  C      2.426210  -18.729300   87.380900
  C      3.165180  -19.330200   86.374600
  C      4.523540  -19.520400   86.825800
  C      4.846600  -19.087400   88.165600
  H      5.218890  -19.977400   86.133500
  C      2.576130  -19.808600   85.066500
  H      3.399410  -19.486200   84.369600
  H      1.703360  -19.258200   84.824300
  C      2.382720  -21.309500   84.904300
  H      2.018890  -21.617700   83.993700
  H      3.358160  -21.848800   84.952700
  C      1.464080  -21.986500   85.954600
  H      1.907130  -21.806800   86.980400
  H      0.546118  -21.496400   85.962200
  H      1.170460  -23.059200   85.905800
  S      6.067590  -19.164800   90.664600
  C      7.743220  -19.444800   90.740400
  C      8.352320  -19.665400   89.486800
  C      7.428030  -19.578000   88.431100
  C      6.136080  -19.265400   88.830400
  H      9.361360  -19.917800   89.585600
  C      7.805550  -20.021700   87.043000
  H      7.004130  -20.697200   86.664800
  H      8.660390  -20.686100   87.173900
  C      8.233230  -18.854800   86.148800
  H      8.961440  -18.304700   86.685400
  H      7.409700  -18.206200   86.068000
  C      8.686050  -19.303300   84.744600
  H      7.988840  -20.050200   84.306100
  H      9.719420  -19.710000   84.690900
  H      8.672540  -18.425100   84.215800
  H      1.414450  -18.490700   87.179900
  H      8.392440  -19.579800   91.586100

 Total Charge           Charge          ....    0
 Multiplicity           Mult            ....    1
 Number of Electrons    NEL             ....  134
 Basis Dimension        Dim             ....  322

ORBITAL ENERGIES
----------------

  NO   OCC          E(Eh)            E(eV)
   0   2.0000     -88.972360     -2421.0610
   1   2.0000     -88.969204     -2420.9751
   2   2.0000     -10.342368      -281.4301
   3   2.0000     -10.336849      -281.2800
   4   2.0000     -10.316225      -280.7188
   5   2.0000     -10.312621      -280.6207
   6   2.0000     -10.305841      -280.4362
   7   2.0000     -10.302383      -280.3421
   8   2.0000     -10.299366      -280.2600
   9   2.0000     -10.298474      -280.2357
  10   2.0000     -10.290873      -280.0289
  11   2.0000     -10.290203      -280.0107
  12   2.0000     -10.286295      -279.9043
  13   2.0000     -10.279479      -279.7189
  14   2.0000     -10.277000      -279.6514
  15   2.0000     -10.274183      -279.5747
  16   2.0000      -8.086049      -220.0326
  17   2.0000      -8.083477      -219.9626
  18   2.0000      -6.044798      -164.4873
  19   2.0000      -6.041896      -164.4083
  20   2.0000      -6.040632      -164.3739
  21   2.0000      -6.038158      -164.3066
  22   2.0000      -6.036683      -164.2665
  23   2.0000      -6.034263      -164.2006
  24   2.0000      -1.001884       -27.2627
  25   2.0000      -0.980783       -26.6885
  26   2.0000      -0.915091       -24.9009
  27   2.0000      -0.913205       -24.8496
  28   2.0000      -0.867184       -23.5973
  29   2.0000      -0.857714       -23.3396
  30   2.0000      -0.841863       -22.9083
  31   2.0000      -0.808968       -22.0131
  32   2.0000      -0.787256       -21.4223
  33   2.0000      -0.777874       -21.1670
  34   2.0000      -0.716622       -19.5003
  35   2.0000      -0.705099       -19.1867
  36   2.0000      -0.698300       -19.0017
  37   2.0000      -0.664643       -18.0858
  38   2.0000      -0.631139       -17.1742
  39   2.0000      -0.625762       -17.0279
  40   2.0000      -0.591716       -16.1014
  41   2.0000      -0.573260       -15.5992
  42   2.0000      -0.563273       -15.3274
  43   2.0000      -0.552600       -15.0370
  44   2.0000      -0.545582       -14.8460
  45   2.0000      -0.532016       -14.4769
  46   2.0000      -0.519860       -14.1461
  47   2.0000      -0.508200       -13.8288
  48   2.0000      -0.505529       -13.7561
  49   2.0000      -0.497667       -13.5422
  50   2.0000      -0.493710       -13.4345
  51   2.0000      -0.478534       -13.0216
  52   2.0000      -0.470623       -12.8063
  53   2.0000      -0.464188       -12.6312
  54   2.0000      -0.458364       -12.4727
  55   2.0000      -0.450177       -12.2499
  56   2.0000      -0.447894       -12.1878
  57   2.0000      -0.443257       -12.0616
  58   2.0000      -0.435674       -11.8553
  59   2.0000      -0.422066       -11.4850
  60   2.0000      -0.418017       -11.3748
  61   2.0000      -0.415641       -11.3102
  62   2.0000      -0.411097       -11.1865
  63   2.0000      -0.359968        -9.7952
  64   2.0000      -0.336815        -9.1652
  65   2.0000      -0.329691        -8.9713
  66   2.0000      -0.276058        -7.5119
  67   0.0000       0.014877         0.4048
  68   0.0000       0.079757         2.1703
  69   0.0000       0.094241         2.5644
  70   0.0000       0.113649         3.0925
  71   0.0000       0.131654         3.5825

MULLIKEN ATOMIC CHARGES
-----------------------
   0 S :    0.113876
   1 C :   -0.101839
   2 C :   -0.115532
   3 C :   -0.017717
   4 C :   -0.088276
   5 H :   -0.007839
   6 C :    0.085106
   7 H :    0.040636
   8 H :    0.017752
   9 C :   -0.024156
  10 H :    0.010615
  11 H :    0.025706
  12 C :   -0.083095
  13 H :    0.049220
  14 H :    0.006165
  15 H :    0.043876
  16 S :    0.100755
  17 C :   -0.074156
  18 C :   -0.045346
  19 C :   -0.037822
  20 C :   -0.125714
  21 H :   -0.002373
  22 C :    0.026874
  23 H :    0.039812
  24 H :    0.012583
  25 C :   -0.036708
  26 H :    0.015704
  27 H :    0.016505
  28 C :   -0.008266
  29 H :    0.032460
  30 H :    0.038142
  31 H :    0.019148
  32 H :    0.026950
  33 H :    0.046954
Sum of atomic charges:   -0.0000000

LOEWDIN ATOMIC CHARGES
----------------------
   0 S :    0.403334
   1 C :   -0.190777
   2 C :   -0.061696
   3 C :   -0.074581
   4 C :   -0.194711
   5 H :    0.020255
   6 C :   -0.025164
   7 H :    0.044779
   8 H :    0.025782
   9 C :   -0.035899
  10 H :    0.013490
  11 H :    0.028427
  12 C :   -0.074980
  13 H :    0.033938
  14 H :    0.010662
  15 H :    0.032229
  16 S :    0.392777
  17 C :   -0.192220
  18 C :   -0.071767
  19 C :   -0.051669
  20 C :   -0.165694
  21 H :    0.025289
  22 C :   -0.031460
  23 H :    0.030862
  24 H :    0.028503
  25 C :   -0.028910
  26 H :    0.022812
  27 H :    0.019083
  28 C :   -0.058822
  29 H :    0.029075
  30 H :    0.029645
  31 H :    0.016608
  32 H :    0.021855
  33 H :    0.028946

  Mayer bond orders larger than 0.100000
B(  0-S ,  1-C ) :   1.1297 B(  0-S ,  4-C ) :   1.1488 B(  1-C ,  2-C ) :   1.6001
B(  1-C , 32-H ) :   0.9647 B(  2-C ,  3-C ) :   1.2826 B(  2-C ,  6-C ) :   1.0213
B(  3-C ,  4-C ) :   1.5038 B(  3-C ,  5-H ) :   0.9845 B(  4-C , 20-C ) :   1.1141
B(  6-C ,  7-H ) :   0.9339 B(  6-C ,  8-H ) :   0.9417 B(  6-C ,  9-C ) :   1.0736
B(  9-C , 10-H ) :   0.9565 B(  9-C , 11-H ) :   0.9542 B(  9-C , 12-C ) :   1.0631
B( 12-C , 13-H ) :   0.9751 B( 12-C , 14-H ) :   0.9748 B( 12-C , 15-H ) :   0.9767
B( 16-S , 17-C ) :   1.1770 B( 16-S , 20-C ) :   1.1101 B( 17-C , 18-C ) :   1.6113
B( 17-C , 20-C ) :   0.1012 B( 17-C , 33-H ) :   0.9621 B( 18-C , 19-C ) :   1.2373
B( 18-C , 21-H ) :   1.0021 B( 19-C , 20-C ) :   1.5834 B( 19-C , 22-C ) :   1.0286
B( 22-C , 23-H ) :   0.9374 B( 22-C , 24-H ) :   0.9340 B( 22-C , 25-C ) :   1.0568
B( 25-C , 26-H ) :   0.9487 B( 25-C , 27-H ) :   0.9571 B( 25-C , 28-C ) :   1.0789
B( 28-C , 29-H ) :   0.9738 B( 28-C , 30-H ) :   0.9745 B( 28-C , 31-H ) :   0.9738

Dispersion correction           -0.014425528
FINAL SINGLE POINT ENERGY     -1339.856742912909

DIPOLE MOMENT
-------------
                                X             Y             Z
Electronic contribution:     -2.27791      10.52096      25.96009
Nuclear contribution   :      2.55338     -10.83411     -26.54628
                        -----------------------------------------
Total Dipole Moment    :      0.27547      -0.31315      -0.58619
                        -----------------------------------------
Magnitude (a.u.)       :      0.71942
Magnitude (Debye)      :      1.82861

Rotational constants in cm-1:     0.017119     0.009320     0.006836
Rotational constants in MHz :   513.207178   279.399178   204.946648

                             ****ORCA TERMINATED NORMALLY****
TOTAL RUN TIME: 0 days 0 hours 0 minutes 35 seconds 51 msec
