                         Program Version 4.2.1 -  RELEASE  -
|  1> ! wB97X-D3 SP def2-SVP
|  2> %pal
|  3> nprocs 16
|  4> end
|  5>
|  6> * xyz 0 1
|  7> S 	 -115.137 	 45.2566 	 133.885
|  8> C 	 -115.498 	 44.7481 	 135.482
|  9> C 	 -115.522 	 45.8684 	 136.34
| 10> C 	 -115.407 	 47.0805 	 135.598
| 11> C 	 -115.197 	 46.9148 	 134.271
| 12> H 	 -115.492 	 48.1279 	 136.072
| 13> C 	 -115.739 	 45.8059 	 137.792
| 14> H 	 -116.261 	 44.8775 	 137.833
| 15> H 	 -116.488 	 46.5658 	 138.057
| 16> C 	 -114.485 	 45.8223 	 138.597
| 17> H 	 -114.789 	 45.3886 	 139.56
| 18> H 	 -113.762 	 45.1737 	 138.148
| 19> C 	 -113.903 	 47.2458 	 138.714
| 20> H 	 -114.599 	 47.9991 	 138.418
| 21> H 	 -113.572 	 47.3974 	 139.707
| 22> H 	 -112.981 	 47.4371 	 138.179
| 23> S 	 -113.839 	 47.6331 	 132.039
| 24> C 	 -114.059 	 49.2827 	 131.379
| 25> C 	 -115.076 	 49.9158 	 132.033
| 26> C 	 -115.601 	 49.2167 	 133.184
| 27> C 	 -114.989 	 47.9841 	 133.323
| 28> H 	 -115.335 	 50.902 	 131.722
| 29> C 	 -116.628 	 49.8654 	 134.071
| 30> H 	 -116.116 	 50.5836 	 134.75
| 31> H 	 -117.132 	 49.1749 	 134.8
| 32> C 	 -117.803 	 50.5564 	 133.309
| 33> H 	 -117.446 	 51.3689 	 132.621
| 34> H 	 -118.46 	 51.1203 	 134.101
| 35> C 	 -118.768 	 49.656 	 132.469
| 36> H 	 -119.035 	 48.7421 	 133.026
| 37> H 	 -118.202 	 49.3356 	 131.546
| 38> H 	 -119.691 	 50.2113 	 132.268
| 39> H 	 -115.651 	 43.7039 	 135.819
| 40> H 	 -113.744 	 49.7478 	 130.414
| 41> *
| 42>
| 43>                          ****END OF INPUT****

CARTESIAN COORDINATES (ANGSTROEM)
---------------------------------
  S    -115.137000   45.256600  133.885000
  C    -115.498000   44.748100  135.482000
  C    -115.522000   45.868400  136.340000
  C    -115.407000   47.080500  135.598000
  C    -115.197000   46.914800  134.271000
  H    -115.492000   48.127900  136.072000
  C    -115.739000   45.805900  137.792000
  H    -116.261000   44.877500  137.833000
  H    -116.488000   46.565800  138.057000
  C    -114.485000   45.822300  138.597000
  H    -114.789000   45.388600  139.560000
  H    -113.762000   45.173700  138.148000
  C    -113.903000   47.245800  138.714000
  H    -114.599000   47.999100  138.418000
  H    -113.572000   47.397400  139.707000
  H    -112.981000   47.437100  138.179000
  S    -113.839000   47.633100  132.039000
  C    -114.059000   49.282700  131.379000
  C    -115.076000   49.915800  132.033000
  C    -115.601000   49.216700  133.184000
  C    -114.989000   47.984100  133.323000
  H    -115.335000   50.902000  131.722000
  C    -116.628000   49.865400  134.071000
  H    -116.116000   50.583600  134.750000
  H    -117.132000   49.174900  134.800000
  C    -117.803000   50.556400  133.309000
  H    -117.446000   51.368900  132.621000
  H    -118.460000   51.120300  134.101000
  C    -118.768000   49.656000  132.469000
  H    -119.035000   48.742100  133.026000
  H    -118.202000   49.335600  131.546000
  H    -119.691000   50.211300  132.268000
  H    -115.651000   43.703900  135.819000
  H    -113.744000   49.747800  130.414000

 Total Charge           Charge          ....    0
 Multiplicity           Mult            ....    1
 Number of Electrons    NEL             ....  134
 Basis Dimension        Dim             ....  322

ORBITAL ENERGIES
----------------

  NO   OCC          E(Eh)            E(eV)
   0   2.0000     -88.966738     -2420.9080
   1   2.0000     -88.965819     -2420.8830
   2   2.0000     -10.328695      -281.0581
   3   2.0000     -10.321116      -280.8518
   4   2.0000     -10.318994      -280.7941
   5   2.0000     -10.315148      -280.6894
   6   2.0000     -10.304911      -280.4109
   7   2.0000     -10.302082      -280.3339
   8   2.0000     -10.301293      -280.3124
   9   2.0000     -10.296603      -280.1848
  10   2.0000     -10.292488      -280.0728
  11   2.0000     -10.291513      -280.0463
  12   2.0000     -10.283317      -279.8233
  13   2.0000     -10.283272      -279.8221
  14   2.0000     -10.281207      -279.7659
  15   2.0000     -10.270028      -279.4617
  16   2.0000      -8.082687      -219.9411
  17   2.0000      -8.079859      -219.8641
  18   2.0000      -6.041154      -164.3882
  19   2.0000      -6.038610      -164.3189
  20   2.0000      -6.036907      -164.2726
  21   2.0000      -6.034589      -164.2095
  22   2.0000      -6.033536      -164.1809
  23   2.0000      -6.030266      -164.0919
  24   2.0000      -1.014680       -27.6109
  25   2.0000      -0.985377       -26.8135
  26   2.0000      -0.923933       -25.1415
  27   2.0000      -0.900732       -24.5102
  28   2.0000      -0.872773       -23.7494
  29   2.0000      -0.850173       -23.1344
  30   2.0000      -0.840086       -22.8599
  31   2.0000      -0.818943       -22.2846
  32   2.0000      -0.784946       -21.3595
  33   2.0000      -0.772378       -21.0175
  34   2.0000      -0.710313       -19.3286
  35   2.0000      -0.702028       -19.1032
  36   2.0000      -0.686761       -18.6877
  37   2.0000      -0.656306       -17.8590
  38   2.0000      -0.636390       -17.3171
  39   2.0000      -0.619429       -16.8555
  40   2.0000      -0.593657       -16.1542
  41   2.0000      -0.576005       -15.6739
  42   2.0000      -0.555509       -15.1162
  43   2.0000      -0.549368       -14.9490
  44   2.0000      -0.541486       -14.7346
  45   2.0000      -0.528789       -14.3891
  46   2.0000      -0.514788       -14.0081
  47   2.0000      -0.511890       -13.9292
  48   2.0000      -0.506047       -13.7702
  49   2.0000      -0.495442       -13.4817
  50   2.0000      -0.491045       -13.3620
  51   2.0000      -0.477023       -12.9804
  52   2.0000      -0.473950       -12.8968
  53   2.0000      -0.465763       -12.6740
  54   2.0000      -0.458207       -12.4684
  55   2.0000      -0.449733       -12.2379
  56   2.0000      -0.445678       -12.1275
  57   2.0000      -0.439616       -11.9626
  58   2.0000      -0.430618       -11.7177
  59   2.0000      -0.422545       -11.4980
  60   2.0000      -0.415779       -11.3139
  61   2.0000      -0.412590       -11.2271
  62   2.0000      -0.409924       -11.1546
  63   2.0000      -0.357314        -9.7230
  64   2.0000      -0.332221        -9.0402
  65   2.0000      -0.327213        -8.9039
  66   2.0000      -0.287395        -7.8204
  67   0.0000       0.029248         0.7959
  68   0.0000       0.076055         2.0696
  69   0.0000       0.105549         2.8721
  70   0.0000       0.120231         3.2717
  71   0.0000       0.134718         3.6659

MULLIKEN ATOMIC CHARGES
-----------------------
   0 S :    0.124433
   1 C :   -0.132287
   2 C :   -0.130347
   3 C :   -0.026306
   4 C :   -0.115496
   5 H :    0.039604
   6 C :    0.055678
   7 H :    0.001133
   8 H :    0.030903
   9 C :   -0.019433
  10 H :    0.033149
  11 H :    0.024049
  12 C :   -0.021370
  13 H :    0.020823
  14 H :    0.019177
  15 H :    0.031635
  16 S :    0.091571
  17 C :   -0.085784
  18 C :   -0.049457
  19 C :   -0.016721
  20 C :   -0.148433
  21 H :    0.010004
  22 C :    0.043400
  23 H :    0.050289
  24 H :    0.035182
  25 C :   -0.149317
  26 H :    0.037918
  27 H :    0.038507
  28 C :   -0.056901
  29 H :    0.036300
  30 H :    0.052548
  31 H :    0.045265
  32 H :    0.061433
  33 H :    0.068851
Sum of atomic charges:    0.0000000

LOEWDIN ATOMIC CHARGES
----------------------
   0 S :    0.440239
   1 C :   -0.222203
   2 C :   -0.061244
   3 C :   -0.078619
   4 C :   -0.214943
   5 H :    0.042716
   6 C :   -0.039635
   7 H :    0.027748
   8 H :    0.032526
   9 C :   -0.031644
  10 H :    0.027359
  11 H :    0.025594
  12 C :   -0.061238
  13 H :    0.018600
  14 H :    0.024341
  15 H :    0.030527
  16 S :    0.378603
  17 C :   -0.187488
  18 C :   -0.064654
  19 C :   -0.063475
  20 C :   -0.178771
  21 H :    0.025755
  22 C :   -0.042871
  23 H :    0.039289
  24 H :    0.034586
  25 C :   -0.053209
  26 H :    0.021550
  27 H :    0.031070
  28 C :   -0.071420
  29 H :    0.026304
  30 H :    0.034161
  31 H :    0.029545
  32 H :    0.036723
  33 H :    0.044177

  Mayer bond orders larger than 0.100000
B(  0-S ,  1-C ) :   1.1509 B(  0-S ,  4-C ) :   1.1640 B(  1-C ,  2-C ) :   1.5723
B(  1-C , 32-H ) :   0.9649 B(  2-C ,  3-C ) :   1.2755 B(  2-C ,  6-C ) :   1.0213
B(  3-C ,  4-C ) :   1.5490 B(  3-C ,  5-H ) :   0.9791 B(  4-C , 20-C ) :   1.0562
B(  6-C ,  7-H ) :   0.9275 B(  6-C ,  8-H ) :   0.9416 B(  6-C ,  9-C ) :   1.0804
B(  9-C , 10-H ) :   0.9592 B(  9-C , 11-H ) :   0.9516 B(  9-C , 12-C ) :   1.0609
B( 12-C , 13-H ) :   0.9802 B( 12-C , 14-H ) :   0.9710 B( 12-C , 15-H ) :   0.9731
B( 16-S , 17-C ) :   1.1127 B( 16-S , 20-C ) :   1.1243 B( 17-C , 18-C ) :   1.6783
B( 17-C , 33-H ) :   0.9549 B( 18-C , 19-C ) :   1.2003 B( 18-C , 21-H ) :   0.9850
B( 19-C , 20-C ) :   1.6169 B( 19-C , 22-C ) :   1.0428 B( 22-C , 23-H ) :   0.9325
B( 22-C , 24-H ) :   0.9333 B( 22-C , 25-C ) :   1.0625 B( 25-C , 26-H ) :   0.9543
B( 25-C , 27-H ) :   0.9576 B( 25-C , 28-C ) :   1.0666 B( 28-C , 29-H ) :   0.9760
B( 28-C , 30-H ) :   0.9731 B( 28-C , 31-H ) :   0.9749

Dispersion correction           -0.014476080
FINAL SINGLE POINT ENERGY     -1339.876445620758

DIPOLE MOMENT
-------------
                                X             Y             Z
Electronic contribution:     11.23312     -11.45592     -17.30628
Nuclear contribution   :    -11.55937      11.79348      17.80395
                        -----------------------------------------
Total Dipole Moment    :     -0.32626       0.33756       0.49767
                        -----------------------------------------
Magnitude (a.u.)       :      0.68415
Magnitude (Debye)      :      1.73898

Rotational constants in cm-1:     0.019279     0.008541     0.007390
Rotational constants in MHz :   577.970193   256.054124   221.552461

                             ****ORCA TERMINATED NORMALLY****
TOTAL RUN TIME: 0 days 0 hours 0 minutes 32 seconds 593 msec
