                         Program Version 4.2.1 -  RELEASE  -
|  1> ! wB97X-D3 SP def2-SVP
|  2> %pal
|  3> nprocs 16
|  4> end
|  5>
|  6> * xyz 0 1
|  7> S 	 -97.3139 	 47.0746 	 121.787
|  8> C 	 -95.896 	 46.0061 	 122.133
|  9> C 	 -96.1547 	 45.123 	 123.138
| 10> C 	 -97.4781 	 45.3754 	 123.749
| 11> C 	 -98.1513 	 46.421 	 123.134
| 12> H 	 -97.886 	 44.9628 	 124.671
| 13> C 	 -95.2723 	 44.1171 	 123.761
| 14> H 	 -94.977 	 44.4273 	 124.776
| 15> H 	 -94.3377 	 44.1521 	 123.202
| 16> C 	 -95.933 	 42.6996 	 123.72
| 17> H 	 -96.9006 	 42.7106 	 124.237
| 18> H 	 -96.2205 	 42.3908 	 122.714
| 19> C 	 -95.0645 	 41.6326 	 124.47
| 20> H 	 -95.5431 	 40.6856 	 124.478
| 21> H 	 -94.0272 	 41.6352 	 124.101
| 22> H 	 -95.0401 	 41.8912 	 125.535
| 23> S 	 -99.7822 	 48.6636 	 123.071
| 24> C 	 -101.29 	 48.5925 	 123.956
| 25> C 	 -101.503 	 47.3661 	 124.558
| 26> C 	 -100.519 	 46.4278 	 124.219
| 27> C 	 -99.3981 	 46.9881 	 123.584
| 28> H 	 -102.485 	 47.2267 	 125.01
| 29> C 	 -100.717 	 44.9312 	 124.568
| 30> H 	 -99.9973 	 44.1685 	 124.186
| 31> H 	 -101.713 	 44.7748 	 124.197
| 32> C 	 -100.889 	 44.6885 	 126.093
| 33> H 	 -101.783 	 45.1599 	 126.499
| 34> H 	 -100.089 	 45.203 	 126.553
| 35> C 	 -100.788 	 43.1656 	 126.601
| 36> H 	 -99.8216 	 42.7146 	 126.332
| 37> H 	 -101.63 	 42.518 	 126.265
| 38> H 	 -100.791 	 43.1345 	 127.677
| 39> H 	 -94.8918 	 46.0909 	 121.698
| 40> H 	 -101.966 	 49.4747 	 124.013
| 41> *
| 42>
| 43>                          ****END OF INPUT****

CARTESIAN COORDINATES (ANGSTROEM)
---------------------------------
  S    -97.313900   47.074600  121.787000
  C    -95.896000   46.006100  122.133000
  C    -96.154700   45.123000  123.138000
  C    -97.478100   45.375400  123.749000
  C    -98.151300   46.421000  123.134000
  H    -97.886000   44.962800  124.671000
  C    -95.272300   44.117100  123.761000
  H    -94.977000   44.427300  124.776000
  H    -94.337700   44.152100  123.202000
  C    -95.933000   42.699600  123.720000
  H    -96.900600   42.710600  124.237000
  H    -96.220500   42.390800  122.714000
  C    -95.064500   41.632600  124.470000
  H    -95.543100   40.685600  124.478000
  H    -94.027200   41.635200  124.101000
  H    -95.040100   41.891200  125.535000
  S    -99.782200   48.663600  123.071000
  C    -101.290000   48.592500  123.956000
  C    -101.503000   47.366100  124.558000
  C    -100.519000   46.427800  124.219000
  C    -99.398100   46.988100  123.584000
  H    -102.485000   47.226700  125.010000
  C    -100.717000   44.931200  124.568000
  H    -99.997300   44.168500  124.186000
  H    -101.713000   44.774800  124.197000
  C    -100.889000   44.688500  126.093000
  H    -101.783000   45.159900  126.499000
  H    -100.089000   45.203000  126.553000
  C    -100.788000   43.165600  126.601000
  H    -99.821600   42.714600  126.332000
  H    -101.630000   42.518000  126.265000
  H    -100.791000   43.134500  127.677000
  H    -94.891800   46.090900  121.698000
  H    -101.966000   49.474700  124.013000

 Total Charge           Charge          ....    0
 Multiplicity           Mult            ....    1
 Number of Electrons    NEL             ....  134
 Basis Dimension        Dim             ....  322

ORBITAL ENERGIES
----------------

  NO   OCC          E(Eh)            E(eV)
   0   2.0000     -88.966657     -2420.9058
   1   2.0000     -88.965240     -2420.8673
   2   2.0000     -10.329879      -281.0903
   3   2.0000     -10.327080      -281.0141
   4   2.0000     -10.323277      -280.9106
   5   2.0000     -10.315464      -280.6981
   6   2.0000     -10.310242      -280.5560
   7   2.0000     -10.302032      -280.3325
   8   2.0000     -10.297506      -280.2094
   9   2.0000     -10.296112      -280.1714
  10   2.0000     -10.295076      -280.1433
  11   2.0000     -10.293232      -280.0931
  12   2.0000     -10.293191      -280.0920
  13   2.0000     -10.289277      -279.9855
  14   2.0000     -10.288057      -279.9523
  15   2.0000     -10.280117      -279.7362
  16   2.0000      -8.080889      -219.8922
  17   2.0000      -8.079837      -219.8636
  18   2.0000      -6.039326      -164.3384
  19   2.0000      -6.038653      -164.3201
  20   2.0000      -6.035569      -164.2362
  21   2.0000      -6.034492      -164.2069
  22   2.0000      -6.031658      -164.1298
  23   2.0000      -6.030151      -164.0888
  24   2.0000      -1.005333       -27.3565
  25   2.0000      -0.980679       -26.6856
  26   2.0000      -0.913223       -24.8501
  27   2.0000      -0.902773       -24.5657
  28   2.0000      -0.868832       -23.6421
  29   2.0000      -0.848233       -23.0816
  30   2.0000      -0.841191       -22.8900
  31   2.0000      -0.810636       -22.0585
  32   2.0000      -0.783638       -21.3239
  33   2.0000      -0.774531       -21.0761
  34   2.0000      -0.712151       -19.3786
  35   2.0000      -0.701471       -19.0880
  36   2.0000      -0.694437       -18.8966
  37   2.0000      -0.661025       -17.9874
  38   2.0000      -0.635365       -17.2892
  39   2.0000      -0.618520       -16.8308
  40   2.0000      -0.596477       -16.2310
  41   2.0000      -0.566608       -15.4182
  42   2.0000      -0.565177       -15.3793
  43   2.0000      -0.555260       -15.1094
  44   2.0000      -0.530425       -14.4336
  45   2.0000      -0.520719       -14.1695
  46   2.0000      -0.514426       -13.9983
  47   2.0000      -0.506741       -13.7891
  48   2.0000      -0.503237       -13.6938
  49   2.0000      -0.497181       -13.5290
  50   2.0000      -0.492362       -13.3979
  51   2.0000      -0.481400       -13.0996
  52   2.0000      -0.474520       -12.9123
  53   2.0000      -0.461827       -12.5670
  54   2.0000      -0.456665       -12.4265
  55   2.0000      -0.452962       -12.3257
  56   2.0000      -0.447006       -12.1637
  57   2.0000      -0.441529       -12.0146
  58   2.0000      -0.434742       -11.8299
  59   2.0000      -0.431789       -11.7496
  60   2.0000      -0.423290       -11.5183
  61   2.0000      -0.417791       -11.3687
  62   2.0000      -0.411942       -11.2095
  63   2.0000      -0.356754        -9.7078
  64   2.0000      -0.335075        -9.1179
  65   2.0000      -0.326589        -8.8869
  66   2.0000      -0.282159        -7.6779
  67   0.0000       0.019719         0.5366
  68   0.0000       0.079076         2.1518
  69   0.0000       0.098499         2.6803
  70   0.0000       0.113278         3.0825
  71   0.0000       0.122675         3.3382

MULLIKEN ATOMIC CHARGES
-----------------------
   0 S :    0.093875
   1 C :   -0.132952
   2 C :   -0.070304
   3 C :   -0.022084
   4 C :   -0.104511
   5 H :    0.017378
   6 C :    0.087611
   7 H :    0.040161
   8 H :    0.009431
   9 C :   -0.109736
  10 H :    0.027590
  11 H :    0.035977
  12 C :   -0.028493
  13 H :    0.030536
  14 H :    0.040234
  15 H :    0.023797
  16 S :    0.090566
  17 C :   -0.110913
  18 C :   -0.032720
  19 C :   -0.042366
  20 C :   -0.137254
  21 H :    0.029086
  22 C :    0.074532
  23 H :    0.042089
  24 H :    0.025827
  25 C :   -0.094791
  26 H :    0.030077
  27 H :    0.020893
  28 C :   -0.064227
  29 H :    0.030557
  30 H :    0.044464
  31 H :    0.031662
  32 H :    0.049278
  33 H :    0.074729
Sum of atomic charges:    0.0000000

LOEWDIN ATOMIC CHARGES
----------------------
   0 S :    0.383154
   1 C :   -0.189659
   2 C :   -0.055581
   3 C :   -0.071214
   4 C :   -0.192645
   5 H :    0.029182
   6 C :   -0.032330
   7 H :    0.036626
   8 H :    0.027918
   9 C :   -0.035737
  10 H :    0.022693
  11 H :    0.025927
  12 C :   -0.065115
  13 H :    0.022063
  14 H :    0.027153
  15 H :    0.026073
  16 S :    0.383094
  17 C :   -0.179006
  18 C :   -0.079212
  19 C :   -0.048426
  20 C :   -0.185406
  21 H :    0.037552
  22 C :   -0.030299
  23 H :    0.034699
  24 H :    0.031954
  25 C :   -0.038717
  26 H :    0.021296
  27 H :    0.015812
  28 C :   -0.069090
  29 H :    0.023783
  30 H :    0.028531
  31 H :    0.024936
  32 H :    0.033445
  33 H :    0.036548

  Mayer bond orders larger than 0.100000
B(  0-S ,  1-C ) :   1.0867 B(  0-S ,  4-C ) :   1.1321 B(  1-C ,  2-C ) :   1.6796
B(  1-C , 32-H ) :   0.9618 B(  2-C ,  3-C ) :   1.1645 B(  2-C ,  6-C ) :   1.0436
B(  3-C ,  4-C ) :   1.6070 B(  3-C ,  5-H ) :   0.9865 B(  4-C , 20-C ) :   1.0974
B(  6-C ,  7-H ) :   0.9384 B(  6-C ,  8-H ) :   0.9328 B(  6-C ,  9-C ) :   1.0422
B(  9-C , 10-H ) :   0.9579 B(  9-C , 11-H ) :   0.9590 B(  9-C , 12-C ) :   1.0798
B( 12-C , 13-H ) :   0.9744 B( 12-C , 14-H ) :   0.9765 B( 12-C , 15-H ) :   0.9740
B( 16-S , 17-C ) :   1.1652 B( 16-S , 20-C ) :   1.1196 B( 17-C , 18-C ) :   1.6065
B( 17-C , 20-C ) :   0.1018 B( 17-C , 33-H ) :   0.9614 B( 18-C , 19-C ) :   1.2405
B( 18-C , 21-H ) :   0.9867 B( 19-C , 20-C ) :   1.5716 B( 19-C , 22-C ) :   1.0336
B( 22-C , 23-H ) :   0.9483 B( 22-C , 24-H ) :   0.9254 B( 22-C , 25-C ) :   1.0489
B( 25-C , 26-H ) :   0.9552 B( 25-C , 27-H ) :   0.9606 B( 25-C , 28-C ) :   1.0780
B( 28-C , 29-H ) :   0.9758 B( 28-C , 30-H ) :   0.9781 B( 28-C , 31-H ) :   0.9758

Dispersion correction           -0.013934870
FINAL SINGLE POINT ENERGY     -1339.878182948777

DIPOLE MOMENT
-------------
                                X             Y             Z
Electronic contribution:     -2.91398      29.38642     -17.27355
Nuclear contribution   :      2.77777     -29.90046      17.81276
                        -----------------------------------------
Total Dipole Moment    :     -0.13621      -0.51404       0.53921
                        -----------------------------------------
Magnitude (a.u.)       :      0.75732
Magnitude (Debye)      :      1.92496

Rotational constants in cm-1:     0.016274     0.009808     0.006292
Rotational constants in MHz :   487.893626   294.033199   188.627870

                             ****ORCA TERMINATED NORMALLY****
TOTAL RUN TIME: 0 days 0 hours 0 minutes 32 seconds 324 msec
