                         Program Version 4.2.1 -  RELEASE  -
|  1> ! wB97X-D3 SP def2-SVP
|  2> %pal
|  3> nprocs 16
|  4> end
|  5>
|  6> * xyz 0 1
|  7> S 	 44.4401 	 20.0732 	 47.0977
|  8> C 	 43.3758 	 19.0847 	 46.0885
|  9> C 	 42.052 	 19.1673 	 46.4323
| 10> C 	 41.8899 	 20.1276 	 47.4774
| 11> C 	 43.0485 	 20.715 	 47.9197
| 12> H 	 40.9519 	 20.3906 	 47.9174
| 13> C 	 40.8974 	 18.3415 	 45.8743
| 14> H 	 41.1097 	 17.855 	 44.9561
| 15> H 	 40.0774 	 19.0567 	 45.6633
| 16> C 	 40.3668 	 17.2755 	 46.8847
| 17> H 	 39.8245 	 17.7662 	 47.597
| 18> H 	 39.6744 	 16.6222 	 46.3624
| 19> C 	 41.3748 	 16.2774 	 47.5023
| 20> H 	 42.0906 	 16.8615 	 48.052
| 21> H 	 40.8426 	 15.4921 	 48.0523
| 22> H 	 41.8276 	 15.7445 	 46.675
| 23> S 	 43.883 	 23.247 	 48.4776
| 24> C 	 43.8764 	 23.8201 	 50.1444
| 25> C 	 43.0289 	 23.0079 	 50.9081
| 26> C 	 42.6864 	 21.8206 	 50.1997
| 27> C 	 43.2097 	 21.6913 	 48.899
| 28> H 	 42.853 	 23.192 	 51.9609
| 29> C 	 41.955 	 20.6985 	 50.9122
| 30> H 	 41.1255 	 20.5761 	 50.273
| 31> H 	 41.5774 	 20.9484 	 51.8313
| 32> C 	 42.7381 	 19.3389 	 50.8918
| 33> H 	 43.7066 	 19.4271 	 51.3119
| 34> H 	 42.8001 	 18.9322 	 49.8625
| 35> C 	 42.016 	 18.3239 	 51.8038
| 36> H 	 42.6355 	 17.4217 	 51.7929
| 37> H 	 40.9596 	 18.0725 	 51.4789
| 38> H 	 42.155 	 18.6566 	 52.8746
| 39> H 	 43.7023 	 18.272 	 45.4364
| 40> H 	 44.3659 	 24.7302 	 50.4548
| 41> *
| 42>
| 43>                          ****END OF INPUT****

CARTESIAN COORDINATES (ANGSTROEM)
---------------------------------
  S     44.440100   20.073200   47.097700
  C     43.375800   19.084700   46.088500
  C     42.052000   19.167300   46.432300
  C     41.889900   20.127600   47.477400
  C     43.048500   20.715000   47.919700
  H     40.951900   20.390600   47.917400
  C     40.897400   18.341500   45.874300
  H     41.109700   17.855000   44.956100
  H     40.077400   19.056700   45.663300
  C     40.366800   17.275500   46.884700
  H     39.824500   17.766200   47.597000
  H     39.674400   16.622200   46.362400
  C     41.374800   16.277400   47.502300
  H     42.090600   16.861500   48.052000
  H     40.842600   15.492100   48.052300
  H     41.827600   15.744500   46.675000
  S     43.883000   23.247000   48.477600
  C     43.876400   23.820100   50.144400
  C     43.028900   23.007900   50.908100
  C     42.686400   21.820600   50.199700
  C     43.209700   21.691300   48.899000
  H     42.853000   23.192000   51.960900
  C     41.955000   20.698500   50.912200
  H     41.125500   20.576100   50.273000
  H     41.577400   20.948400   51.831300
  C     42.738100   19.338900   50.891800
  H     43.706600   19.427100   51.311900
  H     42.800100   18.932200   49.862500
  C     42.016000   18.323900   51.803800
  H     42.635500   17.421700   51.792900
  H     40.959600   18.072500   51.478900
  H     42.155000   18.656600   52.874600
  H     43.702300   18.272000   45.436400
  H     44.365900   24.730200   50.454800

 Total Charge           Charge          ....    0
 Multiplicity           Mult            ....    1
 Number of Electrons    NEL             ....  134
 Basis Dimension        Dim             ....  322

ORBITAL ENERGIES
----------------

  NO   OCC          E(Eh)            E(eV)
   0   2.0000     -88.967872     -2420.9389
   1   2.0000     -88.961582     -2420.7677
   2   2.0000     -10.324121      -280.9336
   3   2.0000     -10.319840      -280.8171
   4   2.0000     -10.318499      -280.7806
   5   2.0000     -10.314247      -280.6649
   6   2.0000     -10.302368      -280.3417
   7   2.0000     -10.302282      -280.3394
   8   2.0000     -10.297148      -280.1996
   9   2.0000     -10.295496      -280.1547
  10   2.0000     -10.292953      -280.0855
  11   2.0000     -10.282803      -279.8093
  12   2.0000     -10.282085      -279.7898
  13   2.0000     -10.281211      -279.7660
  14   2.0000     -10.278325      -279.6875
  15   2.0000     -10.277281      -279.6590
  16   2.0000      -8.082503      -219.9361
  17   2.0000      -8.076246      -219.7658
  18   2.0000      -6.040971      -164.3832
  19   2.0000      -6.037081      -164.2773
  20   2.0000      -6.034760      -164.2142
  21   2.0000      -6.033233      -164.1726
  22   2.0000      -6.030736      -164.1047
  23   2.0000      -6.027032      -164.0039
  24   2.0000      -1.010839       -27.5063
  25   2.0000      -0.982793       -26.7432
  26   2.0000      -0.913056       -24.8455
  27   2.0000      -0.904627       -24.6162
  28   2.0000      -0.874475       -23.7957
  29   2.0000      -0.849599       -23.1188
  30   2.0000      -0.844385       -22.9769
  31   2.0000      -0.813411       -22.1340
  32   2.0000      -0.787650       -21.4330
  33   2.0000      -0.768726       -20.9181
  34   2.0000      -0.712045       -19.3757
  35   2.0000      -0.698935       -19.0190
  36   2.0000      -0.690261       -18.7830
  37   2.0000      -0.664159       -18.0727
  38   2.0000      -0.641595       -17.4587
  39   2.0000      -0.624709       -16.9992
  40   2.0000      -0.592244       -16.1158
  41   2.0000      -0.571148       -15.5417
  42   2.0000      -0.569588       -15.4993
  43   2.0000      -0.553658       -15.0658
  44   2.0000      -0.547712       -14.9040
  45   2.0000      -0.521250       -14.1839
  46   2.0000      -0.517581       -14.0841
  47   2.0000      -0.512437       -13.9441
  48   2.0000      -0.501958       -13.6590
  49   2.0000      -0.499716       -13.5980
  50   2.0000      -0.495620       -13.4865
  51   2.0000      -0.481633       -13.1059
  52   2.0000      -0.470527       -12.8037
  53   2.0000      -0.467371       -12.7178
  54   2.0000      -0.460261       -12.5243
  55   2.0000      -0.446571       -12.1518
  56   2.0000      -0.443190       -12.0598
  57   2.0000      -0.435367       -11.8470
  58   2.0000      -0.431208       -11.7338
  59   2.0000      -0.429853       -11.6969
  60   2.0000      -0.420926       -11.4540
  61   2.0000      -0.416050       -11.3213
  62   2.0000      -0.409225       -11.1356
  63   2.0000      -0.343087        -9.3359
  64   2.0000      -0.334203        -9.0941
  65   2.0000      -0.324003        -8.8166
  66   2.0000      -0.290427        -7.9029
  67   0.0000       0.022897         0.6231
  68   0.0000       0.068806         1.8723
  69   0.0000       0.113288         3.0827
  70   0.0000       0.114356         3.1118
  71   0.0000       0.125265         3.4086

MULLIKEN ATOMIC CHARGES
-----------------------
   0 S :    0.122553
   1 C :   -0.116962
   2 C :   -0.101777
   3 C :    0.031970
   4 C :   -0.190766
   5 H :    0.000355
   6 C :    0.094318
   7 H :    0.011235
   8 H :    0.038169
   9 C :   -0.071717
  10 H :    0.008006
  11 H :    0.021272
  12 C :   -0.043615
  13 H :    0.050614
  14 H :    0.039600
  15 H :    0.020557
  16 S :    0.103921
  17 C :   -0.099284
  18 C :   -0.028618
  19 C :   -0.053661
  20 C :   -0.132143
  21 H :    0.023295
  22 C :    0.154054
  23 H :   -0.001727
  24 H :   -0.017982
  25 C :   -0.089263
  26 H :    0.026600
  27 H :    0.059259
  28 C :   -0.076955
  29 H :    0.028435
  30 H :    0.046878
  31 H :    0.035593
  32 H :    0.047221
  33 H :    0.060563
Sum of atomic charges:   -0.0000000

LOEWDIN ATOMIC CHARGES
----------------------
   0 S :    0.408885
   1 C :   -0.193062
   2 C :   -0.063789
   3 C :   -0.054210
   4 C :   -0.200687
   5 H :    0.025238
   6 C :   -0.022961
   7 H :    0.022835
   8 H :    0.039660
   9 C :   -0.032638
  10 H :    0.005900
  11 H :    0.024043
  12 C :   -0.059201
  13 H :    0.022678
  14 H :    0.031091
  15 H :    0.023304
  16 S :    0.405590
  17 C :   -0.174422
  18 C :   -0.074682
  19 C :   -0.046793
  20 C :   -0.218052
  21 H :    0.033091
  22 C :   -0.021414
  23 H :    0.025909
  24 H :    0.013443
  25 C :   -0.032379
  26 H :    0.019738
  27 H :    0.028595
  28 C :   -0.075572
  29 H :    0.024679
  30 H :    0.029218
  31 H :    0.029345
  32 H :    0.029363
  33 H :    0.027258

  Mayer bond orders larger than 0.100000
B(  0-S ,  1-C ) :   1.1310 B(  0-S ,  4-C ) :   1.1427 B(  1-C ,  2-C ) :   1.6372
B(  1-C , 32-H ) :   0.9583 B(  2-C ,  3-C ) :   1.2212 B(  2-C ,  6-C ) :   1.0270
B(  3-C ,  4-C ) :   1.5783 B(  3-C ,  5-H ) :   1.0018 B(  4-C , 20-C ) :   1.0799
B(  6-C ,  7-H ) :   0.9421 B(  6-C ,  8-H ) :   0.9389 B(  6-C ,  9-C ) :   1.0662
B(  9-C , 10-H ) :   0.9597 B(  9-C , 11-H ) :   0.9579 B(  9-C , 12-C ) :   1.0746
B( 12-C , 13-H ) :   0.9748 B( 12-C , 14-H ) :   0.9730 B( 12-C , 15-H ) :   0.9741
B( 16-S , 17-C ) :   1.1749 B( 16-S , 20-C ) :   1.1368 B( 17-C , 18-C ) :   1.5552
B( 17-C , 20-C ) :   0.1162 B( 17-C , 33-H ) :   0.9720 B( 18-C , 19-C ) :   1.2708
B( 18-C , 21-H ) :   0.9942 B( 19-C , 20-C ) :   1.5440 B( 19-C , 22-C ) :   1.0455
B( 22-C , 23-H ) :   0.9118 B( 22-C , 24-H ) :   0.9389 B( 22-C , 25-C ) :   1.0629
B( 25-C , 26-H ) :   0.9572 B( 25-C , 27-H ) :   0.9479 B( 25-C , 28-C ) :   1.0960
B( 28-C , 29-H ) :   0.9731 B( 28-C , 30-H ) :   0.9731 B( 28-C , 31-H ) :   0.9736

Dispersion correction           -0.016000876
FINAL SINGLE POINT ENERGY     -1339.868816470268

DIPOLE MOMENT
-------------
                                X             Y             Z
Electronic contribution:     15.81571      23.93706      -8.77976
Nuclear contribution   :    -16.32305     -24.39306       9.05417
                        -----------------------------------------
Total Dipole Moment    :     -0.50734      -0.45600       0.27441
                        -----------------------------------------
Magnitude (a.u.)       :      0.73528
Magnitude (Debye)      :      1.86892

Rotational constants in cm-1:     0.019881     0.010001     0.007639
Rotational constants in MHz :   596.006258   299.833015   229.020756

                             ****ORCA TERMINATED NORMALLY****
TOTAL RUN TIME: 0 days 0 hours 0 minutes 35 seconds 198 msec
