                         Program Version 4.2.1 -  RELEASE  -
|  1> ! wB97X-D3 SP def2-SVP
|  2> %pal
|  3> nprocs 16
|  4> end
|  5>
|  6> * xyz 0 1
|  7> S 	 -40.9497 	 55.4001 	 108.048
|  8> C 	 -42.2868 	 56.3552 	 107.486
|  9> C 	 -41.8688 	 57.3502 	 106.624
| 10> C 	 -40.4467 	 57.3557 	 106.447
| 11> C 	 -39.7984 	 56.3947 	 107.205
| 12> H 	 -39.9175 	 58.0384 	 105.815
| 13> C 	 -42.8429 	 58.3622 	 106.041
| 14> H 	 -42.3199 	 59.2121 	 105.557
| 15> H 	 -43.225 	 58.7676 	 106.963
| 16> C 	 -43.9375 	 57.8226 	 105.009
| 17> H 	 -43.6239 	 57.9149 	 103.988
| 18> H 	 -44.0618 	 56.7207 	 105.25
| 19> C 	 -45.2311 	 58.5386 	 105.203
| 20> H 	 -45.6495 	 58.3734 	 106.213
| 21> H 	 -45.1428 	 59.5975 	 105.078
| 22> H 	 -45.9895 	 58.1789 	 104.518
| 23> S 	 -37.3731 	 56.9604 	 108.195
| 24> C 	 -36.0166 	 55.9968 	 107.925
| 25> C 	 -36.2483 	 55.023 	 106.954
| 26> C 	 -37.6318 	 55.099 	 106.514
| 27> C 	 -38.4123 	 56.0314 	 107.196
| 28> H 	 -35.4604 	 54.3232 	 106.702
| 29> C 	 -38.1497 	 54.1023 	 105.468
| 30> H 	 -39.1418 	 53.8367 	 105.707
| 31> H 	 -37.61 	 53.1888 	 105.444
| 32> C 	 -38.0053 	 54.4753 	 104.023
| 33> H 	 -36.9139 	 54.682 	 103.868
| 34> H 	 -38.5123 	 55.4494 	 103.909
| 35> C 	 -38.6968 	 53.4393 	 103.088
| 36> H 	 -39.7092 	 53.1883 	 103.433
| 37> H 	 -38.2179 	 52.4096 	 103.092
| 38> H 	 -38.6362 	 53.7486 	 102.058
| 39> H 	 -43.3382 	 56.2888 	 107.743
| 40> H 	 -35.1295 	 56.1853 	 108.489
| 41> *
| 42>
| 43>                          ****END OF INPUT****

CARTESIAN COORDINATES (ANGSTROEM)
---------------------------------
  S    -40.949700   55.400100  108.048000
  C    -42.286800   56.355200  107.486000
  C    -41.868800   57.350200  106.624000
  C    -40.446700   57.355700  106.447000
  C    -39.798400   56.394700  107.205000
  H    -39.917500   58.038400  105.815000
  C    -42.842900   58.362200  106.041000
  H    -42.319900   59.212100  105.557000
  H    -43.225000   58.767600  106.963000
  C    -43.937500   57.822600  105.009000
  H    -43.623900   57.914900  103.988000
  H    -44.061800   56.720700  105.250000
  C    -45.231100   58.538600  105.203000
  H    -45.649500   58.373400  106.213000
  H    -45.142800   59.597500  105.078000
  H    -45.989500   58.178900  104.518000
  S    -37.373100   56.960400  108.195000
  C    -36.016600   55.996800  107.925000
  C    -36.248300   55.023000  106.954000
  C    -37.631800   55.099000  106.514000
  C    -38.412300   56.031400  107.196000
  H    -35.460400   54.323200  106.702000
  C    -38.149700   54.102300  105.468000
  H    -39.141800   53.836700  105.707000
  H    -37.610000   53.188800  105.444000
  C    -38.005300   54.475300  104.023000
  H    -36.913900   54.682000  103.868000
  H    -38.512300   55.449400  103.909000
  C    -38.696800   53.439300  103.088000
  H    -39.709200   53.188300  103.433000
  H    -38.217900   52.409600  103.092000
  H    -38.636200   53.748600  102.058000
  H    -43.338200   56.288800  107.743000
  H    -35.129500   56.185300  108.489000

 Total Charge           Charge          ....    0
 Multiplicity           Mult            ....    1
 Number of Electrons    NEL             ....  134
 Basis Dimension        Dim             ....  322

ORBITAL ENERGIES
----------------

  NO   OCC          E(Eh)            E(eV)
   0   2.0000     -88.968279     -2420.9499
   1   2.0000     -88.959565     -2420.7128
   2   2.0000     -10.326689      -281.0035
   3   2.0000     -10.320645      -280.8390
   4   2.0000     -10.312156      -280.6080
   5   2.0000     -10.311155      -280.5808
   6   2.0000     -10.307641      -280.4852
   7   2.0000     -10.299459      -280.2625
   8   2.0000     -10.296478      -280.1814
   9   2.0000     -10.294967      -280.1403
  10   2.0000     -10.294583      -280.1298
  11   2.0000     -10.292603      -280.0760
  12   2.0000     -10.285057      -279.8706
  13   2.0000     -10.283090      -279.8171
  14   2.0000     -10.275565      -279.6123
  15   2.0000     -10.275231      -279.6032
  16   2.0000      -8.082925      -219.9476
  17   2.0000      -8.076596      -219.7754
  18   2.0000      -6.041475      -164.3969
  19   2.0000      -6.037267      -164.2824
  20   2.0000      -6.034864      -164.2170
  21   2.0000      -6.033821      -164.1886
  22   2.0000      -6.030508      -164.0985
  23   2.0000      -6.027740      -164.0232
  24   2.0000      -1.012495       -27.5514
  25   2.0000      -0.988794       -26.9065
  26   2.0000      -0.910120       -24.7656
  27   2.0000      -0.909293       -24.7431
  28   2.0000      -0.873735       -23.7755
  29   2.0000      -0.851851       -23.1801
  30   2.0000      -0.844165       -22.9709
  31   2.0000      -0.815407       -22.1883
  32   2.0000      -0.781285       -21.2598
  33   2.0000      -0.769471       -20.9384
  34   2.0000      -0.705043       -19.1852
  35   2.0000      -0.702636       -19.1197
  36   2.0000      -0.690768       -18.7967
  37   2.0000      -0.663650       -18.0588
  38   2.0000      -0.641402       -17.4534
  39   2.0000      -0.617307       -16.7978
  40   2.0000      -0.598159       -16.2767
  41   2.0000      -0.577069       -15.7028
  42   2.0000      -0.564351       -15.3568
  43   2.0000      -0.554833       -15.0978
  44   2.0000      -0.528601       -14.3840
  45   2.0000      -0.520938       -14.1754
  46   2.0000      -0.518370       -14.1056
  47   2.0000      -0.515434       -14.0257
  48   2.0000      -0.509948       -13.8764
  49   2.0000      -0.501536       -13.6475
  50   2.0000      -0.498196       -13.5566
  51   2.0000      -0.478044       -13.0082
  52   2.0000      -0.468436       -12.7468
  53   2.0000      -0.466402       -12.6914
  54   2.0000      -0.459760       -12.5107
  55   2.0000      -0.443726       -12.0744
  56   2.0000      -0.441857       -12.0235
  57   2.0000      -0.440477       -11.9860
  58   2.0000      -0.436161       -11.8685
  59   2.0000      -0.424509       -11.5515
  60   2.0000      -0.416789       -11.3414
  61   2.0000      -0.414033       -11.2664
  62   2.0000      -0.406513       -11.0618
  63   2.0000      -0.335794        -9.1374
  64   2.0000      -0.329024        -8.9532
  65   2.0000      -0.321901        -8.7594
  66   2.0000      -0.308373        -8.3912
  67   0.0000       0.047600         1.2953
  68   0.0000       0.054491         1.4828
  69   0.0000       0.115492         3.1427
  70   0.0000       0.121693         3.3114
  71   0.0000       0.134070         3.6482

MULLIKEN ATOMIC CHARGES
-----------------------
   0 S :    0.134294
   1 C :   -0.118230
   2 C :   -0.106346
   3 C :    0.070180
   4 C :   -0.171662
   5 H :    0.001975
   6 C :    0.041331
   7 H :    0.025334
   8 H :    0.037316
   9 C :   -0.064655
  10 H :    0.035749
  11 H :    0.040133
  12 C :   -0.049432
  13 H :    0.027466
  14 H :    0.029156
  15 H :    0.031091
  16 S :    0.119011
  17 C :   -0.094494
  18 C :   -0.033988
  19 C :   -0.016508
  20 C :   -0.181465
  21 H :    0.026121
  22 C :    0.094221
  23 H :    0.000767
  24 H :   -0.003440
  25 C :   -0.079676
  26 H :    0.031101
  27 H :    0.024200
  28 C :   -0.051536
  29 H :    0.036143
  30 H :    0.027413
  31 H :    0.040906
  32 H :    0.043620
  33 H :    0.053906
Sum of atomic charges:    0.0000000

LOEWDIN ATOMIC CHARGES
----------------------
   0 S :    0.428546
   1 C :   -0.207595
   2 C :   -0.066310
   3 C :   -0.052339
   4 C :   -0.208998
   5 H :    0.028940
   6 C :   -0.035076
   7 H :    0.031502
   8 H :    0.033944
   9 C :   -0.037004
  10 H :    0.023394
  11 H :    0.029698
  12 C :   -0.066435
  13 H :    0.025736
  14 H :    0.021307
  15 H :    0.025459
  16 S :    0.453332
  17 C :   -0.197793
  18 C :   -0.076484
  19 C :   -0.043891
  20 C :   -0.227126
  21 H :    0.034535
  22 C :   -0.033333
  23 H :    0.017641
  24 H :    0.023647
  25 C :   -0.041868
  26 H :    0.027073
  27 H :    0.021792
  28 C :   -0.069480
  29 H :    0.029401
  30 H :    0.028903
  31 H :    0.025727
  32 H :    0.029931
  33 H :    0.023226

  Mayer bond orders larger than 0.100000
B(  0-S ,  1-C ) :   1.1464 B(  0-S ,  4-C ) :   1.1600 B(  1-C ,  2-C ) :   1.6013
B(  1-C ,  4-C ) :   0.1014 B(  1-C , 32-H ) :   0.9667 B(  2-C ,  3-C ) :   1.2590
B(  2-C ,  6-C ) :   1.0057 B(  3-C ,  4-C ) :   1.5681 B(  3-C ,  5-H ) :   1.0003
B(  4-C , 20-C ) :   1.0068 B(  6-C ,  7-H ) :   0.9436 B(  6-C ,  8-H ) :   0.9527
B(  6-C ,  9-C ) :   1.0287 B(  9-C , 10-H ) :   0.9583 B(  9-C , 11-H ) :   0.9657
B(  9-C , 12-C ) :   1.0828 B( 12-C , 13-H ) :   0.9761 B( 12-C , 14-H ) :   0.9743
B( 12-C , 15-H ) :   0.9709 B( 16-S , 17-C ) :   1.2058 B( 16-S , 20-C ) :   1.1621
B( 17-C , 18-C ) :   1.5548 B( 17-C , 20-C ) :   0.1011 B( 17-C , 33-H ) :   0.9726
B( 18-C , 19-C ) :   1.2481 B( 18-C , 21-H ) :   0.9996 B( 19-C , 20-C ) :   1.5831
B( 19-C , 22-C ) :   1.0458 B( 22-C , 23-H ) :   0.9321 B( 22-C , 24-H ) :   0.9364
B( 22-C , 25-C ) :   1.0615 B( 25-C , 26-H ) :   0.9553 B( 25-C , 27-H ) :   0.9531
B( 25-C , 28-C ) :   1.0724 B( 28-C , 29-H ) :   0.9728 B( 28-C , 30-H ) :   0.9731
B( 28-C , 31-H ) :   0.9755

Dispersion correction           -0.013833932
FINAL SINGLE POINT ENERGY     -1339.880355769217

DIPOLE MOMENT
-------------
                                X             Y             Z
Electronic contribution:     14.79546       0.92323      22.14701
Nuclear contribution   :    -14.97375      -0.84952     -22.55631
                        -----------------------------------------
Total Dipole Moment    :     -0.17830       0.07370      -0.40930
                        -----------------------------------------
Magnitude (a.u.)       :      0.45249
Magnitude (Debye)      :      1.15014

Rotational constants in cm-1:     0.019595     0.007726     0.006336
Rotational constants in MHz :   587.441358   231.620903   189.962529

                             ****ORCA TERMINATED NORMALLY****
TOTAL RUN TIME: 0 days 0 hours 0 minutes 28 seconds 931 msec
