                         Program Version 4.2.1 -  RELEASE  -
|  1> ! wB97X-D3 SP def2-SVP
|  2> %pal
|  3> nprocs 16
|  4> end
|  5>
|  6> * xyz 0 1
|  7> S 	 -94.3597 	 54.645 	 128.173
|  8> C 	 -92.9097 	 53.673 	 127.822
|  9> C 	 -93.277 	 52.5663 	 127.041
| 10> C 	 -94.6515 	 52.5466 	 126.738
| 11> C 	 -95.4232 	 53.6018 	 127.296
| 12> H 	 -95.1608 	 51.7534 	 126.238
| 13> C 	 -92.297 	 51.536 	 126.501
| 14> H 	 -92.648 	 50.5099 	 126.675
| 15> H 	 -91.4451 	 51.489 	 127.168
| 16> C 	 -91.8192 	 51.6618 	 125.059
| 17> H 	 -91.3133 	 52.5785 	 124.925
| 18> H 	 -90.8538 	 51.1552 	 124.907
| 19> C 	 -92.8415 	 51.3163 	 124.023
| 20> H 	 -93.4556 	 50.4193 	 124.205
| 21> H 	 -93.5902 	 52.0351 	 123.835
| 22> H 	 -92.4103 	 51.1517 	 123.004
| 23> S 	 -97.5384 	 54.2418 	 128.772
| 24> C 	 -99.1459 	 54.0983 	 128.099
| 25> C 	 -99.1319 	 53.7024 	 126.761
| 26> C 	 -97.8086 	 53.5156 	 126.264
| 27> C 	 -96.8649 	 53.7185 	 127.253
| 28> H 	 -100.08 	 53.5318 	 126.302
| 29> C 	 -97.4325 	 53.1694 	 124.873
| 30> H 	 -96.353 	 53.1547 	 124.69
| 31> H 	 -97.813 	 53.9963 	 124.248
| 32> C 	 -98.063 	 51.887 	 124.363
| 33> H 	 -99.1125 	 52.0011 	 124.492
| 34> H 	 -97.7054 	 51.0612 	 124.959
| 35> C 	 -97.7906 	 51.4647 	 122.897
| 36> H 	 -96.7555 	 51.1971 	 122.878
| 37> H 	 -98.003 	 52.2421 	 122.168
| 38> H 	 -98.3633 	 50.5436 	 122.778
| 39> H 	 -91.9327 	 54.082 	 127.944
| 40> H 	 -100.056 	 54.1654 	 128.703
| 41> *
| 42>
| 43>                          ****END OF INPUT****

CARTESIAN COORDINATES (ANGSTROEM)
---------------------------------
  S    -94.359700   54.645000  128.173000
  C    -92.909700   53.673000  127.822000
  C    -93.277000   52.566300  127.041000
  C    -94.651500   52.546600  126.738000
  C    -95.423200   53.601800  127.296000
  H    -95.160800   51.753400  126.238000
  C    -92.297000   51.536000  126.501000
  H    -92.648000   50.509900  126.675000
  H    -91.445100   51.489000  127.168000
  C    -91.819200   51.661800  125.059000
  H    -91.313300   52.578500  124.925000
  H    -90.853800   51.155200  124.907000
  C    -92.841500   51.316300  124.023000
  H    -93.455600   50.419300  124.205000
  H    -93.590200   52.035100  123.835000
  H    -92.410300   51.151700  123.004000
  S    -97.538400   54.241800  128.772000
  C    -99.145900   54.098300  128.099000
  C    -99.131900   53.702400  126.761000
  C    -97.808600   53.515600  126.264000
  C    -96.864900   53.718500  127.253000
  H    -100.080000   53.531800  126.302000
  C    -97.432500   53.169400  124.873000
  H    -96.353000   53.154700  124.690000
  H    -97.813000   53.996300  124.248000
  C    -98.063000   51.887000  124.363000
  H    -99.112500   52.001100  124.492000
  H    -97.705400   51.061200  124.959000
  C    -97.790600   51.464700  122.897000
  H    -96.755500   51.197100  122.878000
  H    -98.003000   52.242100  122.168000
  H    -98.363300   50.543600  122.778000
  H    -91.932700   54.082000  127.944000
  H    -100.056000   54.165400  128.703000

 Total Charge           Charge          ....    0
 Multiplicity           Mult            ....    1
 Number of Electrons    NEL             ....  134
 Basis Dimension        Dim             ....  322

ORBITAL ENERGIES
----------------

  NO   OCC          E(Eh)            E(eV)
   0   2.0000     -88.967867     -2420.9388
   1   2.0000     -88.965851     -2420.8839
   2   2.0000     -10.332107      -281.1509
   3   2.0000     -10.325331      -280.9666
   4   2.0000     -10.319457      -280.8067
   5   2.0000     -10.316059      -280.7142
   6   2.0000     -10.304497      -280.3996
   7   2.0000     -10.304378      -280.3964
   8   2.0000     -10.297073      -280.1976
   9   2.0000     -10.291378      -280.0426
  10   2.0000     -10.290768      -280.0260
  11   2.0000     -10.288304      -279.9590
  12   2.0000     -10.284084      -279.8442
  13   2.0000     -10.281015      -279.7606
  14   2.0000     -10.278272      -279.6860
  15   2.0000     -10.277470      -279.6642
  16   2.0000      -8.082190      -219.9276
  17   2.0000      -8.080996      -219.8951
  18   2.0000      -6.040710      -164.3761
  19   2.0000      -6.039440      -164.3415
  20   2.0000      -6.036507      -164.2617
  21   2.0000      -6.035461      -164.2332
  22   2.0000      -6.033215      -164.1721
  23   2.0000      -6.031781      -164.1331
  24   2.0000      -1.009142       -27.4602
  25   2.0000      -0.982538       -26.7362
  26   2.0000      -0.916157       -24.9299
  27   2.0000      -0.912973       -24.8432
  28   2.0000      -0.871175       -23.7059
  29   2.0000      -0.856605       -23.3094
  30   2.0000      -0.844740       -22.9865
  31   2.0000      -0.814013       -22.1504
  32   2.0000      -0.788127       -21.4460
  33   2.0000      -0.775611       -21.1055
  34   2.0000      -0.715460       -19.4686
  35   2.0000      -0.703958       -19.1557
  36   2.0000      -0.697168       -18.9709
  37   2.0000      -0.663897       -18.0656
  38   2.0000      -0.641337       -17.4517
  39   2.0000      -0.619317       -16.8525
  40   2.0000      -0.598694       -16.2913
  41   2.0000      -0.574273       -15.6268
  42   2.0000      -0.569687       -15.5020
  43   2.0000      -0.555314       -15.1109
  44   2.0000      -0.538300       -14.6479
  45   2.0000      -0.531765       -14.4701
  46   2.0000      -0.515217       -14.0198
  47   2.0000      -0.512286       -13.9400
  48   2.0000      -0.505432       -13.7535
  49   2.0000      -0.500973       -13.6322
  50   2.0000      -0.494744       -13.4627
  51   2.0000      -0.484250       -13.1771
  52   2.0000      -0.476203       -12.9582
  53   2.0000      -0.468076       -12.7370
  54   2.0000      -0.460842       -12.5402
  55   2.0000      -0.450031       -12.2460
  56   2.0000      -0.440862       -11.9965
  57   2.0000      -0.437464       -11.9040
  58   2.0000      -0.435186       -11.8420
  59   2.0000      -0.427106       -11.6222
  60   2.0000      -0.423238       -11.5169
  61   2.0000      -0.415492       -11.3061
  62   2.0000      -0.402191       -10.9442
  63   2.0000      -0.352453        -9.5907
  64   2.0000      -0.333439        -9.0733
  65   2.0000      -0.332965        -9.0604
  66   2.0000      -0.283058        -7.7024
  67   0.0000       0.023828         0.6484
  68   0.0000       0.070529         1.9192
  69   0.0000       0.108036         2.9398
  70   0.0000       0.117441         3.1957
  71   0.0000       0.121029         3.2934

MULLIKEN ATOMIC CHARGES
-----------------------
   0 S :    0.104026
   1 C :   -0.124617
   2 C :   -0.062881
   3 C :    0.022846
   4 C :   -0.139723
   5 H :   -0.002566
   6 C :    0.053659
   7 H :    0.026280
   8 H :    0.007513
   9 C :   -0.007712
  10 H :   -0.000118
  11 H :    0.014262
  12 C :   -0.043223
  13 H :    0.023211
  14 H :    0.024943
  15 H :    0.031333
  16 S :    0.104806
  17 C :   -0.100064
  18 C :   -0.039091
  19 C :   -0.005963
  20 C :   -0.155289
  21 H :    0.014634
  22 C :    0.076228
  23 H :    0.021802
  24 H :    0.028239
  25 C :   -0.116605
  26 H :    0.020492
  27 H :    0.024600
  28 C :   -0.012382
  29 H :    0.020029
  30 H :    0.037885
  31 H :    0.038321
  32 H :    0.051807
  33 H :    0.063319
Sum of atomic charges:    0.0000000

LOEWDIN ATOMIC CHARGES
----------------------
   0 S :    0.408337
   1 C :   -0.192115
   2 C :   -0.057154
   3 C :   -0.069827
   4 C :   -0.199611
   5 H :    0.023499
   6 C :   -0.034293
   7 H :    0.032857
   8 H :    0.030501
   9 C :   -0.049268
  10 H :    0.023069
  11 H :    0.032722
  12 C :   -0.071618
  13 H :    0.026501
  14 H :    0.018654
  15 H :    0.033832
  16 S :    0.409615
  17 C :   -0.184128
  18 C :   -0.065764
  19 C :   -0.053950
  20 C :   -0.193264
  21 H :    0.029648
  22 C :   -0.036479
  23 H :    0.028463
  24 H :    0.036383
  25 C :   -0.038585
  26 H :    0.015128
  27 H :    0.021910
  28 C :   -0.057216
  29 H :    0.020495
  30 H :    0.024282
  31 H :    0.031689
  32 H :    0.024424
  33 H :    0.031263

  Mayer bond orders larger than 0.100000
B(  0-S ,  1-C ) :   1.1390 B(  0-S ,  4-C ) :   1.1773 B(  1-C ,  2-C ) :   1.5619
B(  1-C ,  4-C ) :   0.1123 B(  1-C , 32-H ) :   0.9736 B(  2-C ,  3-C ) :   1.2950
B(  2-C ,  6-C ) :   1.0244 B(  3-C ,  4-C ) :   1.5016 B(  3-C ,  5-H ) :   0.9955
B(  4-C , 20-C ) :   1.0610 B(  6-C ,  7-H ) :   0.9432 B(  6-C ,  8-H ) :   0.9325
B(  6-C ,  9-C ) :   1.0830 B(  9-C , 10-H ) :   0.9402 B(  9-C , 11-H ) :   0.9448
B(  9-C , 12-C ) :   1.0747 B( 12-C , 13-H ) :   0.9738 B( 12-C , 14-H ) :   0.9734
B( 12-C , 15-H ) :   0.9685 B( 16-S , 17-C ) :   1.1565 B( 16-S , 20-C ) :   1.1396
B( 17-C , 18-C ) :   1.6149 B( 17-C , 33-H ) :   0.9652 B( 18-C , 19-C ) :   1.2116
B( 18-C , 21-H ) :   0.9975 B( 19-C , 20-C ) :   1.5937 B( 19-C , 22-C ) :   1.0520
B( 22-C , 23-H ) :   0.9333 B( 22-C , 24-H ) :   0.9184 B( 22-C , 25-C ) :   1.0628
B( 25-C , 26-H ) :   0.9569 B( 25-C , 27-H ) :   0.9556 B( 25-C , 28-C ) :   1.0868
B( 28-C , 29-H ) :   0.9747 B( 28-C , 30-H ) :   0.9749 B( 28-C , 31-H ) :   0.9733

Dispersion correction           -0.014681102
FINAL SINGLE POINT ENERGY     -1339.879472124657

DIPOLE MOMENT
-------------
                                X             Y             Z
Electronic contribution:     -5.62883      17.77279      26.59941
Nuclear contribution   :      5.63995     -18.18280     -27.16093
                        -----------------------------------------
Total Dipole Moment    :      0.01111      -0.41001      -0.56152
                        -----------------------------------------
Magnitude (a.u.)       :      0.69537
Magnitude (Debye)      :      1.76749

Rotational constants in cm-1:     0.016280     0.010663     0.006743
Rotational constants in MHz :   488.053132   319.673218   202.155739

                             ****ORCA TERMINATED NORMALLY****
TOTAL RUN TIME: 0 days 0 hours 0 minutes 35 seconds 14 msec
