                         Program Version 4.2.1 -  RELEASE  -
|  1> ! wB97X-D3 SP def2-SVP
|  2> %pal
|  3> nprocs 16
|  4> end
|  5>
|  6> * xyz 0 1
|  7> S 	 -26.2622 	 65.1184 	 106.172
|  8> C 	 -27.9716 	 64.8381 	 105.982
|  9> C 	 -28.2359 	 63.4782 	 105.852
| 10> C 	 -27.0444 	 62.7116 	 105.996
| 11> C 	 -25.891 	 63.3994 	 106.165
| 12> H 	 -27.0829 	 61.5844 	 106.084
| 13> C 	 -29.5829 	 62.8279 	 105.583
| 14> H 	 -30.2577 	 63.1393 	 106.285
| 15> H 	 -29.4766 	 61.7485 	 105.577
| 16> C 	 -30.1395 	 63.015 	 104.137
| 17> H 	 -31.1034 	 62.582 	 104.026
| 18> H 	 -30.2562 	 64.0258 	 104.06
| 19> C 	 -29.167 	 62.4552 	 103.091
| 20> H 	 -28.9226 	 61.3853 	 103.18
| 21> H 	 -29.4316 	 62.7794 	 102.035
| 22> H 	 -28.1587 	 62.8231 	 103.188
| 23> S 	 -24.0434 	 63.134 	 108.111
| 24> C 	 -22.702 	 62.0147 	 107.841
| 25> C 	 -22.8308 	 61.3562 	 106.632
| 26> C 	 -23.9703 	 61.7397 	 105.87
| 27> C 	 -24.5901 	 62.8392 	 106.483
| 28> H 	 -22.0422 	 60.6726 	 106.247
| 29> C 	 -24.3462 	 61.2152 	 104.494
| 30> H 	 -23.6498 	 61.7067 	 103.804
| 31> H 	 -25.2318 	 61.6253 	 104.078
| 32> C 	 -24.3416 	 59.6844 	 104.362
| 33> H 	 -23.4509 	 59.255 	 104.894
| 34> H 	 -24.407 	 59.463 	 103.35
| 35> C 	 -25.5332 	 58.9264 	 105.05
| 36> H 	 -26.4783 	 59.3211 	 104.72
| 37> H 	 -25.5091 	 59.096 	 106.16
| 38> H 	 -25.5336 	 57.9014 	 104.836
| 39> H 	 -28.7325 	 65.6247 	 105.84
| 40> H 	 -21.8942 	 61.8583 	 108.584
| 41> *
| 42>
| 43>                          ****END OF INPUT****

CARTESIAN COORDINATES (ANGSTROEM)
---------------------------------
  S    -26.262200   65.118400  106.172000
  C    -27.971600   64.838100  105.982000
  C    -28.235900   63.478200  105.852000
  C    -27.044400   62.711600  105.996000
  C    -25.891000   63.399400  106.165000
  H    -27.082900   61.584400  106.084000
  C    -29.582900   62.827900  105.583000
  H    -30.257700   63.139300  106.285000
  H    -29.476600   61.748500  105.577000
  C    -30.139500   63.015000  104.137000
  H    -31.103400   62.582000  104.026000
  H    -30.256200   64.025800  104.060000
  C    -29.167000   62.455200  103.091000
  H    -28.922600   61.385300  103.180000
  H    -29.431600   62.779400  102.035000
  H    -28.158700   62.823100  103.188000
  S    -24.043400   63.134000  108.111000
  C    -22.702000   62.014700  107.841000
  C    -22.830800   61.356200  106.632000
  C    -23.970300   61.739700  105.870000
  C    -24.590100   62.839200  106.483000
  H    -22.042200   60.672600  106.247000
  C    -24.346200   61.215200  104.494000
  H    -23.649800   61.706700  103.804000
  H    -25.231800   61.625300  104.078000
  C    -24.341600   59.684400  104.362000
  H    -23.450900   59.255000  104.894000
  H    -24.407000   59.463000  103.350000
  C    -25.533200   58.926400  105.050000
  H    -26.478300   59.321100  104.720000
  H    -25.509100   59.096000  106.160000
  H    -25.533600   57.901400  104.836000
  H    -28.732500   65.624700  105.840000
  H    -21.894200   61.858300  108.584000

 Total Charge           Charge          ....    0
 Multiplicity           Mult            ....    1
 Number of Electrons    NEL             ....  134
 Basis Dimension        Dim             ....  322

ORBITAL ENERGIES
----------------

  NO   OCC          E(Eh)            E(eV)
   0   2.0000     -88.966427     -2420.8995
   1   2.0000     -88.965141     -2420.8646
   2   2.0000     -10.323611      -280.9197
   3   2.0000     -10.323138      -280.9069
   4   2.0000     -10.322540      -280.8906
   5   2.0000     -10.316760      -280.7333
   6   2.0000     -10.306690      -280.4593
   7   2.0000     -10.299656      -280.2679
   8   2.0000     -10.299489      -280.2633
   9   2.0000     -10.291535      -280.0469
  10   2.0000     -10.291433      -280.0441
  11   2.0000     -10.289823      -280.0003
  12   2.0000     -10.284816      -279.8641
  13   2.0000     -10.279633      -279.7230
  14   2.0000     -10.279205      -279.7114
  15   2.0000     -10.277178      -279.6562
  16   2.0000      -8.081108      -219.8981
  17   2.0000      -8.079795      -219.8624
  18   2.0000      -6.039572      -164.3451
  19   2.0000      -6.038346      -164.3118
  20   2.0000      -6.035685      -164.2393
  21   2.0000      -6.034240      -164.2000
  22   2.0000      -6.031839      -164.1347
  23   2.0000      -6.030586      -164.1006
  24   2.0000      -1.007931       -27.4272
  25   2.0000      -0.983877       -26.7727
  26   2.0000      -0.913054       -24.8455
  27   2.0000      -0.908436       -24.7198
  28   2.0000      -0.868486       -23.6327
  29   2.0000      -0.849724       -23.1222
  30   2.0000      -0.842672       -22.9303
  31   2.0000      -0.811922       -22.0935
  32   2.0000      -0.786518       -21.4022
  33   2.0000      -0.774079       -21.0638
  34   2.0000      -0.710979       -19.3467
  35   2.0000      -0.705111       -19.1870
  36   2.0000      -0.695330       -18.9209
  37   2.0000      -0.654020       -17.7968
  38   2.0000      -0.636749       -17.3268
  39   2.0000      -0.617169       -16.7940
  40   2.0000      -0.603694       -16.4273
  41   2.0000      -0.575447       -15.6587
  42   2.0000      -0.557025       -15.1574
  43   2.0000      -0.553793       -15.0695
  44   2.0000      -0.542077       -14.7507
  45   2.0000      -0.538471       -14.6526
  46   2.0000      -0.516567       -14.0565
  47   2.0000      -0.504281       -13.7222
  48   2.0000      -0.502568       -13.6756
  49   2.0000      -0.491437       -13.3727
  50   2.0000      -0.488730       -13.2990
  51   2.0000      -0.476537       -12.9672
  52   2.0000      -0.474313       -12.9067
  53   2.0000      -0.465031       -12.6541
  54   2.0000      -0.459644       -12.5076
  55   2.0000      -0.452025       -12.3002
  56   2.0000      -0.444748       -12.1022
  57   2.0000      -0.442024       -12.0281
  58   2.0000      -0.433573       -11.7981
  59   2.0000      -0.429108       -11.6766
  60   2.0000      -0.422969       -11.5096
  61   2.0000      -0.414386       -11.2760
  62   2.0000      -0.409868       -11.1531
  63   2.0000      -0.347213        -9.4481
  64   2.0000      -0.329732        -8.9725
  65   2.0000      -0.327117        -8.9013
  66   2.0000      -0.294623        -8.0171
  67   0.0000       0.031140         0.8474
  68   0.0000       0.066597         1.8122
  69   0.0000       0.111776         3.0416
  70   0.0000       0.119041         3.2393
  71   0.0000       0.124796         3.3959

MULLIKEN ATOMIC CHARGES
-----------------------
   0 S :    0.107976
   1 C :   -0.130911
   2 C :   -0.112749
   3 C :    0.010376
   4 C :   -0.170771
   5 H :    0.030307
   6 C :    0.088236
   7 H :    0.017621
   8 H :    0.013510
   9 C :    0.001064
  10 H :    0.027151
  11 H :   -0.000663
  12 C :   -0.091476
  13 H :    0.027794
  14 H :    0.043694
  15 H :    0.031336
  16 S :    0.112399
  17 C :   -0.108934
  18 C :   -0.042597
  19 C :   -0.046288
  20 C :   -0.138468
  21 H :    0.038093
  22 C :    0.088574
  23 H :    0.038494
  24 H :    0.004549
  25 C :   -0.063650
  26 H :    0.038126
  27 H :    0.020393
  28 C :   -0.055915
  29 H :    0.015437
  30 H :    0.046645
  31 H :    0.031182
  32 H :    0.058877
  33 H :    0.070589
Sum of atomic charges:    0.0000000

LOEWDIN ATOMIC CHARGES
----------------------
   0 S :    0.404129
   1 C :   -0.202861
   2 C :   -0.065893
   3 C :   -0.069961
   4 C :   -0.204571
   5 H :    0.039684
   6 C :   -0.018719
   7 H :    0.018919
   8 H :    0.028068
   9 C :   -0.023663
  10 H :    0.022224
  11 H :    0.008285
  12 C :   -0.077310
  13 H :    0.025609
  14 H :    0.034706
  15 H :    0.024529
  16 S :    0.409000
  17 C :   -0.183665
  18 C :   -0.076036
  19 C :   -0.050865
  20 C :   -0.203450
  21 H :    0.038423
  22 C :   -0.032113
  23 H :    0.041483
  24 H :    0.025418
  25 C :   -0.030374
  26 H :    0.029359
  27 H :    0.016413
  28 C :   -0.062936
  29 H :    0.015508
  30 H :    0.031662
  31 H :    0.019485
  32 H :    0.033884
  33 H :    0.035629

  Mayer bond orders larger than 0.100000
B(  0-S ,  1-C ) :   1.1461 B(  0-S ,  4-C ) :   1.1439 B(  1-C ,  2-C ) :   1.5944
B(  1-C , 32-H ) :   0.9658 B(  2-C ,  3-C ) :   1.2667 B(  2-C ,  6-C ) :   1.0189
B(  3-C ,  4-C ) :   1.5803 B(  3-C ,  5-H ) :   0.9784 B(  4-C , 20-C ) :   1.0125
B(  6-C ,  7-H ) :   0.9387 B(  6-C ,  8-H ) :   0.9476 B(  6-C ,  9-C ) :   1.0689
B(  9-C , 10-H ) :   0.9575 B(  9-C , 11-H ) :   0.9548 B(  9-C , 12-C ) :   1.0702
B( 12-C , 13-H ) :   0.9748 B( 12-C , 14-H ) :   0.9725 B( 12-C , 15-H ) :   0.9724
B( 16-S , 17-C ) :   1.1523 B( 16-S , 20-C ) :   1.1594 B( 17-C , 18-C ) :   1.6061
B( 17-C , 20-C ) :   0.1022 B( 17-C , 33-H ) :   0.9653 B( 18-C , 19-C ) :   1.2413
B( 18-C , 21-H ) :   0.9795 B( 19-C , 20-C ) :   1.5815 B( 19-C , 22-C ) :   1.0362
B( 22-C , 23-H ) :   0.9314 B( 22-C , 24-H ) :   0.9326 B( 22-C , 25-C ) :   1.0680
B( 25-C , 26-H ) :   0.9604 B( 25-C , 27-H ) :   0.9544 B( 25-C , 28-C ) :   1.0743
B( 28-C , 29-H ) :   0.9722 B( 28-C , 30-H ) :   0.9759 B( 28-C , 31-H ) :   0.9743

Dispersion correction           -0.015642409
FINAL SINGLE POINT ENERGY     -1339.871448713049

DIPOLE MOMENT
-------------
                                X             Y             Z
Electronic contribution:     13.45084      18.97847      17.73519
Nuclear contribution   :    -13.66022     -19.49335     -18.09328
                        -----------------------------------------
Total Dipole Moment    :     -0.20938      -0.51488      -0.35809
                        -----------------------------------------
Magnitude (a.u.)       :      0.66119
Magnitude (Debye)      :      1.68061

Rotational constants in cm-1:     0.018464     0.010150     0.007261
Rotational constants in MHz :   553.537745   304.280415   217.687018

                             ****ORCA TERMINATED NORMALLY****
TOTAL RUN TIME: 0 days 0 hours 0 minutes 32 seconds 583 msec
