                         Program Version 4.2.1 -  RELEASE  -
|  1> ! wB97X-D3 SP def2-SVP
|  2> %pal
|  3> nprocs 16
|  4> end
|  5>
|  6> * xyz 0 1
|  7> S 	 4.91074 	 -27.5259 	 79.0441
|  8> C 	 4.77828 	 -28.6997 	 80.419
|  9> C 	 5.80222 	 -28.5169 	 81.3053
| 10> C 	 6.48074 	 -27.3232 	 81.021
| 11> C 	 6.27258 	 -26.7112 	 79.7911
| 12> H 	 7.25427 	 -26.9521 	 81.6159
| 13> C 	 6.07439 	 -29.1796 	 82.6348
| 14> H 	 7.1877 	 -29.1722 	 82.7048
| 15> H 	 5.72743 	 -30.2849 	 82.5708
| 16> C 	 5.49192 	 -28.5052 	 83.8757
| 17> H 	 5.99659 	 -28.8902 	 84.7817
| 18> H 	 5.73955 	 -27.4249 	 83.8111
| 19> C 	 3.98746 	 -28.8229 	 84.0439
| 20> H 	 3.33166 	 -28.2735 	 83.373
| 21> H 	 3.7864 	 -29.8702 	 83.9239
| 22> H 	 3.72677 	 -28.5383 	 85.0962
| 23> S 	 5.59643 	 -24.1612 	 79.2153
| 24> C 	 6.79137 	 -23.1079 	 78.4142
| 25> C 	 8.03404 	 -23.6863 	 78.5707
| 26> C 	 8.0782 	 -25.0018 	 79.1538
| 27> C 	 6.8159 	 -25.4053 	 79.3507
| 28> H 	 8.87013 	 -23.2327 	 78.1583
| 29> C 	 9.25911 	 -25.9391 	 79.5015
| 30> H 	 9.26106 	 -26.6903 	 78.7947
| 31> H 	 9.16421 	 -26.4345 	 80.4619
| 32> C 	 10.7154 	 -25.2889 	 79.4687
| 33> H 	 10.6114 	 -24.4663 	 80.2119
| 34> H 	 11.0072 	 -24.9566 	 78.4775
| 35> C 	 11.8623 	 -26.1756 	 79.9908
| 36> H 	 11.4564 	 -26.8621 	 80.7417
| 37> H 	 12.7972 	 -25.6217 	 80.4214
| 38> H 	 12.1402 	 -26.8255 	 79.1722
| 39> H 	 4.08614 	 -29.556 	 80.3734
| 40> H 	 6.64843 	 -22.2526 	 77.8578
| 41> *
| 42>
| 43>                          ****END OF INPUT****

CARTESIAN COORDINATES (ANGSTROEM)
---------------------------------
  S      4.910740  -27.525900   79.044100
  C      4.778280  -28.699700   80.419000
  C      5.802220  -28.516900   81.305300
  C      6.480740  -27.323200   81.021000
  C      6.272580  -26.711200   79.791100
  H      7.254270  -26.952100   81.615900
  C      6.074390  -29.179600   82.634800
  H      7.187700  -29.172200   82.704800
  H      5.727430  -30.284900   82.570800
  C      5.491920  -28.505200   83.875700
  H      5.996590  -28.890200   84.781700
  H      5.739550  -27.424900   83.811100
  C      3.987460  -28.822900   84.043900
  H      3.331660  -28.273500   83.373000
  H      3.786400  -29.870200   83.923900
  H      3.726770  -28.538300   85.096200
  S      5.596430  -24.161200   79.215300
  C      6.791370  -23.107900   78.414200
  C      8.034040  -23.686300   78.570700
  C      8.078200  -25.001800   79.153800
  C      6.815900  -25.405300   79.350700
  H      8.870130  -23.232700   78.158300
  C      9.259110  -25.939100   79.501500
  H      9.261060  -26.690300   78.794700
  H      9.164210  -26.434500   80.461900
  C     10.715400  -25.288900   79.468700
  H     10.611400  -24.466300   80.211900
  H     11.007200  -24.956600   78.477500
  C     11.862300  -26.175600   79.990800
  H     11.456400  -26.862100   80.741700
  H     12.797200  -25.621700   80.421400
  H     12.140200  -26.825500   79.172200
  H      4.086140  -29.556000   80.373400
  H      6.648430  -22.252600   77.857800

 Total Charge           Charge          ....    0
 Multiplicity           Mult            ....    1
 Number of Electrons    NEL             ....  134
 Basis Dimension        Dim             ....  322

ORBITAL ENERGIES
----------------

  NO   OCC          E(Eh)            E(eV)
   0   2.0000     -88.965235     -2420.8671
   1   2.0000     -88.962315     -2420.7877
   2   2.0000     -10.329267      -281.0736
   3   2.0000     -10.322409      -280.8870
   4   2.0000     -10.321908      -280.8734
   5   2.0000     -10.312569      -280.6193
   6   2.0000     -10.303247      -280.3656
   7   2.0000     -10.302357      -280.3414
   8   2.0000     -10.298857      -280.2461
   9   2.0000     -10.295887      -280.1653
  10   2.0000     -10.294015      -280.1144
  11   2.0000     -10.293567      -280.1022
  12   2.0000     -10.291288      -280.0402
  13   2.0000     -10.287729      -279.9434
  14   2.0000     -10.286407      -279.9074
  15   2.0000     -10.279640      -279.7232
  16   2.0000      -8.079003      -219.8408
  17   2.0000      -8.076801      -219.7809
  18   2.0000      -6.037605      -164.2916
  19   2.0000      -6.035474      -164.2336
  20   2.0000      -6.033543      -164.1811
  21   2.0000      -6.031463      -164.1245
  22   2.0000      -6.029791      -164.0790
  23   2.0000      -6.027269      -164.0103
  24   2.0000      -1.007079       -27.4040
  25   2.0000      -0.984121       -26.7793
  26   2.0000      -0.911714       -24.8090
  27   2.0000      -0.902957       -24.5707
  28   2.0000      -0.868045       -23.6207
  29   2.0000      -0.852038       -23.1851
  30   2.0000      -0.842556       -22.9271
  31   2.0000      -0.812671       -22.1139
  32   2.0000      -0.782543       -21.2941
  33   2.0000      -0.777134       -21.1469
  34   2.0000      -0.704661       -19.1748
  35   2.0000      -0.701561       -19.0904
  36   2.0000      -0.695838       -18.9347
  37   2.0000      -0.659408       -17.9434
  38   2.0000      -0.641513       -17.4565
  39   2.0000      -0.621057       -16.8998
  40   2.0000      -0.598361       -16.2822
  41   2.0000      -0.575510       -15.6604
  42   2.0000      -0.565652       -15.3922
  43   2.0000      -0.548532       -14.9263
  44   2.0000      -0.539333       -14.6760
  45   2.0000      -0.526085       -14.3155
  46   2.0000      -0.518454       -14.1078
  47   2.0000      -0.511759       -13.9257
  48   2.0000      -0.503602       -13.7037
  49   2.0000      -0.495758       -13.4903
  50   2.0000      -0.490041       -13.3347
  51   2.0000      -0.480703       -13.0806
  52   2.0000      -0.471367       -12.8265
  53   2.0000      -0.466682       -12.6991
  54   2.0000      -0.458609       -12.4794
  55   2.0000      -0.448929       -12.2160
  56   2.0000      -0.441285       -12.0080
  57   2.0000      -0.434397       -11.8205
  58   2.0000      -0.432266       -11.7626
  59   2.0000      -0.427401       -11.6302
  60   2.0000      -0.424603       -11.5540
  61   2.0000      -0.413334       -11.2474
  62   2.0000      -0.411125       -11.1873
  63   2.0000      -0.338217        -9.2034
  64   2.0000      -0.334876        -9.1124
  65   2.0000      -0.326796        -8.8926
  66   2.0000      -0.299952        -8.1621
  67   0.0000       0.027761         0.7554
  68   0.0000       0.068841         1.8733
  69   0.0000       0.109440         2.9780
  70   0.0000       0.111778         3.0416
  71   0.0000       0.133289         3.6270

MULLIKEN ATOMIC CHARGES
-----------------------
   0 S :    0.097565
   1 C :   -0.149152
   2 C :   -0.033666
   3 C :    0.022420
   4 C :   -0.149137
   5 H :   -0.008594
   6 C :    0.006066
   7 H :    0.034351
   8 H :    0.036796
   9 C :   -0.060676
  10 H :    0.035726
  11 H :    0.038064
  12 C :   -0.050432
  13 H :    0.043499
  14 H :    0.022976
  15 H :    0.036452
  16 S :    0.107570
  17 C :   -0.048808
  18 C :   -0.031644
  19 C :   -0.013923
  20 C :   -0.176429
  21 H :   -0.008583
  22 C :    0.106144
  23 H :    0.019592
  24 H :    0.022860
  25 C :   -0.114294
  26 H :    0.038975
  27 H :    0.039595
  28 C :   -0.066847
  29 H :    0.023481
  30 H :    0.063602
  31 H :    0.029793
  32 H :    0.061048
  33 H :    0.025610
Sum of atomic charges:   -0.0000000

LOEWDIN ATOMIC CHARGES
----------------------
   0 S :    0.381280
   1 C :   -0.173860
   2 C :   -0.072729
   3 C :   -0.056329
   4 C :   -0.197147
   5 H :    0.015347
   6 C :   -0.039046
   7 H :    0.034155
   8 H :    0.035514
   9 C :   -0.041569
  10 H :    0.028571
  11 H :    0.029234
  12 C :   -0.064392
  13 H :    0.026021
  14 H :    0.020269
  15 H :    0.031871
  16 S :    0.389411
  17 C :   -0.165704
  18 C :   -0.054904
  19 C :   -0.057147
  20 C :   -0.186453
  21 H :    0.017241
  22 C :   -0.017481
  23 H :    0.023372
  24 H :    0.029261
  25 C :   -0.043240
  26 H :    0.026876
  27 H :    0.021186
  28 C :   -0.075758
  29 H :    0.022277
  30 H :    0.042726
  31 H :    0.022677
  32 H :    0.032025
  33 H :    0.016445

  Mayer bond orders larger than 0.100000
B(  0-S ,  1-C ) :   1.1385 B(  0-S ,  4-C ) :   1.1446 B(  1-C ,  2-C ) :   1.5964
B(  1-C , 32-H ) :   0.9639 B(  2-C ,  3-C ) :   1.2455 B(  2-C ,  6-C ) :   1.0292
B(  3-C ,  4-C ) :   1.5771 B(  3-C ,  5-H ) :   0.9879 B(  4-C , 20-C ) :   1.0118
B(  6-C ,  7-H ) :   0.9345 B(  6-C ,  8-H ) :   0.9431 B(  6-C ,  9-C ) :   1.0749
B(  9-C , 10-H ) :   0.9544 B(  9-C , 11-H ) :   0.9522 B(  9-C , 12-C ) :   1.0700
B( 12-C , 13-H ) :   0.9776 B( 12-C , 14-H ) :   0.9756 B( 12-C , 15-H ) :   0.9752
B( 16-S , 17-C ) :   1.1137 B( 16-S , 20-C ) :   1.1508 B( 17-C , 18-C ) :   1.6466
B( 17-C , 33-H ) :   0.9781 B( 18-C , 19-C ) :   1.2041 B( 18-C , 21-H ) :   0.9936
B( 19-C , 20-C ) :   1.6587 B( 19-C , 22-C ) :   1.0271 B( 22-C , 23-H ) :   0.9227
B( 22-C , 24-H ) :   0.9357 B( 22-C , 25-C ) :   1.0640 B( 25-C , 26-H ) :   0.9630
B( 25-C , 27-H ) :   0.9582 B( 25-C , 28-C ) :   1.0757 B( 28-C , 29-H ) :   0.9731
B( 28-C , 30-H ) :   0.9741 B( 28-C , 31-H ) :   0.9756

Dispersion correction           -0.013826802
FINAL SINGLE POINT ENERGY     -1339.855826944326

DIPOLE MOMENT
-------------
                                X             Y             Z
Electronic contribution:    -16.26854       9.62257     -16.96263
Nuclear contribution   :     16.78923      -9.86511      17.34015
                        -----------------------------------------
Total Dipole Moment    :      0.52070      -0.24254       0.37752
                        -----------------------------------------
Magnitude (a.u.)       :      0.68737
Magnitude (Debye)      :      1.74714

Rotational constants in cm-1:     0.017382     0.008404     0.006587
Rotational constants in MHz :   521.092448   251.950652   197.464636

                             ****ORCA TERMINATED NORMALLY****
TOTAL RUN TIME: 0 days 0 hours 0 minutes 33 seconds 30 msec
