                         Program Version 4.2.1 -  RELEASE  -
|  1> ! wB97X-D3 SP def2-SVP
|  2> %pal
|  3> nprocs 16
|  4> end
|  5>
|  6> * xyz 0 1
|  7> S 	 41.3531 	 14.9401 	 85.046
|  8> C 	 42.4858 	 15.9646 	 85.8798
|  9> C 	 43.6676 	 15.246 	 86.133
| 10> C 	 43.5634 	 13.8568 	 85.8131
| 11> C 	 42.3104 	 13.4727 	 85.2875
| 12> H 	 44.3372 	 13.1103 	 86.0104
| 13> C 	 44.9357 	 15.9008 	 86.7898
| 14> H 	 45.3504 	 15.1706 	 87.4896
| 15> H 	 44.6085 	 16.7958 	 87.3176
| 16> C 	 45.9706 	 16.3156 	 85.738
| 17> H 	 46.8551 	 16.7285 	 86.208
| 18> H 	 46.3587 	 15.3607 	 85.2628
| 19> C 	 45.4399 	 17.2839 	 84.5992
| 20> H 	 44.8133 	 18.0914 	 85.0105
| 21> H 	 46.1638 	 17.6534 	 83.8949
| 22> H 	 44.5961 	 16.7955 	 84.0293
| 23> S 	 41.3045 	 12.11 	 83.1828
| 24> C 	 40.9413 	 10.3316 	 83.3439
| 25> C 	 41.3117 	 9.91775 	 84.602
| 26> C 	 41.916 	 10.9178 	 85.4434
| 27> C 	 41.8775 	 12.1511 	 84.8528
| 28> H 	 41.3106 	 8.92108 	 84.8274
| 29> C 	 42.2904 	 10.6262 	 86.8546
| 30> H 	 41.4544 	 10.0382 	 87.2278
| 31> H 	 42.1096 	 11.6714 	 87.2078
| 32> C 	 43.6719 	 9.98147 	 87.0825
| 33> H 	 44.3932 	 10.7604 	 86.9081
| 34> H 	 43.8319 	 9.19844 	 86.4126
| 35> C 	 43.8692 	 9.47693 	 88.5558
| 36> H 	 44.8702 	 9.20833 	 88.8068
| 37> H 	 43.1689 	 8.66114 	 88.837
| 38> H 	 43.5363 	 10.27 	 89.1825
| 39> H 	 42.3874 	 17.0623 	 86.0162
| 40> H 	 40.3558 	 9.73738 	 82.582
| 41> *
| 42>
| 43>                          ****END OF INPUT****

CARTESIAN COORDINATES (ANGSTROEM)
---------------------------------
  S     41.353100   14.940100   85.046000
  C     42.485800   15.964600   85.879800
  C     43.667600   15.246000   86.133000
  C     43.563400   13.856800   85.813100
  C     42.310400   13.472700   85.287500
  H     44.337200   13.110300   86.010400
  C     44.935700   15.900800   86.789800
  H     45.350400   15.170600   87.489600
  H     44.608500   16.795800   87.317600
  C     45.970600   16.315600   85.738000
  H     46.855100   16.728500   86.208000
  H     46.358700   15.360700   85.262800
  C     45.439900   17.283900   84.599200
  H     44.813300   18.091400   85.010500
  H     46.163800   17.653400   83.894900
  H     44.596100   16.795500   84.029300
  S     41.304500   12.110000   83.182800
  C     40.941300   10.331600   83.343900
  C     41.311700    9.917750   84.602000
  C     41.916000   10.917800   85.443400
  C     41.877500   12.151100   84.852800
  H     41.310600    8.921080   84.827400
  C     42.290400   10.626200   86.854600
  H     41.454400   10.038200   87.227800
  H     42.109600   11.671400   87.207800
  C     43.671900    9.981470   87.082500
  H     44.393200   10.760400   86.908100
  H     43.831900    9.198440   86.412600
  C     43.869200    9.476930   88.555800
  H     44.870200    9.208330   88.806800
  H     43.168900    8.661140   88.837000
  H     43.536300   10.270000   89.182500
  H     42.387400   17.062300   86.016200
  H     40.355800    9.737380   82.582000

 Total Charge           Charge          ....    0
 Multiplicity           Mult            ....    1
 Number of Electrons    NEL             ....  134
 Basis Dimension        Dim             ....  322

ORBITAL ENERGIES
----------------

  NO   OCC          E(Eh)            E(eV)
   0   2.0000     -88.969681     -2420.9881
   1   2.0000     -88.962358     -2420.7888
   2   2.0000     -10.335998      -281.2568
   3   2.0000     -10.327821      -281.0343
   4   2.0000     -10.327009      -281.0122
   5   2.0000     -10.321948      -280.8745
   6   2.0000     -10.308101      -280.4977
   7   2.0000     -10.302215      -280.3375
   8   2.0000     -10.300274      -280.2847
   9   2.0000     -10.299614      -280.2667
  10   2.0000     -10.294858      -280.1373
  11   2.0000     -10.291359      -280.0421
  12   2.0000     -10.289031      -279.9788
  13   2.0000     -10.288539      -279.9654
  14   2.0000     -10.282298      -279.7956
  15   2.0000     -10.278045      -279.6798
  16   2.0000      -8.083903      -219.9742
  17   2.0000      -8.076182      -219.7641
  18   2.0000      -6.042446      -164.4233
  19   2.0000      -6.038302      -164.3105
  20   2.0000      -6.034938      -164.2190
  21   2.0000      -6.034816      -164.2157
  22   2.0000      -6.030908      -164.1093
  23   2.0000      -6.026630      -163.9929
  24   2.0000      -1.003565       -27.3084
  25   2.0000      -0.979706       -26.6592
  26   2.0000      -0.909050       -24.7365
  27   2.0000      -0.903847       -24.5949
  28   2.0000      -0.867657       -23.6101
  29   2.0000      -0.851342       -23.1662
  30   2.0000      -0.839789       -22.8518
  31   2.0000      -0.812041       -22.0968
  32   2.0000      -0.781432       -21.2638
  33   2.0000      -0.771770       -21.0009
  34   2.0000      -0.714346       -19.4383
  35   2.0000      -0.701834       -19.0979
  36   2.0000      -0.692373       -18.8404
  37   2.0000      -0.668758       -18.1978
  38   2.0000      -0.639122       -17.3914
  39   2.0000      -0.617011       -16.7897
  40   2.0000      -0.586824       -15.9683
  41   2.0000      -0.569784       -15.5046
  42   2.0000      -0.560824       -15.2608
  43   2.0000      -0.548068       -14.9137
  44   2.0000      -0.540111       -14.6972
  45   2.0000      -0.532480       -14.4895
  46   2.0000      -0.519557       -14.1379
  47   2.0000      -0.513858       -13.9828
  48   2.0000      -0.506241       -13.7755
  49   2.0000      -0.499504       -13.5922
  50   2.0000      -0.483540       -13.1578
  51   2.0000      -0.476457       -12.9650
  52   2.0000      -0.472568       -12.8592
  53   2.0000      -0.455052       -12.3826
  54   2.0000      -0.454669       -12.3722
  55   2.0000      -0.452907       -12.3242
  56   2.0000      -0.444265       -12.0891
  57   2.0000      -0.441292       -12.0082
  58   2.0000      -0.438874       -11.9424
  59   2.0000      -0.425259       -11.5719
  60   2.0000      -0.419457       -11.4140
  61   2.0000      -0.414904       -11.2901
  62   2.0000      -0.408742       -11.1224
  63   2.0000      -0.347807        -9.4643
  64   2.0000      -0.331801        -9.0288
  65   2.0000      -0.328769        -8.9463
  66   2.0000      -0.294404        -8.0111
  67   0.0000       0.024554         0.6682
  68   0.0000       0.065654         1.7865
  69   0.0000       0.105257         2.8642
  70   0.0000       0.122406         3.3308
  71   0.0000       0.125551         3.4164

MULLIKEN ATOMIC CHARGES
-----------------------
   0 S :    0.117540
   1 C :   -0.134142
   2 C :   -0.117766
   3 C :    0.042925
   4 C :   -0.172621
   5 H :    0.015626
   6 C :    0.071051
   7 H :    0.036068
   8 H :    0.025430
   9 C :   -0.075565
  10 H :    0.033116
  11 H :    0.032687
  12 C :   -0.073991
  13 H :    0.016864
  14 H :    0.047754
  15 H :    0.045003
  16 S :    0.080279
  17 C :   -0.113091
  18 C :    0.012614
  19 C :   -0.047256
  20 C :   -0.151001
  21 H :   -0.012444
  22 C :    0.019184
  23 H :    0.025811
  24 H :    0.042117
  25 C :   -0.014658
  26 H :    0.022451
  27 H :    0.021264
  28 C :   -0.035308
  29 H :    0.035716
  30 H :    0.030736
  31 H :    0.020269
  32 H :    0.069059
  33 H :    0.084279
Sum of atomic charges:   -0.0000000

LOEWDIN ATOMIC CHARGES
----------------------
   0 S :    0.411839
   1 C :   -0.209723
   2 C :   -0.063590
   3 C :   -0.062878
   4 C :   -0.197757
   5 H :    0.031737
   6 C :   -0.025397
   7 H :    0.032698
   8 H :    0.027814
   9 C :   -0.043202
  10 H :    0.020889
  11 H :    0.028053
  12 C :   -0.077375
  13 H :    0.021868
  14 H :    0.025480
  15 H :    0.034533
  16 S :    0.362375
  17 C :   -0.168084
  18 C :   -0.059640
  19 C :   -0.059812
  20 C :   -0.189487
  21 H :    0.015879
  22 C :   -0.038296
  23 H :    0.031540
  24 H :    0.042723
  25 C :   -0.024786
  26 H :    0.023397
  27 H :    0.015852
  28 C :   -0.061882
  29 H :    0.021859
  30 H :    0.028190
  31 H :    0.022509
  32 H :    0.038263
  33 H :    0.044414

  Mayer bond orders larger than 0.100000
B(  0-S ,  1-C ) :   1.1531 B(  0-S ,  4-C ) :   1.1586 B(  1-C ,  2-C ) :   1.5749
B(  1-C ,  4-C ) :   0.1081 B(  1-C , 32-H ) :   0.9639 B(  2-C ,  3-C ) :   1.2758
B(  2-C ,  6-C ) :   1.0119 B(  3-C ,  4-C ) :   1.5304 B(  3-C ,  5-H ) :   0.9909
B(  4-C , 20-C ) :   1.0396 B(  6-C ,  7-H ) :   0.9468 B(  6-C ,  8-H ) :   0.9455
B(  6-C ,  9-C ) :   1.0717 B(  9-C , 10-H ) :   0.9606 B(  9-C , 11-H ) :   0.9563
B(  9-C , 12-C ) :   1.0594 B( 12-C , 13-H ) :   0.9749 B( 12-C , 14-H ) :   0.9777
B( 12-C , 15-H ) :   0.9696 B( 16-S , 17-C ) :   1.1150 B( 16-S , 20-C ) :   1.1304
B( 17-C , 18-C ) :   1.6452 B( 17-C , 33-H ) :   0.9601 B( 18-C , 19-C ) :   1.2039
B( 18-C , 21-H ) :   0.9949 B( 19-C , 20-C ) :   1.6344 B( 19-C , 22-C ) :   1.0260
B( 22-C , 23-H ) :   0.9423 B( 22-C , 24-H ) :   0.9346 B( 22-C , 25-C ) :   1.0463
B( 25-C , 26-H ) :   0.9497 B( 25-C , 27-H ) :   0.9617 B( 25-C , 28-C ) :   1.0811
B( 28-C , 29-H ) :   0.9772 B( 28-C , 30-H ) :   0.9766 B( 28-C , 31-H ) :   0.9728

Dispersion correction           -0.014531562
FINAL SINGLE POINT ENERGY     -1339.872505783581

DIPOLE MOMENT
-------------
                                X             Y             Z
Electronic contribution:    -19.42106       0.56140     -14.82321
Nuclear contribution   :     19.84430      -0.76865      15.22949
                        -----------------------------------------
Total Dipole Moment    :      0.42324      -0.20725       0.40628
                        -----------------------------------------
Magnitude (a.u.)       :      0.62221
Magnitude (Debye)      :      1.58154

Rotational constants in cm-1:     0.017889     0.008731     0.006646
Rotational constants in MHz :   536.284377   261.740260   199.249136

                             ****ORCA TERMINATED NORMALLY****
TOTAL RUN TIME: 0 days 0 hours 0 minutes 29 seconds 868 msec
