                         Program Version 4.2.1 -  RELEASE  -
|  1> ! wB97X-D3 SP def2-SVP
|  2> %pal
|  3> nprocs 16
|  4> end
|  5>
|  6> * xyz 0 1
|  7> S 	 -24.4707 	 51.3327 	 67.2632
|  8> C 	 -23.5214 	 51.887 	 65.926
|  9> C 	 -22.2096 	 51.8445 	 66.2369
| 10> C 	 -21.9024 	 51.5615 	 67.5882
| 11> C 	 -23.0836 	 51.3773 	 68.3424
| 12> H 	 -20.9187 	 51.5067 	 68.0494
| 13> C 	 -21.1307 	 52.1723 	 65.3231
| 14> H 	 -20.6 	 52.9999 	 65.8923
| 15> H 	 -21.4977 	 52.586 	 64.3498
| 16> C 	 -20.0499 	 51.1597 	 65.0018
| 17> H 	 -19.2806 	 51.6426 	 64.3543
| 18> H 	 -19.6333 	 50.7098 	 66.029
| 19> C 	 -20.5731 	 50.0173 	 64.2622
| 20> H 	 -20.9222 	 50.2265 	 63.2685
| 21> H 	 -19.8684 	 49.2204 	 64.1819
| 22> H 	 -21.4616 	 49.6166 	 64.7783
| 23> S 	 -22.5207 	 52.3768 	 70.8716
| 24> C 	 -23.3151 	 51.577 	 72.2241
| 25> C 	 -23.6638 	 50.2591 	 71.9126
| 26> C 	 -23.671 	 50.0321 	 70.5369
| 27> C 	 -23.0962 	 51.072 	 69.7688
| 28> H 	 -24.1618 	 49.7358 	 72.7742
| 29> C 	 -24.3968 	 48.8456 	 69.8838
| 30> H 	 -23.5989 	 48.2245 	 69.5275
| 31> H 	 -24.9141 	 49.2446 	 68.9999
| 32> C 	 -25.4249 	 48.1135 	 70.7854
| 33> H 	 -26.1019 	 48.8274 	 71.1544
| 34> H 	 -24.874 	 47.6274 	 71.6416
| 35> C 	 -26.2491 	 46.9846 	 70.1492
| 36> H 	 -25.6977 	 46.1468 	 69.6028
| 37> H 	 -26.7925 	 47.4792 	 69.3126
| 38> H 	 -26.998 	 46.6459 	 70.9044
| 39> H 	 -23.8004 	 51.902 	 64.9171
| 40> H 	 -23.4101 	 51.966 	 73.1733
| 41> *
| 42>
| 43>                          ****END OF INPUT****

CARTESIAN COORDINATES (ANGSTROEM)
---------------------------------
  S    -24.470700   51.332700   67.263200
  C    -23.521400   51.887000   65.926000
  C    -22.209600   51.844500   66.236900
  C    -21.902400   51.561500   67.588200
  C    -23.083600   51.377300   68.342400
  H    -20.918700   51.506700   68.049400
  C    -21.130700   52.172300   65.323100
  H    -20.600000   52.999900   65.892300
  H    -21.497700   52.586000   64.349800
  C    -20.049900   51.159700   65.001800
  H    -19.280600   51.642600   64.354300
  H    -19.633300   50.709800   66.029000
  C    -20.573100   50.017300   64.262200
  H    -20.922200   50.226500   63.268500
  H    -19.868400   49.220400   64.181900
  H    -21.461600   49.616600   64.778300
  S    -22.520700   52.376800   70.871600
  C    -23.315100   51.577000   72.224100
  C    -23.663800   50.259100   71.912600
  C    -23.671000   50.032100   70.536900
  C    -23.096200   51.072000   69.768800
  H    -24.161800   49.735800   72.774200
  C    -24.396800   48.845600   69.883800
  H    -23.598900   48.224500   69.527500
  H    -24.914100   49.244600   68.999900
  C    -25.424900   48.113500   70.785400
  H    -26.101900   48.827400   71.154400
  H    -24.874000   47.627400   71.641600
  C    -26.249100   46.984600   70.149200
  H    -25.697700   46.146800   69.602800
  H    -26.792500   47.479200   69.312600
  H    -26.998000   46.645900   70.904400
  H    -23.800400   51.902000   64.917100
  H    -23.410100   51.966000   73.173300

 Total Charge           Charge          ....    0
 Multiplicity           Mult            ....    1
 Number of Electrons    NEL             ....  134
 Basis Dimension        Dim             ....  322

ORBITAL ENERGIES
----------------

  NO   OCC          E(Eh)            E(eV)
   0   2.0000     -88.967934     -2420.9406
   1   2.0000     -88.966915     -2420.9128
   2   2.0000     -10.334624      -281.2194
   3   2.0000     -10.329053      -281.0678
   4   2.0000     -10.316968      -280.7390
   5   2.0000     -10.309412      -280.5334
   6   2.0000     -10.303281      -280.3665
   7   2.0000     -10.297755      -280.2162
   8   2.0000     -10.293978      -280.1134
   9   2.0000     -10.293803      -280.1086
  10   2.0000     -10.291845      -280.0553
  11   2.0000     -10.291320      -280.0410
  12   2.0000     -10.289644      -279.9954
  13   2.0000     -10.289331      -279.9869
  14   2.0000     -10.288624      -279.9677
  15   2.0000     -10.265589      -279.3409
  16   2.0000      -8.082279      -219.9300
  17   2.0000      -8.080666      -219.8861
  18   2.0000      -6.040884      -164.3808
  19   2.0000      -6.039108      -164.3325
  20   2.0000      -6.036885      -164.2720
  21   2.0000      -6.035378      -164.2310
  22   2.0000      -6.032921      -164.1641
  23   2.0000      -6.031488      -164.1251
  24   2.0000      -1.006304       -27.3829
  25   2.0000      -0.984994       -26.8030
  26   2.0000      -0.922399       -25.0997
  27   2.0000      -0.905121       -24.6296
  28   2.0000      -0.872925       -23.7535
  29   2.0000      -0.854762       -23.2593
  30   2.0000      -0.848669       -23.0934
  31   2.0000      -0.814554       -22.1651
  32   2.0000      -0.781587       -21.2681
  33   2.0000      -0.771951       -21.0059
  34   2.0000      -0.711138       -19.3510
  35   2.0000      -0.701099       -19.0779
  36   2.0000      -0.688795       -18.7431
  37   2.0000      -0.652277       -17.7494
  38   2.0000      -0.637186       -17.3387
  39   2.0000      -0.616096       -16.7648
  40   2.0000      -0.593422       -16.1478
  41   2.0000      -0.574664       -15.6374
  42   2.0000      -0.569482       -15.4964
  43   2.0000      -0.556813       -15.1517
  44   2.0000      -0.544119       -14.8062
  45   2.0000      -0.533739       -14.5238
  46   2.0000      -0.520499       -14.1635
  47   2.0000      -0.511515       -13.9190
  48   2.0000      -0.502165       -13.6646
  49   2.0000      -0.499330       -13.5875
  50   2.0000      -0.487949       -13.2778
  51   2.0000      -0.480321       -13.0702
  52   2.0000      -0.474028       -12.8990
  53   2.0000      -0.469614       -12.7788
  54   2.0000      -0.454075       -12.3560
  55   2.0000      -0.447034       -12.1644
  56   2.0000      -0.442656       -12.0453
  57   2.0000      -0.434662       -11.8278
  58   2.0000      -0.433749       -11.8029
  59   2.0000      -0.419715       -11.4210
  60   2.0000      -0.416385       -11.3304
  61   2.0000      -0.414008       -11.2657
  62   2.0000      -0.410421       -11.1681
  63   2.0000      -0.343805        -9.3554
  64   2.0000      -0.332537        -9.0488
  65   2.0000      -0.325238        -8.8502
  66   2.0000      -0.289179        -7.8689
  67   0.0000       0.026784         0.7288
  68   0.0000       0.054069         1.4713
  69   0.0000       0.105319         2.8659
  70   0.0000       0.119044         3.2394
  71   0.0000       0.131156         3.5689

MULLIKEN ATOMIC CHARGES
-----------------------
   0 S :    0.106272
   1 C :   -0.079095
   2 C :   -0.066794
   3 C :    0.000012
   4 C :   -0.128843
   5 H :    0.023535
   6 C :    0.022772
   7 H :    0.046327
   8 H :    0.016876
   9 C :   -0.092518
  10 H :    0.041165
  11 H :    0.040763
  12 C :   -0.024437
  13 H :    0.011018
  14 H :    0.026356
  15 H :    0.027896
  16 S :    0.105033
  17 C :   -0.077443
  18 C :   -0.065427
  19 C :   -0.048852
  20 C :   -0.171808
  21 H :    0.047782
  22 C :    0.100289
  23 H :    0.037436
  24 H :    0.019654
  25 C :   -0.103284
  26 H :    0.030093
  27 H :    0.040057
  28 C :   -0.068976
  29 H :    0.048560
  30 H :    0.027155
  31 H :    0.050302
  32 H :    0.027131
  33 H :    0.030993
Sum of atomic charges:    0.0000000

LOEWDIN ATOMIC CHARGES
----------------------
   0 S :    0.414849
   1 C :   -0.201885
   2 C :   -0.072261
   3 C :   -0.062176
   4 C :   -0.186233
   5 H :    0.033694
   6 C :   -0.042533
   7 H :    0.044113
   8 H :    0.029768
   9 C :   -0.049656
  10 H :    0.031510
  11 H :    0.035466
  12 C :   -0.069905
  13 H :    0.018310
  14 H :    0.022200
  15 H :    0.027929
  16 S :    0.387898
  17 C :   -0.158048
  18 C :   -0.084152
  19 C :   -0.048033
  20 C :   -0.195212
  21 H :    0.045697
  22 C :   -0.030552
  23 H :    0.034187
  24 H :    0.022277
  25 C :   -0.044662
  26 H :    0.020523
  27 H :    0.026892
  28 C :   -0.075804
  29 H :    0.033495
  30 H :    0.025240
  31 H :    0.034140
  32 H :    0.021369
  33 H :    0.011554

  Mayer bond orders larger than 0.100000
B(  0-S ,  1-C ) :   1.1187 B(  0-S ,  4-C ) :   1.1554 B(  1-C ,  2-C ) :   1.6167
B(  1-C , 32-H ) :   0.9660 B(  2-C ,  3-C ) :   1.2264 B(  2-C ,  6-C ) :   1.0376
B(  3-C ,  4-C ) :   1.5413 B(  3-C ,  5-H ) :   0.9971 B(  4-C , 20-C ) :   1.0593
B(  6-C ,  7-H ) :   0.9344 B(  6-C ,  8-H ) :   0.9393 B(  6-C ,  9-C ) :   1.0800
B(  9-C , 10-H ) :   0.9501 B(  9-C , 11-H ) :   0.9469 B(  9-C , 12-C ) :   1.0877
B( 12-C , 13-H ) :   0.9669 B( 12-C , 14-H ) :   0.9698 B( 12-C , 15-H ) :   0.9707
B( 16-S , 17-C ) :   1.1758 B( 16-S , 20-C ) :   1.1261 B( 17-C , 18-C ) :   1.5958
B( 17-C , 20-C ) :   0.1152 B( 17-C , 33-H ) :   0.9729 B( 18-C , 19-C ) :   1.2560
B( 18-C , 21-H ) :   0.9758 B( 19-C , 20-C ) :   1.5745 B( 19-C , 22-C ) :   1.0166
B( 22-C , 23-H ) :   0.9223 B( 22-C , 24-H ) :   0.9346 B( 22-C , 25-C ) :   1.0808
B( 25-C , 26-H ) :   0.9549 B( 25-C , 27-H ) :   0.9475 B( 25-C , 28-C ) :   1.0831
B( 28-C , 29-H ) :   0.9744 B( 28-C , 30-H ) :   0.9728 B( 28-C , 31-H ) :   0.9722

Dispersion correction           -0.014043193
FINAL SINGLE POINT ENERGY     -1339.853339847884

DIPOLE MOMENT
-------------
                                X             Y             Z
Electronic contribution:     -1.90892      16.53906      10.36998
Nuclear contribution   :      1.93392     -16.88585     -10.40492
                        -----------------------------------------
Total Dipole Moment    :      0.02500      -0.34679      -0.03495
                        -----------------------------------------
Magnitude (a.u.)       :      0.34944
Magnitude (Debye)      :      0.88821

Rotational constants in cm-1:     0.019454     0.007943     0.006556
Rotational constants in MHz :   583.228872   238.128878   196.537601

                             ****ORCA TERMINATED NORMALLY****
TOTAL RUN TIME: 0 days 0 hours 0 minutes 32 seconds 591 msec
