                         Program Version 4.2.1 -  RELEASE  -
|  1> ! wB97X-D3 SP def2-SVP
|  2> %pal
|  3> nprocs 16
|  4> end
|  5>
|  6> * xyz 0 1
|  7> S 	 -101.654 	 48.2868 	 118.973
|  8> C 	 -102.723 	 49.5737 	 119.496
|  9> C 	 -103.81 	 49.1164 	 120.241
| 10> C 	 -103.645 	 47.7199 	 120.537
| 11> C 	 -102.514 	 47.1512 	 119.979
| 12> H 	 -104.35 	 47.1118 	 121.099
| 13> C 	 -104.789 	 50.0267 	 120.949
| 14> H 	 -105.509 	 49.2824 	 121.247
| 15> H 	 -105.36 	 50.7794 	 120.381
| 16> C 	 -104.237 	 50.6773 	 122.217
| 17> H 	 -104.987 	 50.7405 	 122.938
| 18> H 	 -103.504 	 49.9536 	 122.642
| 19> C 	 -103.569 	 52.0273 	 122.014
| 20> H 	 -102.628 	 52.1435 	 121.44
| 21> H 	 -104.231 	 52.7794 	 121.546
| 22> H 	 -103.307 	 52.3911 	 123.013
| 23> S 	 -103.387 	 44.6893 	 119.262
| 24> C 	 -102.257 	 43.3221 	 119.34
| 25> C 	 -101.326 	 43.5955 	 120.28
| 26> C 	 -101.217 	 44.9887 	 120.651
| 27> C 	 -102.182 	 45.7547 	 119.999
| 28> H 	 -100.67 	 42.781 	 120.762
| 29> C 	 -100.081 	 45.4999 	 121.456
| 30> H 	 -100.043 	 44.9025 	 122.41
| 31> H 	 -100.394 	 46.5396 	 121.793
| 32> C 	 -98.6896 	 45.4698 	 120.784
| 33> H 	 -98.7425 	 46.0841 	 119.884
| 34> H 	 -98.4153 	 44.4934 	 120.367
| 35> C 	 -97.4783 	 45.9198 	 121.476
| 36> H 	 -97.1509 	 45.3613 	 122.41
| 37> H 	 -97.5895 	 46.9677 	 121.731
| 38> H 	 -96.6755 	 45.841 	 120.778
| 39> H 	 -102.607 	 50.6321 	 119.361
| 40> H 	 -102.358 	 42.3831 	 118.83
| 41> *
| 42>
| 43>                          ****END OF INPUT****

CARTESIAN COORDINATES (ANGSTROEM)
---------------------------------
  S    -101.654000   48.286800  118.973000
  C    -102.723000   49.573700  119.496000
  C    -103.810000   49.116400  120.241000
  C    -103.645000   47.719900  120.537000
  C    -102.514000   47.151200  119.979000
  H    -104.350000   47.111800  121.099000
  C    -104.789000   50.026700  120.949000
  H    -105.509000   49.282400  121.247000
  H    -105.360000   50.779400  120.381000
  C    -104.237000   50.677300  122.217000
  H    -104.987000   50.740500  122.938000
  H    -103.504000   49.953600  122.642000
  C    -103.569000   52.027300  122.014000
  H    -102.628000   52.143500  121.440000
  H    -104.231000   52.779400  121.546000
  H    -103.307000   52.391100  123.013000
  S    -103.387000   44.689300  119.262000
  C    -102.257000   43.322100  119.340000
  C    -101.326000   43.595500  120.280000
  C    -101.217000   44.988700  120.651000
  C    -102.182000   45.754700  119.999000
  H    -100.670000   42.781000  120.762000
  C    -100.081000   45.499900  121.456000
  H    -100.043000   44.902500  122.410000
  H    -100.394000   46.539600  121.793000
  C    -98.689600   45.469800  120.784000
  H    -98.742500   46.084100  119.884000
  H    -98.415300   44.493400  120.367000
  C    -97.478300   45.919800  121.476000
  H    -97.150900   45.361300  122.410000
  H    -97.589500   46.967700  121.731000
  H    -96.675500   45.841000  120.778000
  H    -102.607000   50.632100  119.361000
  H    -102.358000   42.383100  118.830000

 Total Charge           Charge          ....    0
 Multiplicity           Mult            ....    1
 Number of Electrons    NEL             ....  134
 Basis Dimension        Dim             ....  322

ORBITAL ENERGIES
----------------

  NO   OCC          E(Eh)            E(eV)
   0   2.0000     -88.968919     -2420.9674
   1   2.0000     -88.958936     -2420.6957
   2   2.0000     -10.326094      -280.9873
   3   2.0000     -10.324602      -280.9467
   4   2.0000     -10.316539      -280.7273
   5   2.0000     -10.310577      -280.5651
   6   2.0000     -10.304725      -280.4058
   7   2.0000     -10.300720      -280.2968
   8   2.0000     -10.298318      -280.2315
   9   2.0000     -10.298187      -280.2279
  10   2.0000     -10.295337      -280.1504
  11   2.0000     -10.289898      -280.0024
  12   2.0000     -10.284350      -279.8514
  13   2.0000     -10.281991      -279.7872
  14   2.0000     -10.281731      -279.7801
  15   2.0000     -10.274203      -279.5753
  16   2.0000      -8.083322      -219.9584
  17   2.0000      -8.073515      -219.6915
  18   2.0000      -6.041882      -164.4080
  19   2.0000      -6.037836      -164.2979
  20   2.0000      -6.034097      -164.1961
  21   2.0000      -6.032222      -164.1451
  22   2.0000      -6.028332      -164.0393
  23   2.0000      -6.023767      -163.9150
  24   2.0000      -1.006085       -27.3770
  25   2.0000      -0.982255       -26.7285
  26   2.0000      -0.914743       -24.8914
  27   2.0000      -0.910567       -24.7778
  28   2.0000      -0.870410       -23.6850
  29   2.0000      -0.855670       -23.2840
  30   2.0000      -0.849313       -23.1110
  31   2.0000      -0.810246       -22.0479
  32   2.0000      -0.785393       -21.3716
  33   2.0000      -0.770661       -20.9708
  34   2.0000      -0.707249       -19.2452
  35   2.0000      -0.699516       -19.0348
  36   2.0000      -0.691458       -18.8155
  37   2.0000      -0.659126       -17.9357
  38   2.0000      -0.637633       -17.3509
  39   2.0000      -0.614671       -16.7260
  40   2.0000      -0.595649       -16.2084
  41   2.0000      -0.571168       -15.5423
  42   2.0000      -0.559528       -15.2255
  43   2.0000      -0.547227       -14.8908
  44   2.0000      -0.540326       -14.7030
  45   2.0000      -0.534563       -14.5462
  46   2.0000      -0.517954       -14.0942
  47   2.0000      -0.516168       -14.0456
  48   2.0000      -0.508317       -13.8320
  49   2.0000      -0.495806       -13.4916
  50   2.0000      -0.485287       -13.2053
  51   2.0000      -0.481675       -13.1071
  52   2.0000      -0.470066       -12.7911
  53   2.0000      -0.464190       -12.6312
  54   2.0000      -0.454692       -12.3728
  55   2.0000      -0.449266       -12.2252
  56   2.0000      -0.446527       -12.1506
  57   2.0000      -0.434760       -11.8304
  58   2.0000      -0.430882       -11.7249
  59   2.0000      -0.424488       -11.5509
  60   2.0000      -0.419798       -11.4233
  61   2.0000      -0.413378       -11.2486
  62   2.0000      -0.405345       -11.0300
  63   2.0000      -0.335407        -9.1269
  64   2.0000      -0.332753        -9.0547
  65   2.0000      -0.320235        -8.7140
  66   2.0000      -0.298628        -8.1261
  67   0.0000       0.035205         0.9580
  68   0.0000       0.053618         1.4590
  69   0.0000       0.096404         2.6233
  70   0.0000       0.113755         3.0954
  71   0.0000       0.135700         3.6926

MULLIKEN ATOMIC CHARGES
-----------------------
   0 S :    0.128753
   1 C :   -0.103038
   2 C :   -0.095276
   3 C :    0.013325
   4 C :   -0.167814
   5 H :    0.016403
   6 C :    0.061346
   7 H :    0.011423
   8 H :    0.034014
   9 C :   -0.027771
  10 H :    0.016490
  11 H :    0.031328
  12 C :   -0.075240
  13 H :    0.037252
  14 H :    0.028877
  15 H :    0.031407
  16 S :    0.093017
  17 C :   -0.086264
  18 C :   -0.045051
  19 C :   -0.009421
  20 C :   -0.177306
  21 H :    0.048131
  22 C :    0.051110
  23 H :    0.031252
  24 H :    0.037205
  25 C :   -0.069558
  26 H :    0.019201
  27 H :    0.018192
  28 C :   -0.030149
  29 H :    0.035149
  30 H :    0.024810
  31 H :    0.026149
  32 H :    0.037183
  33 H :    0.054869
Sum of atomic charges:   -0.0000000

LOEWDIN ATOMIC CHARGES
----------------------
   0 S :    0.415222
   1 C :   -0.193802
   2 C :   -0.062160
   3 C :   -0.064018
   4 C :   -0.205796
   5 H :    0.030543
   6 C :   -0.036116
   7 H :    0.030443
   8 H :    0.031991
   9 C :   -0.034941
  10 H :    0.018411
  11 H :    0.033022
  12 C :   -0.074565
  13 H :    0.026978
  14 H :    0.024370
  15 H :    0.029328
  16 S :    0.378420
  17 C :   -0.168648
  18 C :   -0.076179
  19 C :   -0.054463
  20 C :   -0.193421
  21 H :    0.044183
  22 C :   -0.041157
  23 H :    0.037011
  24 H :    0.037868
  25 C :   -0.049963
  26 H :    0.027370
  27 H :    0.024220
  28 C :   -0.064525
  29 H :    0.028136
  30 H :    0.022879
  31 H :    0.026631
  32 H :    0.023387
  33 H :    0.029339

  Mayer bond orders larger than 0.100000
B(  0-S ,  1-C ) :   1.1429 B(  0-S ,  4-C ) :   1.1470 B(  1-C ,  2-C ) :   1.6066
B(  1-C , 32-H ) :   0.9663 B(  2-C ,  3-C ) :   1.2396 B(  2-C ,  6-C ) :   1.0354
B(  3-C ,  4-C ) :   1.5815 B(  3-C ,  5-H ) :   0.9921 B(  4-C , 20-C ) :   1.0420
B(  6-C ,  7-H ) :   0.9308 B(  6-C ,  8-H ) :   0.9433 B(  6-C ,  9-C ) :   1.0696
B(  9-C , 10-H ) :   0.9528 B(  9-C , 11-H ) :   0.9508 B(  9-C , 12-C ) :   1.0808
B( 12-C , 13-H ) :   0.9729 B( 12-C , 14-H ) :   0.9748 B( 12-C , 15-H ) :   0.9712
B( 16-S , 17-C ) :   1.1281 B( 16-S , 20-C ) :   1.1197 B( 17-C , 18-C ) :   1.6422
B( 17-C , 33-H ) :   0.9741 B( 18-C , 19-C ) :   1.2017 B( 18-C , 21-H ) :   0.9726
B( 19-C , 20-C ) :   1.6034 B( 19-C , 22-C ) :   1.0741 B( 22-C , 23-H ) :   0.9250
B( 22-C , 24-H ) :   0.9284 B( 22-C , 25-C ) :   1.0532 B( 25-C , 26-H ) :   0.9449
B( 25-C , 27-H ) :   0.9529 B( 25-C , 28-C ) :   1.1074 B( 28-C , 29-H ) :   0.9705
B( 28-C , 30-H ) :   0.9707 B( 28-C , 31-H ) :   0.9687

Dispersion correction           -0.014259229
FINAL SINGLE POINT ENERGY     -1339.864826410095

DIPOLE MOMENT
-------------
                                X             Y             Z
Electronic contribution:     -9.07100     -13.08140     -15.47854
Nuclear contribution   :      9.20047      13.14317      15.95062
                        -----------------------------------------
Total Dipole Moment    :      0.12947       0.06177       0.47208
                        -----------------------------------------
Magnitude (a.u.)       :      0.49340
Magnitude (Debye)      :      1.25411

Rotational constants in cm-1:     0.019547     0.008044     0.006545
Rotational constants in MHz :   586.009047   241.157839   196.216662

                             ****ORCA TERMINATED NORMALLY****
TOTAL RUN TIME: 0 days 0 hours 0 minutes 33 seconds 358 msec
