                         Program Version 4.2.1 -  RELEASE  -
|  1> ! wB97X-D3 SP def2-SVP
|  2> %pal
|  3> nprocs 16
|  4> end
|  5>
|  6> * xyz 0 1
|  7> S 	 -12.9565 	 36.3628 	 54.9177
|  8> C 	 -11.2385 	 36.2444 	 55.2309
|  9> C 	 -10.6337 	 35.1236 	 54.6952
| 10> C 	 -11.5603 	 34.4211 	 53.8717
| 11> C 	 -12.9007 	 34.8835 	 53.9989
| 12> H 	 -11.3312 	 33.5208 	 53.2878
| 13> C 	 -9.18884 	 34.902 	 54.6051
| 14> H 	 -9.05509 	 33.9205 	 55.0932
| 15> H 	 -8.55451 	 35.5583 	 55.2486
| 16> C 	 -8.54206 	 34.7896 	 53.2112
| 17> H 	 -7.5258 	 34.598 	 53.3745
| 18> H 	 -8.85837 	 33.9134 	 52.5973
| 19> C 	 -8.54822 	 36.13 	 52.4619
| 20> H 	 -9.58353 	 36.4771 	 52.3602
| 21> H 	 -8.06909 	 36.8458 	 53.0331
| 22> H 	 -8.20591 	 36.062 	 51.4613
| 23> S 	 -14.9772 	 35.3461 	 52.1322
| 24> C 	 -15.6509 	 33.9569 	 51.3286
| 25> C 	 -15.305 	 32.7963 	 52.0431
| 26> C 	 -14.3808 	 32.9575 	 53.0783
| 27> C 	 -14.0901 	 34.2689 	 53.3218
| 28> H 	 -15.7774 	 31.9081 	 51.79
| 29> C 	 -13.6764 	 31.7858 	 53.7402
| 30> H 	 -14.0354 	 31.7787 	 54.8153
| 31> H 	 -12.56 	 31.9126 	 53.7438
| 32> C 	 -13.674 	 30.389 	 53.0528
| 33> H 	 -13.2918 	 30.5108 	 52.0119
| 34> H 	 -14.7258 	 30.0982 	 52.7988
| 35> C 	 -13.0878 	 29.1733 	 53.8064
| 36> H 	 -13.1725 	 28.2555 	 53.1667
| 37> H 	 -13.4826 	 29.0466 	 54.8039
| 38> H 	 -12.0542 	 29.3168 	 53.9463
| 39> H 	 -10.631 	 36.9561 	 55.8165
| 40> H 	 -16.3164 	 34.1415 	 50.4935
| 41> *
| 42>
| 43>                          ****END OF INPUT****

CARTESIAN COORDINATES (ANGSTROEM)
---------------------------------
  S    -12.956500   36.362800   54.917700
  C    -11.238500   36.244400   55.230900
  C    -10.633700   35.123600   54.695200
  C    -11.560300   34.421100   53.871700
  C    -12.900700   34.883500   53.998900
  H    -11.331200   33.520800   53.287800
  C     -9.188840   34.902000   54.605100
  H     -9.055090   33.920500   55.093200
  H     -8.554510   35.558300   55.248600
  C     -8.542060   34.789600   53.211200
  H     -7.525800   34.598000   53.374500
  H     -8.858370   33.913400   52.597300
  C     -8.548220   36.130000   52.461900
  H     -9.583530   36.477100   52.360200
  H     -8.069090   36.845800   53.033100
  H     -8.205910   36.062000   51.461300
  S    -14.977200   35.346100   52.132200
  C    -15.650900   33.956900   51.328600
  C    -15.305000   32.796300   52.043100
  C    -14.380800   32.957500   53.078300
  C    -14.090100   34.268900   53.321800
  H    -15.777400   31.908100   51.790000
  C    -13.676400   31.785800   53.740200
  H    -14.035400   31.778700   54.815300
  H    -12.560000   31.912600   53.743800
  C    -13.674000   30.389000   53.052800
  H    -13.291800   30.510800   52.011900
  H    -14.725800   30.098200   52.798800
  C    -13.087800   29.173300   53.806400
  H    -13.172500   28.255500   53.166700
  H    -13.482600   29.046600   54.803900
  H    -12.054200   29.316800   53.946300
  H    -10.631000   36.956100   55.816500
  H    -16.316400   34.141500   50.493500

 Total Charge           Charge          ....    0
 Multiplicity           Mult            ....    1
 Number of Electrons    NEL             ....  134
 Basis Dimension        Dim             ....  322

ORBITAL ENERGIES
----------------

  NO   OCC          E(Eh)            E(eV)
   0   2.0000     -88.969120     -2420.9728
   1   2.0000     -88.962763     -2420.7999
   2   2.0000     -10.333978      -281.2018
   3   2.0000     -10.330684      -281.1122
   4   2.0000     -10.324382      -280.9407
   5   2.0000     -10.312611      -280.6204
   6   2.0000     -10.305061      -280.4150
   7   2.0000     -10.302844      -280.3546
   8   2.0000     -10.296487      -280.1817
   9   2.0000     -10.296446      -280.1806
  10   2.0000     -10.296123      -280.1718
  11   2.0000     -10.294308      -280.1224
  12   2.0000     -10.291775      -280.0534
  13   2.0000     -10.285461      -279.8816
  14   2.0000     -10.283240      -279.8212
  15   2.0000     -10.264403      -279.3086
  16   2.0000      -8.083614      -219.9663
  17   2.0000      -8.076956      -219.7851
  18   2.0000      -6.042061      -164.4128
  19   2.0000      -6.038185      -164.3074
  20   2.0000      -6.035431      -164.2324
  21   2.0000      -6.034441      -164.2055
  22   2.0000      -6.031481      -164.1249
  23   2.0000      -6.027829      -164.0256
  24   2.0000      -1.001318       -27.2473
  25   2.0000      -0.982967       -26.7479
  26   2.0000      -0.915028       -24.8992
  27   2.0000      -0.904369       -24.6091
  28   2.0000      -0.864315       -23.5192
  29   2.0000      -0.855474       -23.2786
  30   2.0000      -0.844248       -22.9732
  31   2.0000      -0.806637       -21.9497
  32   2.0000      -0.786641       -21.4056
  33   2.0000      -0.776903       -21.1406
  34   2.0000      -0.709370       -19.3029
  35   2.0000      -0.701494       -19.0886
  36   2.0000      -0.692823       -18.8527
  37   2.0000      -0.657195       -17.8832
  38   2.0000      -0.632961       -17.2237
  39   2.0000      -0.621108       -16.9012
  40   2.0000      -0.603274       -16.4159
  41   2.0000      -0.567096       -15.4315
  42   2.0000      -0.560295       -15.2464
  43   2.0000      -0.555513       -15.1163
  44   2.0000      -0.538998       -14.6669
  45   2.0000      -0.531371       -14.4593
  46   2.0000      -0.515109       -14.0168
  47   2.0000      -0.511729       -13.9249
  48   2.0000      -0.502818       -13.6824
  49   2.0000      -0.487785       -13.2733
  50   2.0000      -0.486526       -13.2390
  51   2.0000      -0.483396       -13.1539
  52   2.0000      -0.473214       -12.8768
  53   2.0000      -0.467815       -12.7299
  54   2.0000      -0.460610       -12.5338
  55   2.0000      -0.450835       -12.2679
  56   2.0000      -0.443904       -12.0792
  57   2.0000      -0.436629       -11.8813
  58   2.0000      -0.433018       -11.7830
  59   2.0000      -0.427656       -11.6371
  60   2.0000      -0.420175       -11.4335
  61   2.0000      -0.415781       -11.3140
  62   2.0000      -0.402909       -10.9637
  63   2.0000      -0.341746        -9.2994
  64   2.0000      -0.333628        -9.0785
  65   2.0000      -0.329153        -8.9567
  66   2.0000      -0.287314        -7.8182
  67   0.0000       0.026499         0.7211
  68   0.0000       0.063891         1.7386
  69   0.0000       0.111651         3.0382
  70   0.0000       0.119426         3.2497
  71   0.0000       0.127240         3.4624

MULLIKEN ATOMIC CHARGES
-----------------------
   0 S :    0.123427
   1 C :   -0.129512
   2 C :   -0.056688
   3 C :    0.002763
   4 C :   -0.160216
   5 H :    0.025863
   6 C :    0.020062
   7 H :    0.030853
   8 H :    0.023436
   9 C :   -0.059138
  10 H :    0.012609
  11 H :    0.032234
  12 C :   -0.006312
  13 H :    0.032365
  14 H :    0.009285
  15 H :    0.027916
  16 S :    0.078419
  17 C :   -0.100107
  18 C :   -0.018697
  19 C :   -0.013197
  20 C :   -0.126728
  21 H :   -0.005719
  22 C :    0.032508
  23 H :    0.057603
  24 H :    0.036275
  25 C :   -0.132128
  26 H :    0.034357
  27 H :    0.023639
  28 C :   -0.012917
  29 H :    0.046586
  30 H :    0.037052
  31 H :    0.014539
  32 H :    0.049652
  33 H :    0.069916
Sum of atomic charges:   -0.0000000

LOEWDIN ATOMIC CHARGES
----------------------
   0 S :    0.412772
   1 C :   -0.203801
   2 C :   -0.071507
   3 C :   -0.059341
   4 C :   -0.197331
   5 H :    0.029747
   6 C :   -0.038555
   7 H :    0.038057
   8 H :    0.033330
   9 C :   -0.037260
  10 H :    0.018467
  11 H :    0.026811
  12 C :   -0.055460
  13 H :    0.029676
  14 H :    0.014448
  15 H :    0.022604
  16 S :    0.375960
  17 C :   -0.172856
  18 C :   -0.068402
  19 C :   -0.056978
  20 C :   -0.176152
  21 H :    0.018687
  22 C :   -0.039331
  23 H :    0.044504
  24 H :    0.036831
  25 C :   -0.053917
  26 H :    0.028307
  27 H :    0.017113
  28 C :   -0.060122
  29 H :    0.038854
  30 H :    0.027719
  31 H :    0.015894
  32 H :    0.031304
  33 H :    0.029929

  Mayer bond orders larger than 0.100000
B(  0-S ,  1-C ) :   1.1396 B(  0-S ,  4-C ) :   1.1629 B(  1-C ,  2-C ) :   1.6006
B(  1-C , 32-H ) :   0.9599 B(  2-C ,  3-C ) :   1.2508 B(  2-C ,  6-C ) :   1.0455
B(  3-C ,  4-C ) :   1.5566 B(  3-C ,  5-H ) :   0.9778 B(  4-C , 20-C ) :   1.0138
B(  6-C ,  7-H ) :   0.9157 B(  6-C ,  8-H ) :   0.9463 B(  6-C ,  9-C ) :   1.0900
B(  9-C , 10-H ) :   0.9484 B(  9-C , 11-H ) :   0.9501 B(  9-C , 12-C ) :   1.0732
B( 12-C , 13-H ) :   0.9768 B( 12-C , 14-H ) :   0.9727 B( 12-C , 15-H ) :   0.9734
B( 16-S , 17-C ) :   1.1808 B( 16-S , 20-C ) :   1.1274 B( 17-C , 18-C ) :   1.5553
B( 17-C , 20-C ) :   0.1044 B( 17-C , 33-H ) :   0.9711 B( 18-C , 19-C ) :   1.2612
B( 18-C , 21-H ) :   1.0035 B( 19-C , 20-C ) :   1.6106 B( 19-C , 22-C ) :   1.0233
B( 22-C , 23-H ) :   0.9302 B( 22-C , 24-H ) :   0.9432 B( 22-C , 25-C ) :   1.0596
B( 25-C , 26-H ) :   0.9541 B( 25-C , 27-H ) :   0.9493 B( 25-C , 28-C ) :   1.0786
B( 28-C , 29-H ) :   0.9715 B( 28-C , 30-H ) :   0.9736 B( 28-C , 31-H ) :   0.9750

Dispersion correction           -0.014216204
FINAL SINGLE POINT ENERGY     -1339.861218327760

DIPOLE MOMENT
-------------
                                X             Y             Z
Electronic contribution:    -19.35834      19.07405       2.21623
Nuclear contribution   :     19.83662     -19.67932      -2.41007
                        -----------------------------------------
Total Dipole Moment    :      0.47828      -0.60527      -0.19384
                        -----------------------------------------
Magnitude (a.u.)       :      0.79542
Magnitude (Debye)      :      2.02179

Rotational constants in cm-1:     0.015914     0.009123     0.007030
Rotational constants in MHz :   477.094368   273.486271   210.745449

                             ****ORCA TERMINATED NORMALLY****
TOTAL RUN TIME: 0 days 0 hours 0 minutes 35 seconds 744 msec
