                         Program Version 4.2.1 -  RELEASE  -
|  1> ! wB97X-D3 SP def2-SVP
|  2> %pal
|  3> nprocs 16
|  4> end
|  5>
|  6> * xyz 0 1
|  7> S 	 -1.11165 	 8.46106 	 82.931
|  8> C 	 -0.761042 	 7.93785 	 81.3441
|  9> C 	 -1.90357 	 7.95997 	 80.5771
| 10> C 	 -3.07347 	 8.17116 	 81.3479
| 11> C 	 -2.80835 	 8.3286 	 82.6891
| 12> H 	 -4.05119 	 8.14477 	 80.8613
| 13> C 	 -1.89186 	 7.47876 	 79.0937
| 14> H 	 -2.71523 	 6.68377 	 79.1279
| 15> H 	 -0.999078 	 6.87968 	 78.9415
| 16> C 	 -2.08813 	 8.5118 	 78.0227
| 17> H 	 -2.32156 	 7.94022 	 77.0814
| 18> H 	 -2.88457 	 9.17792 	 78.4289
| 19> C 	 -0.793433 	 9.39161 	 77.7646
| 20> H 	 -0.0890286 	 8.6156 	 77.4767
| 21> H 	 -0.8803 	 10.0098 	 76.8923
| 22> H 	 -0.503304 	 9.88487 	 78.6688
| 23> S 	 -3.4146 	 9.40454 	 85.2226
| 24> C 	 -5.07218 	 9.35651 	 85.7522
| 25> C 	 -5.87469 	 8.71386 	 84.8669
| 26> C 	 -5.17258 	 8.13756 	 83.7449
| 27> C 	 -3.82661 	 8.45255 	 83.7355
| 28> H 	 -6.96567 	 8.70109 	 85.0289
| 29> C 	 -5.90922 	 7.34537 	 82.7557
| 30> H 	 -6.54058 	 6.60624 	 83.2355
| 31> H 	 -5.27929 	 6.67461 	 82.1779
| 32> C 	 -6.94839 	 8.15565 	 81.8894
| 33> H 	 -6.34888 	 8.89948 	 81.2747
| 34> H 	 -7.549 	 8.67226 	 82.6066
| 35> C 	 -7.78366 	 7.38311 	 80.8566
| 36> H 	 -7.0953 	 6.81062 	 80.2437
| 37> H 	 -8.28766 	 8.16728 	 80.3019
| 38> H 	 -8.56835 	 6.7689 	 81.3612
| 39> H 	 0.286665 	 7.91131 	 81.066
| 40> H 	 -5.39012 	 10.0252 	 86.5693
| 41> *
| 42>
| 43>                          ****END OF INPUT****

CARTESIAN COORDINATES (ANGSTROEM)
---------------------------------
  S     -1.111650    8.461060   82.931000
  C     -0.761042    7.937850   81.344100
  C     -1.903570    7.959970   80.577100
  C     -3.073470    8.171160   81.347900
  C     -2.808350    8.328600   82.689100
  H     -4.051190    8.144770   80.861300
  C     -1.891860    7.478760   79.093700
  H     -2.715230    6.683770   79.127900
  H     -0.999078    6.879680   78.941500
  C     -2.088130    8.511800   78.022700
  H     -2.321560    7.940220   77.081400
  H     -2.884570    9.177920   78.428900
  C     -0.793433    9.391610   77.764600
  H     -0.089029    8.615600   77.476700
  H     -0.880300   10.009800   76.892300
  H     -0.503304    9.884870   78.668800
  S     -3.414600    9.404540   85.222600
  C     -5.072180    9.356510   85.752200
  C     -5.874690    8.713860   84.866900
  C     -5.172580    8.137560   83.744900
  C     -3.826610    8.452550   83.735500
  H     -6.965670    8.701090   85.028900
  C     -5.909220    7.345370   82.755700
  H     -6.540580    6.606240   83.235500
  H     -5.279290    6.674610   82.177900
  C     -6.948390    8.155650   81.889400
  H     -6.348880    8.899480   81.274700
  H     -7.549000    8.672260   82.606600
  C     -7.783660    7.383110   80.856600
  H     -7.095300    6.810620   80.243700
  H     -8.287660    8.167280   80.301900
  H     -8.568350    6.768900   81.361200
  H      0.286665    7.911310   81.066000
  H     -5.390120   10.025200   86.569300

 Total Charge           Charge          ....    0
 Multiplicity           Mult            ....    1
 Number of Electrons    NEL             ....  134
 Basis Dimension        Dim             ....  322

ORBITAL ENERGIES
----------------

  NO   OCC          E(Eh)            E(eV)
   0   2.0000     -88.963759     -2420.8269
   1   2.0000     -88.961649     -2420.7695
   2   2.0000     -10.333317      -281.1839
   3   2.0000     -10.330122      -281.0969
   4   2.0000     -10.318281      -280.7747
   5   2.0000     -10.310435      -280.5612
   6   2.0000     -10.304568      -280.4015
   7   2.0000     -10.299981      -280.2767
   8   2.0000     -10.296511      -280.1823
   9   2.0000     -10.296069      -280.1703
  10   2.0000     -10.294367      -280.1240
  11   2.0000     -10.293501      -280.1004
  12   2.0000     -10.293057      -280.0883
  13   2.0000     -10.288888      -279.9749
  14   2.0000     -10.285490      -279.8824
  15   2.0000     -10.276706      -279.6434
  16   2.0000      -8.080187      -219.8731
  17   2.0000      -8.076228      -219.7653
  18   2.0000      -6.038565      -164.3177
  19   2.0000      -6.034857      -164.2168
  20   2.0000      -6.034488      -164.2068
  21   2.0000      -6.030959      -164.1107
  22   2.0000      -6.030876      -164.1085
  23   2.0000      -6.026771      -163.9968
  24   2.0000      -1.012910       -27.5627
  25   2.0000      -0.987697       -26.8766
  26   2.0000      -0.910715       -24.7818
  27   2.0000      -0.909328       -24.7441
  28   2.0000      -0.871288       -23.7089
  29   2.0000      -0.855017       -23.2662
  30   2.0000      -0.846798       -23.0425
  31   2.0000      -0.813845       -22.1458
  32   2.0000      -0.784640       -21.3511
  33   2.0000      -0.775172       -21.0935
  34   2.0000      -0.705227       -19.1902
  35   2.0000      -0.695090       -18.9144
  36   2.0000      -0.690759       -18.7965
  37   2.0000      -0.660000       -17.9595
  38   2.0000      -0.639130       -17.3916
  39   2.0000      -0.628046       -17.0900
  40   2.0000      -0.603392       -16.4191
  41   2.0000      -0.572173       -15.5696
  42   2.0000      -0.566759       -15.4223
  43   2.0000      -0.547647       -14.9022
  44   2.0000      -0.540445       -14.7063
  45   2.0000      -0.532282       -14.4841
  46   2.0000      -0.515357       -14.0236
  47   2.0000      -0.510933       -13.9032
  48   2.0000      -0.505044       -13.7429
  49   2.0000      -0.499009       -13.5787
  50   2.0000      -0.492112       -13.3910
  51   2.0000      -0.481162       -13.0931
  52   2.0000      -0.476700       -12.9717
  53   2.0000      -0.466129       -12.6840
  54   2.0000      -0.462213       -12.5775
  55   2.0000      -0.454007       -12.3542
  56   2.0000      -0.444587       -12.0978
  57   2.0000      -0.442600       -12.0438
  58   2.0000      -0.433157       -11.7868
  59   2.0000      -0.422060       -11.4848
  60   2.0000      -0.419094       -11.4041
  61   2.0000      -0.414434       -11.2773
  62   2.0000      -0.402028       -10.9397
  63   2.0000      -0.363882        -9.9017
  64   2.0000      -0.333673        -9.0797
  65   2.0000      -0.326371        -8.8810
  66   2.0000      -0.284748        -7.7484
  67   0.0000       0.022194         0.6039
  68   0.0000       0.081554         2.2192
  69   0.0000       0.099668         2.7121
  70   0.0000       0.114928         3.1274
  71   0.0000       0.124765         3.3950

MULLIKEN ATOMIC CHARGES
-----------------------
   0 S :    0.109603
   1 C :   -0.134769
   2 C :   -0.087067
   3 C :   -0.009392
   4 C :   -0.102654
   5 H :    0.005887
   6 C :    0.021553
   7 H :    0.039360
   8 H :    0.016144
   9 C :   -0.080734
  10 H :    0.043976
  11 H :    0.037998
  12 C :   -0.033061
  13 H :    0.015537
  14 H :    0.038746
  15 H :    0.043190
  16 S :    0.071285
  17 C :   -0.091166
  18 C :   -0.040469
  19 C :   -0.036588
  20 C :   -0.098903
  21 H :    0.032661
  22 C :    0.046017
  23 H :    0.014646
  24 H :    0.016554
  25 C :   -0.119325
  26 H :    0.033460
  27 H :    0.021179
  28 C :   -0.022133
  29 H :    0.036411
  30 H :    0.041219
  31 H :    0.040304
  32 H :    0.057297
  33 H :    0.073235
Sum of atomic charges:   -0.0000000

LOEWDIN ATOMIC CHARGES
----------------------
   0 S :    0.430354
   1 C :   -0.208161
   2 C :   -0.069400
   3 C :   -0.070010
   4 C :   -0.197030
   5 H :    0.032520
   6 C :   -0.037172
   7 H :    0.038104
   8 H :    0.024349
   9 C :   -0.045993
  10 H :    0.032008
  11 H :    0.026864
  12 C :   -0.059309
  13 H :    0.023255
  14 H :    0.024592
  15 H :    0.023858
  16 S :    0.366545
  17 C :   -0.182554
  18 C :   -0.073520
  19 C :   -0.055565
  20 C :   -0.165845
  21 H :    0.036908
  22 C :   -0.043120
  23 H :    0.030939
  24 H :    0.025782
  25 C :   -0.036897
  26 H :    0.024620
  27 H :    0.016532
  28 C :   -0.062154
  29 H :    0.025510
  30 H :    0.031011
  31 H :    0.028710
  32 H :    0.027634
  33 H :    0.036636

  Mayer bond orders larger than 0.100000
B(  0-S ,  1-C ) :   1.1547 B(  0-S ,  4-C ) :   1.1673 B(  1-C ,  2-C ) :   1.5734
B(  1-C , 32-H ) :   0.9732 B(  2-C ,  3-C ) :   1.2841 B(  2-C ,  6-C ) :   1.0006
B(  3-C ,  4-C ) :   1.5213 B(  3-C ,  5-H ) :   0.9932 B(  4-C , 20-C ) :   1.0741
B(  6-C ,  7-H ) :   0.9478 B(  6-C ,  8-H ) :   0.9486 B(  6-C ,  9-C ) :   1.0595
B(  9-C , 10-H ) :   0.9548 B(  9-C , 11-H ) :   0.9575 B(  9-C , 12-C ) :   1.0653
B( 12-C , 13-H ) :   0.9760 B( 12-C , 14-H ) :   0.9769 B( 12-C , 15-H ) :   0.9785
B( 16-S , 17-C ) :   1.1448 B( 16-S , 20-C ) :   1.1067 B( 17-C , 18-C ) :   1.6424
B( 17-C , 33-H ) :   0.9607 B( 18-C , 19-C ) :   1.2038 B( 18-C , 21-H ) :   0.9853
B( 19-C , 20-C ) :   1.6296 B( 19-C , 22-C ) :   1.0632 B( 22-C , 23-H ) :   0.9245
B( 22-C , 24-H ) :   0.9330 B( 22-C , 25-C ) :   1.0446 B( 25-C , 26-H ) :   0.9576
B( 25-C , 27-H ) :   0.9552 B( 25-C , 28-C ) :   1.0808 B( 28-C , 29-H ) :   0.9742
B( 28-C , 30-H ) :   0.9739 B( 28-C , 31-H ) :   0.9737

Dispersion correction           -0.014113151
FINAL SINGLE POINT ENERGY     -1339.879312576334

DIPOLE MOMENT
-------------
                                X             Y             Z
Electronic contribution:     12.41102       4.42659      27.09580
Nuclear contribution   :    -12.91490      -4.51684     -27.65721
                        -----------------------------------------
Total Dipole Moment    :     -0.50389      -0.09026      -0.56141
                        -----------------------------------------
Magnitude (a.u.)       :      0.75976
Magnitude (Debye)      :      1.93115

Rotational constants in cm-1:     0.017596     0.009118     0.006402
Rotational constants in MHz :   527.508236   273.352860   191.919704

                             ****ORCA TERMINATED NORMALLY****
TOTAL RUN TIME: 0 days 0 hours 0 minutes 35 seconds 45 msec
