                         Program Version 4.2.1 -  RELEASE  -
|  1> ! wB97X-D3 SP def2-SVP
|  2> %pal
|  3> nprocs 16
|  4> end
|  5>
|  6> * xyz 0 1
|  7> S 	 -49.5856 	 60.5003 	 127.934
|  8> C 	 -49.2408 	 58.84 	 127.766
|  9> C 	 -48.5218 	 58.3341 	 128.798
| 10> C 	 -48.2255 	 59.3402 	 129.74
| 11> C 	 -48.9632 	 60.4932 	 129.567
| 12> H 	 -47.6431 	 59.2516 	 130.683
| 13> C 	 -47.7792 	 57.0103 	 128.947
| 14> H 	 -48.6214 	 56.2235 	 129.138
| 15> H 	 -47.1514 	 57.1176 	 129.866
| 16> C 	 -46.9156 	 56.6163 	 127.667
| 17> H 	 -46.2144 	 55.7989 	 127.901
| 18> H 	 -47.5593 	 56.3038 	 126.787
| 19> C 	 -45.9656 	 57.7755 	 127.33
| 20> H 	 -45.7491 	 57.6932 	 126.226
| 21> H 	 -46.4194 	 58.7866 	 127.541
| 22> H 	 -45.0306 	 57.6952 	 127.881
| 23> S 	 -47.8802 	 62.9126 	 130.059
| 24> C 	 -48.1491 	 63.7723 	 131.525
| 25> C 	 -48.9808 	 62.9849 	 132.29
| 26> C 	 -49.412 	 61.7509 	 131.723
| 27> C 	 -48.8996 	 61.5735 	 130.453
| 28> H 	 -49.2305 	 63.4177 	 133.298
| 29> C 	 -50.2578 	 60.6657 	 132.511
| 30> H 	 -50.3924 	 59.7438 	 131.949
| 31> H 	 -51.0882 	 61.2927 	 132.826
| 32> C 	 -49.6933 	 60.1952 	 133.873
| 33> H 	 -49.9126 	 61.0296 	 134.531
| 34> H 	 -48.6261 	 60.1375 	 133.775
| 35> C 	 -50.1099 	 58.8123 	 134.47
| 36> H 	 -49.4211 	 58.5688 	 135.253
| 37> H 	 -50.1333 	 58.0502 	 133.636
| 38> H 	 -51.0733 	 58.9198 	 134.915
| 39> H 	 -49.287 	 58.2174 	 126.901
| 40> H 	 -47.654 	 64.6489 	 131.913
| 41> *
| 42>
| 43>                          ****END OF INPUT****

CARTESIAN COORDINATES (ANGSTROEM)
---------------------------------
  S    -49.585600   60.500300  127.934000
  C    -49.240800   58.840000  127.766000
  C    -48.521800   58.334100  128.798000
  C    -48.225500   59.340200  129.740000
  C    -48.963200   60.493200  129.567000
  H    -47.643100   59.251600  130.683000
  C    -47.779200   57.010300  128.947000
  H    -48.621400   56.223500  129.138000
  H    -47.151400   57.117600  129.866000
  C    -46.915600   56.616300  127.667000
  H    -46.214400   55.798900  127.901000
  H    -47.559300   56.303800  126.787000
  C    -45.965600   57.775500  127.330000
  H    -45.749100   57.693200  126.226000
  H    -46.419400   58.786600  127.541000
  H    -45.030600   57.695200  127.881000
  S    -47.880200   62.912600  130.059000
  C    -48.149100   63.772300  131.525000
  C    -48.980800   62.984900  132.290000
  C    -49.412000   61.750900  131.723000
  C    -48.899600   61.573500  130.453000
  H    -49.230500   63.417700  133.298000
  C    -50.257800   60.665700  132.511000
  H    -50.392400   59.743800  131.949000
  H    -51.088200   61.292700  132.826000
  C    -49.693300   60.195200  133.873000
  H    -49.912600   61.029600  134.531000
  H    -48.626100   60.137500  133.775000
  C    -50.109900   58.812300  134.470000
  H    -49.421100   58.568800  135.253000
  H    -50.133300   58.050200  133.636000
  H    -51.073300   58.919800  134.915000
  H    -49.287000   58.217400  126.901000
  H    -47.654000   64.648900  131.913000

 Total Charge           Charge          ....    0
 Multiplicity           Mult            ....    1
 Number of Electrons    NEL             ....  134
 Basis Dimension        Dim             ....  322

ORBITAL ENERGIES
----------------

  NO   OCC          E(Eh)            E(eV)
   0   2.0000     -88.969700     -2420.9886
   1   2.0000     -88.961312     -2420.7604
   2   2.0000     -10.321084      -280.8510
   3   2.0000     -10.319081      -280.7965
   4   2.0000     -10.314654      -280.6760
   5   2.0000     -10.307322      -280.4765
   6   2.0000     -10.306748      -280.4609
   7   2.0000     -10.306319      -280.4492
   8   2.0000     -10.298152      -280.2270
   9   2.0000     -10.295508      -280.1550
  10   2.0000     -10.294022      -280.1146
  11   2.0000     -10.293485      -280.1000
  12   2.0000     -10.291828      -280.0549
  13   2.0000     -10.282534      -279.8020
  14   2.0000     -10.281398      -279.7711
  15   2.0000     -10.279716      -279.7253
  16   2.0000      -8.084956      -220.0028
  17   2.0000      -8.077053      -219.7878
  18   2.0000      -6.043364      -164.4483
  19   2.0000      -6.039530      -164.3440
  20   2.0000      -6.035633      -164.2379
  21   2.0000      -6.035493      -164.2341
  22   2.0000      -6.031240      -164.1184
  23   2.0000      -6.027970      -164.0294
  24   2.0000      -1.018189       -27.7063
  25   2.0000      -0.993931       -27.0462
  26   2.0000      -0.907564       -24.6961
  27   2.0000      -0.902406       -24.5557
  28   2.0000      -0.877977       -23.8910
  29   2.0000      -0.850380       -23.1400
  30   2.0000      -0.844780       -22.9876
  31   2.0000      -0.811802       -22.0903
  32   2.0000      -0.781815       -21.2743
  33   2.0000      -0.772207       -21.0128
  34   2.0000      -0.713364       -19.4116
  35   2.0000      -0.694821       -18.9070
  36   2.0000      -0.690262       -18.7830
  37   2.0000      -0.654596       -17.8125
  38   2.0000      -0.639494       -17.4015
  39   2.0000      -0.607943       -16.5430
  40   2.0000      -0.591400       -16.0928
  41   2.0000      -0.573191       -15.5973
  42   2.0000      -0.572230       -15.5712
  43   2.0000      -0.547061       -14.8863
  44   2.0000      -0.546870       -14.8811
  45   2.0000      -0.524674       -14.2771
  46   2.0000      -0.519112       -14.1257
  47   2.0000      -0.509966       -13.8769
  48   2.0000      -0.509481       -13.8637
  49   2.0000      -0.499308       -13.5869
  50   2.0000      -0.483503       -13.1568
  51   2.0000      -0.478122       -13.0104
  52   2.0000      -0.475593       -12.9415
  53   2.0000      -0.470956       -12.8154
  54   2.0000      -0.461555       -12.5595
  55   2.0000      -0.447704       -12.1827
  56   2.0000      -0.440312       -11.9815
  57   2.0000      -0.428754       -11.6670
  58   2.0000      -0.426684       -11.6107
  59   2.0000      -0.424089       -11.5400
  60   2.0000      -0.417946       -11.3729
  61   2.0000      -0.415501       -11.3063
  62   2.0000      -0.402330       -10.9480
  63   2.0000      -0.340220        -9.2579
  64   2.0000      -0.328298        -8.9334
  65   2.0000      -0.325193        -8.8490
  66   2.0000      -0.305127        -8.3029
  67   0.0000       0.035710         0.9717
  68   0.0000       0.060084         1.6350
  69   0.0000       0.119392         3.2488
  70   0.0000       0.124359         3.3840
  71   0.0000       0.131310         3.5731

MULLIKEN ATOMIC CHARGES
-----------------------
   0 S :    0.140352
   1 C :   -0.079983
   2 C :   -0.112096
   3 C :    0.001228
   4 C :   -0.181836
   5 H :    0.031984
   6 C :    0.041112
   7 H :    0.057155
   8 H :    0.035951
   9 C :   -0.098596
  10 H :    0.040218
  11 H :    0.049112
  12 C :   -0.093641
  13 H :    0.040557
  14 H :    0.062650
  15 H :    0.037043
  16 S :    0.111194
  17 C :   -0.085591
  18 C :   -0.085138
  19 C :   -0.013317
  20 C :   -0.193815
  21 H :    0.031562
  22 C :    0.111062
  23 H :    0.031371
  24 H :    0.031809
  25 C :   -0.123416
  26 H :    0.021793
  27 H :    0.023209
  28 C :   -0.030534
  29 H :    0.038014
  30 H :    0.042815
  31 H :    0.030231
  32 H :    0.028147
  33 H :    0.059392
Sum of atomic charges:   -0.0000000

LOEWDIN ATOMIC CHARGES
----------------------
   0 S :    0.435390
   1 C :   -0.207584
   2 C :   -0.079941
   3 C :   -0.058158
   4 C :   -0.208379
   5 H :    0.036668
   6 C :   -0.036926
   7 H :    0.043871
   8 H :    0.033778
   9 C :   -0.050804
  10 H :    0.029628
  11 H :    0.028259
  12 C :   -0.077586
  13 H :    0.032290
  14 H :    0.032543
  15 H :    0.023914
  16 S :    0.427270
  17 C :   -0.199454
  18 C :   -0.085993
  19 C :   -0.053944
  20 C :   -0.214065
  21 H :    0.035883
  22 C :   -0.024161
  23 H :    0.028985
  24 H :    0.035901
  25 C :   -0.047363
  26 H :    0.018375
  27 H :    0.016642
  28 C :   -0.057873
  29 H :    0.027431
  30 H :    0.032606
  31 H :    0.020936
  32 H :    0.026189
  33 H :    0.035674

  Mayer bond orders larger than 0.100000
B(  0-S ,  1-C ) :   1.1523 B(  0-S ,  4-C ) :   1.1441 B(  1-C ,  2-C ) :   1.6115
B(  1-C , 32-H ) :   0.9622 B(  2-C ,  3-C ) :   1.2573 B(  2-C ,  6-C ) :   1.0058
B(  3-C ,  4-C ) :   1.5659 B(  3-C ,  5-H ) :   0.9834 B(  4-C , 20-C ) :   1.0703
B(  6-C ,  7-H ) :   0.9361 B(  6-C ,  8-H ) :   0.9501 B(  6-C ,  9-C ) :   1.0585
B(  9-C , 10-H ) :   0.9606 B(  9-C , 11-H ) :   0.9615 B(  9-C , 12-C ) :   1.0535
B( 12-C , 13-H ) :   0.9749 B( 12-C , 14-H ) :   0.9767 B( 12-C , 15-H ) :   0.9796
B( 16-S , 17-C ) :   1.1597 B( 16-S , 20-C ) :   1.1616 B( 17-C , 18-C ) :   1.6052
B( 17-C , 20-C ) :   0.1035 B( 17-C , 33-H ) :   0.9694 B( 18-C , 19-C ) :   1.2445
B( 18-C , 21-H ) :   0.9809 B( 19-C , 20-C ) :   1.5861 B( 19-C , 22-C ) :   1.0389
B( 22-C , 23-H ) :   0.9395 B( 22-C , 24-H ) :   0.9355 B( 22-C , 25-C ) :   1.0544
B( 25-C , 26-H ) :   0.9569 B( 25-C , 27-H ) :   0.9637 B( 25-C , 28-C ) :   1.0824
B( 28-C , 29-H ) :   0.9752 B( 28-C , 30-H ) :   0.9736 B( 28-C , 31-H ) :   0.9781

Dispersion correction           -0.014575244
FINAL SINGLE POINT ENERGY     -1339.850713735904

DIPOLE MOMENT
-------------
                                X             Y             Z
Electronic contribution:     -4.01666      20.44018     -11.61531
Nuclear contribution   :      4.28418     -20.85770      12.08034
                        -----------------------------------------
Total Dipole Moment    :      0.26751      -0.41752       0.46504
                        -----------------------------------------
Magnitude (a.u.)       :      0.67981
Magnitude (Debye)      :      1.72794

Rotational constants in cm-1:     0.017950     0.008937     0.007037
Rotational constants in MHz :   538.116196   267.912923   210.962675

                             ****ORCA TERMINATED NORMALLY****
TOTAL RUN TIME: 0 days 0 hours 0 minutes 34 seconds 201 msec
