                         Program Version 4.2.1 -  RELEASE  -
|  1> ! wB97X-D3 SP def2-SVP
|  2> %pal
|  3> nprocs 16
|  4> end
|  5>
|  6> * xyz 0 1
|  7> S 	 54.6033 	 -0.972381 	 88.4488
|  8> C 	 53.0815 	 -1.71346 	 88.8837
|  9> C 	 52.059 	 -0.883291 	 88.4817
| 10> C 	 52.5232 	 0.344932 	 87.9561
| 11> C 	 53.8942 	 0.553744 	 88.1561
| 12> H 	 51.9147 	 1.15342 	 87.5619
| 13> C 	 50.629 	 -1.27567 	 88.3629
| 14> H 	 50.7061 	 -2.2684 	 87.8685
| 15> H 	 50.193 	 -0.532806 	 87.6764
| 16> C 	 49.9285 	 -1.36459 	 89.7442
| 17> H 	 50.5642 	 -1.91524 	 90.4849
| 18> H 	 49.7713 	 -0.320896 	 89.9771
| 19> C 	 48.7152 	 -2.35538 	 89.711
| 20> H 	 48.0938 	 -1.88209 	 88.9488
| 21> H 	 48.8706 	 -3.37639 	 89.4453
| 22> H 	 47.9712 	 -2.41004 	 90.5148
| 23> S 	 55.8037 	 1.4853 	 86.4483
| 24> C 	 56.1134 	 3.20926 	 86.4629
| 25> C 	 55.381 	 3.93972 	 87.43
| 26> C 	 54.4623 	 3.07887 	 88.0631
| 27> C 	 54.6685 	 1.70944 	 87.7426
| 28> H 	 55.6076 	 5.01138 	 87.453
| 29> C 	 53.3746 	 3.6136 	 89.0282
| 30> H 	 53.281 	 2.82729 	 89.6922
| 31> H 	 52.3986 	 3.76645 	 88.5187
| 32> C 	 53.823 	 4.87546 	 89.8331
| 33> H 	 53.9624 	 5.5647 	 89.1091
| 34> H 	 54.8298 	 4.6766 	 90.2988
| 35> C 	 52.7754 	 5.19255 	 90.9361
| 36> H 	 51.7722 	 5.09614 	 90.5098
| 37> H 	 53.0398 	 6.14548 	 91.4581
| 38> H 	 52.7893 	 4.5898 	 91.803
| 39> H 	 52.9847 	 -2.67247 	 89.3266
| 40> H 	 56.8547 	 3.66043 	 85.9017
| 41> *
| 42>
| 43>                          ****END OF INPUT****

CARTESIAN COORDINATES (ANGSTROEM)
---------------------------------
  S     54.603300   -0.972381   88.448800
  C     53.081500   -1.713460   88.883700
  C     52.059000   -0.883291   88.481700
  C     52.523200    0.344932   87.956100
  C     53.894200    0.553744   88.156100
  H     51.914700    1.153420   87.561900
  C     50.629000   -1.275670   88.362900
  H     50.706100   -2.268400   87.868500
  H     50.193000   -0.532806   87.676400
  C     49.928500   -1.364590   89.744200
  H     50.564200   -1.915240   90.484900
  H     49.771300   -0.320896   89.977100
  C     48.715200   -2.355380   89.711000
  H     48.093800   -1.882090   88.948800
  H     48.870600   -3.376390   89.445300
  H     47.971200   -2.410040   90.514800
  S     55.803700    1.485300   86.448300
  C     56.113400    3.209260   86.462900
  C     55.381000    3.939720   87.430000
  C     54.462300    3.078870   88.063100
  C     54.668500    1.709440   87.742600
  H     55.607600    5.011380   87.453000
  C     53.374600    3.613600   89.028200
  H     53.281000    2.827290   89.692200
  H     52.398600    3.766450   88.518700
  C     53.823000    4.875460   89.833100
  H     53.962400    5.564700   89.109100
  H     54.829800    4.676600   90.298800
  C     52.775400    5.192550   90.936100
  H     51.772200    5.096140   90.509800
  H     53.039800    6.145480   91.458100
  H     52.789300    4.589800   91.803000
  H     52.984700   -2.672470   89.326600
  H     56.854700    3.660430   85.901700

 Total Charge           Charge          ....    0
 Multiplicity           Mult            ....    1
 Number of Electrons    NEL             ....  134
 Basis Dimension        Dim             ....  322

ORBITAL ENERGIES
----------------

  NO   OCC          E(Eh)            E(eV)
   0   2.0000     -88.970598     -2421.0131
   1   2.0000     -88.963211     -2420.8120
   2   2.0000     -10.325307      -280.9659
   3   2.0000     -10.324173      -280.9350
   4   2.0000     -10.312891      -280.6280
   5   2.0000     -10.308493      -280.5084
   6   2.0000     -10.307601      -280.4841
   7   2.0000     -10.297680      -280.2141
   8   2.0000     -10.296329      -280.1773
   9   2.0000     -10.294591      -280.1301
  10   2.0000     -10.292746      -280.0799
  11   2.0000     -10.290602      -280.0215
  12   2.0000     -10.287167      -279.9281
  13   2.0000     -10.284898      -279.8663
  14   2.0000     -10.280190      -279.7382
  15   2.0000     -10.278293      -279.6866
  16   2.0000      -8.085254      -220.0110
  17   2.0000      -8.078770      -219.8345
  18   2.0000      -6.043535      -164.4530
  19   2.0000      -6.039832      -164.3522
  20   2.0000      -6.037170      -164.2798
  21   2.0000      -6.036208      -164.2536
  22   2.0000      -6.033198      -164.1717
  23   2.0000      -6.029577      -164.0731
  24   2.0000      -1.010607       -27.5000
  25   2.0000      -0.985350       -26.8127
  26   2.0000      -0.913663       -24.8620
  27   2.0000      -0.905798       -24.6480
  28   2.0000      -0.867661       -23.6103
  29   2.0000      -0.850344       -23.1390
  30   2.0000      -0.846228       -23.0270
  31   2.0000      -0.811382       -22.0788
  32   2.0000      -0.782103       -21.2821
  33   2.0000      -0.770534       -20.9673
  34   2.0000      -0.712256       -19.3815
  35   2.0000      -0.705884       -19.2081
  36   2.0000      -0.701719       -19.0947
  37   2.0000      -0.654015       -17.7967
  38   2.0000      -0.641008       -17.4427
  39   2.0000      -0.616212       -16.7680
  40   2.0000      -0.592755       -16.1297
  41   2.0000      -0.574974       -15.6458
  42   2.0000      -0.568887       -15.4802
  43   2.0000      -0.561416       -15.2769
  44   2.0000      -0.525592       -14.3021
  45   2.0000      -0.524876       -14.2826
  46   2.0000      -0.515758       -14.0345
  47   2.0000      -0.513029       -13.9602
  48   2.0000      -0.507142       -13.8000
  49   2.0000      -0.499207       -13.5841
  50   2.0000      -0.488108       -13.2821
  51   2.0000      -0.482851       -13.1390
  52   2.0000      -0.478010       -13.0073
  53   2.0000      -0.469629       -12.7793
  54   2.0000      -0.461552       -12.5595
  55   2.0000      -0.448854       -12.2140
  56   2.0000      -0.442969       -12.0538
  57   2.0000      -0.437610       -11.9080
  58   2.0000      -0.431442       -11.7401
  59   2.0000      -0.426871       -11.6158
  60   2.0000      -0.424390       -11.5482
  61   2.0000      -0.409364       -11.1394
  62   2.0000      -0.403139       -10.9700
  63   2.0000      -0.344241        -9.3673
  64   2.0000      -0.330612        -8.9964
  65   2.0000      -0.325087        -8.8461
  66   2.0000      -0.285706        -7.7745
  67   0.0000       0.025784         0.7016
  68   0.0000       0.062416         1.6984
  69   0.0000       0.106844         2.9074
  70   0.0000       0.121667         3.3107
  71   0.0000       0.129808         3.5323

MULLIKEN ATOMIC CHARGES
-----------------------
   0 S :    0.103860
   1 C :   -0.111726
   2 C :   -0.088185
   3 C :    0.017518
   4 C :   -0.167674
   5 H :    0.014499
   6 C :    0.049042
   7 H :    0.039277
   8 H :    0.031502
   9 C :   -0.060430
  10 H :    0.042261
  11 H :    0.038631
  12 C :   -0.060892
  13 H :    0.017488
  14 H :    0.035235
  15 H :    0.031274
  16 S :    0.126699
  17 C :   -0.073173
  18 C :   -0.065723
  19 C :   -0.048976
  20 C :   -0.143855
  21 H :    0.035826
  22 C :    0.075162
  23 H :    0.012846
  24 H :    0.047193
  25 C :   -0.078779
  26 H :    0.015557
  27 H :    0.040092
  28 C :   -0.025125
  29 H :    0.035121
  30 H :    0.033559
  31 H :    0.021674
  32 H :    0.035897
  33 H :    0.024325
Sum of atomic charges:   -0.0000000

LOEWDIN ATOMIC CHARGES
----------------------
   0 S :    0.425512
   1 C :   -0.195597
   2 C :   -0.067648
   3 C :   -0.067361
   4 C :   -0.210977
   5 H :    0.029281
   6 C :   -0.032929
   7 H :    0.036579
   8 H :    0.032358
   9 C :   -0.033869
  10 H :    0.028690
  11 H :    0.028657
  12 C :   -0.078817
  13 H :    0.024406
  14 H :    0.022790
  15 H :    0.027100
  16 S :    0.422751
  17 C :   -0.174069
  18 C :   -0.073937
  19 C :   -0.049232
  20 C :   -0.214007
  21 H :    0.040658
  22 C :   -0.026135
  23 H :    0.019121
  24 H :    0.033644
  25 C :   -0.030688
  26 H :    0.003811
  27 H :    0.033739
  28 C :   -0.066851
  29 H :    0.027523
  30 H :    0.033721
  31 H :    0.021640
  32 H :    0.021839
  33 H :    0.008298

  Mayer bond orders larger than 0.100000
B(  0-S ,  1-C ) :   1.1494 B(  0-S ,  4-C ) :   1.1821 B(  1-C ,  2-C ) :   1.5628
B(  1-C ,  4-C ) :   0.1086 B(  1-C , 32-H ) :   0.9805 B(  2-C ,  3-C ) :   1.2839
B(  2-C ,  6-C ) :   1.0094 B(  3-C ,  4-C ) :   1.5099 B(  3-C ,  5-H ) :   0.9911
B(  4-C , 20-C ) :   1.0451 B(  6-C ,  7-H ) :   0.9445 B(  6-C ,  8-H ) :   0.9444
B(  6-C ,  9-C ) :   1.0380 B(  9-C , 10-H ) :   0.9704 B(  9-C , 11-H ) :   0.9601
B(  9-C , 12-C ) :   1.0493 B( 12-C , 13-H ) :   0.9734 B( 12-C , 14-H ) :   0.9800
B( 12-C , 15-H ) :   0.9772 B( 16-S , 17-C ) :   1.1739 B( 16-S , 20-C ) :   1.1580
B( 17-C , 18-C ) :   1.5939 B( 17-C , 20-C ) :   0.1112 B( 17-C , 33-H ) :   0.9695
B( 18-C , 19-C ) :   1.2467 B( 18-C , 21-H ) :   0.9905 B( 19-C , 20-C ) :   1.5777
B( 19-C , 22-C ) :   1.0242 B( 22-C , 23-H ) :   0.9325 B( 22-C , 24-H ) :   0.9313
B( 22-C , 25-C ) :   1.0684 B( 25-C , 26-H ) :   0.9539 B( 25-C , 27-H ) :   0.9593
B( 25-C , 28-C ) :   1.0765 B( 28-C , 29-H ) :   0.9740 B( 28-C , 30-H ) :   0.9709
B( 28-C , 31-H ) :   0.9741

Dispersion correction           -0.013424396
FINAL SINGLE POINT ENERGY     -1339.835276796882

DIPOLE MOMENT
-------------
                                X             Y             Z
Electronic contribution:     24.66579      -6.94450     -14.85518
Nuclear contribution   :    -25.17339       7.20408      14.93875
                        -----------------------------------------
Total Dipole Moment    :     -0.50760       0.25958       0.08357
                        -----------------------------------------
Magnitude (a.u.)       :      0.57622
Magnitude (Debye)      :      1.46463

Rotational constants in cm-1:     0.017718     0.008122     0.006041
Rotational constants in MHz :   531.175811   243.486303   181.101924

                             ****ORCA TERMINATED NORMALLY****
TOTAL RUN TIME: 0 days 0 hours 0 minutes 30 seconds 615 msec
