                         Program Version 4.2.1 -  RELEASE  -
|  1> ! wB97X-D3 SP def2-SVP
|  2> %pal
|  3> nprocs 16
|  4> end
|  5>
|  6> * xyz 0 1
|  7> S 	 46.0636 	 22.758 	 88.6489
|  8> C 	 47.1529 	 24.0616 	 89.2124
|  9> C 	 47.4834 	 23.8578 	 90.5234
| 10> C 	 46.963 	 22.628 	 91.0949
| 11> C 	 46.2367 	 21.8989 	 90.1214
| 12> H 	 47.1771 	 22.3409 	 92.1152
| 13> C 	 48.2331 	 24.8754 	 91.2808
| 14> H 	 48.307 	 24.4984 	 92.3057
| 15> H 	 47.6862 	 25.7932 	 91.1018
| 16> C 	 49.693 	 25.072 	 90.8385
| 17> H 	 50.2555 	 24.1292 	 90.9847
| 18> H 	 49.8654 	 25.1089 	 89.7771
| 19> C 	 50.5502 	 26.0938 	 91.6604
| 20> H 	 50.6554 	 25.85 	 92.7137
| 21> H 	 51.5542 	 26.1117 	 91.2331
| 22> H 	 50.036 	 27.0071 	 91.5749
| 23> S 	 44.9696 	 20.1652 	 91.8037
| 24> C 	 44.5321 	 18.5801 	 91.228
| 25> C 	 45.1194 	 18.2756 	 90.0577
| 26> C 	 45.8512 	 19.386 	 89.4536
| 27> C 	 45.838 	 20.5211 	 90.2871
| 28> H 	 45.0159 	 17.3032 	 89.6366
| 29> C 	 46.465 	 19.3539 	 88.1207
| 30> H 	 47.3013 	 20.0888 	 88.0812
| 31> H 	 45.6741 	 19.6752 	 87.3917
| 32> C 	 47.061 	 18.1125 	 87.5808
| 33> H 	 47.4379 	 18.2027 	 86.5797
| 34> H 	 46.3279 	 17.2661 	 87.6142
| 35> C 	 48.3019 	 17.5584 	 88.3537
| 36> H 	 48.0741 	 17.4004 	 89.4274
| 37> H 	 49.1426 	 18.2243 	 88.4286
| 38> H 	 48.5388 	 16.617 	 87.8823
| 39> H 	 47.4814 	 24.8069 	 88.6068
| 40> H 	 43.925 	 17.8866 	 91.7772
| 41> *
| 42>
| 43>                          ****END OF INPUT****

CARTESIAN COORDINATES (ANGSTROEM)
---------------------------------
  S     46.063600   22.758000   88.648900
  C     47.152900   24.061600   89.212400
  C     47.483400   23.857800   90.523400
  C     46.963000   22.628000   91.094900
  C     46.236700   21.898900   90.121400
  H     47.177100   22.340900   92.115200
  C     48.233100   24.875400   91.280800
  H     48.307000   24.498400   92.305700
  H     47.686200   25.793200   91.101800
  C     49.693000   25.072000   90.838500
  H     50.255500   24.129200   90.984700
  H     49.865400   25.108900   89.777100
  C     50.550200   26.093800   91.660400
  H     50.655400   25.850000   92.713700
  H     51.554200   26.111700   91.233100
  H     50.036000   27.007100   91.574900
  S     44.969600   20.165200   91.803700
  C     44.532100   18.580100   91.228000
  C     45.119400   18.275600   90.057700
  C     45.851200   19.386000   89.453600
  C     45.838000   20.521100   90.287100
  H     45.015900   17.303200   89.636600
  C     46.465000   19.353900   88.120700
  H     47.301300   20.088800   88.081200
  H     45.674100   19.675200   87.391700
  C     47.061000   18.112500   87.580800
  H     47.437900   18.202700   86.579700
  H     46.327900   17.266100   87.614200
  C     48.301900   17.558400   88.353700
  H     48.074100   17.400400   89.427400
  H     49.142600   18.224300   88.428600
  H     48.538800   16.617000   87.882300
  H     47.481400   24.806900   88.606800
  H     43.925000   17.886600   91.777200

 Total Charge           Charge          ....    0
 Multiplicity           Mult            ....    1
 Number of Electrons    NEL             ....  134
 Basis Dimension        Dim             ....  322

ORBITAL ENERGIES
----------------

  NO   OCC          E(Eh)            E(eV)
   0   2.0000     -88.968170     -2420.9470
   1   2.0000     -88.961621     -2420.7688
   2   2.0000     -10.332216      -281.1539
   3   2.0000     -10.328051      -281.0406
   4   2.0000     -10.313765      -280.6518
   5   2.0000     -10.307585      -280.4837
   6   2.0000     -10.305366      -280.4233
   7   2.0000     -10.298011      -280.2231
   8   2.0000     -10.297706      -280.2148
   9   2.0000     -10.291523      -280.0466
  10   2.0000     -10.289956      -280.0039
  11   2.0000     -10.288969      -279.9771
  12   2.0000     -10.285874      -279.8928
  13   2.0000     -10.285559      -279.8843
  14   2.0000     -10.277033      -279.6523
  15   2.0000     -10.272702      -279.5344
  16   2.0000      -8.082492      -219.9358
  17   2.0000      -8.076277      -219.7667
  18   2.0000      -6.040998      -164.3839
  19   2.0000      -6.037001      -164.2752
  20   2.0000      -6.034856      -164.2168
  21   2.0000      -6.033341      -164.1756
  22   2.0000      -6.030868      -164.1083
  23   2.0000      -6.026903      -164.0004
  24   2.0000      -1.004790       -27.3417
  25   2.0000      -0.982054       -26.7230
  26   2.0000      -0.915664       -24.9165
  27   2.0000      -0.914704       -24.8904
  28   2.0000      -0.870634       -23.6911
  29   2.0000      -0.850245       -23.1363
  30   2.0000      -0.843910       -22.9640
  31   2.0000      -0.814806       -22.1720
  32   2.0000      -0.785546       -21.3758
  33   2.0000      -0.773396       -21.0452
  34   2.0000      -0.712531       -19.3890
  35   2.0000      -0.705146       -19.1880
  36   2.0000      -0.693101       -18.8602
  37   2.0000      -0.659240       -17.9388
  38   2.0000      -0.641485       -17.4557
  39   2.0000      -0.613310       -16.6890
  40   2.0000      -0.601233       -16.3604
  41   2.0000      -0.574031       -15.6202
  42   2.0000      -0.563178       -15.3249
  43   2.0000      -0.554989       -15.1020
  44   2.0000      -0.544418       -14.8144
  45   2.0000      -0.529582       -14.4107
  46   2.0000      -0.521186       -14.1822
  47   2.0000      -0.515730       -14.0337
  48   2.0000      -0.505723       -13.7614
  49   2.0000      -0.503039       -13.6884
  50   2.0000      -0.495110       -13.4726
  51   2.0000      -0.476706       -12.9718
  52   2.0000      -0.473919       -12.8960
  53   2.0000      -0.468563       -12.7502
  54   2.0000      -0.460633       -12.5345
  55   2.0000      -0.452593       -12.3157
  56   2.0000      -0.443770       -12.0756
  57   2.0000      -0.438398       -11.9294
  58   2.0000      -0.429401       -11.6846
  59   2.0000      -0.420517       -11.4428
  60   2.0000      -0.417870       -11.3708
  61   2.0000      -0.410332       -11.1657
  62   2.0000      -0.405081       -11.0228
  63   2.0000      -0.350738        -9.5441
  64   2.0000      -0.329034        -8.9535
  65   2.0000      -0.325316        -8.8523
  66   2.0000      -0.285873        -7.7790
  67   0.0000       0.023341         0.6351
  68   0.0000       0.076686         2.0867
  69   0.0000       0.107275         2.9191
  70   0.0000       0.113595         3.0911
  71   0.0000       0.131540         3.5794

MULLIKEN ATOMIC CHARGES
-----------------------
   0 S :    0.112486
   1 C :   -0.113286
   2 C :   -0.082885
   3 C :    0.022118
   4 C :   -0.123814
   5 H :    0.016236
   6 C :    0.105251
   7 H :    0.019844
   8 H :    0.043198
   9 C :   -0.124665
  10 H :    0.014975
  11 H :    0.018553
  12 C :   -0.017434
  13 H :    0.032419
  14 H :    0.038974
  15 H :    0.021835
  16 S :    0.089562
  17 C :   -0.069479
  18 C :   -0.020512
  19 C :   -0.046156
  20 C :   -0.148418
  21 H :    0.008719
  22 C :    0.050936
  23 H :    0.037236
  24 H :    0.054026
  25 C :   -0.082004
  26 H :    0.031064
  27 H :    0.025194
  28 C :   -0.064510
  29 H :    0.031307
  30 H :    0.026214
  31 H :    0.034550
  32 H :    0.009404
  33 H :    0.049066
Sum of atomic charges:   -0.0000000

LOEWDIN ATOMIC CHARGES
----------------------
   0 S :    0.418382
   1 C :   -0.178460
   2 C :   -0.055149
   3 C :   -0.067718
   4 C :   -0.201525
   5 H :    0.029259
   6 C :   -0.031406
   7 H :    0.034507
   8 H :    0.036418
   9 C :   -0.049811
  10 H :    0.025816
  11 H :    0.018370
  12 C :   -0.057611
  13 H :    0.025050
  14 H :    0.031170
  15 H :    0.015856
  16 S :    0.390056
  17 C :   -0.175052
  18 C :   -0.070613
  19 C :   -0.052108
  20 C :   -0.185406
  21 H :    0.027700
  22 C :   -0.051567
  23 H :    0.035463
  24 H :    0.044412
  25 C :   -0.042750
  26 H :    0.026761
  27 H :    0.022749
  28 C :   -0.066841
  29 H :    0.026049
  30 H :    0.019680
  31 H :    0.024954
  32 H :    0.005615
  33 H :    0.027749

  Mayer bond orders larger than 0.100000
B(  0-S ,  1-C ) :   1.1161 B(  0-S ,  4-C ) :   1.1773 B(  1-C ,  2-C ) :   1.5928
B(  1-C , 32-H ) :   0.9903 B(  2-C ,  3-C ) :   1.2658 B(  2-C ,  6-C ) :   1.0260
B(  3-C ,  4-C ) :   1.5026 B(  3-C ,  5-H ) :   0.9908 B(  4-C , 20-C ) :   1.0478
B(  6-C ,  7-H ) :   0.9353 B(  6-C ,  8-H ) :   0.9372 B(  6-C ,  9-C ) :   1.0621
B(  9-C , 10-H ) :   0.9504 B(  9-C , 11-H ) :   0.9597 B(  9-C , 12-C ) :   1.0751
B( 12-C , 13-H ) :   0.9765 B( 12-C , 14-H ) :   0.9740 B( 12-C , 15-H ) :   0.9783
B( 16-S , 17-C ) :   1.1443 B( 16-S , 20-C ) :   1.1222 B( 17-C , 18-C ) :   1.6428
B( 17-C , 33-H ) :   0.9651 B( 18-C , 19-C ) :   1.1973 B( 18-C , 21-H ) :   0.9953
B( 19-C , 20-C ) :   1.5996 B( 19-C , 22-C ) :   1.0516 B( 22-C , 23-H ) :   0.9317
B( 22-C , 24-H ) :   0.9183 B( 22-C , 25-C ) :   1.0949 B( 25-C , 26-H ) :   0.9515
B( 25-C , 27-H ) :   0.9480 B( 25-C , 28-C ) :   1.0750 B( 28-C , 29-H ) :   0.9752
B( 28-C , 30-H ) :   0.9748 B( 28-C , 31-H ) :   0.9764

Dispersion correction           -0.013890275
FINAL SINGLE POINT ENERGY     -1339.870406760175

DIPOLE MOMENT
-------------
                                X             Y             Z
Electronic contribution:    -20.96943      -1.98274       3.12558
Nuclear contribution   :     21.34729       1.89362      -3.24709
                        -----------------------------------------
Total Dipole Moment    :      0.37785      -0.08911      -0.12151
                        -----------------------------------------
Magnitude (a.u.)       :      0.40679
Magnitude (Debye)      :      1.03398

Rotational constants in cm-1:     0.021485     0.007132     0.006409
Rotational constants in MHz :   644.111928   213.815748   192.147142

                             ****ORCA TERMINATED NORMALLY****
TOTAL RUN TIME: 0 days 0 hours 0 minutes 29 seconds 72 msec
