                         Program Version 4.2.1 -  RELEASE  -
|  1> ! wB97X-D3 SP def2-SVP
|  2> %pal
|  3> nprocs 16
|  4> end
|  5>
|  6> * xyz 0 1
|  7> S 	 48.4836 	 7.50371 	 84.207
|  8> C 	 48.2794 	 9.26895 	 84.3083
|  9> C 	 49.4106 	 9.80194 	 84.9364
| 10> C 	 50.4139 	 8.88866 	 85.1677
| 11> C 	 50.0225 	 7.60441 	 84.9171
| 12> H 	 51.3553 	 9.09018 	 85.6771
| 13> C 	 49.4884 	 11.3424 	 85.2122
| 14> H 	 49.581 	 11.8787 	 84.2327
| 15> H 	 50.4019 	 11.6213 	 85.7576
| 16> C 	 48.2727 	 11.9134 	 85.8611
| 17> H 	 47.3023 	 11.641 	 85.4755
| 18> H 	 48.2568 	 11.3961 	 86.7908
| 19> C 	 48.234 	 13.4304 	 86.1025
| 20> H 	 49.1708 	 13.8275 	 86.4803
| 21> H 	 48.0386 	 13.9562 	 85.1557
| 22> H 	 47.4507 	 13.6318 	 86.8377
| 23> S 	 51.0196 	 5.31015 	 83.712
| 24> C 	 51.8567 	 4.08472 	 84.6417
| 25> C 	 52.1678 	 4.55878 	 85.8911
| 26> C 	 51.5962 	 5.88496 	 86.138
| 27> C 	 50.7659 	 6.31602 	 85.0693
| 28> H 	 52.7372 	 3.91763 	 86.5306
| 29> C 	 51.7999 	 6.5377 	 87.4915
| 30> H 	 51.233 	 6.00367 	 88.2692
| 31> H 	 51.3818 	 7.56618 	 87.5163
| 32> C 	 53.2593 	 6.64067 	 88.0035
| 33> H 	 53.7731 	 7.20833 	 87.3025
| 34> H 	 53.6768 	 5.60862 	 87.9538
| 35> C 	 53.4096 	 7.19329 	 89.3956
| 36> H 	 54.423 	 7.49143 	 89.6539
| 37> H 	 53.0458 	 6.38356 	 90.0838
| 38> H 	 52.8187 	 8.06081 	 89.5732
| 39> H 	 47.4032 	 9.83659 	 83.9915
| 40> H 	 52.2817 	 3.14107 	 84.1781
| 41> *
| 42>
| 43>                          ****END OF INPUT****

CARTESIAN COORDINATES (ANGSTROEM)
---------------------------------
  S     48.483600    7.503710   84.207000
  C     48.279400    9.268950   84.308300
  C     49.410600    9.801940   84.936400
  C     50.413900    8.888660   85.167700
  C     50.022500    7.604410   84.917100
  H     51.355300    9.090180   85.677100
  C     49.488400   11.342400   85.212200
  H     49.581000   11.878700   84.232700
  H     50.401900   11.621300   85.757600
  C     48.272700   11.913400   85.861100
  H     47.302300   11.641000   85.475500
  H     48.256800   11.396100   86.790800
  C     48.234000   13.430400   86.102500
  H     49.170800   13.827500   86.480300
  H     48.038600   13.956200   85.155700
  H     47.450700   13.631800   86.837700
  S     51.019600    5.310150   83.712000
  C     51.856700    4.084720   84.641700
  C     52.167800    4.558780   85.891100
  C     51.596200    5.884960   86.138000
  C     50.765900    6.316020   85.069300
  H     52.737200    3.917630   86.530600
  C     51.799900    6.537700   87.491500
  H     51.233000    6.003670   88.269200
  H     51.381800    7.566180   87.516300
  C     53.259300    6.640670   88.003500
  H     53.773100    7.208330   87.302500
  H     53.676800    5.608620   87.953800
  C     53.409600    7.193290   89.395600
  H     54.423000    7.491430   89.653900
  H     53.045800    6.383560   90.083800
  H     52.818700    8.060810   89.573200
  H     47.403200    9.836590   83.991500
  H     52.281700    3.141070   84.178100

 Total Charge           Charge          ....    0
 Multiplicity           Mult            ....    1
 Number of Electrons    NEL             ....  134
 Basis Dimension        Dim             ....  322

ORBITAL ENERGIES
----------------

  NO   OCC          E(Eh)            E(eV)
   0   2.0000     -88.968250     -2420.9491
   1   2.0000     -88.964878     -2420.8574
   2   2.0000     -10.330372      -281.1037
   3   2.0000     -10.328228      -281.0454
   4   2.0000     -10.321072      -280.8507
   5   2.0000     -10.315567      -280.7008
   6   2.0000     -10.310910      -280.5741
   7   2.0000     -10.302245      -280.3383
   8   2.0000     -10.296516      -280.1825
   9   2.0000     -10.296494      -280.1818
  10   2.0000     -10.292574      -280.0752
  11   2.0000     -10.290123      -280.0085
  12   2.0000     -10.282237      -279.7939
  13   2.0000     -10.280313      -279.7415
  14   2.0000     -10.279129      -279.7093
  15   2.0000     -10.278220      -279.6846
  16   2.0000      -8.083309      -219.9580
  17   2.0000      -8.080324      -219.8768
  18   2.0000      -6.041621      -164.4009
  19   2.0000      -6.038807      -164.3243
  20   2.0000      -6.037661      -164.2931
  21   2.0000      -6.034705      -164.2127
  22   2.0000      -6.034351      -164.2030
  23   2.0000      -6.031078      -164.1140
  24   2.0000      -1.012277       -27.5455
  25   2.0000      -0.987939       -26.8832
  26   2.0000      -0.914425       -24.8828
  27   2.0000      -0.909814       -24.7573
  28   2.0000      -0.868223       -23.6256
  29   2.0000      -0.852572       -23.1997
  30   2.0000      -0.847195       -23.0533
  31   2.0000      -0.817227       -22.2379
  32   2.0000      -0.783796       -21.3282
  33   2.0000      -0.768942       -20.9240
  34   2.0000      -0.704249       -19.1636
  35   2.0000      -0.702173       -19.1071
  36   2.0000      -0.689957       -18.7747
  37   2.0000      -0.656304       -17.8589
  38   2.0000      -0.639958       -17.4141
  39   2.0000      -0.623104       -16.9555
  40   2.0000      -0.597179       -16.2501
  41   2.0000      -0.573803       -15.6140
  42   2.0000      -0.570387       -15.5210
  43   2.0000      -0.561391       -15.2762
  44   2.0000      -0.526473       -14.3261
  45   2.0000      -0.523242       -14.2381
  46   2.0000      -0.519948       -14.1485
  47   2.0000      -0.513881       -13.9834
  48   2.0000      -0.500754       -13.6262
  49   2.0000      -0.498821       -13.5736
  50   2.0000      -0.491626       -13.3778
  51   2.0000      -0.481481       -13.1018
  52   2.0000      -0.476337       -12.9618
  53   2.0000      -0.466190       -12.6857
  54   2.0000      -0.461815       -12.5666
  55   2.0000      -0.451872       -12.2960
  56   2.0000      -0.446522       -12.1505
  57   2.0000      -0.443374       -12.0648
  58   2.0000      -0.428892       -11.6708
  59   2.0000      -0.424650       -11.5553
  60   2.0000      -0.419654       -11.4194
  61   2.0000      -0.416440       -11.3319
  62   2.0000      -0.410328       -11.1656
  63   2.0000      -0.346591        -9.4312
  64   2.0000      -0.337542        -9.1850
  65   2.0000      -0.325006        -8.8439
  66   2.0000      -0.293470        -7.9857
  67   0.0000       0.030253         0.8232
  68   0.0000       0.071246         1.9387
  69   0.0000       0.111219         3.0264
  70   0.0000       0.116129         3.1600
  71   0.0000       0.131849         3.5878

MULLIKEN ATOMIC CHARGES
-----------------------
   0 S :    0.120872
   1 C :   -0.142848
   2 C :   -0.076444
   3 C :    0.042249
   4 C :   -0.176613
   5 H :    0.013044
   6 C :    0.078516
   7 H :    0.035183
   8 H :    0.019566
   9 C :   -0.096246
  10 H :    0.019964
  11 H :    0.014465
  12 C :   -0.035411
  13 H :    0.022615
  14 H :    0.034455
  15 H :    0.039407
  16 S :    0.112045
  17 C :   -0.121499
  18 C :   -0.031418
  19 C :   -0.021652
  20 C :   -0.118955
  21 H :    0.019923
  22 C :    0.029936
  23 H :    0.034004
  24 H :    0.016223
  25 C :   -0.078008
  26 H :    0.012602
  27 H :    0.029105
  28 C :   -0.027559
  29 H :    0.036873
  30 H :    0.035816
  31 H :    0.019492
  32 H :    0.058048
  33 H :    0.082248
Sum of atomic charges:    0.0000000

LOEWDIN ATOMIC CHARGES
----------------------
   0 S :    0.431731
   1 C :   -0.198273
   2 C :   -0.058091
   3 C :   -0.073805
   4 C :   -0.200777
   5 H :    0.035378
   6 C :   -0.030529
   7 H :    0.033062
   8 H :    0.028526
   9 C :   -0.051541
  10 H :    0.021335
  11 H :    0.021258
  12 C :   -0.060378
  13 H :    0.020885
  14 H :    0.026072
  15 H :    0.030977
  16 S :    0.421763
  17 C :   -0.195962
  18 C :   -0.069821
  19 C :   -0.054513
  20 C :   -0.218547
  21 H :    0.029253
  22 C :   -0.038038
  23 H :    0.031793
  24 H :    0.026870
  25 C :   -0.038876
  26 H :    0.012098
  27 H :    0.025012
  28 C :   -0.062692
  29 H :    0.028593
  30 H :    0.033268
  31 H :    0.019381
  32 H :    0.030294
  33 H :    0.044293

  Mayer bond orders larger than 0.100000
B(  0-S ,  1-C ) :   1.1451 B(  0-S ,  4-C ) :   1.1982 B(  1-C ,  2-C ) :   1.5658
B(  1-C ,  4-C ) :   0.1118 B(  1-C , 32-H ) :   0.9734 B(  2-C ,  3-C ) :   1.2910
B(  2-C ,  6-C ) :   1.0065 B(  3-C ,  4-C ) :   1.5425 B(  3-C ,  5-H ) :   0.9919
B(  4-C , 20-C ) :   0.9894 B(  6-C ,  7-H ) :   0.9408 B(  6-C ,  8-H ) :   0.9456
B(  6-C ,  9-C ) :   1.0560 B(  9-C , 10-H ) :   0.9533 B(  9-C , 11-H ) :   0.9530
B(  9-C , 12-C ) :   1.0877 B( 12-C , 13-H ) :   0.9746 B( 12-C , 14-H ) :   0.9744
B( 12-C , 15-H ) :   0.9741 B( 16-S , 17-C ) :   1.1541 B( 16-S , 20-C ) :   1.1655
B( 17-C , 18-C ) :   1.6161 B( 17-C , 33-H ) :   0.9588 B( 18-C , 19-C ) :   1.2227
B( 18-C , 21-H ) :   0.9939 B( 19-C , 20-C ) :   1.5732 B( 19-C , 22-C ) :   1.0541
B( 22-C , 23-H ) :   0.9397 B( 22-C , 24-H ) :   0.9345 B( 22-C , 25-C ) :   1.0523
B( 25-C , 26-H ) :   0.9558 B( 25-C , 27-H ) :   0.9546 B( 25-C , 28-C ) :   1.0890
B( 28-C , 29-H ) :   0.9732 B( 28-C , 30-H ) :   0.9728 B( 28-C , 31-H ) :   0.9733

Dispersion correction           -0.013291827
FINAL SINGLE POINT ENERGY     -1339.879873785448

DIPOLE MOMENT
-------------
                                X             Y             Z
Electronic contribution:     -6.01003     -21.34021     -20.85169
Nuclear contribution   :      6.31346      21.66816      21.32472
                        -----------------------------------------
Total Dipole Moment    :      0.30343       0.32795       0.47303
                        -----------------------------------------
Magnitude (a.u.)       :      0.65068
Magnitude (Debye)      :      1.65389

Rotational constants in cm-1:     0.018373     0.007908     0.005784
Rotational constants in MHz :   550.794788   237.065967   173.390044

                             ****ORCA TERMINATED NORMALLY****
TOTAL RUN TIME: 0 days 0 hours 0 minutes 29 seconds 113 msec
