                         Program Version 4.2.1 -  RELEASE  -
|  1> ! wB97X-D3 SP def2-SVP
|  2> %pal
|  3> nprocs 16
|  4> end
|  5>
|  6> * xyz 0 1
|  7> S 	 -32.288 	 4.34763 	 100.52
|  8> C 	 -32.3058 	 2.59211 	 100.878
|  9> C 	 -31.0753 	 2.16905 	 101.335
| 10> C 	 -30.1111 	 3.21944 	 101.3
| 11> C 	 -30.5765 	 4.4566 	 100.9
| 12> H 	 -29.0855 	 3.10325 	 101.432
| 13> C 	 -30.7748 	 0.723519 	 101.73
| 14> H 	 -29.9462 	 0.441909 	 101.074
| 15> H 	 -31.7501 	 0.149199 	 101.587
| 16> C 	 -30.4026 	 0.542376 	 103.249
| 17> H 	 -31.2477 	 0.953118 	 103.867
| 18> H 	 -30.2899 	 -0.524563 	 103.467
| 19> C 	 -29.0084 	 1.03985 	 103.541
| 20> H 	 -28.3033 	 0.672212 	 102.88
| 21> H 	 -28.8972 	 2.05661 	 103.443
| 22> H 	 -28.6634 	 0.757567 	 104.545
| 23> S 	 -28.3128 	 5.60641 	 99.9642
| 24> C 	 -27.7705 	 7.2092 	 100.45
| 25> C 	 -28.7117 	 7.73409 	 101.341
| 26> C 	 -29.8299 	 6.8667 	 101.58
| 27> C 	 -29.7841 	 5.64912 	 100.928
| 28> H 	 -28.5162 	 8.64192 	 101.967
| 29> C 	 -30.8863 	 7.17997 	 102.632
| 30> H 	 -31.8612 	 6.64057 	 102.436
| 31> H 	 -31.1699 	 8.17783 	 102.508
| 32> C 	 -30.4461 	 6.87125 	 104.026
| 33> H 	 -29.6734 	 7.61541 	 104.476
| 34> H 	 -29.9985 	 5.82597 	 104.034
| 35> C 	 -31.5993 	 6.85217 	 104.929
| 36> H 	 -32.1699 	 5.88024 	 104.896
| 37> H 	 -32.3871 	 7.58132 	 104.786
| 38> H 	 -31.2262 	 6.80403 	 105.969
| 39> H 	 -33.1139 	 1.89755 	 100.857
| 40> H 	 -26.8063 	 7.63569 	 100.286
| 41> *
| 42>
| 43>                          ****END OF INPUT****

CARTESIAN COORDINATES (ANGSTROEM)
---------------------------------
  S    -32.288000    4.347630  100.520000
  C    -32.305800    2.592110  100.878000
  C    -31.075300    2.169050  101.335000
  C    -30.111100    3.219440  101.300000
  C    -30.576500    4.456600  100.900000
  H    -29.085500    3.103250  101.432000
  C    -30.774800    0.723519  101.730000
  H    -29.946200    0.441909  101.074000
  H    -31.750100    0.149199  101.587000
  C    -30.402600    0.542376  103.249000
  H    -31.247700    0.953118  103.867000
  H    -30.289900   -0.524563  103.467000
  C    -29.008400    1.039850  103.541000
  H    -28.303300    0.672212  102.880000
  H    -28.897200    2.056610  103.443000
  H    -28.663400    0.757567  104.545000
  S    -28.312800    5.606410   99.964200
  C    -27.770500    7.209200  100.450000
  C    -28.711700    7.734090  101.341000
  C    -29.829900    6.866700  101.580000
  C    -29.784100    5.649120  100.928000
  H    -28.516200    8.641920  101.967000
  C    -30.886300    7.179970  102.632000
  H    -31.861200    6.640570  102.436000
  H    -31.169900    8.177830  102.508000
  C    -30.446100    6.871250  104.026000
  H    -29.673400    7.615410  104.476000
  H    -29.998500    5.825970  104.034000
  C    -31.599300    6.852170  104.929000
  H    -32.169900    5.880240  104.896000
  H    -32.387100    7.581320  104.786000
  H    -31.226200    6.804030  105.969000
  H    -33.113900    1.897550  100.857000
  H    -26.806300    7.635690  100.286000

 Total Charge           Charge          ....    0
 Multiplicity           Mult            ....    1
 Number of Electrons    NEL             ....  134
 Basis Dimension        Dim             ....  322

ORBITAL ENERGIES
----------------

  NO   OCC          E(Eh)            E(eV)
   0   2.0000     -88.971368     -2421.0340
   1   2.0000     -88.963717     -2420.8258
   2   2.0000     -10.331962      -281.1470
   3   2.0000     -10.326544      -280.9995
   4   2.0000     -10.320628      -280.8386
   5   2.0000     -10.316601      -280.7290
   6   2.0000     -10.303582      -280.3747
   7   2.0000     -10.302327      -280.3406
   8   2.0000     -10.302130      -280.3352
   9   2.0000     -10.300582      -280.2931
  10   2.0000     -10.293465      -280.0994
  11   2.0000     -10.290976      -280.0317
  12   2.0000     -10.288148      -279.9548
  13   2.0000     -10.284178      -279.8467
  14   2.0000     -10.273206      -279.5481
  15   2.0000     -10.265389      -279.3354
  16   2.0000      -8.084691      -219.9956
  17   2.0000      -8.078041      -219.8147
  18   2.0000      -6.043344      -164.4478
  19   2.0000      -6.039416      -164.3409
  20   2.0000      -6.036654      -164.2657
  21   2.0000      -6.035341      -164.2300
  22   2.0000      -6.032402      -164.1500
  23   2.0000      -6.028899      -164.0547
  24   2.0000      -1.006670       -27.3929
  25   2.0000      -0.981968       -26.7207
  26   2.0000      -0.916605       -24.9421
  27   2.0000      -0.912305       -24.8251
  28   2.0000      -0.875246       -23.8167
  29   2.0000      -0.851450       -23.1691
  30   2.0000      -0.846437       -23.0327
  31   2.0000      -0.816232       -22.2108
  32   2.0000      -0.783853       -21.3297
  33   2.0000      -0.771050       -20.9813
  34   2.0000      -0.709307       -19.3012
  35   2.0000      -0.704118       -19.1600
  36   2.0000      -0.687401       -18.7051
  37   2.0000      -0.667172       -18.1547
  38   2.0000      -0.640358       -17.4250
  39   2.0000      -0.614297       -16.7159
  40   2.0000      -0.596003       -16.2181
  41   2.0000      -0.576343       -15.6831
  42   2.0000      -0.563440       -15.3320
  43   2.0000      -0.552088       -15.0231
  44   2.0000      -0.542886       -14.7727
  45   2.0000      -0.531550       -14.4642
  46   2.0000      -0.519205       -14.1283
  47   2.0000      -0.515512       -14.0278
  48   2.0000      -0.509417       -13.8620
  49   2.0000      -0.496650       -13.5145
  50   2.0000      -0.495195       -13.4749
  51   2.0000      -0.491090       -13.3633
  52   2.0000      -0.469916       -12.7871
  53   2.0000      -0.464547       -12.6410
  54   2.0000      -0.455871       -12.4049
  55   2.0000      -0.447770       -12.1844
  56   2.0000      -0.442114       -12.0305
  57   2.0000      -0.436439       -11.8761
  58   2.0000      -0.434036       -11.8107
  59   2.0000      -0.421236       -11.4624
  60   2.0000      -0.416174       -11.3247
  61   2.0000      -0.413656       -11.2562
  62   2.0000      -0.401430       -10.9235
  63   2.0000      -0.344251        -9.3675
  64   2.0000      -0.333266        -9.0686
  65   2.0000      -0.328789        -8.9468
  66   2.0000      -0.296999        -8.0818
  67   0.0000       0.028033         0.7628
  68   0.0000       0.066949         1.8218
  69   0.0000       0.113645         3.0924
  70   0.0000       0.114617         3.1189
  71   0.0000       0.126430         3.4403

MULLIKEN ATOMIC CHARGES
-----------------------
   0 S :    0.119673
   1 C :   -0.112208
   2 C :   -0.084834
   3 C :    0.034042
   4 C :   -0.121634
   5 H :   -0.007007
   6 C :    0.036518
   7 H :    0.045259
   8 H :    0.032936
   9 C :   -0.075424
  10 H :    0.045409
  11 H :    0.034887
  12 C :   -0.004427
  13 H :    0.004095
  14 H :    0.012073
  15 H :    0.030576
  16 S :    0.090500
  17 C :   -0.085623
  18 C :   -0.047654
  19 C :   -0.047315
  20 C :   -0.164312
  21 H :    0.039434
  22 C :    0.073593
  23 H :    0.021743
  24 H :    0.006030
  25 C :   -0.084197
  26 H :    0.041234
  27 H :    0.043368
  28 C :   -0.056752
  29 H :    0.030068
  30 H :    0.030552
  31 H :    0.029659
  32 H :    0.031981
  33 H :    0.057757
Sum of atomic charges:   -0.0000000

LOEWDIN ATOMIC CHARGES
----------------------
   0 S :    0.395300
   1 C :   -0.183329
   2 C :   -0.062882
   3 C :   -0.056845
   4 C :   -0.193608
   5 H :    0.016250
   6 C :   -0.029163
   7 H :    0.033940
   8 H :    0.037516
   9 C :   -0.039444
  10 H :    0.032297
  11 H :    0.027086
  12 C :   -0.059888
  13 H :    0.017685
  14 H :    0.011632
  15 H :    0.030442
  16 S :    0.403587
  17 C :   -0.182863
  18 C :   -0.075073
  19 C :   -0.058805
  20 C :   -0.193270
  21 H :    0.039884
  22 C :   -0.035954
  23 H :    0.031737
  24 H :    0.020698
  25 C :   -0.052795
  26 H :    0.031399
  27 H :    0.037012
  28 C :   -0.076980
  29 H :    0.030803
  30 H :    0.021588
  31 H :    0.029144
  32 H :    0.024238
  33 H :    0.028664

  Mayer bond orders larger than 0.100000
B(  0-S ,  1-C ) :   1.1242 B(  0-S ,  4-C ) :   1.1313 B(  1-C ,  2-C ) :   1.6342
B(  1-C , 32-H ) :   0.9654 B(  2-C ,  3-C ) :   1.2312 B(  2-C ,  6-C ) :   1.0165
B(  3-C ,  4-C ) :   1.5714 B(  3-C ,  5-H ) :   0.9927 B(  4-C , 20-C ) :   1.0425
B(  6-C ,  7-H ) :   0.9426 B(  6-C ,  8-H ) :   0.9398 B(  6-C ,  9-C ) :   1.0685
B(  9-C , 10-H ) :   0.9542 B(  9-C , 11-H ) :   0.9580 B(  9-C , 12-C ) :   1.0777
B( 12-C , 13-H ) :   0.9681 B( 12-C , 14-H ) :   0.9690 B( 12-C , 15-H ) :   0.9690
B( 16-S , 17-C ) :   1.1597 B( 16-S , 20-C ) :   1.1319 B( 17-C , 18-C ) :   1.5850
B( 17-C , 20-C ) :   0.1032 B( 17-C , 33-H ) :   0.9713 B( 18-C , 19-C ) :   1.2614
B( 18-C , 21-H ) :   0.9786 B( 19-C , 20-C ) :   1.5938 B( 19-C , 22-C ) :   1.0496
B( 22-C , 23-H ) :   0.9372 B( 22-C , 24-H ) :   0.9157 B( 22-C , 25-C ) :   1.0682
B( 25-C , 26-H ) :   0.9506 B( 25-C , 27-H ) :   0.9508 B( 25-C , 28-C ) :   1.0941
B( 28-C , 29-H ) :   0.9687 B( 28-C , 30-H ) :   0.9716 B( 28-C , 31-H ) :   0.9693

Dispersion correction           -0.014709178
FINAL SINGLE POINT ENERGY     -1339.868025120890

DIPOLE MOMENT
-------------
                                X             Y             Z
Electronic contribution:      0.62957       7.73149     -22.52541
Nuclear contribution   :     -0.48294      -7.99164      23.12751
                        -----------------------------------------
Total Dipole Moment    :      0.14663      -0.26015       0.60210
                        -----------------------------------------
Magnitude (a.u.)       :      0.67209
Magnitude (Debye)      :      1.70831

Rotational constants in cm-1:     0.016940     0.009175     0.008298
Rotational constants in MHz :   507.833707   275.054086   248.761272

                             ****ORCA TERMINATED NORMALLY****
TOTAL RUN TIME: 0 days 0 hours 0 minutes 29 seconds 380 msec
