                         Program Version 4.2.1 -  RELEASE  -
|  1> ! wB97X-D3 SP def2-SVP
|  2> %pal
|  3> nprocs 16
|  4> end
|  5>
|  6> * xyz 0 1
|  7> S 	 52.3337 	 13.0664 	 81.867
|  8> C 	 52.0555 	 12.7615 	 83.5048
|  9> C 	 51.1931 	 13.7092 	 84.049
| 10> C 	 50.884 	 14.7811 	 83.1235
| 11> C 	 51.5506 	 14.6663 	 81.9109
| 12> H 	 50.1775 	 15.5707 	 83.3118
| 13> C 	 50.544 	 13.6165 	 85.3833
| 14> H 	 49.5166 	 13.9469 	 85.1469
| 15> H 	 51.0524 	 14.2767 	 86.0785
| 16> C 	 50.6174 	 12.2658 	 86.0721
| 17> H 	 50.0025 	 11.5381 	 85.4957
| 18> H 	 51.6434 	 11.8776 	 86.181
| 19> C 	 49.8142 	 12.3959 	 87.3979
| 20> H 	 48.758 	 12.0947 	 87.4025
| 21> H 	 50.3093 	 11.9805 	 88.2009
| 22> H 	 49.7622 	 13.4438 	 87.7235
| 23> S 	 50.8276 	 14.7936 	 79.3115
| 24> C 	 50.3915 	 16.2898 	 78.6146
| 25> C 	 50.7414 	 17.3771 	 79.4435
| 26> C 	 51.2752 	 16.9461 	 80.6751
| 27> C 	 51.3178 	 15.5319 	 80.7954
| 28> H 	 50.6728 	 18.302 	 78.9485
| 29> C 	 51.9324 	 17.8494 	 81.7114
| 30> H 	 51.7178 	 17.4405 	 82.7272
| 31> H 	 51.4615 	 18.8705 	 81.7416
| 32> C 	 53.3884 	 18.1496 	 81.4496
| 33> H 	 53.4805 	 18.6714 	 80.4652
| 34> H 	 53.8751 	 17.1986 	 81.5245
| 35> C 	 54.1094 	 19.128 	 82.3708
| 36> H 	 54.0415 	 18.634 	 83.3906
| 37> H 	 53.4326 	 20.004 	 82.4659
| 38> H 	 55.1421 	 19.4027 	 82.138
| 39> H 	 52.2357 	 11.817 	 84.0132
| 40> H 	 49.9852 	 16.335 	 77.5923
| 41> *
| 42>
| 43>                          ****END OF INPUT****

CARTESIAN COORDINATES (ANGSTROEM)
---------------------------------
  S     52.333700   13.066400   81.867000
  C     52.055500   12.761500   83.504800
  C     51.193100   13.709200   84.049000
  C     50.884000   14.781100   83.123500
  C     51.550600   14.666300   81.910900
  H     50.177500   15.570700   83.311800
  C     50.544000   13.616500   85.383300
  H     49.516600   13.946900   85.146900
  H     51.052400   14.276700   86.078500
  C     50.617400   12.265800   86.072100
  H     50.002500   11.538100   85.495700
  H     51.643400   11.877600   86.181000
  C     49.814200   12.395900   87.397900
  H     48.758000   12.094700   87.402500
  H     50.309300   11.980500   88.200900
  H     49.762200   13.443800   87.723500
  S     50.827600   14.793600   79.311500
  C     50.391500   16.289800   78.614600
  C     50.741400   17.377100   79.443500
  C     51.275200   16.946100   80.675100
  C     51.317800   15.531900   80.795400
  H     50.672800   18.302000   78.948500
  C     51.932400   17.849400   81.711400
  H     51.717800   17.440500   82.727200
  H     51.461500   18.870500   81.741600
  C     53.388400   18.149600   81.449600
  H     53.480500   18.671400   80.465200
  H     53.875100   17.198600   81.524500
  C     54.109400   19.128000   82.370800
  H     54.041500   18.634000   83.390600
  H     53.432600   20.004000   82.465900
  H     55.142100   19.402700   82.138000
  H     52.235700   11.817000   84.013200
  H     49.985200   16.335000   77.592300

 Total Charge           Charge          ....    0
 Multiplicity           Mult            ....    1
 Number of Electrons    NEL             ....  134
 Basis Dimension        Dim             ....  322

ORBITAL ENERGIES
----------------

  NO   OCC          E(Eh)            E(eV)
   0   2.0000     -88.966486     -2420.9012
   1   2.0000     -88.964894     -2420.8578
   2   2.0000     -10.330414      -281.1049
   3   2.0000     -10.326027      -280.9855
   4   2.0000     -10.318321      -280.7758
   5   2.0000     -10.309112      -280.5252
   6   2.0000     -10.308971      -280.5214
   7   2.0000     -10.297422      -280.2071
   8   2.0000     -10.294583      -280.1299
   9   2.0000     -10.294155      -280.1182
  10   2.0000     -10.294085      -280.1163
  11   2.0000     -10.293648      -280.1044
  12   2.0000     -10.290224      -280.0112
  13   2.0000     -10.281306      -279.7685
  14   2.0000     -10.279840      -279.7287
  15   2.0000     -10.273970      -279.5689
  16   2.0000      -8.082449      -219.9346
  17   2.0000      -8.080132      -219.8716
  18   2.0000      -6.040602      -164.3731
  19   2.0000      -6.038719      -164.3219
  20   2.0000      -6.036642      -164.2654
  21   2.0000      -6.034603      -164.2099
  22   2.0000      -6.033663      -164.1843
  23   2.0000      -6.030744      -164.1049
  24   2.0000      -1.010727       -27.5033
  25   2.0000      -0.987838       -26.8804
  26   2.0000      -0.917148       -24.9569
  27   2.0000      -0.910585       -24.7783
  28   2.0000      -0.874181       -23.7877
  29   2.0000      -0.855085       -23.2680
  30   2.0000      -0.848583       -23.0911
  31   2.0000      -0.813389       -22.1334
  32   2.0000      -0.779761       -21.2184
  33   2.0000      -0.765781       -20.8380
  34   2.0000      -0.715462       -19.4687
  35   2.0000      -0.698320       -19.0023
  36   2.0000      -0.683942       -18.6110
  37   2.0000      -0.663982       -18.0679
  38   2.0000      -0.639044       -17.3893
  39   2.0000      -0.614629       -16.7249
  40   2.0000      -0.594729       -16.1834
  41   2.0000      -0.578402       -15.7391
  42   2.0000      -0.576429       -15.6854
  43   2.0000      -0.566243       -15.4082
  44   2.0000      -0.523632       -14.2488
  45   2.0000      -0.521181       -14.1821
  46   2.0000      -0.518992       -14.1225
  47   2.0000      -0.517121       -14.0716
  48   2.0000      -0.509430       -13.8623
  49   2.0000      -0.501900       -13.6574
  50   2.0000      -0.493018       -13.4157
  51   2.0000      -0.478208       -13.0127
  52   2.0000      -0.473815       -12.8932
  53   2.0000      -0.460856       -12.5405
  54   2.0000      -0.457891       -12.4599
  55   2.0000      -0.452443       -12.3116
  56   2.0000      -0.449893       -12.2422
  57   2.0000      -0.437197       -11.8967
  58   2.0000      -0.426699       -11.6111
  59   2.0000      -0.422511       -11.4971
  60   2.0000      -0.417449       -11.3594
  61   2.0000      -0.411142       -11.1877
  62   2.0000      -0.405612       -11.0373
  63   2.0000      -0.354359        -9.6426
  64   2.0000      -0.334630        -9.1058
  65   2.0000      -0.321744        -8.7551
  66   2.0000      -0.283968        -7.7271
  67   0.0000       0.024862         0.6765
  68   0.0000       0.071624         1.9490
  69   0.0000       0.112032         3.0485
  70   0.0000       0.121779         3.3138
  71   0.0000       0.134107         3.6492

MULLIKEN ATOMIC CHARGES
-----------------------
   0 S :    0.107974
   1 C :   -0.105312
   2 C :   -0.122676
   3 C :    0.019835
   4 C :   -0.130498
   5 H :    0.019819
   6 C :    0.060445
   7 H :    0.040321
   8 H :    0.042486
   9 C :   -0.130483
  10 H :    0.040562
  11 H :    0.051218
  12 C :   -0.011984
  13 H :    0.042597
  14 H :    0.010994
  15 H :    0.011308
  16 S :    0.123916
  17 C :   -0.132703
  18 C :   -0.022885
  19 C :   -0.009268
  20 C :   -0.166631
  21 H :    0.007814
  22 C :    0.043668
  23 H :    0.023086
  24 H :    0.012385
  25 C :   -0.065325
  26 H :    0.031029
  27 H :    0.031595
  28 C :   -0.054318
  29 H :    0.027019
  30 H :    0.022367
  31 H :    0.054262
  32 H :    0.056168
  33 H :    0.071213
Sum of atomic charges:   -0.0000000

LOEWDIN ATOMIC CHARGES
----------------------
   0 S :    0.412543
   1 C :   -0.225459
   2 C :   -0.066851
   3 C :   -0.056973
   4 C :   -0.191599
   5 H :    0.029958
   6 C :   -0.037808
   7 H :    0.039779
   8 H :    0.034197
   9 C :   -0.045303
  10 H :    0.030527
  11 H :    0.027475
  12 C :   -0.063521
  13 H :    0.031078
  14 H :    0.015080
  15 H :    0.025161
  16 S :    0.443991
  17 C :   -0.202968
  18 C :   -0.067994
  19 C :   -0.052693
  20 C :   -0.207466
  21 H :    0.028292
  22 C :   -0.038826
  23 H :    0.030263
  24 H :    0.028555
  25 C :   -0.045765
  26 H :    0.028621
  27 H :    0.022079
  28 C :   -0.070678
  29 H :    0.028359
  30 H :    0.023212
  31 H :    0.029875
  32 H :    0.031845
  33 H :    0.033014

  Mayer bond orders larger than 0.100000
B(  0-S ,  1-C ) :   1.1409 B(  0-S ,  4-C ) :   1.1422 B(  1-C ,  2-C ) :   1.6063
B(  1-C , 32-H ) :   0.9543 B(  2-C ,  3-C ) :   1.2615 B(  2-C ,  6-C ) :   1.0152
B(  3-C ,  4-C ) :   1.5482 B(  3-C ,  5-H ) :   0.9922 B(  4-C , 20-C ) :   1.0773
B(  6-C ,  7-H ) :   0.9452 B(  6-C ,  8-H ) :   0.9220 B(  6-C ,  9-C ) :   1.0942
B(  9-C , 10-H ) :   0.9597 B(  9-C , 11-H ) :   0.9496 B(  9-C , 12-C ) :   1.0663
B( 12-C , 13-H ) :   0.9778 B( 12-C , 14-H ) :   0.9713 B( 12-C , 15-H ) :   0.9716
B( 16-S , 17-C ) :   1.2006 B( 16-S , 20-C ) :   1.1686 B( 17-C , 18-C ) :   1.5437
B( 17-C , 20-C ) :   0.1111 B( 17-C , 33-H ) :   0.9655 B( 18-C , 19-C ) :   1.2733
B( 18-C , 21-H ) :   1.0086 B( 19-C , 20-C ) :   1.5206 B( 19-C , 22-C ) :   1.0556
B( 22-C , 23-H ) :   0.9275 B( 22-C , 24-H ) :   0.9288 B( 22-C , 25-C ) :   1.0699
B( 25-C , 26-H ) :   0.9537 B( 25-C , 27-H ) :   0.9552 B( 25-C , 28-C ) :   1.0791
B( 28-C , 29-H ) :   0.9735 B( 28-C , 30-H ) :   0.9718 B( 28-C , 31-H ) :   0.9742

Dispersion correction           -0.013462200
FINAL SINGLE POINT ENERGY     -1339.864707044582

DIPOLE MOMENT
-------------
                                X             Y             Z
Electronic contribution:     -1.10433      -9.94533     -23.77945
Nuclear contribution   :      0.83655      10.18589      24.14711
                        -----------------------------------------
Total Dipole Moment    :     -0.26778       0.24056       0.36766
                        -----------------------------------------
Magnitude (a.u.)       :      0.51454
Magnitude (Debye)      :      1.30786

Rotational constants in cm-1:     0.019590     0.007520     0.006289
Rotational constants in MHz :   587.278577   225.455098   188.530646

                             ****ORCA TERMINATED NORMALLY****
TOTAL RUN TIME: 0 days 0 hours 0 minutes 29 seconds 348 msec
