                         Program Version 4.2.1 -  RELEASE  -
|  1> ! wB97X-D3 SP def2-SVP
|  2> %pal
|  3> nprocs 16
|  4> end
|  5>
|  6> * xyz 0 1
|  7> S 	 6.00604 	 14.6896 	 47.3489
|  8> C 	 4.73416 	 13.4715 	 47.0632
|  9> C 	 3.45349 	 13.8853 	 47.4148
| 10> C 	 3.47139 	 15.1375 	 48.1057
| 11> C 	 4.72158 	 15.7156 	 48.1717
| 12> H 	 2.5447 	 15.6058 	 48.516
| 13> C 	 2.13205 	 13.2305 	 47.0151
| 14> H 	 2.25966 	 13.031 	 45.9172
| 15> H 	 1.29358 	 13.8834 	 46.9951
| 16> C 	 1.71334 	 12.0027 	 47.8507
| 17> H 	 2.56768 	 11.3032 	 47.9785
| 18> H 	 1.58696 	 12.375 	 48.871
| 19> C 	 0.457851 	 11.2772 	 47.3498
| 20> H 	 0.644131 	 10.9666 	 46.3138
| 21> H 	 0.311925 	 10.3363 	 47.8013
| 22> H 	 -0.447298 	 11.8791 	 47.4674
| 23> S 	 4.56642 	 17.3385 	 50.3271
| 24> C 	 5.37275 	 18.8857 	 50.2362
| 25> C 	 5.78315 	 19.2168 	 48.9619
| 26> C 	 5.57975 	 18.208 	 47.9893
| 27> C 	 5.05082 	 17.0491 	 48.6669
| 28> H 	 6.38418 	 20.1039 	 48.8351
| 29> C 	 6.14589 	 18.2499 	 46.5606
| 30> H 	 6.97338 	 17.5428 	 46.4448
| 31> H 	 6.69201 	 19.1847 	 46.4225
| 32> C 	 5.1638 	 18.1292 	 45.4836
| 33> H 	 4.62601 	 19.0431 	 45.3753
| 34> H 	 4.4718 	 17.3199 	 45.7167
| 35> C 	 5.72728 	 17.8537 	 44.0713
| 36> H 	 5.00833 	 17.9106 	 43.1993
| 37> H 	 6.24228 	 16.9054 	 44.0322
| 38> H 	 6.42752 	 18.7187 	 43.8004
| 39> H 	 4.89802 	 12.6167 	 46.4376
| 40> H 	 5.55802 	 19.5308 	 51.1292
| 41> *
| 42>
| 43>                          ****END OF INPUT****

CARTESIAN COORDINATES (ANGSTROEM)
---------------------------------
  S      6.006040   14.689600   47.348900
  C      4.734160   13.471500   47.063200
  C      3.453490   13.885300   47.414800
  C      3.471390   15.137500   48.105700
  C      4.721580   15.715600   48.171700
  H      2.544700   15.605800   48.516000
  C      2.132050   13.230500   47.015100
  H      2.259660   13.031000   45.917200
  H      1.293580   13.883400   46.995100
  C      1.713340   12.002700   47.850700
  H      2.567680   11.303200   47.978500
  H      1.586960   12.375000   48.871000
  C      0.457851   11.277200   47.349800
  H      0.644131   10.966600   46.313800
  H      0.311925   10.336300   47.801300
  H     -0.447298   11.879100   47.467400
  S      4.566420   17.338500   50.327100
  C      5.372750   18.885700   50.236200
  C      5.783150   19.216800   48.961900
  C      5.579750   18.208000   47.989300
  C      5.050820   17.049100   48.666900
  H      6.384180   20.103900   48.835100
  C      6.145890   18.249900   46.560600
  H      6.973380   17.542800   46.444800
  H      6.692010   19.184700   46.422500
  C      5.163800   18.129200   45.483600
  H      4.626010   19.043100   45.375300
  H      4.471800   17.319900   45.716700
  C      5.727280   17.853700   44.071300
  H      5.008330   17.910600   43.199300
  H      6.242280   16.905400   44.032200
  H      6.427520   18.718700   43.800400
  H      4.898020   12.616700   46.437600
  H      5.558020   19.530800   51.129200

 Total Charge           Charge          ....    0
 Multiplicity           Mult            ....    1
 Number of Electrons    NEL             ....  134
 Basis Dimension        Dim             ....  322

ORBITAL ENERGIES
----------------

  NO   OCC          E(Eh)            E(eV)
   0   2.0000     -88.970304     -2421.0051
   1   2.0000     -88.970115     -2420.9999
   2   2.0000     -10.334910      -281.2272
   3   2.0000     -10.329961      -281.0925
   4   2.0000     -10.317071      -280.7418
   5   2.0000     -10.315779      -280.7066
   6   2.0000     -10.310621      -280.5663
   7   2.0000     -10.304162      -280.3905
   8   2.0000     -10.298874      -280.2466
   9   2.0000     -10.294827      -280.1365
  10   2.0000     -10.292756      -280.0801
  11   2.0000     -10.290250      -280.0119
  12   2.0000     -10.289425      -279.9895
  13   2.0000     -10.282323      -279.7962
  14   2.0000     -10.277751      -279.6718
  15   2.0000     -10.274440      -279.5817
  16   2.0000      -8.084847      -219.9999
  17   2.0000      -8.082614      -219.9391
  18   2.0000      -6.043107      -164.4413
  19   2.0000      -6.041248      -164.3907
  20   2.0000      -6.039504      -164.3432
  21   2.0000      -6.037682      -164.2937
  22   2.0000      -6.035763      -164.2415
  23   2.0000      -6.033141      -164.1701
  24   2.0000      -0.999424       -27.1957
  25   2.0000      -0.975386       -26.5416
  26   2.0000      -0.914008       -24.8714
  27   2.0000      -0.906392       -24.6642
  28   2.0000      -0.866387       -23.5756
  29   2.0000      -0.851012       -23.1572
  30   2.0000      -0.844732       -22.9863
  31   2.0000      -0.809118       -22.0172
  32   2.0000      -0.783654       -21.3243
  33   2.0000      -0.767537       -20.8857
  34   2.0000      -0.703903       -19.1542
  35   2.0000      -0.702519       -19.1165
  36   2.0000      -0.686582       -18.6829
  37   2.0000      -0.659576       -17.9480
  38   2.0000      -0.633983       -17.2516
  39   2.0000      -0.617529       -16.8038
  40   2.0000      -0.597358       -16.2549
  41   2.0000      -0.571717       -15.5572
  42   2.0000      -0.569391       -15.4939
  43   2.0000      -0.549166       -14.9436
  44   2.0000      -0.521917       -14.2021
  45   2.0000      -0.517330       -14.0773
  46   2.0000      -0.511025       -13.9057
  47   2.0000      -0.509167       -13.8551
  48   2.0000      -0.505754       -13.7623
  49   2.0000      -0.500970       -13.6321
  50   2.0000      -0.485122       -13.2009
  51   2.0000      -0.482709       -13.1352
  52   2.0000      -0.467884       -12.7318
  53   2.0000      -0.463900       -12.6234
  54   2.0000      -0.455023       -12.3818
  55   2.0000      -0.450492       -12.2585
  56   2.0000      -0.447094       -12.1660
  57   2.0000      -0.435011       -11.8372
  58   2.0000      -0.430189       -11.7060
  59   2.0000      -0.429003       -11.6738
  60   2.0000      -0.417144       -11.3511
  61   2.0000      -0.414345       -11.2749
  62   2.0000      -0.410467       -11.1694
  63   2.0000      -0.342982        -9.3330
  64   2.0000      -0.337759        -9.1909
  65   2.0000      -0.327953        -8.9240
  66   2.0000      -0.286863        -7.8059
  67   0.0000       0.025148         0.6843
  68   0.0000       0.059050         1.6068
  69   0.0000       0.095177         2.5899
  70   0.0000       0.107285         2.9194
  71   0.0000       0.132529         3.6063

MULLIKEN ATOMIC CHARGES
-----------------------
   0 S :    0.094487
   1 C :   -0.109714
   2 C :   -0.084522
   3 C :    0.020568
   4 C :   -0.150482
   5 H :    0.034095
   6 C :    0.051408
   7 H :    0.033091
   8 H :    0.010385
   9 C :   -0.087594
  10 H :    0.029423
  11 H :    0.025121
  12 C :   -0.015883
  13 H :    0.024770
  14 H :    0.022984
  15 H :    0.041144
  16 S :    0.124428
  17 C :   -0.112957
  18 C :   -0.036729
  19 C :    0.004897
  20 C :   -0.185949
  21 H :    0.018815
  22 C :    0.072923
  23 H :    0.031976
  24 H :    0.004182
  25 C :   -0.054678
  26 H :    0.021360
  27 H :    0.043347
  28 C :   -0.088052
  29 H :    0.041673
  30 H :    0.038032
  31 H :    0.026336
  32 H :    0.041682
  33 H :    0.069432
Sum of atomic charges:    0.0000000

LOEWDIN ATOMIC CHARGES
----------------------
   0 S :    0.358432
   1 C :   -0.183879
   2 C :   -0.059167
   3 C :   -0.065399
   4 C :   -0.171065
   5 H :    0.040748
   6 C :   -0.033827
   7 H :    0.035739
   8 H :    0.023649
   9 C :   -0.043837
  10 H :    0.025330
  11 H :    0.024186
  12 C :   -0.064403
  13 H :    0.028551
  14 H :    0.022727
  15 H :    0.028107
  16 S :    0.419731
  17 C :   -0.198075
  18 C :   -0.071606
  19 C :   -0.046823
  20 C :   -0.195864
  21 H :    0.031869
  22 C :   -0.035578
  23 H :    0.030577
  24 H :    0.029948
  25 C :   -0.045003
  26 H :    0.022864
  27 H :    0.027094
  28 C :   -0.072445
  29 H :    0.031737
  30 H :    0.020548
  31 H :    0.027072
  32 H :    0.021560
  33 H :    0.036502

  Mayer bond orders larger than 0.100000
B(  0-S ,  1-C ) :   1.1208 B(  0-S ,  4-C ) :   1.1150 B(  1-C ,  2-C ) :   1.6497
B(  1-C , 32-H ) :   0.9631 B(  2-C ,  3-C ) :   1.2304 B(  2-C ,  6-C ) :   1.0120
B(  3-C ,  4-C ) :   1.6027 B(  3-C ,  5-H ) :   0.9808 B(  4-C , 20-C ) :   1.0410
B(  6-C ,  7-H ) :   0.9420 B(  6-C ,  8-H ) :   0.9476 B(  6-C ,  9-C ) :   1.0495
B(  9-C , 10-H ) :   0.9605 B(  9-C , 11-H ) :   0.9533 B(  9-C , 12-C ) :   1.0818
B( 12-C , 13-H ) :   0.9724 B( 12-C , 14-H ) :   0.9720 B( 12-C , 15-H ) :   0.9749
B( 16-S , 17-C ) :   1.1509 B( 16-S , 20-C ) :   1.1722 B( 17-C , 18-C ) :   1.6121
B( 17-C , 20-C ) :   0.1055 B( 17-C , 33-H ) :   0.9610 B( 18-C , 19-C ) :   1.2623
B( 18-C , 21-H ) :   0.9851 B( 19-C , 20-C ) :   1.5314 B( 19-C , 22-C ) :   1.0287
B( 22-C , 23-H ) :   0.9430 B( 22-C , 24-H ) :   0.9245 B( 22-C , 25-C ) :   1.0601
B( 25-C , 26-H ) :   0.9493 B( 25-C , 27-H ) :   0.9602 B( 25-C , 28-C ) :   1.0806
B( 28-C , 29-H ) :   0.9754 B( 28-C , 30-H ) :   0.9758 B( 28-C , 31-H ) :   0.9721

Dispersion correction           -0.014381375
FINAL SINGLE POINT ENERGY     -1339.873424010240

DIPOLE MOMENT
-------------
                                X             Y             Z
Electronic contribution:     11.60953       7.22334      17.48350
Nuclear contribution   :    -11.89254      -7.18001     -17.76086
                        -----------------------------------------
Total Dipole Moment    :     -0.28301       0.04333      -0.27736
                        -----------------------------------------
Magnitude (a.u.)       :      0.39862
Magnitude (Debye)      :      1.01321

Rotational constants in cm-1:     0.019193     0.007981     0.006494
Rotational constants in MHz :   575.397253   239.252567   194.694811

                             ****ORCA TERMINATED NORMALLY****
TOTAL RUN TIME: 0 days 0 hours 0 minutes 32 seconds 543 msec
