                         Program Version 4.2.1 -  RELEASE  -
|  1> ! wB97X-D3 SP def2-SVP
|  2> %pal
|  3> nprocs 16
|  4> end
|  5>
|  6> * xyz 0 1
|  7> S 	 -18.3691 	 -0.480109 	 77.5457
|  8> C 	 -16.7157 	 0.106597 	 77.8955
|  9> C 	 -16.2247 	 -0.174396 	 79.1698
| 10> C 	 -17.1677 	 -0.976752 	 79.9138
| 11> C 	 -18.3024 	 -1.23487 	 79.1562
| 12> H 	 -16.997 	 -1.29829 	 80.9121
| 13> C 	 -14.817 	 0.0454288 	 79.6356
| 14> H 	 -14.3594 	 0.67578 	 78.8736
| 15> H 	 -14.3352 	 -0.944856 	 79.6077
| 16> C 	 -14.6598 	 0.691444 	 80.9812
| 17> H 	 -14.9974 	 1.71867 	 80.857
| 18> H 	 -15.359 	 0.13481 	 81.5294
| 19> C 	 -13.2609 	 0.710796 	 81.623
| 20> H 	 -12.9725 	 -0.311001 	 81.9277
| 21> H 	 -12.5094 	 1.03704 	 80.9446
| 22> H 	 -13.2065 	 1.35829 	 82.5166
| 23> S 	 -20.9673 	 -1.25351 	 79.189
| 24> C 	 -21.9032 	 -2.51308 	 80.0302
| 25> C 	 -21.0652 	 -3.40443 	 80.5956
| 26> C 	 -19.6595 	 -3.13049 	 80.3654
| 27> C 	 -19.4547 	 -1.90614 	 79.6933
| 28> H 	 -21.5758 	 -4.19757 	 81.0002
| 29> C 	 -18.5842 	 -3.98027 	 80.9572
| 30> H 	 -18.373 	 -3.59549 	 81.9335
| 31> H 	 -17.7177 	 -3.82621 	 80.307
| 32> C 	 -18.8151 	 -5.511 	 80.8424
| 33> H 	 -19.2706 	 -5.76375 	 79.9034
| 34> H 	 -19.4581 	 -5.81027 	 81.6549
| 35> C 	 -17.6166 	 -6.38831 	 81.1654
| 36> H 	 -17.9163 	 -7.41215 	 81.0295
| 37> H 	 -17.3342 	 -6.19636 	 82.194
| 38> H 	 -16.7231 	 -6.15948 	 80.5455
| 39> H 	 -16.1253 	 0.699654 	 77.2069
| 40> H 	 -23.0062 	 -2.48776 	 80.2025
| 41> *
| 42>
| 43>                          ****END OF INPUT****

CARTESIAN COORDINATES (ANGSTROEM)
---------------------------------
  S    -18.369100   -0.480109   77.545700
  C    -16.715700    0.106597   77.895500
  C    -16.224700   -0.174396   79.169800
  C    -17.167700   -0.976752   79.913800
  C    -18.302400   -1.234870   79.156200
  H    -16.997000   -1.298290   80.912100
  C    -14.817000    0.045429   79.635600
  H    -14.359400    0.675780   78.873600
  H    -14.335200   -0.944856   79.607700
  C    -14.659800    0.691444   80.981200
  H    -14.997400    1.718670   80.857000
  H    -15.359000    0.134810   81.529400
  C    -13.260900    0.710796   81.623000
  H    -12.972500   -0.311001   81.927700
  H    -12.509400    1.037040   80.944600
  H    -13.206500    1.358290   82.516600
  S    -20.967300   -1.253510   79.189000
  C    -21.903200   -2.513080   80.030200
  C    -21.065200   -3.404430   80.595600
  C    -19.659500   -3.130490   80.365400
  C    -19.454700   -1.906140   79.693300
  H    -21.575800   -4.197570   81.000200
  C    -18.584200   -3.980270   80.957200
  H    -18.373000   -3.595490   81.933500
  H    -17.717700   -3.826210   80.307000
  C    -18.815100   -5.511000   80.842400
  H    -19.270600   -5.763750   79.903400
  H    -19.458100   -5.810270   81.654900
  C    -17.616600   -6.388310   81.165400
  H    -17.916300   -7.412150   81.029500
  H    -17.334200   -6.196360   82.194000
  H    -16.723100   -6.159480   80.545500
  H    -16.125300    0.699654   77.206900
  H    -23.006200   -2.487760   80.202500

 Total Charge           Charge          ....    0
 Multiplicity           Mult            ....    1
 Number of Electrons    NEL             ....  134
 Basis Dimension        Dim             ....  322

ORBITAL ENERGIES
----------------

  NO   OCC          E(Eh)            E(eV)
   0   2.0000     -88.974494     -2421.1191
   1   2.0000     -88.957964     -2420.6693
   2   2.0000     -10.332940      -281.1736
   3   2.0000     -10.323047      -280.9044
   4   2.0000     -10.316627      -280.7297
   5   2.0000     -10.314787      -280.6796
   6   2.0000     -10.304612      -280.4028
   7   2.0000     -10.302485      -280.3449
   8   2.0000     -10.295594      -280.1574
   9   2.0000     -10.290187      -280.0102
  10   2.0000     -10.286865      -279.9198
  11   2.0000     -10.284857      -279.8652
  12   2.0000     -10.282182      -279.7924
  13   2.0000     -10.281921      -279.7853
  14   2.0000     -10.281800      -279.7820
  15   2.0000     -10.276894      -279.6485
  16   2.0000      -8.087803      -220.0803
  17   2.0000      -8.073182      -219.6825
  18   2.0000      -6.046370      -164.5301
  19   2.0000      -6.042867      -164.4348
  20   2.0000      -6.038212      -164.3081
  21   2.0000      -6.031776      -164.1330
  22   2.0000      -6.027537      -164.0176
  23   2.0000      -6.023903      -163.9187
  24   2.0000      -1.005421       -27.3589
  25   2.0000      -0.978284       -26.6205
  26   2.0000      -0.919646       -25.0249
  27   2.0000      -0.909547       -24.7500
  28   2.0000      -0.873549       -23.7705
  29   2.0000      -0.854715       -23.2580
  30   2.0000      -0.846252       -23.0277
  31   2.0000      -0.819677       -22.3045
  32   2.0000      -0.783653       -21.3243
  33   2.0000      -0.767576       -20.8868
  34   2.0000      -0.713458       -19.4142
  35   2.0000      -0.697746       -18.9866
  36   2.0000      -0.694764       -18.9055
  37   2.0000      -0.654311       -17.8047
  38   2.0000      -0.633866       -17.2484
  39   2.0000      -0.628591       -17.1048
  40   2.0000      -0.591292       -16.0899
  41   2.0000      -0.576638       -15.6911
  42   2.0000      -0.576205       -15.6793
  43   2.0000      -0.563734       -15.3400
  44   2.0000      -0.531126       -14.4527
  45   2.0000      -0.527345       -14.3498
  46   2.0000      -0.517077       -14.0704
  47   2.0000      -0.514226       -13.9928
  48   2.0000      -0.507289       -13.8040
  49   2.0000      -0.492692       -13.4068
  50   2.0000      -0.492172       -13.3927
  51   2.0000      -0.477805       -13.0017
  52   2.0000      -0.473898       -12.8954
  53   2.0000      -0.466763       -12.7013
  54   2.0000      -0.461842       -12.5674
  55   2.0000      -0.456372       -12.4185
  56   2.0000      -0.444963       -12.1080
  57   2.0000      -0.436381       -11.8745
  58   2.0000      -0.435862       -11.8604
  59   2.0000      -0.425147       -11.5688
  60   2.0000      -0.420980       -11.4554
  61   2.0000      -0.413744       -11.2585
  62   2.0000      -0.408911       -11.1270
  63   2.0000      -0.354775        -9.6539
  64   2.0000      -0.334544        -9.1034
  65   2.0000      -0.324763        -8.8372
  66   2.0000      -0.284139        -7.7318
  67   0.0000       0.026277         0.7150
  68   0.0000       0.070491         1.9182
  69   0.0000       0.099249         2.7007
  70   0.0000       0.118503         3.2246
  71   0.0000       0.136340         3.7100

MULLIKEN ATOMIC CHARGES
-----------------------
   0 S :    0.122132
   1 C :   -0.120685
   2 C :   -0.079627
   3 C :   -0.004841
   4 C :   -0.111883
   5 H :    0.015630
   6 C :    0.066087
   7 H :    0.007484
   8 H :    0.042635
   9 C :   -0.069517
  10 H :    0.030720
  11 H :    0.008230
  12 C :   -0.025635
  13 H :    0.025974
  14 H :    0.024725
  15 H :    0.042878
  16 S :    0.069133
  17 C :   -0.116542
  18 C :    0.006100
  19 C :   -0.057121
  20 C :   -0.133237
  21 H :   -0.009022
  22 C :    0.065530
  23 H :    0.041531
  24 H :    0.021814
  25 C :   -0.088167
  26 H :    0.035261
  27 H :    0.022424
  28 C :   -0.036566
  29 H :    0.037030
  30 H :    0.024561
  31 H :    0.030999
  32 H :    0.038709
  33 H :    0.073257
Sum of atomic charges:   -0.0000000

LOEWDIN ATOMIC CHARGES
----------------------
   0 S :    0.381644
   1 C :   -0.186900
   2 C :   -0.055904
   3 C :   -0.054365
   4 C :   -0.175778
   5 H :    0.026667
   6 C :   -0.031718
   7 H :    0.025372
   8 H :    0.036261
   9 C :   -0.040152
  10 H :    0.028571
  11 H :    0.014243
  12 C :   -0.061328
  13 H :    0.026285
  14 H :    0.020889
  15 H :    0.032424
  16 S :    0.388801
  17 C :   -0.180987
  18 C :   -0.066929
  19 C :   -0.057731
  20 C :   -0.200930
  21 H :    0.021186
  22 C :   -0.035488
  23 H :    0.029502
  24 H :    0.031980
  25 C :   -0.039131
  26 H :    0.023580
  27 H :    0.022575
  28 C :   -0.060036
  29 H :    0.027016
  30 H :    0.023399
  31 H :    0.023030
  32 H :    0.023054
  33 H :    0.040897

  Mayer bond orders larger than 0.100000
B(  0-S ,  1-C ) :   1.1073 B(  0-S ,  4-C ) :   1.1277 B(  1-C ,  2-C ) :   1.6525
B(  1-C , 32-H ) :   0.9602 B(  2-C ,  3-C ) :   1.1970 B(  2-C ,  6-C ) :   1.0366
B(  3-C ,  4-C ) :   1.5828 B(  3-C ,  5-H ) :   0.9941 B(  4-C , 20-C ) :   1.0808
B(  6-C ,  7-H ) :   0.9298 B(  6-C ,  8-H ) :   0.9398 B(  6-C ,  9-C ) :   1.0559
B(  9-C , 10-H ) :   0.9516 B(  9-C , 11-H ) :   0.9624 B(  9-C , 12-C ) :   1.0867
B( 12-C , 13-H ) :   0.9731 B( 12-C , 14-H ) :   0.9740 B( 12-C , 15-H ) :   0.9751
B( 16-S , 17-C ) :   1.1326 B( 16-S , 20-C ) :   1.1352 B( 17-C , 18-C ) :   1.6483
B( 17-C , 33-H ) :   0.9589 B( 18-C , 19-C ) :   1.1962 B( 18-C , 21-H ) :   1.0036
B( 19-C , 20-C ) :   1.5749 B( 19-C , 22-C ) :   1.0569 B( 22-C , 23-H ) :   0.9351
B( 22-C , 24-H ) :   0.9271 B( 22-C , 25-C ) :   1.0637 B( 25-C , 26-H ) :   0.9629
B( 25-C , 27-H ) :   0.9467 B( 25-C , 28-C ) :   1.0891 B( 28-C , 29-H ) :   0.9738
B( 28-C , 30-H ) :   0.9744 B( 28-C , 31-H ) :   0.9748

Dispersion correction           -0.013305095
FINAL SINGLE POINT ENERGY     -1339.870077203110

DIPOLE MOMENT
-------------
                                X             Y             Z
Electronic contribution:    -22.76630      10.47177     -16.46534
Nuclear contribution   :     23.19901     -10.77120      16.93845
                        -----------------------------------------
Total Dipole Moment    :      0.43271      -0.29943       0.47312
                        -----------------------------------------
Magnitude (a.u.)       :      0.70763
Magnitude (Debye)      :      1.79865

Rotational constants in cm-1:     0.016343     0.008455     0.006320
Rotational constants in MHz :   489.959569   253.483399   189.460127

                             ****ORCA TERMINATED NORMALLY****
TOTAL RUN TIME: 0 days 0 hours 0 minutes 30 seconds 705 msec
