                         Program Version 4.2.1 -  RELEASE  -
|  1> ! wB97X-D3 SP def2-SVP
|  2> %pal
|  3> nprocs 16
|  4> end
|  5>
|  6> * xyz 0 1
|  7> S 	 5.52835 	 -11.4134 	 60.688
|  8> C 	 5.18336 	 -10.0892 	 61.8566
|  9> C 	 5.22469 	 -10.5089 	 63.1632
| 10> C 	 5.39223 	 -11.9271 	 63.2492
| 11> C 	 5.61202 	 -12.5636 	 62.0281
| 12> H 	 5.43968 	 -12.533 	 64.1416
| 13> C 	 5.07746 	 -9.6842 	 64.458
| 14> H 	 4.4862 	 -10.3483 	 65.0332
| 15> H 	 4.5097 	 -8.79457 	 64.3338
| 16> C 	 6.32796 	 -9.29984 	 65.1971
| 17> H 	 6.80931 	 -8.53327 	 64.5401
| 18> H 	 6.03026 	 -8.82937 	 66.1405
| 19> C 	 7.35007 	 -10.4583 	 65.4856
| 20> H 	 7.87313 	 -10.7927 	 64.589
| 21> H 	 8.12676 	 -10.0415 	 66.1131
| 22> H 	 6.85487 	 -11.4561 	 65.9254
| 23> S 	 7.37047 	 -14.5146 	 61.3636
| 24> C 	 6.96399 	 -16.2296 	 61.6372
| 25> C 	 5.63478 	 -16.2952 	 61.9349
| 26> C 	 4.99172 	 -15.014 	 62.156
| 27> C 	 5.79269 	 -13.9738 	 61.8017
| 28> H 	 5.2077 	 -17.2446 	 62.0275
| 29> C 	 3.58506 	 -14.9779 	 62.6324
| 30> H 	 3.50392 	 -14.0219 	 63.0788
| 31> H 	 3.51063 	 -15.661 	 63.4502
| 32> C 	 2.43822 	 -15.3064 	 61.5987
| 33> H 	 2.61574 	 -16.2589 	 61.0669
| 34> H 	 2.42819 	 -14.5503 	 60.7933
| 35> C 	 1.03552 	 -15.3373 	 62.2517
| 36> H 	 0.79654 	 -14.412 	 62.8537
| 37> H 	 0.916155 	 -16.1496 	 62.9958
| 38> H 	 0.259441 	 -15.3997 	 61.5068
| 39> H 	 4.96882 	 -9.0789 	 61.5262
| 40> H 	 7.71082 	 -17.0426 	 61.5027
| 41> *
| 42>
| 43>                          ****END OF INPUT****

CARTESIAN COORDINATES (ANGSTROEM)
---------------------------------
  S      5.528350  -11.413400   60.688000
  C      5.183360  -10.089200   61.856600
  C      5.224690  -10.508900   63.163200
  C      5.392230  -11.927100   63.249200
  C      5.612020  -12.563600   62.028100
  H      5.439680  -12.533000   64.141600
  C      5.077460   -9.684200   64.458000
  H      4.486200  -10.348300   65.033200
  H      4.509700   -8.794570   64.333800
  C      6.327960   -9.299840   65.197100
  H      6.809310   -8.533270   64.540100
  H      6.030260   -8.829370   66.140500
  C      7.350070  -10.458300   65.485600
  H      7.873130  -10.792700   64.589000
  H      8.126760  -10.041500   66.113100
  H      6.854870  -11.456100   65.925400
  S      7.370470  -14.514600   61.363600
  C      6.963990  -16.229600   61.637200
  C      5.634780  -16.295200   61.934900
  C      4.991720  -15.014000   62.156000
  C      5.792690  -13.973800   61.801700
  H      5.207700  -17.244600   62.027500
  C      3.585060  -14.977900   62.632400
  H      3.503920  -14.021900   63.078800
  H      3.510630  -15.661000   63.450200
  C      2.438220  -15.306400   61.598700
  H      2.615740  -16.258900   61.066900
  H      2.428190  -14.550300   60.793300
  C      1.035520  -15.337300   62.251700
  H      0.796540  -14.412000   62.853700
  H      0.916155  -16.149600   62.995800
  H      0.259441  -15.399700   61.506800
  H      4.968820   -9.078900   61.526200
  H      7.710820  -17.042600   61.502700

 Total Charge           Charge          ....    0
 Multiplicity           Mult            ....    1
 Number of Electrons    NEL             ....  134
 Basis Dimension        Dim             ....  322

ORBITAL ENERGIES
----------------

  NO   OCC          E(Eh)            E(eV)
   0   2.0000     -88.965926     -2420.8859
   1   2.0000     -88.957918     -2420.6680
   2   2.0000     -10.329520      -281.0805
   3   2.0000     -10.321741      -280.8689
   4   2.0000     -10.319768      -280.8152
   5   2.0000     -10.317896      -280.7642
   6   2.0000     -10.304046      -280.3873
   7   2.0000     -10.299193      -280.2553
   8   2.0000     -10.295514      -280.1552
   9   2.0000     -10.293804      -280.1087
  10   2.0000     -10.292632      -280.0767
  11   2.0000     -10.289565      -279.9933
  12   2.0000     -10.287807      -279.9455
  13   2.0000     -10.287088      -279.9259
  14   2.0000     -10.284275      -279.8494
  15   2.0000     -10.282645      -279.8050
  16   2.0000      -8.079755      -219.8613
  17   2.0000      -8.073263      -219.6846
  18   2.0000      -6.038356      -164.3120
  19   2.0000      -6.034438      -164.2054
  20   2.0000      -6.031906      -164.1365
  21   2.0000      -6.030428      -164.0963
  22   2.0000      -6.027620      -164.0199
  23   2.0000      -6.023892      -163.9184
  24   2.0000      -1.006798       -27.3964
  25   2.0000      -0.979893       -26.6642
  26   2.0000      -0.911731       -24.8095
  27   2.0000      -0.902654       -24.5625
  28   2.0000      -0.870759       -23.6946
  29   2.0000      -0.847431       -23.0598
  30   2.0000      -0.839985       -22.8572
  31   2.0000      -0.813583       -22.1387
  32   2.0000      -0.785549       -21.3759
  33   2.0000      -0.771144       -20.9839
  34   2.0000      -0.705507       -19.1978
  35   2.0000      -0.700523       -19.0622
  36   2.0000      -0.695595       -18.9281
  37   2.0000      -0.665288       -18.1034
  38   2.0000      -0.641720       -17.4621
  39   2.0000      -0.613118       -16.6838
  40   2.0000      -0.593152       -16.1405
  41   2.0000      -0.570533       -15.5250
  42   2.0000      -0.559629       -15.2283
  43   2.0000      -0.548875       -14.9356
  44   2.0000      -0.541408       -14.7325
  45   2.0000      -0.526371       -14.3233
  46   2.0000      -0.517026       -14.0690
  47   2.0000      -0.511933       -13.9304
  48   2.0000      -0.505962       -13.7679
  49   2.0000      -0.496567       -13.5123
  50   2.0000      -0.488330       -13.2881
  51   2.0000      -0.475336       -12.9345
  52   2.0000      -0.467720       -12.7273
  53   2.0000      -0.462864       -12.5952
  54   2.0000      -0.452874       -12.3233
  55   2.0000      -0.444464       -12.0945
  56   2.0000      -0.442992       -12.0544
  57   2.0000      -0.435877       -11.8608
  58   2.0000      -0.435418       -11.8483
  59   2.0000      -0.427089       -11.6217
  60   2.0000      -0.418430       -11.3861
  61   2.0000      -0.417325       -11.3560
  62   2.0000      -0.412697       -11.2301
  63   2.0000      -0.342738        -9.3264
  64   2.0000      -0.333252        -9.0682
  65   2.0000      -0.321965        -8.7611
  66   2.0000      -0.301564        -8.2060
  67   0.0000       0.040130         1.0920
  68   0.0000       0.062061         1.6888
  69   0.0000       0.112699         3.0667
  70   0.0000       0.121034         3.2935
  71   0.0000       0.124916         3.3991

MULLIKEN ATOMIC CHARGES
-----------------------
   0 S :    0.101490
   1 C :   -0.135904
   2 C :   -0.076291
   3 C :    0.037900
   4 C :   -0.183382
   5 H :    0.012548
   6 C :    0.108295
   7 H :    0.011016
   8 H :    0.013255
   9 C :   -0.068967
  10 H :    0.034684
  11 H :    0.037400
  12 C :   -0.095655
  13 H :    0.048942
  14 H :    0.039572
  15 H :    0.047269
  16 S :    0.084571
  17 C :   -0.113861
  18 C :   -0.001035
  19 C :   -0.066862
  20 C :   -0.129368
  21 H :   -0.001252
  22 C :    0.123536
  23 H :    0.000296
  24 H :    0.009127
  25 C :   -0.064649
  26 H :    0.032015
  27 H :    0.035432
  28 C :   -0.065657
  29 H :    0.034227
  30 H :    0.032616
  31 H :    0.035249
  32 H :    0.046153
  33 H :    0.077292
Sum of atomic charges:   -0.0000000

LOEWDIN ATOMIC CHARGES
----------------------
   0 S :    0.377644
   1 C :   -0.178936
   2 C :   -0.060096
   3 C :   -0.058260
   4 C :   -0.187551
   5 H :    0.029646
   6 C :   -0.027477
   7 H :    0.024470
   8 H :    0.027027
   9 C :   -0.039175
  10 H :    0.030562
  11 H :    0.026815
  12 C :   -0.078757
  13 H :    0.027650
  14 H :    0.025901
  15 H :    0.036023
  16 S :    0.392494
  17 C :   -0.173303
  18 C :   -0.063653
  19 C :   -0.054990
  20 C :   -0.212601
  21 H :    0.021752
  22 C :   -0.029175
  23 H :    0.025244
  24 H :    0.027045
  25 C :   -0.034724
  26 H :    0.025782
  27 H :    0.027935
  28 C :   -0.072295
  29 H :    0.030401
  30 H :    0.024645
  31 H :    0.024083
  32 H :    0.026255
  33 H :    0.039619

  Mayer bond orders larger than 0.100000
B(  0-S ,  1-C ) :   1.1244 B(  0-S ,  4-C ) :   1.1417 B(  1-C ,  2-C ) :   1.6402
B(  1-C , 32-H ) :   0.9705 B(  2-C ,  3-C ) :   1.2145 B(  2-C ,  6-C ) :   1.0002
B(  3-C ,  4-C ) :   1.6094 B(  3-C ,  5-H ) :   0.9888 B(  4-C , 20-C ) :   1.0050
B(  6-C ,  7-H ) :   0.9342 B(  6-C ,  8-H ) :   0.9407 B(  6-C ,  9-C ) :   1.0849
B(  9-C , 10-H ) :   0.9513 B(  9-C , 11-H ) :   0.9552 B(  9-C , 12-C ) :   1.0767
B( 12-C , 13-H ) :   0.9692 B( 12-C , 14-H ) :   0.9727 B( 12-C , 15-H ) :   0.9727
B( 16-S , 17-C ) :   1.1391 B( 16-S , 20-C ) :   1.1367 B( 17-C , 18-C ) :   1.6242
B( 17-C , 33-H ) :   0.9664 B( 18-C , 19-C ) :   1.1995 B( 18-C , 21-H ) :   1.0021
B( 19-C , 20-C ) :   1.6275 B( 19-C , 22-C ) :   1.0609 B( 22-C , 23-H ) :   0.9173
B( 22-C , 24-H ) :   0.9254 B( 22-C , 25-C ) :   1.0564 B( 25-C , 26-H ) :   0.9575
B( 25-C , 27-H ) :   0.9559 B( 25-C , 28-C ) :   1.0778 B( 28-C , 29-H ) :   0.9750
B( 28-C , 30-H ) :   0.9760 B( 28-C , 31-H ) :   0.9752

Dispersion correction           -0.014533514
FINAL SINGLE POINT ENERGY     -1339.882693053067

DIPOLE MOMENT
-------------
                                X             Y             Z
Electronic contribution:     13.40711      -2.10593     -16.77611
Nuclear contribution   :    -13.74368       2.05486      17.31098
                        -----------------------------------------
Total Dipole Moment    :     -0.33658      -0.05108       0.53487
                        -----------------------------------------
Magnitude (a.u.)       :      0.63401
Magnitude (Debye)      :      1.61154

Rotational constants in cm-1:     0.017243     0.008665     0.007441
Rotational constants in MHz :   516.943814   259.779086   223.088996

                             ****ORCA TERMINATED NORMALLY****
TOTAL RUN TIME: 0 days 0 hours 0 minutes 30 seconds 178 msec
