                         Program Version 4.2.1 -  RELEASE  -
|  1> ! wB97X-D3 SP def2-SVP
|  2> %pal
|  3> nprocs 16
|  4> end
|  5>
|  6> * xyz 0 1
|  7> S 	 -81.767 	 32.559 	 136.096
|  8> C 	 -80.0006 	 32.5794 	 136.036
|  9> C 	 -79.5307 	 33.5924 	 135.186
| 10> C 	 -80.6465 	 34.2472 	 134.531
| 11> C 	 -81.925 	 33.8564 	 134.947
| 12> H 	 -80.6223 	 35.0723 	 133.792
| 13> C 	 -78.0922 	 34.1539 	 135.02
| 14> H 	 -77.828 	 34.3746 	 133.948
| 15> H 	 -77.333 	 33.4434 	 135.323
| 16> C 	 -77.7656 	 35.4918 	 135.773
| 17> H 	 -77.9971 	 35.3349 	 136.829
| 18> H 	 -76.7314 	 35.6262 	 135.767
| 19> C 	 -78.4996 	 36.768 	 135.263
| 20> H 	 -78.6197 	 36.914 	 134.252
| 21> H 	 -79.584 	 36.6385 	 135.485
| 22> H 	 -78.0474 	 37.7131 	 135.675
| 23> S 	 -84.337 	 33.1235 	 134.023
| 24> C 	 -85.5524 	 34.2444 	 133.445
| 25> C 	 -85.0804 	 35.5056 	 133.631
| 26> C 	 -83.7217 	 35.5678 	 134.138
| 27> C 	 -83.2111 	 34.3564 	 134.525
| 28> H 	 -85.6496 	 36.3024 	 133.275
| 29> C 	 -83.0231 	 36.8818 	 134.236
| 30> H 	 -83.6149 	 37.6953 	 133.803
| 31> H 	 -82.1272 	 36.7209 	 133.674
| 32> C 	 -82.5608 	 37.2738 	 135.717
| 33> H 	 -81.6792 	 37.8484 	 135.623
| 34> H 	 -82.2453 	 36.3362 	 136.215
| 35> C 	 -83.5509 	 37.9843 	 136.598
| 36> H 	 -84.4792 	 37.3899 	 136.743
| 37> H 	 -83.8219 	 38.8906 	 136.101
| 38> H 	 -82.9025 	 38.0109 	 137.484
| 39> H 	 -79.3895 	 31.8636 	 136.567
| 40> H 	 -86.5357 	 33.9612 	 133.059
| 41> *
| 42>
| 43>                          ****END OF INPUT****

CARTESIAN COORDINATES (ANGSTROEM)
---------------------------------
  S    -81.767000   32.559000  136.096000
  C    -80.000600   32.579400  136.036000
  C    -79.530700   33.592400  135.186000
  C    -80.646500   34.247200  134.531000
  C    -81.925000   33.856400  134.947000
  H    -80.622300   35.072300  133.792000
  C    -78.092200   34.153900  135.020000
  H    -77.828000   34.374600  133.948000
  H    -77.333000   33.443400  135.323000
  C    -77.765600   35.491800  135.773000
  H    -77.997100   35.334900  136.829000
  H    -76.731400   35.626200  135.767000
  C    -78.499600   36.768000  135.263000
  H    -78.619700   36.914000  134.252000
  H    -79.584000   36.638500  135.485000
  H    -78.047400   37.713100  135.675000
  S    -84.337000   33.123500  134.023000
  C    -85.552400   34.244400  133.445000
  C    -85.080400   35.505600  133.631000
  C    -83.721700   35.567800  134.138000
  C    -83.211100   34.356400  134.525000
  H    -85.649600   36.302400  133.275000
  C    -83.023100   36.881800  134.236000
  H    -83.614900   37.695300  133.803000
  H    -82.127200   36.720900  133.674000
  C    -82.560800   37.273800  135.717000
  H    -81.679200   37.848400  135.623000
  H    -82.245300   36.336200  136.215000
  C    -83.550900   37.984300  136.598000
  H    -84.479200   37.389900  136.743000
  H    -83.821900   38.890600  136.101000
  H    -82.902500   38.010900  137.484000
  H    -79.389500   31.863600  136.567000
  H    -86.535700   33.961200  133.059000

 Total Charge           Charge          ....    0
 Multiplicity           Mult            ....    1
 Number of Electrons    NEL             ....  134
 Basis Dimension        Dim             ....  322

ORBITAL ENERGIES
----------------

  NO   OCC          E(Eh)            E(eV)
   0   2.0000     -88.969020     -2420.9701
   1   2.0000     -88.958903     -2420.6948
   2   2.0000     -10.333405      -281.1862
   3   2.0000     -10.325088      -280.9599
   4   2.0000     -10.323015      -280.9035
   5   2.0000     -10.318832      -280.7897
   6   2.0000     -10.314679      -280.6767
   7   2.0000     -10.303790      -280.3804
   8   2.0000     -10.303517      -280.3730
   9   2.0000     -10.301198      -280.3098
  10   2.0000     -10.289709      -279.9972
  11   2.0000     -10.289303      -279.9862
  12   2.0000     -10.288532      -279.9652
  13   2.0000     -10.281199      -279.7656
  14   2.0000     -10.279240      -279.7123
  15   2.0000     -10.275055      -279.5984
  16   2.0000      -8.083464      -219.9622
  17   2.0000      -8.074287      -219.7125
  18   2.0000      -6.041998      -164.4111
  19   2.0000      -6.037893      -164.2994
  20   2.0000      -6.034330      -164.2025
  21   2.0000      -6.032936      -164.1645
  22   2.0000      -6.028532      -164.0447
  23   2.0000      -6.024979      -163.9480
  24   2.0000      -1.009886       -27.4804
  25   2.0000      -0.983391       -26.7594
  26   2.0000      -0.907532       -24.6952
  27   2.0000      -0.905243       -24.6329
  28   2.0000      -0.873840       -23.7784
  29   2.0000      -0.853763       -23.2321
  30   2.0000      -0.840766       -22.8784
  31   2.0000      -0.817250       -22.2385
  32   2.0000      -0.786170       -21.3928
  33   2.0000      -0.773969       -21.0608
  34   2.0000      -0.709680       -19.3114
  35   2.0000      -0.706143       -19.2151
  36   2.0000      -0.686963       -18.6932
  37   2.0000      -0.669083       -18.2067
  38   2.0000      -0.644303       -17.5324
  39   2.0000      -0.614824       -16.7302
  40   2.0000      -0.592445       -16.1213
  41   2.0000      -0.572458       -15.5774
  42   2.0000      -0.555366       -15.1123
  43   2.0000      -0.548283       -14.9195
  44   2.0000      -0.544511       -14.8169
  45   2.0000      -0.540751       -14.7146
  46   2.0000      -0.522137       -14.2081
  47   2.0000      -0.513103       -13.9622
  48   2.0000      -0.509871       -13.8743
  49   2.0000      -0.500741       -13.6259
  50   2.0000      -0.489686       -13.3250
  51   2.0000      -0.485143       -13.2014
  52   2.0000      -0.480932       -13.0868
  53   2.0000      -0.468388       -12.7455
  54   2.0000      -0.460660       -12.5352
  55   2.0000      -0.443125       -12.0581
  56   2.0000      -0.435238       -11.8434
  57   2.0000      -0.431455       -11.7405
  58   2.0000      -0.429445       -11.6858
  59   2.0000      -0.423411       -11.5216
  60   2.0000      -0.418322       -11.3831
  61   2.0000      -0.416133       -11.3236
  62   2.0000      -0.410709       -11.1760
  63   2.0000      -0.352710        -9.5977
  64   2.0000      -0.330845        -9.0028
  65   2.0000      -0.323597        -8.8055
  66   2.0000      -0.294313        -8.0087
  67   0.0000       0.025378         0.6906
  68   0.0000       0.072855         1.9825
  69   0.0000       0.112730         3.0675
  70   0.0000       0.115705         3.1485
  71   0.0000       0.125919         3.4264

MULLIKEN ATOMIC CHARGES
-----------------------
   0 S :    0.112339
   1 C :   -0.126188
   2 C :   -0.052482
   3 C :    0.007498
   4 C :   -0.160731
   5 H :    0.016803
   6 C :    0.030700
   7 H :    0.039049
   8 H :    0.021833
   9 C :   -0.041381
  10 H :    0.029263
  11 H :    0.018747
  12 C :   -0.057242
  13 H :    0.004277
  14 H :    0.028873
  15 H :    0.048244
  16 S :    0.082295
  17 C :   -0.090086
  18 C :   -0.009675
  19 C :   -0.068978
  20 C :   -0.114627
  21 H :   -0.004823
  22 C :    0.087285
  23 H :    0.014895
  24 H :    0.013861
  25 C :   -0.132126
  26 H :    0.026874
  27 H :    0.046613
  28 C :   -0.003129
  29 H :    0.040851
  30 H :    0.023878
  31 H :    0.047104
  32 H :    0.053788
  33 H :    0.066398
Sum of atomic charges:    0.0000000

LOEWDIN ATOMIC CHARGES
----------------------
   0 S :    0.408845
   1 C :   -0.190142
   2 C :   -0.059453
   3 C :   -0.068465
   4 C :   -0.203355
   5 H :    0.031196
   6 C :   -0.032517
   7 H :    0.036020
   8 H :    0.028443
   9 C :   -0.030804
  10 H :    0.026886
  11 H :    0.015532
  12 C :   -0.074894
  13 H :    0.009400
  14 H :    0.032624
  15 H :    0.036194
  16 S :    0.403981
  17 C :   -0.178004
  18 C :   -0.070988
  19 C :   -0.054742
  20 C :   -0.205539
  21 H :    0.021203
  22 C :   -0.032349
  23 H :    0.028028
  24 H :    0.026603
  25 C :   -0.037997
  26 H :    0.014095
  27 H :    0.027428
  28 C :   -0.060417
  29 H :    0.030217
  30 H :    0.018907
  31 H :    0.038879
  32 H :    0.028738
  33 H :    0.036447

  Mayer bond orders larger than 0.100000
B(  0-S ,  1-C ) :   1.1435 B(  0-S ,  4-C ) :   1.1503 B(  1-C ,  2-C ) :   1.5977
B(  1-C ,  4-C ) :   0.1032 B(  1-C , 32-H ) :   0.9715 B(  2-C ,  3-C ) :   1.2367
B(  2-C ,  6-C ) :   1.0272 B(  3-C ,  4-C ) :   1.5758 B(  3-C ,  5-H ) :   0.9829
B(  4-C , 20-C ) :   1.0341 B(  6-C ,  7-H ) :   0.9463 B(  6-C ,  8-H ) :   0.9426
B(  6-C ,  9-C ) :   1.0701 B(  9-C , 10-H ) :   0.9544 B(  9-C , 11-H ) :   0.9586
B(  9-C , 12-C ) :   1.0715 B( 12-C , 13-H ) :   0.9738 B( 12-C , 14-H ) :   0.9640
B( 12-C , 15-H ) :   0.9723 B( 16-S , 17-C ) :   1.1574 B( 16-S , 20-C ) :   1.1319
B( 17-C , 18-C ) :   1.6039 B( 17-C , 33-H ) :   0.9673 B( 18-C , 19-C ) :   1.2281
B( 18-C , 21-H ) :   1.0024 B( 19-C , 20-C ) :   1.5976 B( 19-C , 22-C ) :   1.0565
B( 22-C , 23-H ) :   0.9360 B( 22-C , 24-H ) :   0.9212 B( 22-C , 25-C ) :   1.0652
B( 25-C , 26-H ) :   0.9503 B( 25-C , 27-H ) :   0.9592 B( 25-C , 28-C ) :   1.0639
B( 28-C , 29-H ) :   0.9763 B( 28-C , 30-H ) :   0.9729 B( 28-C , 31-H ) :   0.9726

Dispersion correction           -0.015969868
FINAL SINGLE POINT ENERGY     -1339.867302181348

DIPOLE MOMENT
-------------
                                X             Y             Z
Electronic contribution:    -14.95243     -24.33958      -3.80575
Nuclear contribution   :     15.30422      24.93424       3.65684
                        -----------------------------------------
Total Dipole Moment    :      0.35179       0.59466      -0.14890
                        -----------------------------------------
Magnitude (a.u.)       :      0.70679
Magnitude (Debye)      :      1.79651

Rotational constants in cm-1:     0.018472     0.010315     0.007583
Rotational constants in MHz :   553.765078   309.239170   227.319601

                             ****ORCA TERMINATED NORMALLY****
TOTAL RUN TIME: 0 days 0 hours 0 minutes 37 seconds 786 msec
