                         Program Version 4.2.1 -  RELEASE  -
|  1> ! wB97X-D3 SP def2-SVP
|  2> %pal
|  3> nprocs 16
|  4> end
|  5>
|  6> * xyz 0 1
|  7> S 	 -34.9912 	 70.325 	 172.001
|  8> C 	 -33.8043 	 71.5749 	 172.004
|  9> C 	 -34.0437 	 72.4535 	 171.019
| 10> C 	 -35.2118 	 72.2243 	 170.216
| 11> C 	 -35.8556 	 71.0672 	 170.665
| 12> H 	 -35.643 	 72.8235 	 169.488
| 13> C 	 -33.2049 	 73.6831 	 170.897
| 14> H 	 -32.3217 	 73.4248 	 171.316
| 15> H 	 -33.6602 	 74.5176 	 171.503
| 16> C 	 -32.8972 	 74.2008 	 169.457
| 17> H 	 -32.6269 	 73.3587 	 168.905
| 18> H 	 -33.8512 	 74.4811 	 168.984
| 19> C 	 -31.8266 	 75.3189 	 169.348
| 20> H 	 -31.8567 	 75.7368 	 168.383
| 21> H 	 -32.0893 	 76.0861 	 170.078
| 22> H 	 -30.7607 	 74.9692 	 169.445
| 23> S 	 -37.2439 	 69.4875 	 169.011
| 24> C 	 -38.9447 	 69.4558 	 169.091
| 25> C 	 -39.4663 	 70.0964 	 170.219
| 26> C 	 -38.383 	 70.7815 	 170.9
| 27> C 	 -37.1746 	 70.6136 	 170.264
| 28> H 	 -40.4996 	 69.9729 	 170.488
| 29> C 	 -38.6323 	 71.5945 	 172.157
| 30> H 	 -37.618 	 71.801 	 172.589
| 31> H 	 -39.1057 	 70.9681 	 172.908
| 32> C 	 -39.5221 	 72.8452 	 172.027
| 33> H 	 -39.5276 	 73.3185 	 172.999
| 34> H 	 -40.5709 	 72.6758 	 171.732
| 35> C 	 -38.7479 	 73.775 	 171.134
| 36> H 	 -38.9485 	 73.3289 	 170.107
| 37> H 	 -37.6798 	 73.7137 	 171.347
| 38> H 	 -39.0525 	 74.8335 	 171.357
| 39> H 	 -32.9877 	 71.6662 	 172.703
| 40> H 	 -39.5584 	 68.7588 	 168.567
| 41> *
| 42>
| 43>                          ****END OF INPUT****

CARTESIAN COORDINATES (ANGSTROEM)
---------------------------------
  S    -34.991200   70.325000  172.001000
  C    -33.804300   71.574900  172.004000
  C    -34.043700   72.453500  171.019000
  C    -35.211800   72.224300  170.216000
  C    -35.855600   71.067200  170.665000
  H    -35.643000   72.823500  169.488000
  C    -33.204900   73.683100  170.897000
  H    -32.321700   73.424800  171.316000
  H    -33.660200   74.517600  171.503000
  C    -32.897200   74.200800  169.457000
  H    -32.626900   73.358700  168.905000
  H    -33.851200   74.481100  168.984000
  C    -31.826600   75.318900  169.348000
  H    -31.856700   75.736800  168.383000
  H    -32.089300   76.086100  170.078000
  H    -30.760700   74.969200  169.445000
  S    -37.243900   69.487500  169.011000
  C    -38.944700   69.455800  169.091000
  C    -39.466300   70.096400  170.219000
  C    -38.383000   70.781500  170.900000
  C    -37.174600   70.613600  170.264000
  H    -40.499600   69.972900  170.488000
  C    -38.632300   71.594500  172.157000
  H    -37.618000   71.801000  172.589000
  H    -39.105700   70.968100  172.908000
  C    -39.522100   72.845200  172.027000
  H    -39.527600   73.318500  172.999000
  H    -40.570900   72.675800  171.732000
  C    -38.747900   73.775000  171.134000
  H    -38.948500   73.328900  170.107000
  H    -37.679800   73.713700  171.347000
  H    -39.052500   74.833500  171.357000
  H    -32.987700   71.666200  172.703000
  H    -39.558400   68.758800  168.567000

 Total Charge           Charge          ....    0
 Multiplicity           Mult            ....    1
 Number of Electrons    NEL             ....  134
 Basis Dimension        Dim             ....  322

ORBITAL ENERGIES
----------------

  NO   OCC          E(Eh)            E(eV)
   0   2.0000     -88.965494     -2420.8742
   1   2.0000     -88.964932     -2420.8589
   2   2.0000     -10.328359      -281.0489
   3   2.0000     -10.315811      -280.7075
   4   2.0000     -10.310913      -280.5742
   5   2.0000     -10.307244      -280.4744
   6   2.0000     -10.302134      -280.3353
   7   2.0000     -10.294879      -280.1379
   8   2.0000     -10.293850      -280.1099
   9   2.0000     -10.292974      -280.0861
  10   2.0000     -10.287638      -279.9408
  11   2.0000     -10.282906      -279.8121
  12   2.0000     -10.281981      -279.7869
  13   2.0000     -10.280818      -279.7553
  14   2.0000     -10.280562      -279.7483
  15   2.0000     -10.274474      -279.5827
  16   2.0000      -8.081769      -219.9161
  17   2.0000      -8.080413      -219.8792
  18   2.0000      -6.039987      -164.3564
  19   2.0000      -6.038849      -164.3254
  20   2.0000      -6.036016      -164.2484
  21   2.0000      -6.034757      -164.2141
  22   2.0000      -6.032687      -164.1578
  23   2.0000      -6.031375      -164.1221
  24   2.0000      -1.015443       -27.6316
  25   2.0000      -0.992281       -27.0013
  26   2.0000      -0.912569       -24.8323
  27   2.0000      -0.909631       -24.7523
  28   2.0000      -0.872876       -23.7522
  29   2.0000      -0.849986       -23.1293
  30   2.0000      -0.847518       -23.0621
  31   2.0000      -0.820016       -22.3138
  32   2.0000      -0.778433       -21.1822
  33   2.0000      -0.767137       -20.8749
  34   2.0000      -0.714094       -19.4315
  35   2.0000      -0.694622       -18.9016
  36   2.0000      -0.687759       -18.7149
  37   2.0000      -0.659874       -17.9561
  38   2.0000      -0.649489       -17.6735
  39   2.0000      -0.619958       -16.8699
  40   2.0000      -0.594430       -16.1753
  41   2.0000      -0.572987       -15.5918
  42   2.0000      -0.560999       -15.2656
  43   2.0000      -0.553283       -15.0556
  44   2.0000      -0.543492       -14.7892
  45   2.0000      -0.521475       -14.1901
  46   2.0000      -0.519947       -14.1485
  47   2.0000      -0.516777       -14.0622
  48   2.0000      -0.505781       -13.7630
  49   2.0000      -0.499711       -13.5978
  50   2.0000      -0.490924       -13.3587
  51   2.0000      -0.478437       -13.0189
  52   2.0000      -0.473461       -12.8835
  53   2.0000      -0.463882       -12.6229
  54   2.0000      -0.458302       -12.4710
  55   2.0000      -0.451579       -12.2881
  56   2.0000      -0.447990       -12.1904
  57   2.0000      -0.435654       -11.8547
  58   2.0000      -0.428021       -11.6470
  59   2.0000      -0.425272       -11.5722
  60   2.0000      -0.416962       -11.3461
  61   2.0000      -0.414481       -11.2786
  62   2.0000      -0.405156       -11.0248
  63   2.0000      -0.336128        -9.1465
  64   2.0000      -0.329948        -8.9783
  65   2.0000      -0.318860        -8.6766
  66   2.0000      -0.313452        -8.5295
  67   0.0000       0.047562         1.2942
  68   0.0000       0.057815         1.5732
  69   0.0000       0.108493         2.9523
  70   0.0000       0.124823         3.3966
  71   0.0000       0.134281         3.6540

MULLIKEN ATOMIC CHARGES
-----------------------
   0 S :    0.123330
   1 C :   -0.121228
   2 C :   -0.099356
   3 C :    0.092758
   4 C :   -0.189469
   5 H :   -0.005600
   6 C :    0.106638
   7 H :   -0.017393
   8 H :    0.046294
   9 C :   -0.098815
  10 H :    0.012673
  11 H :    0.027895
  12 C :   -0.026147
  13 H :    0.023902
  14 H :    0.033746
  15 H :    0.043100
  16 S :    0.137496
  17 C :   -0.077511
  18 C :   -0.050465
  19 C :   -0.028027
  20 C :   -0.194684
  21 H :    0.020713
  22 C :    0.041466
  23 H :    0.032903
  24 H :    0.024680
  25 C :   -0.057574
  26 H :    0.020276
  27 H :    0.039716
  28 C :   -0.071129
  29 H :    0.056030
  30 H :    0.028969
  31 H :    0.037674
  32 H :    0.042330
  33 H :    0.044808
Sum of atomic charges:    0.0000000

LOEWDIN ATOMIC CHARGES
----------------------
   0 S :    0.414902
   1 C :   -0.203011
   2 C :   -0.067087
   3 C :   -0.044028
   4 C :   -0.192268
   5 H :    0.023091
   6 C :   -0.026871
   7 H :    0.011089
   8 H :    0.037277
   9 C :   -0.039299
  10 H :    0.015133
  11 H :    0.022396
  12 C :   -0.062189
  13 H :    0.021695
  14 H :    0.026816
  15 H :    0.033330
  16 S :    0.459694
  17 C :   -0.197972
  18 C :   -0.066740
  19 C :   -0.052258
  20 C :   -0.237128
  21 H :    0.031363
  22 C :   -0.036010
  23 H :    0.031358
  24 H :    0.028461
  25 C :   -0.043772
  26 H :    0.022187
  27 H :    0.025301
  28 C :   -0.072843
  29 H :    0.036806
  30 H :    0.022025
  31 H :    0.027084
  32 H :    0.030336
  33 H :    0.021130

  Mayer bond orders larger than 0.100000
B(  0-S ,  1-C ) :   1.1234 B(  0-S ,  4-C ) :   1.1662 B(  1-C ,  2-C ) :   1.6402
B(  1-C , 32-H ) :   0.9690 B(  2-C ,  3-C ) :   1.2083 B(  2-C ,  6-C ) :   1.0341
B(  3-C ,  4-C ) :   1.5759 B(  3-C ,  5-H ) :   1.0071 B(  4-C , 20-C ) :   0.9961
B(  6-C ,  7-H ) :   0.9310 B(  6-C ,  8-H ) :   0.9300 B(  6-C ,  9-C ) :   1.0654
B(  9-C , 10-H ) :   0.9591 B(  9-C , 11-H ) :   0.9524 B(  9-C , 12-C ) :   1.0837
B( 12-C , 13-H ) :   0.9726 B( 12-C , 14-H ) :   0.9757 B( 12-C , 15-H ) :   0.9751
B( 16-S , 17-C ) :   1.1815 B( 16-S , 20-C ) :   1.1753 B( 17-C , 18-C ) :   1.5984
B( 17-C , 33-H ) :   0.9671 B( 18-C , 19-C ) :   1.2303 B( 18-C , 21-H ) :   0.9970
B( 19-C , 20-C ) :   1.5912 B( 19-C , 22-C ) :   1.0443 B( 22-C , 23-H ) :   0.9311
B( 22-C , 24-H ) :   0.9313 B( 22-C , 25-C ) :   1.0810 B( 25-C , 26-H ) :   0.9508
B( 25-C , 27-H ) :   0.9570 B( 25-C , 28-C ) :   1.0673 B( 28-C , 29-H ) :   0.9724
B( 28-C , 30-H ) :   0.9722 B( 28-C , 31-H ) :   0.9728

Dispersion correction           -0.015231380
FINAL SINGLE POINT ENERGY     -1339.869038830370

DIPOLE MOMENT
-------------
                                X             Y             Z
Electronic contribution:     -3.26968     -25.21506      -1.24919
Nuclear contribution   :      3.20012      25.57116       1.43196
                        -----------------------------------------
Total Dipole Moment    :     -0.06956       0.35609       0.18278
                        -----------------------------------------
Magnitude (a.u.)       :      0.40626
Magnitude (Debye)      :      1.03264

Rotational constants in cm-1:     0.020327     0.008084     0.007406
Rotational constants in MHz :   609.376622   242.359090   222.015296

                             ****ORCA TERMINATED NORMALLY****
TOTAL RUN TIME: 0 days 0 hours 0 minutes 35 seconds 504 msec
