                         Program Version 4.2.1 -  RELEASE  -
|  1> ! wB97X-D3 SP def2-SVP
|  2> %pal
|  3> nprocs 16
|  4> end
|  5>
|  6> * xyz 0 1
|  7> S 	 -73.0784 	 44.4452 	 125.707
|  8> C 	 -71.6426 	 44.5572 	 124.562
|  9> C 	 -71.0086 	 45.7864 	 124.731
| 10> C 	 -71.5956 	 46.5206 	 125.8
| 11> C 	 -72.5967 	 45.9037 	 126.457
| 12> H 	 -71.2113 	 47.4798 	 126.161
| 13> C 	 -69.813 	 46.1715 	 123.787
| 14> H 	 -69.2759 	 45.2005 	 123.499
| 15> H 	 -69.107 	 46.6042 	 124.442
| 16> C 	 -70.1405 	 47.1366 	 122.634
| 17> H 	 -70.921 	 46.6432 	 121.96
| 18> H 	 -70.5983 	 48.0105 	 123.047
| 19> C 	 -68.9135 	 47.3769 	 121.711
| 20> H 	 -68.7626 	 46.5145 	 121.088
| 21> H 	 -69.1248 	 48.1792 	 121.019
| 22> H 	 -67.9801 	 47.5698 	 122.172
| 23> S 	 -74.8516 	 47.2773 	 126.935
| 24> C 	 -75.0482 	 47.9372 	 128.552
| 25> C 	 -74.1192 	 47.4814 	 129.442
| 26> C 	 -73.0197 	 46.8356 	 128.813
| 27> C 	 -73.3331 	 46.5739 	 127.494
| 28> H 	 -74.1324 	 47.7746 	 130.513
| 29> C 	 -71.7788 	 46.344 	 129.588
| 30> H 	 -71.5528 	 47.15 	 130.187
| 31> H 	 -70.8756 	 46.2226 	 128.967
| 32> C 	 -72.0472 	 45.1396 	 130.446
| 33> H 	 -72.7266 	 45.5187 	 131.216
| 34> H 	 -71.2055 	 44.7999 	 131.053
| 35> C 	 -72.6605 	 43.9505 	 129.682
| 36> H 	 -72.9211 	 43.1223 	 130.432
| 37> H 	 -71.8257 	 43.5025 	 129.186
| 38> H 	 -73.3375 	 44.1102 	 128.808
| 39> H 	 -71.2936 	 43.806 	 123.877
| 40> H 	 -75.941 	 48.4289 	 128.907
| 41> *
| 42>
| 43>                          ****END OF INPUT****

CARTESIAN COORDINATES (ANGSTROEM)
---------------------------------
  S    -73.078400   44.445200  125.707000
  C    -71.642600   44.557200  124.562000
  C    -71.008600   45.786400  124.731000
  C    -71.595600   46.520600  125.800000
  C    -72.596700   45.903700  126.457000
  H    -71.211300   47.479800  126.161000
  C    -69.813000   46.171500  123.787000
  H    -69.275900   45.200500  123.499000
  H    -69.107000   46.604200  124.442000
  C    -70.140500   47.136600  122.634000
  H    -70.921000   46.643200  121.960000
  H    -70.598300   48.010500  123.047000
  C    -68.913500   47.376900  121.711000
  H    -68.762600   46.514500  121.088000
  H    -69.124800   48.179200  121.019000
  H    -67.980100   47.569800  122.172000
  S    -74.851600   47.277300  126.935000
  C    -75.048200   47.937200  128.552000
  C    -74.119200   47.481400  129.442000
  C    -73.019700   46.835600  128.813000
  C    -73.333100   46.573900  127.494000
  H    -74.132400   47.774600  130.513000
  C    -71.778800   46.344000  129.588000
  H    -71.552800   47.150000  130.187000
  H    -70.875600   46.222600  128.967000
  C    -72.047200   45.139600  130.446000
  H    -72.726600   45.518700  131.216000
  H    -71.205500   44.799900  131.053000
  C    -72.660500   43.950500  129.682000
  H    -72.921100   43.122300  130.432000
  H    -71.825700   43.502500  129.186000
  H    -73.337500   44.110200  128.808000
  H    -71.293600   43.806000  123.877000
  H    -75.941000   48.428900  128.907000

 Total Charge           Charge          ....    0
 Multiplicity           Mult            ....    1
 Number of Electrons    NEL             ....  134
 Basis Dimension        Dim             ....  322

ORBITAL ENERGIES
----------------

  NO   OCC          E(Eh)            E(eV)
   0   2.0000     -88.967133     -2420.9188
   1   2.0000     -88.965778     -2420.8819
   2   2.0000     -10.321968      -280.8750
   3   2.0000     -10.318934      -280.7925
   4   2.0000     -10.318298      -280.7752
   5   2.0000     -10.313134      -280.6346
   6   2.0000     -10.304702      -280.4052
   7   2.0000     -10.303094      -280.3614
   8   2.0000     -10.299713      -280.2694
   9   2.0000     -10.294578      -280.1297
  10   2.0000     -10.293477      -280.0997
  11   2.0000     -10.288842      -279.9736
  12   2.0000     -10.286449      -279.9085
  13   2.0000     -10.284125      -279.8453
  14   2.0000     -10.275689      -279.6157
  15   2.0000     -10.274168      -279.5743
  16   2.0000      -8.081067      -219.8970
  17   2.0000      -8.080396      -219.8787
  18   2.0000      -6.039647      -164.3471
  19   2.0000      -6.038840      -164.3252
  20   2.0000      -6.035721      -164.2403
  21   2.0000      -6.035110      -164.2237
  22   2.0000      -6.031758      -164.1325
  23   2.0000      -6.031030      -164.1127
  24   2.0000      -1.009282       -27.4640
  25   2.0000      -0.981404       -26.7054
  26   2.0000      -0.910930       -24.7877
  27   2.0000      -0.906768       -24.6744
  28   2.0000      -0.869297       -23.6548
  29   2.0000      -0.845231       -22.9999
  30   2.0000      -0.843552       -22.9542
  31   2.0000      -0.810738       -22.0613
  32   2.0000      -0.787429       -21.4270
  33   2.0000      -0.775212       -21.0946
  34   2.0000      -0.707295       -19.2465
  35   2.0000      -0.700940       -19.0735
  36   2.0000      -0.692078       -18.8324
  37   2.0000      -0.658146       -17.9091
  38   2.0000      -0.639515       -17.4021
  39   2.0000      -0.614163       -16.7122
  40   2.0000      -0.596036       -16.2190
  41   2.0000      -0.563371       -15.3301
  42   2.0000      -0.555943       -15.1280
  43   2.0000      -0.553042       -15.0490
  44   2.0000      -0.542649       -14.7662
  45   2.0000      -0.523481       -14.2447
  46   2.0000      -0.516978       -14.0677
  47   2.0000      -0.504565       -13.7299
  48   2.0000      -0.499445       -13.5906
  49   2.0000      -0.497567       -13.5395
  50   2.0000      -0.491100       -13.3635
  51   2.0000      -0.471703       -12.8357
  52   2.0000      -0.462491       -12.5850
  53   2.0000      -0.461518       -12.5585
  54   2.0000      -0.457337       -12.4448
  55   2.0000      -0.450335       -12.2542
  56   2.0000      -0.448387       -12.2012
  57   2.0000      -0.442340       -12.0367
  58   2.0000      -0.436162       -11.8686
  59   2.0000      -0.426365       -11.6020
  60   2.0000      -0.424157       -11.5419
  61   2.0000      -0.410256       -11.1636
  62   2.0000      -0.402527       -10.9533
  63   2.0000      -0.340154        -9.2561
  64   2.0000      -0.331319        -9.0156
  65   2.0000      -0.327149        -8.9022
  66   2.0000      -0.302314        -8.2264
  67   0.0000       0.043708         1.1894
  68   0.0000       0.055493         1.5100
  69   0.0000       0.104912         2.8548
  70   0.0000       0.116448         3.1687
  71   0.0000       0.128151         3.4872

MULLIKEN ATOMIC CHARGES
-----------------------
   0 S :    0.100025
   1 C :   -0.129317
   2 C :   -0.074749
   3 C :    0.035907
   4 C :   -0.151335
   5 H :    0.011543
   6 C :    0.048308
   7 H :    0.031219
   8 H :    0.012849
   9 C :   -0.064934
  10 H :    0.040318
  11 H :    0.031637
  12 C :   -0.021703
  13 H :    0.024040
  14 H :    0.032350
  15 H :    0.023593
  16 S :    0.117321
  17 C :   -0.079497
  18 C :   -0.047822
  19 C :   -0.054332
  20 C :   -0.197693
  21 H :    0.032407
  22 C :    0.134073
  23 H :   -0.002378
  24 H :    0.027459
  25 C :   -0.067932
  26 H :    0.015651
  27 H :    0.030042
  28 C :   -0.058838
  29 H :    0.040958
  30 H :    0.012392
  31 H :    0.052625
  32 H :    0.044354
  33 H :    0.051459
Sum of atomic charges:    0.0000000

LOEWDIN ATOMIC CHARGES
----------------------
   0 S :    0.386546
   1 C :   -0.171924
   2 C :   -0.056316
   3 C :   -0.066583
   4 C :   -0.215883
   5 H :    0.032867
   6 C :   -0.031919
   7 H :    0.037032
   8 H :    0.020566
   9 C :   -0.037081
  10 H :    0.034719
  11 H :    0.021460
  12 C :   -0.061678
  13 H :    0.025465
  14 H :    0.028298
  15 H :    0.018205
  16 S :    0.398142
  17 C :   -0.181838
  18 C :   -0.071318
  19 C :   -0.048108
  20 C :   -0.190633
  21 H :    0.037705
  22 C :   -0.023776
  23 H :    0.020729
  24 H :    0.031677
  25 C :   -0.042577
  26 H :    0.018805
  27 H :    0.027821
  28 C :   -0.080655
  29 H :    0.036909
  30 H :    0.021530
  31 H :    0.030136
  32 H :    0.025420
  33 H :    0.026258

  Mayer bond orders larger than 0.100000
B(  0-S ,  1-C ) :   1.1130 B(  0-S ,  4-C ) :   1.1433 B(  1-C ,  2-C ) :   1.6273
B(  1-C , 32-H ) :   0.9715 B(  2-C ,  3-C ) :   1.2303 B(  2-C ,  6-C ) :   1.0046
B(  3-C ,  4-C ) :   1.6024 B(  3-C ,  5-H ) :   0.9943 B(  4-C , 20-C ) :   1.0149
B(  6-C ,  7-H ) :   0.9485 B(  6-C ,  8-H ) :   0.9368 B(  6-C ,  9-C ) :   1.0549
B(  9-C , 10-H ) :   0.9585 B(  9-C , 11-H ) :   0.9585 B(  9-C , 12-C ) :   1.0710
B( 12-C , 13-H ) :   0.9755 B( 12-C , 14-H ) :   0.9744 B( 12-C , 15-H ) :   0.9784
B( 16-S , 17-C ) :   1.1363 B( 16-S , 20-C ) :   1.1448 B( 17-C , 18-C ) :   1.6576
B( 17-C , 33-H ) :   0.9622 B( 18-C , 19-C ) :   1.2160 B( 18-C , 21-H ) :   0.9738
B( 19-C , 20-C ) :   1.6376 B( 19-C , 22-C ) :   1.0351 B( 22-C , 23-H ) :   0.9177
B( 22-C , 24-H ) :   0.9361 B( 22-C , 25-C ) :   1.0827 B( 25-C , 26-H ) :   0.9531
B( 25-C , 27-H ) :   0.9527 B( 25-C , 28-C ) :   1.0679 B( 28-C , 29-H ) :   0.9706
B( 28-C , 30-H ) :   0.9699 B( 28-C , 31-H ) :   0.9719

Dispersion correction           -0.014899483
FINAL SINGLE POINT ENERGY     -1339.862985542922

DIPOLE MOMENT
-------------
                                X             Y             Z
Electronic contribution:    -19.23268       0.32314       1.87969
Nuclear contribution   :     19.84901      -0.09720      -1.80254
                        -----------------------------------------
Total Dipole Moment    :      0.61632       0.22593       0.07715
                        -----------------------------------------
Magnitude (a.u.)       :      0.66095
Magnitude (Debye)      :      1.68000

Rotational constants in cm-1:     0.022123     0.007539     0.006950
Rotational constants in MHz :   663.230758   226.027085   208.359662

                             ****ORCA TERMINATED NORMALLY****
TOTAL RUN TIME: 0 days 0 hours 0 minutes 32 seconds 488 msec
