                         Program Version 4.2.1 -  RELEASE  -
|  1> ! wB97X-D3 SP def2-SVP
|  2> %pal
|  3> nprocs 16
|  4> end
|  5>
|  6> * xyz 0 1
|  7> S 	 19.3553 	 -9.34798 	 81.5907
|  8> C 	 18.617 	 -9.53799 	 80.0243
|  9> C 	 17.2587 	 -9.71554 	 80.1104
| 10> C 	 16.7938 	 -9.53707 	 81.4267
| 11> C 	 17.7809 	 -9.27365 	 82.3416
| 12> H 	 15.8125 	 -9.70397 	 81.7353
| 13> C 	 16.3199 	 -9.75914 	 78.8875
| 14> H 	 15.9504 	 -8.77296 	 78.5364
| 15> H 	 15.3305 	 -10.1969 	 79.2317
| 16> C 	 16.6138 	 -10.669 	 77.7162
| 17> H 	 17.4584 	 -10.1833 	 77.3014
| 18> H 	 16.9085 	 -11.7035 	 78.0111
| 19> C 	 15.3227 	 -10.6874 	 76.8103
| 20> H 	 14.5108 	 -11.2505 	 77.2244
| 21> H 	 14.9654 	 -9.68363 	 76.5928
| 22> H 	 15.6055 	 -11.1713 	 75.8217
| 23> S 	 15.915 	 -8.48534 	 84.2291
| 24> C 	 16.5676 	 -7.83989 	 85.6502
| 25> C 	 17.7975 	 -8.39115 	 85.8668
| 26> C 	 18.4087 	 -9.07401 	 84.7822
| 27> C 	 17.54 	 -9.19919 	 83.7555
| 28> H 	 18.3294 	 -8.12817 	 86.7921
| 29> C 	 19.7626 	 -9.7698 	 84.9335
| 30> H 	 20.4194 	 -8.9658 	 84.5923
| 31> H 	 19.923 	 -10.5766 	 84.1144
| 32> C 	 20.0732 	 -10.2483 	 86.3761
| 33> H 	 19.2741 	 -10.8537 	 86.7797
| 34> H 	 20.1436 	 -9.40509 	 87.0021
| 35> C 	 21.2862 	 -11.0354 	 86.644
| 36> H 	 21.3696 	 -11.3411 	 87.6983
| 37> H 	 22.0697 	 -10.3276 	 86.4126
| 38> H 	 21.2902 	 -11.9415 	 85.9866
| 39> H 	 19.1752 	 -9.38419 	 79.164
| 40> H 	 16.1148 	 -7.11218 	 86.3113
| 41> *
| 42>
| 43>                          ****END OF INPUT****

CARTESIAN COORDINATES (ANGSTROEM)
---------------------------------
  S     19.355300   -9.347980   81.590700
  C     18.617000   -9.537990   80.024300
  C     17.258700   -9.715540   80.110400
  C     16.793800   -9.537070   81.426700
  C     17.780900   -9.273650   82.341600
  H     15.812500   -9.703970   81.735300
  C     16.319900   -9.759140   78.887500
  H     15.950400   -8.772960   78.536400
  H     15.330500  -10.196900   79.231700
  C     16.613800  -10.669000   77.716200
  H     17.458400  -10.183300   77.301400
  H     16.908500  -11.703500   78.011100
  C     15.322700  -10.687400   76.810300
  H     14.510800  -11.250500   77.224400
  H     14.965400   -9.683630   76.592800
  H     15.605500  -11.171300   75.821700
  S     15.915000   -8.485340   84.229100
  C     16.567600   -7.839890   85.650200
  C     17.797500   -8.391150   85.866800
  C     18.408700   -9.074010   84.782200
  C     17.540000   -9.199190   83.755500
  H     18.329400   -8.128170   86.792100
  C     19.762600   -9.769800   84.933500
  H     20.419400   -8.965800   84.592300
  H     19.923000  -10.576600   84.114400
  C     20.073200  -10.248300   86.376100
  H     19.274100  -10.853700   86.779700
  H     20.143600   -9.405090   87.002100
  C     21.286200  -11.035400   86.644000
  H     21.369600  -11.341100   87.698300
  H     22.069700  -10.327600   86.412600
  H     21.290200  -11.941500   85.986600
  H     19.175200   -9.384190   79.164000
  H     16.114800   -7.112180   86.311300

 Total Charge           Charge          ....    0
 Multiplicity           Mult            ....    1
 Number of Electrons    NEL             ....  134
 Basis Dimension        Dim             ....  322

ORBITAL ENERGIES
----------------

  NO   OCC          E(Eh)            E(eV)
   0   2.0000     -88.967289     -2420.9230
   1   2.0000     -88.959349     -2420.7070
   2   2.0000     -10.325389      -280.9681
   3   2.0000     -10.322992      -280.9029
   4   2.0000     -10.315075      -280.6875
   5   2.0000     -10.305349      -280.4228
   6   2.0000     -10.305114      -280.4164
   7   2.0000     -10.301690      -280.3232
   8   2.0000     -10.298641      -280.2403
   9   2.0000     -10.293389      -280.0974
  10   2.0000     -10.288967      -279.9770
  11   2.0000     -10.286777      -279.9174
  12   2.0000     -10.284903      -279.8664
  13   2.0000     -10.280525      -279.7473
  14   2.0000     -10.280401      -279.7439
  15   2.0000     -10.278034      -279.6795
  16   2.0000      -8.081923      -219.9203
  17   2.0000      -8.074622      -219.7216
  18   2.0000      -6.040485      -164.3700
  19   2.0000      -6.036515      -164.2619
  20   2.0000      -6.033186      -164.1713
  21   2.0000      -6.032602      -164.1554
  22   2.0000      -6.029260      -164.0645
  23   2.0000      -6.025068      -163.9504
  24   2.0000      -1.011698       -27.5297
  25   2.0000      -0.988845       -26.9078
  26   2.0000      -0.916243       -24.9322
  27   2.0000      -0.909740       -24.7553
  28   2.0000      -0.875857       -23.8333
  29   2.0000      -0.861266       -23.4362
  30   2.0000      -0.847876       -23.0719
  31   2.0000      -0.806402       -21.9433
  32   2.0000      -0.785387       -21.3715
  33   2.0000      -0.770523       -20.9670
  34   2.0000      -0.709249       -19.2996
  35   2.0000      -0.699566       -19.0362
  36   2.0000      -0.697903       -18.9909
  37   2.0000      -0.663703       -18.0603
  38   2.0000      -0.638620       -17.3777
  39   2.0000      -0.611003       -16.6262
  40   2.0000      -0.599958       -16.3257
  41   2.0000      -0.576448       -15.6859
  42   2.0000      -0.567825       -15.4513
  43   2.0000      -0.564623       -15.3642
  44   2.0000      -0.537000       -14.6125
  45   2.0000      -0.524628       -14.2758
  46   2.0000      -0.519318       -14.1314
  47   2.0000      -0.514394       -13.9974
  48   2.0000      -0.508344       -13.8327
  49   2.0000      -0.493615       -13.4319
  50   2.0000      -0.488740       -13.2993
  51   2.0000      -0.477943       -13.0055
  52   2.0000      -0.475235       -12.9318
  53   2.0000      -0.469240       -12.7687
  54   2.0000      -0.460296       -12.5253
  55   2.0000      -0.454207       -12.3596
  56   2.0000      -0.449478       -12.2309
  57   2.0000      -0.442400       -12.0383
  58   2.0000      -0.423947       -11.5362
  59   2.0000      -0.419447       -11.4137
  60   2.0000      -0.415452       -11.3050
  61   2.0000      -0.412068       -11.2130
  62   2.0000      -0.403401       -10.9771
  63   2.0000      -0.364338        -9.9141
  64   2.0000      -0.334125        -9.0920
  65   2.0000      -0.328302        -8.9335
  66   2.0000      -0.274223        -7.4620
  67   0.0000       0.019039         0.5181
  68   0.0000       0.074104         2.0165
  69   0.0000       0.104239         2.8365
  70   0.0000       0.116513         3.1705
  71   0.0000       0.137297         3.7360

MULLIKEN ATOMIC CHARGES
-----------------------
   0 S :    0.087574
   1 C :   -0.118570
   2 C :    0.002865
   3 C :    0.001609
   4 C :   -0.065141
   5 H :   -0.007743
   6 C :   -0.020110
   7 H :    0.045285
   8 H :    0.011512
   9 C :   -0.051394
  10 H :    0.019877
  11 H :    0.041663
  12 C :   -0.070599
  13 H :    0.041346
  14 H :    0.030172
  15 H :    0.041932
  16 S :    0.064127
  17 C :   -0.067353
  18 C :   -0.053931
  19 C :   -0.083454
  20 C :   -0.131200
  21 H :    0.019686
  22 C :    0.040528
  23 H :    0.037114
  24 H :    0.050513
  25 C :   -0.072972
  26 H :    0.031386
  27 H :    0.016920
  28 C :   -0.034340
  29 H :    0.041359
  30 H :    0.024254
  31 H :    0.039393
  32 H :    0.026660
  33 H :    0.061032
Sum of atomic charges:    0.0000000

LOEWDIN ATOMIC CHARGES
----------------------
   0 S :    0.411446
   1 C :   -0.189525
   2 C :   -0.058106
   3 C :   -0.067683
   4 C :   -0.178655
   5 H :    0.016542
   6 C :   -0.043261
   7 H :    0.034575
   8 H :    0.028815
   9 C :   -0.039555
  10 H :    0.014883
  11 H :    0.030903
  12 C :   -0.063100
  13 H :    0.023454
  14 H :    0.023478
  15 H :    0.033592
  16 S :    0.385600
  17 C :   -0.188250
  18 C :   -0.082382
  19 C :   -0.057411
  20 C :   -0.167535
  21 H :    0.029842
  22 C :   -0.037127
  23 H :    0.033967
  24 H :    0.035241
  25 C :   -0.045167
  26 H :    0.025450
  27 H :    0.017798
  28 C :   -0.060216
  29 H :    0.031860
  30 H :    0.023254
  31 H :    0.029344
  32 H :    0.011876
  33 H :    0.036053

  Mayer bond orders larger than 0.100000
B(  0-S ,  1-C ) :   1.1376 B(  0-S ,  4-C ) :   1.1383 B(  1-C ,  2-C ) :   1.5799
B(  1-C , 32-H ) :   0.9822 B(  2-C ,  3-C ) :   1.2770 B(  2-C ,  6-C ) :   1.0018
B(  3-C ,  4-C ) :   1.5179 B(  3-C ,  5-H ) :   1.0073 B(  4-C , 20-C ) :   1.1036
B(  6-C ,  7-H ) :   0.9454 B(  6-C ,  8-H ) :   0.9501 B(  6-C ,  9-C ) :   1.0478
B(  9-C , 10-H ) :   0.9562 B(  9-C , 11-H ) :   0.9592 B(  9-C , 12-C ) :   1.0737
B( 12-C , 13-H ) :   0.9766 B( 12-C , 14-H ) :   0.9754 B( 12-C , 15-H ) :   0.9749
B( 16-S , 17-C ) :   1.1627 B( 16-S , 20-C ) :   1.0924 B( 17-C , 18-C ) :   1.6148
B( 17-C , 33-H ) :   0.9634 B( 18-C , 19-C ) :   1.2353 B( 18-C , 21-H ) :   0.9837
B( 19-C , 20-C ) :   1.6337 B( 19-C , 22-C ) :   0.9943 B( 22-C , 23-H ) :   0.9188
B( 22-C , 24-H ) :   0.9478 B( 22-C , 25-C ) :   1.0659 B( 25-C , 26-H ) :   0.9576
B( 25-C , 27-H ) :   0.9396 B( 25-C , 28-C ) :   1.1026 B( 28-C , 29-H ) :   0.9697
B( 28-C , 30-H ) :   0.9753 B( 28-C , 31-H ) :   0.9722

Dispersion correction           -0.013050951
FINAL SINGLE POINT ENERGY     -1339.847263099914

DIPOLE MOMENT
-------------
                                X             Y             Z
Electronic contribution:     -3.54875       9.66503       7.12782
Nuclear contribution   :      3.65926      -9.58990      -7.00698
                        -----------------------------------------
Total Dipole Moment    :      0.11051       0.07513       0.12084
                        -----------------------------------------
Magnitude (a.u.)       :      0.18016
Magnitude (Debye)      :      0.45794

Rotational constants in cm-1:     0.024726     0.006669     0.005544
Rotational constants in MHz :   741.275033   199.938533   166.215148

                             ****ORCA TERMINATED NORMALLY****
TOTAL RUN TIME: 0 days 0 hours 0 minutes 31 seconds 314 msec
