                         Program Version 4.2.1 -  RELEASE  -
|  1> ! wB97X-D3 SP def2-SVP
|  2> %pal
|  3> nprocs 16
|  4> end
|  5>
|  6> * xyz 0 1
|  7> S 	 3.59899 	 -4.50536 	 88.6824
|  8> C 	 2.06564 	 -4.44486 	 89.4906
|  9> C 	 1.36043 	 -5.6854 	 89.3672
| 10> C 	 2.10274 	 -6.6292 	 88.6581
| 11> C 	 3.34766 	 -6.20196 	 88.2611
| 12> H 	 1.82442 	 -7.64345 	 88.3436
| 13> C 	 -0.0727136 	 -5.83341 	 89.7987
| 14> H 	 -0.293079 	 -4.89508 	 90.2769
| 15> H 	 -0.116261 	 -6.49545 	 90.6846
| 16> C 	 -1.05531 	 -6.11411 	 88.6729
| 17> H 	 -1.10675 	 -5.2567 	 88.0792
| 18> H 	 -0.876216 	 -7.06788 	 88.1965
| 19> C 	 -2.44751 	 -6.22274 	 89.3015
| 20> H 	 -2.97406 	 -5.24937 	 89.5776
| 21> H 	 -3.08983 	 -6.65628 	 88.5873
| 22> H 	 -2.37152 	 -6.82379 	 90.2047
| 23> S 	 4.43773 	 -6.25424 	 85.7269
| 24> C 	 5.52152 	 -7.56618 	 85.4176
| 25> C 	 5.60093 	 -8.58028 	 86.413
| 26> C 	 4.94766 	 -8.12292 	 87.6193
| 27> C 	 4.2938 	 -6.91019 	 87.3986
| 28> H 	 6.17294 	 -9.51225 	 86.3353
| 29> C 	 4.8322 	 -9.07932 	 88.8145
| 30> H 	 5.46964 	 -9.94666 	 88.6012
| 31> H 	 3.84912 	 -9.40088 	 88.8471
| 32> C 	 5.11656 	 -8.54415 	 90.2391
| 33> H 	 4.31241 	 -7.87391 	 90.5274
| 34> H 	 6.00142 	 -7.94238 	 90.2474
| 35> C 	 5.18753 	 -9.71894 	 91.2385
| 36> H 	 6.11302 	 -10.3002 	 91.0205
| 37> H 	 4.3555 	 -10.43 	 91.1311
| 38> H 	 5.16514 	 -9.4005 	 92.2835
| 39> H 	 1.63033 	 -3.59282 	 90.0848
| 40> H 	 6.11846 	 -7.61771 	 84.486
| 41> *
| 42>
| 43>                          ****END OF INPUT****

CARTESIAN COORDINATES (ANGSTROEM)
---------------------------------
  S      3.598990   -4.505360   88.682400
  C      2.065640   -4.444860   89.490600
  C      1.360430   -5.685400   89.367200
  C      2.102740   -6.629200   88.658100
  C      3.347660   -6.201960   88.261100
  H      1.824420   -7.643450   88.343600
  C     -0.072714   -5.833410   89.798700
  H     -0.293079   -4.895080   90.276900
  H     -0.116261   -6.495450   90.684600
  C     -1.055310   -6.114110   88.672900
  H     -1.106750   -5.256700   88.079200
  H     -0.876216   -7.067880   88.196500
  C     -2.447510   -6.222740   89.301500
  H     -2.974060   -5.249370   89.577600
  H     -3.089830   -6.656280   88.587300
  H     -2.371520   -6.823790   90.204700
  S      4.437730   -6.254240   85.726900
  C      5.521520   -7.566180   85.417600
  C      5.600930   -8.580280   86.413000
  C      4.947660   -8.122920   87.619300
  C      4.293800   -6.910190   87.398600
  H      6.172940   -9.512250   86.335300
  C      4.832200   -9.079320   88.814500
  H      5.469640   -9.946660   88.601200
  H      3.849120   -9.400880   88.847100
  C      5.116560   -8.544150   90.239100
  H      4.312410   -7.873910   90.527400
  H      6.001420   -7.942380   90.247400
  C      5.187530   -9.718940   91.238500
  H      6.113020  -10.300200   91.020500
  H      4.355500  -10.430000   91.131100
  H      5.165140   -9.400500   92.283500
  H      1.630330   -3.592820   90.084800
  H      6.118460   -7.617710   84.486000

 Total Charge           Charge          ....    0
 Multiplicity           Mult            ....    1
 Number of Electrons    NEL             ....  134
 Basis Dimension        Dim             ....  322

ORBITAL ENERGIES
----------------

  NO   OCC          E(Eh)            E(eV)
   0   2.0000     -88.970026     -2420.9975
   1   2.0000     -88.966503     -2420.9016
   2   2.0000     -10.325651      -280.9753
   3   2.0000     -10.323287      -280.9109
   4   2.0000     -10.322170      -280.8805
   5   2.0000     -10.318538      -280.7817
   6   2.0000     -10.307066      -280.4695
   7   2.0000     -10.300092      -280.2798
   8   2.0000     -10.298155      -280.2271
   9   2.0000     -10.290459      -280.0176
  10   2.0000     -10.289590      -279.9940
  11   2.0000     -10.288126      -279.9542
  12   2.0000     -10.282534      -279.8020
  13   2.0000     -10.280885      -279.7571
  14   2.0000     -10.280680      -279.7515
  15   2.0000     -10.276220      -279.6302
  16   2.0000      -8.084297      -219.9849
  17   2.0000      -8.080960      -219.8941
  18   2.0000      -6.042624      -164.4282
  19   2.0000      -6.039306      -164.3379
  20   2.0000      -6.039152      -164.3337
  21   2.0000      -6.035416      -164.2320
  22   2.0000      -6.034989      -164.2204
  23   2.0000      -6.032001      -164.1391
  24   2.0000      -1.000929       -27.2367
  25   2.0000      -0.977463       -26.5981
  26   2.0000      -0.916677       -24.9441
  27   2.0000      -0.906275       -24.6610
  28   2.0000      -0.861759       -23.4496
  29   2.0000      -0.853096       -23.2139
  30   2.0000      -0.849124       -23.1058
  31   2.0000      -0.807362       -21.9694
  32   2.0000      -0.781777       -21.2732
  33   2.0000      -0.760978       -20.7073
  34   2.0000      -0.708318       -19.2743
  35   2.0000      -0.700702       -19.0671
  36   2.0000      -0.682270       -18.5655
  37   2.0000      -0.659225       -17.9384
  38   2.0000      -0.640558       -17.4305
  39   2.0000      -0.616376       -16.7724
  40   2.0000      -0.594286       -16.1713
  41   2.0000      -0.577662       -15.7190
  42   2.0000      -0.566984       -15.4284
  43   2.0000      -0.556125       -15.1329
  44   2.0000      -0.528613       -14.3843
  45   2.0000      -0.517432       -14.0800
  46   2.0000      -0.511524       -13.9193
  47   2.0000      -0.503345       -13.6967
  48   2.0000      -0.497646       -13.5416
  49   2.0000      -0.496271       -13.5042
  50   2.0000      -0.487625       -13.2690
  51   2.0000      -0.481526       -13.1030
  52   2.0000      -0.465633       -12.6705
  53   2.0000      -0.462056       -12.5732
  54   2.0000      -0.454982       -12.3807
  55   2.0000      -0.452105       -12.3024
  56   2.0000      -0.444839       -12.1047
  57   2.0000      -0.438454       -11.9309
  58   2.0000      -0.432264       -11.7625
  59   2.0000      -0.431137       -11.7318
  60   2.0000      -0.424175       -11.5424
  61   2.0000      -0.420289       -11.4366
  62   2.0000      -0.413825       -11.2607
  63   2.0000      -0.340300        -9.2600
  64   2.0000      -0.332809        -9.0562
  65   2.0000      -0.321272        -8.7422
  66   2.0000      -0.291152        -7.9226
  67   0.0000       0.031931         0.8689
  68   0.0000       0.059588         1.6215
  69   0.0000       0.101710         2.7677
  70   0.0000       0.126330         3.4376
  71   0.0000       0.130076         3.5396

MULLIKEN ATOMIC CHARGES
-----------------------
   0 S :    0.120633
   1 C :   -0.139440
   2 C :   -0.101825
   3 C :    0.043636
   4 C :   -0.195858
   5 H :    0.016211
   6 C :    0.065755
   7 H :   -0.008091
   8 H :    0.030295
   9 C :   -0.019188
  10 H :    0.027054
  11 H :    0.039521
  12 C :   -0.061544
  13 H :    0.038519
  14 H :    0.022683
  15 H :    0.024907
  16 S :    0.126999
  17 C :   -0.103205
  18 C :   -0.050570
  19 C :   -0.023421
  20 C :   -0.174093
  21 H :    0.031760
  22 C :    0.082212
  23 H :    0.014132
  24 H :    0.016261
  25 C :   -0.068778
  26 H :    0.040607
  27 H :    0.028619
  28 C :   -0.058523
  29 H :    0.034307
  30 H :    0.024850
  31 H :    0.039695
  32 H :    0.068879
  33 H :    0.067004
Sum of atomic charges:   -0.0000000

LOEWDIN ATOMIC CHARGES
----------------------
   0 S :    0.411420
   1 C :   -0.219562
   2 C :   -0.067689
   3 C :   -0.064167
   4 C :   -0.199686
   5 H :    0.035407
   6 C :   -0.036995
   7 H :    0.025862
   8 H :    0.031362
   9 C :   -0.025838
  10 H :    0.025003
  11 H :    0.027452
  12 C :   -0.063848
  13 H :    0.030796
  14 H :    0.017366
  15 H :    0.021342
  16 S :    0.401780
  17 C :   -0.191896
  18 C :   -0.073918
  19 C :   -0.045746
  20 C :   -0.195592
  21 H :    0.034705
  22 C :   -0.022101
  23 H :    0.029019
  24 H :    0.023670
  25 C :   -0.035460
  26 H :    0.025844
  27 H :    0.021263
  28 C :   -0.067682
  29 H :    0.027707
  30 H :    0.023613
  31 H :    0.027209
  32 H :    0.039386
  33 H :    0.029977

  Mayer bond orders larger than 0.100000
B(  0-S ,  1-C ) :   1.1585 B(  0-S ,  4-C ) :   1.1581 B(  1-C ,  2-C ) :   1.5720
B(  1-C ,  4-C ) :   0.1090 B(  1-C , 32-H ) :   0.9561 B(  2-C ,  3-C ) :   1.2641
B(  2-C ,  6-C ) :   1.0322 B(  3-C ,  4-C ) :   1.5638 B(  3-C ,  5-H ) :   0.9906
B(  4-C , 20-C ) :   1.0301 B(  6-C ,  7-H ) :   0.9312 B(  6-C ,  8-H ) :   0.9294
B(  6-C ,  9-C ) :   1.0757 B(  9-C , 10-H ) :   0.9517 B(  9-C , 11-H ) :   0.9553
B(  9-C , 12-C ) :   1.0845 B( 12-C , 13-H ) :   0.9760 B( 12-C , 14-H ) :   0.9740
B( 12-C , 15-H ) :   0.9746 B( 16-S , 17-C ) :   1.1681 B( 16-S , 20-C ) :   1.1306
B( 17-C , 18-C ) :   1.6008 B( 17-C , 33-H ) :   0.9616 B( 18-C , 19-C ) :   1.2391
B( 18-C , 21-H ) :   0.9825 B( 19-C , 20-C ) :   1.6127 B( 19-C , 22-C ) :   1.0320
B( 22-C , 23-H ) :   0.9426 B( 22-C , 24-H ) :   0.9265 B( 22-C , 25-C ) :   1.0571
B( 25-C , 26-H ) :   0.9511 B( 25-C , 27-H ) :   0.9628 B( 25-C , 28-C ) :   1.0818
B( 28-C , 29-H ) :   0.9754 B( 28-C , 30-H ) :   0.9737 B( 28-C , 31-H ) :   0.9750

Dispersion correction           -0.014066527
FINAL SINGLE POINT ENERGY     -1339.871533181573

DIPOLE MOMENT
-------------
                                X             Y             Z
Electronic contribution:     15.12218      14.10860     -16.74078
Nuclear contribution   :    -15.50485     -14.53670      16.92624
                        -----------------------------------------
Total Dipole Moment    :     -0.38267      -0.42810       0.18546
                        -----------------------------------------
Magnitude (a.u.)       :      0.60341
Magnitude (Debye)      :      1.53374

Rotational constants in cm-1:     0.016728     0.008459     0.007092
Rotational constants in MHz :   501.479358   253.584975   212.621639

                             ****ORCA TERMINATED NORMALLY****
TOTAL RUN TIME: 0 days 0 hours 0 minutes 34 seconds 505 msec
