                         Program Version 4.2.1 -  RELEASE  -
|  1> ! wB97X-D3 SP def2-SVP
|  2> %pal
|  3> nprocs 16
|  4> end
|  5>
|  6> * xyz 0 1
|  7> S 	 32.5021 	 3.66413 	 64.7002
|  8> C 	 31.6657 	 5.08044 	 64.0896
|  9> C 	 30.2702 	 4.84923 	 63.8669
| 10> C 	 29.9656 	 3.52933 	 64.2381
| 11> C 	 31.0351 	 2.7668 	 64.6328
| 12> H 	 28.9589 	 3.1499 	 64.1835
| 13> C 	 29.3322 	 5.98729 	 63.6774
| 14> H 	 29.707 	 6.91615 	 64.1953
| 15> H 	 28.5222 	 5.60932 	 64.2762
| 16> C 	 28.8483 	 6.19442 	 62.2236
| 17> H 	 28.3258 	 5.2229 	 61.9632
| 18> H 	 28.1578 	 6.99261 	 62.1601
| 19> C 	 29.8841 	 6.48539 	 61.0982
| 20> H 	 30.9049 	 6.18685 	 61.4267
| 21> H 	 29.5219 	 6.21042 	 60.0211
| 22> H 	 30.0386 	 7.59428 	 60.9106
| 23> S 	 31.4407 	 1.23145 	 66.8884
| 24> C 	 31.3077 	 -0.493663 	 66.8402
| 25> C 	 30.8896 	 -0.921045 	 65.621
| 26> C 	 30.5185 	 0.174123 	 64.7196
| 27> C 	 30.9012 	 1.42667 	 65.2367
| 28> H 	 30.7625 	 -1.94747 	 65.3935
| 29> C 	 29.9446 	 -0.0666452 	 63.3364
| 30> H 	 30.678 	 -0.657804 	 62.8007
| 31> H 	 29.8552 	 0.910488 	 62.9794
| 32> C 	 28.5798 	 -0.724625 	 63.4006
| 33> H 	 27.9415 	 -0.195882 	 64.1253
| 34> H 	 28.7021 	 -1.66772 	 63.8234
| 35> C 	 27.9498 	 -0.898803 	 62.0248
| 36> H 	 28.653 	 -1.31741 	 61.3177
| 37> H 	 27.5257 	 0.0530409 	 61.6246
| 38> H 	 27.1491 	 -1.55974 	 62.0084
| 39> H 	 32.1132 	 6.04809 	 63.877
| 40> H 	 31.3359 	 -1.00269 	 67.8116
| 41> *
| 42>
| 43>                          ****END OF INPUT****

CARTESIAN COORDINATES (ANGSTROEM)
---------------------------------
  S     32.502100    3.664130   64.700200
  C     31.665700    5.080440   64.089600
  C     30.270200    4.849230   63.866900
  C     29.965600    3.529330   64.238100
  C     31.035100    2.766800   64.632800
  H     28.958900    3.149900   64.183500
  C     29.332200    5.987290   63.677400
  H     29.707000    6.916150   64.195300
  H     28.522200    5.609320   64.276200
  C     28.848300    6.194420   62.223600
  H     28.325800    5.222900   61.963200
  H     28.157800    6.992610   62.160100
  C     29.884100    6.485390   61.098200
  H     30.904900    6.186850   61.426700
  H     29.521900    6.210420   60.021100
  H     30.038600    7.594280   60.910600
  S     31.440700    1.231450   66.888400
  C     31.307700   -0.493663   66.840200
  C     30.889600   -0.921045   65.621000
  C     30.518500    0.174123   64.719600
  C     30.901200    1.426670   65.236700
  H     30.762500   -1.947470   65.393500
  C     29.944600   -0.066645   63.336400
  H     30.678000   -0.657804   62.800700
  H     29.855200    0.910488   62.979400
  C     28.579800   -0.724625   63.400600
  H     27.941500   -0.195882   64.125300
  H     28.702100   -1.667720   63.823400
  C     27.949800   -0.898803   62.024800
  H     28.653000   -1.317410   61.317700
  H     27.525700    0.053041   61.624600
  H     27.149100   -1.559740   62.008400
  H     32.113200    6.048090   63.877000
  H     31.335900   -1.002690   67.811600

 Total Charge           Charge          ....    0
 Multiplicity           Mult            ....    1
 Number of Electrons    NEL             ....  134
 Basis Dimension        Dim             ....  322

ORBITAL ENERGIES
----------------

  NO   OCC          E(Eh)            E(eV)
   0   2.0000     -88.972854     -2421.0744
   1   2.0000     -88.957831     -2420.6657
   2   2.0000     -10.327506      -281.0257
   3   2.0000     -10.326652      -281.0025
   4   2.0000     -10.316662      -280.7307
   5   2.0000     -10.315342      -280.6947
   6   2.0000     -10.304975      -280.4126
   7   2.0000     -10.300529      -280.2917
   8   2.0000     -10.297386      -280.2061
   9   2.0000     -10.292469      -280.0723
  10   2.0000     -10.292343      -280.0689
  11   2.0000     -10.291880      -280.0563
  12   2.0000     -10.291418      -280.0437
  13   2.0000     -10.281916      -279.7851
  14   2.0000     -10.280034      -279.7339
  15   2.0000     -10.272999      -279.5425
  16   2.0000      -8.087534      -220.0730
  17   2.0000      -8.073539      -219.6922
  18   2.0000      -6.045870      -164.5165
  19   2.0000      -6.042036      -164.4122
  20   2.0000      -6.038479      -164.3154
  21   2.0000      -6.031971      -164.1383
  22   2.0000      -6.027850      -164.0261
  23   2.0000      -6.024384      -163.9318
  24   2.0000      -1.007903       -27.4264
  25   2.0000      -0.984750       -26.7964
  26   2.0000      -0.914792       -24.8927
  27   2.0000      -0.912791       -24.8383
  28   2.0000      -0.864258       -23.5177
  29   2.0000      -0.852611       -23.2007
  30   2.0000      -0.846331       -23.0298
  31   2.0000      -0.814431       -22.1618
  32   2.0000      -0.783826       -21.3290
  33   2.0000      -0.770956       -20.9788
  34   2.0000      -0.708529       -19.2801
  35   2.0000      -0.699081       -19.0230
  36   2.0000      -0.692997       -18.8574
  37   2.0000      -0.658132       -17.9087
  38   2.0000      -0.637406       -17.3447
  39   2.0000      -0.622409       -16.9366
  40   2.0000      -0.597005       -16.2453
  41   2.0000      -0.574744       -15.6396
  42   2.0000      -0.567565       -15.4442
  43   2.0000      -0.547233       -14.8910
  44   2.0000      -0.544315       -14.8116
  45   2.0000      -0.527717       -14.3599
  46   2.0000      -0.518207       -14.1011
  47   2.0000      -0.515018       -14.0144
  48   2.0000      -0.504851       -13.7377
  49   2.0000      -0.494197       -13.4478
  50   2.0000      -0.481707       -13.1079
  51   2.0000      -0.479173       -13.0390
  52   2.0000      -0.473466       -12.8837
  53   2.0000      -0.461202       -12.5499
  54   2.0000      -0.457874       -12.4594
  55   2.0000      -0.452977       -12.3261
  56   2.0000      -0.446540       -12.1510
  57   2.0000      -0.443459       -12.0671
  58   2.0000      -0.437957       -11.9174
  59   2.0000      -0.421868       -11.4796
  60   2.0000      -0.415809       -11.3147
  61   2.0000      -0.411189       -11.1890
  62   2.0000      -0.409804       -11.1513
  63   2.0000      -0.345393        -9.3986
  64   2.0000      -0.333354        -9.0710
  65   2.0000      -0.325028        -8.8445
  66   2.0000      -0.291855        -7.9418
  67   0.0000       0.035452         0.9647
  68   0.0000       0.064077         1.7436
  69   0.0000       0.115261         3.1364
  70   0.0000       0.121722         3.3122
  71   0.0000       0.125686         3.4201

MULLIKEN ATOMIC CHARGES
-----------------------
   0 S :    0.141577
   1 C :   -0.136535
   2 C :   -0.093697
   3 C :    0.037323
   4 C :   -0.151033
   5 H :    0.008972
   6 C :    0.046989
   7 H :    0.045613
   8 H :    0.026236
   9 C :   -0.049429
  10 H :    0.036151
  11 H :    0.026389
  12 C :   -0.105698
  13 H :    0.040402
  14 H :    0.056210
  15 H :    0.025051
  16 S :    0.086984
  17 C :   -0.101608
  18 C :   -0.005373
  19 C :   -0.096921
  20 C :   -0.162893
  21 H :    0.009816
  22 C :    0.137731
  23 H :    0.033263
  24 H :   -0.001292
  25 C :   -0.080760
  26 H :    0.029724
  27 H :    0.006163
  28 C :   -0.002644
  29 H :    0.022453
  30 H :    0.032448
  31 H :    0.011997
  32 H :    0.050657
  33 H :    0.075735
Sum of atomic charges:   -0.0000000

LOEWDIN ATOMIC CHARGES
----------------------
   0 S :    0.433143
   1 C :   -0.201081
   2 C :   -0.063433
   3 C :   -0.062114
   4 C :   -0.210756
   5 H :    0.029560
   6 C :   -0.034484
   7 H :    0.038120
   8 H :    0.036687
   9 C :   -0.043334
  10 H :    0.031954
  11 H :    0.018604
  12 C :   -0.090051
  13 H :    0.026896
  14 H :    0.042122
  15 H :    0.025590
  16 S :    0.402202
  17 C :   -0.189204
  18 C :   -0.070679
  19 C :   -0.048346
  20 C :   -0.203678
  21 H :    0.024521
  22 C :   -0.021859
  23 H :    0.033467
  24 H :    0.020772
  25 C :   -0.036350
  26 H :    0.028183
  27 H :    0.013185
  28 C :   -0.059802
  29 H :    0.025768
  30 H :    0.029646
  31 H :    0.015837
  32 H :    0.024566
  33 H :    0.034351

  Mayer bond orders larger than 0.100000
B(  0-S ,  1-C ) :   1.1612 B(  0-S ,  4-C ) :   1.1705 B(  1-C ,  2-C ) :   1.5487
B(  1-C , 32-H ) :   0.9660 B(  2-C ,  3-C ) :   1.3015 B(  2-C ,  6-C ) :   1.0025
B(  3-C ,  4-C ) :   1.5425 B(  3-C ,  5-H ) :   0.9872 B(  4-C , 20-C ) :   1.0160
B(  6-C ,  7-H ) :   0.9525 B(  6-C ,  8-H ) :   0.9400 B(  6-C ,  9-C ) :   1.0646
B(  9-C , 10-H ) :   0.9589 B(  9-C , 11-H ) :   0.9598 B(  9-C , 12-C ) :   1.0610
B( 12-C , 13-H ) :   0.9748 B( 12-C , 14-H ) :   0.9743 B( 12-C , 15-H ) :   0.9763
B( 16-S , 17-C ) :   1.1593 B( 16-S , 20-C ) :   1.1496 B( 17-C , 18-C ) :   1.5954
B( 17-C , 33-H ) :   0.9656 B( 18-C , 19-C ) :   1.2333 B( 18-C , 21-H ) :   0.9977
B( 19-C , 20-C ) :   1.5924 B( 19-C , 22-C ) :   1.0460 B( 22-C , 23-H ) :   0.9283
B( 22-C , 24-H ) :   0.9257 B( 22-C , 25-C ) :   1.0689 B( 25-C , 26-H ) :   0.9538
B( 25-C , 27-H ) :   0.9528 B( 25-C , 28-C ) :   1.0918 B( 28-C , 29-H ) :   0.9691
B( 28-C , 30-H ) :   0.9743 B( 28-C , 31-H ) :   0.9721

Dispersion correction           -0.013884181
FINAL SINGLE POINT ENERGY     -1339.864925727170

DIPOLE MOMENT
-------------
                                X             Y             Z
Electronic contribution:     18.66021      -2.90272      21.69330
Nuclear contribution   :    -19.19348       2.87358     -21.91930
                        -----------------------------------------
Total Dipole Moment    :     -0.53328      -0.02914      -0.22600
                        -----------------------------------------
Magnitude (a.u.)       :      0.57992
Magnitude (Debye)      :      1.47404

Rotational constants in cm-1:     0.017848     0.008684     0.006359
Rotational constants in MHz :   535.072418   260.350283   190.638448

                             ****ORCA TERMINATED NORMALLY****
TOTAL RUN TIME: 0 days 0 hours 0 minutes 29 seconds 635 msec
