                         Program Version 4.2.1 -  RELEASE  -
|  1> ! wB97X-D3 SP def2-SVP
|  2> %pal
|  3> nprocs 16
|  4> end
|  5>
|  6> * xyz 0 1
|  7> S 	 -97.3019 	 51.5618 	 122.225
|  8> C 	 -95.9791 	 50.4655 	 121.751
|  9> C 	 -95.7591 	 49.5235 	 122.663
| 10> C 	 -96.7751 	 49.4989 	 123.675
| 11> C 	 -97.744 	 50.4769 	 123.45
| 12> H 	 -96.9011 	 48.8753 	 124.549
| 13> C 	 -94.5169 	 48.6592 	 122.597
| 14> H 	 -93.8802 	 48.9245 	 121.786
| 15> H 	 -94.7231 	 47.6433 	 122.349
| 16> C 	 -93.6403 	 48.5909 	 123.925
| 17> H 	 -93.3227 	 49.6059 	 124.077
| 18> H 	 -94.2177 	 48.2924 	 124.8
| 19> C 	 -92.386 	 47.6955 	 123.67
| 20> H 	 -91.7504 	 48.1529 	 122.893
| 21> H 	 -91.7538 	 47.4402 	 124.522
| 22> H 	 -92.7672 	 46.7981 	 123.186
| 23> S 	 -100.432 	 50.8895 	 123.134
| 24> C 	 -101.506 	 50.939 	 124.539
| 25> C 	 -100.785 	 50.776 	 125.714
| 26> C 	 -99.4168 	 50.5421 	 125.453
| 27> C 	 -99.0412 	 50.5216 	 124.104
| 28> H 	 -101.266 	 50.8501 	 126.688
| 29> C 	 -98.5358 	 50.2487 	 126.713
| 30> H 	 -98.0547 	 49.3472 	 126.46
| 31> H 	 -99.2138 	 49.928 	 127.53
| 32> C 	 -97.5314 	 51.3351 	 127.107
| 33> H 	 -97.9717 	 52.2885 	 127.213
| 34> H 	 -96.856 	 51.4732 	 126.209
| 35> C 	 -96.6516 	 51.0553 	 128.328
| 36> H 	 -97.344 	 50.9452 	 129.191
| 37> H 	 -96.0226 	 51.9148 	 128.567
| 38> H 	 -96.0521 	 50.1363 	 128.166
| 39> H 	 -95.2364 	 50.5846 	 120.962
| 40> H 	 -102.514 	 51.2094 	 124.624
| 41> *
| 42>
| 43>                          ****END OF INPUT****

CARTESIAN COORDINATES (ANGSTROEM)
---------------------------------
  S    -97.301900   51.561800  122.225000
  C    -95.979100   50.465500  121.751000
  C    -95.759100   49.523500  122.663000
  C    -96.775100   49.498900  123.675000
  C    -97.744000   50.476900  123.450000
  H    -96.901100   48.875300  124.549000
  C    -94.516900   48.659200  122.597000
  H    -93.880200   48.924500  121.786000
  H    -94.723100   47.643300  122.349000
  C    -93.640300   48.590900  123.925000
  H    -93.322700   49.605900  124.077000
  H    -94.217700   48.292400  124.800000
  C    -92.386000   47.695500  123.670000
  H    -91.750400   48.152900  122.893000
  H    -91.753800   47.440200  124.522000
  H    -92.767200   46.798100  123.186000
  S    -100.432000   50.889500  123.134000
  C    -101.506000   50.939000  124.539000
  C    -100.785000   50.776000  125.714000
  C    -99.416800   50.542100  125.453000
  C    -99.041200   50.521600  124.104000
  H    -101.266000   50.850100  126.688000
  C    -98.535800   50.248700  126.713000
  H    -98.054700   49.347200  126.460000
  H    -99.213800   49.928000  127.530000
  C    -97.531400   51.335100  127.107000
  H    -97.971700   52.288500  127.213000
  H    -96.856000   51.473200  126.209000
  C    -96.651600   51.055300  128.328000
  H    -97.344000   50.945200  129.191000
  H    -96.022600   51.914800  128.567000
  H    -96.052100   50.136300  128.166000
  H    -95.236400   50.584600  120.962000
  H    -102.514000   51.209400  124.624000

 Total Charge           Charge          ....    0
 Multiplicity           Mult            ....    1
 Number of Electrons    NEL             ....  134
 Basis Dimension        Dim             ....  322

ORBITAL ENERGIES
----------------

  NO   OCC          E(Eh)            E(eV)
   0   2.0000     -88.969288     -2420.9774
   1   2.0000     -88.968565     -2420.9577
   2   2.0000     -10.328698      -281.0582
   3   2.0000     -10.327915      -281.0368
   4   2.0000     -10.314721      -280.6778
   5   2.0000     -10.308655      -280.5128
   6   2.0000     -10.303911      -280.3837
   7   2.0000     -10.299013      -280.2504
   8   2.0000     -10.294912      -280.1388
   9   2.0000     -10.292675      -280.0779
  10   2.0000     -10.291867      -280.0559
  11   2.0000     -10.291445      -280.0444
  12   2.0000     -10.291282      -280.0400
  13   2.0000     -10.283703      -279.8338
  14   2.0000     -10.282573      -279.8030
  15   2.0000     -10.281788      -279.7817
  16   2.0000      -8.083884      -219.9737
  17   2.0000      -8.083512      -219.9635
  18   2.0000      -6.042422      -164.4227
  19   2.0000      -6.042121      -164.4145
  20   2.0000      -6.038500      -164.3159
  21   2.0000      -6.037942      -164.3007
  22   2.0000      -6.034361      -164.2033
  23   2.0000      -6.034325      -164.2023
  24   2.0000      -1.013201       -27.5706
  25   2.0000      -0.987356       -26.8673
  26   2.0000      -0.911357       -24.7993
  27   2.0000      -0.903371       -24.5820
  28   2.0000      -0.873376       -23.7658
  29   2.0000      -0.849355       -23.1121
  30   2.0000      -0.846096       -23.0234
  31   2.0000      -0.817197       -22.2371
  32   2.0000      -0.782166       -21.2838
  33   2.0000      -0.771701       -20.9991
  34   2.0000      -0.715103       -19.4589
  35   2.0000      -0.700590       -19.0640
  36   2.0000      -0.691198       -18.8085
  37   2.0000      -0.665237       -18.1020
  38   2.0000      -0.642340       -17.4790
  39   2.0000      -0.619224       -16.8499
  40   2.0000      -0.591266       -16.0892
  41   2.0000      -0.576920       -15.6988
  42   2.0000      -0.562088       -15.2952
  43   2.0000      -0.557596       -15.1730
  44   2.0000      -0.526846       -14.3362
  45   2.0000      -0.523732       -14.2515
  46   2.0000      -0.516363       -14.0509
  47   2.0000      -0.508915       -13.8483
  48   2.0000      -0.504112       -13.7176
  49   2.0000      -0.502037       -13.6611
  50   2.0000      -0.490611       -13.3502
  51   2.0000      -0.485696       -13.2165
  52   2.0000      -0.470766       -12.8102
  53   2.0000      -0.468276       -12.7424
  54   2.0000      -0.460767       -12.5381
  55   2.0000      -0.453876       -12.3506
  56   2.0000      -0.445070       -12.1110
  57   2.0000      -0.440952       -11.9989
  58   2.0000      -0.434171       -11.8144
  59   2.0000      -0.426616       -11.6088
  60   2.0000      -0.423898       -11.5348
  61   2.0000      -0.414561       -11.2808
  62   2.0000      -0.409282       -11.1371
  63   2.0000      -0.348989        -9.4965
  64   2.0000      -0.336469        -9.1558
  65   2.0000      -0.330511        -8.9936
  66   2.0000      -0.289736        -7.8841
  67   0.0000       0.025187         0.6854
  68   0.0000       0.073702         2.0055
  69   0.0000       0.106809         2.9064
  70   0.0000       0.120476         3.2783
  71   0.0000       0.131399         3.5756

MULLIKEN ATOMIC CHARGES
-----------------------
   0 S :    0.121396
   1 C :   -0.130161
   2 C :   -0.036729
   3 C :    0.021866
   4 C :   -0.147814
   5 H :    0.004649
   6 C :    0.070883
   7 H :   -0.000964
   8 H :    0.019703
   9 C :   -0.083552
  10 H :    0.030643
  11 H :    0.039675
  12 C :   -0.054526
  13 H :    0.029779
  14 H :    0.047882
  15 H :    0.022443
  16 S :    0.112615
  17 C :   -0.067781
  18 C :   -0.047912
  19 C :   -0.051038
  20 C :   -0.147979
  21 H :    0.026297
  22 C :    0.085565
  23 H :    0.003813
  24 H :    0.014423
  25 C :   -0.074055
  26 H :    0.017022
  27 H :    0.036888
  28 C :   -0.047918
  29 H :    0.029186
  30 H :    0.040837
  31 H :    0.039054
  32 H :    0.039898
  33 H :    0.035913
Sum of atomic charges:    0.0000000

LOEWDIN ATOMIC CHARGES
----------------------
   0 S :    0.412353
   1 C :   -0.189380
   2 C :   -0.061033
   3 C :   -0.063097
   4 C :   -0.202334
   5 H :    0.028246
   6 C :   -0.024547
   7 H :    0.023653
   8 H :    0.024334
   9 C :   -0.031913
  10 H :    0.020397
  11 H :    0.022265
  12 C :   -0.068517
  13 H :    0.027727
  14 H :    0.028244
  15 H :    0.022866
  16 S :    0.417236
  17 C :   -0.178122
  18 C :   -0.070566
  19 C :   -0.054218
  20 C :   -0.209301
  21 H :    0.035387
  22 C :   -0.027420
  23 H :    0.018841
  24 H :    0.028863
  25 C :   -0.046167
  26 H :    0.017198
  27 H :    0.031197
  28 C :   -0.066639
  29 H :    0.025738
  30 H :    0.028957
  31 H :    0.027344
  32 H :    0.030736
  33 H :    0.021671

  Mayer bond orders larger than 0.100000
B(  0-S ,  1-C ) :   1.1018 B(  0-S ,  4-C ) :   1.1651 B(  1-C ,  2-C ) :   1.6632
B(  1-C , 32-H ) :   0.9616 B(  2-C ,  3-C ) :   1.2031 B(  2-C ,  6-C ) :   1.0257
B(  3-C ,  4-C ) :   1.5625 B(  3-C ,  5-H ) :   1.0020 B(  4-C , 20-C ) :   1.0532
B(  6-C ,  7-H ) :   0.9423 B(  6-C ,  8-H ) :   0.9335 B(  6-C ,  9-C ) :   1.0442
B(  9-C , 10-H ) :   0.9619 B(  9-C , 11-H ) :   0.9604 B(  9-C , 12-C ) :   1.0712
B( 12-C , 13-H ) :   0.9754 B( 12-C , 14-H ) :   0.9759 B( 12-C , 15-H ) :   0.9760
B( 16-S , 17-C ) :   1.1598 B( 16-S , 20-C ) :   1.1376 B( 17-C , 18-C ) :   1.5904
B( 17-C , 20-C ) :   0.1025 B( 17-C , 33-H ) :   0.9695 B( 18-C , 19-C ) :   1.2891
B( 18-C , 21-H ) :   0.9867 B( 19-C , 20-C ) :   1.5661 B( 19-C , 22-C ) :   1.0156
B( 22-C , 23-H ) :   0.9349 B( 22-C , 24-H ) :   0.9389 B( 22-C , 25-C ) :   1.0540
B( 25-C , 26-H ) :   0.9567 B( 25-C , 27-H ) :   0.9509 B( 25-C , 28-C ) :   1.0867
B( 28-C , 29-H ) :   0.9742 B( 28-C , 30-H ) :   0.9735 B( 28-C , 31-H ) :   0.9750

Dispersion correction           -0.013972711
FINAL SINGLE POINT ENERGY     -1339.871255171186

DIPOLE MOMENT
-------------
                                X             Y             Z
Electronic contribution:    -23.67290      10.30533     -18.03417
Nuclear contribution   :     24.04374     -10.48323      18.51127
                        -----------------------------------------
Total Dipole Moment    :      0.37085      -0.17790       0.47710
                        -----------------------------------------
Magnitude (a.u.)       :      0.62992
Magnitude (Debye)      :      1.60113

Rotational constants in cm-1:     0.018082     0.008760     0.006535
Rotational constants in MHz :   542.069736   262.608335   195.905886

                             ****ORCA TERMINATED NORMALLY****
TOTAL RUN TIME: 0 days 0 hours 0 minutes 33 seconds 461 msec
