                         Program Version 4.2.1 -  RELEASE  -
|  1> ! wB97X-D3 SP def2-SVP
|  2> %pal
|  3> nprocs 16
|  4> end
|  5>
|  6> * xyz 0 1
|  7> S 	 8.20706 	 -4.27383 	 99.2429
|  8> C 	 6.85532 	 -5.45241 	 99.2102
|  9> C 	 6.32468 	 -5.59741 	 97.9476
| 10> C 	 6.88442 	 -4.70154 	 97.0253
| 11> C 	 7.84658 	 -3.85358 	 97.5712
| 12> H 	 6.56031 	 -4.62776 	 95.9685
| 13> C 	 5.12732 	 -6.51321 	 97.6573
| 14> H 	 4.30508 	 -5.88265 	 97.3148
| 15> H 	 4.79039 	 -6.92743 	 98.5757
| 16> C 	 5.3398 	 -7.62699 	 96.5747
| 17> H 	 4.42185 	 -8.15194 	 96.5266
| 18> H 	 5.42386 	 -7.16322 	 95.6373
| 19> C 	 6.42558 	 -8.59416 	 96.988
| 20> H 	 7.41231 	 -8.22052 	 97.0568
| 21> H 	 6.36302 	 -9.03492 	 97.9861
| 22> H 	 6.40372 	 -9.45618 	 96.2691
| 23> S 	 8.50631 	 -1.1334 	 97.5269
| 24> C 	 8.9707 	 -0.409728 	 96.0103
| 25> C 	 9.33116 	 -1.35417 	 95.0938
| 26> C 	 8.9729 	 -2.66281 	 95.5105
| 27> C 	 8.47359 	 -2.73642 	 96.8103
| 28> H 	 9.75554 	 -1.08554 	 94.1527
| 29> C 	 9.13093 	 -3.82615 	 94.549
| 30> H 	 8.60793 	 -3.41526 	 93.6292
| 31> H 	 8.65311 	 -4.67933 	 94.8784
| 32> C 	 10.6019 	 -4.14048 	 94.0931
| 33> H 	 11.2482 	 -4.52353 	 94.8169
| 34> H 	 11.0487 	 -3.14675 	 93.8129
| 35> C 	 10.7485 	 -4.88311 	 92.7703
| 36> H 	 11.803 	 -5.10502 	 92.5494
| 37> H 	 10.4682 	 -4.15812 	 91.9549
| 38> H 	 10.0667 	 -5.73492 	 92.7594
| 39> H 	 6.50993 	 -6.0078 	 100.144
| 40> H 	 9.18044 	 0.641112 	 95.8773
| 41> *
| 42>
| 43>                          ****END OF INPUT****

CARTESIAN COORDINATES (ANGSTROEM)
---------------------------------
  S      8.207060   -4.273830   99.242900
  C      6.855320   -5.452410   99.210200
  C      6.324680   -5.597410   97.947600
  C      6.884420   -4.701540   97.025300
  C      7.846580   -3.853580   97.571200
  H      6.560310   -4.627760   95.968500
  C      5.127320   -6.513210   97.657300
  H      4.305080   -5.882650   97.314800
  H      4.790390   -6.927430   98.575700
  C      5.339800   -7.626990   96.574700
  H      4.421850   -8.151940   96.526600
  H      5.423860   -7.163220   95.637300
  C      6.425580   -8.594160   96.988000
  H      7.412310   -8.220520   97.056800
  H      6.363020   -9.034920   97.986100
  H      6.403720   -9.456180   96.269100
  S      8.506310   -1.133400   97.526900
  C      8.970700   -0.409728   96.010300
  C      9.331160   -1.354170   95.093800
  C      8.972900   -2.662810   95.510500
  C      8.473590   -2.736420   96.810300
  H      9.755540   -1.085540   94.152700
  C      9.130930   -3.826150   94.549000
  H      8.607930   -3.415260   93.629200
  H      8.653110   -4.679330   94.878400
  C     10.601900   -4.140480   94.093100
  H     11.248200   -4.523530   94.816900
  H     11.048700   -3.146750   93.812900
  C     10.748500   -4.883110   92.770300
  H     11.803000   -5.105020   92.549400
  H     10.468200   -4.158120   91.954900
  H     10.066700   -5.734920   92.759400
  H      6.509930   -6.007800  100.144000
  H      9.180440    0.641112   95.877300

 Total Charge           Charge          ....    0
 Multiplicity           Mult            ....    1
 Number of Electrons    NEL             ....  134
 Basis Dimension        Dim             ....  322

ORBITAL ENERGIES
----------------

  NO   OCC          E(Eh)            E(eV)
   0   2.0000     -88.969284     -2420.9773
   1   2.0000     -88.963021     -2420.8069
   2   2.0000     -10.335587      -281.2456
   3   2.0000     -10.328659      -281.0571
   4   2.0000     -10.320464      -280.8341
   5   2.0000     -10.315746      -280.7057
   6   2.0000     -10.303216      -280.3648
   7   2.0000     -10.299844      -280.2730
   8   2.0000     -10.295273      -280.1486
   9   2.0000     -10.292647      -280.0772
  10   2.0000     -10.290909      -280.0299
  11   2.0000     -10.290421      -280.0166
  12   2.0000     -10.284284      -279.8496
  13   2.0000     -10.283572      -279.8302
  14   2.0000     -10.282279      -279.7950
  15   2.0000     -10.274866      -279.5933
  16   2.0000      -8.083046      -219.9509
  17   2.0000      -8.078033      -219.8145
  18   2.0000      -6.041594      -164.4001
  19   2.0000      -6.037789      -164.2966
  20   2.0000      -6.036626      -164.2650
  21   2.0000      -6.033733      -164.1862
  22   2.0000      -6.032527      -164.1534
  23   2.0000      -6.028663      -164.0483
  24   2.0000      -1.004091       -27.3227
  25   2.0000      -0.983848       -26.7719
  26   2.0000      -0.909958       -24.7612
  27   2.0000      -0.906021       -24.6541
  28   2.0000      -0.866633       -23.5823
  29   2.0000      -0.852950       -23.2099
  30   2.0000      -0.845825       -23.0161
  31   2.0000      -0.813300       -22.1310
  32   2.0000      -0.783303       -21.3148
  33   2.0000      -0.770507       -20.9666
  34   2.0000      -0.712215       -19.3804
  35   2.0000      -0.697133       -18.9699
  36   2.0000      -0.693985       -18.8843
  37   2.0000      -0.660954       -17.9855
  38   2.0000      -0.633056       -17.2263
  39   2.0000      -0.622443       -16.9375
  40   2.0000      -0.598430       -16.2841
  41   2.0000      -0.566917       -15.4266
  42   2.0000      -0.560934       -15.2638
  43   2.0000      -0.549463       -14.9517
  44   2.0000      -0.543511       -14.7897
  45   2.0000      -0.530967       -14.4483
  46   2.0000      -0.518830       -14.1181
  47   2.0000      -0.513116       -13.9626
  48   2.0000      -0.499034       -13.5794
  49   2.0000      -0.492285       -13.3958
  50   2.0000      -0.490622       -13.3505
  51   2.0000      -0.478130       -13.0106
  52   2.0000      -0.469108       -12.7651
  53   2.0000      -0.462899       -12.5961
  54   2.0000      -0.460783       -12.5385
  55   2.0000      -0.455060       -12.3828
  56   2.0000      -0.451419       -12.2837
  57   2.0000      -0.436668       -11.8823
  58   2.0000      -0.432561       -11.7706
  59   2.0000      -0.422616       -11.5000
  60   2.0000      -0.419598       -11.4178
  61   2.0000      -0.419131       -11.4051
  62   2.0000      -0.410878       -11.1806
  63   2.0000      -0.347620        -9.4592
  64   2.0000      -0.334284        -9.0963
  65   2.0000      -0.327363        -8.9080
  66   2.0000      -0.290204        -7.8968
  67   0.0000       0.029378         0.7994
  68   0.0000       0.070895         1.9292
  69   0.0000       0.110547         3.0081
  70   0.0000       0.124276         3.3817
  71   0.0000       0.127610         3.4725

MULLIKEN ATOMIC CHARGES
-----------------------
   0 S :    0.109125
   1 C :   -0.171343
   2 C :   -0.060239
   3 C :    0.004525
   4 C :   -0.139955
   5 H :    0.028720
   6 C :    0.058752
   7 H :    0.033853
   8 H :    0.001839
   9 C :   -0.012068
  10 H :    0.018401
  11 H :    0.017838
  12 C :   -0.055494
  13 H :    0.031527
  14 H :    0.021632
  15 H :    0.035960
  16 S :    0.100234
  17 C :   -0.085314
  18 C :   -0.029953
  19 C :   -0.042163
  20 C :   -0.152475
  21 H :    0.012757
  22 C :    0.093703
  23 H :    0.031315
  24 H :    0.002878
  25 C :   -0.077854
  26 H :    0.028256
  27 H :    0.016829
  28 C :   -0.058212
  29 H :    0.041285
  30 H :    0.028486
  31 H :    0.037262
  32 H :    0.073496
  33 H :    0.056396
Sum of atomic charges:    0.0000000

LOEWDIN ATOMIC CHARGES
----------------------
   0 S :    0.382036
   1 C :   -0.196811
   2 C :   -0.067439
   3 C :   -0.068191
   4 C :   -0.184026
   5 H :    0.037000
   6 C :   -0.021767
   7 H :    0.032536
   8 H :    0.020798
   9 C :   -0.030289
  10 H :    0.023958
  11 H :    0.017568
  12 C :   -0.069394
  13 H :    0.021477
  14 H :    0.027945
  15 H :    0.031300
  16 S :    0.402060
  17 C :   -0.178310
  18 C :   -0.069483
  19 C :   -0.054725
  20 C :   -0.200445
  21 H :    0.028291
  22 C :   -0.023018
  23 H :    0.040722
  24 H :    0.012792
  25 C :   -0.039578
  26 H :    0.015173
  27 H :    0.026108
  28 C :   -0.066686
  29 H :    0.030576
  30 H :    0.027639
  31 H :    0.021604
  32 H :    0.041460
  33 H :    0.029117

  Mayer bond orders larger than 0.100000
B(  0-S ,  1-C ) :   1.1205 B(  0-S ,  4-C ) :   1.1545 B(  1-C ,  2-C ) :   1.6134
B(  1-C , 32-H ) :   0.9562 B(  2-C ,  3-C ) :   1.2497 B(  2-C ,  6-C ) :   1.0186
B(  3-C ,  4-C ) :   1.5671 B(  3-C ,  5-H ) :   0.9860 B(  4-C , 20-C ) :   1.0315
B(  6-C ,  7-H ) :   0.9422 B(  6-C ,  8-H ) :   0.9416 B(  6-C ,  9-C ) :   1.0784
B(  9-C , 10-H ) :   0.9525 B(  9-C , 11-H ) :   0.9558 B(  9-C , 12-C ) :   1.0693
B( 12-C , 13-H ) :   0.9753 B( 12-C , 14-H ) :   0.9732 B( 12-C , 15-H ) :   0.9746
B( 16-S , 17-C ) :   1.1632 B( 16-S , 20-C ) :   1.1278 B( 17-C , 18-C ) :   1.6105
B( 17-C , 33-H ) :   0.9651 B( 18-C , 19-C ) :   1.2380 B( 18-C , 21-H ) :   0.9936
B( 19-C , 20-C ) :   1.5982 B( 19-C , 22-C ) :   1.0420 B( 22-C , 23-H ) :   0.9375
B( 22-C , 24-H ) :   0.9330 B( 22-C , 25-C ) :   1.0487 B( 25-C , 26-H ) :   0.9615
B( 25-C , 27-H ) :   0.9603 B( 25-C , 28-C ) :   1.0752 B( 28-C , 29-H ) :   0.9726
B( 28-C , 30-H ) :   0.9782 B( 28-C , 31-H ) :   0.9770

Dispersion correction           -0.013894585
FINAL SINGLE POINT ENERGY     -1339.875213609369

DIPOLE MOMENT
-------------
                                X             Y             Z
Electronic contribution:      1.46270      21.70296      19.96296
Nuclear contribution   :     -1.62845     -22.01607     -20.53354
                        -----------------------------------------
Total Dipole Moment    :     -0.16575      -0.31312      -0.57057
                        -----------------------------------------
Magnitude (a.u.)       :      0.67162
Magnitude (Debye)      :      1.70711

Rotational constants in cm-1:     0.016583     0.009093     0.006599
Rotational constants in MHz :   497.134055   272.601321   197.822726

                             ****ORCA TERMINATED NORMALLY****
TOTAL RUN TIME: 0 days 0 hours 0 minutes 32 seconds 801 msec
