                         Program Version 4.2.1 -  RELEASE  -
|  1> ! wB97X-D3 SP def2-SVP
|  2> %pal
|  3> nprocs 16
|  4> end
|  5>
|  6> * xyz 0 1
|  7> S 	 7.44503 	 -6.53558 	 63.494
|  8> C 	 7.45474 	 -4.77594 	 63.1861
|  9> C 	 8.70416 	 -4.20413 	 63.4095
| 10> C 	 9.68503 	 -5.17553 	 63.732
| 11> C 	 9.20336 	 -6.45766 	 63.7177
| 12> H 	 10.771 	 -4.97106 	 63.7708
| 13> C 	 9.04814 	 -2.70025 	 63.3535
| 14> H 	 8.33496 	 -2.23578 	 62.7026
| 15> H 	 10.0142 	 -2.51277 	 63.0476
| 16> C 	 8.68843 	 -1.95419 	 64.6421
| 17> H 	 8.84275 	 -0.885939 	 64.3339
| 18> H 	 7.59607 	 -1.99496 	 64.8431
| 19> C 	 9.55478 	 -2.52052 	 65.8011
| 20> H 	 10.562 	 -2.10969 	 65.7051
| 21> H 	 9.13211 	 -2.08391 	 66.7312
| 22> H 	 9.68161 	 -3.55939 	 65.8546
| 23> S 	 9.73932 	 -8.73678 	 62.353
| 24> C 	 10.7987 	 -9.92803 	 63.0525
| 25> C 	 11.3504 	 -9.47048 	 64.2091
| 26> C 	 11.0368 	 -8.12455 	 64.4938
| 27> C 	 10.0386 	 -7.62521 	 63.6536
| 28> H 	 12.002 	 -10.1876 	 64.7954
| 29> C 	 11.4154 	 -7.50317 	 65.7739
| 30> H 	 10.6467 	 -6.77851 	 66.1063
| 31> H 	 12.3075 	 -6.86628 	 65.543
| 32> C 	 11.6837 	 -8.53586 	 66.9722
| 33> H 	 12.6357 	 -9.11358 	 66.8876
| 34> H 	 10.9098 	 -9.32019 	 66.8755
| 35> C 	 11.5295 	 -7.85813 	 68.3309
| 36> H 	 10.5146 	 -7.62689 	 68.6332
| 37> H 	 12.2102 	 -7.08053 	 68.2498
| 38> H 	 11.9543 	 -8.51637 	 69.1419
| 39> H 	 6.57233 	 -4.2971 	 62.7161
| 40> H 	 10.9632 	 -10.922 	 62.7584
| 41> *
| 42>
| 43>                          ****END OF INPUT****

CARTESIAN COORDINATES (ANGSTROEM)
---------------------------------
  S      7.445030   -6.535580   63.494000
  C      7.454740   -4.775940   63.186100
  C      8.704160   -4.204130   63.409500
  C      9.685030   -5.175530   63.732000
  C      9.203360   -6.457660   63.717700
  H     10.771000   -4.971060   63.770800
  C      9.048140   -2.700250   63.353500
  H      8.334960   -2.235780   62.702600
  H     10.014200   -2.512770   63.047600
  C      8.688430   -1.954190   64.642100
  H      8.842750   -0.885939   64.333900
  H      7.596070   -1.994960   64.843100
  C      9.554780   -2.520520   65.801100
  H     10.562000   -2.109690   65.705100
  H      9.132110   -2.083910   66.731200
  H      9.681610   -3.559390   65.854600
  S      9.739320   -8.736780   62.353000
  C     10.798700   -9.928030   63.052500
  C     11.350400   -9.470480   64.209100
  C     11.036800   -8.124550   64.493800
  C     10.038600   -7.625210   63.653600
  H     12.002000  -10.187600   64.795400
  C     11.415400   -7.503170   65.773900
  H     10.646700   -6.778510   66.106300
  H     12.307500   -6.866280   65.543000
  C     11.683700   -8.535860   66.972200
  H     12.635700   -9.113580   66.887600
  H     10.909800   -9.320190   66.875500
  C     11.529500   -7.858130   68.330900
  H     10.514600   -7.626890   68.633200
  H     12.210200   -7.080530   68.249800
  H     11.954300   -8.516370   69.141900
  H      6.572330   -4.297100   62.716100
  H     10.963200  -10.922000   62.758400

 Total Charge           Charge          ....    0
 Multiplicity           Mult            ....    1
 Number of Electrons    NEL             ....  134
 Basis Dimension        Dim             ....  322

ORBITAL ENERGIES
----------------

  NO   OCC          E(Eh)            E(eV)
   0   2.0000     -88.968900     -2420.9669
   1   2.0000     -88.962541     -2420.7938
   2   2.0000     -10.327898      -281.0364
   3   2.0000     -10.320728      -280.8413
   4   2.0000     -10.319845      -280.8173
   5   2.0000     -10.306150      -280.4446
   6   2.0000     -10.303980      -280.3855
   7   2.0000     -10.297183      -280.2006
   8   2.0000     -10.294404      -280.1250
   9   2.0000     -10.293867      -280.1104
  10   2.0000     -10.293272      -280.0942
  11   2.0000     -10.292381      -280.0699
  12   2.0000     -10.290706      -280.0244
  13   2.0000     -10.284930      -279.8672
  14   2.0000     -10.275179      -279.6018
  15   2.0000     -10.274321      -279.5785
  16   2.0000      -8.082726      -219.9421
  17   2.0000      -8.077605      -219.8028
  18   2.0000      -6.041279      -164.3916
  19   2.0000      -6.037532      -164.2896
  20   2.0000      -6.036067      -164.2497
  21   2.0000      -6.033321      -164.1750
  22   2.0000      -6.031996      -164.1390
  23   2.0000      -6.028452      -164.0425
  24   2.0000      -1.008683       -27.4477
  25   2.0000      -0.982837       -26.7444
  26   2.0000      -0.913027       -24.8447
  27   2.0000      -0.904697       -24.6180
  28   2.0000      -0.869207       -23.6523
  29   2.0000      -0.853385       -23.2218
  30   2.0000      -0.843097       -22.9418
  31   2.0000      -0.813802       -22.1447
  32   2.0000      -0.784606       -21.3502
  33   2.0000      -0.766136       -20.8476
  34   2.0000      -0.704270       -19.1642
  35   2.0000      -0.703705       -19.1488
  36   2.0000      -0.698013       -18.9939
  37   2.0000      -0.649412       -17.6714
  38   2.0000      -0.637532       -17.3481
  39   2.0000      -0.615986       -16.7618
  40   2.0000      -0.595438       -16.2027
  41   2.0000      -0.573827       -15.6146
  42   2.0000      -0.565272       -15.3818
  43   2.0000      -0.545781       -14.8514
  44   2.0000      -0.541508       -14.7352
  45   2.0000      -0.526578       -14.3289
  46   2.0000      -0.518403       -14.1065
  47   2.0000      -0.516168       -14.0456
  48   2.0000      -0.503999       -13.7145
  49   2.0000      -0.494171       -13.4471
  50   2.0000      -0.481625       -13.1057
  51   2.0000      -0.478580       -13.0228
  52   2.0000      -0.477488       -12.9931
  53   2.0000      -0.463128       -12.6023
  54   2.0000      -0.457509       -12.4495
  55   2.0000      -0.450229       -12.2513
  56   2.0000      -0.446157       -12.1405
  57   2.0000      -0.438767       -11.9394
  58   2.0000      -0.432344       -11.7647
  59   2.0000      -0.420173       -11.4335
  60   2.0000      -0.417501       -11.3608
  61   2.0000      -0.412918       -11.2361
  62   2.0000      -0.409443       -11.1415
  63   2.0000      -0.346987        -9.4420
  64   2.0000      -0.330577        -8.9955
  65   2.0000      -0.327382        -8.9085
  66   2.0000      -0.287495        -7.8231
  67   0.0000       0.024085         0.6554
  68   0.0000       0.072570         1.9747
  69   0.0000       0.110759         3.0139
  70   0.0000       0.125966         3.4277
  71   0.0000       0.133181         3.6240

MULLIKEN ATOMIC CHARGES
-----------------------
   0 S :    0.111332
   1 C :   -0.158784
   2 C :   -0.082621
   3 C :    0.016593
   4 C :   -0.150692
   5 H :    0.031078
   6 C :    0.115670
   7 H :    0.008306
   8 H :    0.009497
   9 C :   -0.101581
  10 H :    0.037683
  11 H :    0.035488
  12 C :   -0.038004
  13 H :    0.021118
  14 H :    0.037405
  15 H :    0.040874
  16 S :    0.114772
  17 C :   -0.059619
  18 C :   -0.079930
  19 C :   -0.010017
  20 C :   -0.174811
  21 H :    0.039531
  22 C :    0.029414
  23 H :    0.038749
  24 H :    0.040113
  25 C :   -0.125502
  26 H :    0.041238
  27 H :    0.035614
  28 C :   -0.016617
  29 H :    0.048403
  30 H :    0.019297
  31 H :    0.030025
  32 H :    0.066607
  33 H :    0.029368
Sum of atomic charges:    0.0000000

LOEWDIN ATOMIC CHARGES
----------------------
   0 S :    0.381421
   1 C :   -0.191956
   2 C :   -0.056569
   3 C :   -0.066459
   4 C :   -0.187026
   5 H :    0.039064
   6 C :   -0.021356
   7 H :    0.029539
   8 H :    0.016600
   9 C :   -0.038085
  10 H :    0.029323
  11 H :    0.024304
  12 C :   -0.065207
  13 H :    0.026257
  14 H :    0.030554
  15 H :    0.018631
  16 S :    0.416292
  17 C :   -0.187127
  18 C :   -0.078281
  19 C :   -0.064901
  20 C :   -0.203839
  21 H :    0.042854
  22 C :   -0.039940
  23 H :    0.033751
  24 H :    0.036937
  25 C :   -0.044430
  26 H :    0.026405
  27 H :    0.023188
  28 C :   -0.062451
  29 H :    0.028268
  30 H :    0.016666
  31 H :    0.033069
  32 H :    0.033399
  33 H :    0.021104

  Mayer bond orders larger than 0.100000
B(  0-S ,  1-C ) :   1.1218 B(  0-S ,  4-C ) :   1.1425 B(  1-C ,  2-C ) :   1.6228
B(  1-C , 32-H ) :   0.9631 B(  2-C ,  3-C ) :   1.2325 B(  2-C ,  6-C ) :   1.0288
B(  3-C ,  4-C ) :   1.5733 B(  3-C ,  5-H ) :   0.9855 B(  4-C , 20-C ) :   1.0676
B(  6-C ,  7-H ) :   0.9329 B(  6-C ,  8-H ) :   0.9464 B(  6-C ,  9-C ) :   1.0688
B(  9-C , 10-H ) :   0.9590 B(  9-C , 11-H ) :   0.9606 B(  9-C , 12-C ) :   1.0579
B( 12-C , 13-H ) :   0.9733 B( 12-C , 14-H ) :   0.9753 B( 12-C , 15-H ) :   0.9781
B( 16-S , 17-C ) :   1.1474 B( 16-S , 20-C ) :   1.1493 B( 17-C , 18-C ) :   1.6190
B( 17-C , 33-H ) :   0.9669 B( 18-C , 19-C ) :   1.2604 B( 18-C , 21-H ) :   0.9758
B( 19-C , 20-C ) :   1.5547 B( 19-C , 22-C ) :   1.0547 B( 22-C , 23-H ) :   0.9444
B( 22-C , 24-H ) :   0.9101 B( 22-C , 25-C ) :   1.0575 B( 25-C , 26-H ) :   0.9495
B( 25-C , 27-H ) :   0.9603 B( 25-C , 28-C ) :   1.0820 B( 28-C , 29-H ) :   0.9755
B( 28-C , 30-H ) :   0.9741 B( 28-C , 31-H ) :   0.9708

Dispersion correction           -0.014338437
FINAL SINGLE POINT ENERGY     -1339.861696224887

DIPOLE MOMENT
-------------
                                X             Y             Z
Electronic contribution:    -10.59779     -15.14311     -20.92676
Nuclear contribution   :     10.91214      15.47121      21.21601
                        -----------------------------------------
Total Dipole Moment    :      0.31436       0.32810       0.28925
                        -----------------------------------------
Magnitude (a.u.)       :      0.53864
Magnitude (Debye)      :      1.36912

Rotational constants in cm-1:     0.017673     0.009352     0.006831
Rotational constants in MHz :   529.830591   280.355403   204.790658

                             ****ORCA TERMINATED NORMALLY****
TOTAL RUN TIME: 0 days 0 hours 0 minutes 34 seconds 506 msec
