                         Program Version 4.2.1 -  RELEASE  -
|  1> ! wB97X-D3 SP def2-SVP
|  2> %pal
|  3> nprocs 16
|  4> end
|  5>
|  6> * xyz 0 1
|  7> S 	 -110.837 	 60.625 	 120.739
|  8> C 	 -109.292 	 61.1398 	 121.489
|  9> C 	 -108.324 	 60.1646 	 121.481
| 10> C 	 -108.843 	 58.9051 	 120.946
| 11> C 	 -110.178 	 58.9366 	 120.657
| 12> H 	 -108.381 	 57.952 	 121.11
| 13> C 	 -106.917 	 60.4043 	 121.969
| 14> H 	 -106.895 	 60.1393 	 123.037
| 15> H 	 -106.614 	 61.4936 	 121.91
| 16> C 	 -105.828 	 59.5937 	 121.314
| 17> H 	 -104.943 	 59.7469 	 121.954
| 18> H 	 -106.134 	 58.5722 	 121.371
| 19> C 	 -105.413 	 59.9866 	 119.858
| 20> H 	 -104.538 	 59.4742 	 119.423
| 21> H 	 -106.264 	 59.6624 	 119.324
| 22> H 	 -105.128 	 61.0811 	 119.739
| 23> S 	 -112.281 	 57.671 	 121.724
| 24> C 	 -112.446 	 55.9402 	 121.563
| 25> C 	 -111.786 	 55.4447 	 120.509
| 26> C 	 -110.873 	 56.4502 	 120.027
| 27> C 	 -110.983 	 57.7471 	 120.577
| 28> H 	 -111.906 	 54.4128 	 120.236
| 29> C 	 -109.863 	 56.2109 	 118.966
| 30> H 	 -109.484 	 55.2037 	 118.994
| 31> H 	 -108.994 	 56.871 	 118.999
| 32> C 	 -110.398 	 56.1837 	 117.519
| 33> H 	 -109.548 	 55.9601 	 116.872
| 34> H 	 -110.678 	 57.2488 	 117.256
| 35> C 	 -111.475 	 55.191 	 117.163
| 36> H 	 -112.447 	 55.5307 	 117.603
| 37> H 	 -111.301 	 54.1897 	 117.547
| 38> H 	 -111.593 	 55.142 	 116.082
| 39> H 	 -109.122 	 62.2125 	 121.763
| 40> H 	 -113.208 	 55.2973 	 122.02
| 41> *
| 42>
| 43>                          ****END OF INPUT****

CARTESIAN COORDINATES (ANGSTROEM)
---------------------------------
  S    -110.837000   60.625000  120.739000
  C    -109.292000   61.139800  121.489000
  C    -108.324000   60.164600  121.481000
  C    -108.843000   58.905100  120.946000
  C    -110.178000   58.936600  120.657000
  H    -108.381000   57.952000  121.110000
  C    -106.917000   60.404300  121.969000
  H    -106.895000   60.139300  123.037000
  H    -106.614000   61.493600  121.910000
  C    -105.828000   59.593700  121.314000
  H    -104.943000   59.746900  121.954000
  H    -106.134000   58.572200  121.371000
  C    -105.413000   59.986600  119.858000
  H    -104.538000   59.474200  119.423000
  H    -106.264000   59.662400  119.324000
  H    -105.128000   61.081100  119.739000
  S    -112.281000   57.671000  121.724000
  C    -112.446000   55.940200  121.563000
  C    -111.786000   55.444700  120.509000
  C    -110.873000   56.450200  120.027000
  C    -110.983000   57.747100  120.577000
  H    -111.906000   54.412800  120.236000
  C    -109.863000   56.210900  118.966000
  H    -109.484000   55.203700  118.994000
  H    -108.994000   56.871000  118.999000
  C    -110.398000   56.183700  117.519000
  H    -109.548000   55.960100  116.872000
  H    -110.678000   57.248800  117.256000
  C    -111.475000   55.191000  117.163000
  H    -112.447000   55.530700  117.603000
  H    -111.301000   54.189700  117.547000
  H    -111.593000   55.142000  116.082000
  H    -109.122000   62.212500  121.763000
  H    -113.208000   55.297300  122.020000

 Total Charge           Charge          ....    0
 Multiplicity           Mult            ....    1
 Number of Electrons    NEL             ....  134
 Basis Dimension        Dim             ....  322

ORBITAL ENERGIES
----------------

  NO   OCC          E(Eh)            E(eV)
   0   2.0000     -88.968189     -2420.9475
   1   2.0000     -88.960882     -2420.7487
   2   2.0000     -10.337845      -281.3071
   3   2.0000     -10.326835      -281.0075
   4   2.0000     -10.320225      -280.8276
   5   2.0000     -10.314264      -280.6654
   6   2.0000     -10.307015      -280.4681
   7   2.0000     -10.306741      -280.4607
   8   2.0000     -10.297812      -280.2177
   9   2.0000     -10.297691      -280.2144
  10   2.0000     -10.293975      -280.1133
  11   2.0000     -10.287373      -279.9336
  12   2.0000     -10.283795      -279.8363
  13   2.0000     -10.282645      -279.8050
  14   2.0000     -10.280961      -279.7592
  15   2.0000     -10.277578      -279.6671
  16   2.0000      -8.081446      -219.9073
  17   2.0000      -8.076348      -219.7686
  18   2.0000      -6.040216      -164.3626
  19   2.0000      -6.036403      -164.2589
  20   2.0000      -6.034936      -164.2190
  21   2.0000      -6.031769      -164.1328
  22   2.0000      -6.030686      -164.1033
  23   2.0000      -6.027004      -164.0031
  24   2.0000      -1.009186       -27.4613
  25   2.0000      -0.981128       -26.6979
  26   2.0000      -0.914480       -24.8843
  27   2.0000      -0.909652       -24.7529
  28   2.0000      -0.877998       -23.8915
  29   2.0000      -0.847423       -23.0596
  30   2.0000      -0.839958       -22.8564
  31   2.0000      -0.823137       -22.3987
  32   2.0000      -0.784457       -21.3461
  33   2.0000      -0.772269       -21.0145
  34   2.0000      -0.714460       -19.4415
  35   2.0000      -0.689520       -18.7628
  36   2.0000      -0.683031       -18.5862
  37   2.0000      -0.661629       -18.0038
  38   2.0000      -0.637675       -17.3520
  39   2.0000      -0.626717       -17.0538
  40   2.0000      -0.593575       -16.1520
  41   2.0000      -0.576340       -15.6830
  42   2.0000      -0.554727       -15.0949
  43   2.0000      -0.549997       -14.9662
  44   2.0000      -0.544184       -14.8080
  45   2.0000      -0.540612       -14.7108
  46   2.0000      -0.521235       -14.1835
  47   2.0000      -0.509810       -13.8726
  48   2.0000      -0.501255       -13.6399
  49   2.0000      -0.494145       -13.4464
  50   2.0000      -0.484532       -13.1848
  51   2.0000      -0.479423       -13.0458
  52   2.0000      -0.472465       -12.8564
  53   2.0000      -0.467680       -12.7262
  54   2.0000      -0.466533       -12.6950
  55   2.0000      -0.450389       -12.2557
  56   2.0000      -0.444226       -12.0880
  57   2.0000      -0.435459       -11.8494
  58   2.0000      -0.427809       -11.6413
  59   2.0000      -0.424873       -11.5614
  60   2.0000      -0.418664       -11.3924
  61   2.0000      -0.408015       -11.1027
  62   2.0000      -0.404255       -11.0003
  63   2.0000      -0.358284        -9.7494
  64   2.0000      -0.330883        -9.0038
  65   2.0000      -0.322886        -8.7862
  66   2.0000      -0.290276        -7.8988
  67   0.0000       0.025291         0.6882
  68   0.0000       0.066006         1.7961
  69   0.0000       0.103451         2.8151
  70   0.0000       0.117434         3.1956
  71   0.0000       0.124807         3.3962

MULLIKEN ATOMIC CHARGES
-----------------------
   0 S :    0.094445
   1 C :   -0.148028
   2 C :   -0.078368
   3 C :    0.024916
   4 C :   -0.126225
   5 H :    0.030683
   6 C :    0.045322
   7 H :    0.049547
   8 H :    0.032751
   9 C :   -0.088812
  10 H :    0.029553
  11 H :    0.023800
  12 C :   -0.056761
  13 H :    0.038051
  14 H :    0.032786
  15 H :    0.041317
  16 S :    0.096437
  17 C :   -0.080731
  18 C :   -0.021614
  19 C :   -0.065824
  20 C :   -0.127218
  21 H :    0.020859
  22 C :    0.073030
  23 H :    0.002080
  24 H :    0.023196
  25 C :   -0.097279
  26 H :    0.023395
  27 H :    0.031283
  28 C :   -0.048351
  29 H :    0.041998
  30 H :    0.021148
  31 H :    0.039103
  32 H :    0.066843
  33 H :    0.056669
Sum of atomic charges:    0.0000000

LOEWDIN ATOMIC CHARGES
----------------------
   0 S :    0.350386
   1 C :   -0.183990
   2 C :   -0.062385
   3 C :   -0.062669
   4 C :   -0.165569
   5 H :    0.030495
   6 C :   -0.036516
   7 H :    0.041258
   8 H :    0.036041
   9 C :   -0.042716
  10 H :    0.026380
  11 H :    0.018372
  12 C :   -0.070493
  13 H :    0.028627
  14 H :    0.020532
  15 H :    0.033044
  16 S :    0.412757
  17 C :   -0.181664
  18 C :   -0.071363
  19 C :   -0.053015
  20 C :   -0.203691
  21 H :    0.035514
  22 C :   -0.040749
  23 H :    0.023848
  24 H :    0.030659
  25 C :   -0.042043
  26 H :    0.021323
  27 H :    0.025975
  28 C :   -0.069589
  29 H :    0.030508
  30 H :    0.019455
  31 H :    0.029973
  32 H :    0.036624
  33 H :    0.034679

  Mayer bond orders larger than 0.100000
B(  0-S ,  1-C ) :   1.0992 B(  0-S ,  4-C ) :   1.1153 B(  1-C ,  2-C ) :   1.6764
B(  1-C , 32-H ) :   0.9606 B(  2-C ,  3-C ) :   1.1892 B(  2-C ,  6-C ) :   1.0165
B(  3-C ,  4-C ) :   1.6351 B(  3-C ,  5-H ) :   0.9749 B(  4-C , 20-C ) :   1.0472
B(  6-C ,  7-H ) :   0.9294 B(  6-C ,  8-H ) :   0.9461 B(  6-C ,  9-C ) :   1.0870
B(  9-C , 10-H ) :   0.9537 B(  9-C , 11-H ) :   0.9510 B(  9-C , 12-C ) :   1.0662
B( 12-C , 13-H ) :   0.9768 B( 12-C , 14-H ) :   0.9782 B( 12-C , 15-H ) :   0.9744
B( 16-S , 17-C ) :   1.1654 B( 16-S , 20-C ) :   1.1178 B( 17-C , 18-C ) :   1.6316
B( 17-C , 33-H ) :   0.9546 B( 18-C , 19-C ) :   1.2197 B( 18-C , 21-H ) :   0.9947
B( 19-C , 20-C ) :   1.5796 B( 19-C , 22-C ) :   1.0653 B( 22-C , 23-H ) :   0.9249
B( 22-C , 24-H ) :   0.9371 B( 22-C , 25-C ) :   1.0744 B( 25-C , 26-H ) :   0.9557
B( 25-C , 27-H ) :   0.9515 B( 25-C , 28-C ) :   1.0885 B( 28-C , 29-H ) :   0.9689
B( 28-C , 30-H ) :   0.9706 B( 28-C , 31-H ) :   0.9713

Dispersion correction           -0.014415026
FINAL SINGLE POINT ENERGY     -1339.863082491586

DIPOLE MOMENT
-------------
                                X             Y             Z
Electronic contribution:    -20.16857       8.15956      12.77479
Nuclear contribution   :     20.71539      -8.57043     -12.78077
                        -----------------------------------------
Total Dipole Moment    :      0.54682      -0.41088      -0.00598
                        -----------------------------------------
Magnitude (a.u.)       :      0.68401
Magnitude (Debye)      :      1.73861

Rotational constants in cm-1:     0.019070     0.008662     0.007012
Rotational constants in MHz :   571.694938   259.683894   210.208325

                             ****ORCA TERMINATED NORMALLY****
TOTAL RUN TIME: 0 days 0 hours 0 minutes 35 seconds 476 msec
