                         Program Version 4.2.1 -  RELEASE  -
|  1> ! wB97X-D3 SP def2-SVP
|  2> %pal
|  3> nprocs 16
|  4> end
|  5>
|  6> * xyz 0 1
|  7> S 	 1.01923 	 25.0532 	 39.7804
|  8> C 	 -0.271108 	 25.9306 	 39.0771
|  9> C 	 -1.46573 	 25.2328 	 39.3164
| 10> C 	 -1.2105 	 23.8605 	 39.6615
| 11> C 	 0.0927646 	 23.5949 	 39.7561
| 12> H 	 -2.0524 	 23.1372 	 39.8723
| 13> C 	 -2.85496 	 25.8206 	 38.9761
| 14> H 	 -3.04807 	 25.4954 	 37.9115
| 15> H 	 -2.76332 	 26.9485 	 39.0469
| 16> C 	 -3.94104 	 25.3256 	 39.9485
| 17> H 	 -3.98662 	 24.3011 	 40.1928
| 18> H 	 -3.65359 	 25.7834 	 40.8745
| 19> C 	 -5.39142 	 25.6958 	 39.6781
| 20> H 	 -5.45748 	 26.7705 	 39.484
| 21> H 	 -5.67676 	 25.1369 	 38.7965
| 22> H 	 -6.07513 	 25.6012 	 40.4767
| 23> S 	 1.70876 	 22.1223 	 41.1937
| 24> C 	 2.04371 	 20.5064 	 40.851
| 25> C 	 1.07345 	 20.0349 	 39.9799
| 26> C 	 0.28796 	 21.0236 	 39.3804
| 27> C 	 0.66083 	 22.262 	 39.8408
| 28> H 	 0.925745 	 18.9319 	 39.7958
| 29> C 	 -0.687782 	 20.755 	 38.3255
| 30> H 	 -0.30089 	 20.2163 	 37.5094
| 31> H 	 -0.826685 	 21.7051 	 37.9383
| 32> C 	 -2.09008 	 20.2113 	 38.7044
| 33> H 	 -2.69766 	 20.9348 	 39.2072
| 34> H 	 -2.03314 	 19.3188 	 39.2924
| 35> C 	 -2.95416 	 19.7653 	 37.4803
| 36> H 	 -2.96317 	 20.5601 	 36.7038
| 37> H 	 -3.94537 	 19.4353 	 37.8363
| 38> H 	 -2.62298 	 18.7766 	 37.0482
| 39> H 	 -0.222187 	 26.995 	 38.9021
| 40> H 	 2.73365 	 19.8079 	 41.3429
| 41> *
| 42>
| 43>                          ****END OF INPUT****

CARTESIAN COORDINATES (ANGSTROEM)
---------------------------------
  S      1.019230   25.053200   39.780400
  C     -0.271108   25.930600   39.077100
  C     -1.465730   25.232800   39.316400
  C     -1.210500   23.860500   39.661500
  C      0.092765   23.594900   39.756100
  H     -2.052400   23.137200   39.872300
  C     -2.854960   25.820600   38.976100
  H     -3.048070   25.495400   37.911500
  H     -2.763320   26.948500   39.046900
  C     -3.941040   25.325600   39.948500
  H     -3.986620   24.301100   40.192800
  H     -3.653590   25.783400   40.874500
  C     -5.391420   25.695800   39.678100
  H     -5.457480   26.770500   39.484000
  H     -5.676760   25.136900   38.796500
  H     -6.075130   25.601200   40.476700
  S      1.708760   22.122300   41.193700
  C      2.043710   20.506400   40.851000
  C      1.073450   20.034900   39.979900
  C      0.287960   21.023600   39.380400
  C      0.660830   22.262000   39.840800
  H      0.925745   18.931900   39.795800
  C     -0.687782   20.755000   38.325500
  H     -0.300890   20.216300   37.509400
  H     -0.826685   21.705100   37.938300
  C     -2.090080   20.211300   38.704400
  H     -2.697660   20.934800   39.207200
  H     -2.033140   19.318800   39.292400
  C     -2.954160   19.765300   37.480300
  H     -2.963170   20.560100   36.703800
  H     -3.945370   19.435300   37.836300
  H     -2.622980   18.776600   37.048200
  H     -0.222187   26.995000   38.902100
  H      2.733650   19.807900   41.342900

 Total Charge           Charge          ....    0
 Multiplicity           Mult            ....    1
 Number of Electrons    NEL             ....  134
 Basis Dimension        Dim             ....  322

ORBITAL ENERGIES
----------------

  NO   OCC          E(Eh)            E(eV)
   0   2.0000     -88.961933     -2420.7773
   1   2.0000     -88.961065     -2420.7537
   2   2.0000     -10.321451      -280.8610
   3   2.0000     -10.318258      -280.7741
   4   2.0000     -10.311188      -280.5817
   5   2.0000     -10.310901      -280.5739
   6   2.0000     -10.306664      -280.4586
   7   2.0000     -10.304294      -280.3941
   8   2.0000     -10.294644      -280.1315
   9   2.0000     -10.294126      -280.1174
  10   2.0000     -10.289716      -279.9974
  11   2.0000     -10.288015      -279.9511
  12   2.0000     -10.287425      -279.9351
  13   2.0000     -10.281454      -279.7726
  14   2.0000     -10.277634      -279.6686
  15   2.0000     -10.274221      -279.5758
  16   2.0000      -8.078185      -219.8186
  17   2.0000      -8.077914      -219.8112
  18   2.0000      -6.036701      -164.2670
  19   2.0000      -6.036215      -164.2538
  20   2.0000      -6.032755      -164.1596
  21   2.0000      -6.032207      -164.1447
  22   2.0000      -6.028684      -164.0488
  23   2.0000      -6.028549      -164.0452
  24   2.0000      -1.022512       -27.8240
  25   2.0000      -0.997186       -27.1348
  26   2.0000      -0.914985       -24.8980
  27   2.0000      -0.911206       -24.7952
  28   2.0000      -0.874391       -23.7934
  29   2.0000      -0.857688       -23.3389
  30   2.0000      -0.848977       -23.1018
  31   2.0000      -0.816943       -22.2301
  32   2.0000      -0.784154       -21.3379
  33   2.0000      -0.771624       -20.9969
  34   2.0000      -0.709115       -19.2960
  35   2.0000      -0.702502       -19.1161
  36   2.0000      -0.692089       -18.8327
  37   2.0000      -0.661681       -18.0052
  38   2.0000      -0.638834       -17.3836
  39   2.0000      -0.623215       -16.9585
  40   2.0000      -0.601174       -16.3588
  41   2.0000      -0.573508       -15.6059
  42   2.0000      -0.566573       -15.4172
  43   2.0000      -0.559686       -15.2298
  44   2.0000      -0.531010       -14.4495
  45   2.0000      -0.527625       -14.3574
  46   2.0000      -0.523018       -14.2320
  47   2.0000      -0.515045       -14.0151
  48   2.0000      -0.505204       -13.7473
  49   2.0000      -0.502903       -13.6847
  50   2.0000      -0.496864       -13.5204
  51   2.0000      -0.483076       -13.1452
  52   2.0000      -0.468924       -12.7601
  53   2.0000      -0.467063       -12.7094
  54   2.0000      -0.457726       -12.4553
  55   2.0000      -0.454574       -12.3696
  56   2.0000      -0.448850       -12.2138
  57   2.0000      -0.430881       -11.7249
  58   2.0000      -0.430550       -11.7158
  59   2.0000      -0.425629       -11.5819
  60   2.0000      -0.421092       -11.4585
  61   2.0000      -0.418797       -11.3960
  62   2.0000      -0.416695       -11.3389
  63   2.0000      -0.348941        -9.4952
  64   2.0000      -0.328658        -8.9432
  65   2.0000      -0.326074        -8.8729
  66   2.0000      -0.289290        -7.8720
  67   0.0000       0.025125         0.6837
  68   0.0000       0.069765         1.8984
  69   0.0000       0.101825         2.7708
  70   0.0000       0.126824         3.4511
  71   0.0000       0.133373         3.6293

MULLIKEN ATOMIC CHARGES
-----------------------
   0 S :    0.121118
   1 C :   -0.113430
   2 C :   -0.123298
   3 C :   -0.015121
   4 C :   -0.127227
   5 H :    0.035779
   6 C :    0.054413
   7 H :    0.054479
   8 H :    0.038881
   9 C :   -0.095684
  10 H :    0.021225
  11 H :    0.017867
  12 C :   -0.014580
  13 H :    0.015528
  14 H :    0.031192
  15 H :    0.027553
  16 S :    0.103766
  17 C :   -0.072663
  18 C :   -0.079208
  19 C :   -0.036613
  20 C :   -0.128403
  21 H :    0.030540
  22 C :    0.120122
  23 H :    0.013928
  24 H :   -0.004870
  25 C :   -0.051265
  26 H :    0.023287
  27 H :    0.021254
  28 C :   -0.089312
  29 H :    0.045185
  30 H :    0.033174
  31 H :    0.032312
  32 H :    0.050007
  33 H :    0.060065
Sum of atomic charges:    0.0000000

LOEWDIN ATOMIC CHARGES
----------------------
   0 S :    0.420678
   1 C :   -0.209154
   2 C :   -0.062543
   3 C :   -0.072111
   4 C :   -0.207070
   5 H :    0.041447
   6 C :   -0.030547
   7 H :    0.037012
   8 H :    0.037643
   9 C :   -0.047589
  10 H :    0.016524
  11 H :    0.023937
  12 C :   -0.059175
  13 H :    0.024214
  14 H :    0.024575
  15 H :    0.022773
  16 S :    0.445415
  17 C :   -0.212366
  18 C :   -0.076564
  19 C :   -0.062776
  20 C :   -0.195090
  21 H :    0.036905
  22 C :   -0.028577
  23 H :    0.028303
  24 H :    0.025762
  25 C :   -0.029056
  26 H :    0.017089
  27 H :    0.019887
  28 C :   -0.072193
  29 H :    0.026160
  30 H :    0.028212
  31 H :    0.027118
  32 H :    0.025364
  33 H :    0.035794

  Mayer bond orders larger than 0.100000
B(  0-S ,  1-C ) :   1.1437 B(  0-S ,  4-C ) :   1.1493 B(  1-C ,  2-C ) :   1.5986
B(  1-C , 32-H ) :   0.9699 B(  2-C ,  3-C ) :   1.2299 B(  2-C ,  6-C ) :   1.0190
B(  3-C ,  4-C ) :   1.5752 B(  3-C ,  5-H ) :   0.9890 B(  4-C , 20-C ) :   1.0113
B(  6-C ,  7-H ) :   0.9445 B(  6-C ,  8-H ) :   0.9425 B(  6-C ,  9-C ) :   1.0479
B(  9-C , 10-H ) :   0.9591 B(  9-C , 11-H ) :   0.9533 B(  9-C , 12-C ) :   1.0942
B( 12-C , 13-H ) :   0.9710 B( 12-C , 14-H ) :   0.9762 B( 12-C , 15-H ) :   0.9730
B( 16-S , 17-C ) :   1.1695 B( 16-S , 20-C ) :   1.1767 B( 17-C , 18-C ) :   1.5707
B( 17-C , 20-C ) :   0.1051 B( 17-C , 33-H ) :   0.9685 B( 18-C , 19-C ) :   1.2689
B( 18-C , 21-H ) :   0.9832 B( 19-C , 20-C ) :   1.5729 B( 19-C , 22-C ) :   1.0538
B( 22-C , 23-H ) :   0.9355 B( 22-C , 24-H ) :   0.9103 B( 22-C , 25-C ) :   1.0600
B( 25-C , 26-H ) :   0.9526 B( 25-C , 27-H ) :   0.9581 B( 25-C , 28-C ) :   1.0830
B( 28-C , 29-H ) :   0.9758 B( 28-C , 30-H ) :   0.9729 B( 28-C , 31-H ) :   0.9755

Dispersion correction           -0.013912885
FINAL SINGLE POINT ENERGY     -1339.845576834902

DIPOLE MOMENT
-------------
                                X             Y             Z
Electronic contribution:     30.63182       4.37549      10.24957
Nuclear contribution   :    -31.34883      -4.57501     -10.30914
                        -----------------------------------------
Total Dipole Moment    :     -0.71701      -0.19952      -0.05957
                        -----------------------------------------
Magnitude (a.u.)       :      0.74663
Magnitude (Debye)      :      1.89779

Rotational constants in cm-1:     0.016199     0.009757     0.006732
Rotational constants in MHz :   485.638927   292.520851   201.830707

                             ****ORCA TERMINATED NORMALLY****
TOTAL RUN TIME: 0 days 0 hours 0 minutes 35 seconds 315 msec
