                         Program Version 4.2.1 -  RELEASE  -
|  1> ! wB97X-D3 SP def2-SVP
|  2> %pal
|  3> nprocs 16
|  4> end
|  5>
|  6> * xyz 0 1
|  7> S 	 -55.9616 	 38.8899 	 116.48
|  8> C 	 -56.3701 	 37.9751 	 117.889
|  9> C 	 -56.8021 	 36.7292 	 117.555
| 10> C 	 -56.7972 	 36.4642 	 116.166
| 11> C 	 -56.3854 	 37.5544 	 115.456
| 12> H 	 -57.1274 	 35.4339 	 115.732
| 13> C 	 -57.2811 	 35.7338 	 118.572
| 14> H 	 -58.2107 	 35.3143 	 118.266
| 15> H 	 -57.4366 	 36.2418 	 119.549
| 16> C 	 -56.3959 	 34.6268 	 118.982
| 17> H 	 -56.7537 	 33.8799 	 119.689
| 18> H 	 -56.1555 	 34.0503 	 118.105
| 19> C 	 -55.0491 	 35.1133 	 119.559
| 20> H 	 -54.3585 	 35.6359 	 118.824
| 21> H 	 -55.1057 	 35.7901 	 120.408
| 22> H 	 -54.3911 	 34.2222 	 119.83
| 23> S 	 -57.8542 	 37.5494 	 113.178
| 24> C 	 -57.101 	 38.1878 	 111.664
| 25> C 	 -55.7276 	 38.3478 	 111.821
| 26> C 	 -55.306 	 38.1231 	 113.179
| 27> C 	 -56.3279 	 37.6256 	 113.993
| 28> H 	 -55.2545 	 38.7353 	 110.966
| 29> C 	 -53.8711 	 38.5875 	 113.62
| 30> H 	 -53.7436 	 38.69 	 114.687
| 31> H 	 -53.692 	 39.6279 	 113.217
| 32> C 	 -52.7184 	 37.6594 	 113.035
| 33> H 	 -51.6447 	 38.031 	 113.225
| 34> H 	 -52.9056 	 37.6124 	 111.983
| 35> C 	 -52.8603 	 36.2954 	 113.643
| 36> H 	 -53.0489 	 36.2391 	 114.699
| 37> H 	 -51.9451 	 35.7179 	 113.529
| 38> H 	 -53.6494 	 35.6724 	 113.267
| 39> H 	 -56.2694 	 38.4022 	 118.889
| 40> H 	 -57.7103 	 38.5131 	 110.83
| 41> *
| 42>
| 43>                          ****END OF INPUT****

CARTESIAN COORDINATES (ANGSTROEM)
---------------------------------
  S    -55.961600   38.889900  116.480000
  C    -56.370100   37.975100  117.889000
  C    -56.802100   36.729200  117.555000
  C    -56.797200   36.464200  116.166000
  C    -56.385400   37.554400  115.456000
  H    -57.127400   35.433900  115.732000
  C    -57.281100   35.733800  118.572000
  H    -58.210700   35.314300  118.266000
  H    -57.436600   36.241800  119.549000
  C    -56.395900   34.626800  118.982000
  H    -56.753700   33.879900  119.689000
  H    -56.155500   34.050300  118.105000
  C    -55.049100   35.113300  119.559000
  H    -54.358500   35.635900  118.824000
  H    -55.105700   35.790100  120.408000
  H    -54.391100   34.222200  119.830000
  S    -57.854200   37.549400  113.178000
  C    -57.101000   38.187800  111.664000
  C    -55.727600   38.347800  111.821000
  C    -55.306000   38.123100  113.179000
  C    -56.327900   37.625600  113.993000
  H    -55.254500   38.735300  110.966000
  C    -53.871100   38.587500  113.620000
  H    -53.743600   38.690000  114.687000
  H    -53.692000   39.627900  113.217000
  C    -52.718400   37.659400  113.035000
  H    -51.644700   38.031000  113.225000
  H    -52.905600   37.612400  111.983000
  C    -52.860300   36.295400  113.643000
  H    -53.048900   36.239100  114.699000
  H    -51.945100   35.717900  113.529000
  H    -53.649400   35.672400  113.267000
  H    -56.269400   38.402200  118.889000
  H    -57.710300   38.513100  110.830000

 Total Charge           Charge          ....    0
 Multiplicity           Mult            ....    1
 Number of Electrons    NEL             ....  134
 Basis Dimension        Dim             ....  322

ORBITAL ENERGIES
----------------

  NO   OCC          E(Eh)            E(eV)
   0   2.0000     -88.967754     -2420.9357
   1   2.0000     -88.965921     -2420.8858
   2   2.0000     -10.327640      -281.0294
   3   2.0000     -10.326806      -281.0067
   4   2.0000     -10.323819      -280.9254
   5   2.0000     -10.312893      -280.6281
   6   2.0000     -10.310723      -280.5690
   7   2.0000     -10.298645      -280.2404
   8   2.0000     -10.298321      -280.2316
   9   2.0000     -10.298140      -280.2266
  10   2.0000     -10.295832      -280.1638
  11   2.0000     -10.290188      -280.0102
  12   2.0000     -10.284578      -279.8576
  13   2.0000     -10.281255      -279.7672
  14   2.0000     -10.281043      -279.7614
  15   2.0000     -10.262058      -279.2448
  16   2.0000      -8.082882      -219.9464
  17   2.0000      -8.080232      -219.8743
  18   2.0000      -6.041334      -164.3931
  19   2.0000      -6.038746      -164.3226
  20   2.0000      -6.037360      -164.2849
  21   2.0000      -6.034845      -164.2165
  22   2.0000      -6.033646      -164.1839
  23   2.0000      -6.030943      -164.1103
  24   2.0000      -1.011472       -27.5235
  25   2.0000      -0.983955       -26.7748
  26   2.0000      -0.918463       -24.9927
  27   2.0000      -0.899418       -24.4744
  28   2.0000      -0.871052       -23.7025
  29   2.0000      -0.850049       -23.1310
  30   2.0000      -0.840821       -22.8799
  31   2.0000      -0.814471       -22.1629
  32   2.0000      -0.780653       -21.2427
  33   2.0000      -0.769900       -20.9500
  34   2.0000      -0.706108       -19.2142
  35   2.0000      -0.696438       -18.9511
  36   2.0000      -0.688579       -18.7372
  37   2.0000      -0.663714       -18.0606
  38   2.0000      -0.636834       -17.3291
  39   2.0000      -0.623733       -16.9726
  40   2.0000      -0.595217       -16.1967
  41   2.0000      -0.569116       -15.4864
  42   2.0000      -0.555646       -15.1199
  43   2.0000      -0.547306       -14.8930
  44   2.0000      -0.541524       -14.7356
  45   2.0000      -0.539614       -14.6836
  46   2.0000      -0.517818       -14.0905
  47   2.0000      -0.508436       -13.8353
  48   2.0000      -0.499880       -13.6024
  49   2.0000      -0.495055       -13.4711
  50   2.0000      -0.484660       -13.1883
  51   2.0000      -0.475685       -12.9440
  52   2.0000      -0.471230       -12.8228
  53   2.0000      -0.459239       -12.4965
  54   2.0000      -0.455549       -12.3961
  55   2.0000      -0.445896       -12.1334
  56   2.0000      -0.443709       -12.0739
  57   2.0000      -0.431538       -11.7427
  58   2.0000      -0.430048       -11.7022
  59   2.0000      -0.420871       -11.4525
  60   2.0000      -0.418070       -11.3763
  61   2.0000      -0.413053       -11.2397
  62   2.0000      -0.409606       -11.1460
  63   2.0000      -0.348095        -9.4721
  64   2.0000      -0.336249        -9.1498
  65   2.0000      -0.326075        -8.8730
  66   2.0000      -0.296774        -8.0756
  67   0.0000       0.035600         0.9687
  68   0.0000       0.064149         1.7456
  69   0.0000       0.109952         2.9920
  70   0.0000       0.110349         3.0027
  71   0.0000       0.125898         3.4259

MULLIKEN ATOMIC CHARGES
-----------------------
   0 S :    0.124452
   1 C :   -0.144997
   2 C :   -0.066398
   3 C :   -0.019531
   4 C :   -0.135753
   5 H :    0.054102
   6 C :    0.096521
   7 H :    0.020267
   8 H :    0.013247
   9 C :   -0.040710
  10 H :    0.035520
  11 H :    0.011121
  12 C :   -0.118249
  13 H :    0.044015
  14 H :    0.027229
  15 H :    0.036571
  16 S :    0.100663
  17 C :   -0.123276
  18 C :   -0.005851
  19 C :   -0.039163
  20 C :   -0.137103
  21 H :    0.013299
  22 C :    0.036172
  23 H :    0.024456
  24 H :    0.040450
  25 C :   -0.068148
  26 H :    0.047842
  27 H :    0.027421
  28 C :   -0.046293
  29 H :    0.019646
  30 H :    0.022230
  31 H :    0.030787
  32 H :    0.053488
  33 H :    0.065976
Sum of atomic charges:   -0.0000000

LOEWDIN ATOMIC CHARGES
----------------------
   0 S :    0.429731
   1 C :   -0.200412
   2 C :   -0.066741
   3 C :   -0.076613
   4 C :   -0.196721
   5 H :    0.052183
   6 C :   -0.031802
   7 H :    0.027497
   8 H :    0.032230
   9 C :   -0.044923
  10 H :    0.029049
  11 H :    0.019273
  12 C :   -0.080519
  13 H :    0.030322
  14 H :    0.017170
  15 H :    0.031776
  16 S :    0.394216
  17 C :   -0.163503
  18 C :   -0.061244
  19 C :   -0.053585
  20 C :   -0.206759
  21 H :    0.028254
  22 C :   -0.030909
  23 H :    0.015070
  24 H :    0.034621
  25 C :   -0.039992
  26 H :    0.034743
  27 H :    0.019280
  28 C :   -0.074567
  29 H :    0.023304
  30 H :    0.024546
  31 H :    0.025069
  32 H :    0.031027
  33 H :    0.028930

  Mayer bond orders larger than 0.100000
B(  0-S ,  1-C ) :   1.1385 B(  0-S ,  4-C ) :   1.1620 B(  1-C ,  2-C ) :   1.6083
B(  1-C , 32-H ) :   0.9690 B(  2-C ,  3-C ) :   1.2461 B(  2-C ,  6-C ) :   1.0258
B(  3-C ,  4-C ) :   1.5626 B(  3-C ,  5-H ) :   0.9821 B(  4-C , 20-C ) :   1.0215
B(  6-C ,  7-H ) :   0.9345 B(  6-C ,  8-H ) :   0.9413 B(  6-C ,  9-C ) :   1.0806
B(  9-C , 10-H ) :   0.9568 B(  9-C , 11-H ) :   0.9467 B(  9-C , 12-C ) :   1.0716
B( 12-C , 13-H ) :   0.9731 B( 12-C , 14-H ) :   0.9771 B( 12-C , 15-H ) :   0.9742
B( 16-S , 17-C ) :   1.1462 B( 16-S , 20-C ) :   1.1479 B( 17-C , 18-C ) :   1.6289
B( 17-C , 33-H ) :   0.9685 B( 18-C , 19-C ) :   1.2037 B( 18-C , 21-H ) :   0.9980
B( 19-C , 20-C ) :   1.5990 B( 19-C , 22-C ) :   1.0256 B( 22-C , 23-H ) :   0.9449
B( 22-C , 24-H ) :   0.9463 B( 22-C , 25-C ) :   1.0585 B( 25-C , 26-H ) :   0.9606
B( 25-C , 27-H ) :   0.9591 B( 25-C , 28-C ) :   1.0712 B( 28-C , 29-H ) :   0.9752
B( 28-C , 30-H ) :   0.9728 B( 28-C , 31-H ) :   0.9710

Dispersion correction           -0.015091126
FINAL SINGLE POINT ENERGY     -1339.874414463750

DIPOLE MOMENT
-------------
                                X             Y             Z
Electronic contribution:    -15.94952      13.22212     -10.24540
Nuclear contribution   :     16.11111     -13.28149      10.26409
                        -----------------------------------------
Total Dipole Moment    :      0.16159      -0.05937       0.01868
                        -----------------------------------------
Magnitude (a.u.)       :      0.17317
Magnitude (Debye)      :      0.44016

Rotational constants in cm-1:     0.020878     0.008567     0.007390
Rotational constants in MHz :   625.901130   256.842986   221.558556

                             ****ORCA TERMINATED NORMALLY****
TOTAL RUN TIME: 0 days 0 hours 0 minutes 29 seconds 218 msec
