                         Program Version 4.2.1 -  RELEASE  -
|  1> ! wB97X-D3 SP def2-SVP
|  2> %pal
|  3> nprocs 16
|  4> end
|  5>
|  6> * xyz 0 1
|  7> S 	 -43.1631 	 50.7892 	 101.735
|  8> C 	 -42.6325 	 51.903 	 102.979
|  9> C 	 -42.7473 	 51.3095 	 104.236
| 10> C 	 -43.3301 	 50.0392 	 104.195
| 11> C 	 -43.4416 	 49.4593 	 102.918
| 12> H 	 -43.6571 	 49.3684 	 105.005
| 13> C 	 -42.6208 	 52.0405 	 105.536
| 14> H 	 -43.4498 	 51.7537 	 106.178
| 15> H 	 -42.6746 	 53.1325 	 105.365
| 16> C 	 -41.217 	 51.8277 	 106.206
| 17> H 	 -40.5171 	 52.2245 	 105.51
| 18> H 	 -41.1268 	 52.44 	 107.127
| 19> C 	 -40.8108 	 50.3472 	 106.612
| 20> H 	 -41.4595 	 49.8461 	 107.309
| 21> H 	 -40.9444 	 49.731 	 105.753
| 22> H 	 -39.8373 	 50.3211 	 107.075
| 23> S 	 -45.7097 	 48.4831 	 101.832
| 24> C 	 -46.0704 	 46.8185 	 101.938
| 25> C 	 -45.0632 	 46.1634 	 102.618
| 26> C 	 -44.1027 	 47.028 	 103.195
| 27> C 	 -44.1949 	 48.2533 	 102.613
| 28> H 	 -45.1885 	 45.1968 	 102.792
| 29> C 	 -42.8995 	 46.4644 	 103.872
| 30> H 	 -42.0033 	 46.9852 	 103.544
| 31> H 	 -42.7806 	 45.4739 	 103.459
| 32> C 	 -43.0947 	 46.3017 	 105.36
| 33> H 	 -44.0588 	 45.8148 	 105.648
| 34> H 	 -42.9914 	 47.3198 	 105.781
| 35> C 	 -41.9559 	 45.4824 	 105.98
| 36> H 	 -42.1116 	 45.1458 	 107.024
| 37> H 	 -41.0858 	 46.1335 	 105.916
| 38> H 	 -41.7694 	 44.5859 	 105.478
| 39> H 	 -42.3526 	 53.0054 	 102.865
| 40> H 	 -46.9515 	 46.2512 	 101.545
| 41> *
| 42>
| 43>                          ****END OF INPUT****

CARTESIAN COORDINATES (ANGSTROEM)
---------------------------------
  S    -43.163100   50.789200  101.735000
  C    -42.632500   51.903000  102.979000
  C    -42.747300   51.309500  104.236000
  C    -43.330100   50.039200  104.195000
  C    -43.441600   49.459300  102.918000
  H    -43.657100   49.368400  105.005000
  C    -42.620800   52.040500  105.536000
  H    -43.449800   51.753700  106.178000
  H    -42.674600   53.132500  105.365000
  C    -41.217000   51.827700  106.206000
  H    -40.517100   52.224500  105.510000
  H    -41.126800   52.440000  107.127000
  C    -40.810800   50.347200  106.612000
  H    -41.459500   49.846100  107.309000
  H    -40.944400   49.731000  105.753000
  H    -39.837300   50.321100  107.075000
  S    -45.709700   48.483100  101.832000
  C    -46.070400   46.818500  101.938000
  C    -45.063200   46.163400  102.618000
  C    -44.102700   47.028000  103.195000
  C    -44.194900   48.253300  102.613000
  H    -45.188500   45.196800  102.792000
  C    -42.899500   46.464400  103.872000
  H    -42.003300   46.985200  103.544000
  H    -42.780600   45.473900  103.459000
  C    -43.094700   46.301700  105.360000
  H    -44.058800   45.814800  105.648000
  H    -42.991400   47.319800  105.781000
  C    -41.955900   45.482400  105.980000
  H    -42.111600   45.145800  107.024000
  H    -41.085800   46.133500  105.916000
  H    -41.769400   44.585900  105.478000
  H    -42.352600   53.005400  102.865000
  H    -46.951500   46.251200  101.545000

 Total Charge           Charge          ....    0
 Multiplicity           Mult            ....    1
 Number of Electrons    NEL             ....  134
 Basis Dimension        Dim             ....  322

ORBITAL ENERGIES
----------------

  NO   OCC          E(Eh)            E(eV)
   0   2.0000     -88.969807     -2420.9915
   1   2.0000     -88.964325     -2420.8423
   2   2.0000     -10.332282      -281.1557
   3   2.0000     -10.324758      -280.9509
   4   2.0000     -10.320027      -280.8222
   5   2.0000     -10.313923      -280.6561
   6   2.0000     -10.299754      -280.2706
   7   2.0000     -10.297500      -280.2092
   8   2.0000     -10.294872      -280.1377
   9   2.0000     -10.294457      -280.1264
  10   2.0000     -10.290210      -280.0108
  11   2.0000     -10.290119      -280.0084
  12   2.0000     -10.285881      -279.8930
  13   2.0000     -10.279161      -279.7102
  14   2.0000     -10.273673      -279.5609
  15   2.0000     -10.273014      -279.5429
  16   2.0000      -8.083270      -219.9570
  17   2.0000      -8.080418      -219.8793
  18   2.0000      -6.041865      -164.4075
  19   2.0000      -6.038865      -164.3259
  20   2.0000      -6.037860      -164.2985
  21   2.0000      -6.034707      -164.2127
  22   2.0000      -6.034091      -164.1960
  23   2.0000      -6.031167      -164.1164
  24   2.0000      -1.015751       -27.6400
  25   2.0000      -0.987239       -26.8641
  26   2.0000      -0.918531       -24.9945
  27   2.0000      -0.905857       -24.6496
  28   2.0000      -0.869898       -23.6711
  29   2.0000      -0.857597       -23.3364
  30   2.0000      -0.842750       -22.9324
  31   2.0000      -0.814867       -22.1736
  32   2.0000      -0.784838       -21.3565
  33   2.0000      -0.773109       -21.0374
  34   2.0000      -0.704815       -19.1790
  35   2.0000      -0.702983       -19.1292
  36   2.0000      -0.694220       -18.8907
  37   2.0000      -0.669960       -18.2305
  38   2.0000      -0.637794       -17.3553
  39   2.0000      -0.615262       -16.7421
  40   2.0000      -0.597630       -16.2624
  41   2.0000      -0.573651       -15.6098
  42   2.0000      -0.571714       -15.5571
  43   2.0000      -0.543758       -14.7964
  44   2.0000      -0.539228       -14.6731
  45   2.0000      -0.527707       -14.3596
  46   2.0000      -0.518392       -14.1062
  47   2.0000      -0.512758       -13.9529
  48   2.0000      -0.506672       -13.7872
  49   2.0000      -0.499036       -13.5795
  50   2.0000      -0.493004       -13.4153
  51   2.0000      -0.482703       -13.1350
  52   2.0000      -0.475736       -12.9454
  53   2.0000      -0.465408       -12.6644
  54   2.0000      -0.462253       -12.5786
  55   2.0000      -0.450207       -12.2508
  56   2.0000      -0.439470       -11.9586
  57   2.0000      -0.434232       -11.8161
  58   2.0000      -0.432684       -11.7739
  59   2.0000      -0.423722       -11.5301
  60   2.0000      -0.419364       -11.4115
  61   2.0000      -0.418784       -11.3957
  62   2.0000      -0.414295       -11.2735
  63   2.0000      -0.348057        -9.4711
  64   2.0000      -0.332460        -9.0467
  65   2.0000      -0.328911        -8.9501
  66   2.0000      -0.292993        -7.9727
  67   0.0000       0.024733         0.6730
  68   0.0000       0.068338         1.8596
  69   0.0000       0.112646         3.0652
  70   0.0000       0.117920         3.2088
  71   0.0000       0.125239         3.4079

MULLIKEN ATOMIC CHARGES
-----------------------
   0 S :    0.100746
   1 C :   -0.137546
   2 C :   -0.067179
   3 C :    0.010258
   4 C :   -0.168608
   5 H :    0.027375
   6 C :    0.047683
   7 H :    0.035833
   8 H :    0.025245
   9 C :   -0.073101
  10 H :    0.022713
  11 H :    0.033616
  12 C :   -0.045128
  13 H :    0.016481
  14 H :    0.029433
  15 H :    0.040135
  16 S :    0.121110
  17 C :   -0.102456
  18 C :    0.021772
  19 C :   -0.031510
  20 C :   -0.135527
  21 H :   -0.042764
  22 C :    0.045544
  23 H :    0.035269
  24 H :    0.011147
  25 C :   -0.096505
  26 H :    0.042063
  27 H :    0.031874
  28 C :   -0.022678
  29 H :    0.035416
  30 H :    0.027472
  31 H :    0.012137
  32 H :    0.080509
  33 H :    0.069171
Sum of atomic charges:   -0.0000000

LOEWDIN ATOMIC CHARGES
----------------------
   0 S :    0.390696
   1 C :   -0.205263
   2 C :   -0.077079
   3 C :   -0.055740
   4 C :   -0.189835
   5 H :    0.034547
   6 C :   -0.029271
   7 H :    0.030929
   8 H :    0.032942
   9 C :   -0.033522
  10 H :    0.018931
  11 H :    0.024041
  12 C :   -0.068389
  13 H :    0.020503
  14 H :    0.020114
  15 H :    0.028109
  16 S :    0.438330
  17 C :   -0.205149
  18 C :   -0.056385
  19 C :   -0.057230
  20 C :   -0.207841
  21 H :    0.004441
  22 C :   -0.029951
  23 H :    0.034286
  24 H :    0.029158
  25 C :   -0.041241
  26 H :    0.028996
  27 H :    0.023882
  28 C :   -0.063617
  29 H :    0.029079
  30 H :    0.026670
  31 H :    0.012674
  32 H :    0.049450
  33 H :    0.042735

  Mayer bond orders larger than 0.100000
B(  0-S ,  1-C ) :   1.1555 B(  0-S ,  4-C ) :   1.1413 B(  1-C ,  2-C ) :   1.5784
B(  1-C ,  4-C ) :   0.1052 B(  1-C , 32-H ) :   0.9545 B(  2-C ,  3-C ) :   1.2633
B(  2-C ,  6-C ) :   1.0243 B(  3-C ,  4-C ) :   1.5489 B(  3-C ,  5-H ) :   0.9818
B(  4-C , 20-C ) :   1.0384 B(  6-C ,  7-H ) :   0.9494 B(  6-C ,  8-H ) :   0.9440
B(  6-C ,  9-C ) :   1.0617 B(  9-C , 10-H ) :   0.9571 B(  9-C , 11-H ) :   0.9600
B(  9-C , 12-C ) :   1.0719 B( 12-C , 13-H ) :   0.9760 B( 12-C , 14-H ) :   0.9735
B( 12-C , 15-H ) :   0.9747 B( 16-S , 17-C ) :   1.1611 B( 16-S , 20-C ) :   1.1568
B( 17-C , 18-C ) :   1.6076 B( 17-C , 33-H ) :   0.9612 B( 18-C , 19-C ) :   1.2424
B( 18-C , 21-H ) :   1.0028 B( 19-C , 20-C ) :   1.5831 B( 19-C , 22-C ) :   1.0466
B( 22-C , 23-H ) :   0.9443 B( 22-C , 24-H ) :   0.9435 B( 22-C , 25-C ) :   1.0438
B( 25-C , 26-H ) :   0.9599 B( 25-C , 27-H ) :   0.9506 B( 25-C , 28-C ) :   1.0805
B( 28-C , 29-H ) :   0.9745 B( 28-C , 30-H ) :   0.9739 B( 28-C , 31-H ) :   0.9751

Dispersion correction           -0.015033924
FINAL SINGLE POINT ENERGY     -1339.857561651266

DIPOLE MOMENT
-------------
                                X             Y             Z
Electronic contribution:    -15.87734       6.85493     -25.87971
Nuclear contribution   :     15.90231      -7.03856      26.46161
                        -----------------------------------------
Total Dipole Moment    :      0.02497      -0.18362       0.58190
                        -----------------------------------------
Magnitude (a.u.)       :      0.61069
Magnitude (Debye)      :      1.55226

Rotational constants in cm-1:     0.016447     0.010801     0.007066
Rotational constants in MHz :   493.070771   323.793838   211.832808

                             ****ORCA TERMINATED NORMALLY****
TOTAL RUN TIME: 0 days 0 hours 0 minutes 29 seconds 916 msec
