                         Program Version 4.2.1 -  RELEASE  -
|  1> ! wB97X-D3 SP def2-SVP
|  2> %pal
|  3> nprocs 16
|  4> end
|  5>
|  6> * xyz 0 1
|  7> S 	 0.369754 	 -0.482575 	 77.8431
|  8> C 	 0.71649 	 -1.6548 	 79.0543
|  9> C 	 1.21365 	 -2.8575 	 78.4638
| 10> C 	 1.44091 	 -2.74698 	 77.0607
| 11> C 	 1.14567 	 -1.47508 	 76.5998
| 12> H 	 1.9156 	 -3.44085 	 76.4018
| 13> C 	 1.53981 	 -4.10034 	 79.2103
| 14> H 	 2.2167 	 -3.88893 	 80.0148
| 15> H 	 2.05978 	 -4.7572 	 78.5198
| 16> C 	 0.356457 	 -4.92097 	 79.7673
| 17> H 	 0.778886 	 -5.9104 	 80.0647
| 18> H 	 -0.0395022 	 -4.59171 	 80.7715
| 19> C 	 -0.926735 	 -4.93112 	 78.9126
| 20> H 	 -1.27773 	 -3.8557 	 78.8378
| 21> H 	 -0.645204 	 -5.37219 	 77.8999
| 22> H 	 -1.71414 	 -5.55887 	 79.4484
| 23> S 	 2.50565 	 -1.58611 	 74.2651
| 24> C 	 2.06546 	 -0.493884 	 73.0036
| 25> C 	 0.959392 	 0.300175 	 73.2897
| 26> C 	 0.403519 	 -0.0266666 	 74.5429
| 27> C 	 1.1641 	 -0.9826 	 75.2672
| 28> H 	 0.590855 	 1.01144 	 72.6188
| 29> C 	 -0.876645 	 0.658225 	 75.0462
| 30> H 	 -1.36799 	 0.0632022 	 75.8098
| 31> H 	 -1.62623 	 0.619075 	 74.2186
| 32> C 	 -0.745449 	 2.03825 	 75.619
| 33> H 	 0.167253 	 2.49647 	 75.1434
| 34> H 	 -0.488456 	 1.9459 	 76.6973
| 35> C 	 -1.90889 	 3.04303 	 75.5178
| 36> H 	 -2.85016 	 2.62584 	 75.8452
| 37> H 	 -2.00285 	 3.30904 	 74.4761
| 38> H 	 -1.78393 	 3.8954 	 76.1949
| 39> H 	 0.519135 	 -1.46951 	 80.0965
| 40> H 	 2.83388 	 -0.153542 	 72.2716
| 41> *
| 42>
| 43>                          ****END OF INPUT****

CARTESIAN COORDINATES (ANGSTROEM)
---------------------------------
  S      0.369754   -0.482575   77.843100
  C      0.716490   -1.654800   79.054300
  C      1.213650   -2.857500   78.463800
  C      1.440910   -2.746980   77.060700
  C      1.145670   -1.475080   76.599800
  H      1.915600   -3.440850   76.401800
  C      1.539810   -4.100340   79.210300
  H      2.216700   -3.888930   80.014800
  H      2.059780   -4.757200   78.519800
  C      0.356457   -4.920970   79.767300
  H      0.778886   -5.910400   80.064700
  H     -0.039502   -4.591710   80.771500
  C     -0.926735   -4.931120   78.912600
  H     -1.277730   -3.855700   78.837800
  H     -0.645204   -5.372190   77.899900
  H     -1.714140   -5.558870   79.448400
  S      2.505650   -1.586110   74.265100
  C      2.065460   -0.493884   73.003600
  C      0.959392    0.300175   73.289700
  C      0.403519   -0.026667   74.542900
  C      1.164100   -0.982600   75.267200
  H      0.590855    1.011440   72.618800
  C     -0.876645    0.658225   75.046200
  H     -1.367990    0.063202   75.809800
  H     -1.626230    0.619075   74.218600
  C     -0.745449    2.038250   75.619000
  H      0.167253    2.496470   75.143400
  H     -0.488456    1.945900   76.697300
  C     -1.908890    3.043030   75.517800
  H     -2.850160    2.625840   75.845200
  H     -2.002850    3.309040   74.476100
  H     -1.783930    3.895400   76.194900
  H      0.519135   -1.469510   80.096500
  H      2.833880   -0.153542   72.271600

 Total Charge           Charge          ....    0
 Multiplicity           Mult            ....    1
 Number of Electrons    NEL             ....  134
 Basis Dimension        Dim             ....  322

ORBITAL ENERGIES
----------------

  NO   OCC          E(Eh)            E(eV)
   0   2.0000     -88.970038     -2420.9978
   1   2.0000     -88.968612     -2420.9590
   2   2.0000     -10.330900      -281.1181
   3   2.0000     -10.330531      -281.1080
   4   2.0000     -10.317692      -280.7587
   5   2.0000     -10.315607      -280.7019
   6   2.0000     -10.308333      -280.5040
   7   2.0000     -10.305958      -280.4394
   8   2.0000     -10.295177      -280.1460
   9   2.0000     -10.292966      -280.0858
  10   2.0000     -10.291177      -280.0372
  11   2.0000     -10.290185      -280.0102
  12   2.0000     -10.288390      -279.9613
  13   2.0000     -10.287593      -279.9396
  14   2.0000     -10.284907      -279.8666
  15   2.0000     -10.276981      -279.6509
  16   2.0000      -8.084273      -219.9843
  17   2.0000      -8.083375      -219.9598
  18   2.0000      -6.042741      -164.4313
  19   2.0000      -6.041783      -164.4053
  20   2.0000      -6.038777      -164.3235
  21   2.0000      -6.037914      -164.3000
  22   2.0000      -6.035205      -164.2263
  23   2.0000      -6.034228      -164.1997
  24   2.0000      -1.008454       -27.4414
  25   2.0000      -0.983491       -26.7622
  26   2.0000      -0.910903       -24.7869
  27   2.0000      -0.907952       -24.7066
  28   2.0000      -0.872208       -23.7340
  29   2.0000      -0.853239       -23.2178
  30   2.0000      -0.847139       -23.0518
  31   2.0000      -0.810555       -22.0563
  32   2.0000      -0.786565       -21.4035
  33   2.0000      -0.768558       -20.9135
  34   2.0000      -0.703354       -19.1392
  35   2.0000      -0.695328       -18.9208
  36   2.0000      -0.686654       -18.6848
  37   2.0000      -0.667568       -18.1655
  38   2.0000      -0.643317       -17.5055
  39   2.0000      -0.610898       -16.6234
  40   2.0000      -0.598515       -16.2864
  41   2.0000      -0.568442       -15.4681
  42   2.0000      -0.562553       -15.3079
  43   2.0000      -0.552247       -15.0274
  44   2.0000      -0.540517       -14.7082
  45   2.0000      -0.520016       -14.1504
  46   2.0000      -0.519306       -14.1310
  47   2.0000      -0.513786       -13.9808
  48   2.0000      -0.508384       -13.8338
  49   2.0000      -0.496132       -13.5004
  50   2.0000      -0.489856       -13.3297
  51   2.0000      -0.475968       -12.9518
  52   2.0000      -0.474593       -12.9143
  53   2.0000      -0.467713       -12.7271
  54   2.0000      -0.463740       -12.6190
  55   2.0000      -0.452403       -12.3105
  56   2.0000      -0.442344       -12.0368
  57   2.0000      -0.435150       -11.8410
  58   2.0000      -0.429250       -11.6805
  59   2.0000      -0.422277       -11.4907
  60   2.0000      -0.417200       -11.3526
  61   2.0000      -0.404669       -11.0116
  62   2.0000      -0.399036       -10.8583
  63   2.0000      -0.361662        -9.8413
  64   2.0000      -0.337133        -9.1739
  65   2.0000      -0.331514        -9.0209
  66   2.0000      -0.274500        -7.4695
  67   0.0000       0.015312         0.4167
  68   0.0000       0.068079         1.8525
  69   0.0000       0.100317         2.7298
  70   0.0000       0.113232         3.0812
  71   0.0000       0.129198         3.5156

MULLIKEN ATOMIC CHARGES
-----------------------
   0 S :    0.096084
   1 C :   -0.103402
   2 C :   -0.110796
   3 C :    0.012838
   4 C :   -0.118661
   5 H :    0.014447
   6 C :    0.112330
   7 H :    0.034309
   8 H :    0.014400
   9 C :   -0.120557
  10 H :    0.030323
  11 H :    0.020107
  12 C :   -0.083913
  13 H :    0.062123
  14 H :    0.042010
  15 H :    0.050374
  16 S :    0.094155
  17 C :   -0.096341
  18 C :   -0.020897
  19 C :   -0.052864
  20 C :   -0.135140
  21 H :    0.003846
  22 C :    0.047697
  23 H :    0.021361
  24 H :    0.029240
  25 C :   -0.101478
  26 H :    0.031966
  27 H :    0.032892
  28 C :   -0.026714
  29 H :    0.020882
  30 H :    0.032549
  31 H :    0.037834
  32 H :    0.049316
  33 H :    0.079683
Sum of atomic charges:    0.0000000

LOEWDIN ATOMIC CHARGES
----------------------
   0 S :    0.438675
   1 C :   -0.211492
   2 C :   -0.055052
   3 C :   -0.066896
   4 C :   -0.180035
   5 H :    0.027351
   6 C :   -0.035535
   7 H :    0.035266
   8 H :    0.030078
   9 C :   -0.054536
  10 H :    0.024566
  11 H :    0.021294
  12 C :   -0.078338
  13 H :    0.036039
  14 H :    0.027891
  15 H :    0.033799
  16 S :    0.410085
  17 C :   -0.203588
  18 C :   -0.058670
  19 C :   -0.056303
  20 C :   -0.184522
  21 H :    0.025776
  22 C :   -0.046804
  23 H :    0.020268
  24 H :    0.034513
  25 C :   -0.055018
  26 H :    0.026278
  27 H :    0.016854
  28 C :   -0.061905
  29 H :    0.021307
  30 H :    0.023143
  31 H :    0.031706
  32 H :    0.025492
  33 H :    0.038313

  Mayer bond orders larger than 0.100000
B(  0-S ,  1-C ) :   1.1500 B(  0-S ,  4-C ) :   1.1545 B(  1-C ,  2-C ) :   1.5451
B(  1-C , 32-H ) :   0.9784 B(  2-C ,  3-C ) :   1.2725 B(  2-C ,  6-C ) :   1.0394
B(  3-C ,  4-C ) :   1.5237 B(  3-C ,  5-H ) :   0.9882 B(  4-C , 20-C ) :   1.0973
B(  6-C ,  7-H ) :   0.9347 B(  6-C ,  8-H ) :   0.9369 B(  6-C ,  9-C ) :   1.0589
B(  9-C , 10-H ) :   0.9586 B(  9-C , 11-H ) :   0.9548 B(  9-C , 12-C ) :   1.0762
B( 12-C , 13-H ) :   0.9605 B( 12-C , 14-H ) :   0.9778 B( 12-C , 15-H ) :   0.9730
B( 16-S , 17-C ) :   1.1665 B( 16-S , 20-C ) :   1.1420 B( 17-C , 18-C ) :   1.5899
B( 17-C , 20-C ) :   0.1010 B( 17-C , 33-H ) :   0.9541 B( 18-C , 19-C ) :   1.2662
B( 18-C , 21-H ) :   0.9995 B( 19-C , 20-C ) :   1.5385 B( 19-C , 22-C ) :   1.0435
B( 22-C , 23-H ) :   0.9270 B( 22-C , 24-H ) :   0.9382 B( 22-C , 25-C ) :   1.0460
B( 25-C , 26-H ) :   0.9627 B( 25-C , 27-H ) :   0.9486 B( 25-C , 28-C ) :   1.0832
B( 28-C , 29-H ) :   0.9744 B( 28-C , 30-H ) :   0.9765 B( 28-C , 31-H ) :   0.9732

Dispersion correction           -0.014479492
FINAL SINGLE POINT ENERGY     -1339.875971876096

DIPOLE MOMENT
-------------
                                X             Y             Z
Electronic contribution:     13.82410       0.93832      -8.72849
Nuclear contribution   :    -13.92630      -0.88044       8.91206
                        -----------------------------------------
Total Dipole Moment    :     -0.10220       0.05788       0.18357
                        -----------------------------------------
Magnitude (a.u.)       :      0.21793
Magnitude (Debye)      :      0.55393

Rotational constants in cm-1:     0.020369     0.008527     0.006624
Rotational constants in MHz :   610.660750   255.622979   198.595135

                             ****ORCA TERMINATED NORMALLY****
TOTAL RUN TIME: 0 days 0 hours 0 minutes 33 seconds 139 msec
