                         Program Version 4.2.1 -  RELEASE  -
|  1> ! wB97X-D3 SP def2-SVP
|  2> %pal
|  3> nprocs 16
|  4> end
|  5>
|  6> * xyz 0 1
|  7> S 	 52.6934 	 20.8841 	 47.5937
|  8> C 	 51.8051 	 21.4325 	 46.1877
|  9> C 	 52.4424 	 20.9817 	 44.9894
| 10> C 	 53.6243 	 20.1701 	 45.2688
| 11> C 	 53.9267 	 20.0873 	 46.6111
| 12> H 	 54.2509 	 19.7893 	 44.5802
| 13> C 	 52.1147 	 21.3187 	 43.5954
| 14> H 	 52.9849 	 21.7296 	 43.0983
| 15> H 	 51.4388 	 22.192 	 43.5927
| 16> C 	 51.3594 	 20.2088 	 42.7778
| 17> H 	 51.4835 	 20.2859 	 41.6966
| 18> H 	 51.7572 	 19.2645 	 43.1207
| 19> C 	 49.8296 	 20.0456 	 43.0139
| 20> H 	 49.3948 	 19.1574 	 42.549
| 21> H 	 49.7443 	 20.0079 	 44.0506
| 22> H 	 49.2259 	 20.9073 	 42.6148
| 23> S 	 56.5306 	 20.0726 	 47.599
| 24> C 	 57.1304 	 18.5657 	 48.2159
| 25> C 	 56.2025 	 17.5569 	 48.1988
| 26> C 	 54.9694 	 17.9901 	 47.6622
| 27> C 	 54.9545 	 19.2514 	 47.2231
| 28> H 	 56.4051 	 16.5278 	 48.4735
| 29> C 	 53.768 	 16.9581 	 47.4549
| 30> H 	 53.0309 	 17.4108 	 46.7484
| 31> H 	 53.3575 	 16.8405 	 48.4255
| 32> C 	 54.1022 	 15.682 	 46.7127
| 33> H 	 54.8951 	 15.2795 	 47.3138
| 34> H 	 54.5079 	 15.7747 	 45.7185
| 35> C 	 52.937 	 14.6598 	 46.7143
| 36> H 	 53.1704 	 13.8007 	 46.0338
| 37> H 	 52.0621 	 15.119 	 46.2386
| 38> H 	 52.8628 	 14.2359 	 47.6417
| 39> H 	 50.8636 	 21.9584 	 46.3602
| 40> H 	 58.1829 	 18.4232 	 48.4476
| 41> *
| 42>
| 43>                          ****END OF INPUT****

CARTESIAN COORDINATES (ANGSTROEM)
---------------------------------
  S     52.693400   20.884100   47.593700
  C     51.805100   21.432500   46.187700
  C     52.442400   20.981700   44.989400
  C     53.624300   20.170100   45.268800
  C     53.926700   20.087300   46.611100
  H     54.250900   19.789300   44.580200
  C     52.114700   21.318700   43.595400
  H     52.984900   21.729600   43.098300
  H     51.438800   22.192000   43.592700
  C     51.359400   20.208800   42.777800
  H     51.483500   20.285900   41.696600
  H     51.757200   19.264500   43.120700
  C     49.829600   20.045600   43.013900
  H     49.394800   19.157400   42.549000
  H     49.744300   20.007900   44.050600
  H     49.225900   20.907300   42.614800
  S     56.530600   20.072600   47.599000
  C     57.130400   18.565700   48.215900
  C     56.202500   17.556900   48.198800
  C     54.969400   17.990100   47.662200
  C     54.954500   19.251400   47.223100
  H     56.405100   16.527800   48.473500
  C     53.768000   16.958100   47.454900
  H     53.030900   17.410800   46.748400
  H     53.357500   16.840500   48.425500
  C     54.102200   15.682000   46.712700
  H     54.895100   15.279500   47.313800
  H     54.507900   15.774700   45.718500
  C     52.937000   14.659800   46.714300
  H     53.170400   13.800700   46.033800
  H     52.062100   15.119000   46.238600
  H     52.862800   14.235900   47.641700
  H     50.863600   21.958400   46.360200
  H     58.182900   18.423200   48.447600

 Total Charge           Charge          ....    0
 Multiplicity           Mult            ....    1
 Number of Electrons    NEL             ....  134
 Basis Dimension        Dim             ....  322

ORBITAL ENERGIES
----------------

  NO   OCC          E(Eh)            E(eV)
   0   2.0000     -88.964747     -2420.8538
   1   2.0000     -88.961200     -2420.7573
   2   2.0000     -10.328364      -281.0491
   3   2.0000     -10.323741      -280.9233
   4   2.0000     -10.322874      -280.8997
   5   2.0000     -10.317608      -280.7564
   6   2.0000     -10.309224      -280.5283
   7   2.0000     -10.300849      -280.3004
   8   2.0000     -10.292579      -280.0753
   9   2.0000     -10.292539      -280.0742
  10   2.0000     -10.291439      -280.0443
  11   2.0000     -10.290248      -280.0119
  12   2.0000     -10.288449      -279.9629
  13   2.0000     -10.281821      -279.7826
  14   2.0000     -10.276525      -279.6384
  15   2.0000     -10.276051      -279.6256
  16   2.0000      -8.079263      -219.8479
  17   2.0000      -8.075815      -219.7541
  18   2.0000      -6.037730      -164.2950
  19   2.0000      -6.034258      -164.2005
  20   2.0000      -6.033643      -164.1838
  21   2.0000      -6.030483      -164.0978
  22   2.0000      -6.030245      -164.0913
  23   2.0000      -6.026515      -163.9898
  24   2.0000      -1.002875       -27.2896
  25   2.0000      -0.980395       -26.6779
  26   2.0000      -0.908232       -24.7143
  27   2.0000      -0.907493       -24.6941
  28   2.0000      -0.866970       -23.5915
  29   2.0000      -0.848968       -23.1016
  30   2.0000      -0.848629       -23.0924
  31   2.0000      -0.813689       -22.1416
  32   2.0000      -0.783778       -21.3277
  33   2.0000      -0.770670       -20.9710
  34   2.0000      -0.704271       -19.1642
  35   2.0000      -0.698251       -19.0004
  36   2.0000      -0.691809       -18.8251
  37   2.0000      -0.661663       -18.0048
  38   2.0000      -0.652783       -17.7631
  39   2.0000      -0.619560       -16.8591
  40   2.0000      -0.598049       -16.2737
  41   2.0000      -0.575575       -15.6622
  42   2.0000      -0.570587       -15.5265
  43   2.0000      -0.548849       -14.9350
  44   2.0000      -0.537276       -14.6200
  45   2.0000      -0.523873       -14.2553
  46   2.0000      -0.517019       -14.0688
  47   2.0000      -0.513948       -13.9852
  48   2.0000      -0.507731       -13.8161
  49   2.0000      -0.496337       -13.5060
  50   2.0000      -0.493940       -13.4408
  51   2.0000      -0.474984       -12.9250
  52   2.0000      -0.472159       -12.8481
  53   2.0000      -0.467199       -12.7131
  54   2.0000      -0.461172       -12.5491
  55   2.0000      -0.451999       -12.2995
  56   2.0000      -0.444333       -12.0909
  57   2.0000      -0.439425       -11.9574
  58   2.0000      -0.435461       -11.8495
  59   2.0000      -0.422413       -11.4944
  60   2.0000      -0.409859       -11.1528
  61   2.0000      -0.407882       -11.0990
  62   2.0000      -0.405221       -11.0266
  63   2.0000      -0.338320        -9.2061
  64   2.0000      -0.331033        -9.0079
  65   2.0000      -0.320288        -8.7155
  66   2.0000      -0.312063        -8.4917
  67   0.0000       0.044675         1.2157
  68   0.0000       0.053741         1.4624
  69   0.0000       0.108704         2.9580
  70   0.0000       0.118895         3.2353
  71   0.0000       0.124236         3.3806

MULLIKEN ATOMIC CHARGES
-----------------------
   0 S :    0.110453
   1 C :   -0.132011
   2 C :   -0.093971
   3 C :    0.093733
   4 C :   -0.151574
   5 H :   -0.030544
   6 C :    0.060313
   7 H :    0.037896
   8 H :    0.015219
   9 C :   -0.065722
  10 H :    0.032705
  11 H :    0.020131
  12 C :   -0.056086
  13 H :    0.040158
  14 H :    0.018044
  15 H :    0.032619
  16 S :    0.091396
  17 C :   -0.084422
  18 C :   -0.036740
  19 C :    0.001884
  20 C :   -0.214031
  21 H :    0.020963
  22 C :    0.079423
  23 H :    0.035371
  24 H :    0.032182
  25 C :   -0.089550
  26 H :    0.006121
  27 H :    0.033561
  28 C :   -0.021289
  29 H :    0.028925
  30 H :    0.037170
  31 H :    0.020590
  32 H :    0.065985
  33 H :    0.061099
Sum of atomic charges:   -0.0000000

LOEWDIN ATOMIC CHARGES
----------------------
   0 S :    0.402936
   1 C :   -0.197391
   2 C :   -0.061512
   3 C :   -0.038051
   4 C :   -0.192124
   5 H :    0.013728
   6 C :   -0.040570
   7 H :    0.036477
   8 H :    0.031882
   9 C :   -0.035930
  10 H :    0.022463
  11 H :    0.020087
  12 C :   -0.063711
  13 H :    0.028667
  14 H :    0.013856
  15 H :    0.026166
  16 S :    0.376369
  17 C :   -0.175412
  18 C :   -0.078310
  19 C :   -0.050882
  20 C :   -0.186247
  21 H :    0.031746
  22 C :   -0.020889
  23 H :    0.033706
  24 H :    0.027884
  25 C :   -0.042086
  26 H :    0.013663
  27 H :    0.024807
  28 C :   -0.055481
  29 H :    0.032397
  30 H :    0.027917
  31 H :    0.013256
  32 H :    0.030969
  33 H :    0.029619

  Mayer bond orders larger than 0.100000
B(  0-S ,  1-C ) :   1.1566 B(  0-S ,  4-C ) :   1.1473 B(  1-C ,  2-C ) :   1.5698
B(  1-C , 32-H ) :   0.9712 B(  2-C ,  3-C ) :   1.2258 B(  2-C ,  6-C ) :   1.0463
B(  3-C ,  4-C ) :   1.5946 B(  3-C ,  5-H ) :   1.0090 B(  4-C , 20-C ) :   0.9960
B(  6-C ,  7-H ) :   0.9420 B(  6-C ,  8-H ) :   0.9421 B(  6-C ,  9-C ) :   1.0402
B(  9-C , 10-H ) :   0.9611 B(  9-C , 11-H ) :   0.9624 B(  9-C , 12-C ) :   1.0758
B( 12-C , 13-H ) :   0.9756 B( 12-C , 14-H ) :   0.9785 B( 12-C , 15-H ) :   0.9755
B( 16-S , 17-C ) :   1.1637 B( 16-S , 20-C ) :   1.1104 B( 17-C , 18-C ) :   1.6215
B( 17-C , 33-H ) :   0.9634 B( 18-C , 19-C ) :   1.2166 B( 18-C , 21-H ) :   0.9898
B( 19-C , 20-C ) :   1.6968 B( 19-C , 22-C ) :   1.0037 B( 22-C , 23-H ) :   0.9443
B( 22-C , 24-H ) :   0.9380 B( 22-C , 25-C ) :   1.0591 B( 25-C , 26-H ) :   0.9539
B( 25-C , 27-H ) :   0.9592 B( 25-C , 28-C ) :   1.0878 B( 28-C , 29-H ) :   0.9731
B( 28-C , 30-H ) :   0.9755 B( 28-C , 31-H ) :   0.9772

Dispersion correction           -0.014082982
FINAL SINGLE POINT ENERGY     -1339.863721054488

DIPOLE MOMENT
-------------
                                X             Y             Z
Electronic contribution:     16.47865      16.65624      16.91550
Nuclear contribution   :    -16.63796     -17.14810     -17.30866
                        -----------------------------------------
Total Dipole Moment    :     -0.15931      -0.49187      -0.39316
                        -----------------------------------------
Magnitude (a.u.)       :      0.64953
Magnitude (Debye)      :      1.65096

Rotational constants in cm-1:     0.017062     0.008711     0.006726
Rotational constants in MHz :   511.512746   261.149445   201.640026

                             ****ORCA TERMINATED NORMALLY****
TOTAL RUN TIME: 0 days 0 hours 0 minutes 27 seconds 616 msec
