                         Program Version 4.2.1 -  RELEASE  -
|  1> ! wB97X-D3 SP def2-SVP
|  2> %pal
|  3> nprocs 16
|  4> end
|  5>
|  6> * xyz 0 1
|  7> S 	 -62.8505 	 51.8284 	 122.596
|  8> C 	 -63.3757 	 50.4519 	 123.49
|  9> C 	 -63.3503 	 50.7614 	 124.828
| 10> C 	 -62.9992 	 52.1192 	 125.106
| 11> C 	 -62.6131 	 52.7886 	 123.97
| 12> H 	 -62.9412 	 52.6048 	 126.081
| 13> C 	 -63.9449 	 49.8206 	 125.909
| 14> H 	 -63.4 	 50.0362 	 126.808
| 15> H 	 -63.851 	 48.7754 	 125.695
| 16> C 	 -65.4658 	 50.0056 	 126.279
| 17> H 	 -66.0519 	 49.7703 	 125.46
| 18> H 	 -65.71 	 49.2494 	 127.066
| 19> C 	 -65.998 	 51.4096 	 126.591
| 20> H 	 -65.8613 	 52.1039 	 125.693
| 21> H 	 -67.0491 	 51.4114 	 126.806
| 22> H 	 -65.414 	 51.9958 	 127.389
| 23> S 	 -60.1568 	 53.8847 	 123.501
| 24> C 	 -59.9982 	 55.6218 	 123.808
| 25> C 	 -61.2247 	 56.2539 	 123.547
| 26> C 	 -62.2845 	 55.3492 	 123.756
| 27> C 	 -61.8761 	 54.0136 	 123.837
| 28> H 	 -61.2135 	 57.3307 	 123.425
| 29> C 	 -63.7246 	 55.8724 	 123.954
| 30> H 	 -63.7059 	 56.9668 	 124.087
| 31> H 	 -64.0561 	 55.4357 	 124.945
| 32> C 	 -64.6937 	 55.467 	 122.89
| 33> H 	 -64.7447 	 54.3629 	 122.726
| 34> H 	 -64.4209 	 55.916 	 121.927
| 35> C 	 -66.1619 	 55.9507 	 123.143
| 36> H 	 -66.753 	 55.7031 	 122.195
| 37> H 	 -66.3348 	 57.0193 	 123.525
| 38> H 	 -66.6008 	 55.3312 	 123.927
| 39> H 	 -63.6962 	 49.5086 	 123.187
| 40> H 	 -59.0367 	 56.1291 	 123.756
| 41> *
| 42>
| 43>                          ****END OF INPUT****

CARTESIAN COORDINATES (ANGSTROEM)
---------------------------------
  S    -62.850500   51.828400  122.596000
  C    -63.375700   50.451900  123.490000
  C    -63.350300   50.761400  124.828000
  C    -62.999200   52.119200  125.106000
  C    -62.613100   52.788600  123.970000
  H    -62.941200   52.604800  126.081000
  C    -63.944900   49.820600  125.909000
  H    -63.400000   50.036200  126.808000
  H    -63.851000   48.775400  125.695000
  C    -65.465800   50.005600  126.279000
  H    -66.051900   49.770300  125.460000
  H    -65.710000   49.249400  127.066000
  C    -65.998000   51.409600  126.591000
  H    -65.861300   52.103900  125.693000
  H    -67.049100   51.411400  126.806000
  H    -65.414000   51.995800  127.389000
  S    -60.156800   53.884700  123.501000
  C    -59.998200   55.621800  123.808000
  C    -61.224700   56.253900  123.547000
  C    -62.284500   55.349200  123.756000
  C    -61.876100   54.013600  123.837000
  H    -61.213500   57.330700  123.425000
  C    -63.724600   55.872400  123.954000
  H    -63.705900   56.966800  124.087000
  H    -64.056100   55.435700  124.945000
  C    -64.693700   55.467000  122.890000
  H    -64.744700   54.362900  122.726000
  H    -64.420900   55.916000  121.927000
  C    -66.161900   55.950700  123.143000
  H    -66.753000   55.703100  122.195000
  H    -66.334800   57.019300  123.525000
  H    -66.600800   55.331200  123.927000
  H    -63.696200   49.508600  123.187000
  H    -59.036700   56.129100  123.756000

 Total Charge           Charge          ....    0
 Multiplicity           Mult            ....    1
 Number of Electrons    NEL             ....  134
 Basis Dimension        Dim             ....  322

ORBITAL ENERGIES
----------------

  NO   OCC          E(Eh)            E(eV)
   0   2.0000     -88.966405     -2420.8989
   1   2.0000     -88.964664     -2420.8516
   2   2.0000     -10.323739      -280.9232
   3   2.0000     -10.322300      -280.8841
   4   2.0000     -10.320608      -280.8380
   5   2.0000     -10.307080      -280.4699
   6   2.0000     -10.306400      -280.4514
   7   2.0000     -10.300425      -280.2888
   8   2.0000     -10.297440      -280.2076
   9   2.0000     -10.296456      -280.1808
  10   2.0000     -10.293787      -280.1082
  11   2.0000     -10.292113      -280.0626
  12   2.0000     -10.287006      -279.9237
  13   2.0000     -10.286191      -279.9015
  14   2.0000     -10.286109      -279.8993
  15   2.0000     -10.284720      -279.8615
  16   2.0000      -8.082281      -219.9300
  17   2.0000      -8.079221      -219.8468
  18   2.0000      -6.040681      -164.3753
  19   2.0000      -6.037638      -164.2925
  20   2.0000      -6.036428      -164.2595
  21   2.0000      -6.034110      -164.1965
  22   2.0000      -6.033254      -164.1732
  23   2.0000      -6.029704      -164.0766
  24   2.0000      -1.015834       -27.6422
  25   2.0000      -0.987697       -26.8766
  26   2.0000      -0.905985       -24.6531
  27   2.0000      -0.904352       -24.6087
  28   2.0000      -0.871696       -23.7201
  29   2.0000      -0.845764       -23.0144
  30   2.0000      -0.844423       -22.9779
  31   2.0000      -0.814855       -22.1733
  32   2.0000      -0.783134       -21.3102
  33   2.0000      -0.768723       -20.9180
  34   2.0000      -0.706152       -19.2154
  35   2.0000      -0.697952       -18.9922
  36   2.0000      -0.685988       -18.6667
  37   2.0000      -0.662314       -18.0225
  38   2.0000      -0.645952       -17.5772
  39   2.0000      -0.614282       -16.7155
  40   2.0000      -0.591624       -16.0989
  41   2.0000      -0.573453       -15.6045
  42   2.0000      -0.562103       -15.2956
  43   2.0000      -0.546179       -14.8623
  44   2.0000      -0.538347       -14.6492
  45   2.0000      -0.528013       -14.3680
  46   2.0000      -0.513622       -13.9764
  47   2.0000      -0.509927       -13.8758
  48   2.0000      -0.506493       -13.7824
  49   2.0000      -0.497029       -13.5248
  50   2.0000      -0.486501       -13.2384
  51   2.0000      -0.477963       -13.0060
  52   2.0000      -0.474201       -12.9037
  53   2.0000      -0.465384       -12.6637
  54   2.0000      -0.458161       -12.4672
  55   2.0000      -0.443134       -12.0583
  56   2.0000      -0.441408       -12.0113
  57   2.0000      -0.436459       -11.8766
  58   2.0000      -0.435069       -11.8388
  59   2.0000      -0.427634       -11.6365
  60   2.0000      -0.416277       -11.3275
  61   2.0000      -0.408771       -11.1232
  62   2.0000      -0.407013       -11.0754
  63   2.0000      -0.339310        -9.2331
  64   2.0000      -0.326479        -8.8839
  65   2.0000      -0.325017        -8.8442
  66   2.0000      -0.301904        -8.2152
  67   0.0000       0.033611         0.9146
  68   0.0000       0.050084         1.3628
  69   0.0000       0.107427         2.9232
  70   0.0000       0.121857         3.3159
  71   0.0000       0.124067         3.3760

MULLIKEN ATOMIC CHARGES
-----------------------
   0 S :    0.129301
   1 C :   -0.074833
   2 C :   -0.110205
   3 C :    0.048924
   4 C :   -0.192483
   5 H :    0.016426
   6 C :    0.076542
   7 H :    0.021128
   8 H :    0.021345
   9 C :   -0.051897
  10 H :    0.009040
  11 H :    0.038682
  12 C :   -0.097697
  13 H :    0.045259
  14 H :    0.038719
  15 H :    0.031058
  16 S :    0.115791
  17 C :   -0.106515
  18 C :   -0.042066
  19 C :   -0.014729
  20 C :   -0.158544
  21 H :    0.028317
  22 C :    0.084599
  23 H :    0.021257
  24 H :    0.033584
  25 C :   -0.086967
  26 H :    0.044925
  27 H :    0.027360
  28 C :   -0.095991
  29 H :    0.049401
  30 H :    0.044924
  31 H :    0.028034
  32 H :    0.015990
  33 H :    0.061322
Sum of atomic charges:    0.0000000

LOEWDIN ATOMIC CHARGES
----------------------
   0 S :    0.447870
   1 C :   -0.199502
   2 C :   -0.063414
   3 C :   -0.062032
   4 C :   -0.219045
   5 H :    0.035087
   6 C :   -0.025039
   7 H :    0.026101
   8 H :    0.027508
   9 C :   -0.039118
  10 H :    0.014150
  11 H :    0.029709
  12 C :   -0.078170
  13 H :    0.033233
  14 H :    0.024047
  15 H :    0.024428
  16 S :    0.400140
  17 C :   -0.173074
  18 C :   -0.066913
  19 C :   -0.049281
  20 C :   -0.208275
  21 H :    0.033729
  22 C :   -0.033532
  23 H :    0.030139
  24 H :    0.038410
  25 C :   -0.048734
  26 H :    0.028759
  27 H :    0.022996
  28 C :   -0.081722
  29 H :    0.036042
  30 H :    0.031053
  31 H :    0.019830
  32 H :    0.019286
  33 H :    0.025333

  Mayer bond orders larger than 0.100000
B(  0-S ,  1-C ) :   1.1367 B(  0-S ,  4-C ) :   1.1783 B(  1-C ,  2-C ) :   1.6015
B(  1-C , 32-H ) :   0.9793 B(  2-C ,  3-C ) :   1.2418 B(  2-C ,  6-C ) :   1.0288
B(  3-C ,  4-C ) :   1.5689 B(  3-C ,  5-H ) :   0.9962 B(  4-C , 20-C ) :   1.0230
B(  6-C ,  7-H ) :   0.9399 B(  6-C ,  8-H ) :   0.9457 B(  6-C ,  9-C ) :   1.0669
B(  9-C , 10-H ) :   0.9519 B(  9-C , 11-H ) :   0.9567 B(  9-C , 12-C ) :   1.0786
B( 12-C , 13-H ) :   0.9673 B( 12-C , 14-H ) :   0.9728 B( 12-C , 15-H ) :   0.9755
B( 16-S , 17-C ) :   1.1638 B( 16-S , 20-C ) :   1.1415 B( 17-C , 18-C ) :   1.5971
B( 17-C , 20-C ) :   0.1161 B( 17-C , 33-H ) :   0.9663 B( 18-C , 19-C ) :   1.2501
B( 18-C , 21-H ) :   0.9887 B( 19-C , 20-C ) :   1.5817 B( 19-C , 22-C ) :   1.0276
B( 22-C , 23-H ) :   0.9364 B( 22-C , 24-H ) :   0.9344 B( 22-C , 25-C ) :   1.0700
B( 25-C , 26-H ) :   0.9512 B( 25-C , 27-H ) :   0.9550 B( 25-C , 28-C ) :   1.0726
B( 28-C , 29-H ) :   0.9749 B( 28-C , 30-H ) :   0.9736 B( 28-C , 31-H ) :   0.9763

Dispersion correction           -0.015086116
FINAL SINGLE POINT ENERGY     -1339.859160403499

DIPOLE MOMENT
-------------
                                X             Y             Z
Electronic contribution:     24.94160      -2.27623     -10.86588
Nuclear contribution   :    -25.28841       2.40857      11.08488
                        -----------------------------------------
Total Dipole Moment    :     -0.34682       0.13234       0.21899
                        -----------------------------------------
Magnitude (a.u.)       :      0.43099
Magnitude (Debye)      :      1.09549

Rotational constants in cm-1:     0.018018     0.009616     0.007539
Rotational constants in MHz :   540.176707   288.270887   226.020100

                             ****ORCA TERMINATED NORMALLY****
TOTAL RUN TIME: 0 days 0 hours 0 minutes 34 seconds 628 msec
