                         Program Version 4.2.1 -  RELEASE  -
|  1> ! wB97X-D3 SP def2-SVP
|  2> %pal
|  3> nprocs 16
|  4> end
|  5>
|  6> * xyz 0 1
|  7> S 	 -77.2848 	 47.6959 	 135.141
|  8> C 	 -77.1545 	 46.226 	 136.008
|  9> C 	 -76.9264 	 46.5255 	 137.336
| 10> C 	 -76.9292 	 47.9055 	 137.676
| 11> C 	 -77.243 	 48.6735 	 136.593
| 12> H 	 -76.817 	 48.3418 	 138.724
| 13> C 	 -76.7633 	 45.4735 	 138.48
| 14> H 	 -77.053 	 44.4547 	 138.172
| 15> H 	 -77.3441 	 45.8382 	 139.325
| 16> C 	 -75.3283 	 45.3514 	 138.994
| 17> H 	 -74.6391 	 44.8906 	 138.227
| 18> H 	 -74.9034 	 46.332 	 139.248
| 19> C 	 -75.2259 	 44.4196 	 140.207
| 20> H 	 -74.1613 	 44.2301 	 140.309
| 21> H 	 -75.6579 	 44.9172 	 141.065
| 22> H 	 -75.8012 	 43.4692 	 140.186
| 23> S 	 -78.1941 	 51.0399 	 137.644
| 24> C 	 -77.7976 	 52.425 	 136.835
| 25> C 	 -76.6341 	 52.2568 	 136.091
| 26> C 	 -76.2776 	 50.927 	 135.889
| 27> C 	 -77.1372 	 50.1057 	 136.633
| 28> H 	 -76.1702 	 53.1129 	 135.62
| 29> C 	 -75.0836 	 50.5301 	 135.003
| 30> H 	 -74.6093 	 51.3803 	 134.584
| 31> H 	 -75.4476 	 49.8988 	 134.173
| 32> C 	 -73.9249 	 49.6985 	 135.681
| 33> H 	 -74.2598 	 48.7956 	 136.12
| 34> H 	 -73.5472 	 50.229 	 136.544
| 35> C 	 -72.7744 	 49.4683 	 134.691
| 36> H 	 -72.6926 	 50.2144 	 133.856
| 37> H 	 -72.8297 	 48.5299 	 134.132
| 38> H 	 -71.7873 	 49.4732 	 135.249
| 39> H 	 -77.3361 	 45.2161 	 135.588
| 40> H 	 -78.2666 	 53.3911 	 136.943
| 41> *
| 42>
| 43>                          ****END OF INPUT****

CARTESIAN COORDINATES (ANGSTROEM)
---------------------------------
  S    -77.284800   47.695900  135.141000
  C    -77.154500   46.226000  136.008000
  C    -76.926400   46.525500  137.336000
  C    -76.929200   47.905500  137.676000
  C    -77.243000   48.673500  136.593000
  H    -76.817000   48.341800  138.724000
  C    -76.763300   45.473500  138.480000
  H    -77.053000   44.454700  138.172000
  H    -77.344100   45.838200  139.325000
  C    -75.328300   45.351400  138.994000
  H    -74.639100   44.890600  138.227000
  H    -74.903400   46.332000  139.248000
  C    -75.225900   44.419600  140.207000
  H    -74.161300   44.230100  140.309000
  H    -75.657900   44.917200  141.065000
  H    -75.801200   43.469200  140.186000
  S    -78.194100   51.039900  137.644000
  C    -77.797600   52.425000  136.835000
  C    -76.634100   52.256800  136.091000
  C    -76.277600   50.927000  135.889000
  C    -77.137200   50.105700  136.633000
  H    -76.170200   53.112900  135.620000
  C    -75.083600   50.530100  135.003000
  H    -74.609300   51.380300  134.584000
  H    -75.447600   49.898800  134.173000
  C    -73.924900   49.698500  135.681000
  H    -74.259800   48.795600  136.120000
  H    -73.547200   50.229000  136.544000
  C    -72.774400   49.468300  134.691000
  H    -72.692600   50.214400  133.856000
  H    -72.829700   48.529900  134.132000
  H    -71.787300   49.473200  135.249000
  H    -77.336100   45.216100  135.588000
  H    -78.266600   53.391100  136.943000

 Total Charge           Charge          ....    0
 Multiplicity           Mult            ....    1
 Number of Electrons    NEL             ....  134
 Basis Dimension        Dim             ....  322

ORBITAL ENERGIES
----------------

  NO   OCC          E(Eh)            E(eV)
   0   2.0000     -88.967887     -2420.9393
   1   2.0000     -88.966514     -2420.9019
   2   2.0000     -10.323830      -280.9257
   3   2.0000     -10.319042      -280.7954
   4   2.0000     -10.314607      -280.6747
   5   2.0000     -10.307269      -280.4750
   6   2.0000     -10.300608      -280.2938
   7   2.0000     -10.299600      -280.2664
   8   2.0000     -10.295023      -280.1418
   9   2.0000     -10.292962      -280.0857
  10   2.0000     -10.292682      -280.0781
  11   2.0000     -10.287936      -279.9490
  12   2.0000     -10.285612      -279.8857
  13   2.0000     -10.281932      -279.7856
  14   2.0000     -10.279821      -279.7282
  15   2.0000     -10.276988      -279.6510
  16   2.0000      -8.084608      -219.9934
  17   2.0000      -8.081536      -219.9098
  18   2.0000      -6.042721      -164.4308
  19   2.0000      -6.040114      -164.3598
  20   2.0000      -6.038913      -164.3272
  21   2.0000      -6.035947      -164.2465
  22   2.0000      -6.035602      -164.2371
  23   2.0000      -6.032247      -164.1458
  24   2.0000      -1.017447       -27.6862
  25   2.0000      -0.995159       -27.0797
  26   2.0000      -0.908361       -24.7178
  27   2.0000      -0.902265       -24.5519
  28   2.0000      -0.873703       -23.7747
  29   2.0000      -0.855214       -23.2716
  30   2.0000      -0.847346       -23.0575
  31   2.0000      -0.807792       -21.9811
  32   2.0000      -0.779070       -21.1996
  33   2.0000      -0.768032       -20.8992
  34   2.0000      -0.706219       -19.2172
  35   2.0000      -0.694125       -18.8881
  36   2.0000      -0.688668       -18.7396
  37   2.0000      -0.663588       -18.0571
  38   2.0000      -0.636778       -17.3276
  39   2.0000      -0.618208       -16.8223
  40   2.0000      -0.598912       -16.2972
  41   2.0000      -0.567400       -15.4397
  42   2.0000      -0.562263       -15.3000
  43   2.0000      -0.557608       -15.1733
  44   2.0000      -0.525609       -14.3025
  45   2.0000      -0.520759       -14.1706
  46   2.0000      -0.512145       -13.9362
  47   2.0000      -0.509817       -13.8728
  48   2.0000      -0.500783       -13.6270
  49   2.0000      -0.499512       -13.5924
  50   2.0000      -0.495328       -13.4786
  51   2.0000      -0.479091       -13.0367
  52   2.0000      -0.474251       -12.9050
  53   2.0000      -0.467847       -12.7308
  54   2.0000      -0.462591       -12.5878
  55   2.0000      -0.449532       -12.2324
  56   2.0000      -0.440822       -11.9954
  57   2.0000      -0.438363       -11.9285
  58   2.0000      -0.432552       -11.7703
  59   2.0000      -0.424365       -11.5476
  60   2.0000      -0.420029       -11.4296
  61   2.0000      -0.414537       -11.2801
  62   2.0000      -0.405127       -11.0241
  63   2.0000      -0.349843        -9.5197
  64   2.0000      -0.333212        -9.0672
  65   2.0000      -0.326216        -8.8768
  66   2.0000      -0.286170        -7.7871
  67   0.0000       0.034694         0.9441
  68   0.0000       0.062480         1.7002
  69   0.0000       0.111176         3.0252
  70   0.0000       0.124746         3.3945
  71   0.0000       0.139704         3.8015

MULLIKEN ATOMIC CHARGES
-----------------------
   0 S :    0.111034
   1 C :   -0.137455
   2 C :   -0.062245
   3 C :   -0.026932
   4 C :   -0.113638
   5 H :    0.046535
   6 C :    0.069852
   7 H :    0.019536
   8 H :    0.025450
   9 C :   -0.115339
  10 H :    0.033448
  11 H :    0.030977
  12 C :   -0.040637
  13 H :    0.039416
  14 H :    0.022988
  15 H :    0.031285
  16 S :    0.146416
  17 C :   -0.095405
  18 C :   -0.056433
  19 C :   -0.009603
  20 C :   -0.202428
  21 H :    0.010866
  22 C :    0.079853
  23 H :    0.007250
  24 H :    0.036819
  25 C :   -0.042457
  26 H :    0.027914
  27 H :    0.022199
  28 C :   -0.086125
  29 H :    0.029277
  30 H :    0.036815
  31 H :    0.042211
  32 H :    0.065447
  33 H :    0.053108
Sum of atomic charges:   -0.0000000

LOEWDIN ATOMIC CHARGES
----------------------
   0 S :    0.424889
   1 C :   -0.219900
   2 C :   -0.064577
   3 C :   -0.075657
   4 C :   -0.193183
   5 H :    0.045102
   6 C :   -0.029364
   7 H :    0.028117
   8 H :    0.028240
   9 C :   -0.046287
  10 H :    0.026363
  11 H :    0.022440
  12 C :   -0.068786
  13 H :    0.028499
  14 H :    0.020707
  15 H :    0.027152
  16 S :    0.462768
  17 C :   -0.219355
  18 C :   -0.074358
  19 C :   -0.055572
  20 C :   -0.209983
  21 H :    0.027973
  22 C :   -0.025267
  23 H :    0.022883
  24 H :    0.031125
  25 C :   -0.035993
  26 H :    0.020210
  27 H :    0.022054
  28 C :   -0.076099
  29 H :    0.026193
  30 H :    0.025605
  31 H :    0.033890
  32 H :    0.040798
  33 H :    0.029375

  Mayer bond orders larger than 0.100000
B(  0-S ,  1-C ) :   1.1343 B(  0-S ,  4-C ) :   1.1587 B(  1-C ,  2-C ) :   1.6033
B(  1-C , 32-H ) :   0.9685 B(  2-C ,  3-C ) :   1.2532 B(  2-C ,  6-C ) :   1.0188
B(  3-C ,  4-C ) :   1.5609 B(  3-C ,  5-H ) :   0.9819 B(  4-C , 20-C ) :   1.0332
B(  6-C ,  7-H ) :   0.9453 B(  6-C ,  8-H ) :   0.9456 B(  6-C ,  9-C ) :   1.0653
B(  9-C , 10-H ) :   0.9582 B(  9-C , 11-H ) :   0.9553 B(  9-C , 12-C ) :   1.0771
B( 12-C , 13-H ) :   0.9761 B( 12-C , 14-H ) :   0.9738 B( 12-C , 15-H ) :   0.9736
B( 16-S , 17-C ) :   1.1976 B( 16-S , 20-C ) :   1.1716 B( 17-C , 18-C ) :   1.5470
B( 17-C , 20-C ) :   0.1066 B( 17-C , 33-H ) :   0.9701 B( 18-C , 19-C ) :   1.2977
B( 18-C , 21-H ) :   0.9912 B( 19-C , 20-C ) :   1.5241 B( 19-C , 22-C ) :   1.0399
B( 22-C , 23-H ) :   0.9346 B( 22-C , 24-H ) :   0.9317 B( 22-C , 25-C ) :   1.0598
B( 25-C , 26-H ) :   0.9552 B( 25-C , 27-H ) :   0.9613 B( 25-C , 28-C ) :   1.0688
B( 28-C , 29-H ) :   0.9755 B( 28-C , 30-H ) :   0.9764 B( 28-C , 31-H ) :   0.9775

Dispersion correction           -0.014527749
FINAL SINGLE POINT ENERGY     -1339.874336820705

DIPOLE MOMENT
-------------
                                X             Y             Z
Electronic contribution:    -21.01211      13.43775      -5.79607
Nuclear contribution   :     21.33994     -13.53872       5.97039
                        -----------------------------------------
Total Dipole Moment    :      0.32783      -0.10097       0.17432
                        -----------------------------------------
Magnitude (a.u.)       :      0.38478
Magnitude (Debye)      :      0.97804

Rotational constants in cm-1:     0.017813     0.008629     0.007373
Rotational constants in MHz :   534.011210   258.695288   221.028987

                             ****ORCA TERMINATED NORMALLY****
TOTAL RUN TIME: 0 days 0 hours 0 minutes 36 seconds 977 msec
