                         Program Version 4.2.1 -  RELEASE  -
|  1> ! wB97X-D3 SP def2-SVP
|  2> %pal
|  3> nprocs 16
|  4> end
|  5>
|  6> * xyz 0 1
|  7> S 	 29.7351 	 25.6427 	 50.976
|  8> C 	 29.4074 	 26.7198 	 49.6652
|  9> C 	 29.4513 	 28.058 	 50.0145
| 10> C 	 29.74 	 28.1348 	 51.4346
| 11> C 	 29.9312 	 26.9572 	 52.0989
| 12> H 	 29.8136 	 29.0178 	 51.898
| 13> C 	 29.3542 	 29.251 	 49.0332
| 14> H 	 29.1415 	 30.196 	 49.569
| 15> H 	 28.4877 	 29.044 	 48.345
| 16> C 	 30.6787 	 29.5236 	 48.318
| 17> H 	 31.4385 	 29.754 	 49.0823
| 18> H 	 31.0536 	 28.6384 	 47.6782
| 19> C 	 30.7008 	 30.6976 	 47.344
| 20> H 	 30.6629 	 31.6255 	 47.7981
| 21> H 	 31.6619 	 30.4922 	 46.767
| 22> H 	 29.7701 	 30.622 	 46.6558
| 23> S 	 31.8464 	 26.2848 	 53.9655
| 24> C 	 31.3742 	 25.9122 	 55.5838
| 25> C 	 30.038 	 26.1254 	 55.7797
| 26> C 	 29.3691 	 26.6538 	 54.6426
| 27> C 	 30.1737 	 26.7291 	 53.5159
| 28> H 	 29.6101 	 25.8391 	 56.7049
| 29> C 	 27.8369 	 26.8124 	 54.6104
| 30> H 	 27.4089 	 27.5462 	 53.8895
| 31> H 	 27.5534 	 27.1396 	 55.6171
| 32> C 	 26.9934 	 25.5099 	 54.4523
| 33> H 	 27.242 	 24.7578 	 55.2144
| 34> H 	 27.2183 	 25.0816 	 53.3898
| 35> C 	 25.4842 	 25.7028 	 54.5547
| 36> H 	 25.1501 	 26.6911 	 54.3742
| 37> H 	 25.1167 	 25.4053 	 55.5315
| 38> H 	 24.8273 	 25.1591 	 53.8697
| 39> H 	 29.4729 	 26.4269 	 48.5527
| 40> H 	 32.0409 	 25.5222 	 56.3317
| 41> *
| 42>
| 43>                          ****END OF INPUT****

CARTESIAN COORDINATES (ANGSTROEM)
---------------------------------
  S     29.735100   25.642700   50.976000
  C     29.407400   26.719800   49.665200
  C     29.451300   28.058000   50.014500
  C     29.740000   28.134800   51.434600
  C     29.931200   26.957200   52.098900
  H     29.813600   29.017800   51.898000
  C     29.354200   29.251000   49.033200
  H     29.141500   30.196000   49.569000
  H     28.487700   29.044000   48.345000
  C     30.678700   29.523600   48.318000
  H     31.438500   29.754000   49.082300
  H     31.053600   28.638400   47.678200
  C     30.700800   30.697600   47.344000
  H     30.662900   31.625500   47.798100
  H     31.661900   30.492200   46.767000
  H     29.770100   30.622000   46.655800
  S     31.846400   26.284800   53.965500
  C     31.374200   25.912200   55.583800
  C     30.038000   26.125400   55.779700
  C     29.369100   26.653800   54.642600
  C     30.173700   26.729100   53.515900
  H     29.610100   25.839100   56.704900
  C     27.836900   26.812400   54.610400
  H     27.408900   27.546200   53.889500
  H     27.553400   27.139600   55.617100
  C     26.993400   25.509900   54.452300
  H     27.242000   24.757800   55.214400
  H     27.218300   25.081600   53.389800
  C     25.484200   25.702800   54.554700
  H     25.150100   26.691100   54.374200
  H     25.116700   25.405300   55.531500
  H     24.827300   25.159100   53.869700
  H     29.472900   26.426900   48.552700
  H     32.040900   25.522200   56.331700

 Total Charge           Charge          ....    0
 Multiplicity           Mult            ....    1
 Number of Electrons    NEL             ....  134
 Basis Dimension        Dim             ....  322

ORBITAL ENERGIES
----------------

  NO   OCC          E(Eh)            E(eV)
   0   2.0000     -88.965393     -2420.8714
   1   2.0000     -88.962058     -2420.7807
   2   2.0000     -10.328081      -281.0414
   3   2.0000     -10.326014      -280.9851
   4   2.0000     -10.317425      -280.7514
   5   2.0000     -10.315485      -280.6986
   6   2.0000     -10.308148      -280.4990
   7   2.0000     -10.304057      -280.3876
   8   2.0000     -10.303763      -280.3797
   9   2.0000     -10.296423      -280.1799
  10   2.0000     -10.293807      -280.1087
  11   2.0000     -10.291897      -280.0567
  12   2.0000     -10.290122      -280.0085
  13   2.0000     -10.286194      -279.9016
  14   2.0000     -10.285082      -279.8713
  15   2.0000     -10.270713      -279.4803
  16   2.0000      -8.080553      -219.8830
  17   2.0000      -8.077008      -219.7866
  18   2.0000      -6.039108      -164.3325
  19   2.0000      -6.035410      -164.2319
  20   2.0000      -6.034876      -164.2173
  21   2.0000      -6.031422      -164.1233
  22   2.0000      -6.031340      -164.1211
  23   2.0000      -6.027919      -164.0280
  24   2.0000      -1.007074       -27.4039
  25   2.0000      -0.986017       -26.8309
  26   2.0000      -0.910659       -24.7803
  27   2.0000      -0.901132       -24.5210
  28   2.0000      -0.870571       -23.6894
  29   2.0000      -0.849845       -23.1255
  30   2.0000      -0.847934       -23.0735
  31   2.0000      -0.815946       -22.2030
  32   2.0000      -0.783018       -21.3070
  33   2.0000      -0.771366       -20.9899
  34   2.0000      -0.702701       -19.1215
  35   2.0000      -0.688368       -18.7315
  36   2.0000      -0.687871       -18.7179
  37   2.0000      -0.661893       -18.0110
  38   2.0000      -0.642580       -17.4855
  39   2.0000      -0.622435       -16.9373
  40   2.0000      -0.598774       -16.2935
  41   2.0000      -0.576505       -15.6875
  42   2.0000      -0.563808       -15.3420
  43   2.0000      -0.556700       -15.1486
  44   2.0000      -0.527125       -14.3438
  45   2.0000      -0.519870       -14.1464
  46   2.0000      -0.517220       -14.0743
  47   2.0000      -0.510536       -13.8924
  48   2.0000      -0.503717       -13.7068
  49   2.0000      -0.498427       -13.5629
  50   2.0000      -0.493561       -13.4305
  51   2.0000      -0.472343       -12.8531
  52   2.0000      -0.468392       -12.7456
  53   2.0000      -0.463196       -12.6042
  54   2.0000      -0.460453       -12.5296
  55   2.0000      -0.449816       -12.2401
  56   2.0000      -0.445511       -12.1230
  57   2.0000      -0.431759       -11.7488
  58   2.0000      -0.428079       -11.6486
  59   2.0000      -0.423175       -11.5152
  60   2.0000      -0.421849       -11.4791
  61   2.0000      -0.417809       -11.3692
  62   2.0000      -0.402227       -10.9451
  63   2.0000      -0.335712        -9.1352
  64   2.0000      -0.329543        -8.9673
  65   2.0000      -0.324631        -8.8337
  66   2.0000      -0.311536        -8.4773
  67   0.0000       0.041284         1.1234
  68   0.0000       0.057947         1.5768
  69   0.0000       0.119007         3.2384
  70   0.0000       0.124261         3.3813
  71   0.0000       0.127080         3.4580

MULLIKEN ATOMIC CHARGES
-----------------------
   0 S :    0.127514
   1 C :   -0.144650
   2 C :   -0.102535
   3 C :    0.099821
   4 C :   -0.155952
   5 H :   -0.051208
   6 C :    0.064632
   7 H :    0.025274
   8 H :    0.043221
   9 C :   -0.126046
  10 H :    0.036922
  11 H :    0.039024
  12 C :   -0.047642
  13 H :    0.026133
  14 H :    0.053007
  15 H :    0.035962
  16 S :    0.102046
  17 C :   -0.082990
  18 C :   -0.037292
  19 C :    0.033311
  20 C :   -0.191925
  21 H :    0.005483
  22 C :    0.049419
  23 H :    0.041660
  24 H :    0.014471
  25 C :   -0.102393
  26 H :    0.032731
  27 H :    0.045001
  28 C :   -0.028239
  29 H :    0.011269
  30 H :    0.023403
  31 H :    0.028188
  32 H :    0.076477
  33 H :    0.055903
Sum of atomic charges:   -0.0000000

LOEWDIN ATOMIC CHARGES
----------------------
   0 S :    0.423223
   1 C :   -0.215589
   2 C :   -0.065576
   3 C :   -0.041492
   4 C :   -0.207844
   5 H :    0.007766
   6 C :   -0.036851
   7 H :    0.033192
   8 H :    0.036917
   9 C :   -0.053088
  10 H :    0.028128
  11 H :    0.029433
  12 C :   -0.068077
  13 H :    0.009490
  14 H :    0.040969
  15 H :    0.031829
  16 S :    0.400149
  17 C :   -0.181160
  18 C :   -0.071817
  19 C :   -0.048182
  20 C :   -0.191324
  21 H :    0.026702
  22 C :   -0.033602
  23 H :    0.035455
  24 H :    0.027542
  25 C :   -0.046981
  26 H :    0.024066
  27 H :    0.031431
  28 C :   -0.072095
  29 H :    0.017925
  30 H :    0.024161
  31 H :    0.030630
  32 H :    0.045295
  33 H :    0.029375

  Mayer bond orders larger than 0.100000
B(  0-S ,  1-C ) :   1.1599 B(  0-S ,  4-C ) :   1.1435 B(  1-C ,  2-C ) :   1.6190
B(  1-C , 32-H ) :   0.9492 B(  2-C ,  3-C ) :   1.2462 B(  2-C ,  6-C ) :   1.0206
B(  3-C ,  4-C ) :   1.5896 B(  3-C ,  5-H ) :   1.0196 B(  4-C , 20-C ) :   1.0103
B(  6-C ,  7-H ) :   0.9404 B(  6-C ,  8-H ) :   0.9400 B(  6-C ,  9-C ) :   1.0628
B(  9-C , 10-H ) :   0.9523 B(  9-C , 11-H ) :   0.9623 B(  9-C , 12-C ) :   1.0743
B( 12-C , 13-H ) :   0.9768 B( 12-C , 14-H ) :   0.9760 B( 12-C , 15-H ) :   0.9734
B( 16-S , 17-C ) :   1.1641 B( 16-S , 20-C ) :   1.1435 B( 17-C , 18-C ) :   1.6120
B( 17-C , 33-H ) :   0.9676 B( 18-C , 19-C ) :   1.2263 B( 18-C , 21-H ) :   0.9984
B( 19-C , 20-C ) :   1.6045 B( 19-C , 22-C ) :   1.0520 B( 22-C , 23-H ) :   0.9400
B( 22-C , 24-H ) :   0.9302 B( 22-C , 25-C ) :   1.0656 B( 25-C , 26-H ) :   0.9613
B( 25-C , 27-H ) :   0.9572 B( 25-C , 28-C ) :   1.0635 B( 28-C , 29-H ) :   0.9747
B( 28-C , 30-H ) :   0.9777 B( 28-C , 31-H ) :   0.9743

Dispersion correction           -0.013777057
FINAL SINGLE POINT ENERGY     -1339.869573112794

DIPOLE MOMENT
-------------
                                X             Y             Z
Electronic contribution:     14.99761     -11.63766       8.63606
Nuclear contribution   :    -15.24806      11.94062      -8.63408
                        -----------------------------------------
Total Dipole Moment    :     -0.25044       0.30296       0.00198
                        -----------------------------------------
Magnitude (a.u.)       :      0.39308
Magnitude (Debye)      :      0.99913

Rotational constants in cm-1:     0.020214     0.007359     0.006209
Rotational constants in MHz :   606.014387   220.607786   186.130182

                             ****ORCA TERMINATED NORMALLY****
TOTAL RUN TIME: 0 days 0 hours 0 minutes 33 seconds 910 msec
