                         Program Version 4.2.1 -  RELEASE  -
|  1> ! wB97X-D3 SP def2-SVP
|  2> %pal
|  3> nprocs 16
|  4> end
|  5>
|  6> * xyz 0 1
|  7> S 	 -109.5 	 43.8058 	 126.22
|  8> C 	 -108.723 	 44.6498 	 127.511
|  9> C 	 -107.466 	 45.0984 	 127.116
| 10> C 	 -107.04 	 44.6731 	 125.829
| 11> C 	 -108.014 	 43.8963 	 125.236
| 12> H 	 -106.069 	 44.9114 	 125.383
| 13> C 	 -106.559 	 45.9581 	 127.947
| 14> H 	 -107.138 	 46.2845 	 128.858
| 15> H 	 -106.482 	 46.8748 	 127.422
| 16> C 	 -105.21 	 45.3591 	 128.23
| 17> H 	 -105.348 	 44.4164 	 128.735
| 18> H 	 -104.715 	 45.2499 	 127.229
| 19> C 	 -104.277 	 46.1602 	 129.18
| 20> H 	 -104.079 	 45.7475 	 130.168
| 21> H 	 -103.309 	 46.416 	 128.769
| 22> H 	 -104.781 	 47.0887 	 129.354
| 23> S 	 -108.41 	 41.7031 	 123.671
| 24> C 	 -108.439 	 41.7989 	 121.932
| 25> C 	 -108.134 	 43.0693 	 121.569
| 26> C 	 -107.936 	 44.0451 	 122.65
| 27> C 	 -108.03 	 43.3745 	 123.902
| 28> H 	 -107.979 	 43.246 	 120.481
| 29> C 	 -107.518 	 45.4756 	 122.327
| 30> H 	 -107.143 	 45.4459 	 121.348
| 31> H 	 -106.764 	 45.5748 	 123.095
| 32> C 	 -108.527 	 46.546 	 122.543
| 33> H 	 -108.952 	 46.522 	 123.575
| 34> H 	 -109.422 	 46.2127 	 121.992
| 35> C 	 -108.08 	 47.8895 	 121.971
| 36> H 	 -108.932 	 48.5516 	 121.992
| 37> H 	 -107.785 	 47.6551 	 120.971
| 38> H 	 -107.238 	 48.2968 	 122.606
| 39> H 	 -109.071 	 45.0375 	 128.429
| 40> H 	 -108.693 	 41.0083 	 121.166
| 41> *
| 42>
| 43>                          ****END OF INPUT****

CARTESIAN COORDINATES (ANGSTROEM)
---------------------------------
  S    -109.500000   43.805800  126.220000
  C    -108.723000   44.649800  127.511000
  C    -107.466000   45.098400  127.116000
  C    -107.040000   44.673100  125.829000
  C    -108.014000   43.896300  125.236000
  H    -106.069000   44.911400  125.383000
  C    -106.559000   45.958100  127.947000
  H    -107.138000   46.284500  128.858000
  H    -106.482000   46.874800  127.422000
  C    -105.210000   45.359100  128.230000
  H    -105.348000   44.416400  128.735000
  H    -104.715000   45.249900  127.229000
  C    -104.277000   46.160200  129.180000
  H    -104.079000   45.747500  130.168000
  H    -103.309000   46.416000  128.769000
  H    -104.781000   47.088700  129.354000
  S    -108.410000   41.703100  123.671000
  C    -108.439000   41.798900  121.932000
  C    -108.134000   43.069300  121.569000
  C    -107.936000   44.045100  122.650000
  C    -108.030000   43.374500  123.902000
  H    -107.979000   43.246000  120.481000
  C    -107.518000   45.475600  122.327000
  H    -107.143000   45.445900  121.348000
  H    -106.764000   45.574800  123.095000
  C    -108.527000   46.546000  122.543000
  H    -108.952000   46.522000  123.575000
  H    -109.422000   46.212700  121.992000
  C    -108.080000   47.889500  121.971000
  H    -108.932000   48.551600  121.992000
  H    -107.785000   47.655100  120.971000
  H    -107.238000   48.296800  122.606000
  H    -109.071000   45.037500  128.429000
  H    -108.693000   41.008300  121.166000

 Total Charge           Charge          ....    0
 Multiplicity           Mult            ....    1
 Number of Electrons    NEL             ....  134
 Basis Dimension        Dim             ....  322

ORBITAL ENERGIES
----------------

  NO   OCC          E(Eh)            E(eV)
   0   2.0000     -88.969982     -2420.9963
   1   2.0000     -88.963266     -2420.8136
   2   2.0000     -10.331259      -281.1279
   3   2.0000     -10.325324      -280.9664
   4   2.0000     -10.317317      -280.7485
   5   2.0000     -10.309109      -280.5251
   6   2.0000     -10.309100      -280.5249
   7   2.0000     -10.297061      -280.1973
   8   2.0000     -10.296564      -280.1837
   9   2.0000     -10.293465      -280.0994
  10   2.0000     -10.288851      -279.9739
  11   2.0000     -10.288215      -279.9566
  12   2.0000     -10.284479      -279.8549
  13   2.0000     -10.280821      -279.7554
  14   2.0000     -10.280015      -279.7334
  15   2.0000     -10.275028      -279.5977
  16   2.0000      -8.084123      -219.9802
  17   2.0000      -8.078399      -219.8244
  18   2.0000      -6.042679      -164.4297
  19   2.0000      -6.038751      -164.3228
  20   2.0000      -6.036953      -164.2738
  21   2.0000      -6.034798      -164.2152
  22   2.0000      -6.032707      -164.1583
  23   2.0000      -6.029215      -164.0633
  24   2.0000      -1.007478       -27.4149
  25   2.0000      -0.984059       -26.7776
  26   2.0000      -0.917114       -24.9559
  27   2.0000      -0.915278       -24.9060
  28   2.0000      -0.872971       -23.7547
  29   2.0000      -0.852242       -23.1907
  30   2.0000      -0.846106       -23.0237
  31   2.0000      -0.818413       -22.2701
  32   2.0000      -0.782867       -21.3029
  33   2.0000      -0.770238       -20.9592
  34   2.0000      -0.713932       -19.4271
  35   2.0000      -0.698363       -19.0034
  36   2.0000      -0.690672       -18.7941
  37   2.0000      -0.655558       -17.8386
  38   2.0000      -0.637436       -17.3455
  39   2.0000      -0.625132       -17.0107
  40   2.0000      -0.590455       -16.0671
  41   2.0000      -0.574392       -15.6300
  42   2.0000      -0.571273       -15.5451
  43   2.0000      -0.558899       -15.2084
  44   2.0000      -0.527244       -14.3470
  45   2.0000      -0.524348       -14.2682
  46   2.0000      -0.516469       -14.0538
  47   2.0000      -0.512505       -13.9460
  48   2.0000      -0.507005       -13.7963
  49   2.0000      -0.505413       -13.7530
  50   2.0000      -0.497913       -13.5489
  51   2.0000      -0.482095       -13.1185
  52   2.0000      -0.476094       -12.9552
  53   2.0000      -0.464557       -12.6412
  54   2.0000      -0.456220       -12.4144
  55   2.0000      -0.454321       -12.3627
  56   2.0000      -0.443317       -12.0633
  57   2.0000      -0.440173       -11.9777
  58   2.0000      -0.432594       -11.7715
  59   2.0000      -0.420740       -11.4489
  60   2.0000      -0.416896       -11.3443
  61   2.0000      -0.415470       -11.3055
  62   2.0000      -0.403537       -10.9808
  63   2.0000      -0.345823        -9.4103
  64   2.0000      -0.330813        -9.0019
  65   2.0000      -0.326180        -8.8758
  66   2.0000      -0.293548        -7.9879
  67   0.0000       0.030716         0.8358
  68   0.0000       0.067101         1.8259
  69   0.0000       0.113527         3.0892
  70   0.0000       0.119536         3.2527
  71   0.0000       0.136305         3.7090

MULLIKEN ATOMIC CHARGES
-----------------------
   0 S :    0.129039
   1 C :   -0.071822
   2 C :   -0.135016
   3 C :    0.018936
   4 C :   -0.139829
   5 H :    0.034581
   6 C :    0.080329
   7 H :    0.011111
   8 H :    0.019938
   9 C :   -0.092857
  10 H :    0.037727
  11 H :    0.039558
  12 C :   -0.022979
  13 H :    0.035277
  14 H :    0.028650
  15 H :    0.011697
  16 S :    0.110299
  17 C :   -0.111194
  18 C :   -0.064919
  19 C :   -0.050976
  20 C :   -0.191858
  21 H :    0.029090
  22 C :    0.142432
  23 H :    0.002638
  24 H :    0.009519
  25 C :   -0.111854
  26 H :    0.038277
  27 H :    0.015894
  28 C :   -0.007228
  29 H :    0.038197
  30 H :    0.023610
  31 H :    0.042068
  32 H :    0.021852
  33 H :    0.079812
Sum of atomic charges:    0.0000000

LOEWDIN ATOMIC CHARGES
----------------------
   0 S :    0.411277
   1 C :   -0.207940
   2 C :   -0.060219
   3 C :   -0.058740
   4 C :   -0.181608
   5 H :    0.036729
   6 C :   -0.040593
   7 H :    0.029398
   8 H :    0.026098
   9 C :   -0.042151
  10 H :    0.028417
  11 H :    0.030387
  12 C :   -0.066780
  13 H :    0.027640
  14 H :    0.025746
  15 H :    0.021506
  16 S :    0.419132
  17 C :   -0.206917
  18 C :   -0.086668
  19 C :   -0.043634
  20 C :   -0.221036
  21 H :    0.034170
  22 C :   -0.027439
  23 H :    0.023383
  24 H :    0.030979
  25 C :   -0.050866
  26 H :    0.029892
  27 H :    0.022302
  28 C :   -0.056967
  29 H :    0.027050
  30 H :    0.022319
  31 H :    0.032223
  32 H :    0.022872
  33 H :    0.050035

  Mayer bond orders larger than 0.100000
B(  0-S ,  1-C ) :   1.1242 B(  0-S ,  4-C ) :   1.1505 B(  1-C ,  2-C ) :   1.6262
B(  1-C , 32-H ) :   0.9639 B(  2-C ,  3-C ) :   1.2319 B(  2-C ,  6-C ) :   1.0361
B(  3-C ,  4-C ) :   1.5766 B(  3-C ,  5-H ) :   0.9882 B(  4-C , 20-C ) :   1.0541
B(  6-C ,  7-H ) :   0.9323 B(  6-C ,  8-H ) :   0.9233 B(  6-C ,  9-C ) :   1.0736
B(  9-C , 10-H ) :   0.9623 B(  9-C , 11-H ) :   0.9541 B(  9-C , 12-C ) :   1.0678
B( 12-C , 13-H ) :   0.9787 B( 12-C , 14-H ) :   0.9757 B( 12-C , 15-H ) :   0.9762
B( 16-S , 17-C ) :   1.1447 B( 16-S , 20-C ) :   1.1545 B( 17-C , 18-C ) :   1.6338
B( 17-C , 33-H ) :   0.9576 B( 18-C , 19-C ) :   1.2415 B( 18-C , 21-H ) :   0.9759
B( 19-C , 20-C ) :   1.5578 B( 19-C , 22-C ) :   1.0225 B( 22-C , 23-H ) :   0.9281
B( 22-C , 24-H ) :   0.9243 B( 22-C , 25-C ) :   1.0745 B( 25-C , 26-H ) :   0.9500
B( 25-C , 27-H ) :   0.9511 B( 25-C , 28-C ) :   1.0771 B( 28-C , 29-H ) :   0.9741
B( 28-C , 30-H ) :   0.9717 B( 28-C , 31-H ) :   0.9750

Dispersion correction           -0.013938789
FINAL SINGLE POINT ENERGY     -1339.867519130078

DIPOLE MOMENT
-------------
                                X             Y             Z
Electronic contribution:    -14.83049     -23.49449      -3.43014
Nuclear contribution   :     15.17077      24.08181       3.26760
                        -----------------------------------------
Total Dipole Moment    :      0.34028       0.58732      -0.16254
                        -----------------------------------------
Magnitude (a.u.)       :      0.69796
Magnitude (Debye)      :      1.77407

Rotational constants in cm-1:     0.017525     0.008386     0.006904
Rotational constants in MHz :   525.374707   251.406446   206.966305

                             ****ORCA TERMINATED NORMALLY****
TOTAL RUN TIME: 0 days 0 hours 0 minutes 31 seconds 657 msec
