                         Program Version 4.2.1 -  RELEASE  -
|  1> ! wB97X-D3 SP def2-SVP
|  2> %pal
|  3> nprocs 16
|  4> end
|  5>
|  6> * xyz 0 1
|  7> S 	 -42.2963 	 33.1485 	 81.6457
|  8> C 	 -41.5249 	 32.5876 	 80.2033
|  9> C 	 -40.2861 	 33.0709 	 80.0754
| 10> C 	 -39.9389 	 34.0523 	 81.0756
| 11> C 	 -40.9139 	 34.1895 	 82.0635
| 12> H 	 -39.1107 	 34.7637 	 81.1211
| 13> C 	 -39.4517 	 32.8502 	 78.7867
| 14> H 	 -39.1984 	 33.7722 	 78.3239
| 15> H 	 -39.9682 	 32.2655 	 78.0162
| 16> C 	 -38.117 	 32.1884 	 79.0096
| 17> H 	 -37.6619 	 32.6001 	 79.8985
| 18> H 	 -38.3812 	 31.1512 	 79.3014
| 19> C 	 -37.281 	 32.0748 	 77.7532
| 20> H 	 -37.0317 	 33.0408 	 77.37
| 21> H 	 -36.3034 	 31.6292 	 78.0009
| 22> H 	 -37.7077 	 31.4802 	 76.9429
| 23> S 	 -40.9899 	 34.1765 	 84.7631
| 24> C 	 -40.9859 	 35.655 	 85.6579
| 25> C 	 -40.7178 	 36.7382 	 84.8492
| 26> C 	 -40.5878 	 36.3999 	 83.4814
| 27> C 	 -40.9033 	 35.0418 	 83.2714
| 28> H 	 -40.4344 	 37.6446 	 85.3272
| 29> C 	 -40.1029 	 37.4357 	 82.4848
| 30> H 	 -39.7416 	 36.9651 	 81.5571
| 31> H 	 -39.2362 	 37.983 	 82.8799
| 32> C 	 -41.206 	 38.4727 	 82.0762
| 33> H 	 -41.4885 	 38.9915 	 82.9205
| 34> H 	 -42.0633 	 37.9299 	 81.7737
| 35> C 	 -40.6216 	 39.4964 	 81.0098
| 36> H 	 -41.432 	 40.2288 	 80.7173
| 37> H 	 -40.3055 	 38.9801 	 80.1317
| 38> H 	 -39.8772 	 39.954 	 81.5675
| 39> H 	 -42.0473 	 32.0823 	 79.4434
| 40> H 	 -40.9197 	 35.6783 	 86.7211
| 41> *
| 42>
| 43>                          ****END OF INPUT****

CARTESIAN COORDINATES (ANGSTROEM)
---------------------------------
  S    -42.296300   33.148500   81.645700
  C    -41.524900   32.587600   80.203300
  C    -40.286100   33.070900   80.075400
  C    -39.938900   34.052300   81.075600
  C    -40.913900   34.189500   82.063500
  H    -39.110700   34.763700   81.121100
  C    -39.451700   32.850200   78.786700
  H    -39.198400   33.772200   78.323900
  H    -39.968200   32.265500   78.016200
  C    -38.117000   32.188400   79.009600
  H    -37.661900   32.600100   79.898500
  H    -38.381200   31.151200   79.301400
  C    -37.281000   32.074800   77.753200
  H    -37.031700   33.040800   77.370000
  H    -36.303400   31.629200   78.000900
  H    -37.707700   31.480200   76.942900
  S    -40.989900   34.176500   84.763100
  C    -40.985900   35.655000   85.657900
  C    -40.717800   36.738200   84.849200
  C    -40.587800   36.399900   83.481400
  C    -40.903300   35.041800   83.271400
  H    -40.434400   37.644600   85.327200
  C    -40.102900   37.435700   82.484800
  H    -39.741600   36.965100   81.557100
  H    -39.236200   37.983000   82.879900
  C    -41.206000   38.472700   82.076200
  H    -41.488500   38.991500   82.920500
  H    -42.063300   37.929900   81.773700
  C    -40.621600   39.496400   81.009800
  H    -41.432000   40.228800   80.717300
  H    -40.305500   38.980100   80.131700
  H    -39.877200   39.954000   81.567500
  H    -42.047300   32.082300   79.443400
  H    -40.919700   35.678300   86.721100

 Total Charge           Charge          ....    0
 Multiplicity           Mult            ....    1
 Number of Electrons    NEL             ....  134
 Basis Dimension        Dim             ....  322

ORBITAL ENERGIES
----------------

  NO   OCC          E(Eh)            E(eV)
   0   2.0000     -88.966385     -2420.8984
   1   2.0000     -88.962476     -2420.7920
   2   2.0000     -10.333811      -281.1973
   3   2.0000     -10.329166      -281.0709
   4   2.0000     -10.312580      -280.6196
   5   2.0000     -10.307003      -280.4678
   6   2.0000     -10.306638      -280.4579
   7   2.0000     -10.300944      -280.3029
   8   2.0000     -10.299727      -280.2698
   9   2.0000     -10.295797      -280.1629
  10   2.0000     -10.290151      -280.0092
  11   2.0000     -10.287087      -279.9259
  12   2.0000     -10.280098      -279.7357
  13   2.0000     -10.278516      -279.6927
  14   2.0000     -10.278386      -279.6891
  15   2.0000     -10.277551      -279.6664
  16   2.0000      -8.081993      -219.9222
  17   2.0000      -8.077430      -219.7980
  18   2.0000      -6.040354      -164.3664
  19   2.0000      -6.036439      -164.2599
  20   2.0000      -6.035909      -164.2454
  21   2.0000      -6.032782      -164.1603
  22   2.0000      -6.031919      -164.1369
  23   2.0000      -6.028179      -164.0351
  24   2.0000      -1.008637       -27.4464
  25   2.0000      -0.988628       -26.9019
  26   2.0000      -0.914086       -24.8735
  27   2.0000      -0.906134       -24.6572
  28   2.0000      -0.872807       -23.7503
  29   2.0000      -0.851064       -23.1586
  30   2.0000      -0.844132       -22.9700
  31   2.0000      -0.816751       -22.2249
  32   2.0000      -0.782371       -21.2894
  33   2.0000      -0.772682       -21.0257
  34   2.0000      -0.709991       -19.3198
  35   2.0000      -0.700260       -19.0551
  36   2.0000      -0.691570       -18.8186
  37   2.0000      -0.664342       -18.0777
  38   2.0000      -0.648020       -17.6335
  39   2.0000      -0.619793       -16.8654
  40   2.0000      -0.599188       -16.3047
  41   2.0000      -0.573549       -15.6071
  42   2.0000      -0.570785       -15.5318
  43   2.0000      -0.564240       -15.3538
  44   2.0000      -0.522651       -14.2221
  45   2.0000      -0.520177       -14.1547
  46   2.0000      -0.514261       -13.9938
  47   2.0000      -0.510856       -13.9011
  48   2.0000      -0.509662       -13.8686
  49   2.0000      -0.497003       -13.5241
  50   2.0000      -0.495912       -13.4945
  51   2.0000      -0.483135       -13.1468
  52   2.0000      -0.475578       -12.9411
  53   2.0000      -0.470474       -12.8022
  54   2.0000      -0.462350       -12.5812
  55   2.0000      -0.447711       -12.1828
  56   2.0000      -0.445310       -12.1175
  57   2.0000      -0.436126       -11.8676
  58   2.0000      -0.434399       -11.8206
  59   2.0000      -0.429298       -11.6818
  60   2.0000      -0.424900       -11.5621
  61   2.0000      -0.416540       -11.3346
  62   2.0000      -0.410464       -11.1693
  63   2.0000      -0.346718        -9.4347
  64   2.0000      -0.331744        -9.0272
  65   2.0000      -0.328145        -8.9293
  66   2.0000      -0.295387        -8.0379
  67   0.0000       0.034445         0.9373
  68   0.0000       0.064678         1.7600
  69   0.0000       0.105481         2.8703
  70   0.0000       0.121503         3.3063
  71   0.0000       0.139298         3.7905

MULLIKEN ATOMIC CHARGES
-----------------------
   0 S :    0.102433
   1 C :   -0.109627
   2 C :   -0.041135
   3 C :    0.037393
   4 C :   -0.174537
   5 H :    0.021770
   6 C :    0.069287
   7 H :    0.010747
   8 H :    0.012684
   9 C :   -0.095885
  10 H :    0.027913
  11 H :    0.020666
  12 C :   -0.023888
  13 H :    0.016341
  14 H :    0.033813
  15 H :    0.036417
  16 S :    0.120741
  17 C :   -0.079638
  18 C :   -0.032658
  19 C :   -0.007035
  20 C :   -0.170700
  21 H :    0.010613
  22 C :    0.034353
  23 H :    0.011902
  24 H :    0.028130
  25 C :   -0.055803
  26 H :    0.008015
  27 H :    0.026711
  28 C :   -0.027132
  29 H :    0.046598
  30 H :    0.035238
  31 H :    0.020680
  32 H :    0.036560
  33 H :    0.049033
Sum of atomic charges:   -0.0000000

LOEWDIN ATOMIC CHARGES
----------------------
   0 S :    0.395052
   1 C :   -0.187123
   2 C :   -0.063396
   3 C :   -0.062541
   4 C :   -0.187861
   5 H :    0.032412
   6 C :   -0.026617
   7 H :    0.020324
   8 H :    0.026777
   9 C :   -0.047215
  10 H :    0.021548
  11 H :    0.025583
  12 C :   -0.063567
  13 H :    0.017792
  14 H :    0.032075
  15 H :    0.028468
  16 S :    0.435852
  17 C :   -0.187579
  18 C :   -0.068535
  19 C :   -0.053004
  20 C :   -0.210818
  21 H :    0.028113
  22 C :   -0.031608
  23 H :    0.025605
  24 H :    0.031006
  25 C :   -0.023548
  26 H :    0.009783
  27 H :    0.019013
  28 C :   -0.053655
  29 H :    0.035196
  30 H :    0.021048
  31 H :    0.015599
  32 H :    0.022961
  33 H :    0.022858

  Mayer bond orders larger than 0.100000
B(  0-S ,  1-C ) :   1.1297 B(  0-S ,  4-C ) :   1.1497 B(  1-C ,  2-C ) :   1.6482
B(  1-C , 32-H ) :   0.9743 B(  2-C ,  3-C ) :   1.2037 B(  2-C ,  6-C ) :   1.0173
B(  3-C ,  4-C ) :   1.6069 B(  3-C ,  5-H ) :   0.9880 B(  4-C , 20-C ) :   1.0124
B(  6-C ,  7-H ) :   0.9444 B(  6-C ,  8-H ) :   0.9492 B(  6-C ,  9-C ) :   1.0517
B(  9-C , 10-H ) :   0.9616 B(  9-C , 11-H ) :   0.9503 B(  9-C , 12-C ) :   1.0858
B( 12-C , 13-H ) :   0.9728 B( 12-C , 14-H ) :   0.9711 B( 12-C , 15-H ) :   0.9720
B( 16-S , 17-C ) :   1.1680 B( 16-S , 20-C ) :   1.1803 B( 17-C , 18-C ) :   1.5905
B( 17-C , 20-C ) :   0.1047 B( 17-C , 33-H ) :   0.9700 B( 18-C , 19-C ) :   1.2607
B( 18-C , 21-H ) :   0.9919 B( 19-C , 20-C ) :   1.5592 B( 19-C , 22-C ) :   1.0488
B( 22-C , 23-H ) :   0.9362 B( 22-C , 24-H ) :   0.9374 B( 22-C , 25-C ) :   1.0577
B( 25-C , 26-H ) :   0.9600 B( 25-C , 27-H ) :   0.9580 B( 25-C , 28-C ) :   1.0672
B( 28-C , 29-H ) :   0.9764 B( 28-C , 30-H ) :   0.9801 B( 28-C , 31-H ) :   0.9776

Dispersion correction           -0.013292163
FINAL SINGLE POINT ENERGY     -1339.873856275248

DIPOLE MOMENT
-------------
                                X             Y             Z
Electronic contribution:    -14.99543     -11.41590      20.82113
Nuclear contribution   :     15.47789      11.85174     -21.13143
                        -----------------------------------------
Total Dipole Moment    :      0.48247       0.43584      -0.31031
                        -----------------------------------------
Magnitude (a.u.)       :      0.72043
Magnitude (Debye)      :      1.83119

Rotational constants in cm-1:     0.017020     0.007904     0.006429
Rotational constants in MHz :   510.252963   236.970822   192.738393

                             ****ORCA TERMINATED NORMALLY****
TOTAL RUN TIME: 0 days 0 hours 0 minutes 28 seconds 808 msec
