                         Program Version 4.2.1 -  RELEASE  -
|  1> ! wB97X-D3 SP def2-SVP
|  2> %pal
|  3> nprocs 16
|  4> end
|  5>
|  6> * xyz 0 1
|  7> S 	 -100.864 	 54.8711 	 121.984
|  8> C 	 -100.17 	 53.3662 	 121.323
|  9> C 	 -101.014 	 52.8502 	 120.377
| 10> C 	 -102.233 	 53.5829 	 120.232
| 11> C 	 -102.358 	 54.6586 	 121.12
| 12> H 	 -103.029 	 53.4438 	 119.52
| 13> C 	 -100.855 	 51.5546 	 119.627
| 14> H 	 -99.8471 	 51.4389 	 119.196
| 15> H 	 -101.482 	 51.6068 	 118.767
| 16> C 	 -101.1 	 50.335 	 120.599
| 17> H 	 -100.665 	 50.6253 	 121.54
| 18> H 	 -102.169 	 50.2382 	 120.928
| 19> C 	 -100.426 	 48.9833 	 120.337
| 20> H 	 -100.819 	 48.2038 	 121.01
| 21> H 	 -100.694 	 48.5978 	 119.289
| 22> H 	 -99.3303 	 49.1684 	 120.303
| 23> S 	 -103.023 	 57.2584 	 121.636
| 24> C 	 -104.701 	 57.7 	 121.636
| 25> C 	 -105.568 	 56.6554 	 121.383
| 26> C 	 -104.856 	 55.4097 	 121.091
| 27> C 	 -103.466 	 55.6058 	 121.227
| 28> H 	 -106.636 	 56.8292 	 121.322
| 29> C 	 -105.649 	 54.1157 	 120.739
| 30> H 	 -105.098 	 53.4726 	 119.985
| 31> H 	 -106.496 	 54.5045 	 120.224
| 32> C 	 -106.129 	 53.2399 	 121.984
| 33> H 	 -105.293 	 53.0286 	 122.644
| 34> H 	 -106.632 	 52.2636 	 121.65
| 35> C 	 -107.094 	 53.9008 	 122.96
| 36> H 	 -107.634 	 53.1283 	 123.566
| 37> H 	 -107.845 	 54.5784 	 122.444
| 38> H 	 -106.522 	 54.4403 	 123.704
| 39> H 	 -99.2165 	 52.8442 	 121.576
| 40> H 	 -105.117 	 58.7078 	 121.863
| 41> *
| 42>
| 43>                          ****END OF INPUT****

CARTESIAN COORDINATES (ANGSTROEM)
---------------------------------
  S    -100.864000   54.871100  121.984000
  C    -100.170000   53.366200  121.323000
  C    -101.014000   52.850200  120.377000
  C    -102.233000   53.582900  120.232000
  C    -102.358000   54.658600  121.120000
  H    -103.029000   53.443800  119.520000
  C    -100.855000   51.554600  119.627000
  H    -99.847100   51.438900  119.196000
  H    -101.482000   51.606800  118.767000
  C    -101.100000   50.335000  120.599000
  H    -100.665000   50.625300  121.540000
  H    -102.169000   50.238200  120.928000
  C    -100.426000   48.983300  120.337000
  H    -100.819000   48.203800  121.010000
  H    -100.694000   48.597800  119.289000
  H    -99.330300   49.168400  120.303000
  S    -103.023000   57.258400  121.636000
  C    -104.701000   57.700000  121.636000
  C    -105.568000   56.655400  121.383000
  C    -104.856000   55.409700  121.091000
  C    -103.466000   55.605800  121.227000
  H    -106.636000   56.829200  121.322000
  C    -105.649000   54.115700  120.739000
  H    -105.098000   53.472600  119.985000
  H    -106.496000   54.504500  120.224000
  C    -106.129000   53.239900  121.984000
  H    -105.293000   53.028600  122.644000
  H    -106.632000   52.263600  121.650000
  C    -107.094000   53.900800  122.960000
  H    -107.634000   53.128300  123.566000
  H    -107.845000   54.578400  122.444000
  H    -106.522000   54.440300  123.704000
  H    -99.216500   52.844200  121.576000
  H    -105.117000   58.707800  121.863000

 Total Charge           Charge          ....    0
 Multiplicity           Mult            ....    1
 Number of Electrons    NEL             ....  134
 Basis Dimension        Dim             ....  322

ORBITAL ENERGIES
----------------

  NO   OCC          E(Eh)            E(eV)
   0   2.0000     -88.971302     -2421.0322
   1   2.0000     -88.967902     -2420.9397
   2   2.0000     -10.333456      -281.1876
   3   2.0000     -10.331090      -281.1233
   4   2.0000     -10.320153      -280.8256
   5   2.0000     -10.317277      -280.7474
   6   2.0000     -10.314921      -280.6833
   7   2.0000     -10.305973      -280.4398
   8   2.0000     -10.299582      -280.2659
   9   2.0000     -10.298959      -280.2489
  10   2.0000     -10.295116      -280.1443
  11   2.0000     -10.294163      -280.1184
  12   2.0000     -10.291672      -280.0506
  13   2.0000     -10.289584      -279.9938
  14   2.0000     -10.288919      -279.9757
  15   2.0000     -10.281821      -279.7826
  16   2.0000      -8.086035      -220.0322
  17   2.0000      -8.082027      -219.9231
  18   2.0000      -6.044573      -164.4812
  19   2.0000      -6.040742      -164.3769
  20   2.0000      -6.040647      -164.3744
  21   2.0000      -6.036667      -164.2661
  22   2.0000      -6.036594      -164.2641
  23   2.0000      -6.032628      -164.1562
  24   2.0000      -1.005360       -27.3572
  25   2.0000      -0.981644       -26.7119
  26   2.0000      -0.908309       -24.7163
  27   2.0000      -0.900368       -24.5002
  28   2.0000      -0.866590       -23.5811
  29   2.0000      -0.851357       -23.1666
  30   2.0000      -0.843525       -22.9535
  31   2.0000      -0.811671       -22.0867
  32   2.0000      -0.783108       -21.3095
  33   2.0000      -0.772086       -21.0095
  34   2.0000      -0.704588       -19.1728
  35   2.0000      -0.697748       -18.9867
  36   2.0000      -0.683834       -18.6081
  37   2.0000      -0.662989       -18.0408
  38   2.0000      -0.634590       -17.2681
  39   2.0000      -0.616623       -16.7792
  40   2.0000      -0.589096       -16.0301
  41   2.0000      -0.565758       -15.3951
  42   2.0000      -0.556230       -15.1358
  43   2.0000      -0.548755       -14.9324
  44   2.0000      -0.538337       -14.6489
  45   2.0000      -0.521618       -14.1940
  46   2.0000      -0.520016       -14.1504
  47   2.0000      -0.507873       -13.8199
  48   2.0000      -0.504065       -13.7163
  49   2.0000      -0.497861       -13.5475
  50   2.0000      -0.487762       -13.2727
  51   2.0000      -0.476034       -12.9535
  52   2.0000      -0.473042       -12.8721
  53   2.0000      -0.466348       -12.6900
  54   2.0000      -0.461638       -12.5618
  55   2.0000      -0.450342       -12.2544
  56   2.0000      -0.438718       -11.9381
  57   2.0000      -0.434689       -11.8285
  58   2.0000      -0.432146       -11.7593
  59   2.0000      -0.425976       -11.5914
  60   2.0000      -0.418993       -11.4014
  61   2.0000      -0.415463       -11.3053
  62   2.0000      -0.408112       -11.1053
  63   2.0000      -0.355789        -9.6815
  64   2.0000      -0.335724        -9.1355
  65   2.0000      -0.329442        -8.9646
  66   2.0000      -0.283949        -7.7267
  67   0.0000       0.021258         0.5785
  68   0.0000       0.076452         2.0804
  69   0.0000       0.097292         2.6475
  70   0.0000       0.115747         3.1496
  71   0.0000       0.132460         3.6044

MULLIKEN ATOMIC CHARGES
-----------------------
   0 S :    0.096876
   1 C :   -0.131308
   2 C :   -0.091331
   3 C :    0.006120
   4 C :   -0.119822
   5 H :    0.004669
   6 C :    0.099487
   7 H :    0.019554
   8 H :    0.016975
   9 C :   -0.085302
  10 H :    0.015951
  11 H :    0.031206
  12 C :   -0.068211
  13 H :    0.050991
  14 H :    0.030570
  15 H :    0.043255
  16 S :    0.115937
  17 C :   -0.097195
  18 C :   -0.039765
  19 C :   -0.061387
  20 C :   -0.151170
  21 H :    0.023686
  22 C :    0.071375
  23 H :    0.038731
  24 H :    0.019482
  25 C :   -0.083583
  26 H :    0.040345
  27 H :    0.046850
  28 C :   -0.084350
  29 H :    0.039034
  30 H :    0.034928
  31 H :    0.039321
  32 H :    0.061864
  33 H :    0.066215
Sum of atomic charges:   -0.0000000

LOEWDIN ATOMIC CHARGES
----------------------
   0 S :    0.393668
   1 C :   -0.200120
   2 C :   -0.062916
   3 C :   -0.069512
   4 C :   -0.190553
   5 H :    0.026225
   6 C :   -0.027036
   7 H :    0.031092
   8 H :    0.024794
   9 C :   -0.049873
  10 H :    0.021117
  11 H :    0.028985
  12 C :   -0.074908
  13 H :    0.033898
  14 H :    0.026217
  15 H :    0.028629
  16 S :    0.408495
  17 C :   -0.196903
  18 C :   -0.071047
  19 C :   -0.052762
  20 C :   -0.193339
  21 H :    0.032429
  22 C :   -0.028981
  23 H :    0.035636
  24 H :    0.025448
  25 C :   -0.045026
  26 H :    0.029267
  27 H :    0.032011
  28 C :   -0.076423
  29 H :    0.032698
  30 H :    0.024448
  31 H :    0.024383
  32 H :    0.042017
  33 H :    0.037939

  Mayer bond orders larger than 0.100000
B(  0-S ,  1-C ) :   1.1168 B(  0-S ,  4-C ) :   1.1520 B(  1-C ,  2-C ) :   1.6217
B(  1-C , 32-H ) :   0.9613 B(  2-C ,  3-C ) :   1.2411 B(  2-C ,  6-C ) :   1.0351
B(  3-C ,  4-C ) :   1.5606 B(  3-C ,  5-H ) :   0.9926 B(  4-C , 20-C ) :   1.0706
B(  6-C ,  7-H ) :   0.9387 B(  6-C ,  8-H ) :   0.9395 B(  6-C ,  9-C ) :   1.0396
B(  9-C , 10-H ) :   0.9600 B(  9-C , 11-H ) :   0.9538 B(  9-C , 12-C ) :   1.0760
B( 12-C , 13-H ) :   0.9713 B( 12-C , 14-H ) :   0.9760 B( 12-C , 15-H ) :   0.9742
B( 16-S , 17-C ) :   1.1449 B( 16-S , 20-C ) :   1.1369 B( 17-C , 18-C ) :   1.6428
B( 17-C , 33-H ) :   0.9590 B( 18-C , 19-C ) :   1.2267 B( 18-C , 21-H ) :   0.9837
B( 19-C , 20-C ) :   1.5997 B( 19-C , 22-C ) :   1.0211 B( 22-C , 23-H ) :   0.9452
B( 22-C , 24-H ) :   0.9356 B( 22-C , 25-C ) :   1.0561 B( 25-C , 26-H ) :   0.9608
B( 25-C , 27-H ) :   0.9624 B( 25-C , 28-C ) :   1.0716 B( 28-C , 29-H ) :   0.9724
B( 28-C , 30-H ) :   0.9751 B( 28-C , 31-H ) :   0.9779

Dispersion correction           -0.014093745
FINAL SINGLE POINT ENERGY     -1339.874005937606

DIPOLE MOMENT
-------------
                                X             Y             Z
Electronic contribution:     10.42772      26.95918       2.57299
Nuclear contribution   :    -10.85379     -27.41026      -2.71726
                        -----------------------------------------
Total Dipole Moment    :     -0.42607      -0.45108      -0.14427
                        -----------------------------------------
Magnitude (a.u.)       :      0.63704
Magnitude (Debye)      :      1.61923

Rotational constants in cm-1:     0.019644     0.008317     0.006345
Rotational constants in MHz :   588.915106   249.338188   190.215231

                             ****ORCA TERMINATED NORMALLY****
TOTAL RUN TIME: 0 days 0 hours 0 minutes 34 seconds 111 msec
