                         Program Version 4.2.1 -  RELEASE  -
|  1> ! wB97X-D3 SP def2-SVP
|  2> %pal
|  3> nprocs 16
|  4> end
|  5>
|  6> * xyz 0 1
|  7> S 	 -79.679 	 45.8076 	 122.433
|  8> C 	 -81.2878 	 45.6235 	 121.77
|  9> C 	 -82.0614 	 44.7668 	 122.49
| 10> C 	 -81.3219 	 44.0134 	 123.383
| 11> C 	 -79.9755 	 44.3621 	 123.428
| 12> H 	 -81.6788 	 43.3519 	 124.097
| 13> C 	 -83.5703 	 44.5678 	 122.295
| 14> H 	 -83.8273 	 43.5399 	 122.361
| 15> H 	 -83.7587 	 44.9909 	 121.307
| 16> C 	 -84.4476 	 45.3794 	 123.22
| 17> H 	 -85.4273 	 45.2147 	 122.675
| 18> H 	 -84.44 	 44.9604 	 124.273
| 19> C 	 -84.076 	 46.8617 	 123.359
| 20> H 	 -83.2992 	 46.8963 	 124.072
| 21> H 	 -83.9097 	 47.3323 	 122.37
| 22> H 	 -85.0163 	 47.2416 	 123.831
| 23> S 	 -78.3759 	 44.7679 	 125.578
| 24> C 	 -77.5294 	 43.4257 	 126.239
| 25> C 	 -77.5348 	 42.3722 	 125.384
| 26> C 	 -78.4184 	 42.5372 	 124.313
| 27> C 	 -79.0222 	 43.7773 	 124.334
| 28> H 	 -76.9056 	 41.563 	 125.731
| 29> C 	 -78.7723 	 41.3942 	 123.359
| 30> H 	 -77.8084 	 41.0302 	 122.948
| 31> H 	 -79.2977 	 41.844 	 122.544
| 32> C 	 -79.6489 	 40.3632 	 124.012
| 33> H 	 -80.4842 	 40.9722 	 124.432
| 34> H 	 -79.3591 	 39.6743 	 124.793
| 35> C 	 -80.333 	 39.3768 	 123.014
| 36> H 	 -79.6726 	 38.8796 	 122.256
| 37> H 	 -81.0414 	 39.9479 	 122.415
| 38> H 	 -80.9102 	 38.4771 	 123.369
| 39> H 	 -81.6702 	 46.3504 	 121.005
| 40> H 	 -76.7784 	 43.583 	 127.021
| 41> *
| 42>
| 43>                          ****END OF INPUT****

CARTESIAN COORDINATES (ANGSTROEM)
---------------------------------
  S    -79.679000   45.807600  122.433000
  C    -81.287800   45.623500  121.770000
  C    -82.061400   44.766800  122.490000
  C    -81.321900   44.013400  123.383000
  C    -79.975500   44.362100  123.428000
  H    -81.678800   43.351900  124.097000
  C    -83.570300   44.567800  122.295000
  H    -83.827300   43.539900  122.361000
  H    -83.758700   44.990900  121.307000
  C    -84.447600   45.379400  123.220000
  H    -85.427300   45.214700  122.675000
  H    -84.440000   44.960400  124.273000
  C    -84.076000   46.861700  123.359000
  H    -83.299200   46.896300  124.072000
  H    -83.909700   47.332300  122.370000
  H    -85.016300   47.241600  123.831000
  S    -78.375900   44.767900  125.578000
  C    -77.529400   43.425700  126.239000
  C    -77.534800   42.372200  125.384000
  C    -78.418400   42.537200  124.313000
  C    -79.022200   43.777300  124.334000
  H    -76.905600   41.563000  125.731000
  C    -78.772300   41.394200  123.359000
  H    -77.808400   41.030200  122.948000
  H    -79.297700   41.844000  122.544000
  C    -79.648900   40.363200  124.012000
  H    -80.484200   40.972200  124.432000
  H    -79.359100   39.674300  124.793000
  C    -80.333000   39.376800  123.014000
  H    -79.672600   38.879600  122.256000
  H    -81.041400   39.947900  122.415000
  H    -80.910200   38.477100  123.369000
  H    -81.670200   46.350400  121.005000
  H    -76.778400   43.583000  127.021000

 Total Charge           Charge          ....    0
 Multiplicity           Mult            ....    1
 Number of Electrons    NEL             ....  134
 Basis Dimension        Dim             ....  322

ORBITAL ENERGIES
----------------

  NO   OCC          E(Eh)            E(eV)
   0   2.0000     -88.968056     -2420.9439
   1   2.0000     -88.960879     -2420.7486
   2   2.0000     -10.327424      -281.0235
   3   2.0000     -10.318435      -280.7789
   4   2.0000     -10.314788      -280.6797
   5   2.0000     -10.309088      -280.5245
   6   2.0000     -10.299031      -280.2509
   7   2.0000     -10.293185      -280.0918
   8   2.0000     -10.291842      -280.0553
   9   2.0000     -10.291210      -280.0381
  10   2.0000     -10.289248      -279.9847
  11   2.0000     -10.287165      -279.9280
  12   2.0000     -10.286910      -279.9211
  13   2.0000     -10.285939      -279.8946
  14   2.0000     -10.281041      -279.7614
  15   2.0000     -10.278894      -279.7029
  16   2.0000      -8.082369      -219.9324
  17   2.0000      -8.077299      -219.7945
  18   2.0000      -6.040742      -164.3769
  19   2.0000      -6.037182      -164.2801
  20   2.0000      -6.035536      -164.2353
  21   2.0000      -6.033065      -164.1680
  22   2.0000      -6.031645      -164.1294
  23   2.0000      -6.028173      -164.0349
  24   2.0000      -1.015128       -27.6230
  25   2.0000      -0.991901       -26.9910
  26   2.0000      -0.915498       -24.9120
  27   2.0000      -0.910302       -24.7706
  28   2.0000      -0.872928       -23.7536
  29   2.0000      -0.852098       -23.1868
  30   2.0000      -0.847996       -23.0751
  31   2.0000      -0.814532       -22.1645
  32   2.0000      -0.787182       -21.4203
  33   2.0000      -0.773145       -21.0384
  34   2.0000      -0.706797       -19.2329
  35   2.0000      -0.697634       -18.9836
  36   2.0000      -0.683482       -18.5985
  37   2.0000      -0.658731       -17.9250
  38   2.0000      -0.642758       -17.4903
  39   2.0000      -0.623383       -16.9631
  40   2.0000      -0.596115       -16.2211
  41   2.0000      -0.569800       -15.5050
  42   2.0000      -0.563946       -15.3457
  43   2.0000      -0.563033       -15.3209
  44   2.0000      -0.540445       -14.7062
  45   2.0000      -0.526918       -14.3382
  46   2.0000      -0.518632       -14.1127
  47   2.0000      -0.512071       -13.9342
  48   2.0000      -0.505517       -13.7558
  49   2.0000      -0.493128       -13.4187
  50   2.0000      -0.488506       -13.2929
  51   2.0000      -0.482475       -13.1288
  52   2.0000      -0.469992       -12.7891
  53   2.0000      -0.466619       -12.6973
  54   2.0000      -0.461439       -12.5564
  55   2.0000      -0.448623       -12.2077
  56   2.0000      -0.445731       -12.1290
  57   2.0000      -0.431640       -11.7455
  58   2.0000      -0.429418       -11.6850
  59   2.0000      -0.423158       -11.5147
  60   2.0000      -0.416405       -11.3309
  61   2.0000      -0.411300       -11.1920
  62   2.0000      -0.409316       -11.1381
  63   2.0000      -0.342220        -9.3123
  64   2.0000      -0.333402        -9.0723
  65   2.0000      -0.330438        -8.9917
  66   2.0000      -0.297272        -8.0892
  67   0.0000       0.034996         0.9523
  68   0.0000       0.058383         1.5887
  69   0.0000       0.113867         3.0985
  70   0.0000       0.124082         3.3764
  71   0.0000       0.127057         3.4574

MULLIKEN ATOMIC CHARGES
-----------------------
   0 S :    0.114051
   1 C :   -0.150720
   2 C :   -0.072320
   3 C :    0.041449
   4 C :   -0.162605
   5 H :   -0.009725
   6 C :    0.113592
   7 H :    0.023315
   8 H :    0.010527
   9 C :   -0.140098
  10 H :    0.040111
  11 H :    0.037691
  12 C :   -0.028281
  13 H :    0.044431
  14 H :    0.035412
  15 H :    0.041029
  16 S :    0.107286
  17 C :   -0.103110
  18 C :   -0.045634
  19 C :   -0.032806
  20 C :   -0.189056
  21 H :    0.018797
  22 C :    0.135153
  23 H :    0.030875
  24 H :    0.019756
  25 C :   -0.062201
  26 H :    0.028878
  27 H :    0.037094
  28 C :   -0.099018
  29 H :    0.029503
  30 H :    0.023395
  31 H :    0.038967
  32 H :    0.062723
  33 H :    0.061539
Sum of atomic charges:   -0.0000000

LOEWDIN ATOMIC CHARGES
----------------------
   0 S :    0.393378
   1 C :   -0.199454
   2 C :   -0.070434
   3 C :   -0.051750
   4 C :   -0.184756
   5 H :    0.021019
   6 C :   -0.027576
   7 H :    0.025958
   8 H :    0.028742
   9 C :   -0.048345
  10 H :    0.029916
  11 H :    0.027112
  12 C :   -0.062647
  13 H :    0.023912
  14 H :    0.025581
  15 H :    0.035989
  16 S :    0.425772
  17 C :   -0.196025
  18 C :   -0.073230
  19 C :   -0.054979
  20 C :   -0.214134
  21 H :    0.035971
  22 C :   -0.022753
  23 H :    0.034186
  24 H :    0.030307
  25 C :   -0.044453
  26 H :    0.030751
  27 H :    0.026128
  28 C :   -0.083471
  29 H :    0.025692
  30 H :    0.019254
  31 H :    0.030483
  32 H :    0.033750
  33 H :    0.030109

  Mayer bond orders larger than 0.100000
B(  0-S ,  1-C ) :   1.1403 B(  0-S ,  4-C ) :   1.1460 B(  1-C ,  2-C ) :   1.6074
B(  1-C ,  4-C ) :   0.1019 B(  1-C , 32-H ) :   0.9570 B(  2-C ,  3-C ) :   1.2484
B(  2-C ,  6-C ) :   1.0142 B(  3-C ,  4-C ) :   1.5610 B(  3-C ,  5-H ) :   1.0074
B(  4-C , 20-C ) :   1.0484 B(  6-C ,  7-H ) :   0.9443 B(  6-C ,  8-H ) :   0.9356
B(  6-C ,  9-C ) :   1.0699 B(  9-C , 10-H ) :   0.9611 B(  9-C , 11-H ) :   0.9542
B(  9-C , 12-C ) :   1.0734 B( 12-C , 13-H ) :   0.9702 B( 12-C , 14-H ) :   0.9751
B( 12-C , 15-H ) :   0.9728 B( 16-S , 17-C ) :   1.1632 B( 16-S , 20-C ) :   1.1625
B( 17-C , 18-C ) :   1.6190 B( 17-C , 20-C ) :   0.1007 B( 17-C , 33-H ) :   0.9609
B( 18-C , 19-C ) :   1.2295 B( 18-C , 21-H ) :   0.9984 B( 19-C , 20-C ) :   1.5846
B( 19-C , 22-C ) :   1.0519 B( 22-C , 23-H ) :   0.9258 B( 22-C , 24-H ) :   0.9241
B( 22-C , 25-C ) :   1.0538 B( 25-C , 26-H ) :   0.9525 B( 25-C , 27-H ) :   0.9637
B( 25-C , 28-C ) :   1.0663 B( 28-C , 29-H ) :   0.9750 B( 28-C , 30-H ) :   0.9783
B( 28-C , 31-H ) :   0.9787

Dispersion correction           -0.014820293
FINAL SINGLE POINT ENERGY     -1339.861073125728

DIPOLE MOMENT
-------------
                                X             Y             Z
Electronic contribution:     19.45268      13.57698       4.82145
Nuclear contribution   :    -19.79904     -13.88684      -4.80472
                        -----------------------------------------
Total Dipole Moment    :     -0.34636      -0.30986       0.01673
                        -----------------------------------------
Magnitude (a.u.)       :      0.46503
Magnitude (Debye)      :      1.18202

Rotational constants in cm-1:     0.018386     0.009062     0.007170
Rotational constants in MHz :   551.211466   271.668233   214.955983

                             ****ORCA TERMINATED NORMALLY****
TOTAL RUN TIME: 0 days 0 hours 0 minutes 34 seconds 965 msec
