                         Program Version 4.2.1 -  RELEASE  -
|  1> ! wB97X-D3 SP def2-SVP
|  2> %pal
|  3> nprocs 16
|  4> end
|  5>
|  6> * xyz 0 1
|  7> S 	 -98.261 	 48.7959 	 128.598
|  8> C 	 -96.9553 	 49.2199 	 127.601
|  9> C 	 -97.1758 	 50.3695 	 126.866
| 10> C 	 -98.5608 	 50.7608 	 127.015
| 11> C 	 -99.3313 	 49.9434 	 127.815
| 12> H 	 -99.0267 	 51.5787 	 126.576
| 13> C 	 -96.2118 	 51.2075 	 125.973
| 14> H 	 -95.2077 	 50.8769 	 126.211
| 15> H 	 -96.1338 	 52.2605 	 126.22
| 16> C 	 -96.3817 	 51.0522 	 124.476
| 17> H 	 -95.9257 	 50.096 	 124.033
| 18> H 	 -97.4304 	 51.0496 	 124.328
| 19> C 	 -95.9592 	 52.2937 	 123.674
| 20> H 	 -94.9327 	 52.2496 	 123.58
| 21> H 	 -96.3368 	 52.2165 	 122.641
| 22> H 	 -96.189 	 53.1811 	 124.243
| 23> S 	 -101.121 	 51.2481 	 129.523
| 24> C 	 -102.835 	 51.2136 	 129.052
| 25> C 	 -103.058 	 50.5689 	 127.887
| 26> C 	 -101.84 	 50.0528 	 127.311
| 27> C 	 -100.706 	 50.2447 	 128.118
| 28> H 	 -104.056 	 50.493 	 127.435
| 29> C 	 -101.858 	 49.3398 	 125.954
| 30> H 	 -102.895 	 49.3723 	 125.658
| 31> H 	 -101.782 	 48.2818 	 126.211
| 32> C 	 -100.972 	 49.7772 	 124.782
| 33> H 	 -99.972 	 49.44 	 124.973
| 34> H 	 -101.084 	 50.8453 	 124.773
| 35> C 	 -101.438 	 49.3088 	 123.471
| 36> H 	 -102.484 	 49.6606 	 123.142
| 37> H 	 -101.401 	 48.2078 	 123.384
| 38> H 	 -100.722 	 49.7006 	 122.69
| 39> H 	 -95.9473 	 48.8044 	 127.661
| 40> H 	 -103.644 	 51.7034 	 129.47
| 41> *
| 42>
| 43>                          ****END OF INPUT****

CARTESIAN COORDINATES (ANGSTROEM)
---------------------------------
  S    -98.261000   48.795900  128.598000
  C    -96.955300   49.219900  127.601000
  C    -97.175800   50.369500  126.866000
  C    -98.560800   50.760800  127.015000
  C    -99.331300   49.943400  127.815000
  H    -99.026700   51.578700  126.576000
  C    -96.211800   51.207500  125.973000
  H    -95.207700   50.876900  126.211000
  H    -96.133800   52.260500  126.220000
  C    -96.381700   51.052200  124.476000
  H    -95.925700   50.096000  124.033000
  H    -97.430400   51.049600  124.328000
  C    -95.959200   52.293700  123.674000
  H    -94.932700   52.249600  123.580000
  H    -96.336800   52.216500  122.641000
  H    -96.189000   53.181100  124.243000
  S    -101.121000   51.248100  129.523000
  C    -102.835000   51.213600  129.052000
  C    -103.058000   50.568900  127.887000
  C    -101.840000   50.052800  127.311000
  C    -100.706000   50.244700  128.118000
  H    -104.056000   50.493000  127.435000
  C    -101.858000   49.339800  125.954000
  H    -102.895000   49.372300  125.658000
  H    -101.782000   48.281800  126.211000
  C    -100.972000   49.777200  124.782000
  H    -99.972000   49.440000  124.973000
  H    -101.084000   50.845300  124.773000
  C    -101.438000   49.308800  123.471000
  H    -102.484000   49.660600  123.142000
  H    -101.401000   48.207800  123.384000
  H    -100.722000   49.700600  122.690000
  H    -95.947300   48.804400  127.661000
  H    -103.644000   51.703400  129.470000

 Total Charge           Charge          ....    0
 Multiplicity           Mult            ....    1
 Number of Electrons    NEL             ....  134
 Basis Dimension        Dim             ....  322

ORBITAL ENERGIES
----------------

  NO   OCC          E(Eh)            E(eV)
   0   2.0000     -88.967696     -2420.9341
   1   2.0000     -88.965612     -2420.8774
   2   2.0000     -10.324855      -280.9536
   3   2.0000     -10.323298      -280.9112
   4   2.0000     -10.314970      -280.6846
   5   2.0000     -10.310903      -280.5739
   6   2.0000     -10.305115      -280.4164
   7   2.0000     -10.304585      -280.4020
   8   2.0000     -10.294341      -280.1233
   9   2.0000     -10.292142      -280.0634
  10   2.0000     -10.287846      -279.9465
  11   2.0000     -10.285205      -279.8746
  12   2.0000     -10.284946      -279.8676
  13   2.0000     -10.284307      -279.8502
  14   2.0000     -10.277504      -279.6651
  15   2.0000     -10.273094      -279.5451
  16   2.0000      -8.083120      -219.9529
  17   2.0000      -8.079386      -219.8513
  18   2.0000      -6.041616      -164.4007
  19   2.0000      -6.038076      -164.3044
  20   2.0000      -6.037507      -164.2889
  21   2.0000      -6.034109      -164.1965
  22   2.0000      -6.033866      -164.1898
  23   2.0000      -6.029933      -164.0828
  24   2.0000      -1.006637       -27.3920
  25   2.0000      -0.982208       -26.7272
  26   2.0000      -0.913144       -24.8479
  27   2.0000      -0.910796       -24.7840
  28   2.0000      -0.876065       -23.8389
  29   2.0000      -0.850401       -23.1406
  30   2.0000      -0.849403       -23.1134
  31   2.0000      -0.816915       -22.2294
  32   2.0000      -0.784065       -21.3355
  33   2.0000      -0.768283       -20.9060
  34   2.0000      -0.709233       -19.2992
  35   2.0000      -0.697065       -18.9681
  36   2.0000      -0.688637       -18.7388
  37   2.0000      -0.656693       -17.8695
  38   2.0000      -0.649530       -17.6746
  39   2.0000      -0.618698       -16.8356
  40   2.0000      -0.589791       -16.0490
  41   2.0000      -0.575300       -15.6547
  42   2.0000      -0.573016       -15.5925
  43   2.0000      -0.564565       -15.3626
  44   2.0000      -0.527320       -14.3491
  45   2.0000      -0.522131       -14.2079
  46   2.0000      -0.514645       -14.0042
  47   2.0000      -0.507613       -13.8129
  48   2.0000      -0.506634       -13.7862
  49   2.0000      -0.502631       -13.6773
  50   2.0000      -0.497017       -13.5245
  51   2.0000      -0.476777       -12.9738
  52   2.0000      -0.472196       -12.8491
  53   2.0000      -0.462334       -12.5807
  54   2.0000      -0.455169       -12.3858
  55   2.0000      -0.454530       -12.3684
  56   2.0000      -0.445577       -12.1248
  57   2.0000      -0.441534       -12.0147
  58   2.0000      -0.425944       -11.5905
  59   2.0000      -0.422756       -11.5038
  60   2.0000      -0.417883       -11.3712
  61   2.0000      -0.417379       -11.3574
  62   2.0000      -0.409091       -11.1319
  63   2.0000      -0.339844        -9.2476
  64   2.0000      -0.327969        -8.9245
  65   2.0000      -0.321974        -8.7614
  66   2.0000      -0.306435        -8.3385
  67   0.0000       0.043253         1.1770
  68   0.0000       0.053883         1.4662
  69   0.0000       0.112735         3.0677
  70   0.0000       0.119372         3.2483
  71   0.0000       0.132304         3.6002

MULLIKEN ATOMIC CHARGES
-----------------------
   0 S :    0.132000
   1 C :   -0.113873
   2 C :   -0.087085
   3 C :    0.060328
   4 C :   -0.190478
   5 H :   -0.010189
   6 C :    0.087040
   7 H :    0.002530
   8 H :    0.026717
   9 C :   -0.090058
  10 H :    0.044412
  11 H :    0.019164
  12 C :   -0.028044
  13 H :    0.009768
  14 H :    0.041103
  15 H :    0.030441
  16 S :    0.108209
  17 C :   -0.042114
  18 C :   -0.042180
  19 C :   -0.070755
  20 C :   -0.165445
  21 H :    0.029283
  22 C :    0.080116
  23 H :   -0.013019
  24 H :    0.032752
  25 C :   -0.025392
  26 H :    0.054685
  27 H :    0.021748
  28 C :   -0.085794
  29 H :    0.039793
  30 H :    0.032800
  31 H :    0.039221
  32 H :    0.050021
  33 H :    0.022297
Sum of atomic charges:    0.0000000

LOEWDIN ATOMIC CHARGES
----------------------
   0 S :    0.430018
   1 C :   -0.209410
   2 C :   -0.065724
   3 C :   -0.037538
   4 C :   -0.211986
   5 H :    0.018391
   6 C :   -0.031917
   7 H :    0.025794
   8 H :    0.031773
   9 C :   -0.044797
  10 H :    0.033355
  11 H :    0.015731
  12 C :   -0.057991
  13 H :    0.012269
  14 H :    0.033183
  15 H :    0.024075
  16 S :    0.383241
  17 C :   -0.164245
  18 C :   -0.074100
  19 C :   -0.045782
  20 C :   -0.200776
  21 H :    0.037519
  22 C :   -0.036290
  23 H :    0.023065
  24 H :    0.035452
  25 C :   -0.043333
  26 H :    0.028531
  27 H :    0.025291
  28 C :   -0.071831
  29 H :    0.030264
  30 H :    0.024075
  31 H :    0.033071
  32 H :    0.032782
  33 H :    0.017841

  Mayer bond orders larger than 0.100000
B(  0-S ,  1-C ) :   1.1697 B(  0-S ,  4-C ) :   1.1317 B(  1-C ,  2-C ) :   1.6115
B(  1-C , 32-H ) :   0.9599 B(  2-C ,  3-C ) :   1.2356 B(  2-C ,  6-C ) :   1.0219
B(  3-C ,  4-C ) :   1.5838 B(  3-C ,  5-H ) :   1.0026 B(  4-C , 20-C ) :   1.0590
B(  6-C ,  7-H ) :   0.9298 B(  6-C ,  8-H ) :   0.9480 B(  6-C ,  9-C ) :   1.0580
B(  9-C , 10-H ) :   0.9533 B(  9-C , 11-H ) :   0.9644 B(  9-C , 12-C ) :   1.0782
B( 12-C , 13-H ) :   0.9762 B( 12-C , 14-H ) :   0.9730 B( 12-C , 15-H ) :   0.9740
B( 16-S , 17-C ) :   1.1375 B( 16-S , 20-C ) :   1.1175 B( 17-C , 18-C ) :   1.6533
B( 17-C , 33-H ) :   0.9639 B( 18-C , 19-C ) :   1.2372 B( 18-C , 21-H ) :   0.9796
B( 19-C , 20-C ) :   1.6185 B( 19-C , 22-C ) :   1.0318 B( 22-C , 23-H ) :   0.9299
B( 22-C , 24-H ) :   0.9204 B( 22-C , 25-C ) :   1.0615 B( 25-C , 26-H ) :   0.9404
B( 25-C , 27-H ) :   0.9517 B( 25-C , 28-C ) :   1.1060 B( 28-C , 29-H ) :   0.9691
B( 28-C , 30-H ) :   0.9717 B( 28-C , 31-H ) :   0.9702

Dispersion correction           -0.014743088
FINAL SINGLE POINT ENERGY     -1339.861684871436

DIPOLE MOMENT
-------------
                                X             Y             Z
Electronic contribution:     -6.07380      -4.07233      30.41339
Nuclear contribution   :      6.13701       4.30326     -31.06173
                        -----------------------------------------
Total Dipole Moment    :      0.06321       0.23093      -0.64834
                        -----------------------------------------
Magnitude (a.u.)       :      0.69114
Magnitude (Debye)      :      1.75673

Rotational constants in cm-1:     0.017020     0.009219     0.007298
Rotational constants in MHz :   510.243003   276.380553   218.787467

                             ****ORCA TERMINATED NORMALLY****
TOTAL RUN TIME: 0 days 0 hours 0 minutes 34 seconds 860 msec
