                         Program Version 4.2.1 -  RELEASE  -
|  1> ! wB97X-D3 SP def2-SVP
|  2> %pal
|  3> nprocs 16
|  4> end
|  5>
|  6> * xyz 0 1
|  7> S 	 -106.218 	 41.7447 	 128.885
|  8> C 	 -104.762 	 41.95 	 129.82
|  9> C 	 -103.728 	 41.2138 	 129.344
| 10> C 	 -104.085 	 40.5123 	 128.177
| 11> C 	 -105.36 	 40.7833 	 127.676
| 12> H 	 -103.412 	 39.7883 	 127.733
| 13> C 	 -102.405 	 41.0585 	 130.041
| 14> H 	 -102.084 	 40.0952 	 129.664
| 15> H 	 -102.586 	 40.8204 	 131.132
| 16> C 	 -101.317 	 42.044 	 129.669
| 17> H 	 -101.139 	 42.154 	 128.613
| 18> H 	 -101.558 	 43.0906 	 130.016
| 19> C 	 -100.007 	 41.6675 	 130.305
| 20> H 	 -99.4904 	 40.849 	 129.751
| 21> H 	 -99.2997 	 42.4682 	 130.297
| 22> H 	 -100.203 	 41.2871 	 131.32
| 23> S 	 -107.696 	 39.5213 	 127.089
| 24> C 	 -107.864 	 38.7376 	 125.537
| 25> C 	 -106.667 	 38.8316 	 124.799
| 26> C 	 -105.639 	 39.5899 	 125.394
| 27> C 	 -106.082 	 40.0244 	 126.649
| 28> H 	 -106.645 	 38.406 	 123.817
| 29> C 	 -104.461 	 40.1029 	 124.676
| 30> H 	 -104.371 	 39.4769 	 123.752
| 31> H 	 -103.665 	 39.8171 	 125.303
| 32> C 	 -104.501 	 41.5168 	 124.184
| 33> H 	 -104.47 	 42.2142 	 125.061
| 34> H 	 -105.48 	 41.5182 	 123.635
| 35> C 	 -103.287 	 41.886 	 123.304
| 36> H 	 -103.749 	 42.0736 	 122.316
| 37> H 	 -102.529 	 41.1601 	 123.12
| 38> H 	 -102.811 	 42.8795 	 123.538
| 39> H 	 -104.664 	 42.7004 	 130.677
| 40> H 	 -108.757 	 38.2284 	 125.267
| 41> *
| 42>
| 43>                          ****END OF INPUT****

CARTESIAN COORDINATES (ANGSTROEM)
---------------------------------
  S    -106.218000   41.744700  128.885000
  C    -104.762000   41.950000  129.820000
  C    -103.728000   41.213800  129.344000
  C    -104.085000   40.512300  128.177000
  C    -105.360000   40.783300  127.676000
  H    -103.412000   39.788300  127.733000
  C    -102.405000   41.058500  130.041000
  H    -102.084000   40.095200  129.664000
  H    -102.586000   40.820400  131.132000
  C    -101.317000   42.044000  129.669000
  H    -101.139000   42.154000  128.613000
  H    -101.558000   43.090600  130.016000
  C    -100.007000   41.667500  130.305000
  H    -99.490400   40.849000  129.751000
  H    -99.299700   42.468200  130.297000
  H    -100.203000   41.287100  131.320000
  S    -107.696000   39.521300  127.089000
  C    -107.864000   38.737600  125.537000
  C    -106.667000   38.831600  124.799000
  C    -105.639000   39.589900  125.394000
  C    -106.082000   40.024400  126.649000
  H    -106.645000   38.406000  123.817000
  C    -104.461000   40.102900  124.676000
  H    -104.371000   39.476900  123.752000
  H    -103.665000   39.817100  125.303000
  C    -104.501000   41.516800  124.184000
  H    -104.470000   42.214200  125.061000
  H    -105.480000   41.518200  123.635000
  C    -103.287000   41.886000  123.304000
  H    -103.749000   42.073600  122.316000
  H    -102.529000   41.160100  123.120000
  H    -102.811000   42.879500  123.538000
  H    -104.664000   42.700400  130.677000
  H    -108.757000   38.228400  125.267000

 Total Charge           Charge          ....    0
 Multiplicity           Mult            ....    1
 Number of Electrons    NEL             ....  134
 Basis Dimension        Dim             ....  322

ORBITAL ENERGIES
----------------

  NO   OCC          E(Eh)            E(eV)
   0   2.0000     -88.967690     -2420.9339
   1   2.0000     -88.965830     -2420.8833
   2   2.0000     -10.330719      -281.1131
   3   2.0000     -10.326557      -280.9999
   4   2.0000     -10.314434      -280.6700
   5   2.0000     -10.314299      -280.6663
   6   2.0000     -10.297157      -280.1999
   7   2.0000     -10.294610      -280.1306
   8   2.0000     -10.293445      -280.0989
   9   2.0000     -10.292996      -280.0867
  10   2.0000     -10.292804      -280.0814
  11   2.0000     -10.290143      -280.0090
  12   2.0000     -10.288011      -279.9510
  13   2.0000     -10.284305      -279.8502
  14   2.0000     -10.279318      -279.7145
  15   2.0000     -10.277187      -279.6565
  16   2.0000      -8.082430      -219.9341
  17   2.0000      -8.080410      -219.8791
  18   2.0000      -6.040753      -164.3772
  19   2.0000      -6.038989      -164.3292
  20   2.0000      -6.036917      -164.2729
  21   2.0000      -6.034929      -164.2188
  22   2.0000      -6.033409      -164.1774
  23   2.0000      -6.031128      -164.1153
  24   2.0000      -1.008121       -27.4324
  25   2.0000      -0.985567       -26.8186
  26   2.0000      -0.918083       -24.9823
  27   2.0000      -0.915472       -24.9113
  28   2.0000      -0.869416       -23.6580
  29   2.0000      -0.854978       -23.2651
  30   2.0000      -0.848113       -23.0783
  31   2.0000      -0.810474       -22.0541
  32   2.0000      -0.783698       -21.3255
  33   2.0000      -0.770347       -20.9622
  34   2.0000      -0.705325       -19.1929
  35   2.0000      -0.701351       -19.0847
  36   2.0000      -0.691510       -18.8169
  37   2.0000      -0.667186       -18.1550
  38   2.0000      -0.632906       -17.2222
  39   2.0000      -0.621585       -16.9142
  40   2.0000      -0.595132       -16.1944
  41   2.0000      -0.571864       -15.5612
  42   2.0000      -0.566579       -15.4174
  43   2.0000      -0.558542       -15.1987
  44   2.0000      -0.533950       -14.5295
  45   2.0000      -0.525413       -14.2972
  46   2.0000      -0.519773       -14.1437
  47   2.0000      -0.515716       -14.0334
  48   2.0000      -0.504244       -13.7212
  49   2.0000      -0.491810       -13.3828
  50   2.0000      -0.491131       -13.3644
  51   2.0000      -0.483485       -13.1563
  52   2.0000      -0.466810       -12.7026
  53   2.0000      -0.460945       -12.5430
  54   2.0000      -0.456018       -12.4089
  55   2.0000      -0.449553       -12.2330
  56   2.0000      -0.443557       -12.0698
  57   2.0000      -0.440727       -11.9928
  58   2.0000      -0.434600       -11.8261
  59   2.0000      -0.428500       -11.6601
  60   2.0000      -0.421363       -11.4659
  61   2.0000      -0.409346       -11.1389
  62   2.0000      -0.405878       -11.0445
  63   2.0000      -0.351489        -9.5645
  64   2.0000      -0.335273        -9.1232
  65   2.0000      -0.331601        -9.0233
  66   2.0000      -0.280998        -7.6463
  67   0.0000       0.022355         0.6083
  68   0.0000       0.073015         1.9868
  69   0.0000       0.102521         2.7897
  70   0.0000       0.128752         3.5035
  71   0.0000       0.133501         3.6327

MULLIKEN ATOMIC CHARGES
-----------------------
   0 S :    0.090936
   1 C :   -0.148240
   2 C :   -0.086367
   3 C :    0.015956
   4 C :   -0.124669
   5 H :    0.015430
   6 C :    0.047668
   7 H :    0.003183
   8 H :    0.047358
   9 C :   -0.046314
  10 H :    0.027160
  11 H :    0.028783
  12 C :   -0.047414
  13 H :    0.030485
  14 H :    0.029195
  15 H :    0.030315
  16 S :    0.114010
  17 C :   -0.097037
  18 C :   -0.032891
  19 C :   -0.046616
  20 C :   -0.162332
  21 H :    0.008503
  22 C :    0.086719
  23 H :    0.012744
  24 H :    0.007161
  25 C :   -0.068943
  26 H :    0.051178
  27 H :    0.045466
  28 C :   -0.054850
  29 H :    0.028858
  30 H :    0.032358
  31 H :    0.042913
  32 H :    0.071991
  33 H :    0.047304
Sum of atomic charges:    0.0000000

LOEWDIN ATOMIC CHARGES
----------------------
   0 S :    0.396372
   1 C :   -0.203453
   2 C :   -0.076318
   3 C :   -0.060780
   4 C :   -0.191288
   5 H :    0.028436
   6 C :   -0.036407
   7 H :    0.029003
   8 H :    0.041675
   9 C :   -0.042710
  10 H :    0.025740
  11 H :    0.026769
  12 C :   -0.065474
  13 H :    0.026660
  14 H :    0.021881
  15 H :    0.025800
  16 S :    0.414283
  17 C :   -0.189723
  18 C :   -0.063826
  19 C :   -0.064757
  20 C :   -0.189774
  21 H :    0.026603
  22 C :   -0.037063
  23 H :    0.033174
  24 H :    0.021740
  25 C :   -0.039896
  26 H :    0.033057
  27 H :    0.034532
  28 C :   -0.076685
  29 H :    0.033248
  30 H :    0.020013
  31 H :    0.034609
  32 H :    0.043712
  33 H :    0.020847

  Mayer bond orders larger than 0.100000
B(  0-S ,  1-C ) :   1.1408 B(  0-S ,  4-C ) :   1.1490 B(  1-C ,  2-C ) :   1.6076
B(  1-C , 32-H ) :   0.9563 B(  2-C ,  3-C ) :   1.2924 B(  2-C ,  6-C ) :   1.0067
B(  3-C ,  4-C ) :   1.5318 B(  3-C ,  5-H ) :   0.9836 B(  4-C , 20-C ) :   1.0605
B(  6-C ,  7-H ) :   0.9356 B(  6-C ,  8-H ) :   0.9413 B(  6-C ,  9-C ) :   1.0631
B(  9-C , 10-H ) :   0.9528 B(  9-C , 11-H ) :   0.9546 B(  9-C , 12-C ) :   1.0855
B( 12-C , 13-H ) :   0.9745 B( 12-C , 14-H ) :   0.9731 B( 12-C , 15-H ) :   0.9729
B( 16-S , 17-C ) :   1.1539 B( 16-S , 20-C ) :   1.1683 B( 17-C , 18-C ) :   1.5741
B( 17-C , 20-C ) :   0.1043 B( 17-C , 33-H ) :   0.9766 B( 18-C , 19-C ) :   1.2691
B( 18-C , 21-H ) :   0.9912 B( 19-C , 20-C ) :   1.5471 B( 19-C , 22-C ) :   1.0537
B( 22-C , 23-H ) :   0.9294 B( 22-C , 24-H ) :   0.9072 B( 22-C , 25-C ) :   1.0664
B( 25-C , 26-H ) :   0.9549 B( 25-C , 27-H ) :   0.9624 B( 25-C , 28-C ) :   1.0543
B( 28-C , 29-H ) :   0.9761 B( 28-C , 30-H ) :   0.9788 B( 28-C , 31-H ) :   0.9777

Dispersion correction           -0.013737188
FINAL SINGLE POINT ENERGY     -1339.871077177857

DIPOLE MOMENT
-------------
                                X             Y             Z
Electronic contribution:    -28.80520      -5.85342       6.25626
Nuclear contribution   :     29.40754       5.79131      -6.44162
                        -----------------------------------------
Total Dipole Moment    :      0.60234      -0.06210      -0.18535
                        -----------------------------------------
Magnitude (a.u.)       :      0.63327
Magnitude (Debye)      :      1.60964

Rotational constants in cm-1:     0.018212     0.008545     0.006522
Rotational constants in MHz :   545.985332   256.169751   195.525708

                             ****ORCA TERMINATED NORMALLY****
TOTAL RUN TIME: 0 days 0 hours 0 minutes 31 seconds 581 msec
