                         Program Version 4.2.1 -  RELEASE  -
|  1> ! wB97X-D3 SP def2-SVP
|  2> %pal
|  3> nprocs 16
|  4> end
|  5>
|  6> * xyz 0 1
|  7> S 	 20.8743 	 3.78714 	 86.2122
|  8> C 	 22.2117 	 4.83094 	 86.373
|  9> C 	 23.3694 	 4.14689 	 86.1761
| 10> C 	 23.1687 	 2.78175 	 85.8717
| 11> C 	 21.8383 	 2.49285 	 85.8013
| 12> H 	 24.0476 	 2.08635 	 85.7386
| 13> C 	 24.7624 	 4.73648 	 86.1449
| 14> H 	 24.9439 	 5.8474 	 85.9564
| 15> H 	 25.2312 	 4.27267 	 85.2529
| 16> C 	 25.5802 	 4.4217 	 87.472
| 17> H 	 25.2153 	 5.03264 	 88.2528
| 18> H 	 25.354 	 3.41579 	 87.7966
| 19> C 	 27.1642 	 4.58613 	 87.339
| 20> H 	 27.5188 	 4.47721 	 88.3646
| 21> H 	 27.554 	 3.80514 	 86.7004
| 22> H 	 27.4699 	 5.52644 	 86.9788
| 23> S 	 20.7439 	 0.151531 	 86.9137
| 24> C 	 20.1751 	 -1.03224 	 85.7735
| 25> C 	 20.6454 	 -0.78198 	 84.5121
| 26> C 	 21.2229 	 0.524135 	 84.3171
| 27> C 	 21.2796 	 1.20147 	 85.5488
| 28> H 	 20.4911 	 -1.59893 	 83.8441
| 29> C 	 21.6432 	 1.03675 	 82.9523
| 30> H 	 21.4922 	 0.158458 	 82.3375
| 31> H 	 22.7572 	 1.20816 	 82.8573
| 32> C 	 20.9081 	 2.21441 	 82.3169
| 33> H 	 21.0744 	 3.15419 	 82.9633
| 34> H 	 19.8654 	 2.0317 	 82.3629
| 35> C 	 21.4425 	 2.40618 	 80.8991
| 36> H 	 21.0731 	 3.40109 	 80.6911
| 37> H 	 20.9769 	 1.761 	 80.1454
| 38> H 	 22.5007 	 2.36467 	 80.8173
| 39> H 	 22.0879 	 5.88582 	 86.4982
| 40> H 	 19.858 	 -2.03036 	 85.9364
| 41> *
| 42>
| 43>                          ****END OF INPUT****

CARTESIAN COORDINATES (ANGSTROEM)
---------------------------------
  S     20.874300    3.787140   86.212200
  C     22.211700    4.830940   86.373000
  C     23.369400    4.146890   86.176100
  C     23.168700    2.781750   85.871700
  C     21.838300    2.492850   85.801300
  H     24.047600    2.086350   85.738600
  C     24.762400    4.736480   86.144900
  H     24.943900    5.847400   85.956400
  H     25.231200    4.272670   85.252900
  C     25.580200    4.421700   87.472000
  H     25.215300    5.032640   88.252800
  H     25.354000    3.415790   87.796600
  C     27.164200    4.586130   87.339000
  H     27.518800    4.477210   88.364600
  H     27.554000    3.805140   86.700400
  H     27.469900    5.526440   86.978800
  S     20.743900    0.151531   86.913700
  C     20.175100   -1.032240   85.773500
  C     20.645400   -0.781980   84.512100
  C     21.222900    0.524135   84.317100
  C     21.279600    1.201470   85.548800
  H     20.491100   -1.598930   83.844100
  C     21.643200    1.036750   82.952300
  H     21.492200    0.158458   82.337500
  H     22.757200    1.208160   82.857300
  C     20.908100    2.214410   82.316900
  H     21.074400    3.154190   82.963300
  H     19.865400    2.031700   82.362900
  C     21.442500    2.406180   80.899100
  H     21.073100    3.401090   80.691100
  H     20.976900    1.761000   80.145400
  H     22.500700    2.364670   80.817300
  H     22.087900    5.885820   86.498200
  H     19.858000   -2.030360   85.936400

 Total Charge           Charge          ....    0
 Multiplicity           Mult            ....    1
 Number of Electrons    NEL             ....  134
 Basis Dimension        Dim             ....  322

ORBITAL ENERGIES
----------------

  NO   OCC          E(Eh)            E(eV)
   0   2.0000     -88.964891     -2420.8578
   1   2.0000     -88.963350     -2420.8158
   2   2.0000     -10.324701      -280.9494
   3   2.0000     -10.316768      -280.7335
   4   2.0000     -10.307658      -280.4856
   5   2.0000     -10.305056      -280.4148
   6   2.0000     -10.304737      -280.4062
   7   2.0000     -10.298507      -280.2366
   8   2.0000     -10.295227      -280.1474
   9   2.0000     -10.293080      -280.0889
  10   2.0000     -10.290247      -280.0118
  11   2.0000     -10.287610      -279.9401
  12   2.0000     -10.286601      -279.9126
  13   2.0000     -10.284979      -279.8685
  14   2.0000     -10.277794      -279.6730
  15   2.0000     -10.273176      -279.5473
  16   2.0000      -8.080705      -219.8872
  17   2.0000      -8.078830      -219.8361
  18   2.0000      -6.038937      -164.3278
  19   2.0000      -6.037387      -164.2857
  20   2.0000      -6.034724      -164.2132
  21   2.0000      -6.033609      -164.1828
  22   2.0000      -6.031699      -164.1309
  23   2.0000      -6.029429      -164.0691
  24   2.0000      -1.020608       -27.7722
  25   2.0000      -0.983423       -26.7603
  26   2.0000      -0.907877       -24.7046
  27   2.0000      -0.903914       -24.5967
  28   2.0000      -0.870682       -23.6925
  29   2.0000      -0.851223       -23.1630
  30   2.0000      -0.847820       -23.0704
  31   2.0000      -0.813124       -22.1262
  32   2.0000      -0.782119       -21.2825
  33   2.0000      -0.769890       -20.9498
  34   2.0000      -0.710775       -19.3412
  35   2.0000      -0.702756       -19.1230
  36   2.0000      -0.690817       -18.7981
  37   2.0000      -0.652639       -17.7592
  38   2.0000      -0.645634       -17.5686
  39   2.0000      -0.624084       -16.9822
  40   2.0000      -0.593738       -16.1564
  41   2.0000      -0.568193       -15.4613
  42   2.0000      -0.558609       -15.2005
  43   2.0000      -0.551358       -15.0032
  44   2.0000      -0.526245       -14.3199
  45   2.0000      -0.520826       -14.1724
  46   2.0000      -0.513372       -13.9696
  47   2.0000      -0.509073       -13.8526
  48   2.0000      -0.504071       -13.7165
  49   2.0000      -0.501519       -13.6470
  50   2.0000      -0.494918       -13.4674
  51   2.0000      -0.476695       -12.9715
  52   2.0000      -0.474252       -12.9051
  53   2.0000      -0.463974       -12.6254
  54   2.0000      -0.457203       -12.4411
  55   2.0000      -0.451983       -12.2991
  56   2.0000      -0.446347       -12.1457
  57   2.0000      -0.440287       -11.9808
  58   2.0000      -0.434738       -11.8298
  59   2.0000      -0.428858       -11.6698
  60   2.0000      -0.419530       -11.4160
  61   2.0000      -0.409954       -11.1554
  62   2.0000      -0.406596       -11.0640
  63   2.0000      -0.335995        -9.1429
  64   2.0000      -0.327291        -8.9060
  65   2.0000      -0.324542        -8.8312
  66   2.0000      -0.306117        -8.3299
  67   0.0000       0.043165         1.1746
  68   0.0000       0.059993         1.6325
  69   0.0000       0.112061         3.0493
  70   0.0000       0.123877         3.3709
  71   0.0000       0.135007         3.6737

MULLIKEN ATOMIC CHARGES
-----------------------
   0 S :    0.134544
   1 C :   -0.127032
   2 C :   -0.054142
   3 C :    0.029739
   4 C :   -0.192438
   5 H :    0.035970
   6 C :    0.006795
   7 H :    0.036429
   8 H :    0.028062
   9 C :   -0.078671
  10 H :    0.022162
  11 H :    0.022458
  12 C :   -0.029451
  13 H :    0.036234
  14 H :    0.035448
  15 H :    0.023411
  16 S :    0.112933
  17 C :   -0.064347
  18 C :   -0.063309
  19 C :    0.007479
  20 C :   -0.172637
  21 H :    0.008900
  22 C :    0.064099
  23 H :    0.004078
  24 H :    0.033627
  25 C :   -0.085619
  26 H :    0.049125
  27 H :    0.024094
  28 C :   -0.017343
  29 H :    0.025948
  30 H :    0.035602
  31 H :    0.027384
  32 H :    0.039950
  33 H :    0.040516
Sum of atomic charges:    0.0000000

LOEWDIN ATOMIC CHARGES
----------------------
   0 S :    0.467109
   1 C :   -0.208074
   2 C :   -0.070258
   3 C :   -0.062197
   4 C :   -0.231557
   5 H :    0.044592
   6 C :   -0.041272
   7 H :    0.034792
   8 H :    0.029561
   9 C :   -0.031699
  10 H :    0.017105
  11 H :    0.019290
  12 C :   -0.056991
  13 H :    0.029974
  14 H :    0.024385
  15 H :    0.015460
  16 S :    0.387412
  17 C :   -0.190905
  18 C :   -0.070962
  19 C :   -0.049600
  20 C :   -0.186763
  21 H :    0.026800
  22 C :   -0.041436
  23 H :    0.026969
  24 H :    0.035391
  25 C :   -0.037590
  26 H :    0.032040
  27 H :    0.020439
  28 C :   -0.059532
  29 H :    0.029377
  30 H :    0.027930
  31 H :    0.020248
  32 H :    0.024618
  33 H :    0.025343

  Mayer bond orders larger than 0.100000
B(  0-S ,  1-C ) :   1.1507 B(  0-S ,  4-C ) :   1.1962 B(  1-C ,  2-C ) :   1.5905
B(  1-C , 32-H ) :   0.9786 B(  2-C ,  3-C ) :   1.2680 B(  2-C ,  6-C ) :   1.0098
B(  3-C ,  4-C ) :   1.5502 B(  3-C ,  5-H ) :   0.9904 B(  4-C , 20-C ) :   1.0279
B(  6-C ,  7-H ) :   0.9530 B(  6-C ,  8-H ) :   0.9501 B(  6-C ,  9-C ) :   1.0412
B(  9-C , 10-H ) :   0.9599 B(  9-C , 11-H ) :   0.9632 B(  9-C , 12-C ) :   1.0696
B( 12-C , 13-H ) :   0.9764 B( 12-C , 14-H ) :   0.9796 B( 12-C , 15-H ) :   0.9788
B( 16-S , 17-C ) :   1.1363 B( 16-S , 20-C ) :   1.1386 B( 17-C , 18-C ) :   1.6639
B( 17-C , 33-H ) :   0.9596 B( 18-C , 19-C ) :   1.2215 B( 18-C , 21-H ) :   0.9860
B( 19-C , 20-C ) :   1.5954 B( 19-C , 22-C ) :   1.0366 B( 22-C , 23-H ) :   0.9309
B( 22-C , 24-H ) :   0.9260 B( 22-C , 25-C ) :   1.0685 B( 25-C , 26-H ) :   0.9563
B( 25-C , 27-H ) :   0.9509 B( 25-C , 28-C ) :   1.0763 B( 28-C , 29-H ) :   0.9726
B( 28-C , 30-H ) :   0.9742 B( 28-C , 31-H ) :   0.9747

Dispersion correction           -0.014197038
FINAL SINGLE POINT ENERGY     -1339.868820213770

DIPOLE MOMENT
-------------
                                X             Y             Z
Electronic contribution:    -19.21275      -8.46533      13.29630
Nuclear contribution   :     19.68334       8.52343     -13.69705
                        -----------------------------------------
Total Dipole Moment    :      0.47059       0.05810      -0.40074
                        -----------------------------------------
Magnitude (a.u.)       :      0.62082
Magnitude (Debye)      :      1.57800

Rotational constants in cm-1:     0.017575     0.008276     0.007044
Rotational constants in MHz :   526.878723   248.115852   211.163960

                             ****ORCA TERMINATED NORMALLY****
TOTAL RUN TIME: 0 days 0 hours 0 minutes 33 seconds 226 msec
