                         Program Version 4.2.1 -  RELEASE  -
|  1> ! wB97X-D3 SP def2-SVP
|  2> %pal
|  3> nprocs 16
|  4> end
|  5>
|  6> * xyz 0 1
|  7> S 	 -14.869 	 38.0282 	 37.9431
|  8> C 	 -14.238 	 38.1185 	 39.5896
|  9> C 	 -14.2938 	 36.8811 	 40.2305
| 10> C 	 -14.7348 	 35.8304 	 39.3106
| 11> C 	 -15.0686 	 36.3436 	 38.0846
| 12> H 	 -14.7188 	 34.7632 	 39.5311
| 13> C 	 -13.9589 	 36.5458 	 41.6951
| 14> H 	 -13.4954 	 35.5259 	 41.6742
| 15> H 	 -14.9186 	 36.4894 	 42.1888
| 16> C 	 -12.8327 	 37.3977 	 42.3723
| 17> H 	 -13.1605 	 38.4231 	 42.65
| 18> H 	 -12.5387 	 36.92 	 43.2619
| 19> C 	 -11.535 	 37.3866 	 41.4346
| 20> H 	 -11.2363 	 36.3364 	 41.2224
| 21> H 	 -11.6966 	 37.7649 	 40.4501
| 22> H 	 -10.7592 	 38.0411 	 41.8604
| 23> S 	 -14.4099 	 35.3046 	 35.6766
| 24> C 	 -15.5228 	 34.2531 	 34.889
| 25> C 	 -16.7255 	 34.2716 	 35.5477
| 26> C 	 -16.7002 	 35.0446 	 36.6996
| 27> C 	 -15.4803 	 35.5802 	 36.976
| 28> H 	 -17.4687 	 33.5972 	 35.1602
| 29> C 	 -17.9437 	 35.091 	 37.5261
| 30> H 	 -17.7023 	 34.7866 	 38.5397
| 31> H 	 -18.5498 	 34.3072 	 37.2541
| 32> C 	 -18.6183 	 36.4711 	 37.2947
| 33> H 	 -18.793 	 36.691 	 36.2185
| 34> H 	 -17.9874 	 37.3288 	 37.5124
| 35> C 	 -19.9531 	 36.5877 	 38.0747
| 36> H 	 -20.5023 	 37.4991 	 37.8233
| 37> H 	 -19.9217 	 36.5067 	 39.1691
| 38> H 	 -20.6668 	 35.7873 	 37.7583
| 39> H 	 -14.1585 	 39.0073 	 40.1159
| 40> H 	 -15.2944 	 33.719 	 33.9665
| 41> *
| 42>
| 43>                          ****END OF INPUT****

CARTESIAN COORDINATES (ANGSTROEM)
---------------------------------
  S    -14.869000   38.028200   37.943100
  C    -14.238000   38.118500   39.589600
  C    -14.293800   36.881100   40.230500
  C    -14.734800   35.830400   39.310600
  C    -15.068600   36.343600   38.084600
  H    -14.718800   34.763200   39.531100
  C    -13.958900   36.545800   41.695100
  H    -13.495400   35.525900   41.674200
  H    -14.918600   36.489400   42.188800
  C    -12.832700   37.397700   42.372300
  H    -13.160500   38.423100   42.650000
  H    -12.538700   36.920000   43.261900
  C    -11.535000   37.386600   41.434600
  H    -11.236300   36.336400   41.222400
  H    -11.696600   37.764900   40.450100
  H    -10.759200   38.041100   41.860400
  S    -14.409900   35.304600   35.676600
  C    -15.522800   34.253100   34.889000
  C    -16.725500   34.271600   35.547700
  C    -16.700200   35.044600   36.699600
  C    -15.480300   35.580200   36.976000
  H    -17.468700   33.597200   35.160200
  C    -17.943700   35.091000   37.526100
  H    -17.702300   34.786600   38.539700
  H    -18.549800   34.307200   37.254100
  C    -18.618300   36.471100   37.294700
  H    -18.793000   36.691000   36.218500
  H    -17.987400   37.328800   37.512400
  C    -19.953100   36.587700   38.074700
  H    -20.502300   37.499100   37.823300
  H    -19.921700   36.506700   39.169100
  H    -20.666800   35.787300   37.758300
  H    -14.158500   39.007300   40.115900
  H    -15.294400   33.719000   33.966500

 Total Charge           Charge          ....    0
 Multiplicity           Mult            ....    1
 Number of Electrons    NEL             ....  134
 Basis Dimension        Dim             ....  322

ORBITAL ENERGIES
----------------

  NO   OCC          E(Eh)            E(eV)
   0   2.0000     -88.966084     -2420.8902
   1   2.0000     -88.960078     -2420.7268
   2   2.0000     -10.319285      -280.8020
   3   2.0000     -10.310435      -280.5612
   4   2.0000     -10.309582      -280.5380
   5   2.0000     -10.308114      -280.4981
   6   2.0000     -10.306054      -280.4420
   7   2.0000     -10.300053      -280.2787
   8   2.0000     -10.294042      -280.1151
   9   2.0000     -10.294031      -280.1148
  10   2.0000     -10.289468      -279.9906
  11   2.0000     -10.287532      -279.9380
  12   2.0000     -10.282924      -279.8126
  13   2.0000     -10.280243      -279.7396
  14   2.0000     -10.278558      -279.6938
  15   2.0000     -10.277239      -279.6579
  16   2.0000      -8.081242      -219.9018
  17   2.0000      -8.076426      -219.7707
  18   2.0000      -6.039700      -164.3486
  19   2.0000      -6.035696      -164.2396
  20   2.0000      -6.034686      -164.2121
  21   2.0000      -6.032022      -164.1397
  22   2.0000      -6.030614      -164.1013
  23   2.0000      -6.027452      -164.0153
  24   2.0000      -1.018674       -27.7195
  25   2.0000      -0.988187       -26.8899
  26   2.0000      -0.907175       -24.6855
  27   2.0000      -0.906598       -24.6698
  28   2.0000      -0.870352       -23.6835
  29   2.0000      -0.848010       -23.0755
  30   2.0000      -0.843341       -22.9485
  31   2.0000      -0.809639       -22.0314
  32   2.0000      -0.781203       -21.2576
  33   2.0000      -0.772344       -21.0165
  34   2.0000      -0.709170       -19.2975
  35   2.0000      -0.708163       -19.2701
  36   2.0000      -0.698428       -19.0052
  37   2.0000      -0.664159       -18.0727
  38   2.0000      -0.642484       -17.4829
  39   2.0000      -0.609612       -16.5884
  40   2.0000      -0.595084       -16.1931
  41   2.0000      -0.571895       -15.5620
  42   2.0000      -0.559541       -15.2259
  43   2.0000      -0.549043       -14.9402
  44   2.0000      -0.538472       -14.6526
  45   2.0000      -0.527602       -14.3568
  46   2.0000      -0.512922       -13.9573
  47   2.0000      -0.507232       -13.8025
  48   2.0000      -0.505720       -13.7614
  49   2.0000      -0.499528       -13.5928
  50   2.0000      -0.485072       -13.1995
  51   2.0000      -0.480459       -13.0739
  52   2.0000      -0.475251       -12.9322
  53   2.0000      -0.464611       -12.6427
  54   2.0000      -0.455568       -12.3966
  55   2.0000      -0.447536       -12.1781
  56   2.0000      -0.445433       -12.1209
  57   2.0000      -0.433574       -11.7982
  58   2.0000      -0.430209       -11.7066
  59   2.0000      -0.427811       -11.6413
  60   2.0000      -0.419145       -11.4055
  61   2.0000      -0.414899       -11.2900
  62   2.0000      -0.409090       -11.1319
  63   2.0000      -0.337759        -9.1909
  64   2.0000      -0.326802        -8.8927
  65   2.0000      -0.325993        -8.8707
  66   2.0000      -0.304015        -8.2727
  67   0.0000       0.048207         1.3118
  68   0.0000       0.059858         1.6288
  69   0.0000       0.115892         3.1536
  70   0.0000       0.124984         3.4010
  71   0.0000       0.135506         3.6873

MULLIKEN ATOMIC CHARGES
-----------------------
   0 S :    0.122366
   1 C :   -0.093214
   2 C :   -0.124582
   3 C :    0.036877
   4 C :   -0.168313
   5 H :    0.019177
   6 C :    0.043434
   7 H :    0.032920
   8 H :    0.052660
   9 C :   -0.054636
  10 H :    0.035310
  11 H :    0.027091
  12 C :   -0.074883
  13 H :    0.032557
  14 H :    0.034095
  15 H :    0.042013
  16 S :    0.120346
  17 C :   -0.106494
  18 C :   -0.039947
  19 C :   -0.039301
  20 C :   -0.186990
  21 H :    0.014328
  22 C :    0.182246
  23 H :    0.015169
  24 H :   -0.019717
  25 C :   -0.080281
  26 H :    0.029085
  27 H :    0.025465
  28 C :   -0.050031
  29 H :    0.029688
  30 H :    0.036233
  31 H :    0.022139
  32 H :    0.027839
  33 H :    0.057348
Sum of atomic charges:   -0.0000000

LOEWDIN ATOMIC CHARGES
----------------------
   0 S :    0.423715
   1 C :   -0.195104
   2 C :   -0.051368
   3 C :   -0.059427
   4 C :   -0.207763
   5 H :    0.034362
   6 C :   -0.034577
   7 H :    0.036433
   8 H :    0.034375
   9 C :   -0.035286
  10 H :    0.022827
  11 H :    0.019776
  12 C :   -0.067630
  13 H :    0.029615
  14 H :    0.019756
  15 H :    0.028304
  16 S :    0.436483
  17 C :   -0.191977
  18 C :   -0.077348
  19 C :   -0.055783
  20 C :   -0.227663
  21 H :    0.031940
  22 C :   -0.019456
  23 H :    0.032004
  24 H :    0.017172
  25 C :   -0.037466
  26 H :    0.031619
  27 H :    0.020539
  28 C :   -0.075681
  29 H :    0.024774
  30 H :    0.024850
  31 H :    0.025183
  32 H :    0.012323
  33 H :    0.030480

  Mayer bond orders larger than 0.100000
B(  0-S ,  1-C ) :   1.1212 B(  0-S ,  4-C ) :   1.1660 B(  1-C ,  2-C ) :   1.6385
B(  1-C , 32-H ) :   0.9702 B(  2-C ,  3-C ) :   1.2230 B(  2-C ,  6-C ) :   0.9999
B(  3-C ,  4-C ) :   1.6043 B(  3-C ,  5-H ) :   0.9900 B(  4-C , 20-C ) :   1.0221
B(  6-C ,  7-H ) :   0.9483 B(  6-C ,  8-H ) :   0.9400 B(  6-C ,  9-C ) :   1.0681
B(  9-C , 10-H ) :   0.9565 B(  9-C , 11-H ) :   0.9604 B(  9-C , 12-C ) :   1.0633
B( 12-C , 13-H ) :   0.9749 B( 12-C , 14-H ) :   0.9758 B( 12-C , 15-H ) :   0.9759
B( 16-S , 17-C ) :   1.1794 B( 16-S , 20-C ) :   1.1589 B( 17-C , 18-C ) :   1.5819
B( 17-C , 20-C ) :   0.1051 B( 17-C , 33-H ) :   0.9672 B( 18-C , 19-C ) :   1.2650
B( 18-C , 21-H ) :   0.9977 B( 19-C , 20-C ) :   1.5789 B( 19-C , 22-C ) :   1.0476
B( 22-C , 23-H ) :   0.9238 B( 22-C , 24-H ) :   0.9196 B( 22-C , 25-C ) :   1.0406
B( 25-C , 26-H ) :   0.9525 B( 25-C , 27-H ) :   0.9593 B( 25-C , 28-C ) :   1.0800
B( 28-C , 29-H ) :   0.9743 B( 28-C , 30-H ) :   0.9767 B( 28-C , 31-H ) :   0.9732

Dispersion correction           -0.014851828
FINAL SINGLE POINT ENERGY     -1339.872990631924

DIPOLE MOMENT
-------------
                                X             Y             Z
Electronic contribution:      6.98741      -0.70568     -18.02300
Nuclear contribution   :     -7.24617       0.41675      18.42200
                        -----------------------------------------
Total Dipole Moment    :     -0.25876      -0.28893       0.39900
                        -----------------------------------------
Magnitude (a.u.)       :      0.55645
Magnitude (Debye)      :      1.41438

Rotational constants in cm-1:     0.020919     0.008382     0.006945
Rotational constants in MHz :   627.144507   251.300696   208.212162

                             ****ORCA TERMINATED NORMALLY****
TOTAL RUN TIME: 0 days 0 hours 0 minutes 34 seconds 447 msec
