                         Program Version 4.2.1 -  RELEASE  -
|  1> ! wB97X-D3 SP def2-SVP
|  2> %pal
|  3> nprocs 16
|  4> end
|  5>
|  6> * xyz 0 1
|  7> S 	 -14.6092 	 54.1747 	 61.048
|  8> C 	 -13.711 	 52.6675 	 61.1935
|  9> C 	 -12.6956 	 52.7806 	 62.1482
| 10> C 	 -12.608 	 54.1445 	 62.5916
| 11> C 	 -13.7273 	 54.9184 	 62.3665
| 12> H 	 -11.8573 	 54.4717 	 63.3012
| 13> C 	 -11.5375 	 51.8174 	 62.3133
| 14> H 	 -10.6274 	 52.3306 	 62.1196
| 15> H 	 -11.6048 	 51.093 	 61.47
| 16> C 	 -11.4368 	 51.0201 	 63.6581
| 17> H 	 -11.3825 	 51.7136 	 64.4614
| 18> H 	 -12.2777 	 50.3499 	 63.8909
| 19> C 	 -10.1659 	 50.1548 	 63.6918
| 20> H 	 -10.1583 	 49.5931 	 62.7994
| 21> H 	 -9.24641 	 50.6879 	 63.7007
| 22> H 	 -10.1631 	 49.4696 	 64.5806
| 23> S 	 -14.3489 	 57.5513 	 61.6237
| 24> C 	 -14.195 	 58.7803 	 62.8778
| 25> C 	 -14.199 	 58.2197 	 64.1363
| 26> C 	 -14.0494 	 56.8029 	 64.1177
| 27> C 	 -14.0265 	 56.2652 	 62.8284
| 28> H 	 -14.3209 	 58.7994 	 64.9978
| 29> C 	 -14.0016 	 55.9593 	 65.3929
| 30> H 	 -14.1039 	 54.9221 	 65.0492
| 31> H 	 -14.8745 	 56.1652 	 65.9944
| 32> C 	 -12.665 	 56.0624 	 66.1944
| 33> H 	 -12.3962 	 57.0773 	 66.3923
| 34> H 	 -11.8469 	 55.7677 	 65.558
| 35> C 	 -12.7613 	 55.1449 	 67.4103
| 36> H 	 -11.8169 	 55.0032 	 67.9792
| 37> H 	 -13.1834 	 54.1583 	 67.0516
| 38> H 	 -13.4111 	 55.6562 	 68.095
| 39> H 	 -13.8307 	 51.7671 	 60.6036
| 40> H 	 -14.1913 	 59.9166 	 62.783
| 41> *
| 42>
| 43>                          ****END OF INPUT****

CARTESIAN COORDINATES (ANGSTROEM)
---------------------------------
  S    -14.609200   54.174700   61.048000
  C    -13.711000   52.667500   61.193500
  C    -12.695600   52.780600   62.148200
  C    -12.608000   54.144500   62.591600
  C    -13.727300   54.918400   62.366500
  H    -11.857300   54.471700   63.301200
  C    -11.537500   51.817400   62.313300
  H    -10.627400   52.330600   62.119600
  H    -11.604800   51.093000   61.470000
  C    -11.436800   51.020100   63.658100
  H    -11.382500   51.713600   64.461400
  H    -12.277700   50.349900   63.890900
  C    -10.165900   50.154800   63.691800
  H    -10.158300   49.593100   62.799400
  H     -9.246410   50.687900   63.700700
  H    -10.163100   49.469600   64.580600
  S    -14.348900   57.551300   61.623700
  C    -14.195000   58.780300   62.877800
  C    -14.199000   58.219700   64.136300
  C    -14.049400   56.802900   64.117700
  C    -14.026500   56.265200   62.828400
  H    -14.320900   58.799400   64.997800
  C    -14.001600   55.959300   65.392900
  H    -14.103900   54.922100   65.049200
  H    -14.874500   56.165200   65.994400
  C    -12.665000   56.062400   66.194400
  H    -12.396200   57.077300   66.392300
  H    -11.846900   55.767700   65.558000
  C    -12.761300   55.144900   67.410300
  H    -11.816900   55.003200   67.979200
  H    -13.183400   54.158300   67.051600
  H    -13.411100   55.656200   68.095000
  H    -13.830700   51.767100   60.603600
  H    -14.191300   59.916600   62.783000

 Total Charge           Charge          ....    0
 Multiplicity           Mult            ....    1
 Number of Electrons    NEL             ....  134
 Basis Dimension        Dim             ....  322

ORBITAL ENERGIES
----------------

  NO   OCC          E(Eh)            E(eV)
   0   2.0000     -88.967738     -2420.9352
   1   2.0000     -88.965636     -2420.8780
   2   2.0000     -10.330910      -281.1183
   3   2.0000     -10.330664      -281.1117
   4   2.0000     -10.326078      -280.9869
   5   2.0000     -10.318281      -280.7747
   6   2.0000     -10.305606      -280.4298
   7   2.0000     -10.302264      -280.3389
   8   2.0000     -10.296329      -280.1774
   9   2.0000     -10.293548      -280.1017
  10   2.0000     -10.292070      -280.0615
  11   2.0000     -10.290500      -280.0187
  12   2.0000     -10.287418      -279.9349
  13   2.0000     -10.283852      -279.8378
  14   2.0000     -10.283139      -279.8184
  15   2.0000     -10.274864      -279.5933
  16   2.0000      -8.081649      -219.9128
  17   2.0000      -8.080248      -219.8747
  18   2.0000      -6.040377      -164.3670
  19   2.0000      -6.038835      -164.3251
  20   2.0000      -6.036361      -164.2577
  21   2.0000      -6.034823      -164.2159
  22   2.0000      -6.032122      -164.1424
  23   2.0000      -6.030871      -164.1083
  24   2.0000      -1.004295       -27.3283
  25   2.0000      -0.981770       -26.7153
  26   2.0000      -0.909134       -24.7388
  27   2.0000      -0.907217       -24.6866
  28   2.0000      -0.870226       -23.6800
  29   2.0000      -0.851417       -23.1682
  30   2.0000      -0.845206       -22.9992
  31   2.0000      -0.814980       -22.1767
  32   2.0000      -0.779905       -21.2223
  33   2.0000      -0.766796       -20.8656
  34   2.0000      -0.708989       -19.2926
  35   2.0000      -0.703581       -19.1454
  36   2.0000      -0.697540       -18.9810
  37   2.0000      -0.661181       -17.9917
  38   2.0000      -0.640617       -17.4321
  39   2.0000      -0.619510       -16.8577
  40   2.0000      -0.592403       -16.1201
  41   2.0000      -0.570384       -15.5209
  42   2.0000      -0.565939       -15.4000
  43   2.0000      -0.558755       -15.2045
  44   2.0000      -0.526657       -14.3311
  45   2.0000      -0.522865       -14.2279
  46   2.0000      -0.521136       -14.1808
  47   2.0000      -0.510693       -13.8967
  48   2.0000      -0.505504       -13.7555
  49   2.0000      -0.499309       -13.5869
  50   2.0000      -0.494839       -13.4653
  51   2.0000      -0.477468       -12.9926
  52   2.0000      -0.465536       -12.6679
  53   2.0000      -0.461665       -12.5625
  54   2.0000      -0.457805       -12.4575
  55   2.0000      -0.451263       -12.2795
  56   2.0000      -0.442856       -12.0507
  57   2.0000      -0.438759       -11.9392
  58   2.0000      -0.437723       -11.9111
  59   2.0000      -0.424426       -11.5492
  60   2.0000      -0.423606       -11.5269
  61   2.0000      -0.421240       -11.4625
  62   2.0000      -0.417651       -11.3649
  63   2.0000      -0.347117        -9.4455
  64   2.0000      -0.331699        -9.0260
  65   2.0000      -0.328285        -8.9331
  66   2.0000      -0.289440        -7.8761
  67   0.0000       0.025025         0.6810
  68   0.0000       0.062702         1.7062
  69   0.0000       0.100941         2.7467
  70   0.0000       0.112719         3.0672
  71   0.0000       0.129747         3.5306

MULLIKEN ATOMIC CHARGES
-----------------------
   0 S :    0.099626
   1 C :   -0.106621
   2 C :   -0.080695
   3 C :    0.033251
   4 C :   -0.156787
   5 H :    0.013312
   6 C :    0.027921
   7 H :    0.027487
   8 H :    0.016666
   9 C :   -0.052358
  10 H :    0.016199
  11 H :    0.036043
  12 C :   -0.039825
  13 H :    0.015292
  14 H :    0.022391
  15 H :    0.040845
  16 S :    0.104821
  17 C :   -0.108651
  18 C :   -0.007556
  19 C :   -0.035677
  20 C :   -0.142643
  21 H :   -0.001228
  22 C :    0.042521
  23 H :    0.029639
  24 H :    0.031526
  25 C :   -0.055446
  26 H :    0.016662
  27 H :    0.014081
  28 C :   -0.043724
  29 H :    0.040807
  30 H :    0.043744
  31 H :    0.026760
  32 H :    0.050853
  33 H :    0.080766
Sum of atomic charges:    0.0000000

LOEWDIN ATOMIC CHARGES
----------------------
   0 S :    0.396948
   1 C :   -0.188579
   2 C :   -0.067452
   3 C :   -0.060044
   4 C :   -0.192790
   5 H :    0.026675
   6 C :   -0.029592
   7 H :    0.030405
   8 H :    0.030429
   9 C :   -0.035550
  10 H :    0.015227
  11 H :    0.028591
  12 C :   -0.062352
  13 H :    0.017090
  14 H :    0.018534
  15 H :    0.032731
  16 S :    0.381785
  17 C :   -0.184370
  18 C :   -0.069520
  19 C :   -0.047727
  20 C :   -0.190622
  21 H :    0.022971
  22 C :   -0.026829
  23 H :    0.031673
  24 H :    0.029879
  25 C :   -0.039042
  26 H :    0.016895
  27 H :    0.018445
  28 C :   -0.066598
  29 H :    0.028624
  30 H :    0.034094
  31 H :    0.022325
  32 H :    0.029552
  33 H :    0.048191

  Mayer bond orders larger than 0.100000
B(  0-S ,  1-C ) :   1.1429 B(  0-S ,  4-C ) :   1.1334 B(  1-C ,  2-C ) :   1.6048
B(  1-C , 32-H ) :   0.9657 B(  2-C ,  3-C ) :   1.2448 B(  2-C ,  6-C ) :   1.0293
B(  3-C ,  4-C ) :   1.5772 B(  3-C ,  5-H ) :   0.9831 B(  4-C , 20-C ) :   1.0573
B(  6-C ,  7-H ) :   0.9482 B(  6-C ,  8-H ) :   0.9458 B(  6-C ,  9-C ) :   1.0487
B(  9-C , 10-H ) :   0.9585 B(  9-C , 11-H ) :   0.9583 B(  9-C , 12-C ) :   1.0802
B( 12-C , 13-H ) :   0.9747 B( 12-C , 14-H ) :   0.9761 B( 12-C , 15-H ) :   0.9756
B( 16-S , 17-C ) :   1.1497 B( 16-S , 20-C ) :   1.1120 B( 17-C , 18-C ) :   1.6175
B( 17-C , 33-H ) :   0.9562 B( 18-C , 19-C ) :   1.2331 B( 18-C , 21-H ) :   0.9969
B( 19-C , 20-C ) :   1.6067 B( 19-C , 22-C ) :   1.0405 B( 22-C , 23-H ) :   0.9312
B( 22-C , 24-H ) :   0.9432 B( 22-C , 25-C ) :   1.0506 B( 25-C , 26-H ) :   0.9583
B( 25-C , 27-H ) :   0.9508 B( 25-C , 28-C ) :   1.0752 B( 28-C , 29-H ) :   0.9743
B( 28-C , 30-H ) :   0.9719 B( 28-C , 31-H ) :   0.9758

Dispersion correction           -0.013823790
FINAL SINGLE POINT ENERGY     -1339.872994751722

DIPOLE MOMENT
-------------
                                X             Y             Z
Electronic contribution:    -16.90327      17.74634     -22.85256
Nuclear contribution   :     17.34178     -17.85048      23.41854
                        -----------------------------------------
Total Dipole Moment    :      0.43851      -0.10413       0.56598
                        -----------------------------------------
Magnitude (a.u.)       :      0.72351
Magnitude (Debye)      :      1.83901

Rotational constants in cm-1:     0.017147     0.008998     0.006317
Rotational constants in MHz :   514.043661   269.759205   189.366322

                             ****ORCA TERMINATED NORMALLY****
TOTAL RUN TIME: 0 days 0 hours 0 minutes 32 seconds 650 msec
