                         Program Version 4.2.1 -  RELEASE  -
|  1> ! wB97X-D3 SP def2-SVP
|  2> %pal
|  3> nprocs 16
|  4> end
|  5>
|  6> * xyz 0 1
|  7> S 	 9.28477 	 -8.06502 	 63.7023
|  8> C 	 8.48835 	 -8.10747 	 65.1772
|  9> C 	 8.78417 	 -9.28271 	 65.8976
| 10> C 	 9.54366 	 -10.1865 	 65.0786
| 11> C 	 9.77873 	 -9.67244 	 63.8271
| 12> H 	 9.83156 	 -11.1903 	 65.3396
| 13> C 	 8.30916 	 -9.59477 	 67.3229
| 14> H 	 8.36171 	 -10.7072 	 67.407
| 15> H 	 7.29136 	 -9.47167 	 67.3724
| 16> C 	 8.9548 	 -8.93007 	 68.6074
| 17> H 	 9.96966 	 -9.15234 	 68.474
| 18> H 	 8.69862 	 -7.84204 	 68.5269
| 19> C 	 8.28019 	 -9.39229 	 69.9217
| 20> H 	 8.55806 	 -8.52933 	 70.6155
| 21> H 	 7.20491 	 -9.35838 	 69.8795
| 22> H 	 8.62905 	 -10.3426 	 70.3249
| 23> S 	 11.271 	 -9.50062 	 61.5656
| 24> C 	 11.3294 	 -10.7122 	 60.4384
| 25> C 	 10.7449 	 -11.8517 	 60.9394
| 26> C 	 10.0715 	 -11.6966 	 62.2
| 27> C 	 10.2546 	 -10.3611 	 62.6754
| 28> H 	 10.7918 	 -12.7591 	 60.2786
| 29> C 	 9.22461 	 -12.7027 	 62.9667
| 30> H 	 9.51245 	 -12.8294 	 63.9689
| 31> H 	 9.40084 	 -13.6401 	 62.4781
| 32> C 	 7.74237 	 -12.2958 	 62.9652
| 33> H 	 7.43146 	 -12.1183 	 61.8861
| 34> H 	 7.63585 	 -11.3454 	 63.5114
| 35> C 	 6.86182 	 -13.373 	 63.6642
| 36> H 	 5.91497 	 -13.2604 	 63.2126
| 37> H 	 6.80262 	 -13.2476 	 64.7819
| 38> H 	 7.11229 	 -14.4336 	 63.3986
| 39> H 	 7.93874 	 -7.30931 	 65.6937
| 40> H 	 11.8909 	 -10.555 	 59.5105
| 41> *
| 42>
| 43>                          ****END OF INPUT****

CARTESIAN COORDINATES (ANGSTROEM)
---------------------------------
  S      9.284770   -8.065020   63.702300
  C      8.488350   -8.107470   65.177200
  C      8.784170   -9.282710   65.897600
  C      9.543660  -10.186500   65.078600
  C      9.778730   -9.672440   63.827100
  H      9.831560  -11.190300   65.339600
  C      8.309160   -9.594770   67.322900
  H      8.361710  -10.707200   67.407000
  H      7.291360   -9.471670   67.372400
  C      8.954800   -8.930070   68.607400
  H      9.969660   -9.152340   68.474000
  H      8.698620   -7.842040   68.526900
  C      8.280190   -9.392290   69.921700
  H      8.558060   -8.529330   70.615500
  H      7.204910   -9.358380   69.879500
  H      8.629050  -10.342600   70.324900
  S     11.271000   -9.500620   61.565600
  C     11.329400  -10.712200   60.438400
  C     10.744900  -11.851700   60.939400
  C     10.071500  -11.696600   62.200000
  C     10.254600  -10.361100   62.675400
  H     10.791800  -12.759100   60.278600
  C      9.224610  -12.702700   62.966700
  H      9.512450  -12.829400   63.968900
  H      9.400840  -13.640100   62.478100
  C      7.742370  -12.295800   62.965200
  H      7.431460  -12.118300   61.886100
  H      7.635850  -11.345400   63.511400
  C      6.861820  -13.373000   63.664200
  H      5.914970  -13.260400   63.212600
  H      6.802620  -13.247600   64.781900
  H      7.112290  -14.433600   63.398600
  H      7.938740   -7.309310   65.693700
  H     11.890900  -10.555000   59.510500

 Total Charge           Charge          ....    0
 Multiplicity           Mult            ....    1
 Number of Electrons    NEL             ....  134
 Basis Dimension        Dim             ....  322

ORBITAL ENERGIES
----------------

  NO   OCC          E(Eh)            E(eV)
   0   2.0000     -88.967804     -2420.9370
   1   2.0000     -88.959850     -2420.7206
   2   2.0000     -10.321520      -280.8628
   3   2.0000     -10.319486      -280.8075
   4   2.0000     -10.310545      -280.5642
   5   2.0000     -10.309755      -280.5427
   6   2.0000     -10.306589      -280.4566
   7   2.0000     -10.303784      -280.3802
   8   2.0000     -10.296800      -280.1902
   9   2.0000     -10.292577      -280.0753
  10   2.0000     -10.291632      -280.0495
  11   2.0000     -10.287951      -279.9494
  12   2.0000     -10.287714      -279.9429
  13   2.0000     -10.287704      -279.9427
  14   2.0000     -10.284437      -279.8538
  15   2.0000     -10.279387      -279.7163
  16   2.0000      -8.084918      -220.0018
  17   2.0000      -8.077045      -219.7876
  18   2.0000      -6.043178      -164.4432
  19   2.0000      -6.039039      -164.3306
  20   2.0000      -6.035824      -164.2431
  21   2.0000      -6.035227      -164.2269
  22   2.0000      -6.030947      -164.1104
  23   2.0000      -6.028300      -164.0384
  24   2.0000      -1.021106       -27.7857
  25   2.0000      -0.995218       -27.0813
  26   2.0000      -0.909013       -24.7355
  27   2.0000      -0.906508       -24.6674
  28   2.0000      -0.872670       -23.7465
  29   2.0000      -0.855332       -23.2748
  30   2.0000      -0.844606       -22.9829
  31   2.0000      -0.812773       -22.1167
  32   2.0000      -0.784451       -21.3460
  33   2.0000      -0.770708       -20.9720
  34   2.0000      -0.705387       -19.1945
  35   2.0000      -0.701659       -19.0931
  36   2.0000      -0.687838       -18.7170
  37   2.0000      -0.662960       -18.0401
  38   2.0000      -0.637982       -17.3604
  39   2.0000      -0.622131       -16.9290
  40   2.0000      -0.598719       -16.2920
  41   2.0000      -0.569783       -15.5046
  42   2.0000      -0.563992       -15.3470
  43   2.0000      -0.559423       -15.2227
  44   2.0000      -0.524475       -14.2717
  45   2.0000      -0.517967       -14.0946
  46   2.0000      -0.515228       -14.0201
  47   2.0000      -0.512267       -13.9395
  48   2.0000      -0.507073       -13.7982
  49   2.0000      -0.502753       -13.6806
  50   2.0000      -0.494161       -13.4468
  51   2.0000      -0.486817       -13.2470
  52   2.0000      -0.474220       -12.9042
  53   2.0000      -0.468755       -12.7555
  54   2.0000      -0.460287       -12.5250
  55   2.0000      -0.450056       -12.2466
  56   2.0000      -0.442600       -12.0438
  57   2.0000      -0.437398       -11.9022
  58   2.0000      -0.428857       -11.6698
  59   2.0000      -0.425112       -11.5679
  60   2.0000      -0.421043       -11.4572
  61   2.0000      -0.417104       -11.3500
  62   2.0000      -0.409958       -11.1555
  63   2.0000      -0.353247        -9.6123
  64   2.0000      -0.332533        -9.0487
  65   2.0000      -0.327163        -8.9025
  66   2.0000      -0.281477        -7.6594
  67   0.0000       0.027065         0.7365
  68   0.0000       0.079705         2.1689
  69   0.0000       0.117189         3.1889
  70   0.0000       0.120607         3.2819
  71   0.0000       0.142972         3.8905

MULLIKEN ATOMIC CHARGES
-----------------------
   0 S :    0.148595
   1 C :   -0.111594
   2 C :   -0.109626
   3 C :    0.006164
   4 C :   -0.137133
   5 H :    0.001145
   6 C :    0.057536
   7 H :    0.010380
   8 H :   -0.000738
   9 C :   -0.053208
  10 H :    0.034151
  11 H :    0.034284
  12 C :   -0.064379
  13 H :    0.044071
  14 H :    0.031595
  15 H :    0.046568
  16 S :    0.108097
  17 C :   -0.104401
  18 C :   -0.067367
  19 C :   -0.032759
  20 C :   -0.162877
  21 H :    0.031797
  22 C :    0.120127
  23 H :    0.008847
  24 H :    0.004551
  25 C :   -0.124933
  26 H :    0.041995
  27 H :    0.057866
  28 C :   -0.038776
  29 H :    0.023730
  30 H :    0.047417
  31 H :    0.028787
  32 H :    0.050669
  33 H :    0.069420
Sum of atomic charges:   -0.0000000

LOEWDIN ATOMIC CHARGES
----------------------
   0 S :    0.472744
   1 C :   -0.228635
   2 C :   -0.063112
   3 C :   -0.063954
   4 C :   -0.222244
   5 H :    0.027832
   6 C :   -0.040623
   7 H :    0.029920
   8 H :    0.014906
   9 C :   -0.030289
  10 H :    0.019643
  11 H :    0.029208
  12 C :   -0.067500
  13 H :    0.039593
  14 H :    0.023442
  15 H :    0.025458
  16 S :    0.447940
  17 C :   -0.223254
  18 C :   -0.087092
  19 C :   -0.051694
  20 C :   -0.207646
  21 H :    0.038196
  22 C :   -0.027633
  23 H :    0.018749
  24 H :    0.025937
  25 C :   -0.038917
  26 H :    0.030796
  27 H :    0.030918
  28 C :   -0.073064
  29 H :    0.022183
  30 H :    0.031813
  31 H :    0.027296
  32 H :    0.033520
  33 H :    0.035561

  Mayer bond orders larger than 0.100000
B(  0-S ,  1-C ) :   1.1694 B(  0-S ,  4-C ) :   1.1824 B(  1-C ,  2-C ) :   1.5716
B(  1-C , 32-H ) :   0.9671 B(  2-C ,  3-C ) :   1.2696 B(  2-C ,  6-C ) :   1.0182
B(  3-C ,  4-C ) :   1.5151 B(  3-C ,  5-H ) :   1.0076 B(  4-C , 20-C ) :   1.0675
B(  6-C ,  7-H ) :   0.9424 B(  6-C ,  8-H ) :   0.9353 B(  6-C ,  9-C ) :   1.0496
B(  9-C , 10-H ) :   0.9623 B(  9-C , 11-H ) :   0.9603 B(  9-C , 12-C ) :   1.0690
B( 12-C , 13-H ) :   0.9773 B( 12-C , 14-H ) :   0.9738 B( 12-C , 15-H ) :   0.9778
B( 16-S , 17-C ) :   1.1958 B( 16-S , 20-C ) :   1.1777 B( 17-C , 18-C ) :   1.5471
B( 17-C , 20-C ) :   0.1059 B( 17-C , 33-H ) :   0.9685 B( 18-C , 19-C ) :   1.2840
B( 18-C , 21-H ) :   0.9880 B( 19-C , 20-C ) :   1.5099 B( 19-C , 22-C ) :   1.0471
B( 22-C , 23-H ) :   0.9343 B( 22-C , 24-H ) :   0.9228 B( 22-C , 25-C ) :   1.0610
B( 25-C , 26-H ) :   0.9586 B( 25-C , 27-H ) :   0.9526 B( 25-C , 28-C ) :   1.0727
B( 28-C , 29-H ) :   0.9745 B( 28-C , 30-H ) :   0.9735 B( 28-C , 31-H ) :   0.9742

Dispersion correction           -0.014440794
FINAL SINGLE POINT ENERGY     -1339.867938535191

DIPOLE MOMENT
-------------
                                X             Y             Z
Electronic contribution:     15.05519      14.15433     -22.48576
Nuclear contribution   :    -15.34632     -14.47726      22.84438
                        -----------------------------------------
Total Dipole Moment    :     -0.29113      -0.32293       0.35862
                        -----------------------------------------
Magnitude (a.u.)       :      0.56360
Magnitude (Debye)      :      1.43256

Rotational constants in cm-1:     0.020782     0.008207     0.006526
Rotational constants in MHz :   623.015812   246.036258   195.636838

                             ****ORCA TERMINATED NORMALLY****
TOTAL RUN TIME: 0 days 0 hours 0 minutes 33 seconds 634 msec
