                         Program Version 4.2.1 -  RELEASE  -
|  1> ! wB97X-D3 SP def2-SVP
|  2> %pal
|  3> nprocs 16
|  4> end
|  5>
|  6> * xyz 0 1
|  7> S 	 47.4794 	 3.15623 	 89.0347
|  8> C 	 46.8168 	 4.55943 	 88.3428
|  9> C 	 46.107 	 4.27037 	 87.2222
| 10> C 	 46.0761 	 2.8374 	 86.9013
| 11> C 	 46.7575 	 2.1279 	 87.845
| 12> H 	 45.513 	 2.33823 	 86.0896
| 13> C 	 45.2648 	 5.27623 	 86.4758
| 14> H 	 45.4708 	 5.39893 	 85.4522
| 15> H 	 45.4478 	 6.24662 	 86.9033
| 16> C 	 43.7334 	 5.1228 	 86.6678
| 17> H 	 43.2839 	 4.15013 	 86.6251
| 18> H 	 43.6054 	 5.347 	 87.7527
| 19> C 	 42.7912 	 6.03687 	 85.8714
| 20> H 	 41.747 	 5.96867 	 86.1242
| 21> H 	 43.0304 	 7.00351 	 86.034
| 22> H 	 42.7716 	 5.9028 	 84.801
| 23> S 	 45.8994 	 -0.430999 	 88.0075
| 24> C 	 46.9631 	 -1.77799 	 88.051
| 25> C 	 48.2436 	 -1.36323 	 87.8627
| 26> C 	 48.4082 	 0.0856154 	 87.7179
| 27> C 	 47.1696 	 0.712223 	 87.7733
| 28> H 	 48.9992 	 -2.15463 	 87.8657
| 29> C 	 49.6654 	 0.785591 	 87.4721
| 30> H 	 49.4607 	 1.75769 	 86.9909
| 31> H 	 50.2577 	 0.203834 	 86.6897
| 32> C 	 50.3495 	 1.05892 	 88.8396
| 33> H 	 50.5827 	 0.145201 	 89.3778
| 34> H 	 49.7271 	 1.72679 	 89.4474
| 35> C 	 51.6602 	 1.79937 	 88.6795
| 36> H 	 52.2598 	 1.06948 	 88.1195
| 37> H 	 52.1872 	 2.05715 	 89.6231
| 38> H 	 51.6641 	 2.85329 	 88.2578
| 39> H 	 46.9335 	 5.47172 	 88.8075
| 40> H 	 46.7845 	 -2.85124 	 88.1997
| 41> *
| 42>
| 43>                          ****END OF INPUT****

CARTESIAN COORDINATES (ANGSTROEM)
---------------------------------
  S     47.479400    3.156230   89.034700
  C     46.816800    4.559430   88.342800
  C     46.107000    4.270370   87.222200
  C     46.076100    2.837400   86.901300
  C     46.757500    2.127900   87.845000
  H     45.513000    2.338230   86.089600
  C     45.264800    5.276230   86.475800
  H     45.470800    5.398930   85.452200
  H     45.447800    6.246620   86.903300
  C     43.733400    5.122800   86.667800
  H     43.283900    4.150130   86.625100
  H     43.605400    5.347000   87.752700
  C     42.791200    6.036870   85.871400
  H     41.747000    5.968670   86.124200
  H     43.030400    7.003510   86.034000
  H     42.771600    5.902800   84.801000
  S     45.899400   -0.430999   88.007500
  C     46.963100   -1.777990   88.051000
  C     48.243600   -1.363230   87.862700
  C     48.408200    0.085615   87.717900
  C     47.169600    0.712223   87.773300
  H     48.999200   -2.154630   87.865700
  C     49.665400    0.785591   87.472100
  H     49.460700    1.757690   86.990900
  H     50.257700    0.203834   86.689700
  C     50.349500    1.058920   88.839600
  H     50.582700    0.145201   89.377800
  H     49.727100    1.726790   89.447400
  C     51.660200    1.799370   88.679500
  H     52.259800    1.069480   88.119500
  H     52.187200    2.057150   89.623100
  H     51.664100    2.853290   88.257800
  H     46.933500    5.471720   88.807500
  H     46.784500   -2.851240   88.199700

 Total Charge           Charge          ....    0
 Multiplicity           Mult            ....    1
 Number of Electrons    NEL             ....  134
 Basis Dimension        Dim             ....  322

ORBITAL ENERGIES
----------------

  NO   OCC          E(Eh)            E(eV)
   0   2.0000     -88.964870     -2420.8572
   1   2.0000     -88.960266     -2420.7319
   2   2.0000     -10.328170      -281.0438
   3   2.0000     -10.321815      -280.8709
   4   2.0000     -10.311095      -280.5792
   5   2.0000     -10.308148      -280.4990
   6   2.0000     -10.304567      -280.4015
   7   2.0000     -10.301741      -280.3246
   8   2.0000     -10.300156      -280.2815
   9   2.0000     -10.292507      -280.0734
  10   2.0000     -10.291628      -280.0494
  11   2.0000     -10.288281      -279.9584
  12   2.0000     -10.285180      -279.8740
  13   2.0000     -10.283275      -279.8221
  14   2.0000     -10.277057      -279.6529
  15   2.0000     -10.266768      -279.3730
  16   2.0000      -8.080903      -219.8925
  17   2.0000      -8.076060      -219.7608
  18   2.0000      -6.039327      -164.3385
  19   2.0000      -6.035154      -164.2249
  20   2.0000      -6.034610      -164.2101
  21   2.0000      -6.031737      -164.1319
  22   2.0000      -6.030266      -164.0919
  23   2.0000      -6.026872      -163.9995
  24   2.0000      -1.014555       -27.6074
  25   2.0000      -0.991869       -26.9901
  26   2.0000      -0.912579       -24.8325
  27   2.0000      -0.909502       -24.7488
  28   2.0000      -0.874554       -23.7978
  29   2.0000      -0.851654       -23.1747
  30   2.0000      -0.847831       -23.0707
  31   2.0000      -0.822691       -22.3866
  32   2.0000      -0.786249       -21.3949
  33   2.0000      -0.766730       -20.8638
  34   2.0000      -0.708477       -19.2786
  35   2.0000      -0.697779       -18.9875
  36   2.0000      -0.689826       -18.7711
  37   2.0000      -0.663759       -18.0618
  38   2.0000      -0.647447       -17.6179
  39   2.0000      -0.620685       -16.8897
  40   2.0000      -0.593672       -16.1546
  41   2.0000      -0.574202       -15.6248
  42   2.0000      -0.568720       -15.4757
  43   2.0000      -0.560267       -15.2456
  44   2.0000      -0.526861       -14.3366
  45   2.0000      -0.521944       -14.2028
  46   2.0000      -0.518892       -14.1198
  47   2.0000      -0.516469       -14.0538
  48   2.0000      -0.508247       -13.8301
  49   2.0000      -0.503210       -13.6930
  50   2.0000      -0.497325       -13.5329
  51   2.0000      -0.477903       -13.0044
  52   2.0000      -0.474773       -12.9192
  53   2.0000      -0.462342       -12.5810
  54   2.0000      -0.460669       -12.5355
  55   2.0000      -0.453927       -12.3520
  56   2.0000      -0.437776       -11.9125
  57   2.0000      -0.435073       -11.8389
  58   2.0000      -0.430380       -11.7112
  59   2.0000      -0.422891       -11.5074
  60   2.0000      -0.415818       -11.3150
  61   2.0000      -0.410900       -11.1812
  62   2.0000      -0.407285       -11.0828
  63   2.0000      -0.348854        -9.4928
  64   2.0000      -0.330459        -8.9922
  65   2.0000      -0.321779        -8.7561
  66   2.0000      -0.304587        -8.2882
  67   0.0000       0.045102         1.2273
  68   0.0000       0.072357         1.9689
  69   0.0000       0.114476         3.1151
  70   0.0000       0.124907         3.3989
  71   0.0000       0.136312         3.7092

MULLIKEN ATOMIC CHARGES
-----------------------
   0 S :    0.108358
   1 C :   -0.086536
   2 C :   -0.081084
   3 C :    0.032661
   4 C :   -0.138719
   5 H :    0.035578
   6 C :    0.119297
   7 H :    0.017914
   8 H :    0.002687
   9 C :   -0.104362
  10 H :    0.025119
  11 H :    0.020153
  12 C :    0.001880
  13 H :    0.024031
  14 H :   -0.003452
  15 H :    0.022146
  16 S :    0.107386
  17 C :   -0.085634
  18 C :   -0.055785
  19 C :   -0.019378
  20 C :   -0.173701
  21 H :    0.016445
  22 C :    0.030996
  23 H :    0.032367
  24 H :    0.043745
  25 C :   -0.066818
  26 H :    0.032825
  27 H :    0.032887
  28 C :   -0.067766
  29 H :    0.028533
  30 H :    0.029794
  31 H :    0.038513
  32 H :    0.021289
  33 H :    0.058631
Sum of atomic charges:   -0.0000000

LOEWDIN ATOMIC CHARGES
----------------------
   0 S :    0.446080
   1 C :   -0.192350
   2 C :   -0.058448
   3 C :   -0.056562
   4 C :   -0.202451
   5 H :    0.042001
   6 C :   -0.026274
   7 H :    0.021444
   8 H :    0.028432
   9 C :   -0.041986
  10 H :    0.018219
  11 H :    0.027933
  12 C :   -0.059363
  13 H :    0.030174
  14 H :    0.007711
  15 H :    0.023826
  16 S :    0.424944
  17 C :   -0.205518
  18 C :   -0.077146
  19 C :   -0.058027
  20 C :   -0.210276
  21 H :    0.030949
  22 C :   -0.040781
  23 H :    0.034465
  24 H :    0.040266
  25 C :   -0.039412
  26 H :    0.025505
  27 H :    0.012700
  28 C :   -0.080252
  29 H :    0.023678
  30 H :    0.025813
  31 H :    0.030357
  32 H :    0.014235
  33 H :    0.040117

  Mayer bond orders larger than 0.100000
B(  0-S ,  1-C ) :   1.1411 B(  0-S ,  4-C ) :   1.1608 B(  1-C ,  2-C ) :   1.6211
B(  1-C , 32-H ) :   0.9822 B(  2-C ,  3-C ) :   1.2103 B(  2-C ,  6-C ) :   1.0435
B(  3-C ,  4-C ) :   1.6065 B(  3-C ,  5-H ) :   0.9896 B(  4-C , 20-C ) :   0.9725
B(  6-C ,  7-H ) :   0.9401 B(  6-C ,  8-H ) :   0.9382 B(  6-C ,  9-C ) :   1.0373
B(  9-C , 10-H ) :   0.9659 B(  9-C , 11-H ) :   0.9552 B(  9-C , 12-C ) :   1.0846
B( 12-C , 13-H ) :   0.9708 B( 12-C , 14-H ) :   0.9729 B( 12-C , 15-H ) :   0.9729
B( 16-S , 17-C ) :   1.1476 B( 16-S , 20-C ) :   1.1550 B( 17-C , 18-C ) :   1.6438
B( 17-C , 33-H ) :   0.9624 B( 18-C , 19-C ) :   1.2058 B( 18-C , 21-H ) :   0.9884
B( 19-C , 20-C ) :   1.6098 B( 19-C , 22-C ) :   1.0644 B( 22-C , 23-H ) :   0.9295
B( 22-C , 24-H ) :   0.9370 B( 22-C , 25-C ) :   1.0523 B( 25-C , 26-H ) :   0.9581
B( 25-C , 27-H ) :   0.9468 B( 25-C , 28-C ) :   1.0836 B( 28-C , 29-H ) :   0.9750
B( 28-C , 30-H ) :   0.9727 B( 28-C , 31-H ) :   0.9716

Dispersion correction           -0.014354186
FINAL SINGLE POINT ENERGY     -1339.871385035758

DIPOLE MOMENT
-------------
                                X             Y             Z
Electronic contribution:     -2.89418     -14.17827       6.47964
Nuclear contribution   :      2.98044      14.41271      -6.64288
                        -----------------------------------------
Total Dipole Moment    :      0.08625       0.23444      -0.16325
                        -----------------------------------------
Magnitude (a.u.)       :      0.29841
Magnitude (Debye)      :      0.75851

Rotational constants in cm-1:     0.021494     0.008035     0.006309
Rotational constants in MHz :   644.374070   240.898103   189.127618

                             ****ORCA TERMINATED NORMALLY****
TOTAL RUN TIME: 0 days 0 hours 0 minutes 30 seconds 124 msec
