                         Program Version 4.2.1 -  RELEASE  -
|  1> ! wB97X-D3 SP def2-SVP
|  2> %pal
|  3> nprocs 16
|  4> end
|  5>
|  6> * xyz 0 1
|  7> S 	 7.36083 	 -10.7335 	 60.9786
|  8> C 	 8.62384 	 -11.3923 	 62.0174
|  9> C 	 8.08028 	 -11.9772 	 63.1072
| 10> C 	 6.68867 	 -11.6398 	 63.2414
| 11> C 	 6.1645 	 -10.8571 	 62.2126
| 12> H 	 6.10731 	 -11.9292 	 64.1159
| 13> C 	 8.75491 	 -12.7099 	 64.2689
| 14> H 	 8.7301 	 -12.0316 	 65.1241
| 15> H 	 9.84698 	 -12.6537 	 63.9989
| 16> C 	 8.29087 	 -14.146 	 64.4488
| 17> H 	 7.24361 	 -14.3674 	 64.3125
| 18> H 	 8.75719 	 -14.7911 	 63.7099
| 19> C 	 8.65601 	 -14.7481 	 65.8007
| 20> H 	 8.2989 	 -14.1643 	 66.582
| 21> H 	 8.3589 	 -15.8347 	 65.8212
| 22> H 	 9.75338 	 -14.7107 	 65.9197
| 23> S 	 4.5901 	 -8.68074 	 62.0897
| 24> C 	 2.83644 	 -8.79427 	 62.1082
| 25> C 	 2.43938 	 -10.1059 	 62.0545
| 26> C 	 3.5658 	 -11.0557 	 62.0714
| 27> C 	 4.81078 	 -10.3975 	 62.0983
| 28> H 	 1.35801 	 -10.2058 	 62.0055
| 29> C 	 3.37097 	 -12.5652 	 62.0381
| 30> H 	 4.21543 	 -13.0223 	 62.5781
| 31> H 	 3.43863 	 -12.8252 	 60.9691
| 32> C 	 2.10494 	 -13.1589 	 62.6319
| 33> H 	 1.26139 	 -12.9711 	 61.9361
| 34> H 	 1.78664 	 -12.6713 	 63.6025
| 35> C 	 2.24568 	 -14.7 	 62.777
| 36> H 	 1.20666 	 -15.0258 	 62.8633
| 37> H 	 2.9902 	 -14.9373 	 63.6019
| 38> H 	 2.61026 	 -15.127 	 61.8648
| 39> H 	 9.6849 	 -11.2967 	 61.8104
| 40> H 	 2.23239 	 -7.88572 	 62.1703
| 41> *
| 42>
| 43>                          ****END OF INPUT****

CARTESIAN COORDINATES (ANGSTROEM)
---------------------------------
  S      7.360830  -10.733500   60.978600
  C      8.623840  -11.392300   62.017400
  C      8.080280  -11.977200   63.107200
  C      6.688670  -11.639800   63.241400
  C      6.164500  -10.857100   62.212600
  H      6.107310  -11.929200   64.115900
  C      8.754910  -12.709900   64.268900
  H      8.730100  -12.031600   65.124100
  H      9.846980  -12.653700   63.998900
  C      8.290870  -14.146000   64.448800
  H      7.243610  -14.367400   64.312500
  H      8.757190  -14.791100   63.709900
  C      8.656010  -14.748100   65.800700
  H      8.298900  -14.164300   66.582000
  H      8.358900  -15.834700   65.821200
  H      9.753380  -14.710700   65.919700
  S      4.590100   -8.680740   62.089700
  C      2.836440   -8.794270   62.108200
  C      2.439380  -10.105900   62.054500
  C      3.565800  -11.055700   62.071400
  C      4.810780  -10.397500   62.098300
  H      1.358010  -10.205800   62.005500
  C      3.370970  -12.565200   62.038100
  H      4.215430  -13.022300   62.578100
  H      3.438630  -12.825200   60.969100
  C      2.104940  -13.158900   62.631900
  H      1.261390  -12.971100   61.936100
  H      1.786640  -12.671300   63.602500
  C      2.245680  -14.700000   62.777000
  H      1.206660  -15.025800   62.863300
  H      2.990200  -14.937300   63.601900
  H      2.610260  -15.127000   61.864800
  H      9.684900  -11.296700   61.810400
  H      2.232390   -7.885720   62.170300

 Total Charge           Charge          ....    0
 Multiplicity           Mult            ....    1
 Number of Electrons    NEL             ....  134
 Basis Dimension        Dim             ....  322

ORBITAL ENERGIES
----------------

  NO   OCC          E(Eh)            E(eV)
   0   2.0000     -88.961525     -2420.7662
   1   2.0000     -88.958909     -2420.6950
   2   2.0000     -10.325788      -280.9790
   3   2.0000     -10.323949      -280.9289
   4   2.0000     -10.318140      -280.7709
   5   2.0000     -10.312766      -280.6246
   6   2.0000     -10.312076      -280.6059
   7   2.0000     -10.299071      -280.2520
   8   2.0000     -10.298632      -280.2400
   9   2.0000     -10.297490      -280.2089
  10   2.0000     -10.291949      -280.0582
  11   2.0000     -10.291398      -280.0432
  12   2.0000     -10.291259      -280.0394
  13   2.0000     -10.286090      -279.8987
  14   2.0000     -10.284019      -279.8424
  15   2.0000     -10.277452      -279.6637
  16   2.0000      -8.076788      -219.7806
  17   2.0000      -8.074316      -219.7133
  18   2.0000      -6.035405      -164.2317
  19   2.0000      -6.032773      -164.1601
  20   2.0000      -6.031249      -164.1186
  21   2.0000      -6.028613      -164.0469
  22   2.0000      -6.027370      -164.0131
  23   2.0000      -6.025201      -163.9541
  24   2.0000      -1.006821       -27.3970
  25   2.0000      -0.982733       -26.7415
  26   2.0000      -0.914057       -24.8728
  27   2.0000      -0.907696       -24.6997
  28   2.0000      -0.875108       -23.8129
  29   2.0000      -0.847646       -23.0656
  30   2.0000      -0.843509       -22.9530
  31   2.0000      -0.813646       -22.1404
  32   2.0000      -0.781244       -21.2587
  33   2.0000      -0.769253       -20.9324
  34   2.0000      -0.709145       -19.2968
  35   2.0000      -0.699940       -19.0463
  36   2.0000      -0.694598       -18.9010
  37   2.0000      -0.650214       -17.6932
  38   2.0000      -0.638180       -17.3658
  39   2.0000      -0.620982       -16.8978
  40   2.0000      -0.594070       -16.1655
  41   2.0000      -0.570041       -15.5116
  42   2.0000      -0.568250       -15.4629
  43   2.0000      -0.558914       -15.2088
  44   2.0000      -0.537789       -14.6340
  45   2.0000      -0.530475       -14.4350
  46   2.0000      -0.518776       -14.1166
  47   2.0000      -0.512074       -13.9342
  48   2.0000      -0.503408       -13.6984
  49   2.0000      -0.497418       -13.5354
  50   2.0000      -0.496786       -13.5182
  51   2.0000      -0.476825       -12.9751
  52   2.0000      -0.471177       -12.8214
  53   2.0000      -0.461404       -12.5554
  54   2.0000      -0.453265       -12.3340
  55   2.0000      -0.449017       -12.2184
  56   2.0000      -0.443236       -12.0611
  57   2.0000      -0.439934       -11.9712
  58   2.0000      -0.432875       -11.7791
  59   2.0000      -0.420550       -11.4437
  60   2.0000      -0.417723       -11.3668
  61   2.0000      -0.412875       -11.2349
  62   2.0000      -0.411261       -11.1910
  63   2.0000      -0.339255        -9.2316
  64   2.0000      -0.329232        -8.9589
  65   2.0000      -0.321118        -8.7381
  66   2.0000      -0.301210        -8.1963
  67   0.0000       0.035564         0.9678
  68   0.0000       0.069763         1.8983
  69   0.0000       0.116213         3.1623
  70   0.0000       0.124919         3.3992
  71   0.0000       0.129939         3.5358

MULLIKEN ATOMIC CHARGES
-----------------------
   0 S :    0.110920
   1 C :   -0.141474
   2 C :   -0.073372
   3 C :    0.027919
   4 C :   -0.152349
   5 H :    0.013872
   6 C :    0.052923
   7 H :    0.041875
   8 H :    0.019181
   9 C :   -0.060265
  10 H :    0.028181
  11 H :    0.026805
  12 C :   -0.044214
  13 H :    0.020369
  14 H :    0.046185
  15 H :    0.022089
  16 S :    0.098450
  17 C :   -0.110434
  18 C :   -0.042683
  19 C :   -0.021061
  20 C :   -0.168355
  21 H :    0.027049
  22 C :    0.073338
  23 H :    0.021231
  24 H :    0.047196
  25 C :   -0.131725
  26 H :    0.029188
  27 H :    0.042509
  28 C :   -0.031862
  29 H :    0.037621
  30 H :    0.051795
  31 H :    0.022595
  32 H :    0.048412
  33 H :    0.068094
Sum of atomic charges:   -0.0000000

LOEWDIN ATOMIC CHARGES
----------------------
   0 S :    0.405981
   1 C :   -0.191660
   2 C :   -0.067945
   3 C :   -0.060327
   4 C :   -0.209922
   5 H :    0.028672
   6 C :   -0.033151
   7 H :    0.033406
   8 H :    0.035636
   9 C :   -0.043359
  10 H :    0.021968
  11 H :    0.029253
  12 C :   -0.061113
  13 H :    0.012569
  14 H :    0.034937
  15 H :    0.024450
  16 S :    0.409644
  17 C :   -0.180686
  18 C :   -0.080132
  19 C :   -0.045287
  20 C :   -0.215450
  21 H :    0.036033
  22 C :   -0.040394
  23 H :    0.030807
  24 H :    0.041314
  25 C :   -0.050314
  26 H :    0.022286
  27 H :    0.028621
  28 C :   -0.063162
  29 H :    0.030411
  30 H :    0.034223
  31 H :    0.020315
  32 H :    0.029894
  33 H :    0.032485

  Mayer bond orders larger than 0.100000
B(  0-S ,  1-C ) :   1.1297 B(  0-S ,  4-C ) :   1.1545 B(  1-C ,  2-C ) :   1.6238
B(  1-C , 32-H ) :   0.9698 B(  2-C ,  3-C ) :   1.2326 B(  2-C ,  6-C ) :   1.0157
B(  3-C ,  4-C ) :   1.5738 B(  3-C ,  5-H ) :   0.9935 B(  4-C , 20-C ) :   1.0382
B(  6-C ,  7-H ) :   0.9540 B(  6-C ,  8-H ) :   0.9354 B(  6-C ,  9-C ) :   1.0417
B(  9-C , 10-H ) :   0.9662 B(  9-C , 11-H ) :   0.9489 B(  9-C , 12-C ) :   1.0858
B( 12-C , 13-H ) :   0.9785 B( 12-C , 14-H ) :   0.9734 B( 12-C , 15-H ) :   0.9725
B( 16-S , 17-C ) :   1.1604 B( 16-S , 20-C ) :   1.1513 B( 17-C , 18-C ) :   1.6172
B( 17-C , 33-H ) :   0.9664 B( 18-C , 19-C ) :   1.2006 B( 18-C , 21-H ) :   0.9940
B( 19-C , 20-C ) :   1.5926 B( 19-C , 22-C ) :   1.0388 B( 22-C , 23-H ) :   0.9394
B( 22-C , 24-H ) :   0.9201 B( 22-C , 25-C ) :   1.0718 B( 25-C , 26-H ) :   0.9461
B( 25-C , 27-H ) :   0.9601 B( 25-C , 28-C ) :   1.0811 B( 28-C , 29-H ) :   0.9743
B( 28-C , 30-H ) :   0.9744 B( 28-C , 31-H ) :   0.9718

Dispersion correction           -0.013575395
FINAL SINGLE POINT ENERGY     -1339.877575465886

DIPOLE MOMENT
-------------
                                X             Y             Z
Electronic contribution:      2.55440      27.12003     -14.77277
Nuclear contribution   :     -2.75432     -27.61426      15.13032
                        -----------------------------------------
Total Dipole Moment    :     -0.19992      -0.49422       0.35756
                        -----------------------------------------
Magnitude (a.u.)       :      0.64193
Magnitude (Debye)      :      1.63165

Rotational constants in cm-1:     0.015840     0.009033     0.006486
Rotational constants in MHz :   474.863371   270.808944   194.437824

                             ****ORCA TERMINATED NORMALLY****
TOTAL RUN TIME: 0 days 0 hours 0 minutes 28 seconds 954 msec
