                         Program Version 4.2.1 -  RELEASE  -
|  1> ! wB97X-D3 SP def2-SVP
|  2> %pal
|  3> nprocs 16
|  4> end
|  5>
|  6> * xyz 0 1
|  7> S 	 -69.8921 	 36.7896 	 118.062
|  8> C 	 -71.4973 	 36.7666 	 118.712
|  9> C 	 -72.1772 	 37.9618 	 118.564
| 10> C 	 -71.3669 	 38.8908 	 117.866
| 11> C 	 -70.0715 	 38.4773 	 117.647
| 12> H 	 -71.6424 	 39.9125 	 117.675
| 13> C 	 -73.5871 	 38.2265 	 118.858
| 14> H 	 -74.1399 	 37.3556 	 119.239
| 15> H 	 -74.059 	 38.4453 	 117.909
| 16> C 	 -73.8551 	 39.4392 	 119.755
| 17> H 	 -73.4656 	 39.298 	 120.715
| 18> H 	 -73.1905 	 40.2341 	 119.361
| 19> C 	 -75.2762 	 39.8894 	 119.811
| 20> H 	 -75.8744 	 39.1069 	 120.219
| 21> H 	 -75.4707 	 40.8226 	 120.402
| 22> H 	 -75.702 	 40.0714 	 118.792
| 23> S 	 -67.7256 	 38.4995 	 116.211
| 24> C 	 -66.5817 	 39.7853 	 116.473
| 25> C 	 -67.1095 	 40.8023 	 117.081
| 26> C 	 -68.452 	 40.5031 	 117.501
| 27> C 	 -68.9313 	 39.255 	 117.17
| 28> H 	 -66.5812 	 41.6902 	 117.271
| 29> C 	 -69.1682 	 41.4481 	 118.326
| 30> H 	 -68.5342 	 42.0109 	 119.02
| 31> H 	 -69.9102 	 40.9596 	 118.917
| 32> C 	 -69.8195 	 42.5676 	 117.598
| 33> H 	 -70.402 	 42.1004 	 116.845
| 34> H 	 -69.1171 	 43.0837 	 116.95
| 35> C 	 -70.899 	 43.4675 	 118.279
| 36> H 	 -71.7717 	 42.9233 	 118.699
| 37> H 	 -71.3312 	 44.1929 	 117.602
| 38> H 	 -70.3658 	 43.95 	 119.114
| 39> H 	 -71.8109 	 35.8408 	 119.242
| 40> H 	 -65.636 	 39.8065 	 115.898
| 41> *
| 42>
| 43>                          ****END OF INPUT****

CARTESIAN COORDINATES (ANGSTROEM)
---------------------------------
  S    -69.892100   36.789600  118.062000
  C    -71.497300   36.766600  118.712000
  C    -72.177200   37.961800  118.564000
  C    -71.366900   38.890800  117.866000
  C    -70.071500   38.477300  117.647000
  H    -71.642400   39.912500  117.675000
  C    -73.587100   38.226500  118.858000
  H    -74.139900   37.355600  119.239000
  H    -74.059000   38.445300  117.909000
  C    -73.855100   39.439200  119.755000
  H    -73.465600   39.298000  120.715000
  H    -73.190500   40.234100  119.361000
  C    -75.276200   39.889400  119.811000
  H    -75.874400   39.106900  120.219000
  H    -75.470700   40.822600  120.402000
  H    -75.702000   40.071400  118.792000
  S    -67.725600   38.499500  116.211000
  C    -66.581700   39.785300  116.473000
  C    -67.109500   40.802300  117.081000
  C    -68.452000   40.503100  117.501000
  C    -68.931300   39.255000  117.170000
  H    -66.581200   41.690200  117.271000
  C    -69.168200   41.448100  118.326000
  H    -68.534200   42.010900  119.020000
  H    -69.910200   40.959600  118.917000
  C    -69.819500   42.567600  117.598000
  H    -70.402000   42.100400  116.845000
  H    -69.117100   43.083700  116.950000
  C    -70.899000   43.467500  118.279000
  H    -71.771700   42.923300  118.699000
  H    -71.331200   44.192900  117.602000
  H    -70.365800   43.950000  119.114000
  H    -71.810900   35.840800  119.242000
  H    -65.636000   39.806500  115.898000

 Total Charge           Charge          ....    0
 Multiplicity           Mult            ....    1
 Number of Electrons    NEL             ....  134
 Basis Dimension        Dim             ....  322

ORBITAL ENERGIES
----------------

  NO   OCC          E(Eh)            E(eV)
   0   2.0000     -88.966480     -2420.9010
   1   2.0000     -88.958020     -2420.6708
   2   2.0000     -10.331246      -281.1275
   3   2.0000     -10.324204      -280.9359
   4   2.0000     -10.316232      -280.7189
   5   2.0000     -10.311471      -280.5894
   6   2.0000     -10.300449      -280.2895
   7   2.0000     -10.297011      -280.1959
   8   2.0000     -10.292581      -280.0754
   9   2.0000     -10.290307      -280.0135
  10   2.0000     -10.284947      -279.8676
  11   2.0000     -10.284943      -279.8675
  12   2.0000     -10.282155      -279.7917
  13   2.0000     -10.281813      -279.7823
  14   2.0000     -10.276884      -279.6482
  15   2.0000     -10.276490      -279.6375
  16   2.0000      -8.081800      -219.9170
  17   2.0000      -8.074377      -219.7150
  18   2.0000      -6.040225      -164.3629
  19   2.0000      -6.036272      -164.2553
  20   2.0000      -6.032952      -164.1650
  21   2.0000      -6.032557      -164.1542
  22   2.0000      -6.028678      -164.0487
  23   2.0000      -6.024947      -163.9471
  24   2.0000      -1.018509       -27.7150
  25   2.0000      -0.995757       -27.0959
  26   2.0000      -0.922587       -25.1049
  27   2.0000      -0.919939       -25.0328
  28   2.0000      -0.880186       -23.9511
  29   2.0000      -0.856710       -23.3123
  30   2.0000      -0.848806       -23.0972
  31   2.0000      -0.824733       -22.4421
  32   2.0000      -0.784980       -21.3604
  33   2.0000      -0.773341       -21.0437
  34   2.0000      -0.712634       -19.3918
  35   2.0000      -0.700376       -19.0582
  36   2.0000      -0.694720       -18.9043
  37   2.0000      -0.669070       -18.2063
  38   2.0000      -0.644180       -17.5290
  39   2.0000      -0.632462       -17.2102
  40   2.0000      -0.609082       -16.5740
  41   2.0000      -0.578640       -15.7456
  42   2.0000      -0.569402       -15.4942
  43   2.0000      -0.559674       -15.2295
  44   2.0000      -0.533402       -14.5146
  45   2.0000      -0.527433       -14.3522
  46   2.0000      -0.520696       -14.1689
  47   2.0000      -0.513145       -13.9634
  48   2.0000      -0.507677       -13.8146
  49   2.0000      -0.501211       -13.6387
  50   2.0000      -0.494369       -13.4525
  51   2.0000      -0.489137       -13.3101
  52   2.0000      -0.478936       -13.0325
  53   2.0000      -0.471994       -12.8436
  54   2.0000      -0.464131       -12.6297
  55   2.0000      -0.454163       -12.3584
  56   2.0000      -0.445628       -12.1262
  57   2.0000      -0.438570       -11.9341
  58   2.0000      -0.435826       -11.8594
  59   2.0000      -0.430128       -11.7044
  60   2.0000      -0.420388       -11.4393
  61   2.0000      -0.415599       -11.3090
  62   2.0000      -0.396772       -10.7967
  63   2.0000      -0.361075        -9.8254
  64   2.0000      -0.334216        -9.0945
  65   2.0000      -0.327436        -8.9100
  66   2.0000      -0.290665        -7.9094
  67   0.0000       0.029515         0.8031
  68   0.0000       0.079659         2.1676
  69   0.0000       0.111983         3.0472
  70   0.0000       0.120765         3.2862
  71   0.0000       0.125190         3.4066

MULLIKEN ATOMIC CHARGES
-----------------------
   0 S :    0.118264
   1 C :   -0.154597
   2 C :   -0.044402
   3 C :    0.015144
   4 C :   -0.130389
   5 H :    0.004502
   6 C :    0.072889
   7 H :    0.018069
   8 H :    0.027378
   9 C :   -0.071896
  10 H :    0.015072
  11 H :    0.016342
  12 C :   -0.040034
  13 H :    0.023344
  14 H :    0.045995
  15 H :    0.027054
  16 S :    0.074478
  17 C :   -0.083410
  18 C :    0.016430
  19 C :   -0.070208
  20 C :   -0.116827
  21 H :    0.003336
  22 C :    0.095170
  23 H :    0.010174
  24 H :    0.004958
  25 C :   -0.080649
  26 H :   -0.004822
  27 H :    0.011981
  28 C :   -0.040940
  29 H :    0.035394
  30 H :    0.040739
  31 H :    0.030359
  32 H :    0.063764
  33 H :    0.067336
Sum of atomic charges:    0.0000000

LOEWDIN ATOMIC CHARGES
----------------------
   0 S :    0.415767
   1 C :   -0.201197
   2 C :   -0.065418
   3 C :   -0.060631
   4 C :   -0.186324
   5 H :    0.026473
   6 C :   -0.030717
   7 H :    0.030045
   8 H :    0.035191
   9 C :   -0.042408
  10 H :    0.017613
  11 H :    0.022584
  12 C :   -0.067386
  13 H :    0.020809
  14 H :    0.034562
  15 H :    0.027721
  16 S :    0.401627
  17 C :   -0.175269
  18 C :   -0.064892
  19 C :   -0.052278
  20 C :   -0.203966
  21 H :    0.029993
  22 C :   -0.037509
  23 H :    0.028309
  24 H :    0.024804
  25 C :   -0.048497
  26 H :    0.012604
  27 H :    0.021773
  28 C :   -0.063026
  29 H :    0.027440
  30 H :    0.028799
  31 H :    0.023467
  32 H :    0.033051
  33 H :    0.036886

  Mayer bond orders larger than 0.100000
B(  0-S ,  1-C ) :   1.1473 B(  0-S ,  4-C ) :   1.1561 B(  1-C ,  2-C ) :   1.5891
B(  1-C , 32-H ) :   0.9647 B(  2-C ,  3-C ) :   1.2339 B(  2-C ,  6-C ) :   1.0427
B(  3-C ,  4-C ) :   1.5650 B(  3-C ,  5-H ) :   0.9945 B(  4-C , 20-C ) :   1.0464
B(  6-C ,  7-H ) :   0.9393 B(  6-C ,  8-H ) :   0.9344 B(  6-C ,  9-C ) :   1.0502
B(  9-C , 10-H ) :   0.9490 B(  9-C , 11-H ) :   0.9546 B(  9-C , 12-C ) :   1.0902
B( 12-C , 13-H ) :   0.9705 B( 12-C , 14-H ) :   0.9718 B( 12-C , 15-H ) :   0.9718
B( 16-S , 17-C ) :   1.1458 B( 16-S , 20-C ) :   1.1199 B( 17-C , 18-C ) :   1.6346
B( 17-C , 33-H ) :   0.9562 B( 18-C , 19-C ) :   1.2158 B( 18-C , 21-H ) :   1.0066
B( 19-C , 20-C ) :   1.6007 B( 19-C , 22-C ) :   1.0860 B( 22-C , 23-H ) :   0.9222
B( 22-C , 24-H ) :   0.9216 B( 22-C , 25-C ) :   1.0584 B( 25-C , 26-H ) :   0.9437
B( 25-C , 27-H ) :   0.9495 B( 25-C , 28-C ) :   1.0752 B( 28-C , 29-H ) :   0.9738
B( 28-C , 30-H ) :   0.9734 B( 28-C , 31-H ) :   0.9764

Dispersion correction           -0.014352171
FINAL SINGLE POINT ENERGY     -1339.875779552411

DIPOLE MOMENT
-------------
                                X             Y             Z
Electronic contribution:     23.00966     -22.09100     -10.79698
Nuclear contribution   :    -23.35132      22.59535      11.03754
                        -----------------------------------------
Total Dipole Moment    :     -0.34167       0.50435       0.24055
                        -----------------------------------------
Magnitude (a.u.)       :      0.65496
Magnitude (Debye)      :      1.66477

Rotational constants in cm-1:     0.017891     0.009774     0.006550
Rotational constants in MHz :   536.345224   293.002465   196.359494

                             ****ORCA TERMINATED NORMALLY****
TOTAL RUN TIME: 0 days 0 hours 0 minutes 34 seconds 328 msec
