                         Program Version 4.2.1 -  RELEASE  -
|  1> ! wB97X-D3 SP def2-SVP
|  2> %pal
|  3> nprocs 16
|  4> end
|  5>
|  6> * xyz 0 1
|  7> S 	 7.40251 	 24.7638 	 68.5416
|  8> C 	 6.82151 	 23.2374 	 67.9032
|  9> C 	 5.61963 	 22.808 	 68.4211
| 10> C 	 5.02757 	 23.7466 	 69.2363
| 11> C 	 5.84291 	 24.8873 	 69.3823
| 12> H 	 4.01612 	 23.7189 	 69.6669
| 13> C 	 5.01095 	 21.3935 	 68.2229
| 14> H 	 4.70397 	 21.024 	 69.2337
| 15> H 	 5.76063 	 20.6382 	 67.9259
| 16> C 	 3.8274 	 21.3128 	 67.208
| 17> H 	 3.31531 	 20.3261 	 67.137
| 18> H 	 2.94264 	 21.9233 	 67.5358
| 19> C 	 4.24739 	 21.7642 	 65.7846
| 20> H 	 3.56605 	 21.488 	 65.0455
| 21> H 	 4.50512 	 22.8424 	 65.7234
| 22> H 	 5.165 	 21.1715 	 65.6309
| 23> S 	 6.31906 	 25.735 	 71.8583
| 24> C 	 5.26298 	 26.8595 	 72.6096
| 25> C 	 4.34536 	 27.3745 	 71.6978
| 26> C 	 4.49222 	 26.8362 	 70.3486
| 27> C 	 5.55559 	 25.9312 	 70.2651
| 28> H 	 3.64734 	 28.1025 	 71.9768
| 29> C 	 3.3673 	 27.1871 	 69.3491
| 30> H 	 2.94595 	 28.182 	 69.4795
| 31> H 	 2.53564 	 26.6022 	 69.663
| 32> C 	 3.78879 	 26.8743 	 67.9517
| 33> H 	 2.92558 	 27.1228 	 67.3047
| 34> H 	 3.91309 	 25.7955 	 67.8159
| 35> C 	 5.03375 	 27.6108 	 67.4175
| 36> H 	 5.84299 	 27.3127 	 68.0276
| 37> H 	 4.77803 	 28.6279 	 67.4966
| 38> H 	 5.27863 	 27.3539 	 66.4529
| 39> H 	 7.42667 	 22.5662 	 67.3947
| 40> H 	 5.37144 	 27.1177 	 73.6888
| 41> *
| 42>
| 43>                          ****END OF INPUT****

CARTESIAN COORDINATES (ANGSTROEM)
---------------------------------
  S      7.402510   24.763800   68.541600
  C      6.821510   23.237400   67.903200
  C      5.619630   22.808000   68.421100
  C      5.027570   23.746600   69.236300
  C      5.842910   24.887300   69.382300
  H      4.016120   23.718900   69.666900
  C      5.010950   21.393500   68.222900
  H      4.703970   21.024000   69.233700
  H      5.760630   20.638200   67.925900
  C      3.827400   21.312800   67.208000
  H      3.315310   20.326100   67.137000
  H      2.942640   21.923300   67.535800
  C      4.247390   21.764200   65.784600
  H      3.566050   21.488000   65.045500
  H      4.505120   22.842400   65.723400
  H      5.165000   21.171500   65.630900
  S      6.319060   25.735000   71.858300
  C      5.262980   26.859500   72.609600
  C      4.345360   27.374500   71.697800
  C      4.492220   26.836200   70.348600
  C      5.555590   25.931200   70.265100
  H      3.647340   28.102500   71.976800
  C      3.367300   27.187100   69.349100
  H      2.945950   28.182000   69.479500
  H      2.535640   26.602200   69.663000
  C      3.788790   26.874300   67.951700
  H      2.925580   27.122800   67.304700
  H      3.913090   25.795500   67.815900
  C      5.033750   27.610800   67.417500
  H      5.842990   27.312700   68.027600
  H      4.778030   28.627900   67.496600
  H      5.278630   27.353900   66.452900
  H      7.426670   22.566200   67.394700
  H      5.371440   27.117700   73.688800

 Total Charge           Charge          ....    0
 Multiplicity           Mult            ....    1
 Number of Electrons    NEL             ....  134
 Basis Dimension        Dim             ....  322

ORBITAL ENERGIES
----------------

  NO   OCC          E(Eh)            E(eV)
   0   2.0000     -88.973623     -2421.0954
   1   2.0000     -88.959801     -2420.7192
   2   2.0000     -10.327111      -281.0150
   3   2.0000     -10.320248      -280.8282
   4   2.0000     -10.319794      -280.8159
   5   2.0000     -10.309051      -280.5235
   6   2.0000     -10.307961      -280.4939
   7   2.0000     -10.303560      -280.3741
   8   2.0000     -10.299822      -280.2724
   9   2.0000     -10.294745      -280.1343
  10   2.0000     -10.294690      -280.1328
  11   2.0000     -10.290248      -280.0119
  12   2.0000     -10.290040      -280.0062
  13   2.0000     -10.275197      -279.6023
  14   2.0000     -10.274270      -279.5771
  15   2.0000     -10.254287      -279.0333
  16   2.0000      -8.087397      -220.0693
  17   2.0000      -8.075177      -219.7367
  18   2.0000      -6.045632      -164.5100
  19   2.0000      -6.042187      -164.4163
  20   2.0000      -6.038347      -164.3118
  21   2.0000      -6.033686      -164.1850
  22   2.0000      -6.029510      -164.0713
  23   2.0000      -6.025964      -163.9748
  24   2.0000      -1.007973       -27.4283
  25   2.0000      -0.981062       -26.6961
  26   2.0000      -0.911288       -24.7974
  27   2.0000      -0.904869       -24.6227
  28   2.0000      -0.870791       -23.6954
  29   2.0000      -0.853159       -23.2156
  30   2.0000      -0.843219       -22.9451
  31   2.0000      -0.804963       -21.9042
  32   2.0000      -0.789201       -21.4752
  33   2.0000      -0.774281       -21.0692
  34   2.0000      -0.711238       -19.3538
  35   2.0000      -0.695246       -18.9186
  36   2.0000      -0.686244       -18.6737
  37   2.0000      -0.662335       -18.0230
  38   2.0000      -0.642126       -17.4731
  39   2.0000      -0.618430       -16.8283
  40   2.0000      -0.594186       -16.1686
  41   2.0000      -0.564528       -15.3616
  42   2.0000      -0.557587       -15.1727
  43   2.0000      -0.551427       -15.0051
  44   2.0000      -0.546126       -14.8608
  45   2.0000      -0.537055       -14.6140
  46   2.0000      -0.513762       -13.9802
  47   2.0000      -0.509059       -13.8522
  48   2.0000      -0.500556       -13.6208
  49   2.0000      -0.496294       -13.5049
  50   2.0000      -0.487125       -13.2553
  51   2.0000      -0.474628       -12.9153
  52   2.0000      -0.468407       -12.7460
  53   2.0000      -0.464843       -12.6490
  54   2.0000      -0.461332       -12.5535
  55   2.0000      -0.450685       -12.2637
  56   2.0000      -0.447573       -12.1791
  57   2.0000      -0.440409       -11.9841
  58   2.0000      -0.433533       -11.7970
  59   2.0000      -0.423864       -11.5339
  60   2.0000      -0.416080       -11.3221
  61   2.0000      -0.412254       -11.2180
  62   2.0000      -0.404193       -10.9986
  63   2.0000      -0.342549        -9.3212
  64   2.0000      -0.328745        -8.9456
  65   2.0000      -0.321349        -8.7444
  66   2.0000      -0.297346        -8.0912
  67   0.0000       0.032846         0.8938
  68   0.0000       0.055680         1.5151
  69   0.0000       0.106283         2.8921
  70   0.0000       0.119914         3.2630
  71   0.0000       0.125596         3.4176

MULLIKEN ATOMIC CHARGES
-----------------------
   0 S :    0.127074
   1 C :   -0.078019
   2 C :   -0.068386
   3 C :    0.045240
   4 C :   -0.205800
   5 H :    0.028762
   6 C :    0.040854
   7 H :    0.039646
   8 H :    0.029265
   9 C :   -0.102484
  10 H :    0.034356
  11 H :    0.025953
  12 C :   -0.041629
  13 H :    0.026589
  14 H :    0.055759
  15 H :    0.017960
  16 S :    0.104351
  17 C :   -0.102273
  18 C :   -0.028119
  19 C :   -0.043380
  20 C :   -0.176475
  21 H :   -0.000464
  22 C :    0.103185
  23 H :    0.017819
  24 H :    0.025738
  25 C :   -0.104633
  26 H :    0.016063
  27 H :    0.034286
  28 C :    0.041648
  29 H :    0.015278
  30 H :    0.017745
  31 H :    0.013528
  32 H :    0.013446
  33 H :    0.077117
Sum of atomic charges:    0.0000000

LOEWDIN ATOMIC CHARGES
----------------------
   0 S :    0.409493
   1 C :   -0.186706
   2 C :   -0.063627
   3 C :   -0.047133
   4 C :   -0.195131
   5 H :    0.040111
   6 C :   -0.030939
   7 H :    0.036737
   8 H :    0.029916
   9 C :   -0.051241
  10 H :    0.027803
  11 H :    0.021211
  12 C :   -0.064563
  13 H :    0.016671
  14 H :    0.031918
  15 H :    0.024941
  16 S :    0.410936
  17 C :   -0.194531
  18 C :   -0.073834
  19 C :   -0.037819
  20 C :   -0.214946
  21 H :    0.019693
  22 C :   -0.027978
  23 H :    0.031117
  24 H :    0.034594
  25 C :   -0.048187
  26 H :    0.022177
  27 H :    0.023602
  28 C :   -0.043962
  29 H :    0.014517
  30 H :    0.020178
  31 H :    0.016922
  32 H :    0.009697
  33 H :    0.038367

  Mayer bond orders larger than 0.100000
B(  0-S ,  1-C ) :   1.1416 B(  0-S ,  4-C ) :   1.1540 B(  1-C ,  2-C ) :   1.6079
B(  1-C ,  4-C ) :   0.1052 B(  1-C , 32-H ) :   0.9670 B(  2-C ,  3-C ) :   1.2687
B(  2-C ,  6-C ) :   1.0084 B(  3-C ,  4-C ) :   1.5480 B(  3-C ,  5-H ) :   0.9910
B(  4-C , 20-C ) :   1.0511 B(  6-C ,  7-H ) :   0.9474 B(  6-C ,  8-H ) :   0.9473
B(  6-C ,  9-C ) :   1.0607 B(  9-C , 10-H ) :   0.9582 B(  9-C , 11-H ) :   0.9581
B(  9-C , 12-C ) :   1.0656 B( 12-C , 13-H ) :   0.9749 B( 12-C , 14-H ) :   0.9739
B( 12-C , 15-H ) :   0.9762 B( 16-S , 17-C ) :   1.1740 B( 16-S , 20-C ) :   1.1305
B( 17-C , 18-C ) :   1.5915 B( 17-C , 33-H ) :   0.9624 B( 18-C , 19-C ) :   1.2361
B( 18-C , 21-H ) :   1.0009 B( 19-C , 20-C ) :   1.6030 B( 19-C , 22-C ) :   1.0180
B( 22-C , 23-H ) :   0.9340 B( 22-C , 24-H ) :   0.9264 B( 22-C , 25-C ) :   1.0917
B( 25-C , 26-H ) :   0.9484 B( 25-C , 27-H ) :   0.9437 B( 25-C , 28-C ) :   1.0783
B( 28-C , 29-H ) :   0.9708 B( 28-C , 30-H ) :   0.9750 B( 28-C , 31-H ) :   0.9703

Dispersion correction           -0.016271774
FINAL SINGLE POINT ENERGY     -1339.864305349422

DIPOLE MOMENT
-------------
                                X             Y             Z
Electronic contribution:     15.96107       6.10999      17.95498
Nuclear contribution   :    -16.59617      -6.36897     -17.95982
                        -----------------------------------------
Total Dipole Moment    :     -0.63510      -0.25898      -0.00484
                        -----------------------------------------
Magnitude (a.u.)       :      0.68589
Magnitude (Debye)      :      1.74339

Rotational constants in cm-1:     0.020895     0.009244     0.008260
Rotational constants in MHz :   626.418005   277.117815   247.635508

                             ****ORCA TERMINATED NORMALLY****
TOTAL RUN TIME: 0 days 0 hours 0 minutes 35 seconds 375 msec
