                         Program Version 4.2.1 -  RELEASE  -
|  1> ! wB97X-D3 SP def2-SVP
|  2> %pal
|  3> nprocs 16
|  4> end
|  5>
|  6> * xyz 0 1
|  7> S 	 5.83602 	 -11.8928 	 62.6687
|  8> C 	 6.16692 	 -12.7407 	 64.2347
|  9> C 	 5.12435 	 -12.4634 	 65.1073
| 10> C 	 4.16176 	 -11.5993 	 64.5496
| 11> C 	 4.38918 	 -11.1179 	 63.2433
| 12> H 	 3.33197 	 -11.2491 	 65.0361
| 13> C 	 4.87853 	 -12.9869 	 66.4953
| 14> H 	 5.08007 	 -14.0566 	 66.3822
| 15> H 	 3.85017 	 -12.9393 	 66.8544
| 16> C 	 5.64711 	 -12.2899 	 67.6362
| 17> H 	 6.63793 	 -12.1414 	 67.2291
| 18> H 	 5.33077 	 -11.2697 	 67.6091
| 19> C 	 5.42179 	 -13.0841 	 68.9807
| 20> H 	 5.52056 	 -14.1248 	 68.6801
| 21> H 	 6.23037 	 -12.7472 	 69.6077
| 22> H 	 4.44771 	 -12.8474 	 69.3675
| 23> S 	 4.23521 	 -8.71461 	 61.9056
| 24> C 	 2.68931 	 -8.02449 	 61.7358
| 25> C 	 1.65047 	 -8.93356 	 62.0432
| 26> C 	 2.10156 	 -10.2065 	 62.4842
| 27> C 	 3.47679 	 -10.2461 	 62.4914
| 28> H 	 0.660737 	 -8.5267 	 61.9462
| 29> C 	 1.17404 	 -11.1592 	 63.1189
| 30> H 	 0.832403 	 -10.6996 	 64.0705
| 31> H 	 1.84254 	 -12.0088 	 63.4211
| 32> C 	 -0.0197709 	 -11.6595 	 62.2902
| 33> H 	 0.239954 	 -11.8987 	 61.2862
| 34> H 	 -0.662111 	 -10.798 	 62.188
| 35> C 	 -0.873933 	 -12.7727 	 62.9859
| 36> H 	 -0.209157 	 -13.6317 	 63.2399
| 37> H 	 -1.73111 	 -13.0682 	 62.4255
| 38> H 	 -1.34785 	 -12.4544 	 63.8991
| 39> H 	 6.96689 	 -13.3876 	 64.4368
| 40> H 	 2.43658 	 -7.03334 	 61.371
| 41> *
| 42>
| 43>                          ****END OF INPUT****

CARTESIAN COORDINATES (ANGSTROEM)
---------------------------------
  S      5.836020  -11.892800   62.668700
  C      6.166920  -12.740700   64.234700
  C      5.124350  -12.463400   65.107300
  C      4.161760  -11.599300   64.549600
  C      4.389180  -11.117900   63.243300
  H      3.331970  -11.249100   65.036100
  C      4.878530  -12.986900   66.495300
  H      5.080070  -14.056600   66.382200
  H      3.850170  -12.939300   66.854400
  C      5.647110  -12.289900   67.636200
  H      6.637930  -12.141400   67.229100
  H      5.330770  -11.269700   67.609100
  C      5.421790  -13.084100   68.980700
  H      5.520560  -14.124800   68.680100
  H      6.230370  -12.747200   69.607700
  H      4.447710  -12.847400   69.367500
  S      4.235210   -8.714610   61.905600
  C      2.689310   -8.024490   61.735800
  C      1.650470   -8.933560   62.043200
  C      2.101560  -10.206500   62.484200
  C      3.476790  -10.246100   62.491400
  H      0.660737   -8.526700   61.946200
  C      1.174040  -11.159200   63.118900
  H      0.832403  -10.699600   64.070500
  H      1.842540  -12.008800   63.421100
  C     -0.019771  -11.659500   62.290200
  H      0.239954  -11.898700   61.286200
  H     -0.662111  -10.798000   62.188000
  C     -0.873933  -12.772700   62.985900
  H     -0.209157  -13.631700   63.239900
  H     -1.731110  -13.068200   62.425500
  H     -1.347850  -12.454400   63.899100
  H      6.966890  -13.387600   64.436800
  H      2.436580   -7.033340   61.371000

 Total Charge           Charge          ....    0
 Multiplicity           Mult            ....    1
 Number of Electrons    NEL             ....  134
 Basis Dimension        Dim             ....  322

ORBITAL ENERGIES
----------------

  NO   OCC          E(Eh)            E(eV)
   0   2.0000     -88.968359     -2420.9521
   1   2.0000     -88.965903     -2420.8853
   2   2.0000     -10.330791      -281.1151
   3   2.0000     -10.330540      -281.1083
   4   2.0000     -10.318721      -280.7867
   5   2.0000     -10.316625      -280.7296
   6   2.0000     -10.305195      -280.4186
   7   2.0000     -10.299200      -280.2555
   8   2.0000     -10.294972      -280.1404
   9   2.0000     -10.292936      -280.0850
  10   2.0000     -10.287819      -279.9458
  11   2.0000     -10.287547      -279.9384
  12   2.0000     -10.283630      -279.8318
  13   2.0000     -10.282824      -279.8099
  14   2.0000     -10.282693      -279.8063
  15   2.0000     -10.280563      -279.7483
  16   2.0000      -8.083177      -219.9544
  17   2.0000      -8.079583      -219.8566
  18   2.0000      -6.041569      -164.3994
  19   2.0000      -6.038226      -164.3085
  20   2.0000      -6.037728      -164.2949
  21   2.0000      -6.034056      -164.1950
  22   2.0000      -6.033976      -164.1928
  23   2.0000      -6.030434      -164.0964
  24   2.0000      -1.004365       -27.3302
  25   2.0000      -0.981488       -26.7076
  26   2.0000      -0.912332       -24.8258
  27   2.0000      -0.911255       -24.7965
  28   2.0000      -0.867028       -23.5930
  29   2.0000      -0.855922       -23.2908
  30   2.0000      -0.842520       -22.9261
  31   2.0000      -0.807980       -21.9863
  32   2.0000      -0.785058       -21.3625
  33   2.0000      -0.775125       -21.0922
  34   2.0000      -0.712828       -19.3970
  35   2.0000      -0.707973       -19.2649
  36   2.0000      -0.700068       -19.0498
  37   2.0000      -0.659134       -17.9360
  38   2.0000      -0.644491       -17.5375
  39   2.0000      -0.619220       -16.8498
  40   2.0000      -0.594859       -16.1869
  41   2.0000      -0.576105       -15.6766
  42   2.0000      -0.565838       -15.3972
  43   2.0000      -0.556426       -15.1411
  44   2.0000      -0.529301       -14.4030
  45   2.0000      -0.524793       -14.2803
  46   2.0000      -0.517362       -14.0781
  47   2.0000      -0.514963       -14.0129
  48   2.0000      -0.504928       -13.7398
  49   2.0000      -0.500058       -13.6073
  50   2.0000      -0.497960       -13.5502
  51   2.0000      -0.479810       -13.0563
  52   2.0000      -0.470949       -12.8152
  53   2.0000      -0.463156       -12.6031
  54   2.0000      -0.458691       -12.4816
  55   2.0000      -0.451242       -12.2789
  56   2.0000      -0.445638       -12.1264
  57   2.0000      -0.441638       -12.0176
  58   2.0000      -0.436495       -11.8776
  59   2.0000      -0.429483       -11.6868
  60   2.0000      -0.417837       -11.3699
  61   2.0000      -0.414228       -11.2717
  62   2.0000      -0.404484       -11.0066
  63   2.0000      -0.342189        -9.3114
  64   2.0000      -0.334884        -9.1127
  65   2.0000      -0.328717        -8.9448
  66   2.0000      -0.289540        -7.8788
  67   0.0000       0.027671         0.7530
  68   0.0000       0.064237         1.7480
  69   0.0000       0.109721         2.9857
  70   0.0000       0.113952         3.1008
  71   0.0000       0.134596         3.6625

MULLIKEN ATOMIC CHARGES
-----------------------
   0 S :    0.097939
   1 C :   -0.112753
   2 C :   -0.057362
   3 C :    0.035472
   4 C :   -0.133083
   5 H :   -0.029701
   6 C :    0.016133
   7 H :    0.028735
   8 H :    0.017382
   9 C :   -0.065793
  10 H :    0.013237
  11 H :    0.013240
  12 C :   -0.008549
  13 H :    0.037264
  14 H :    0.045283
  15 H :    0.042209
  16 S :    0.117954
  17 C :   -0.092919
  18 C :   -0.063336
  19 C :   -0.001225
  20 C :   -0.151870
  21 H :    0.014875
  22 C :    0.017755
  23 H :    0.047432
  24 H :    0.036375
  25 C :   -0.051900
  26 H :    0.029242
  27 H :    0.018178
  28 C :   -0.035560
  29 H :    0.041528
  30 H :    0.030139
  31 H :    0.018628
  32 H :    0.028271
  33 H :    0.056780
Sum of atomic charges:    0.0000000

LOEWDIN ATOMIC CHARGES
----------------------
   0 S :    0.391623
   1 C :   -0.176672
   2 C :   -0.060733
   3 C :   -0.060778
   4 C :   -0.200265
   5 H :    0.011646
   6 C :   -0.037735
   7 H :    0.028423
   8 H :    0.027355
   9 C :   -0.040033
  10 H :    0.018592
  11 H :    0.020085
  12 C :   -0.052066
  13 H :    0.028958
  14 H :    0.030323
  15 H :    0.026680
  16 S :    0.411557
  17 C :   -0.195576
  18 C :   -0.073732
  19 C :   -0.051485
  20 C :   -0.183089
  21 H :    0.027515
  22 C :   -0.038462
  23 H :    0.038709
  24 H :    0.034886
  25 C :   -0.033738
  26 H :    0.022927
  27 H :    0.020808
  28 C :   -0.063456
  29 H :    0.030600
  30 H :    0.024423
  31 H :    0.022604
  32 H :    0.019463
  33 H :    0.030642

  Mayer bond orders larger than 0.100000
B(  0-S ,  1-C ) :   1.1302 B(  0-S ,  4-C ) :   1.1589 B(  1-C ,  2-C ) :   1.5725
B(  1-C ,  4-C ) :   0.1056 B(  1-C , 32-H ) :   0.9819 B(  2-C ,  3-C ) :   1.2760
B(  2-C ,  6-C ) :   1.0142 B(  3-C ,  4-C ) :   1.5271 B(  3-C ,  5-H ) :   1.0083
B(  4-C , 20-C ) :   1.0200 B(  6-C ,  7-H ) :   0.9388 B(  6-C ,  8-H ) :   0.9506
B(  6-C ,  9-C ) :   1.0543 B(  9-C , 10-H ) :   0.9609 B(  9-C , 11-H ) :   0.9513
B(  9-C , 12-C ) :   1.0471 B( 12-C , 13-H ) :   0.9787 B( 12-C , 14-H ) :   0.9762
B( 12-C , 15-H ) :   0.9765 B( 16-S , 17-C ) :   1.1738 B( 16-S , 20-C ) :   1.1309
B( 17-C , 18-C ) :   1.6152 B( 17-C , 33-H ) :   0.9642 B( 18-C , 19-C ) :   1.2090
B( 18-C , 21-H ) :   0.9964 B( 19-C , 20-C ) :   1.5975 B( 19-C , 22-C ) :   1.0572
B( 22-C , 23-H ) :   0.9303 B( 22-C , 24-H ) :   0.9288 B( 22-C , 25-C ) :   1.0498
B( 25-C , 26-H ) :   0.9608 B( 25-C , 27-H ) :   0.9507 B( 25-C , 28-C ) :   1.0852
B( 28-C , 29-H ) :   0.9774 B( 28-C , 30-H ) :   0.9742 B( 28-C , 31-H ) :   0.9726

Dispersion correction           -0.013531557
FINAL SINGLE POINT ENERGY     -1339.860345125880

DIPOLE MOMENT
-------------
                                X             Y             Z
Electronic contribution:     15.43468      13.42892     -20.62862
Nuclear contribution   :    -16.06199     -13.47048      21.19405
                        -----------------------------------------
Total Dipole Moment    :     -0.62731      -0.04156       0.56543
                        -----------------------------------------
Magnitude (a.u.)       :      0.84555
Magnitude (Debye)      :      2.14922

Rotational constants in cm-1:     0.016329     0.008102     0.006426
Rotational constants in MHz :   489.534997   242.889543   192.641803

                             ****ORCA TERMINATED NORMALLY****
TOTAL RUN TIME: 0 days 0 hours 0 minutes 29 seconds 367 msec
