                         Program Version 4.2.1 -  RELEASE  -
|  1> ! wB97X-D3 SP def2-SVP
|  2> %pal
|  3> nprocs 16
|  4> end
|  5>
|  6> * xyz 0 1
|  7> S 	 -103.07 	 55.1069 	 119.234
|  8> C 	 -102.206 	 53.642 	 118.938
|  9> C 	 -101.707 	 53.6534 	 117.663
| 10> C 	 -101.922 	 54.8983 	 116.989
| 11> C 	 -102.756 	 55.7515 	 117.624
| 12> H 	 -101.493 	 55.0561 	 115.998
| 13> C 	 -100.759 	 52.6061 	 117.147
| 14> H 	 -101.042 	 51.7377 	 117.701
| 15> H 	 -99.7182 	 52.7276 	 117.462
| 16> C 	 -100.849 	 52.3842 	 115.631
| 17> H 	 -100.553 	 53.3445 	 115.189
| 18> H 	 -100.147 	 51.7146 	 115.252
| 19> C 	 -102.231 	 51.9442 	 115.125
| 20> H 	 -102.222 	 51.8127 	 114.018
| 21> H 	 -102.478 	 50.9781 	 115.594
| 22> H 	 -103.037 	 52.5615 	 115.467
| 23> S 	 -104.455 	 57.0304 	 115.866
| 24> C 	 -104.641 	 58.7853 	 115.939
| 25> C 	 -103.905 	 59.3148 	 116.953
| 26> C 	 -103.233 	 58.3033 	 117.723
| 27> C 	 -103.294 	 57.0849 	 117.174
| 28> H 	 -103.915 	 60.3947 	 117.166
| 29> C 	 -102.322 	 58.7394 	 118.904
| 30> H 	 -102.335 	 57.8246 	 119.516
| 31> H 	 -102.819 	 59.5814 	 119.422
| 32> C 	 -100.959 	 59.2495 	 118.444
| 33> H 	 -101.028 	 60.1756 	 117.793
| 34> H 	 -100.592 	 58.4736 	 117.781
| 35> C 	 -99.8516 	 59.7108 	 119.485
| 36> H 	 -100.156 	 60.6545 	 119.899
| 37> H 	 -98.8761 	 59.9226 	 118.961
| 38> H 	 -99.5445 	 59.0065 	 120.25
| 39> H 	 -102.062 	 52.7597 	 119.551
| 40> H 	 -105.353 	 59.3291 	 115.237
| 41> *
| 42>
| 43>                          ****END OF INPUT****

CARTESIAN COORDINATES (ANGSTROEM)
---------------------------------
  S    -103.070000   55.106900  119.234000
  C    -102.206000   53.642000  118.938000
  C    -101.707000   53.653400  117.663000
  C    -101.922000   54.898300  116.989000
  C    -102.756000   55.751500  117.624000
  H    -101.493000   55.056100  115.998000
  C    -100.759000   52.606100  117.147000
  H    -101.042000   51.737700  117.701000
  H    -99.718200   52.727600  117.462000
  C    -100.849000   52.384200  115.631000
  H    -100.553000   53.344500  115.189000
  H    -100.147000   51.714600  115.252000
  C    -102.231000   51.944200  115.125000
  H    -102.222000   51.812700  114.018000
  H    -102.478000   50.978100  115.594000
  H    -103.037000   52.561500  115.467000
  S    -104.455000   57.030400  115.866000
  C    -104.641000   58.785300  115.939000
  C    -103.905000   59.314800  116.953000
  C    -103.233000   58.303300  117.723000
  C    -103.294000   57.084900  117.174000
  H    -103.915000   60.394700  117.166000
  C    -102.322000   58.739400  118.904000
  H    -102.335000   57.824600  119.516000
  H    -102.819000   59.581400  119.422000
  C    -100.959000   59.249500  118.444000
  H    -101.028000   60.175600  117.793000
  H    -100.592000   58.473600  117.781000
  C    -99.851600   59.710800  119.485000
  H    -100.156000   60.654500  119.899000
  H    -98.876100   59.922600  118.961000
  H    -99.544500   59.006500  120.250000
  H    -102.062000   52.759700  119.551000
  H    -105.353000   59.329100  115.237000

 Total Charge           Charge          ....    0
 Multiplicity           Mult            ....    1
 Number of Electrons    NEL             ....  134
 Basis Dimension        Dim             ....  322

ORBITAL ENERGIES
----------------

  NO   OCC          E(Eh)            E(eV)
   0   2.0000     -88.966641     -2420.9054
   1   2.0000     -88.962665     -2420.7972
   2   2.0000     -10.333084      -281.1775
   3   2.0000     -10.326958      -281.0108
   4   2.0000     -10.323247      -280.9098
   5   2.0000     -10.312302      -280.6120
   6   2.0000     -10.300812      -280.2993
   7   2.0000     -10.295445      -280.1533
   8   2.0000     -10.295125      -280.1446
   9   2.0000     -10.294668      -280.1321
  10   2.0000     -10.291975      -280.0589
  11   2.0000     -10.291307      -280.0407
  12   2.0000     -10.288416      -279.9620
  13   2.0000     -10.282424      -279.7990
  14   2.0000     -10.281633      -279.7775
  15   2.0000     -10.276273      -279.6316
  16   2.0000      -8.081148      -219.8992
  17   2.0000      -8.077612      -219.8030
  18   2.0000      -6.039805      -164.3514
  19   2.0000      -6.036185      -164.2529
  20   2.0000      -6.035566      -164.2361
  21   2.0000      -6.032156      -164.1433
  22   2.0000      -6.031871      -164.1355
  23   2.0000      -6.028215      -164.0361
  24   2.0000      -1.010427       -27.4951
  25   2.0000      -0.991049       -26.9678
  26   2.0000      -0.913450       -24.8562
  27   2.0000      -0.899474       -24.4759
  28   2.0000      -0.869754       -23.6672
  29   2.0000      -0.844917       -22.9914
  30   2.0000      -0.840733       -22.8775
  31   2.0000      -0.822289       -22.3756
  32   2.0000      -0.782370       -21.2894
  33   2.0000      -0.773236       -21.0408
  34   2.0000      -0.710804       -19.3420
  35   2.0000      -0.696400       -18.9500
  36   2.0000      -0.686755       -18.6876
  37   2.0000      -0.665585       -18.1115
  38   2.0000      -0.634471       -17.2648
  39   2.0000      -0.627548       -17.0764
  40   2.0000      -0.589231       -16.0338
  41   2.0000      -0.568727       -15.4759
  42   2.0000      -0.560827       -15.2609
  43   2.0000      -0.552024       -15.0213
  44   2.0000      -0.540145       -14.6981
  45   2.0000      -0.522513       -14.2183
  46   2.0000      -0.513276       -13.9670
  47   2.0000      -0.510179       -13.8827
  48   2.0000      -0.507063       -13.7979
  49   2.0000      -0.493668       -13.4334
  50   2.0000      -0.490399       -13.3444
  51   2.0000      -0.479604       -13.0507
  52   2.0000      -0.474237       -12.9047
  53   2.0000      -0.466410       -12.6917
  54   2.0000      -0.456235       -12.4148
  55   2.0000      -0.448200       -12.1962
  56   2.0000      -0.445579       -12.1248
  57   2.0000      -0.436677       -11.8826
  58   2.0000      -0.432706       -11.7745
  59   2.0000      -0.422715       -11.5027
  60   2.0000      -0.415726       -11.3125
  61   2.0000      -0.411288       -11.1917
  62   2.0000      -0.407511       -11.0889
  63   2.0000      -0.346339        -9.4244
  64   2.0000      -0.333751        -9.0818
  65   2.0000      -0.327520        -8.9123
  66   2.0000      -0.306766        -8.3475
  67   0.0000       0.040233         1.0948
  68   0.0000       0.067938         1.8487
  69   0.0000       0.112407         3.0587
  70   0.0000       0.115689         3.1481
  71   0.0000       0.133604         3.6355

MULLIKEN ATOMIC CHARGES
-----------------------
   0 S :    0.115811
   1 C :   -0.108047
   2 C :   -0.129110
   3 C :    0.033069
   4 C :   -0.139283
   5 H :    0.016128
   6 C :    0.084105
   7 H :   -0.003227
   8 H :    0.045305
   9 C :   -0.060247
  10 H :    0.021513
  11 H :    0.012466
  12 C :   -0.056311
  13 H :    0.045609
  14 H :    0.022323
  15 H :    0.039460
  16 S :    0.099937
  17 C :   -0.115910
  18 C :   -0.030556
  19 C :   -0.069674
  20 C :   -0.151581
  21 H :    0.030275
  22 C :    0.102016
  23 H :    0.026107
  24 H :    0.021928
  25 C :   -0.094600
  26 H :    0.032725
  27 H :    0.028722
  28 C :   -0.047085
  29 H :    0.028085
  30 H :    0.034388
  31 H :    0.037913
  32 H :    0.045342
  33 H :    0.082403
Sum of atomic charges:   -0.0000000

LOEWDIN ATOMIC CHARGES
----------------------
   0 S :    0.414847
   1 C :   -0.201944
   2 C :   -0.071903
   3 C :   -0.063597
   4 C :   -0.188322
   5 H :    0.033390
   6 C :   -0.031342
   7 H :    0.022500
   8 H :    0.036521
   9 C :   -0.039489
  10 H :    0.020926
  11 H :    0.017094
  12 C :   -0.065199
  13 H :    0.032315
  14 H :    0.026315
  15 H :    0.022839
  16 S :    0.394345
  17 C :   -0.181920
  18 C :   -0.074739
  19 C :   -0.059118
  20 C :   -0.197039
  21 H :    0.037553
  22 C :   -0.030405
  23 H :    0.023764
  24 H :    0.029668
  25 C :   -0.046587
  26 H :    0.031727
  27 H :    0.022419
  28 C :   -0.069311
  29 H :    0.020194
  30 H :    0.034507
  31 H :    0.022443
  32 H :    0.034104
  33 H :    0.043445

  Mayer bond orders larger than 0.100000
B(  0-S ,  1-C ) :   1.1414 B(  0-S ,  4-C ) :   1.1375 B(  1-C ,  2-C ) :   1.6258
B(  1-C , 32-H ) :   0.9632 B(  2-C ,  3-C ) :   1.2339 B(  2-C ,  6-C ) :   1.0181
B(  3-C ,  4-C ) :   1.6057 B(  3-C ,  5-H ) :   0.9893 B(  4-C , 20-C ) :   0.9857
B(  6-C ,  7-H ) :   0.9329 B(  6-C ,  8-H ) :   0.9412 B(  6-C ,  9-C ) :   1.0732
B(  9-C , 10-H ) :   0.9511 B(  9-C , 11-H ) :   0.9526 B(  9-C , 12-C ) :   1.0757
B( 12-C , 13-H ) :   0.9748 B( 12-C , 14-H ) :   0.9721 B( 12-C , 15-H ) :   0.9738
B( 16-S , 17-C ) :   1.1442 B( 16-S , 20-C ) :   1.1344 B( 17-C , 18-C ) :   1.6362
B( 17-C , 33-H ) :   0.9582 B( 18-C , 19-C ) :   1.2016 B( 18-C , 21-H ) :   0.9880
B( 19-C , 20-C ) :   1.6629 B( 19-C , 22-C ) :   1.0387 B( 22-C , 23-H ) :   0.9251
B( 22-C , 24-H ) :   0.9320 B( 22-C , 25-C ) :   1.0652 B( 25-C , 26-H ) :   0.9557
B( 25-C , 27-H ) :   0.9587 B( 25-C , 28-C ) :   1.0701 B( 28-C , 29-H ) :   0.9774
B( 28-C , 30-H ) :   0.9741 B( 28-C , 31-H ) :   0.9790

Dispersion correction           -0.014371040
FINAL SINGLE POINT ENERGY     -1339.882209396236

DIPOLE MOMENT
-------------
                                X             Y             Z
Electronic contribution:    -16.91362       1.96457       1.50712
Nuclear contribution   :     17.33555      -1.92088      -1.58808
                        -----------------------------------------
Total Dipole Moment    :      0.42193       0.04370      -0.08096
                        -----------------------------------------
Magnitude (a.u.)       :      0.43184
Magnitude (Debye)      :      1.09765

Rotational constants in cm-1:     0.018465     0.008668     0.007131
Rotational constants in MHz :   553.571846   259.874854   213.781821

                             ****ORCA TERMINATED NORMALLY****
TOTAL RUN TIME: 0 days 0 hours 0 minutes 34 seconds 569 msec
