                         Program Version 4.2.1 -  RELEASE  -
|  1> ! wB97X-D3 SP def2-SVP
|  2> %pal
|  3> nprocs 16
|  4> end
|  5>
|  6> * xyz 0 1
|  7> S 	 -36.0398 	 52.4147 	 113.094
|  8> C 	 -35.9795 	 54.2384 	 112.83
|  9> C 	 -35.8967 	 54.9775 	 113.975
| 10> C 	 -36.2873 	 54.2097 	 115.102
| 11> C 	 -36.4492 	 52.8739 	 114.762
| 12> H 	 -36.4218 	 54.4774 	 116.132
| 13> C 	 -35.4413 	 56.3806 	 114.226
| 14> H 	 -34.7985 	 56.5142 	 113.364
| 15> H 	 -34.9256 	 56.4545 	 115.25
| 16> C 	 -36.5727 	 57.2985 	 114.323
| 17> H 	 -37.1237 	 57.1066 	 115.239
| 18> H 	 -36.1714 	 58.3038 	 114.595
| 19> C 	 -37.5395 	 57.4218 	 113.132
| 20> H 	 -38.1801 	 58.3458 	 113.226
| 21> H 	 -36.9873 	 57.4419 	 112.174
| 22> H 	 -38.2564 	 56.6309 	 113.047
| 23> S 	 -35.979 	 50.6073 	 116.271
| 24> C 	 -37.311 	 49.869 	 117.244
| 25> C 	 -38.437 	 50.6389 	 117.093
| 26> C 	 -38.3091 	 51.6238 	 116.098
| 27> C 	 -37.0009 	 51.8922 	 115.702
| 28> H 	 -39.3298 	 50.4661 	 117.647
| 29> C 	 -39.6228 	 52.4893 	 115.917
| 30> H 	 -40.3885 	 52.0876 	 116.605
| 31> H 	 -39.9279 	 52.3378 	 114.881
| 32> C 	 -39.5577 	 53.9672 	 116.284
| 33> H 	 -38.8233 	 54.5043 	 115.659
| 34> H 	 -39.1353 	 54.0453 	 117.303
| 35> C 	 -40.8203 	 54.8249 	 116.182
| 36> H 	 -40.7373 	 55.7663 	 116.682
| 37> H 	 -41.5343 	 54.2843 	 116.763
| 38> H 	 -41.1258 	 54.9414 	 115.15
| 39> H 	 -35.5068 	 54.663 	 111.993
| 40> H 	 -37.2495 	 49.2023 	 118.018
| 41> *
| 42>
| 43>                          ****END OF INPUT****

CARTESIAN COORDINATES (ANGSTROEM)
---------------------------------
  S    -36.039800   52.414700  113.094000
  C    -35.979500   54.238400  112.830000
  C    -35.896700   54.977500  113.975000
  C    -36.287300   54.209700  115.102000
  C    -36.449200   52.873900  114.762000
  H    -36.421800   54.477400  116.132000
  C    -35.441300   56.380600  114.226000
  H    -34.798500   56.514200  113.364000
  H    -34.925600   56.454500  115.250000
  C    -36.572700   57.298500  114.323000
  H    -37.123700   57.106600  115.239000
  H    -36.171400   58.303800  114.595000
  C    -37.539500   57.421800  113.132000
  H    -38.180100   58.345800  113.226000
  H    -36.987300   57.441900  112.174000
  H    -38.256400   56.630900  113.047000
  S    -35.979000   50.607300  116.271000
  C    -37.311000   49.869000  117.244000
  C    -38.437000   50.638900  117.093000
  C    -38.309100   51.623800  116.098000
  C    -37.000900   51.892200  115.702000
  H    -39.329800   50.466100  117.647000
  C    -39.622800   52.489300  115.917000
  H    -40.388500   52.087600  116.605000
  H    -39.927900   52.337800  114.881000
  C    -39.557700   53.967200  116.284000
  H    -38.823300   54.504300  115.659000
  H    -39.135300   54.045300  117.303000
  C    -40.820300   54.824900  116.182000
  H    -40.737300   55.766300  116.682000
  H    -41.534300   54.284300  116.763000
  H    -41.125800   54.941400  115.150000
  H    -35.506800   54.663000  111.993000
  H    -37.249500   49.202300  118.018000

 Total Charge           Charge          ....    0
 Multiplicity           Mult            ....    1
 Number of Electrons    NEL             ....  134
 Basis Dimension        Dim             ....  322

ORBITAL ENERGIES
----------------

  NO   OCC          E(Eh)            E(eV)
   0   2.0000     -88.972083     -2421.0535
   1   2.0000     -88.964430     -2420.8452
   2   2.0000     -10.332297      -281.1561
   3   2.0000     -10.326583      -281.0006
   4   2.0000     -10.313021      -280.6316
   5   2.0000     -10.312643      -280.6213
   6   2.0000     -10.302042      -280.3328
   7   2.0000     -10.300547      -280.2921
   8   2.0000     -10.297765      -280.2164
   9   2.0000     -10.294085      -280.1163
  10   2.0000     -10.293335      -280.0959
  11   2.0000     -10.288476      -279.9637
  12   2.0000     -10.288210      -279.9564
  13   2.0000     -10.282275      -279.7949
  14   2.0000     -10.281184      -279.7652
  15   2.0000     -10.271815      -279.5103
  16   2.0000      -8.084949      -220.0026
  17   2.0000      -8.078553      -219.8286
  18   2.0000      -6.043556      -164.4535
  19   2.0000      -6.040339      -164.3660
  20   2.0000      -6.037192      -164.2804
  21   2.0000      -6.035071      -164.2226
  22   2.0000      -6.033034      -164.1672
  23   2.0000      -6.029314      -164.0660
  24   2.0000      -1.003158       -27.2973
  25   2.0000      -0.981967       -26.7207
  26   2.0000      -0.924479       -25.1563
  27   2.0000      -0.901755       -24.5380
  28   2.0000      -0.869581       -23.6625
  29   2.0000      -0.847420       -23.0595
  30   2.0000      -0.845881       -23.0176
  31   2.0000      -0.815041       -22.1784
  32   2.0000      -0.789740       -21.4899
  33   2.0000      -0.773952       -21.0603
  34   2.0000      -0.711766       -19.3681
  35   2.0000      -0.703329       -19.1386
  36   2.0000      -0.687566       -18.7096
  37   2.0000      -0.664171       -18.0730
  38   2.0000      -0.639823       -17.4105
  39   2.0000      -0.618548       -16.8315
  40   2.0000      -0.589265       -16.0347
  41   2.0000      -0.569229       -15.4895
  42   2.0000      -0.566742       -15.4218
  43   2.0000      -0.557189       -15.1619
  44   2.0000      -0.545627       -14.8473
  45   2.0000      -0.525494       -14.2994
  46   2.0000      -0.517293       -14.0763
  47   2.0000      -0.512651       -13.9499
  48   2.0000      -0.502646       -13.6777
  49   2.0000      -0.497956       -13.5501
  50   2.0000      -0.487163       -13.2564
  51   2.0000      -0.481131       -13.0923
  52   2.0000      -0.473261       -12.8781
  53   2.0000      -0.462815       -12.5938
  54   2.0000      -0.457414       -12.4469
  55   2.0000      -0.453285       -12.3345
  56   2.0000      -0.444367       -12.0919
  57   2.0000      -0.437778       -11.9125
  58   2.0000      -0.433166       -11.7871
  59   2.0000      -0.429516       -11.6877
  60   2.0000      -0.413297       -11.2464
  61   2.0000      -0.405201       -11.0261
  62   2.0000      -0.403792       -10.9877
  63   2.0000      -0.337330        -9.1792
  64   2.0000      -0.335883        -9.1398
  65   2.0000      -0.323248        -8.7960
  66   2.0000      -0.303581        -8.2608
  67   0.0000       0.032884         0.8948
  68   0.0000       0.047157         1.2832
  69   0.0000       0.083347         2.2680
  70   0.0000       0.117975         3.2103
  71   0.0000       0.130860         3.5609

MULLIKEN ATOMIC CHARGES
-----------------------
   0 S :    0.112501
   1 C :   -0.091325
   2 C :   -0.101305
   3 C :    0.034943
   4 C :   -0.145465
   5 H :    0.015025
   6 C :    0.088265
   7 H :    0.021224
   8 H :    0.051523
   9 C :   -0.075337
  10 H :    0.018144
  11 H :    0.026675
  12 C :   -0.050897
  13 H :    0.040310
  14 H :    0.030480
  15 H :    0.036944
  16 S :    0.089081
  17 C :   -0.037624
  18 C :   -0.047448
  19 C :   -0.020737
  20 C :   -0.191777
  21 H :    0.017310
  22 C :    0.077165
  23 H :    0.015167
  24 H :    0.035915
  25 C :   -0.126871
  26 H :    0.039766
  27 H :    0.021085
  28 C :   -0.005302
  29 H :    0.028375
  30 H :    0.009960
  31 H :    0.037042
  32 H :    0.023954
  33 H :    0.023235
Sum of atomic charges:   -0.0000000

LOEWDIN ATOMIC CHARGES
----------------------
   0 S :    0.360884
   1 C :   -0.174926
   2 C :   -0.051087
   3 C :   -0.047432
   4 C :   -0.176584
   5 H :    0.031874
   6 C :   -0.031517
   7 H :    0.029308
   8 H :    0.051235
   9 C :   -0.050798
  10 H :    0.023579
  11 H :    0.027719
  12 C :   -0.068338
  13 H :    0.035358
  14 H :    0.026435
  15 H :    0.022188
  16 S :    0.390261
  17 C :   -0.159391
  18 C :   -0.063749
  19 C :   -0.056854
  20 C :   -0.206772
  21 H :    0.028335
  22 C :   -0.024572
  23 H :    0.027312
  24 H :    0.031594
  25 C :   -0.054074
  26 H :    0.021453
  27 H :    0.021935
  28 C :   -0.057128
  29 H :    0.026233
  30 H :    0.017865
  31 H :    0.025950
  32 H :    0.010992
  33 H :    0.012711

  Mayer bond orders larger than 0.100000
B(  0-S ,  1-C ) :   1.0931 B(  0-S ,  4-C ) :   1.1308 B(  1-C ,  2-C ) :   1.6888
B(  1-C , 32-H ) :   0.9525 B(  2-C ,  3-C ) :   1.1669 B(  2-C ,  6-C ) :   1.0063
B(  3-C ,  4-C ) :   1.6408 B(  3-C ,  5-H ) :   0.9886 B(  4-C , 20-C ) :   1.0183
B(  6-C ,  7-H ) :   0.9302 B(  6-C ,  8-H ) :   0.9397 B(  6-C ,  9-C ) :   1.0921
B(  9-C , 10-H ) :   0.9465 B(  9-C , 11-H ) :   0.9512 B(  9-C , 12-C ) :   1.0674
B( 12-C , 13-H ) :   0.9726 B( 12-C , 14-H ) :   0.9762 B( 12-C , 15-H ) :   0.9729
B( 16-S , 17-C ) :   1.1398 B( 16-S , 20-C ) :   1.1445 B( 17-C , 18-C ) :   1.6172
B( 17-C , 20-C ) :   0.1069 B( 17-C , 33-H ) :   0.9722 B( 18-C , 19-C ) :   1.2535
B( 18-C , 21-H ) :   0.9862 B( 19-C , 20-C ) :   1.5920 B( 19-C , 22-C ) :   1.0286
B( 22-C , 23-H ) :   0.9453 B( 22-C , 24-H ) :   0.9278 B( 22-C , 25-C ) :   1.0692
B( 25-C , 26-H ) :   0.9456 B( 25-C , 27-H ) :   0.9533 B( 25-C , 28-C ) :   1.0890
B( 28-C , 29-H ) :   0.9704 B( 28-C , 30-H ) :   0.9738 B( 28-C , 31-H ) :   0.9750

Dispersion correction           -0.015481531
FINAL SINGLE POINT ENERGY     -1339.839072791791

DIPOLE MOMENT
-------------
                                X             Y             Z
Electronic contribution:     16.19510     -26.42239      -1.93737
Nuclear contribution   :    -16.44525      27.08448       2.31487
                        -----------------------------------------
Total Dipole Moment    :     -0.25014       0.66209       0.37750
                        -----------------------------------------
Magnitude (a.u.)       :      0.80215
Magnitude (Debye)      :      2.03890

Rotational constants in cm-1:     0.018628     0.009901     0.007366
Rotational constants in MHz :   558.450267   296.833583   220.821790

                             ****ORCA TERMINATED NORMALLY****
TOTAL RUN TIME: 0 days 0 hours 0 minutes 32 seconds 197 msec
