                         Program Version 4.2.1 -  RELEASE  -
|  1> ! wB97X-D3 SP def2-SVP
|  2> %pal
|  3> nprocs 16
|  4> end
|  5>
|  6> * xyz 0 1
|  7> S 	 41.4567 	 24.3551 	 91.4369
|  8> C 	 42.8416 	 25.1257 	 92.1154
|  9> C 	 43.6441 	 24.343 	 92.8985
| 10> C 	 43.2043 	 22.9683 	 92.847
| 11> C 	 42.0967 	 22.7686 	 92.0229
| 12> H 	 43.6813 	 22.1348 	 93.3183
| 13> C 	 44.7204 	 24.8044 	 93.839
| 14> H 	 45.2786 	 25.6742 	 93.4349
| 15> H 	 45.4068 	 24.0554 	 93.9527
| 16> C 	 44.2547 	 25.138 	 95.2893
| 17> H 	 43.2604 	 25.661 	 95.2236
| 18> H 	 44.0365 	 24.1819 	 95.6553
| 19> C 	 45.3246 	 25.8153 	 96.1271
| 20> H 	 46.1381 	 25.0958 	 96.218
| 21> H 	 45.6689 	 26.6812 	 95.5634
| 22> H 	 45.0831 	 26.1382 	 97.121
| 23> S 	 40.4393 	 20.7167 	 93.0017
| 24> C 	 40.1384 	 19.3405 	 92.0998
| 25> C 	 40.6333 	 19.5421 	 90.8066
| 26> C 	 41.2666 	 20.7712 	 90.6103
| 27> C 	 41.4699 	 21.4937 	 91.7958
| 28> H 	 40.4131 	 18.7457 	 90.0866
| 29> C 	 41.7995 	 21.1324 	 89.28
| 30> H 	 42.3315 	 22.0302 	 89.4022
| 31> H 	 40.8935 	 21.339 	 88.6524
| 32> C 	 42.5995 	 20.1433 	 88.5453
| 33> H 	 42.0867 	 19.2196 	 88.6443
| 34> H 	 43.5876 	 20.0839 	 88.9989
| 35> C 	 42.7714 	 20.5383 	 87.1113
| 36> H 	 41.7908 	 20.409 	 86.6365
| 37> H 	 43.4219 	 19.8964 	 86.6279
| 38> H 	 43.2883 	 21.4898 	 86.9202
| 39> H 	 42.9944 	 26.1945 	 92.2201
| 40> H 	 39.594 	 18.4155 	 92.2668
| 41> *
| 42>
| 43>                          ****END OF INPUT****

CARTESIAN COORDINATES (ANGSTROEM)
---------------------------------
  S     41.456700   24.355100   91.436900
  C     42.841600   25.125700   92.115400
  C     43.644100   24.343000   92.898500
  C     43.204300   22.968300   92.847000
  C     42.096700   22.768600   92.022900
  H     43.681300   22.134800   93.318300
  C     44.720400   24.804400   93.839000
  H     45.278600   25.674200   93.434900
  H     45.406800   24.055400   93.952700
  C     44.254700   25.138000   95.289300
  H     43.260400   25.661000   95.223600
  H     44.036500   24.181900   95.655300
  C     45.324600   25.815300   96.127100
  H     46.138100   25.095800   96.218000
  H     45.668900   26.681200   95.563400
  H     45.083100   26.138200   97.121000
  S     40.439300   20.716700   93.001700
  C     40.138400   19.340500   92.099800
  C     40.633300   19.542100   90.806600
  C     41.266600   20.771200   90.610300
  C     41.469900   21.493700   91.795800
  H     40.413100   18.745700   90.086600
  C     41.799500   21.132400   89.280000
  H     42.331500   22.030200   89.402200
  H     40.893500   21.339000   88.652400
  C     42.599500   20.143300   88.545300
  H     42.086700   19.219600   88.644300
  H     43.587600   20.083900   88.998900
  C     42.771400   20.538300   87.111300
  H     41.790800   20.409000   86.636500
  H     43.421900   19.896400   86.627900
  H     43.288300   21.489800   86.920200
  H     42.994400   26.194500   92.220100
  H     39.594000   18.415500   92.266800

 Total Charge           Charge          ....    0
 Multiplicity           Mult            ....    1
 Number of Electrons    NEL             ....  134
 Basis Dimension        Dim             ....  322

ORBITAL ENERGIES
----------------

  NO   OCC          E(Eh)            E(eV)
   0   2.0000     -88.970456     -2421.0092
   1   2.0000     -88.964245     -2420.8402
   2   2.0000     -10.331926      -281.1460
   3   2.0000     -10.321932      -280.8740
   4   2.0000     -10.312683      -280.6224
   5   2.0000     -10.311970      -280.6030
   6   2.0000     -10.299430      -280.2617
   7   2.0000     -10.297524      -280.2099
   8   2.0000     -10.295828      -280.1637
   9   2.0000     -10.287571      -279.9390
  10   2.0000     -10.285933      -279.8945
  11   2.0000     -10.284699      -279.8609
  12   2.0000     -10.279087      -279.7082
  13   2.0000     -10.274222      -279.5758
  14   2.0000     -10.272146      -279.5193
  15   2.0000     -10.268403      -279.4175
  16   2.0000      -8.084427      -219.9884
  17   2.0000      -8.079677      -219.8592
  18   2.0000      -6.042990      -164.4381
  19   2.0000      -6.039172      -164.3342
  20   2.0000      -6.038009      -164.3026
  21   2.0000      -6.035025      -164.2214
  22   2.0000      -6.033908      -164.1910
  23   2.0000      -6.030724      -164.1043
  24   2.0000      -1.008218       -27.4350
  25   2.0000      -0.987160       -26.8620
  26   2.0000      -0.924313       -25.1518
  27   2.0000      -0.914122       -24.8745
  28   2.0000      -0.873069       -23.7574
  29   2.0000      -0.854719       -23.2581
  30   2.0000      -0.851781       -23.1781
  31   2.0000      -0.812778       -22.1168
  32   2.0000      -0.784824       -21.3562
  33   2.0000      -0.773831       -21.0570
  34   2.0000      -0.709178       -19.2977
  35   2.0000      -0.702673       -19.1207
  36   2.0000      -0.698979       -19.0202
  37   2.0000      -0.652481       -17.7549
  38   2.0000      -0.639934       -17.4135
  39   2.0000      -0.618496       -16.8301
  40   2.0000      -0.599521       -16.3138
  41   2.0000      -0.578915       -15.7531
  42   2.0000      -0.578664       -15.7462
  43   2.0000      -0.564089       -15.3496
  44   2.0000      -0.527503       -14.3541
  45   2.0000      -0.522805       -14.2262
  46   2.0000      -0.515834       -14.0366
  47   2.0000      -0.510578       -13.8935
  48   2.0000      -0.509038       -13.8516
  49   2.0000      -0.504828       -13.7371
  50   2.0000      -0.491647       -13.3784
  51   2.0000      -0.477705       -12.9990
  52   2.0000      -0.476200       -12.9581
  53   2.0000      -0.469278       -12.7697
  54   2.0000      -0.461967       -12.5708
  55   2.0000      -0.449341       -12.2272
  56   2.0000      -0.440857       -11.9963
  57   2.0000      -0.438161       -11.9230
  58   2.0000      -0.428570       -11.6620
  59   2.0000      -0.426204       -11.5976
  60   2.0000      -0.422536       -11.4978
  61   2.0000      -0.421331       -11.4650
  62   2.0000      -0.410178       -11.1615
  63   2.0000      -0.338459        -9.2099
  64   2.0000      -0.327390        -8.9087
  65   2.0000      -0.323869        -8.8129
  66   2.0000      -0.301472        -8.2035
  67   0.0000       0.033501         0.9116
  68   0.0000       0.056669         1.5420
  69   0.0000       0.105651         2.8749
  70   0.0000       0.123743         3.3672
  71   0.0000       0.128537         3.4977

MULLIKEN ATOMIC CHARGES
-----------------------
   0 S :    0.130263
   1 C :   -0.096338
   2 C :   -0.094283
   3 C :    0.036372
   4 C :   -0.180358
   5 H :    0.011322
   6 C :    0.073789
   7 H :    0.021022
   8 H :   -0.004872
   9 C :   -0.066776
  10 H :    0.035022
  11 H :    0.008885
  12 C :   -0.013487
  13 H :    0.024624
  14 H :    0.026667
  15 H :    0.037097
  16 S :    0.128884
  17 C :   -0.077345
  18 C :   -0.095454
  19 C :   -0.005185
  20 C :   -0.176543
  21 H :    0.023372
  22 C :    0.091488
  23 H :    0.000104
  24 H :    0.027363
  25 C :   -0.055559
  26 H :    0.013224
  27 H :    0.024930
  28 C :   -0.012518
  29 H :    0.028565
  30 H :    0.004753
  31 H :    0.033572
  32 H :    0.042249
  33 H :    0.055152
Sum of atomic charges:   -0.0000000

LOEWDIN ATOMIC CHARGES
----------------------
   0 S :    0.397379
   1 C :   -0.197540
   2 C :   -0.066042
   3 C :   -0.039624
   4 C :   -0.186811
   5 H :    0.030150
   6 C :   -0.026177
   7 H :    0.029803
   8 H :    0.015726
   9 C :   -0.036596
  10 H :    0.026507
  11 H :    0.014079
  12 C :   -0.060313
  13 H :    0.027497
  14 H :    0.025283
  15 H :    0.025824
  16 S :    0.442329
  17 C :   -0.213474
  18 C :   -0.088836
  19 C :   -0.050676
  20 C :   -0.215213
  21 H :    0.030626
  22 C :   -0.033210
  23 H :    0.018721
  24 H :    0.039209
  25 C :   -0.036519
  26 H :    0.017661
  27 H :    0.026270
  28 C :   -0.059053
  29 H :    0.028135
  30 H :    0.015539
  31 H :    0.031251
  32 H :    0.029229
  33 H :    0.038867

  Mayer bond orders larger than 0.100000
B(  0-S ,  1-C ) :   1.1439 B(  0-S ,  4-C ) :   1.1099 B(  1-C ,  2-C ) :   1.6429
B(  1-C , 32-H ) :   0.9538 B(  2-C ,  3-C ) :   1.2200 B(  2-C ,  6-C ) :   1.0462
B(  3-C ,  4-C ) :   1.5869 B(  3-C ,  5-H ) :   0.9954 B(  4-C , 20-C ) :   1.0840
B(  6-C ,  7-H ) :   0.9408 B(  6-C ,  8-H ) :   0.9316 B(  6-C ,  9-C ) :   1.0432
B(  9-C , 10-H ) :   0.9607 B(  9-C , 11-H ) :   0.9554 B(  9-C , 12-C ) :   1.0750
B( 12-C , 13-H ) :   0.9719 B( 12-C , 14-H ) :   0.9764 B( 12-C , 15-H ) :   0.9745
B( 16-S , 17-C ) :   1.1998 B( 16-S , 20-C ) :   1.1407 B( 17-C , 18-C ) :   1.5562
B( 17-C , 20-C ) :   0.1091 B( 17-C , 33-H ) :   0.9652 B( 18-C , 19-C ) :   1.2850
B( 18-C , 21-H ) :   0.9872 B( 19-C , 20-C ) :   1.5153 B( 19-C , 22-C ) :   1.0559
B( 22-C , 23-H ) :   0.9209 B( 22-C , 24-H ) :   0.9198 B( 22-C , 25-C ) :   1.0871
B( 25-C , 26-H ) :   0.9480 B( 25-C , 27-H ) :   0.9460 B( 25-C , 28-C ) :   1.1038
B( 28-C , 29-H ) :   0.9708 B( 28-C , 30-H ) :   0.9670 B( 28-C , 31-H ) :   0.9703

Dispersion correction           -0.013566193
FINAL SINGLE POINT ENERGY     -1339.863375619582

DIPOLE MOMENT
-------------
                                X             Y             Z
Electronic contribution:    -17.14619      -2.95588       3.24374
Nuclear contribution   :     17.50033       2.84029      -3.25124
                        -----------------------------------------
Total Dipole Moment    :      0.35414      -0.11559      -0.00750
                        -----------------------------------------
Magnitude (a.u.)       :      0.37260
Magnitude (Debye)      :      0.94707

Rotational constants in cm-1:     0.021332     0.007088     0.006112
Rotational constants in MHz :   639.528716   212.478553   183.228489

                             ****ORCA TERMINATED NORMALLY****
TOTAL RUN TIME: 0 days 0 hours 0 minutes 29 seconds 507 msec
