                         Program Version 4.2.1 -  RELEASE  -
|  1> ! wB97X-D3 SP def2-SVP
|  2> %pal
|  3> nprocs 16
|  4> end
|  5>
|  6> * xyz 0 1
|  7> S 	 -81.2512 	 44.2587 	 121.144
|  8> C 	 -81.6549 	 42.6314 	 120.873
|  9> C 	 -81.8519 	 41.9646 	 122.055
| 10> C 	 -81.5835 	 42.8001 	 123.156
| 11> C 	 -81.2013 	 44.0824 	 122.843
| 12> H 	 -81.7233 	 42.6207 	 124.19
| 13> C 	 -82.6866 	 40.7037 	 122.212
| 14> H 	 -83.3899 	 40.7237 	 121.361
| 15> H 	 -83.2186 	 40.8109 	 123.202
| 16> C 	 -81.8378 	 39.4163 	 122.329
| 17> H 	 -81.103 	 39.5243 	 123.151
| 18> H 	 -82.5333 	 38.5696 	 122.437
| 19> C 	 -81.1707 	 39.0834 	 120.993
| 20> H 	 -81.9632 	 38.9713 	 120.237
| 21> H 	 -80.3501 	 39.7568 	 120.729
| 22> H 	 -80.6571 	 38.1696 	 121.06
| 23> S 	 -81.9458 	 46.7263 	 123.537
| 24> C 	 -81.6548 	 47.1821 	 125.179
| 25> C 	 -80.9317 	 46.225 	 125.92
| 26> C 	 -80.4947 	 45.1971 	 125.039
| 27> C 	 -81.0138 	 45.2064 	 123.751
| 28> H 	 -80.719 	 46.425 	 126.991
| 29> C 	 -79.7077 	 44.0229 	 125.677
| 30> H 	 -78.7664 	 44.065 	 125.11
| 31> H 	 -80.2289 	 43.0858 	 125.46
| 32> C 	 -79.4303 	 43.9152 	 127.133
| 33> H 	 -80.3063 	 43.9402 	 127.75
| 34> H 	 -78.9525 	 44.7721 	 127.55
| 35> C 	 -78.716 	 42.6551 	 127.446
| 36> H 	 -79.3306 	 41.8554 	 127.053
| 37> H 	 -78.4606 	 42.6894 	 128.463
| 38> H 	 -77.7449 	 42.6475 	 126.856
| 39> H 	 -81.9558 	 42.3439 	 119.848
| 40> H 	 -81.9273 	 48.1391 	 125.614
| 41> *
| 42>
| 43>                          ****END OF INPUT****

CARTESIAN COORDINATES (ANGSTROEM)
---------------------------------
  S    -81.251200   44.258700  121.144000
  C    -81.654900   42.631400  120.873000
  C    -81.851900   41.964600  122.055000
  C    -81.583500   42.800100  123.156000
  C    -81.201300   44.082400  122.843000
  H    -81.723300   42.620700  124.190000
  C    -82.686600   40.703700  122.212000
  H    -83.389900   40.723700  121.361000
  H    -83.218600   40.810900  123.202000
  C    -81.837800   39.416300  122.329000
  H    -81.103000   39.524300  123.151000
  H    -82.533300   38.569600  122.437000
  C    -81.170700   39.083400  120.993000
  H    -81.963200   38.971300  120.237000
  H    -80.350100   39.756800  120.729000
  H    -80.657100   38.169600  121.060000
  S    -81.945800   46.726300  123.537000
  C    -81.654800   47.182100  125.179000
  C    -80.931700   46.225000  125.920000
  C    -80.494700   45.197100  125.039000
  C    -81.013800   45.206400  123.751000
  H    -80.719000   46.425000  126.991000
  C    -79.707700   44.022900  125.677000
  H    -78.766400   44.065000  125.110000
  H    -80.228900   43.085800  125.460000
  C    -79.430300   43.915200  127.133000
  H    -80.306300   43.940200  127.750000
  H    -78.952500   44.772100  127.550000
  C    -78.716000   42.655100  127.446000
  H    -79.330600   41.855400  127.053000
  H    -78.460600   42.689400  128.463000
  H    -77.744900   42.647500  126.856000
  H    -81.955800   42.343900  119.848000
  H    -81.927300   48.139100  125.614000

 Total Charge           Charge          ....    0
 Multiplicity           Mult            ....    1
 Number of Electrons    NEL             ....  134
 Basis Dimension        Dim             ....  322

ORBITAL ENERGIES
----------------

  NO   OCC          E(Eh)            E(eV)
   0   2.0000     -88.968448     -2420.9546
   1   2.0000     -88.961113     -2420.7549
   2   2.0000     -10.328262      -281.0463
   3   2.0000     -10.323266      -280.9103
   4   2.0000     -10.321168      -280.8533
   5   2.0000     -10.311097      -280.5792
   6   2.0000     -10.306725      -280.4602
   7   2.0000     -10.299078      -280.2522
   8   2.0000     -10.296885      -280.1925
   9   2.0000     -10.296526      -280.1827
  10   2.0000     -10.289139      -279.9817
  11   2.0000     -10.288790      -279.9722
  12   2.0000     -10.286363      -279.9062
  13   2.0000     -10.276337      -279.6333
  14   2.0000     -10.274908      -279.5945
  15   2.0000     -10.271132      -279.4917
  16   2.0000      -8.082717      -219.9419
  17   2.0000      -8.077902      -219.8109
  18   2.0000      -6.041227      -164.3901
  19   2.0000      -6.037237      -164.2816
  20   2.0000      -6.036098      -164.2506
  21   2.0000      -6.033559      -164.1815
  22   2.0000      -6.032058      -164.1406
  23   2.0000      -6.028946      -164.0560
  24   2.0000      -1.014359       -27.6021
  25   2.0000      -0.987191       -26.8628
  26   2.0000      -0.922493       -25.1023
  27   2.0000      -0.911583       -24.8054
  28   2.0000      -0.871266       -23.7084
  29   2.0000      -0.857386       -23.3307
  30   2.0000      -0.848799       -23.0970
  31   2.0000      -0.812258       -22.1027
  32   2.0000      -0.782508       -21.2931
  33   2.0000      -0.772227       -21.0134
  34   2.0000      -0.707978       -19.2651
  35   2.0000      -0.699068       -19.0226
  36   2.0000      -0.690073       -18.7779
  37   2.0000      -0.656352       -17.8603
  38   2.0000      -0.644366       -17.5341
  39   2.0000      -0.621556       -16.9134
  40   2.0000      -0.602283       -16.3889
  41   2.0000      -0.577583       -15.7168
  42   2.0000      -0.571519       -15.5518
  43   2.0000      -0.551481       -15.0066
  44   2.0000      -0.543409       -14.7869
  45   2.0000      -0.532592       -14.4926
  46   2.0000      -0.519181       -14.1276
  47   2.0000      -0.512602       -13.9486
  48   2.0000      -0.507964       -13.8224
  49   2.0000      -0.494536       -13.4570
  50   2.0000      -0.491701       -13.3799
  51   2.0000      -0.478554       -13.0221
  52   2.0000      -0.474656       -12.9160
  53   2.0000      -0.465730       -12.6732
  54   2.0000      -0.460979       -12.5439
  55   2.0000      -0.451543       -12.2871
  56   2.0000      -0.442095       -12.0300
  57   2.0000      -0.439111       -11.9488
  58   2.0000      -0.430009       -11.7011
  59   2.0000      -0.423799       -11.5322
  60   2.0000      -0.417539       -11.3618
  61   2.0000      -0.410745       -11.1769
  62   2.0000      -0.410527       -11.1710
  63   2.0000      -0.350261        -9.5311
  64   2.0000      -0.334556        -9.1037
  65   2.0000      -0.328619        -8.9422
  66   2.0000      -0.287177        -7.8145
  67   0.0000       0.025237         0.6867
  68   0.0000       0.073625         2.0035
  69   0.0000       0.110629         3.0104
  70   0.0000       0.118798         3.2327
  71   0.0000       0.132087         3.5943

MULLIKEN ATOMIC CHARGES
-----------------------
   0 S :    0.108828
   1 C :   -0.139356
   2 C :   -0.053218
   3 C :    0.019919
   4 C :   -0.176190
   5 H :    0.001414
   6 C :    0.022842
   7 H :    0.035539
   8 H :    0.040552
   9 C :   -0.064579
  10 H :    0.037434
  11 H :    0.033209
  12 C :   -0.047620
  13 H :    0.028915
  14 H :    0.037619
  15 H :    0.017212
  16 S :    0.107956
  17 C :   -0.088026
  18 C :   -0.067502
  19 C :   -0.055296
  20 C :   -0.098066
  21 H :    0.042012
  22 C :    0.040832
  23 H :    0.042060
  24 H :    0.012019
  25 C :   -0.060126
  26 H :    0.009503
  27 H :    0.006931
  28 C :   -0.001327
  29 H :    0.030949
  30 H :    0.027227
  31 H :    0.027734
  32 H :    0.063992
  33 H :    0.056608
Sum of atomic charges:    0.0000000

LOEWDIN ATOMIC CHARGES
----------------------
   0 S :    0.441064
   1 C :   -0.212623
   2 C :   -0.072856
   3 C :   -0.060369
   4 C :   -0.208476
   5 H :    0.022970
   6 C :   -0.029140
   7 H :    0.031634
   8 H :    0.037815
   9 C :   -0.040355
  10 H :    0.027320
  11 H :    0.026409
  12 C :   -0.068041
  13 H :    0.026222
  14 H :    0.025944
  15 H :    0.018176
  16 S :    0.401796
  17 C :   -0.183867
  18 C :   -0.083167
  19 C :   -0.049571
  20 C :   -0.200399
  21 H :    0.041661
  22 C :   -0.033908
  23 H :    0.040518
  24 H :    0.028002
  25 C :   -0.052670
  26 H :    0.020113
  27 H :    0.015395
  28 C :   -0.049853
  29 H :    0.025344
  30 H :    0.022303
  31 H :    0.031397
  32 H :    0.032585
  33 H :    0.028630

  Mayer bond orders larger than 0.100000
B(  0-S ,  1-C ) :   1.1755 B(  0-S ,  4-C ) :   1.1733 B(  1-C ,  2-C ) :   1.5635
B(  1-C , 32-H ) :   0.9678 B(  2-C ,  3-C ) :   1.2816 B(  2-C ,  6-C ) :   0.9970
B(  3-C ,  4-C ) :   1.5569 B(  3-C ,  5-H ) :   0.9889 B(  4-C , 20-C ) :   1.0443
B(  6-C ,  7-H ) :   0.9524 B(  6-C ,  8-H ) :   0.9496 B(  6-C ,  9-C ) :   1.0671
B(  9-C , 10-H ) :   0.9549 B(  9-C , 11-H ) :   0.9566 B(  9-C , 12-C ) :   1.0824
B( 12-C , 13-H ) :   0.9755 B( 12-C , 14-H ) :   0.9713 B( 12-C , 15-H ) :   0.9719
B( 16-S , 17-C ) :   1.1882 B( 16-S , 20-C ) :   1.1119 B( 17-C , 18-C ) :   1.5726
B( 17-C , 33-H ) :   0.9608 B( 18-C , 19-C ) :   1.2691 B( 18-C , 21-H ) :   0.9831
B( 19-C , 20-C ) :   1.5883 B( 19-C , 22-C ) :   1.0069 B( 22-C , 23-H ) :   0.9256
B( 22-C , 24-H ) :   0.9391 B( 22-C , 25-C ) :   1.0991 B( 25-C , 26-H ) :   0.9353
B( 25-C , 27-H ) :   0.9342 B( 25-C , 28-C ) :   1.0932 B( 28-C , 29-H ) :   0.9732
B( 28-C , 30-H ) :   0.9659 B( 28-C , 31-H ) :   0.9719

Dispersion correction           -0.013760158
FINAL SINGLE POINT ENERGY     -1339.863171978642

DIPOLE MOMENT
-------------
                                X             Y             Z
Electronic contribution:     -6.75567      25.93105     -12.22955
Nuclear contribution   :      6.62602     -26.33618      12.77852
                        -----------------------------------------
Total Dipole Moment    :     -0.12966      -0.40513       0.54897
                        -----------------------------------------
Magnitude (a.u.)       :      0.69448
Magnitude (Debye)      :      1.76524

Rotational constants in cm-1:     0.017576     0.008891     0.006347
Rotational constants in MHz :   526.908856   266.556024   190.268732

                             ****ORCA TERMINATED NORMALLY****
TOTAL RUN TIME: 0 days 0 hours 0 minutes 33 seconds 671 msec
