                         Program Version 4.2.1 -  RELEASE  -
|  1> ! wB97X-D3 SP def2-SVP
|  2> %pal
|  3> nprocs 16
|  4> end
|  5>
|  6> * xyz 0 1
|  7> S 	 -27.2247 	 54.9409 	 111.462
|  8> C 	 -28.3286 	 53.9802 	 112.487
|  9> C 	 -29.0816 	 54.8617 	 113.31
| 10> C 	 -28.7451 	 56.2478 	 113.117
| 11> C 	 -27.8008 	 56.4523 	 112.072
| 12> H 	 -29.3146 	 57.0196 	 113.68
| 13> C 	 -30.2271 	 54.4427 	 114.224
| 14> H 	 -30.3687 	 55.012 	 115.113
| 15> H 	 -29.967 	 53.5073 	 114.647
| 16> C 	 -31.6031 	 54.1715 	 113.623
| 17> H 	 -31.5367 	 53.2424 	 113.038
| 18> H 	 -32.2894 	 54.0678 	 114.433
| 19> C 	 -32.0501 	 55.3174 	 112.674
| 20> H 	 -31.6502 	 55.0624 	 111.74
| 21> H 	 -33.1254 	 55.3204 	 112.538
| 22> H 	 -31.8048 	 56.3789 	 112.898
| 23> S 	 -25.8935 	 57.7493 	 110.607
| 24> C 	 -26.2103 	 59.3148 	 110.036
| 25> C 	 -27.4435 	 59.7658 	 110.332
| 26> C 	 -28.1666 	 58.9056 	 111.128
| 27> C 	 -27.4238 	 57.735 	 111.388
| 28> H 	 -27.8528 	 60.7649 	 110.009
| 29> C 	 -29.543 	 59.313 	 111.546
| 30> H 	 -29.9614 	 58.5014 	 112.143
| 31> H 	 -30.1838 	 59.4077 	 110.736
| 32> C 	 -29.6949 	 60.5927 	 112.375
| 33> H 	 -30.6458 	 60.9403 	 112.541
| 34> H 	 -29.2633 	 61.4763 	 111.865
| 35> C 	 -28.8925 	 60.4356 	 113.644
| 36> H 	 -28.8819 	 61.3359 	 114.328
| 37> H 	 -27.8046 	 60.24 	 113.481
| 38> H 	 -29.3056 	 59.5746 	 114.239
| 39> H 	 -28.3793 	 52.9274 	 112.309
| 40> H 	 -25.5949 	 59.8999 	 109.348
| 41> *
| 42>
| 43>                          ****END OF INPUT****

CARTESIAN COORDINATES (ANGSTROEM)
---------------------------------
  S    -27.224700   54.940900  111.462000
  C    -28.328600   53.980200  112.487000
  C    -29.081600   54.861700  113.310000
  C    -28.745100   56.247800  113.117000
  C    -27.800800   56.452300  112.072000
  H    -29.314600   57.019600  113.680000
  C    -30.227100   54.442700  114.224000
  H    -30.368700   55.012000  115.113000
  H    -29.967000   53.507300  114.647000
  C    -31.603100   54.171500  113.623000
  H    -31.536700   53.242400  113.038000
  H    -32.289400   54.067800  114.433000
  C    -32.050100   55.317400  112.674000
  H    -31.650200   55.062400  111.740000
  H    -33.125400   55.320400  112.538000
  H    -31.804800   56.378900  112.898000
  S    -25.893500   57.749300  110.607000
  C    -26.210300   59.314800  110.036000
  C    -27.443500   59.765800  110.332000
  C    -28.166600   58.905600  111.128000
  C    -27.423800   57.735000  111.388000
  H    -27.852800   60.764900  110.009000
  C    -29.543000   59.313000  111.546000
  H    -29.961400   58.501400  112.143000
  H    -30.183800   59.407700  110.736000
  C    -29.694900   60.592700  112.375000
  H    -30.645800   60.940300  112.541000
  H    -29.263300   61.476300  111.865000
  C    -28.892500   60.435600  113.644000
  H    -28.881900   61.335900  114.328000
  H    -27.804600   60.240000  113.481000
  H    -29.305600   59.574600  114.239000
  H    -28.379300   52.927400  112.309000
  H    -25.594900   59.899900  109.348000

 Total Charge           Charge          ....    0
 Multiplicity           Mult            ....    1
 Number of Electrons    NEL             ....  134
 Basis Dimension        Dim             ....  322

ORBITAL ENERGIES
----------------

  NO   OCC          E(Eh)            E(eV)
   0   2.0000     -88.970716     -2421.0163
   1   2.0000     -88.967224     -2420.9212
   2   2.0000     -10.338049      -281.3126
   3   2.0000     -10.330957      -281.1196
   4   2.0000     -10.320198      -280.8269
   5   2.0000     -10.309977      -280.5487
   6   2.0000     -10.309594      -280.5383
   7   2.0000     -10.299970      -280.2764
   8   2.0000     -10.299742      -280.2702
   9   2.0000     -10.286678      -279.9147
  10   2.0000     -10.286369      -279.9063
  11   2.0000     -10.285537      -279.8837
  12   2.0000     -10.283125      -279.8181
  13   2.0000     -10.282299      -279.7956
  14   2.0000     -10.281308      -279.7686
  15   2.0000     -10.270630      -279.4781
  16   2.0000      -8.086920      -220.0563
  17   2.0000      -8.081741      -219.9153
  18   2.0000      -6.045190      -164.4980
  19   2.0000      -6.041296      -164.3920
  20   2.0000      -6.040249      -164.3635
  21   2.0000      -6.037786      -164.2965
  22   2.0000      -6.036131      -164.2515
  23   2.0000      -6.032671      -164.1573
  24   2.0000      -1.016288       -27.6546
  25   2.0000      -0.982836       -26.7443
  26   2.0000      -0.920316       -25.0431
  27   2.0000      -0.911761       -24.8103
  28   2.0000      -0.866000       -23.5651
  29   2.0000      -0.854537       -23.2531
  30   2.0000      -0.840667       -22.8757
  31   2.0000      -0.810716       -22.0607
  32   2.0000      -0.787446       -21.4275
  33   2.0000      -0.775207       -21.0944
  34   2.0000      -0.708694       -19.2846
  35   2.0000      -0.700667       -19.0661
  36   2.0000      -0.693544       -18.8723
  37   2.0000      -0.659620       -17.9492
  38   2.0000      -0.637666       -17.3518
  39   2.0000      -0.621495       -16.9117
  40   2.0000      -0.600822       -16.3492
  41   2.0000      -0.576943       -15.6994
  42   2.0000      -0.562732       -15.3127
  43   2.0000      -0.547032       -14.8855
  44   2.0000      -0.542202       -14.7541
  45   2.0000      -0.538184       -14.6447
  46   2.0000      -0.512893       -13.9565
  47   2.0000      -0.506943       -13.7946
  48   2.0000      -0.503519       -13.7015
  49   2.0000      -0.496127       -13.5003
  50   2.0000      -0.491787       -13.3822
  51   2.0000      -0.476886       -12.9767
  52   2.0000      -0.473525       -12.8853
  53   2.0000      -0.461809       -12.5665
  54   2.0000      -0.458823       -12.4852
  55   2.0000      -0.452706       -12.3187
  56   2.0000      -0.446117       -12.1395
  57   2.0000      -0.434999       -11.8369
  58   2.0000      -0.431019       -11.7286
  59   2.0000      -0.429165       -11.6782
  60   2.0000      -0.419947       -11.4273
  61   2.0000      -0.417007       -11.3473
  62   2.0000      -0.410247       -11.1634
  63   2.0000      -0.352739        -9.5985
  64   2.0000      -0.338845        -9.2204
  65   2.0000      -0.329946        -8.9783
  66   2.0000      -0.282585        -7.6895
  67   0.0000       0.022497         0.6122
  68   0.0000       0.078119         2.1257
  69   0.0000       0.099938         2.7195
  70   0.0000       0.121266         3.2998
  71   0.0000       0.129143         3.5142

MULLIKEN ATOMIC CHARGES
-----------------------
   0 S :    0.090517
   1 C :   -0.134053
   2 C :   -0.084870
   3 C :    0.012252
   4 C :   -0.112160
   5 H :    0.022147
   6 C :    0.075460
   7 H :    0.016287
   8 H :    0.006163
   9 C :   -0.056319
  10 H :    0.030117
  11 H :    0.026795
  12 C :   -0.052879
  13 H :    0.028388
  14 H :    0.023290
  15 H :    0.033749
  16 S :    0.124356
  17 C :   -0.071456
  18 C :   -0.060884
  19 C :   -0.056796
  20 C :   -0.152140
  21 H :    0.032047
  22 C :    0.126357
  23 H :   -0.000987
  24 H :    0.015307
  25 C :   -0.023195
  26 H :    0.009321
  27 H :    0.016300
  28 C :   -0.111446
  29 H :    0.037166
  30 H :    0.057005
  31 H :    0.030808
  32 H :    0.052166
  33 H :    0.051186
Sum of atomic charges:   -0.0000000

LOEWDIN ATOMIC CHARGES
----------------------
   0 S :    0.401240
   1 C :   -0.192590
   2 C :   -0.051253
   3 C :   -0.077541
   4 C :   -0.192339
   5 H :    0.032694
   6 C :   -0.036810
   7 H :    0.026856
   8 H :    0.027541
   9 C :   -0.027412
  10 H :    0.025937
  11 H :    0.020137
  12 C :   -0.070089
  13 H :    0.022171
  14 H :    0.023377
  15 H :    0.025328
  16 S :    0.446316
  17 C :   -0.204231
  18 C :   -0.076084
  19 C :   -0.056151
  20 C :   -0.205851
  21 H :    0.041301
  22 C :   -0.022163
  23 H :    0.028269
  24 H :    0.025305
  25 C :   -0.036222
  26 H :    0.014758
  27 H :    0.024054
  28 C :   -0.076037
  29 H :    0.027767
  30 H :    0.033167
  31 H :    0.023238
  32 H :    0.022934
  33 H :    0.032379

  Mayer bond orders larger than 0.100000
B(  0-S ,  1-C ) :   1.1342 B(  0-S ,  4-C ) :   1.1845 B(  1-C ,  2-C ) :   1.5568
B(  1-C ,  4-C ) :   0.1072 B(  1-C , 32-H ) :   0.9818 B(  2-C ,  3-C ) :   1.2788
B(  2-C ,  6-C ) :   1.0278 B(  3-C ,  4-C ) :   1.5165 B(  3-C ,  5-H ) :   0.9841
B(  4-C , 20-C ) :   1.0323 B(  6-C ,  7-H ) :   0.9424 B(  6-C ,  8-H ) :   0.9331
B(  6-C ,  9-C ) :   1.0814 B(  9-C , 10-H ) :   0.9597 B(  9-C , 11-H ) :   0.9580
B(  9-C , 12-C ) :   1.0696 B( 12-C , 13-H ) :   0.9729 B( 12-C , 14-H ) :   0.9741
B( 12-C , 15-H ) :   0.9788 B( 16-S , 17-C ) :   1.1671 B( 16-S , 20-C ) :   1.1695
B( 17-C , 18-C ) :   1.5933 B( 17-C , 33-H ) :   0.9610 B( 18-C , 19-C ) :   1.2954
B( 18-C , 21-H ) :   0.9814 B( 19-C , 20-C ) :   1.5391 B( 19-C , 22-C ) :   1.0382
B( 22-C , 23-H ) :   0.9304 B( 22-C , 24-H ) :   0.9235 B( 22-C , 25-C ) :   1.0764
B( 25-C , 26-H ) :   0.9532 B( 25-C , 27-H ) :   0.9473 B( 25-C , 28-C ) :   1.0687
B( 28-C , 29-H ) :   0.9725 B( 28-C , 30-H ) :   0.9725 B( 28-C , 31-H ) :   0.9736

Dispersion correction           -0.015487668
FINAL SINGLE POINT ENERGY     -1339.868021756427

DIPOLE MOMENT
-------------
                                X             Y             Z
Electronic contribution:     24.52184      -7.30883     -12.38843
Nuclear contribution   :    -25.16264       7.56034      12.41363
                        -----------------------------------------
Total Dipole Moment    :     -0.64080       0.25150       0.02520
                        -----------------------------------------
Magnitude (a.u.)       :      0.68885
Magnitude (Debye)      :      1.75091

Rotational constants in cm-1:     0.018850     0.010004     0.007209
Rotational constants in MHz :   565.109751   299.903054   216.134928

                             ****ORCA TERMINATED NORMALLY****
TOTAL RUN TIME: 0 days 0 hours 0 minutes 32 seconds 516 msec
