                         Program Version 4.2.1 -  RELEASE  -
|  1> ! wB97X-D3 SP def2-SVP
|  2> %pal
|  3> nprocs 16
|  4> end
|  5>
|  6> * xyz 0 1
|  7> S 	 53.5457 	 18.1363 	 49.833
|  8> C 	 55.2205 	 18.6978 	 49.8794
|  9> C 	 55.2763 	 19.8082 	 50.7355
| 10> C 	 54.0804 	 20.0798 	 51.4426
| 11> C 	 53.1323 	 19.1127 	 51.2278
| 12> H 	 53.8531 	 20.8937 	 52.0109
| 13> C 	 56.375 	 20.8214 	 50.8741
| 14> H 	 56.7196 	 20.921 	 49.8867
| 15> H 	 57.0879 	 20.2793 	 51.5252
| 16> C 	 56.074 	 22.2748 	 51.369
| 17> H 	 55.5852 	 22.1822 	 52.3816
| 18> H 	 56.9652 	 22.8559 	 51.5055
| 19> C 	 55.1305 	 22.9954 	 50.4461
| 20> H 	 55.6859 	 23.2114 	 49.471
| 21> H 	 54.2602 	 22.3556 	 50.2105
| 22> H 	 54.8356 	 23.9661 	 50.8288
| 23> S 	 50.4286 	 18.7589 	 50.6196
| 24> C 	 49.2656 	 18.7106 	 51.9198
| 25> C 	 49.8578 	 18.794 	 53.1527
| 26> C 	 51.2676 	 19.1736 	 53.0839
| 27> C 	 51.8019 	 19.0381 	 51.8137
| 28> H 	 49.3176 	 18.7087 	 54.086
| 29> C 	 51.9633 	 19.6552 	 54.2931
| 30> H 	 51.5946 	 20.6181 	 54.6572
| 31> H 	 52.9786 	 19.8848 	 53.8754
| 32> C 	 52.0609 	 18.7085 	 55.504
| 33> H 	 52.7869 	 17.9356 	 55.3232
| 34> H 	 51.0851 	 18.2941 	 55.7439
| 35> C 	 52.7332 	 19.4851 	 56.6886
| 36> H 	 52.8183 	 18.7727 	 57.4872
| 37> H 	 52.1284 	 20.3184 	 57.0147
| 38> H 	 53.7151 	 19.9273 	 56.5864
| 39> H 	 55.99 	 18.4285 	 49.1908
| 40> H 	 48.2558 	 18.3452 	 51.7926
| 41> *
| 42>
| 43>                          ****END OF INPUT****

CARTESIAN COORDINATES (ANGSTROEM)
---------------------------------
  S     53.545700   18.136300   49.833000
  C     55.220500   18.697800   49.879400
  C     55.276300   19.808200   50.735500
  C     54.080400   20.079800   51.442600
  C     53.132300   19.112700   51.227800
  H     53.853100   20.893700   52.010900
  C     56.375000   20.821400   50.874100
  H     56.719600   20.921000   49.886700
  H     57.087900   20.279300   51.525200
  C     56.074000   22.274800   51.369000
  H     55.585200   22.182200   52.381600
  H     56.965200   22.855900   51.505500
  C     55.130500   22.995400   50.446100
  H     55.685900   23.211400   49.471000
  H     54.260200   22.355600   50.210500
  H     54.835600   23.966100   50.828800
  S     50.428600   18.758900   50.619600
  C     49.265600   18.710600   51.919800
  C     49.857800   18.794000   53.152700
  C     51.267600   19.173600   53.083900
  C     51.801900   19.038100   51.813700
  H     49.317600   18.708700   54.086000
  C     51.963300   19.655200   54.293100
  H     51.594600   20.618100   54.657200
  H     52.978600   19.884800   53.875400
  C     52.060900   18.708500   55.504000
  H     52.786900   17.935600   55.323200
  H     51.085100   18.294100   55.743900
  C     52.733200   19.485100   56.688600
  H     52.818300   18.772700   57.487200
  H     52.128400   20.318400   57.014700
  H     53.715100   19.927300   56.586400
  H     55.990000   18.428500   49.190800
  H     48.255800   18.345200   51.792600

 Total Charge           Charge          ....    0
 Multiplicity           Mult            ....    1
 Number of Electrons    NEL             ....  134
 Basis Dimension        Dim             ....  322

ORBITAL ENERGIES
----------------

  NO   OCC          E(Eh)            E(eV)
   0   2.0000     -88.967677     -2420.9336
   1   2.0000     -88.961041     -2420.7530
   2   2.0000     -10.333288      -281.1831
   3   2.0000     -10.330574      -281.1092
   4   2.0000     -10.316279      -280.7202
   5   2.0000     -10.315209      -280.6911
   6   2.0000     -10.305218      -280.4192
   7   2.0000     -10.302626      -280.3487
   8   2.0000     -10.294134      -280.1176
   9   2.0000     -10.293123      -280.0901
  10   2.0000     -10.291094      -280.0349
  11   2.0000     -10.290236      -280.0116
  12   2.0000     -10.289099      -279.9806
  13   2.0000     -10.284883      -279.8659
  14   2.0000     -10.282180      -279.7923
  15   2.0000     -10.276315      -279.6327
  16   2.0000      -8.081909      -219.9199
  17   2.0000      -8.074942      -219.7303
  18   2.0000      -6.040551      -164.3718
  19   2.0000      -6.036668      -164.2661
  20   2.0000      -6.033760      -164.1869
  21   2.0000      -6.032372      -164.1492
  22   2.0000      -6.029665      -164.0755
  23   2.0000      -6.025338      -163.9578
  24   2.0000      -1.005031       -27.3483
  25   2.0000      -0.979628       -26.6570
  26   2.0000      -0.915623       -24.9154
  27   2.0000      -0.909150       -24.7392
  28   2.0000      -0.870911       -23.6987
  29   2.0000      -0.853011       -23.2116
  30   2.0000      -0.844168       -22.9710
  31   2.0000      -0.817530       -22.2461
  32   2.0000      -0.781458       -21.2646
  33   2.0000      -0.769742       -20.9457
  34   2.0000      -0.712737       -19.3946
  35   2.0000      -0.701026       -19.0759
  36   2.0000      -0.697218       -18.9723
  37   2.0000      -0.659223       -17.9384
  38   2.0000      -0.645451       -17.5636
  39   2.0000      -0.626443       -17.0464
  40   2.0000      -0.596987       -16.2448
  41   2.0000      -0.568160       -15.4604
  42   2.0000      -0.566171       -15.4063
  43   2.0000      -0.556001       -15.1296
  44   2.0000      -0.541280       -14.7290
  45   2.0000      -0.529165       -14.3993
  46   2.0000      -0.521421       -14.1886
  47   2.0000      -0.511037       -13.9060
  48   2.0000      -0.507399       -13.8070
  49   2.0000      -0.499810       -13.6005
  50   2.0000      -0.495422       -13.4811
  51   2.0000      -0.481765       -13.1095
  52   2.0000      -0.472416       -12.8551
  53   2.0000      -0.464445       -12.6382
  54   2.0000      -0.460034       -12.5182
  55   2.0000      -0.450589       -12.2611
  56   2.0000      -0.443158       -12.0589
  57   2.0000      -0.438167       -11.9231
  58   2.0000      -0.433891       -11.8068
  59   2.0000      -0.425978       -11.5915
  60   2.0000      -0.419611       -11.4182
  61   2.0000      -0.412929       -11.2364
  62   2.0000      -0.407005       -11.0752
  63   2.0000      -0.351058        -9.5528
  64   2.0000      -0.328093        -8.9279
  65   2.0000      -0.324844        -8.8395
  66   2.0000      -0.286644        -7.8000
  67   0.0000       0.020114         0.5473
  68   0.0000       0.064577         1.7572
  69   0.0000       0.102899         2.8000
  70   0.0000       0.116870         3.1802
  71   0.0000       0.126113         3.4317

MULLIKEN ATOMIC CHARGES
-----------------------
   0 S :    0.105840
   1 C :   -0.107355
   2 C :   -0.121403
   3 C :    0.035143
   4 C :   -0.121801
   5 H :   -0.012040
   6 C :    0.085036
   7 H :    0.010353
   8 H :    0.053471
   9 C :   -0.076475
  10 H :    0.032142
  11 H :    0.033294
  12 C :   -0.074495
  13 H :    0.033994
  14 H :    0.053834
  15 H :    0.037138
  16 S :    0.068166
  17 C :   -0.073556
  18 C :   -0.029574
  19 C :   -0.039378
  20 C :   -0.139706
  21 H :    0.021926
  22 C :    0.035905
  23 H :    0.034171
  24 H :    0.009278
  25 C :   -0.058292
  26 H :    0.036468
  27 H :    0.036261
  28 C :   -0.052831
  29 H :    0.027767
  30 H :    0.021867
  31 H :    0.031748
  32 H :    0.040573
  33 H :    0.062528
Sum of atomic charges:    0.0000000

LOEWDIN ATOMIC CHARGES
----------------------
   0 S :    0.404020
   1 C :   -0.200701
   2 C :   -0.054514
   3 C :   -0.062339
   4 C :   -0.180649
   5 H :    0.014620
   6 C :   -0.033256
   7 H :    0.022578
   8 H :    0.042430
   9 C :   -0.043190
  10 H :    0.024143
  11 H :    0.026143
  12 C :   -0.070121
  13 H :    0.031718
  14 H :    0.030923
  15 H :    0.024994
  16 S :    0.353957
  17 C :   -0.180819
  18 C :   -0.068809
  19 C :   -0.054772
  20 C :   -0.164801
  21 H :    0.029726
  22 C :   -0.042188
  23 H :    0.032530
  24 H :    0.034331
  25 C :   -0.027505
  26 H :    0.028095
  27 H :    0.023206
  28 C :   -0.065202
  29 H :    0.023775
  30 H :    0.019587
  31 H :    0.026365
  32 H :    0.025294
  33 H :    0.030429

  Mayer bond orders larger than 0.100000
B(  0-S ,  1-C ) :   1.1209 B(  0-S ,  4-C ) :   1.1639 B(  1-C ,  2-C ) :   1.5952
B(  1-C ,  4-C ) :   0.1038 B(  1-C , 32-H ) :   0.9784 B(  2-C ,  3-C ) :   1.2513
B(  2-C ,  6-C ) :   0.9895 B(  3-C ,  4-C ) :   1.5330 B(  3-C ,  5-H ) :   0.9992
B(  4-C , 20-C ) :   1.0645 B(  6-C ,  7-H ) :   0.9380 B(  6-C ,  8-H ) :   0.9313
B(  6-C ,  9-C ) :   1.0847 B(  9-C , 10-H ) :   0.9457 B(  9-C , 11-H ) :   0.9528
B(  9-C , 12-C ) :   1.0809 B( 12-C , 13-H ) :   0.9696 B( 12-C , 14-H ) :   0.9736
B( 12-C , 15-H ) :   0.9720 B( 16-S , 17-C ) :   1.1354 B( 16-S , 20-C ) :   1.0952
B( 17-C , 18-C ) :   1.6615 B( 17-C , 33-H ) :   0.9597 B( 18-C , 19-C ) :   1.1876
B( 18-C , 21-H ) :   0.9841 B( 19-C , 20-C ) :   1.6433 B( 19-C , 22-C ) :   1.0543
B( 22-C , 23-H ) :   0.9357 B( 22-C , 24-H ) :   0.9263 B( 22-C , 25-C ) :   1.0645
B( 25-C , 26-H ) :   0.9548 B( 25-C , 27-H ) :   0.9589 B( 25-C , 28-C ) :   1.0760
B( 28-C , 29-H ) :   0.9758 B( 28-C , 30-H ) :   0.9754 B( 28-C , 31-H ) :   0.9763

Dispersion correction           -0.013941743
FINAL SINGLE POINT ENERGY     -1339.857384683223

DIPOLE MOMENT
-------------
                                X             Y             Z
Electronic contribution:    -12.47218     -15.33853     -18.94432
Nuclear contribution   :     12.76759      15.78952      19.46989
                        -----------------------------------------
Total Dipole Moment    :      0.29541       0.45099       0.52557
                        -----------------------------------------
Magnitude (a.u.)       :      0.75291
Magnitude (Debye)      :      1.91376

Rotational constants in cm-1:     0.015967     0.009586     0.007196
Rotational constants in MHz :   478.682045   287.382186   215.741854

                             ****ORCA TERMINATED NORMALLY****
TOTAL RUN TIME: 0 days 0 hours 0 minutes 29 seconds 999 msec
