                         Program Version 4.2.1 -  RELEASE  -
|  1> ! wB97X-D3 SP def2-SVP
|  2> %pal
|  3> nprocs 16
|  4> end
|  5>
|  6> * xyz 0 1
|  7> S 	 -107.674 	 43.7691 	 132.161
|  8> C 	 -106.71 	 44.317 	 133.542
|  9> C 	 -105.732 	 45.1516 	 133.089
| 10> C 	 -105.492 	 45.0064 	 131.676
| 11> C 	 -106.475 	 44.211 	 131.063
| 12> H 	 -104.683 	 45.4006 	 131.137
| 13> C 	 -104.867 	 45.9497 	 134.01
| 14> H 	 -105.407 	 45.9955 	 134.984
| 15> H 	 -104.752 	 46.9887 	 133.689
| 16> C 	 -103.528 	 45.3724 	 134.323
| 17> H 	 -102.938 	 46.0149 	 135.021
| 18> H 	 -103.772 	 44.3896 	 134.762
| 19> C 	 -102.686 	 45.0019 	 133.143
| 20> H 	 -103.1 	 44.3548 	 132.359
| 21> H 	 -102.488 	 45.9478 	 132.627
| 22> H 	 -101.715 	 44.6535 	 133.57
| 23> S 	 -107.583 	 44.6515 	 128.646
| 24> C 	 -106.805 	 44.0607 	 127.206
| 25> C 	 -105.747 	 43.2268 	 127.526
| 26> C 	 -105.668 	 42.9773 	 128.946
| 27> C 	 -106.54 	 43.7311 	 129.688
| 28> H 	 -105.079 	 42.6918 	 126.813
| 29> C 	 -104.732 	 41.9793 	 129.522
| 30> H 	 -104.482 	 41.1624 	 128.809
| 31> H 	 -105.252 	 41.4596 	 130.328
| 32> C 	 -103.433 	 42.5124 	 130.087
| 33> H 	 -102.935 	 41.7463 	 130.67
| 34> H 	 -103.702 	 43.3782 	 130.734
| 35> C 	 -102.411 	 42.9713 	 129.066
| 36> H 	 -102.036 	 42.1247 	 128.475
| 37> H 	 -101.622 	 43.4144 	 129.66
| 38> H 	 -102.869 	 43.5809 	 128.248
| 39> H 	 -107.091 	 44.1964 	 134.54
| 40> H 	 -107.05 	 44.5144 	 126.271
| 41> *
| 42>
| 43>                          ****END OF INPUT****

CARTESIAN COORDINATES (ANGSTROEM)
---------------------------------
  S    -107.674000   43.769100  132.161000
  C    -106.710000   44.317000  133.542000
  C    -105.732000   45.151600  133.089000
  C    -105.492000   45.006400  131.676000
  C    -106.475000   44.211000  131.063000
  H    -104.683000   45.400600  131.137000
  C    -104.867000   45.949700  134.010000
  H    -105.407000   45.995500  134.984000
  H    -104.752000   46.988700  133.689000
  C    -103.528000   45.372400  134.323000
  H    -102.938000   46.014900  135.021000
  H    -103.772000   44.389600  134.762000
  C    -102.686000   45.001900  133.143000
  H    -103.100000   44.354800  132.359000
  H    -102.488000   45.947800  132.627000
  H    -101.715000   44.653500  133.570000
  S    -107.583000   44.651500  128.646000
  C    -106.805000   44.060700  127.206000
  C    -105.747000   43.226800  127.526000
  C    -105.668000   42.977300  128.946000
  C    -106.540000   43.731100  129.688000
  H    -105.079000   42.691800  126.813000
  C    -104.732000   41.979300  129.522000
  H    -104.482000   41.162400  128.809000
  H    -105.252000   41.459600  130.328000
  C    -103.433000   42.512400  130.087000
  H    -102.935000   41.746300  130.670000
  H    -103.702000   43.378200  130.734000
  C    -102.411000   42.971300  129.066000
  H    -102.036000   42.124700  128.475000
  H    -101.622000   43.414400  129.660000
  H    -102.869000   43.580900  128.248000
  H    -107.091000   44.196400  134.540000
  H    -107.050000   44.514400  126.271000

 Total Charge           Charge          ....    0
 Multiplicity           Mult            ....    1
 Number of Electrons    NEL             ....  134
 Basis Dimension        Dim             ....  322

ORBITAL ENERGIES
----------------

  NO   OCC          E(Eh)            E(eV)
   0   2.0000     -88.962547     -2420.7940
   1   2.0000     -88.961818     -2420.7741
   2   2.0000     -10.328654      -281.0570
   3   2.0000     -10.321333      -280.8578
   4   2.0000     -10.319614      -280.8110
   5   2.0000     -10.313758      -280.6516
   6   2.0000     -10.303129      -280.3624
   7   2.0000     -10.301403      -280.3154
   8   2.0000     -10.300992      -280.3043
   9   2.0000     -10.295680      -280.1597
  10   2.0000     -10.289279      -279.9855
  11   2.0000     -10.286134      -279.8999
  12   2.0000     -10.285097      -279.8717
  13   2.0000     -10.281268      -279.7675
  14   2.0000     -10.276500      -279.6378
  15   2.0000     -10.276361      -279.6340
  16   2.0000      -8.078710      -219.8329
  17   2.0000      -8.077577      -219.8020
  18   2.0000      -6.037059      -164.2767
  19   2.0000      -6.036004      -164.2480
  20   2.0000      -6.033061      -164.1679
  21   2.0000      -6.031776      -164.1330
  22   2.0000      -6.029494      -164.0709
  23   2.0000      -6.028510      -164.0441
  24   2.0000      -1.014138       -27.5961
  25   2.0000      -0.990158       -26.9436
  26   2.0000      -0.924266       -25.1505
  27   2.0000      -0.914008       -24.8714
  28   2.0000      -0.873118       -23.7588
  29   2.0000      -0.850575       -23.1453
  30   2.0000      -0.844841       -22.9893
  31   2.0000      -0.818756       -22.2795
  32   2.0000      -0.787862       -21.4388
  33   2.0000      -0.775807       -21.1108
  34   2.0000      -0.704251       -19.1637
  35   2.0000      -0.693536       -18.8721
  36   2.0000      -0.685170       -18.6444
  37   2.0000      -0.668659       -18.1951
  38   2.0000      -0.650250       -17.6942
  39   2.0000      -0.615310       -16.7434
  40   2.0000      -0.601490       -16.3674
  41   2.0000      -0.580542       -15.7973
  42   2.0000      -0.556451       -15.1418
  43   2.0000      -0.553793       -15.0695
  44   2.0000      -0.548194       -14.9171
  45   2.0000      -0.543929       -14.8011
  46   2.0000      -0.522863       -14.2278
  47   2.0000      -0.518318       -14.1042
  48   2.0000      -0.508835       -13.8461
  49   2.0000      -0.499300       -13.5866
  50   2.0000      -0.487236       -13.2584
  51   2.0000      -0.483188       -13.1482
  52   2.0000      -0.481372       -13.0988
  53   2.0000      -0.465169       -12.6579
  54   2.0000      -0.461114       -12.5476
  55   2.0000      -0.444287       -12.0897
  56   2.0000      -0.440987       -11.9999
  57   2.0000      -0.432629       -11.7724
  58   2.0000      -0.430840       -11.7238
  59   2.0000      -0.425511       -11.5788
  60   2.0000      -0.415618       -11.3095
  61   2.0000      -0.411173       -11.1886
  62   2.0000      -0.403878       -10.9901
  63   2.0000      -0.339652        -9.2424
  64   2.0000      -0.332318        -9.0428
  65   2.0000      -0.321298        -8.7430
  66   2.0000      -0.304633        -8.2895
  67   0.0000       0.039900         1.0857
  68   0.0000       0.051293         1.3957
  69   0.0000       0.101080         2.7505
  70   0.0000       0.118939         3.2365
  71   0.0000       0.131425         3.5762

MULLIKEN ATOMIC CHARGES
-----------------------
   0 S :    0.110340
   1 C :   -0.129911
   2 C :   -0.087522
   3 C :    0.060477
   4 C :   -0.165724
   5 H :    0.003926
   6 C :    0.066627
   7 H :    0.020929
   8 H :    0.031131
   9 C :   -0.058790
  10 H :    0.041110
  11 H :    0.016903
  12 C :   -0.062649
  13 H :    0.038805
  14 H :    0.012957
  15 H :    0.040614
  16 S :    0.099796
  17 C :   -0.086878
  18 C :   -0.025519
  19 C :   -0.066618
  20 C :   -0.137845
  21 H :    0.035381
  22 C :    0.068183
  23 H :    0.018456
  24 H :    0.032114
  25 C :   -0.091347
  26 H :    0.027784
  27 H :    0.036616
  28 C :   -0.052491
  29 H :    0.019395
  30 H :    0.042284
  31 H :    0.033498
  32 H :    0.049130
  33 H :    0.058835
Sum of atomic charges:   -0.0000000

LOEWDIN ATOMIC CHARGES
----------------------
   0 S :    0.424637
   1 C :   -0.184042
   2 C :   -0.058907
   3 C :   -0.056077
   4 C :   -0.213869
   5 H :    0.022092
   6 C :   -0.039220
   7 H :    0.035389
   8 H :    0.029893
   9 C :   -0.046013
  10 H :    0.031468
  11 H :    0.025016
  12 C :   -0.073318
  13 H :    0.024438
  14 H :    0.019203
  15 H :    0.033317
  16 S :    0.417460
  17 C :   -0.179441
  18 C :   -0.075088
  19 C :   -0.055757
  20 C :   -0.212399
  21 H :    0.037965
  22 C :   -0.037172
  23 H :    0.031082
  24 H :    0.036851
  25 C :   -0.042813
  26 H :    0.024632
  27 H :    0.023617
  28 C :   -0.069873
  29 H :    0.021946
  30 H :    0.028681
  31 H :    0.027634
  32 H :    0.024330
  33 H :    0.024336

  Mayer bond orders larger than 0.100000
B(  0-S ,  1-C ) :   1.1376 B(  0-S ,  4-C ) :   1.1888 B(  1-C ,  2-C ) :   1.6023
B(  1-C , 32-H ) :   0.9747 B(  2-C ,  3-C ) :   1.2174 B(  2-C ,  6-C ) :   1.0384
B(  3-C ,  4-C ) :   1.5553 B(  3-C ,  5-H ) :   1.0006 B(  4-C , 20-C ) :   0.9724
B(  6-C ,  7-H ) :   0.9354 B(  6-C ,  8-H ) :   0.9337 B(  6-C ,  9-C ) :   1.0811
B(  9-C , 10-H ) :   0.9514 B(  9-C , 11-H ) :   0.9433 B(  9-C , 12-C ) :   1.1004
B( 12-C , 13-H ) :   0.9663 B( 12-C , 14-H ) :   0.9654 B( 12-C , 15-H ) :   0.9665
B( 16-S , 17-C ) :   1.1776 B( 16-S , 20-C ) :   1.1483 B( 17-C , 18-C ) :   1.5724
B( 17-C , 33-H ) :   0.9733 B( 18-C , 19-C ) :   1.2547 B( 18-C , 21-H ) :   0.9824
B( 19-C , 20-C ) :   1.6229 B( 19-C , 22-C ) :   1.0453 B( 22-C , 23-H ) :   0.9365
B( 22-C , 24-H ) :   0.9298 B( 22-C , 25-C ) :   1.0826 B( 25-C , 26-H ) :   0.9514
B( 25-C , 27-H ) :   0.9330 B( 25-C , 28-C ) :   1.0831 B( 28-C , 29-H ) :   0.9709
B( 28-C , 30-H ) :   0.9726 B( 28-C , 31-H ) :   0.9729

Dispersion correction           -0.016480342
FINAL SINGLE POINT ENERGY     -1339.874882828373

DIPOLE MOMENT
-------------
                                X             Y             Z
Electronic contribution:    -28.10273       1.33423      -7.45204
Nuclear contribution   :     28.70733      -1.28427       7.59179
                        -----------------------------------------
Total Dipole Moment    :      0.60459       0.04996       0.13975
                        -----------------------------------------
Magnitude (a.u.)       :      0.62254
Magnitude (Debye)      :      1.58237

Rotational constants in cm-1:     0.018844     0.010759     0.007903
Rotational constants in MHz :   564.937623   322.540454   236.938119

                             ****ORCA TERMINATED NORMALLY****
TOTAL RUN TIME: 0 days 0 hours 0 minutes 38 seconds 332 msec
