                         Program Version 4.2.1 -  RELEASE  -
|  1> ! wB97X-D3 SP def2-SVP
|  2> %pal
|  3> nprocs 16
|  4> end
|  5>
|  6> * xyz 0 1
|  7> S 	 35.558 	 27.4256 	 53.5283
|  8> C 	 34.3435 	 28.6066 	 53.0211
|  9> C 	 33.0619 	 28.201 	 53.3278
| 10> C 	 33.0187 	 26.9328 	 53.9791
| 11> C 	 34.2538 	 26.3354 	 54.0728
| 12> H 	 32.1434 	 26.3772 	 54.3392
| 13> C 	 31.8513 	 29.0383 	 52.9955
| 14> H 	 31.1699 	 28.3214 	 52.6002
| 15> H 	 32.028 	 29.8182 	 52.1964
| 16> C 	 31.1402 	 29.6526 	 54.1852
| 17> H 	 30.7974 	 28.8246 	 54.7714
| 18> H 	 31.9597 	 30.1037 	 54.749
| 19> C 	 30.0085 	 30.5467 	 53.9346
| 20> H 	 29.24 	 30.0636 	 53.3962
| 21> H 	 29.5954 	 30.9212 	 54.874
| 22> H 	 30.3782 	 31.326 	 53.2743
| 23> S 	 34.1357 	 24.347 	 55.9688
| 24> C 	 34.8461 	 22.8113 	 55.6821
| 25> C 	 35.1119 	 22.62 	 54.3593
| 26> C 	 34.9731 	 23.8227 	 53.5919
| 27> C 	 34.531 	 24.8644 	 54.3773
| 28> H 	 35.4406 	 21.6671 	 53.9927
| 29> C 	 35.0499 	 23.8369 	 52.0758
| 30> H 	 36.1211 	 23.8073 	 51.809
| 31> H 	 34.5734 	 24.822 	 51.8714
| 32> C 	 34.3151 	 22.6666 	 51.3929
| 33> H 	 33.2693 	 22.8765 	 51.1654
| 34> H 	 34.3347 	 21.7767 	 52.0888
| 35> C 	 34.9137 	 22.2569 	 50.0461
| 36> H 	 35.9519 	 21.804 	 50.1486
| 37> H 	 35.2175 	 22.9961 	 49.3759
| 38> H 	 34.4177 	 21.4716 	 49.4909
| 39> H 	 34.5541 	 29.536 	 52.5234
| 40> H 	 35.068 	 22.0851 	 56.4718
| 41> *
| 42>
| 43>                          ****END OF INPUT****

CARTESIAN COORDINATES (ANGSTROEM)
---------------------------------
  S     35.558000   27.425600   53.528300
  C     34.343500   28.606600   53.021100
  C     33.061900   28.201000   53.327800
  C     33.018700   26.932800   53.979100
  C     34.253800   26.335400   54.072800
  H     32.143400   26.377200   54.339200
  C     31.851300   29.038300   52.995500
  H     31.169900   28.321400   52.600200
  H     32.028000   29.818200   52.196400
  C     31.140200   29.652600   54.185200
  H     30.797400   28.824600   54.771400
  H     31.959700   30.103700   54.749000
  C     30.008500   30.546700   53.934600
  H     29.240000   30.063600   53.396200
  H     29.595400   30.921200   54.874000
  H     30.378200   31.326000   53.274300
  S     34.135700   24.347000   55.968800
  C     34.846100   22.811300   55.682100
  C     35.111900   22.620000   54.359300
  C     34.973100   23.822700   53.591900
  C     34.531000   24.864400   54.377300
  H     35.440600   21.667100   53.992700
  C     35.049900   23.836900   52.075800
  H     36.121100   23.807300   51.809000
  H     34.573400   24.822000   51.871400
  C     34.315100   22.666600   51.392900
  H     33.269300   22.876500   51.165400
  H     34.334700   21.776700   52.088800
  C     34.913700   22.256900   50.046100
  H     35.951900   21.804000   50.148600
  H     35.217500   22.996100   49.375900
  H     34.417700   21.471600   49.490900
  H     34.554100   29.536000   52.523400
  H     35.068000   22.085100   56.471800

 Total Charge           Charge          ....    0
 Multiplicity           Mult            ....    1
 Number of Electrons    NEL             ....  134
 Basis Dimension        Dim             ....  322

ORBITAL ENERGIES
----------------

  NO   OCC          E(Eh)            E(eV)
   0   2.0000     -88.967645     -2420.9327
   1   2.0000     -88.962620     -2420.7960
   2   2.0000     -10.336157      -281.2611
   3   2.0000     -10.325763      -280.9783
   4   2.0000     -10.313958      -280.6571
   5   2.0000     -10.312999      -280.6310
   6   2.0000     -10.301973      -280.3309
   7   2.0000     -10.300411      -280.2884
   8   2.0000     -10.298529      -280.2372
   9   2.0000     -10.293371      -280.0969
  10   2.0000     -10.292697      -280.0785
  11   2.0000     -10.289898      -280.0024
  12   2.0000     -10.289581      -279.9937
  13   2.0000     -10.275130      -279.6005
  14   2.0000     -10.274529      -279.5841
  15   2.0000     -10.272068      -279.5172
  16   2.0000      -8.081337      -219.9044
  17   2.0000      -8.078779      -219.8348
  18   2.0000      -6.039899      -164.3540
  19   2.0000      -6.037177      -164.2799
  20   2.0000      -6.036056      -164.2494
  21   2.0000      -6.033118      -164.1695
  22   2.0000      -6.032025      -164.1397
  23   2.0000      -6.029561      -164.0727
  24   2.0000      -1.008523       -27.4433
  25   2.0000      -0.986382       -26.8408
  26   2.0000      -0.919970       -25.0337
  27   2.0000      -0.907134       -24.6844
  28   2.0000      -0.868039       -23.6205
  29   2.0000      -0.852773       -23.2051
  30   2.0000      -0.849280       -23.1101
  31   2.0000      -0.818920       -22.2839
  32   2.0000      -0.783632       -21.3237
  33   2.0000      -0.771654       -20.9978
  34   2.0000      -0.705849       -19.2071
  35   2.0000      -0.698196       -18.9989
  36   2.0000      -0.690155       -18.7801
  37   2.0000      -0.661646       -18.0043
  38   2.0000      -0.639980       -17.4148
  39   2.0000      -0.618521       -16.8308
  40   2.0000      -0.595005       -16.1909
  41   2.0000      -0.575927       -15.6718
  42   2.0000      -0.568566       -15.4715
  43   2.0000      -0.557702       -15.1759
  44   2.0000      -0.528496       -14.3811
  45   2.0000      -0.523624       -14.2485
  46   2.0000      -0.520467       -14.1626
  47   2.0000      -0.514539       -14.0013
  48   2.0000      -0.510239       -13.8843
  49   2.0000      -0.505596       -13.7580
  50   2.0000      -0.490806       -13.3555
  51   2.0000      -0.475043       -12.9266
  52   2.0000      -0.467973       -12.7342
  53   2.0000      -0.465707       -12.6725
  54   2.0000      -0.457354       -12.4452
  55   2.0000      -0.455452       -12.3935
  56   2.0000      -0.452343       -12.3089
  57   2.0000      -0.431659       -11.7460
  58   2.0000      -0.428261       -11.6536
  59   2.0000      -0.427646       -11.6368
  60   2.0000      -0.422259       -11.4902
  61   2.0000      -0.412634       -11.2283
  62   2.0000      -0.407238       -11.0815
  63   2.0000      -0.343914        -9.3584
  64   2.0000      -0.332997        -9.0613
  65   2.0000      -0.323957        -8.8153
  66   2.0000      -0.299695        -8.1551
  67   0.0000       0.039598         1.0775
  68   0.0000       0.063900         1.7388
  69   0.0000       0.107649         2.9293
  70   0.0000       0.116838         3.1793
  71   0.0000       0.130591         3.5536

MULLIKEN ATOMIC CHARGES
-----------------------
   0 S :    0.111352
   1 C :   -0.121769
   2 C :   -0.079526
   3 C :    0.041110
   4 C :   -0.161938
   5 H :    0.023877
   6 C :    0.063237
   7 H :    0.010991
   8 H :    0.025155
   9 C :   -0.090103
  10 H :    0.012955
  11 H :    0.025642
  12 C :    0.021080
  13 H :    0.012811
  14 H :    0.041167
  15 H :    0.019525
  16 S :    0.113938
  17 C :   -0.096003
  18 C :   -0.038861
  19 C :   -0.043470
  20 C :   -0.201863
  21 H :    0.015610
  22 C :    0.100471
  23 H :    0.039436
  24 H :    0.045950
  25 C :   -0.078938
  26 H :    0.040472
  27 H :    0.039769
  28 C :   -0.062912
  29 H :    0.013348
  30 H :    0.020181
  31 H :    0.032676
  32 H :    0.042373
  33 H :    0.062258
Sum of atomic charges:    0.0000000

LOEWDIN ATOMIC CHARGES
----------------------
   0 S :    0.384537
   1 C :   -0.188212
   2 C :   -0.061412
   3 C :   -0.065005
   4 C :   -0.181644
   5 H :    0.036896
   6 C :   -0.031876
   7 H :    0.024691
   8 H :    0.031657
   9 C :   -0.047185
  10 H :    0.018865
  11 H :    0.023772
  12 C :   -0.055949
  13 H :    0.019765
  14 H :    0.033454
  15 H :    0.025278
  16 S :    0.427711
  17 C :   -0.193727
  18 C :   -0.073592
  19 C :   -0.061263
  20 C :   -0.212786
  21 H :    0.027878
  22 C :   -0.030394
  23 H :    0.036200
  24 H :    0.039831
  25 C :   -0.041145
  26 H :    0.029059
  27 H :    0.030569
  28 C :   -0.076940
  29 H :    0.028496
  30 H :    0.017220
  31 H :    0.025925
  32 H :    0.026160
  33 H :    0.033165

  Mayer bond orders larger than 0.100000
B(  0-S ,  1-C ) :   1.1230 B(  0-S ,  4-C ) :   1.1439 B(  1-C ,  2-C ) :   1.6332
B(  1-C , 32-H ) :   0.9694 B(  2-C ,  3-C ) :   1.2192 B(  2-C ,  6-C ) :   1.0316
B(  3-C ,  4-C ) :   1.6105 B(  3-C ,  5-H ) :   0.9848 B(  4-C , 20-C ) :   0.9690
B(  6-C ,  7-H ) :   0.9264 B(  6-C ,  8-H ) :   0.9448 B(  6-C ,  9-C ) :   1.0614
B(  9-C , 10-H ) :   0.9473 B(  9-C , 11-H ) :   0.9548 B(  9-C , 12-C ) :   1.1018
B( 12-C , 13-H ) :   0.9675 B( 12-C , 14-H ) :   0.9681 B( 12-C , 15-H ) :   0.9692
B( 16-S , 17-C ) :   1.1641 B( 16-S , 20-C ) :   1.1590 B( 17-C , 18-C ) :   1.6089
B( 17-C , 33-H ) :   0.9662 B( 18-C , 19-C ) :   1.2291 B( 18-C , 21-H ) :   0.9908
B( 19-C , 20-C ) :   1.6213 B( 19-C , 22-C ) :   1.0251 B( 22-C , 23-H ) :   0.9354
B( 22-C , 24-H ) :   0.9336 B( 22-C , 25-C ) :   1.0501 B( 25-C , 26-H ) :   0.9564
B( 25-C , 27-H ) :   0.9612 B( 25-C , 28-C ) :   1.0724 B( 28-C , 29-H ) :   0.9691
B( 28-C , 30-H ) :   0.9756 B( 28-C , 31-H ) :   0.9761

Dispersion correction           -0.013666094
FINAL SINGLE POINT ENERGY     -1339.872387900505

DIPOLE MOMENT
-------------
                                X             Y             Z
Electronic contribution:     13.33359      -2.59273      15.60504
Nuclear contribution   :    -13.70061       2.47657     -15.93704
                        -----------------------------------------
Total Dipole Moment    :     -0.36702      -0.11617      -0.33200
                        -----------------------------------------
Magnitude (a.u.)       :      0.50835
Magnitude (Debye)      :      1.29213

Rotational constants in cm-1:     0.019734     0.007110     0.006327
Rotational constants in MHz :   591.611230   213.149977   189.668436

                             ****ORCA TERMINATED NORMALLY****
TOTAL RUN TIME: 0 days 0 hours 0 minutes 33 seconds 847 msec
