                         Program Version 4.2.1 -  RELEASE  -
|  1> ! wB97X-D3 SP def2-SVP
|  2> %pal
|  3> nprocs 16
|  4> end
|  5>
|  6> * xyz 0 1
|  7> S 	 -45.3543 	 26.1028 	 86.1407
|  8> C 	 -46.8066 	 26.9506 	 85.5656
|  9> C 	 -46.6602 	 27.6416 	 84.3543
| 10> C 	 -45.3399 	 27.4501 	 83.9093
| 11> C 	 -44.5119 	 26.7137 	 84.7345
| 12> H 	 -44.9479 	 27.8625 	 82.9834
| 13> C 	 -47.6464 	 28.5133 	 83.7313
| 14> H 	 -47.1456 	 28.9928 	 82.8733
| 15> H 	 -47.9886 	 29.36 	 84.3805
| 16> C 	 -48.7905 	 27.7844 	 83.032
| 17> H 	 -48.4603 	 26.9153 	 82.4781
| 18> H 	 -49.5467 	 27.4794 	 83.792
| 19> C 	 -49.6055 	 28.6585 	 82.1083
| 20> H 	 -49.0314 	 29.0586 	 81.2619
| 21> H 	 -50.2821 	 27.9057 	 81.7229
| 22> H 	 -50.1952 	 29.4867 	 82.4873
| 23> S 	 -42.7383 	 25.5947 	 83.0326
| 24> C 	 -41.1168 	 25.2416 	 83.4864
| 25> C 	 -40.8644 	 25.723 	 84.7548
| 26> C 	 -42.0298 	 26.4264 	 85.334
| 27> C 	 -43.1247 	 26.3252 	 84.5098
| 28> H 	 -39.8876 	 25.511 	 85.2349
| 29> C 	 -41.9887 	 26.9943 	 86.7413
| 30> H 	 -41.0566 	 26.6542 	 87.161
| 31> H 	 -42.7219 	 26.4303 	 87.2168
| 32> C 	 -42.3293 	 28.5179 	 87.0551
| 33> H 	 -42.5041 	 28.782 	 88.1167
| 34> H 	 -43.2566 	 28.8949 	 86.5064
| 35> C 	 -41.2531 	 29.3549 	 86.5239
| 36> H 	 -41.3239 	 30.4169 	 86.8359
| 37> H 	 -41.137 	 29.2183 	 85.5126
| 38> H 	 -40.3415 	 29.1006 	 86.9485
| 39> H 	 -47.6313 	 27.1418 	 86.2929
| 40> H 	 -40.3977 	 24.8237 	 82.7911
| 41> *
| 42>
| 43>                          ****END OF INPUT****

CARTESIAN COORDINATES (ANGSTROEM)
---------------------------------
  S    -45.354300   26.102800   86.140700
  C    -46.806600   26.950600   85.565600
  C    -46.660200   27.641600   84.354300
  C    -45.339900   27.450100   83.909300
  C    -44.511900   26.713700   84.734500
  H    -44.947900   27.862500   82.983400
  C    -47.646400   28.513300   83.731300
  H    -47.145600   28.992800   82.873300
  H    -47.988600   29.360000   84.380500
  C    -48.790500   27.784400   83.032000
  H    -48.460300   26.915300   82.478100
  H    -49.546700   27.479400   83.792000
  C    -49.605500   28.658500   82.108300
  H    -49.031400   29.058600   81.261900
  H    -50.282100   27.905700   81.722900
  H    -50.195200   29.486700   82.487300
  S    -42.738300   25.594700   83.032600
  C    -41.116800   25.241600   83.486400
  C    -40.864400   25.723000   84.754800
  C    -42.029800   26.426400   85.334000
  C    -43.124700   26.325200   84.509800
  H    -39.887600   25.511000   85.234900
  C    -41.988700   26.994300   86.741300
  H    -41.056600   26.654200   87.161000
  H    -42.721900   26.430300   87.216800
  C    -42.329300   28.517900   87.055100
  H    -42.504100   28.782000   88.116700
  H    -43.256600   28.894900   86.506400
  C    -41.253100   29.354900   86.523900
  H    -41.323900   30.416900   86.835900
  H    -41.137000   29.218300   85.512600
  H    -40.341500   29.100600   86.948500
  H    -47.631300   27.141800   86.292900
  H    -40.397700   24.823700   82.791100

 Total Charge           Charge          ....    0
 Multiplicity           Mult            ....    1
 Number of Electrons    NEL             ....  134
 Basis Dimension        Dim             ....  322

ORBITAL ENERGIES
----------------

  NO   OCC          E(Eh)            E(eV)
   0   2.0000     -88.969135     -2420.9732
   1   2.0000     -88.961371     -2420.7620
   2   2.0000     -10.327557      -281.0271
   3   2.0000     -10.318492      -280.7804
   4   2.0000     -10.317025      -280.7405
   5   2.0000     -10.314564      -280.6736
   6   2.0000     -10.305806      -280.4352
   7   2.0000     -10.299721      -280.2697
   8   2.0000     -10.299716      -280.2695
   9   2.0000     -10.292530      -280.0740
  10   2.0000     -10.292399      -280.0704
  11   2.0000     -10.287543      -279.9383
  12   2.0000     -10.287280      -279.9311
  13   2.0000     -10.286591      -279.9124
  14   2.0000     -10.275350      -279.6065
  15   2.0000     -10.253271      -279.0057
  16   2.0000      -8.083139      -219.9534
  17   2.0000      -8.077829      -219.8089
  18   2.0000      -6.041583      -164.3998
  19   2.0000      -6.037807      -164.2971
  20   2.0000      -6.036184      -164.2529
  21   2.0000      -6.033980      -164.1929
  22   2.0000      -6.031968      -164.1382
  23   2.0000      -6.028775      -164.0513
  24   2.0000      -1.011385       -27.5212
  25   2.0000      -0.985911       -26.8280
  26   2.0000      -0.919993       -25.0343
  27   2.0000      -0.908320       -24.7166
  28   2.0000      -0.871213       -23.7069
  29   2.0000      -0.856252       -23.2998
  30   2.0000      -0.851892       -23.1812
  31   2.0000      -0.813296       -22.1309
  32   2.0000      -0.785060       -21.3626
  33   2.0000      -0.771331       -20.9890
  34   2.0000      -0.702431       -19.1141
  35   2.0000      -0.699271       -19.0281
  36   2.0000      -0.686865       -18.6906
  37   2.0000      -0.665871       -18.1193
  38   2.0000      -0.637439       -17.3456
  39   2.0000      -0.619896       -16.8682
  40   2.0000      -0.587302       -15.9813
  41   2.0000      -0.572009       -15.5652
  42   2.0000      -0.564669       -15.3654
  43   2.0000      -0.558523       -15.1982
  44   2.0000      -0.547623       -14.9016
  45   2.0000      -0.532813       -14.4986
  46   2.0000      -0.521574       -14.1928
  47   2.0000      -0.515895       -14.0382
  48   2.0000      -0.498920       -13.5763
  49   2.0000      -0.495127       -13.4731
  50   2.0000      -0.486686       -13.2434
  51   2.0000      -0.477225       -12.9859
  52   2.0000      -0.471584       -12.8325
  53   2.0000      -0.464624       -12.6431
  54   2.0000      -0.454244       -12.3606
  55   2.0000      -0.453878       -12.3507
  56   2.0000      -0.441120       -12.0035
  57   2.0000      -0.435908       -11.8617
  58   2.0000      -0.431778       -11.7493
  59   2.0000      -0.428825       -11.6689
  60   2.0000      -0.421705       -11.4752
  61   2.0000      -0.410652       -11.1744
  62   2.0000      -0.408578       -11.1180
  63   2.0000      -0.340625        -9.2689
  64   2.0000      -0.336048        -9.1443
  65   2.0000      -0.324287        -8.8243
  66   2.0000      -0.293432        -7.9847
  67   0.0000       0.030049         0.8177
  68   0.0000       0.074642         2.0311
  69   0.0000       0.104774         2.8510
  70   0.0000       0.119104         3.2410
  71   0.0000       0.127439         3.4678

MULLIKEN ATOMIC CHARGES
-----------------------
   0 S :    0.112596
   1 C :   -0.145826
   2 C :   -0.058171
   3 C :    0.016854
   4 C :   -0.155412
   5 H :    0.006769
   6 C :    0.063199
   7 H :    0.008643
   8 H :    0.049863
   9 C :   -0.089511
  10 H :    0.038258
  11 H :    0.032069
  12 C :   -0.051892
  13 H :    0.028349
  14 H :    0.030038
  15 H :    0.035812
  16 S :    0.118811
  17 C :   -0.103627
  18 C :   -0.049871
  19 C :   -0.079560
  20 C :   -0.142116
  21 H :    0.035951
  22 C :    0.110451
  23 H :    0.009406
  24 H :    0.009827
  25 C :   -0.078151
  26 H :    0.033170
  27 H :    0.046001
  28 C :    0.009596
  29 H :    0.025858
  30 H :    0.018971
  31 H :   -0.011998
  32 H :    0.062489
  33 H :    0.063153
Sum of atomic charges:   -0.0000000

LOEWDIN ATOMIC CHARGES
----------------------
   0 S :    0.407023
   1 C :   -0.193008
   2 C :   -0.064220
   3 C :   -0.063854
   4 C :   -0.191161
   5 H :    0.029429
   6 C :   -0.042596
   7 H :    0.031753
   8 H :    0.041639
   9 C :   -0.037398
  10 H :    0.029138
  11 H :    0.028141
  12 C :   -0.069639
  13 H :    0.021801
  14 H :    0.031078
  15 H :    0.023953
  16 S :    0.442422
  17 C :   -0.199228
  18 C :   -0.076309
  19 C :   -0.056939
  20 C :   -0.225550
  21 H :    0.036857
  22 C :   -0.028619
  23 H :    0.028611
  24 H :    0.018315
  25 C :   -0.039401
  26 H :    0.028154
  27 H :    0.035086
  28 C :   -0.062493
  29 H :    0.028929
  30 H :    0.016029
  31 H :    0.011061
  32 H :    0.029626
  33 H :    0.031373

  Mayer bond orders larger than 0.100000
B(  0-S ,  1-C ) :   1.1466 B(  0-S ,  4-C ) :   1.1567 B(  1-C ,  2-C ) :   1.5834
B(  1-C ,  4-C ) :   0.1045 B(  1-C , 32-H ) :   0.9590 B(  2-C ,  3-C ) :   1.2647
B(  2-C ,  6-C ) :   1.0349 B(  3-C ,  4-C ) :   1.5689 B(  3-C ,  5-H ) :   0.9925
B(  4-C , 20-C ) :   1.0239 B(  6-C ,  7-H ) :   0.9358 B(  6-C ,  8-H ) :   0.9325
B(  6-C ,  9-C ) :   1.0638 B(  9-C , 10-H ) :   0.9569 B(  9-C , 11-H ) :   0.9516
B(  9-C , 12-C ) :   1.0854 B( 12-C , 13-H ) :   0.9721 B( 12-C , 14-H ) :   0.9746
B( 12-C , 15-H ) :   0.9751 B( 16-S , 17-C ) :   1.1671 B( 16-S , 20-C ) :   1.1593
B( 17-C , 18-C ) :   1.6024 B( 17-C , 33-H ) :   0.9694 B( 18-C , 19-C ) :   1.2331
B( 18-C , 21-H ) :   0.9842 B( 19-C , 20-C ) :   1.5777 B( 19-C , 22-C ) :   1.0305
B( 22-C , 23-H ) :   0.9362 B( 22-C , 24-H ) :   0.9231 B( 22-C , 25-C ) :   1.0532
B( 25-C , 26-H ) :   0.9569 B( 25-C , 27-H ) :   0.9567 B( 25-C , 28-C ) :   1.0840
B( 28-C , 29-H ) :   0.9682 B( 28-C , 30-H ) :   0.9750 B( 28-C , 31-H ) :   0.9651

Dispersion correction           -0.014327428
FINAL SINGLE POINT ENERGY     -1339.867700436197

DIPOLE MOMENT
-------------
                                X             Y             Z
Electronic contribution:      8.62132     -16.92162      -0.43950
Nuclear contribution   :     -8.70150      17.25829       0.45893
                        -----------------------------------------
Total Dipole Moment    :     -0.08018       0.33667       0.01942
                        -----------------------------------------
Magnitude (a.u.)       :      0.34663
Magnitude (Debye)      :      0.88107

Rotational constants in cm-1:     0.021889     0.007637     0.006676
Rotational constants in MHz :   656.210742   228.940473   200.137868

                             ****ORCA TERMINATED NORMALLY****
TOTAL RUN TIME: 0 days 0 hours 0 minutes 27 seconds 931 msec
