                         Program Version 4.2.1 -  RELEASE  -
|  1> ! wB97X-D3 SP def2-SVP
|  2> %pal
|  3> nprocs 16
|  4> end
|  5>
|  6> * xyz 0 1
|  7> S 	 -45.4349 	 24.9204 	 82.4432
|  8> C 	 -46.4098 	 25.6446 	 83.716
|  9> C 	 -47.097 	 24.6392 	 84.4323
| 10> C 	 -46.8858 	 23.3473 	 83.7952
| 11> C 	 -45.9945 	 23.3369 	 82.7491
| 12> H 	 -47.3467 	 22.3509 	 84.1142
| 13> C 	 -48.0089 	 24.8126 	 85.6937
| 14> H 	 -48.7282 	 24.0252 	 85.6258
| 15> H 	 -48.5769 	 25.6824 	 85.6401
| 16> C 	 -47.2199 	 24.796 	 87.0131
| 17> H 	 -46.4729 	 24.0487 	 87.1415
| 18> H 	 -46.6011 	 25.703 	 86.9965
| 19> C 	 -48.1127 	 24.7629 	 88.2621
| 20> H 	 -48.8397 	 23.9642 	 88.1519
| 21> H 	 -47.6681 	 24.4791 	 89.1587
| 22> H 	 -48.6563 	 25.6633 	 88.4927
| 23> S 	 -45.4012 	 22.4163 	 80.2018
| 24> C 	 -44.7012 	 20.8681 	 79.9446
| 25> C 	 -44.6832 	 20.1454 	 81.115
| 26> C 	 -45.0947 	 20.9358 	 82.2164
| 27> C 	 -45.5076 	 22.2615 	 81.9157
| 28> H 	 -44.4208 	 19.0498 	 81.0411
| 29> C 	 -45.2002 	 20.3197 	 83.6083
| 30> H 	 -46.3001 	 20.3292 	 83.8913
| 31> H 	 -44.7234 	 21.0239 	 84.2911
| 32> C 	 -44.7025 	 18.9061 	 83.8409
| 33> H 	 -43.65 	 18.9008 	 83.6629
| 34> H 	 -45.1804 	 18.202 	 83.1151
| 35> C 	 -44.7381 	 18.3097 	 85.2704
| 36> H 	 -44.3733 	 18.9635 	 85.9547
| 37> H 	 -44.1628 	 17.4419 	 85.374
| 38> H 	 -45.7375 	 17.997 	 85.5748
| 39> H 	 -46.3571 	 26.7166 	 83.8045
| 40> H 	 -44.4599 	 20.38 	 78.9892
| 41> *
| 42>
| 43>                          ****END OF INPUT****

CARTESIAN COORDINATES (ANGSTROEM)
---------------------------------
  S    -45.434900   24.920400   82.443200
  C    -46.409800   25.644600   83.716000
  C    -47.097000   24.639200   84.432300
  C    -46.885800   23.347300   83.795200
  C    -45.994500   23.336900   82.749100
  H    -47.346700   22.350900   84.114200
  C    -48.008900   24.812600   85.693700
  H    -48.728200   24.025200   85.625800
  H    -48.576900   25.682400   85.640100
  C    -47.219900   24.796000   87.013100
  H    -46.472900   24.048700   87.141500
  H    -46.601100   25.703000   86.996500
  C    -48.112700   24.762900   88.262100
  H    -48.839700   23.964200   88.151900
  H    -47.668100   24.479100   89.158700
  H    -48.656300   25.663300   88.492700
  S    -45.401200   22.416300   80.201800
  C    -44.701200   20.868100   79.944600
  C    -44.683200   20.145400   81.115000
  C    -45.094700   20.935800   82.216400
  C    -45.507600   22.261500   81.915700
  H    -44.420800   19.049800   81.041100
  C    -45.200200   20.319700   83.608300
  H    -46.300100   20.329200   83.891300
  H    -44.723400   21.023900   84.291100
  C    -44.702500   18.906100   83.840900
  H    -43.650000   18.900800   83.662900
  H    -45.180400   18.202000   83.115100
  C    -44.738100   18.309700   85.270400
  H    -44.373300   18.963500   85.954700
  H    -44.162800   17.441900   85.374000
  H    -45.737500   17.997000   85.574800
  H    -46.357100   26.716600   83.804500
  H    -44.459900   20.380000   78.989200

 Total Charge           Charge          ....    0
 Multiplicity           Mult            ....    1
 Number of Electrons    NEL             ....  134
 Basis Dimension        Dim             ....  322

ORBITAL ENERGIES
----------------

  NO   OCC          E(Eh)            E(eV)
   0   2.0000     -88.967047     -2420.9164
   1   2.0000     -88.962674     -2420.7974
   2   2.0000     -10.327550      -281.0269
   3   2.0000     -10.327062      -281.0136
   4   2.0000     -10.320241      -280.8280
   5   2.0000     -10.315485      -280.6986
   6   2.0000     -10.314535      -280.6728
   7   2.0000     -10.306523      -280.4548
   8   2.0000     -10.301572      -280.3200
   9   2.0000     -10.295160      -280.1455
  10   2.0000     -10.293018      -280.0873
  11   2.0000     -10.292421      -280.0710
  12   2.0000     -10.286894      -279.9206
  13   2.0000     -10.286054      -279.8978
  14   2.0000     -10.271028      -279.4889
  15   2.0000     -10.268272      -279.4139
  16   2.0000      -8.082353      -219.9320
  17   2.0000      -8.078378      -219.8238
  18   2.0000      -6.040737      -164.3768
  19   2.0000      -6.036789      -164.2694
  20   2.0000      -6.036586      -164.2639
  21   2.0000      -6.033384      -164.1767
  22   2.0000      -6.032589      -164.1551
  23   2.0000      -6.029339      -164.0667
  24   2.0000      -1.011874       -27.5345
  25   2.0000      -0.987025       -26.8583
  26   2.0000      -0.910656       -24.7802
  27   2.0000      -0.907904       -24.7053
  28   2.0000      -0.872315       -23.7369
  29   2.0000      -0.852675       -23.2025
  30   2.0000      -0.843541       -22.9539
  31   2.0000      -0.816635       -22.2218
  32   2.0000      -0.787990       -21.4423
  33   2.0000      -0.775786       -21.1102
  34   2.0000      -0.712020       -19.3751
  35   2.0000      -0.705171       -19.1887
  36   2.0000      -0.697725       -18.9861
  37   2.0000      -0.654529       -17.8107
  38   2.0000      -0.639618       -17.4049
  39   2.0000      -0.618593       -16.8328
  40   2.0000      -0.594524       -16.1778
  41   2.0000      -0.571364       -15.5476
  42   2.0000      -0.568195       -15.4614
  43   2.0000      -0.560121       -15.2417
  44   2.0000      -0.528850       -14.3907
  45   2.0000      -0.525944       -14.3117
  46   2.0000      -0.517112       -14.0713
  47   2.0000      -0.513091       -13.9619
  48   2.0000      -0.507145       -13.8001
  49   2.0000      -0.501696       -13.6518
  50   2.0000      -0.492516       -13.4020
  51   2.0000      -0.484293       -13.1783
  52   2.0000      -0.473698       -12.8900
  53   2.0000      -0.467853       -12.7309
  54   2.0000      -0.461845       -12.5674
  55   2.0000      -0.454099       -12.3567
  56   2.0000      -0.449060       -12.2196
  57   2.0000      -0.440270       -11.9804
  58   2.0000      -0.429923       -11.6988
  59   2.0000      -0.423339       -11.5196
  60   2.0000      -0.419962       -11.4277
  61   2.0000      -0.415314       -11.3013
  62   2.0000      -0.409053       -11.1309
  63   2.0000      -0.351011        -9.5515
  64   2.0000      -0.330786        -9.0011
  65   2.0000      -0.328641        -8.9428
  66   2.0000      -0.289954        -7.8901
  67   0.0000       0.026922         0.7326
  68   0.0000       0.076810         2.0901
  69   0.0000       0.118726         3.2307
  70   0.0000       0.121197         3.2979
  71   0.0000       0.133565         3.6345

MULLIKEN ATOMIC CHARGES
-----------------------
   0 S :    0.101522
   1 C :   -0.137647
   2 C :   -0.090021
   3 C :   -0.005227
   4 C :   -0.156191
   5 H :    0.034116
   6 C :    0.120876
   7 H :    0.011171
   8 H :    0.011830
   9 C :   -0.057614
  10 H :    0.022161
  11 H :    0.022327
  12 C :   -0.016523
  13 H :    0.014232
  14 H :    0.012604
  15 H :    0.027437
  16 S :    0.122695
  17 C :   -0.089432
  18 C :   -0.083526
  19 C :   -0.033859
  20 C :   -0.130886
  21 H :    0.046841
  22 C :    0.035844
  23 H :    0.041864
  24 H :    0.033341
  25 C :   -0.107375
  26 H :    0.023650
  27 H :    0.036954
  28 C :    0.031078
  29 H :    0.005789
  30 H :    0.015451
  31 H :    0.020037
  32 H :    0.055315
  33 H :    0.061166
Sum of atomic charges:    0.0000000

LOEWDIN ATOMIC CHARGES
----------------------
   0 S :    0.421393
   1 C :   -0.192780
   2 C :   -0.053618
   3 C :   -0.076148
   4 C :   -0.210827
   5 H :    0.041283
   6 C :   -0.016061
   7 H :    0.024822
   8 H :    0.023781
   9 C :   -0.036521
  10 H :    0.022172
  11 H :    0.026022
  12 C :   -0.063979
  13 H :    0.025130
  14 H :    0.018959
  15 H :    0.023402
  16 S :    0.441013
  17 C :   -0.202199
  18 C :   -0.089307
  19 C :   -0.053777
  20 C :   -0.221785
  21 H :    0.046232
  22 C :   -0.040810
  23 H :    0.034294
  24 H :    0.032868
  25 C :   -0.045094
  26 H :    0.021640
  27 H :    0.026465
  28 C :   -0.047758
  29 H :    0.012407
  30 H :    0.023062
  31 H :    0.023410
  32 H :    0.024623
  33 H :    0.037686

  Mayer bond orders larger than 0.100000
B(  0-S ,  1-C ) :   1.1551 B(  0-S ,  4-C ) :   1.1668 B(  1-C ,  2-C ) :   1.5680
B(  1-C ,  4-C ) :   0.1011 B(  1-C , 32-H ) :   0.9811 B(  2-C ,  3-C ) :   1.2535
B(  2-C ,  6-C ) :   1.0166 B(  3-C ,  4-C ) :   1.5733 B(  3-C ,  5-H ) :   0.9780
B(  4-C , 20-C ) :   1.0506 B(  6-C ,  7-H ) :   0.9431 B(  6-C ,  8-H ) :   0.9425
B(  6-C ,  9-C ) :   1.0528 B(  9-C , 10-H ) :   0.9613 B(  9-C , 11-H ) :   0.9551
B(  9-C , 12-C ) :   1.0792 B( 12-C , 13-H ) :   0.9723 B( 12-C , 14-H ) :   0.9737
B( 12-C , 15-H ) :   0.9762 B( 16-S , 17-C ) :   1.1879 B( 16-S , 20-C ) :   1.1577
B( 17-C , 18-C ) :   1.5612 B( 17-C , 20-C ) :   0.1079 B( 17-C , 33-H ) :   0.9586
B( 18-C , 19-C ) :   1.3000 B( 18-C , 21-H ) :   0.9782 B( 19-C , 20-C ) :   1.5309
B( 19-C , 22-C ) :   1.0303 B( 22-C , 23-H ) :   0.9323 B( 22-C , 24-H ) :   0.9248
B( 22-C , 25-C ) :   1.0965 B( 25-C , 26-H ) :   0.9509 B( 25-C , 27-H ) :   0.9443
B( 25-C , 28-C ) :   1.0867 B( 28-C , 29-H ) :   0.9709 B( 28-C , 30-H ) :   0.9706
B( 28-C , 31-H ) :   0.9730

Dispersion correction           -0.013205491
FINAL SINGLE POINT ENERGY     -1339.870432023441

DIPOLE MOMENT
-------------
                                X             Y             Z
Electronic contribution:      5.80436      11.92591     -29.64269
Nuclear contribution   :     -5.95784     -12.32980      30.20779
                        -----------------------------------------
Total Dipole Moment    :     -0.15348      -0.40389       0.56510
                        -----------------------------------------
Magnitude (a.u.)       :      0.71135
Magnitude (Debye)      :      1.80812

Rotational constants in cm-1:     0.016698     0.008464     0.005858
Rotational constants in MHz :   500.598415   253.731143   175.620806

                             ****ORCA TERMINATED NORMALLY****
TOTAL RUN TIME: 0 days 0 hours 0 minutes 28 seconds 456 msec
