                         Program Version 4.2.1 -  RELEASE  -
|  1> ! wB97X-D3 SP def2-SVP
|  2> %pal
|  3> nprocs 16
|  4> end
|  5>
|  6> * xyz 0 1
|  7> S 	 -45.4621 	 55.6111 	 98.3254
|  8> C 	 -46.6202 	 55.252 	 99.6157
|  9> C 	 -45.9698 	 54.7569 	 100.776
| 10> C 	 -44.5515 	 54.6834 	 100.559
| 11> C 	 -44.1106 	 55.1506 	 99.3212
| 12> H 	 -43.8661 	 54.3085 	 101.331
| 13> C 	 -46.5692 	 54.3927 	 102.121
| 14> H 	 -47.5931 	 54.7165 	 102.266
| 15> H 	 -45.8976 	 54.8957 	 102.893
| 16> C 	 -46.5179 	 52.8593 	 102.33
| 17> H 	 -47.1052 	 52.3188 	 101.691
| 18> H 	 -45.4845 	 52.5741 	 102.184
| 19> C 	 -46.8923 	 52.4706 	 103.804
| 20> H 	 -46.1679 	 52.942 	 104.505
| 21> H 	 -47.8027 	 52.8763 	 104.18
| 22> H 	 -46.841 	 51.3293 	 103.88
| 23> S 	 -42.1976 	 54.1324 	 97.6803
| 24> C 	 -40.5608 	 54.806 	 97.8614
| 25> C 	 -40.434 	 55.8014 	 98.7782
| 26> C 	 -41.6932 	 56.0949 	 99.3938
| 27> C 	 -42.7359 	 55.3035 	 98.8306
| 28> H 	 -39.5332 	 56.3383 	 98.9587
| 29> C 	 -41.8559 	 57.2748 	 100.386
| 30> H 	 -40.8737 	 57.2653 	 100.965
| 31> H 	 -42.532 	 57.1088 	 101.174
| 32> C 	 -42.1125 	 58.7434 	 99.8993
| 33> H 	 -41.2646 	 59.1746 	 99.2929
| 34> H 	 -42.042 	 59.2995 	 100.861
| 35> C 	 -43.4522 	 58.7728 	 99.1943
| 36> H 	 -43.7368 	 59.6909 	 98.6963
| 37> H 	 -44.2765 	 58.5677 	 99.8213
| 38> H 	 -43.5142 	 58.0004 	 98.4218
| 39> H 	 -47.6705 	 55.5085 	 99.6058
| 40> H 	 -39.823 	 54.5803 	 97.1303
| 41> *
| 42>
| 43>                          ****END OF INPUT****

CARTESIAN COORDINATES (ANGSTROEM)
---------------------------------
  S    -45.462100   55.611100   98.325400
  C    -46.620200   55.252000   99.615700
  C    -45.969800   54.756900  100.776000
  C    -44.551500   54.683400  100.559000
  C    -44.110600   55.150600   99.321200
  H    -43.866100   54.308500  101.331000
  C    -46.569200   54.392700  102.121000
  H    -47.593100   54.716500  102.266000
  H    -45.897600   54.895700  102.893000
  C    -46.517900   52.859300  102.330000
  H    -47.105200   52.318800  101.691000
  H    -45.484500   52.574100  102.184000
  C    -46.892300   52.470600  103.804000
  H    -46.167900   52.942000  104.505000
  H    -47.802700   52.876300  104.180000
  H    -46.841000   51.329300  103.880000
  S    -42.197600   54.132400   97.680300
  C    -40.560800   54.806000   97.861400
  C    -40.434000   55.801400   98.778200
  C    -41.693200   56.094900   99.393800
  C    -42.735900   55.303500   98.830600
  H    -39.533200   56.338300   98.958700
  C    -41.855900   57.274800  100.386000
  H    -40.873700   57.265300  100.965000
  H    -42.532000   57.108800  101.174000
  C    -42.112500   58.743400   99.899300
  H    -41.264600   59.174600   99.292900
  H    -42.042000   59.299500  100.861000
  C    -43.452200   58.772800   99.194300
  H    -43.736800   59.690900   98.696300
  H    -44.276500   58.567700   99.821300
  H    -43.514200   58.000400   98.421800
  H    -47.670500   55.508500   99.605800
  H    -39.823000   54.580300   97.130300

 Total Charge           Charge          ....    0
 Multiplicity           Mult            ....    1
 Number of Electrons    NEL             ....  134
 Basis Dimension        Dim             ....  322

ORBITAL ENERGIES
----------------

  NO   OCC          E(Eh)            E(eV)
   0   2.0000     -88.968586     -2420.9583
   1   2.0000     -88.967508     -2420.9290
   2   2.0000     -10.328630      -281.0563
   3   2.0000     -10.327429      -281.0236
   4   2.0000     -10.317955      -280.7658
   5   2.0000     -10.314967      -280.6845
   6   2.0000     -10.309866      -280.5457
   7   2.0000     -10.305724      -280.4330
   8   2.0000     -10.300418      -280.2886
   9   2.0000     -10.296090      -280.1708
  10   2.0000     -10.294494      -280.1274
  11   2.0000     -10.293877      -280.1106
  12   2.0000     -10.293736      -280.1068
  13   2.0000     -10.284701      -279.8609
  14   2.0000     -10.282380      -279.7978
  15   2.0000     -10.264127      -279.3011
  16   2.0000      -8.083406      -219.9606
  17   2.0000      -8.081606      -219.9117
  18   2.0000      -6.041809      -164.4060
  19   2.0000      -6.040142      -164.3606
  20   2.0000      -6.038013      -164.3027
  21   2.0000      -6.036095      -164.2505
  22   2.0000      -6.034161      -164.1979
  23   2.0000      -6.032483      -164.1522
  24   2.0000      -1.002560       -27.2810
  25   2.0000      -0.978967       -26.6390
  26   2.0000      -0.910637       -24.7797
  27   2.0000      -0.901472       -24.5303
  28   2.0000      -0.867622       -23.6092
  29   2.0000      -0.845626       -23.0106
  30   2.0000      -0.843928       -22.9644
  31   2.0000      -0.808565       -22.0022
  32   2.0000      -0.781039       -21.2531
  33   2.0000      -0.767780       -20.8924
  34   2.0000      -0.707298       -19.2466
  35   2.0000      -0.700867       -19.0716
  36   2.0000      -0.689261       -18.7558
  37   2.0000      -0.661609       -18.0033
  38   2.0000      -0.639338       -17.3973
  39   2.0000      -0.621450       -16.9105
  40   2.0000      -0.599208       -16.3053
  41   2.0000      -0.565679       -15.3929
  42   2.0000      -0.560393       -15.2491
  43   2.0000      -0.543435       -14.7876
  44   2.0000      -0.536903       -14.6099
  45   2.0000      -0.522893       -14.2286
  46   2.0000      -0.512645       -13.9498
  47   2.0000      -0.505038       -13.7428
  48   2.0000      -0.498513       -13.5652
  49   2.0000      -0.495855       -13.4929
  50   2.0000      -0.491794       -13.3824
  51   2.0000      -0.471308       -12.8250
  52   2.0000      -0.465819       -12.6756
  53   2.0000      -0.462177       -12.5765
  54   2.0000      -0.457508       -12.4494
  55   2.0000      -0.452112       -12.3026
  56   2.0000      -0.446500       -12.1499
  57   2.0000      -0.441332       -12.0092
  58   2.0000      -0.429026       -11.6744
  59   2.0000      -0.427478       -11.6323
  60   2.0000      -0.421525       -11.4703
  61   2.0000      -0.415357       -11.3024
  62   2.0000      -0.413236       -11.2447
  63   2.0000      -0.344167        -9.3653
  64   2.0000      -0.328636        -8.9426
  65   2.0000      -0.321765        -8.7557
  66   2.0000      -0.299333        -8.1453
  67   0.0000       0.036285         0.9874
  68   0.0000       0.058493         1.5917
  69   0.0000       0.110321         3.0020
  70   0.0000       0.113683         3.0935
  71   0.0000       0.124041         3.3753

MULLIKEN ATOMIC CHARGES
-----------------------
   0 S :    0.110526
   1 C :   -0.121695
   2 C :   -0.097883
   3 C :    0.041697
   4 C :   -0.172709
   5 H :    0.020980
   6 C :    0.045071
   7 H :    0.021444
   8 H :    0.042509
   9 C :   -0.045437
  10 H :    0.017900
  11 H :    0.025202
  12 C :   -0.064008
  13 H :    0.024063
  14 H :    0.023195
  15 H :    0.052157
  16 S :    0.118773
  17 C :   -0.081555
  18 C :   -0.007475
  19 C :   -0.027469
  20 C :   -0.168831
  21 H :    0.013337
  22 C :    0.032106
  23 H :    0.020905
  24 H :    0.014168
  25 C :   -0.051644
  26 H :    0.034287
  27 H :    0.034112
  28 C :   -0.018462
  29 H :    0.024059
  30 H :    0.017037
  31 H :    0.027581
  32 H :    0.047368
  33 H :    0.048692
Sum of atomic charges:   -0.0000000

LOEWDIN ATOMIC CHARGES
----------------------
   0 S :    0.410278
   1 C :   -0.201188
   2 C :   -0.060959
   3 C :   -0.063902
   4 C :   -0.204798
   5 H :    0.033295
   6 C :   -0.030122
   7 H :    0.026009
   8 H :    0.040277
   9 C :   -0.026372
  10 H :    0.012291
  11 H :    0.023991
  12 C :   -0.070532
  13 H :    0.025445
  14 H :    0.016184
  15 H :    0.036321
  16 S :    0.411082
  17 C :   -0.168133
  18 C :   -0.059193
  19 C :   -0.050383
  20 C :   -0.216856
  21 H :    0.031824
  22 C :   -0.035602
  23 H :    0.035195
  24 H :    0.021667
  25 C :   -0.038134
  26 H :    0.026489
  27 H :    0.029296
  28 C :   -0.069547
  29 H :    0.023663
  30 H :    0.021616
  31 H :    0.024269
  32 H :    0.026773
  33 H :    0.019754

  Mayer bond orders larger than 0.100000
B(  0-S ,  1-C ) :   1.1398 B(  0-S ,  4-C ) :   1.1628 B(  1-C ,  2-C ) :   1.5985
B(  1-C ,  4-C ) :   0.1017 B(  1-C , 32-H ) :   0.9690 B(  2-C ,  3-C ) :   1.2474
B(  2-C ,  6-C ) :   1.0266 B(  3-C ,  4-C ) :   1.5796 B(  3-C ,  5-H ) :   0.9881
B(  4-C , 20-C ) :   1.0010 B(  6-C ,  7-H ) :   0.9448 B(  6-C ,  8-H ) :   0.9436
B(  6-C ,  9-C ) :   1.0561 B(  9-C , 10-H ) :   0.9589 B(  9-C , 11-H ) :   0.9590
B(  9-C , 12-C ) :   1.0747 B( 12-C , 13-H ) :   0.9752 B( 12-C , 14-H ) :   0.9760
B( 12-C , 15-H ) :   0.9755 B( 16-S , 17-C ) :   1.1469 B( 16-S , 20-C ) :   1.1650
B( 17-C , 18-C ) :   1.6178 B( 17-C , 33-H ) :   0.9670 B( 18-C , 19-C ) :   1.2415
B( 18-C , 21-H ) :   0.9942 B( 19-C , 20-C ) :   1.5797 B( 19-C , 22-C ) :   1.0417
B( 22-C , 23-H ) :   0.9327 B( 22-C , 24-H ) :   0.9394 B( 22-C , 25-C ) :   1.0621
B( 25-C , 26-H ) :   0.9583 B( 25-C , 27-H ) :   0.9515 B( 25-C , 28-C ) :   1.0690
B( 28-C , 29-H ) :   0.9722 B( 28-C , 30-H ) :   0.9714 B( 28-C , 31-H ) :   0.9719

Dispersion correction           -0.015104220
FINAL SINGLE POINT ENERGY     -1339.876011932844

DIPOLE MOMENT
-------------
                                X             Y             Z
Electronic contribution:      5.87234      -5.25123     -21.39656
Nuclear contribution   :     -5.79925       5.43053      21.94806
                        -----------------------------------------
Total Dipole Moment    :      0.07309       0.17929       0.55150
                        -----------------------------------------
Magnitude (a.u.)       :      0.58450
Magnitude (Debye)      :      1.48568

Rotational constants in cm-1:     0.019554     0.007993     0.007430
Rotational constants in MHz :   586.221523   239.637076   222.734242

                             ****ORCA TERMINATED NORMALLY****
TOTAL RUN TIME: 0 days 0 hours 0 minutes 30 seconds 444 msec
