                         Program Version 4.2.1 -  RELEASE  -
|  1> ! wB97X-D3 SP def2-SVP
|  2> %pal
|  3> nprocs 16
|  4> end
|  5>
|  6> * xyz 0 1
|  7> S 	 -61.0506 	 35.1722 	 132.919
|  8> C 	 -59.3166 	 34.7393 	 132.769
|  9> C 	 -58.5063 	 35.8381 	 132.88
| 10> C 	 -59.2872 	 37.0071 	 133.146
| 11> C 	 -60.6199 	 36.7935 	 133.346
| 12> H 	 -58.8166 	 38.0198 	 133.285
| 13> C 	 -57.0162 	 35.866 	 132.495
| 14> H 	 -56.9107 	 36.5816 	 131.67
| 15> H 	 -56.6762 	 34.801 	 132.277
| 16> C 	 -56.0187 	 36.3049 	 133.555
| 17> H 	 -56.5857 	 37.1124 	 134.068
| 18> H 	 -55.8726 	 35.5357 	 134.278
| 19> C 	 -54.6723 	 36.6845 	 132.98
| 20> H 	 -53.8273 	 36.619 	 133.643
| 21> H 	 -54.324 	 36.0657 	 132.064
| 22> H 	 -54.738 	 37.7013 	 132.598
| 23> S 	 -61.9906 	 37.9606 	 135.439
| 24> C 	 -63.1621 	 39.1988 	 135.108
| 25> C 	 -63.1326 	 39.59 	 133.786
| 26> C 	 -62.2453 	 38.8056 	 132.973
| 27> C 	 -61.5577 	 37.8589 	 133.73
| 28> H 	 -63.7235 	 40.3644 	 133.333
| 29> C 	 -62.0707 	 38.9969 	 131.519
| 30> H 	 -61.1526 	 38.6895 	 131.193
| 31> H 	 -62.0077 	 40.0899 	 131.374
| 32> C 	 -63.1157 	 38.3188 	 130.574
| 33> H 	 -64.0426 	 38.6676 	 130.926
| 34> H 	 -63.0273 	 37.2678 	 130.692
| 35> C 	 -63.158 	 38.7232 	 129.089
| 36> H 	 -62.4651 	 38.2431 	 128.36
| 37> H 	 -62.7729 	 39.7546 	 128.917
| 38> H 	 -64.2064 	 38.6954 	 128.821
| 39> H 	 -59.0017 	 33.7776 	 132.385
| 40> H 	 -63.6954 	 39.7126 	 135.908
| 41> *
| 42>
| 43>                          ****END OF INPUT****

CARTESIAN COORDINATES (ANGSTROEM)
---------------------------------
  S    -61.050600   35.172200  132.919000
  C    -59.316600   34.739300  132.769000
  C    -58.506300   35.838100  132.880000
  C    -59.287200   37.007100  133.146000
  C    -60.619900   36.793500  133.346000
  H    -58.816600   38.019800  133.285000
  C    -57.016200   35.866000  132.495000
  H    -56.910700   36.581600  131.670000
  H    -56.676200   34.801000  132.277000
  C    -56.018700   36.304900  133.555000
  H    -56.585700   37.112400  134.068000
  H    -55.872600   35.535700  134.278000
  C    -54.672300   36.684500  132.980000
  H    -53.827300   36.619000  133.643000
  H    -54.324000   36.065700  132.064000
  H    -54.738000   37.701300  132.598000
  S    -61.990600   37.960600  135.439000
  C    -63.162100   39.198800  135.108000
  C    -63.132600   39.590000  133.786000
  C    -62.245300   38.805600  132.973000
  C    -61.557700   37.858900  133.730000
  H    -63.723500   40.364400  133.333000
  C    -62.070700   38.996900  131.519000
  H    -61.152600   38.689500  131.193000
  H    -62.007700   40.089900  131.374000
  C    -63.115700   38.318800  130.574000
  H    -64.042600   38.667600  130.926000
  H    -63.027300   37.267800  130.692000
  C    -63.158000   38.723200  129.089000
  H    -62.465100   38.243100  128.360000
  H    -62.772900   39.754600  128.917000
  H    -64.206400   38.695400  128.821000
  H    -59.001700   33.777600  132.385000
  H    -63.695400   39.712600  135.908000

 Total Charge           Charge          ....    0
 Multiplicity           Mult            ....    1
 Number of Electrons    NEL             ....  134
 Basis Dimension        Dim             ....  322

ORBITAL ENERGIES
----------------

  NO   OCC          E(Eh)            E(eV)
   0   2.0000     -88.966969     -2420.9143
   1   2.0000     -88.963966     -2420.8326
   2   2.0000     -10.327262      -281.0191
   3   2.0000     -10.325281      -280.9652
   4   2.0000     -10.318830      -280.7897
   5   2.0000     -10.317104      -280.7427
   6   2.0000     -10.302628      -280.3488
   7   2.0000     -10.301560      -280.3197
   8   2.0000     -10.300362      -280.2871
   9   2.0000     -10.296219      -280.1744
  10   2.0000     -10.293758      -280.1074
  11   2.0000     -10.284202      -279.8474
  12   2.0000     -10.283931      -279.8400
  13   2.0000     -10.281256      -279.7672
  14   2.0000     -10.281216      -279.7661
  15   2.0000     -10.280102      -279.7358
  16   2.0000      -8.081344      -219.9046
  17   2.0000      -8.078888      -219.8377
  18   2.0000      -6.039883      -164.3536
  19   2.0000      -6.037294      -164.2831
  20   2.0000      -6.036042      -164.2490
  21   2.0000      -6.033355      -164.1759
  22   2.0000      -6.031941      -164.1375
  23   2.0000      -6.029757      -164.0780
  24   2.0000      -1.005889       -27.3716
  25   2.0000      -0.984294       -26.7840
  26   2.0000      -0.914869       -24.8949
  27   2.0000      -0.908356       -24.7176
  28   2.0000      -0.869338       -23.6559
  29   2.0000      -0.852143       -23.1880
  30   2.0000      -0.845613       -23.0103
  31   2.0000      -0.812501       -22.1093
  32   2.0000      -0.783886       -21.3306
  33   2.0000      -0.772775       -21.0283
  34   2.0000      -0.706974       -19.2377
  35   2.0000      -0.697840       -18.9892
  36   2.0000      -0.692939       -18.8558
  37   2.0000      -0.663396       -18.0519
  38   2.0000      -0.638287       -17.3687
  39   2.0000      -0.620105       -16.8739
  40   2.0000      -0.602211       -16.3870
  41   2.0000      -0.574617       -15.6361
  42   2.0000      -0.565070       -15.3763
  43   2.0000      -0.560260       -15.2455
  44   2.0000      -0.530314       -14.4306
  45   2.0000      -0.520252       -14.1568
  46   2.0000      -0.517851       -14.0914
  47   2.0000      -0.508295       -13.8314
  48   2.0000      -0.507679       -13.8146
  49   2.0000      -0.501285       -13.6407
  50   2.0000      -0.489471       -13.3192
  51   2.0000      -0.476080       -12.9548
  52   2.0000      -0.468262       -12.7421
  53   2.0000      -0.463507       -12.6127
  54   2.0000      -0.459582       -12.5058
  55   2.0000      -0.452506       -12.3133
  56   2.0000      -0.449629       -12.2350
  57   2.0000      -0.435023       -11.8376
  58   2.0000      -0.427080       -11.6214
  59   2.0000      -0.425448       -11.5770
  60   2.0000      -0.423521       -11.5246
  61   2.0000      -0.416711       -11.3393
  62   2.0000      -0.406637       -11.0652
  63   2.0000      -0.335675        -9.1342
  64   2.0000      -0.328136        -8.9290
  65   2.0000      -0.323607        -8.8058
  66   2.0000      -0.313341        -8.5264
  67   0.0000       0.047079         1.2811
  68   0.0000       0.052423         1.4265
  69   0.0000       0.105475         2.8701
  70   0.0000       0.118268         3.2182
  71   0.0000       0.130894         3.5618

MULLIKEN ATOMIC CHARGES
-----------------------
   0 S :    0.112648
   1 C :   -0.135637
   2 C :   -0.056000
   3 C :    0.018225
   4 C :   -0.155278
   5 H :    0.033860
   6 C :    0.036643
   7 H :    0.040764
   8 H :    0.029309
   9 C :   -0.063255
  10 H :    0.028888
  11 H :    0.022745
  12 C :   -0.063598
  13 H :    0.035276
  14 H :    0.037490
  15 H :    0.032220
  16 S :    0.111480
  17 C :   -0.089889
  18 C :   -0.016728
  19 C :   -0.036212
  20 C :   -0.204308
  21 H :    0.011047
  22 C :    0.110180
  23 H :   -0.012075
  24 H :    0.015579
  25 C :   -0.027352
  26 H :    0.007577
  27 H :    0.029401
  28 C :   -0.065675
  29 H :    0.038693
  30 H :    0.018363
  31 H :    0.042579
  32 H :    0.046858
  33 H :    0.066180
Sum of atomic charges:   -0.0000000

LOEWDIN ATOMIC CHARGES
----------------------
   0 S :    0.395306
   1 C :   -0.177428
   2 C :   -0.068301
   3 C :   -0.066158
   4 C :   -0.208091
   5 H :    0.038594
   6 C :   -0.028320
   7 H :    0.034268
   8 H :    0.035756
   9 C :   -0.048403
  10 H :    0.026051
  11 H :    0.019368
  12 C :   -0.071855
  13 H :    0.024268
  14 H :    0.035353
  15 H :    0.025968
  16 S :    0.408720
  17 C :   -0.186301
  18 C :   -0.069723
  19 C :   -0.051005
  20 C :   -0.196926
  21 H :    0.028695
  22 C :   -0.030093
  23 H :    0.015133
  24 H :    0.033618
  25 C :   -0.027044
  26 H :    0.017248
  27 H :    0.022318
  28 C :   -0.074590
  29 H :    0.028765
  30 H :    0.027368
  31 H :    0.029968
  32 H :    0.025558
  33 H :    0.031917

  Mayer bond orders larger than 0.100000
B(  0-S ,  1-C ) :   1.1284 B(  0-S ,  4-C ) :   1.1435 B(  1-C ,  2-C ) :   1.6356
B(  1-C , 32-H ) :   0.9665 B(  2-C ,  3-C ) :   1.2266 B(  2-C ,  6-C ) :   1.0180
B(  3-C ,  4-C ) :   1.6096 B(  3-C ,  5-H ) :   0.9800 B(  4-C , 20-C ) :   1.0077
B(  6-C ,  7-H ) :   0.9485 B(  6-C ,  8-H ) :   0.9402 B(  6-C ,  9-C ) :   1.0540
B(  9-C , 10-H ) :   0.9624 B(  9-C , 11-H ) :   0.9560 B(  9-C , 12-C ) :   1.0705
B( 12-C , 13-H ) :   0.9766 B( 12-C , 14-H ) :   0.9725 B( 12-C , 15-H ) :   0.9736
B( 16-S , 17-C ) :   1.1633 B( 16-S , 20-C ) :   1.1505 B( 17-C , 18-C ) :   1.5877
B( 17-C , 33-H ) :   0.9665 B( 18-C , 19-C ) :   1.2485 B( 18-C , 21-H ) :   0.9901
B( 19-C , 20-C ) :   1.6022 B( 19-C , 22-C ) :   1.0618 B( 22-C , 23-H ) :   0.9175
B( 22-C , 24-H ) :   0.9239 B( 22-C , 25-C ) :   1.0634 B( 25-C , 26-H ) :   0.9621
B( 25-C , 27-H ) :   0.9537 B( 25-C , 28-C ) :   1.0706 B( 28-C , 29-H ) :   0.9747
B( 28-C , 30-H ) :   0.9724 B( 28-C , 31-H ) :   0.9802

Dispersion correction           -0.013817032
FINAL SINGLE POINT ENERGY     -1339.872470944518

DIPOLE MOMENT
-------------
                                X             Y             Z
Electronic contribution:    -14.78326      -6.29279      17.31945
Nuclear contribution   :     15.12831       6.64789     -17.72849
                        -----------------------------------------
Total Dipole Moment    :      0.34505       0.35510      -0.40904
                        -----------------------------------------
Magnitude (a.u.)       :      0.64224
Magnitude (Debye)      :      1.63243

Rotational constants in cm-1:     0.017723     0.007648     0.006686
Rotational constants in MHz :   531.311893   229.276205   200.448906

                             ****ORCA TERMINATED NORMALLY****
TOTAL RUN TIME: 0 days 0 hours 0 minutes 33 seconds 371 msec
