                         Program Version 4.2.1 -  RELEASE  -
|  1> ! wB97X-D3 SP def2-SVP
|  2> %pal
|  3> nprocs 16
|  4> end
|  5>
|  6> * xyz 0 1
|  7> S 	 -1.469 	 -11.5111 	 82.5658
|  8> C 	 -2.13911 	 -12.5777 	 83.6735
|  9> C 	 -2.84819 	 -13.6288 	 83.133
| 10> C 	 -2.88644 	 -13.5842 	 81.6846
| 11> C 	 -2.17395 	 -12.4911 	 81.2253
| 12> H 	 -3.25209 	 -14.2843 	 81.0134
| 13> C 	 -3.51298 	 -14.6832 	 83.9077
| 14> H 	 -3.96321 	 -15.2835 	 83.1346
| 15> H 	 -4.26168 	 -14.1939 	 84.4594
| 16> C 	 -2.62054 	 -15.6045 	 84.7468
| 17> H 	 -1.92995 	 -16.1246 	 84.0508
| 18> H 	 -2.07027 	 -15.0009 	 85.4379
| 19> C 	 -3.44656 	 -16.575 	 85.564
| 20> H 	 -3.89251 	 -15.9909 	 86.3371
| 21> H 	 -4.25796 	 -17.074 	 84.9753
| 22> H 	 -2.71068 	 -17.305 	 85.8757
| 23> S 	 -0.868106 	 -13.2339 	 78.8056
| 24> C 	 -1.39896 	 -12.4549 	 77.3394
| 25> C 	 -2.04921 	 -11.287 	 77.6591
| 26> C 	 -2.46352 	 -11.1557 	 79.0461
| 27> C 	 -1.88014 	 -12.1506 	 79.8046
| 28> H 	 -2.34763 	 -10.6962 	 76.8802
| 29> C 	 -3.21719 	 -9.97064 	 79.5331
| 30> H 	 -3.32162 	 -10.2072 	 80.6058
| 31> H 	 -4.25532 	 -9.87049 	 79.1056
| 32> C 	 -2.64461 	 -8.55685 	 79.3534
| 33> H 	 -2.33607 	 -8.26786 	 78.334
| 34> H 	 -1.79314 	 -8.54295 	 80.0606
| 35> C 	 -3.47911 	 -7.39446 	 79.9269
| 36> H 	 -4.48532 	 -7.36905 	 79.6279
| 37> H 	 -2.9901 	 -6.45362 	 79.7289
| 38> H 	 -3.48123 	 -7.65948 	 80.9737
| 39> H 	 -2.3557 	 -12.3078 	 84.709
| 40> H 	 -1.19268 	 -12.6634 	 76.2976
| 41> *
| 42>
| 43>                          ****END OF INPUT****

CARTESIAN COORDINATES (ANGSTROEM)
---------------------------------
  S     -1.469000  -11.511100   82.565800
  C     -2.139110  -12.577700   83.673500
  C     -2.848190  -13.628800   83.133000
  C     -2.886440  -13.584200   81.684600
  C     -2.173950  -12.491100   81.225300
  H     -3.252090  -14.284300   81.013400
  C     -3.512980  -14.683200   83.907700
  H     -3.963210  -15.283500   83.134600
  H     -4.261680  -14.193900   84.459400
  C     -2.620540  -15.604500   84.746800
  H     -1.929950  -16.124600   84.050800
  H     -2.070270  -15.000900   85.437900
  C     -3.446560  -16.575000   85.564000
  H     -3.892510  -15.990900   86.337100
  H     -4.257960  -17.074000   84.975300
  H     -2.710680  -17.305000   85.875700
  S     -0.868106  -13.233900   78.805600
  C     -1.398960  -12.454900   77.339400
  C     -2.049210  -11.287000   77.659100
  C     -2.463520  -11.155700   79.046100
  C     -1.880140  -12.150600   79.804600
  H     -2.347630  -10.696200   76.880200
  C     -3.217190   -9.970640   79.533100
  H     -3.321620  -10.207200   80.605800
  H     -4.255320   -9.870490   79.105600
  C     -2.644610   -8.556850   79.353400
  H     -2.336070   -8.267860   78.334000
  H     -1.793140   -8.542950   80.060600
  C     -3.479110   -7.394460   79.926900
  H     -4.485320   -7.369050   79.627900
  H     -2.990100   -6.453620   79.728900
  H     -3.481230   -7.659480   80.973700
  H     -2.355700  -12.307800   84.709000
  H     -1.192680  -12.663400   76.297600

 Total Charge           Charge          ....    0
 Multiplicity           Mult            ....    1
 Number of Electrons    NEL             ....  134
 Basis Dimension        Dim             ....  322

ORBITAL ENERGIES
----------------

  NO   OCC          E(Eh)            E(eV)
   0   2.0000     -88.967662     -2420.9332
   1   2.0000     -88.964544     -2420.8483
   2   2.0000     -10.332756      -281.1686
   3   2.0000     -10.327913      -281.0368
   4   2.0000     -10.315702      -280.7045
   5   2.0000     -10.305222      -280.4193
   6   2.0000     -10.303404      -280.3699
   7   2.0000     -10.295581      -280.1570
   8   2.0000     -10.294450      -280.1262
   9   2.0000     -10.292592      -280.0757
  10   2.0000     -10.287177      -279.9283
  11   2.0000     -10.283768      -279.8355
  12   2.0000     -10.283323      -279.8234
  13   2.0000     -10.279178      -279.7106
  14   2.0000     -10.276509      -279.6380
  15   2.0000     -10.270563      -279.4762
  16   2.0000      -8.082633      -219.9396
  17   2.0000      -8.078730      -219.8334
  18   2.0000      -6.041053      -164.3854
  19   2.0000      -6.037412      -164.2863
  20   2.0000      -6.037091      -164.2776
  21   2.0000      -6.033512      -164.1802
  22   2.0000      -6.033345      -164.1757
  23   2.0000      -6.029288      -164.0653
  24   2.0000      -1.003239       -27.2995
  25   2.0000      -0.984232       -26.7823
  26   2.0000      -0.918242       -24.9866
  27   2.0000      -0.908223       -24.7140
  28   2.0000      -0.869126       -23.6501
  29   2.0000      -0.858996       -23.3745
  30   2.0000      -0.850888       -23.1538
  31   2.0000      -0.818115       -22.2620
  32   2.0000      -0.781784       -21.2734
  33   2.0000      -0.767212       -20.8769
  34   2.0000      -0.701990       -19.1021
  35   2.0000      -0.698181       -18.9985
  36   2.0000      -0.691626       -18.8201
  37   2.0000      -0.656534       -17.8652
  38   2.0000      -0.648071       -17.6349
  39   2.0000      -0.615179       -16.7399
  40   2.0000      -0.593931       -16.1617
  41   2.0000      -0.578452       -15.7405
  42   2.0000      -0.570494       -15.5239
  43   2.0000      -0.563558       -15.3352
  44   2.0000      -0.534013       -14.5312
  45   2.0000      -0.530187       -14.4271
  46   2.0000      -0.519022       -14.1233
  47   2.0000      -0.512585       -13.9481
  48   2.0000      -0.509856       -13.8739
  49   2.0000      -0.500106       -13.6086
  50   2.0000      -0.494730       -13.4623
  51   2.0000      -0.477772       -13.0008
  52   2.0000      -0.466889       -12.7047
  53   2.0000      -0.462020       -12.5722
  54   2.0000      -0.456415       -12.4197
  55   2.0000      -0.450554       -12.2602
  56   2.0000      -0.445163       -12.1135
  57   2.0000      -0.437168       -11.8959
  58   2.0000      -0.429100       -11.6764
  59   2.0000      -0.422205       -11.4888
  60   2.0000      -0.421237       -11.4624
  61   2.0000      -0.414047       -11.2668
  62   2.0000      -0.411919       -11.2089
  63   2.0000      -0.342107        -9.3092
  64   2.0000      -0.325432        -8.8554
  65   2.0000      -0.321005        -8.7350
  66   2.0000      -0.304690        -8.2910
  67   0.0000       0.035014         0.9528
  68   0.0000       0.063309         1.7227
  69   0.0000       0.104019         2.8305
  70   0.0000       0.116211         3.1623
  71   0.0000       0.124529         3.3886

MULLIKEN ATOMIC CHARGES
-----------------------
   0 S :    0.119341
   1 C :   -0.102003
   2 C :   -0.137592
   3 C :    0.082827
   4 C :   -0.200657
   5 H :   -0.005170
   6 C :    0.092036
   7 H :    0.004612
   8 H :    0.019428
   9 C :   -0.079795
  10 H :    0.033827
  11 H :    0.020676
  12 C :   -0.022948
  13 H :    0.027560
  14 H :    0.033099
  15 H :    0.040078
  16 S :    0.109883
  17 C :   -0.091140
  18 C :    0.003529
  19 C :    0.004485
  20 C :   -0.166537
  21 H :   -0.017519
  22 C :    0.042459
  23 H :    0.022436
  24 H :    0.032739
  25 C :   -0.094437
  26 H :    0.036447
  27 H :    0.026639
  28 C :   -0.025136
  29 H :    0.017623
  30 H :    0.041004
  31 H :    0.023727
  32 H :    0.052590
  33 H :    0.055889
Sum of atomic charges:   -0.0000000

LOEWDIN ATOMIC CHARGES
----------------------
   0 S :    0.415703
   1 C :   -0.227948
   2 C :   -0.061636
   3 C :   -0.041104
   4 C :   -0.176197
   5 H :    0.024623
   6 C :   -0.034942
   7 H :    0.028457
   8 H :    0.025682
   9 C :   -0.032755
  10 H :    0.027263
  11 H :    0.018443
  12 C :   -0.060457
  13 H :    0.022125
  14 H :    0.027812
  15 H :    0.029608
  16 S :    0.387822
  17 C :   -0.183127
  18 C :   -0.061222
  19 C :   -0.047947
  20 C :   -0.195873
  21 H :    0.012308
  22 C :   -0.043695
  23 H :    0.028112
  24 H :    0.035059
  25 C :   -0.040860
  26 H :    0.020711
  27 H :    0.027514
  28 C :   -0.056931
  29 H :    0.012894
  30 H :    0.029132
  31 H :    0.026583
  32 H :    0.030286
  33 H :    0.034554

  Mayer bond orders larger than 0.100000
B(  0-S ,  1-C ) :   1.1513 B(  0-S ,  4-C ) :   1.1457 B(  1-C ,  2-C ) :   1.6177
B(  1-C , 32-H ) :   0.9535 B(  2-C ,  3-C ) :   1.2335 B(  2-C ,  6-C ) :   1.0232
B(  3-C ,  4-C ) :   1.5974 B(  3-C ,  5-H ) :   1.0010 B(  4-C , 20-C ) :   0.9949
B(  6-C ,  7-H ) :   0.9329 B(  6-C ,  8-H ) :   0.9292 B(  6-C ,  9-C ) :   1.0732
B(  9-C , 10-H ) :   0.9569 B(  9-C , 11-H ) :   0.9554 B(  9-C , 12-C ) :   1.0781
B( 12-C , 13-H ) :   0.9760 B( 12-C , 14-H ) :   0.9746 B( 12-C , 15-H ) :   0.9748
B( 16-S , 17-C ) :   1.1397 B( 16-S , 20-C ) :   1.1218 B( 17-C , 18-C ) :   1.6505
B( 17-C , 33-H ) :   0.9648 B( 18-C , 19-C ) :   1.2032 B( 18-C , 21-H ) :   0.9947
B( 19-C , 20-C ) :   1.6199 B( 19-C , 22-C ) :   1.0647 B( 22-C , 23-H ) :   0.9280
B( 22-C , 24-H ) :   0.9235 B( 22-C , 25-C ) :   1.0611 B( 25-C , 26-H ) :   0.9578
B( 25-C , 27-H ) :   0.9584 B( 25-C , 28-C ) :   1.0734 B( 28-C , 29-H ) :   0.9758
B( 28-C , 30-H ) :   0.9745 B( 28-C , 31-H ) :   0.9802

Dispersion correction           -0.013707208
FINAL SINGLE POINT ENERGY     -1339.859051481042

DIPOLE MOMENT
-------------
                                X             Y             Z
Electronic contribution:     12.54251      -2.06318     -11.06369
Nuclear contribution   :    -13.00827       2.07985      11.12031
                        -----------------------------------------
Total Dipole Moment    :     -0.46576       0.01668       0.05662
                        -----------------------------------------
Magnitude (a.u.)       :      0.46948
Magnitude (Debye)      :      1.19333

Rotational constants in cm-1:     0.021620     0.007181     0.005886
Rotational constants in MHz :   648.148932   215.268323   176.464316

                             ****ORCA TERMINATED NORMALLY****
TOTAL RUN TIME: 0 days 0 hours 0 minutes 33 seconds 901 msec
