                         Program Version 4.2.1 -  RELEASE  -
|  1> ! wB97X-D3 SP def2-SVP
|  2> %pal
|  3> nprocs 16
|  4> end
|  5>
|  6> * xyz 0 1
|  7> S 	 -41.7988 	 38.2854 	 97.304
|  8> C 	 -42.6255 	 39.2026 	 96.0699
|  9> C 	 -44.024 	 39.1875 	 96.186
| 10> C 	 -44.434 	 38.4378 	 97.3282
| 11> C 	 -43.3377 	 37.9762 	 98.1123
| 12> H 	 -45.4315 	 38.1888 	 97.6034
| 13> C 	 -45.0664 	 39.7678 	 95.1695
| 14> H 	 -45.7793 	 38.8385 	 95.0226
| 15> H 	 -44.545 	 39.7718 	 94.1843
| 16> C 	 -45.772 	 41.0674 	 95.5287
| 17> H 	 -46.7085 	 40.7661 	 95.9188
| 18> H 	 -45.2603 	 41.5318 	 96.4076
| 19> C 	 -45.9038 	 42.1339 	 94.4495
| 20> H 	 -44.9331 	 42.5797 	 94.2464
| 21> H 	 -46.3844 	 41.7429 	 93.5694
| 22> H 	 -46.5778 	 42.9217 	 94.7912
| 23> S 	 -43.4815 	 35.3276 	 98.819
| 24> C 	 -43.9768 	 34.8773 	 100.479
| 25> C 	 -44.0933 	 36.0353 	 101.246
| 26> C 	 -43.7757 	 37.2751 	 100.577
| 27> C 	 -43.4318 	 37.0048 	 99.2143
| 28> H 	 -44.2767 	 35.9318 	 102.34
| 29> C 	 -44.0231 	 38.607 	 101.193
| 30> H 	 -43.2561 	 39.3082 	 100.896
| 31> H 	 -43.8207 	 38.6447 	 102.301
| 32> C 	 -45.3507 	 39.2335 	 100.786
| 33> H 	 -46.0215 	 38.6272 	 101.268
| 34> H 	 -45.5067 	 39.2354 	 99.6416
| 35> C 	 -45.337 	 40.6186 	 101.412
| 36> H 	 -44.9094 	 40.7818 	 102.352
| 37> H 	 -46.2592 	 41.0859 	 101.349
| 38> H 	 -44.649 	 41.2844 	 100.87
| 39> H 	 -42.0368 	 39.7158 	 95.2907
| 40> H 	 -44.0159 	 33.8829 	 100.915
| 41> *
| 42>
| 43>                          ****END OF INPUT****

CARTESIAN COORDINATES (ANGSTROEM)
---------------------------------
  S    -41.798800   38.285400   97.304000
  C    -42.625500   39.202600   96.069900
  C    -44.024000   39.187500   96.186000
  C    -44.434000   38.437800   97.328200
  C    -43.337700   37.976200   98.112300
  H    -45.431500   38.188800   97.603400
  C    -45.066400   39.767800   95.169500
  H    -45.779300   38.838500   95.022600
  H    -44.545000   39.771800   94.184300
  C    -45.772000   41.067400   95.528700
  H    -46.708500   40.766100   95.918800
  H    -45.260300   41.531800   96.407600
  C    -45.903800   42.133900   94.449500
  H    -44.933100   42.579700   94.246400
  H    -46.384400   41.742900   93.569400
  H    -46.577800   42.921700   94.791200
  S    -43.481500   35.327600   98.819000
  C    -43.976800   34.877300  100.479000
  C    -44.093300   36.035300  101.246000
  C    -43.775700   37.275100  100.577000
  C    -43.431800   37.004800   99.214300
  H    -44.276700   35.931800  102.340000
  C    -44.023100   38.607000  101.193000
  H    -43.256100   39.308200  100.896000
  H    -43.820700   38.644700  102.301000
  C    -45.350700   39.233500  100.786000
  H    -46.021500   38.627200  101.268000
  H    -45.506700   39.235400   99.641600
  C    -45.337000   40.618600  101.412000
  H    -44.909400   40.781800  102.352000
  H    -46.259200   41.085900  101.349000
  H    -44.649000   41.284400  100.870000
  H    -42.036800   39.715800   95.290700
  H    -44.015900   33.882900  100.915000

 Total Charge           Charge          ....    0
 Multiplicity           Mult            ....    1
 Number of Electrons    NEL             ....  134
 Basis Dimension        Dim             ....  322

ORBITAL ENERGIES
----------------

  NO   OCC          E(Eh)            E(eV)
   0   2.0000     -88.969778     -2420.9907
   1   2.0000     -88.966645     -2420.9055
   2   2.0000     -10.331795      -281.1424
   3   2.0000     -10.325815      -280.9797
   4   2.0000     -10.319425      -280.8058
   5   2.0000     -10.319383      -280.8047
   6   2.0000     -10.307803      -280.4896
   7   2.0000     -10.306401      -280.4514
   8   2.0000     -10.304271      -280.3935
   9   2.0000     -10.298784      -280.2442
  10   2.0000     -10.296803      -280.1903
  11   2.0000     -10.286500      -279.9099
  12   2.0000     -10.286366      -279.9062
  13   2.0000     -10.282013      -279.7878
  14   2.0000     -10.279580      -279.7216
  15   2.0000     -10.264180      -279.3025
  16   2.0000      -8.084102      -219.9796
  17   2.0000      -8.080795      -219.8896
  18   2.0000      -6.042430      -164.4229
  19   2.0000      -6.039345      -164.3389
  20   2.0000      -6.038617      -164.3191
  21   2.0000      -6.035252      -164.2275
  22   2.0000      -6.035144      -164.2246
  23   2.0000      -6.031670      -164.1301
  24   2.0000      -0.998731       -27.1769
  25   2.0000      -0.975629       -26.5482
  26   2.0000      -0.914466       -24.8839
  27   2.0000      -0.906818       -24.6758
  28   2.0000      -0.863691       -23.5022
  29   2.0000      -0.850654       -23.1475
  30   2.0000      -0.847141       -23.0519
  31   2.0000      -0.808277       -21.9943
  32   2.0000      -0.781553       -21.2671
  33   2.0000      -0.766903       -20.8685
  34   2.0000      -0.708521       -19.2798
  35   2.0000      -0.701104       -19.0780
  36   2.0000      -0.690208       -18.7815
  37   2.0000      -0.652883       -17.7658
  38   2.0000      -0.643875       -17.5207
  39   2.0000      -0.615074       -16.7370
  40   2.0000      -0.595039       -16.1918
  41   2.0000      -0.567518       -15.4429
  42   2.0000      -0.562769       -15.3137
  43   2.0000      -0.551217       -14.9994
  44   2.0000      -0.528012       -14.3679
  45   2.0000      -0.523216       -14.2374
  46   2.0000      -0.517082       -14.0705
  47   2.0000      -0.516106       -14.0440
  48   2.0000      -0.502624       -13.6771
  49   2.0000      -0.496007       -13.4970
  50   2.0000      -0.488971       -13.3056
  51   2.0000      -0.480833       -13.0841
  52   2.0000      -0.469185       -12.7672
  53   2.0000      -0.459934       -12.5154
  54   2.0000      -0.453882       -12.3507
  55   2.0000      -0.442897       -12.0518
  56   2.0000      -0.442453       -12.0398
  57   2.0000      -0.437447       -11.9035
  58   2.0000      -0.434206       -11.8154
  59   2.0000      -0.426776       -11.6132
  60   2.0000      -0.423526       -11.5247
  61   2.0000      -0.412676       -11.2295
  62   2.0000      -0.408204       -11.1078
  63   2.0000      -0.339991        -9.2516
  64   2.0000      -0.329521        -8.9667
  65   2.0000      -0.312967        -8.5163
  66   2.0000      -0.304670        -8.2905
  67   0.0000       0.037979         1.0335
  68   0.0000       0.050081         1.3628
  69   0.0000       0.108656         2.9567
  70   0.0000       0.121487         3.3058
  71   0.0000       0.128916         3.5080

MULLIKEN ATOMIC CHARGES
-----------------------
   0 S :    0.121971
   1 C :   -0.141056
   2 C :   -0.085593
   3 C :    0.054614
   4 C :   -0.192308
   5 H :    0.019255
   6 C :   -0.000469
   7 H :    0.051000
   8 H :    0.027978
   9 C :   -0.037157
  10 H :    0.016935
  11 H :    0.040987
  12 C :   -0.042872
  13 H :    0.040562
  14 H :    0.030669
  15 H :    0.032651
  16 S :    0.122168
  17 C :   -0.106263
  18 C :   -0.052867
  19 C :   -0.009040
  20 C :   -0.172973
  21 H :    0.034330
  22 C :    0.013583
  23 H :    0.011885
  24 H :    0.029940
  25 C :   -0.028345
  26 H :    0.006444
  27 H :    0.050890
  28 C :    0.006234
  29 H :    0.008351
  30 H :    0.014507
  31 H :    0.012608
  32 H :    0.059627
  33 H :    0.061754
Sum of atomic charges:   -0.0000000

LOEWDIN ATOMIC CHARGES
----------------------
   0 S :    0.413833
   1 C :   -0.203005
   2 C :   -0.067072
   3 C :   -0.050287
   4 C :   -0.201963
   5 H :    0.026498
   6 C :   -0.040691
   7 H :    0.044765
   8 H :    0.030167
   9 C :   -0.049382
  10 H :    0.020067
  11 H :    0.033374
  12 C :   -0.059480
  13 H :    0.027243
  14 H :    0.022812
  15 H :    0.030315
  16 S :    0.412108
  17 C :   -0.187959
  18 C :   -0.075450
  19 C :   -0.053240
  20 C :   -0.220504
  21 H :    0.036395
  22 C :   -0.043102
  23 H :    0.027416
  24 H :    0.037045
  25 C :   -0.027635
  26 H :    0.010642
  27 H :    0.040480
  28 C :   -0.061559
  29 H :    0.019550
  30 H :    0.015146
  31 H :    0.030387
  32 H :    0.029942
  33 H :    0.033143

  Mayer bond orders larger than 0.100000
B(  0-S ,  1-C ) :   1.1633 B(  0-S ,  4-C ) :   1.1680 B(  1-C ,  2-C ) :   1.5858
B(  1-C ,  4-C ) :   0.1058 B(  1-C , 32-H ) :   0.9646 B(  2-C ,  3-C ) :   1.2671
B(  2-C ,  6-C ) :   1.0092 B(  3-C ,  4-C ) :   1.5491 B(  3-C ,  5-H ) :   0.9863
B(  4-C , 20-C ) :   1.0099 B(  6-C ,  7-H ) :   0.9497 B(  6-C ,  8-H ) :   0.9538
B(  6-C ,  9-C ) :   1.0162 B(  9-C , 10-H ) :   0.9508 B(  9-C , 11-H ) :   0.9632
B(  9-C , 12-C ) :   1.0953 B( 12-C , 13-H ) :   0.9762 B( 12-C , 14-H ) :   0.9762
B( 12-C , 15-H ) :   0.9721 B( 16-S , 17-C ) :   1.1445 B( 16-S , 20-C ) :   1.1709
B( 17-C , 18-C ) :   1.6053 B( 17-C , 20-C ) :   0.1021 B( 17-C , 33-H ) :   0.9667
B( 18-C , 19-C ) :   1.2670 B( 18-C , 21-H ) :   0.9762 B( 19-C , 20-C ) :   1.5530
B( 19-C , 22-C ) :   1.0556 B( 22-C , 23-H ) :   0.9254 B( 22-C , 24-H ) :   0.9377
B( 22-C , 25-C ) :   1.0505 B( 25-C , 26-H ) :   0.9542 B( 25-C , 27-H ) :   0.9450
B( 25-C , 28-C ) :   1.0791 B( 28-C , 29-H ) :   0.9688 B( 28-C , 30-H ) :   0.9704
B( 28-C , 31-H ) :   0.9665

Dispersion correction           -0.014346084
FINAL SINGLE POINT ENERGY     -1339.858147682373

DIPOLE MOMENT
-------------
                                X             Y             Z
Electronic contribution:     17.33514     -24.03654       0.60653
Nuclear contribution   :    -17.77157      24.44810      -0.58764
                        -----------------------------------------
Total Dipole Moment    :     -0.43643       0.41155       0.01890
                        -----------------------------------------
Magnitude (a.u.)       :      0.60017
Magnitude (Debye)      :      1.52551

Rotational constants in cm-1:     0.018460     0.008520     0.006823
Rotational constants in MHz :   553.413604   255.417796   204.540439

                             ****ORCA TERMINATED NORMALLY****
TOTAL RUN TIME: 0 days 0 hours 0 minutes 30 seconds 180 msec
