                         Program Version 4.2.1 -  RELEASE  -
|  1> ! wB97X-D3 SP def2-SVP
|  2> %pal
|  3> nprocs 16
|  4> end
|  5>
|  6> * xyz 0 1
|  7> S 	 -6.45178 	 15.2247 	 86.2751
|  8> C 	 -7.70409 	 14.7171 	 85.1418
|  9> C 	 -8.49699 	 13.8118 	 85.7903
| 10> C 	 -8.33482 	 13.7179 	 87.1964
| 11> C 	 -7.27998 	 14.4738 	 87.6459
| 12> H 	 -8.94261 	 13.1282 	 87.9435
| 13> C 	 -9.73063 	 13.2513 	 85.2012
| 14> H 	 -10.0391 	 13.7966 	 84.3274
| 15> H 	 -10.5498 	 13.4587 	 85.9654
| 16> C 	 -9.79399 	 11.8376 	 84.704
| 17> H 	 -10.7165 	 11.6212 	 84.1164
| 18> H 	 -9.03808 	 11.5916 	 83.984
| 19> C 	 -9.69122 	 10.8009 	 85.7629
| 20> H 	 -9.9744 	 9.84102 	 85.3649
| 21> H 	 -8.71251 	 10.6835 	 86.2236
| 22> H 	 -10.3496 	 11.0101 	 86.5918
| 23> S 	 -7.77628 	 15.2911 	 90.275
| 24> C 	 -6.52128 	 15.0169 	 91.4842
| 25> C 	 -5.38526 	 14.8007 	 90.8147
| 26> C 	 -5.5043 	 14.3995 	 89.4601
| 27> C 	 -6.77177 	 14.693 	 88.9761
| 28> H 	 -4.49352 	 14.7524 	 91.4336
| 29> C 	 -4.25263 	 14.029 	 88.5954
| 30> H 	 -3.80271 	 14.9555 	 88.2109
| 31> H 	 -4.68139 	 13.5154 	 87.671
| 32> C 	 -3.06957 	 13.2832 	 89.2134
| 33> H 	 -2.67853 	 13.9859 	 89.9457
| 34> H 	 -2.31153 	 13.1589 	 88.4739
| 35> C 	 -3.4661 	 11.8759 	 89.7406
| 36> H 	 -3.85036 	 11.2369 	 88.9701
| 37> H 	 -4.3252 	 11.8698 	 90.3967
| 38> H 	 -2.74502 	 11.469 	 90.4223
| 39> H 	 -7.73437 	 15.0241 	 84.1123
| 40> H 	 -6.61073 	 15.4077 	 92.4795
| 41> *
| 42>
| 43>                          ****END OF INPUT****

CARTESIAN COORDINATES (ANGSTROEM)
---------------------------------
  S     -6.451780   15.224700   86.275100
  C     -7.704090   14.717100   85.141800
  C     -8.496990   13.811800   85.790300
  C     -8.334820   13.717900   87.196400
  C     -7.279980   14.473800   87.645900
  H     -8.942610   13.128200   87.943500
  C     -9.730630   13.251300   85.201200
  H    -10.039100   13.796600   84.327400
  H    -10.549800   13.458700   85.965400
  C     -9.793990   11.837600   84.704000
  H    -10.716500   11.621200   84.116400
  H     -9.038080   11.591600   83.984000
  C     -9.691220   10.800900   85.762900
  H     -9.974400    9.841020   85.364900
  H     -8.712510   10.683500   86.223600
  H    -10.349600   11.010100   86.591800
  S     -7.776280   15.291100   90.275000
  C     -6.521280   15.016900   91.484200
  C     -5.385260   14.800700   90.814700
  C     -5.504300   14.399500   89.460100
  C     -6.771770   14.693000   88.976100
  H     -4.493520   14.752400   91.433600
  C     -4.252630   14.029000   88.595400
  H     -3.802710   14.955500   88.210900
  H     -4.681390   13.515400   87.671000
  C     -3.069570   13.283200   89.213400
  H     -2.678530   13.985900   89.945700
  H     -2.311530   13.158900   88.473900
  C     -3.466100   11.875900   89.740600
  H     -3.850360   11.236900   88.970100
  H     -4.325200   11.869800   90.396700
  H     -2.745020   11.469000   90.422300
  H     -7.734370   15.024100   84.112300
  H     -6.610730   15.407700   92.479500

 Total Charge           Charge          ....    0
 Multiplicity           Mult            ....    1
 Number of Electrons    NEL             ....  134
 Basis Dimension        Dim             ....  322

ORBITAL ENERGIES
----------------

  NO   OCC          E(Eh)            E(eV)
   0   2.0000     -88.963207     -2420.8119
   1   2.0000     -88.962309     -2420.7875
   2   2.0000     -10.329752      -281.0868
   3   2.0000     -10.326252      -280.9916
   4   2.0000     -10.316420      -280.7241
   5   2.0000     -10.312016      -280.6042
   6   2.0000     -10.303953      -280.3848
   7   2.0000     -10.298913      -280.2477
   8   2.0000     -10.298235      -280.2292
   9   2.0000     -10.296305      -280.1767
  10   2.0000     -10.288718      -279.9702
  11   2.0000     -10.286582      -279.9121
  12   2.0000     -10.285918      -279.8941
  13   2.0000     -10.279532      -279.7203
  14   2.0000     -10.270168      -279.4655
  15   2.0000     -10.266009      -279.3523
  16   2.0000      -8.077471      -219.7992
  17   2.0000      -8.077124      -219.7897
  18   2.0000      -6.036043      -164.2491
  19   2.0000      -6.035740      -164.2408
  20   2.0000      -6.032033      -164.1400
  21   2.0000      -6.031626      -164.1289
  22   2.0000      -6.028184      -164.0352
  23   2.0000      -6.027737      -164.0231
  24   2.0000      -1.010385       -27.4940
  25   2.0000      -0.989476       -26.9250
  26   2.0000      -0.918815       -25.0022
  27   2.0000      -0.903159       -24.5762
  28   2.0000      -0.877558       -23.8796
  29   2.0000      -0.850051       -23.1311
  30   2.0000      -0.841068       -22.8866
  31   2.0000      -0.821453       -22.3529
  32   2.0000      -0.784394       -21.3444
  33   2.0000      -0.775395       -21.0996
  34   2.0000      -0.711439       -19.3592
  35   2.0000      -0.702481       -19.1155
  36   2.0000      -0.697048       -18.9676
  37   2.0000      -0.657069       -17.8798
  38   2.0000      -0.639587       -17.4040
  39   2.0000      -0.615062       -16.7367
  40   2.0000      -0.595468       -16.2035
  41   2.0000      -0.573210       -15.5978
  42   2.0000      -0.553453       -15.0602
  43   2.0000      -0.551156       -14.9977
  44   2.0000      -0.546602       -14.8738
  45   2.0000      -0.536562       -14.6006
  46   2.0000      -0.525997       -14.3131
  47   2.0000      -0.518314       -14.1040
  48   2.0000      -0.504928       -13.7398
  49   2.0000      -0.497047       -13.5253
  50   2.0000      -0.494093       -13.4450
  51   2.0000      -0.484520       -13.1845
  52   2.0000      -0.473093       -12.8735
  53   2.0000      -0.465751       -12.6737
  54   2.0000      -0.453115       -12.3299
  55   2.0000      -0.443322       -12.0634
  56   2.0000      -0.438860       -11.9420
  57   2.0000      -0.431697       -11.7471
  58   2.0000      -0.426472       -11.6049
  59   2.0000      -0.423069       -11.5123
  60   2.0000      -0.419124       -11.4049
  61   2.0000      -0.411070       -11.1858
  62   2.0000      -0.404542       -11.0082
  63   2.0000      -0.347181        -9.4473
  64   2.0000      -0.333015        -9.0618
  65   2.0000      -0.325515        -8.8577
  66   2.0000      -0.298286        -8.1168
  67   0.0000       0.030085         0.8186
  68   0.0000       0.064320         1.7502
  69   0.0000       0.112134         3.0513
  70   0.0000       0.116090         3.1590
  71   0.0000       0.123901         3.3715

MULLIKEN ATOMIC CHARGES
-----------------------
   0 S :    0.090878
   1 C :   -0.116920
   2 C :   -0.032805
   3 C :    0.012842
   4 C :   -0.179262
   5 H :    0.042240
   6 C :    0.022914
   7 H :    0.010023
   8 H :    0.040424
   9 C :   -0.050369
  10 H :    0.027473
  11 H :    0.015858
  12 C :   -0.042039
  13 H :    0.021702
  14 H :    0.033031
  15 H :    0.011686
  16 S :    0.095831
  17 C :   -0.100415
  18 C :   -0.019879
  19 C :   -0.038989
  20 C :   -0.126747
  21 H :    0.022980
  22 C :   -0.004181
  23 H :    0.045381
  24 H :    0.040926
  25 C :   -0.036984
  26 H :    0.025896
  27 H :    0.029122
  28 C :   -0.030394
  29 H :    0.029740
  30 H :    0.015025
  31 H :    0.029287
  32 H :    0.053647
  33 H :    0.062080
Sum of atomic charges:   -0.0000000

LOEWDIN ATOMIC CHARGES
----------------------
   0 S :    0.396940
   1 C :   -0.179394
   2 C :   -0.070998
   3 C :   -0.063715
   4 C :   -0.180221
   5 H :    0.046977
   6 C :   -0.038250
   7 H :    0.028499
   8 H :    0.039396
   9 C :   -0.046282
  10 H :    0.030272
  11 H :    0.022809
  12 C :   -0.066848
  13 H :    0.024050
  14 H :    0.024350
  15 H :    0.017801
  16 S :    0.395831
  17 C :   -0.179623
  18 C :   -0.071292
  19 C :   -0.060400
  20 C :   -0.202074
  21 H :    0.031128
  22 C :   -0.041963
  23 H :    0.034224
  24 H :    0.028533
  25 C :   -0.037307
  26 H :    0.023192
  27 H :    0.025993
  28 C :   -0.070258
  29 H :    0.027928
  30 H :    0.025240
  31 H :    0.025061
  32 H :    0.030570
  33 H :    0.029830

  Mayer bond orders larger than 0.100000
B(  0-S ,  1-C ) :   1.1277 B(  0-S ,  4-C ) :   1.1460 B(  1-C ,  2-C ) :   1.6092
B(  1-C , 32-H ) :   0.9772 B(  2-C ,  3-C ) :   1.2089 B(  2-C ,  6-C ) :   1.0196
B(  3-C ,  4-C ) :   1.6005 B(  3-C ,  5-H ) :   0.9888 B(  4-C , 20-C ) :   1.0251
B(  6-C ,  7-H ) :   0.9385 B(  6-C ,  8-H ) :   0.9484 B(  6-C ,  9-C ) :   1.0830
B(  9-C , 10-H ) :   0.9519 B(  9-C , 11-H ) :   0.9453 B(  9-C , 12-C ) :   1.0942
B( 12-C , 13-H ) :   0.9705 B( 12-C , 14-H ) :   0.9721 B( 12-C , 15-H ) :   0.9722
B( 16-S , 17-C ) :   1.1357 B( 16-S , 20-C ) :   1.1500 B( 17-C , 18-C ) :   1.6411
B( 17-C , 33-H ) :   0.9634 B( 18-C , 19-C ) :   1.2290 B( 18-C , 21-H ) :   0.9758
B( 19-C , 20-C ) :   1.5875 B( 19-C , 22-C ) :   1.0267 B( 22-C , 23-H ) :   0.9410
B( 22-C , 24-H ) :   0.9297 B( 22-C , 25-C ) :   1.0835 B( 25-C , 26-H ) :   0.9500
B( 25-C , 27-H ) :   0.9514 B( 25-C , 28-C ) :   1.0724 B( 28-C , 29-H ) :   0.9728
B( 28-C , 30-H ) :   0.9728 B( 28-C , 31-H ) :   0.9747

Dispersion correction           -0.014426558
FINAL SINGLE POINT ENERGY     -1339.866829446096

DIPOLE MOMENT
-------------
                                X             Y             Z
Electronic contribution:     -2.65259      19.70526       5.66482
Nuclear contribution   :      2.75395     -19.93079      -5.77889
                        -----------------------------------------
Total Dipole Moment    :      0.10136      -0.22553      -0.11407
                        -----------------------------------------
Magnitude (a.u.)       :      0.27230
Magnitude (Debye)      :      0.69214

Rotational constants in cm-1:     0.019547     0.007958     0.007334
Rotational constants in MHz :   586.005151   238.562165   219.870264

                             ****ORCA TERMINATED NORMALLY****
TOTAL RUN TIME: 0 days 0 hours 0 minutes 33 seconds 458 msec
