                         Program Version 4.2.1 -  RELEASE  -
|  1> ! wB97X-D3 SP def2-SVP
|  2> %pal
|  3> nprocs 16
|  4> end
|  5>
|  6> * xyz 0 1
|  7> S 	 8.50718 	 -3.65922 	 90.2394
|  8> C 	 8.93409 	 -1.98684 	 90.5313
|  9> C 	 8.47557 	 -1.13012 	 89.5383
| 10> C 	 7.57041 	 -1.78824 	 88.6688
| 11> C 	 7.48414 	 -3.17043 	 88.8974
| 12> H 	 7.07935 	 -1.36081 	 87.8106
| 13> C 	 8.67655 	 0.386233 	 89.5123
| 14> H 	 8.33253 	 0.823229 	 90.4074
| 15> H 	 8.22505 	 0.748163 	 88.6631
| 16> C 	 10.1817 	 0.844726 	 89.3435
| 17> H 	 10.7331 	 0.499522 	 90.2302
| 18> H 	 10.6414 	 0.402394 	 88.4158
| 19> C 	 10.4112 	 2.36912 	 89.4412
| 20> H 	 9.86586 	 2.85285 	 88.5979
| 21> H 	 10.0444 	 2.8359 	 90.4008
| 22> H 	 11.4128 	 2.73711 	 89.4296
| 23> S 	 8.2378 	 -5.2852 	 87.1937
| 24> C 	 6.98859 	 -5.92939 	 86.259
| 25> C 	 5.76964 	 -5.28464 	 86.4265
| 26> C 	 5.79499 	 -4.31854 	 87.4594
| 27> C 	 7.05072 	 -4.20081 	 87.9767
| 28> H 	 5.00308 	 -5.50901 	 85.7392
| 29> C 	 4.60286 	 -3.5888 	 87.8721
| 30> H 	 4.37088 	 -2.92536 	 87.0798
| 31> H 	 4.8052 	 -2.955 	 88.8303
| 32> C 	 3.40968 	 -4.5233 	 88.1579
| 33> H 	 3.63666 	 -5.03104 	 89.062
| 34> H 	 3.2214 	 -5.22859 	 87.2983
| 35> C 	 2.07752 	 -3.82037 	 88.4628
| 36> H 	 1.36196 	 -4.49087 	 88.9619
| 37> H 	 1.65769 	 -3.32027 	 87.5912
| 38> H 	 2.32698 	 -3.05052 	 89.1944
| 39> H 	 9.63682 	 -1.74563 	 91.3027
| 40> H 	 7.0634 	 -6.72516 	 85.5505
| 41> *
| 42>
| 43>                          ****END OF INPUT****

CARTESIAN COORDINATES (ANGSTROEM)
---------------------------------
  S      8.507180   -3.659220   90.239400
  C      8.934090   -1.986840   90.531300
  C      8.475570   -1.130120   89.538300
  C      7.570410   -1.788240   88.668800
  C      7.484140   -3.170430   88.897400
  H      7.079350   -1.360810   87.810600
  C      8.676550    0.386233   89.512300
  H      8.332530    0.823229   90.407400
  H      8.225050    0.748163   88.663100
  C     10.181700    0.844726   89.343500
  H     10.733100    0.499522   90.230200
  H     10.641400    0.402394   88.415800
  C     10.411200    2.369120   89.441200
  H      9.865860    2.852850   88.597900
  H     10.044400    2.835900   90.400800
  H     11.412800    2.737110   89.429600
  S      8.237800   -5.285200   87.193700
  C      6.988590   -5.929390   86.259000
  C      5.769640   -5.284640   86.426500
  C      5.794990   -4.318540   87.459400
  C      7.050720   -4.200810   87.976700
  H      5.003080   -5.509010   85.739200
  C      4.602860   -3.588800   87.872100
  H      4.370880   -2.925360   87.079800
  H      4.805200   -2.955000   88.830300
  C      3.409680   -4.523300   88.157900
  H      3.636660   -5.031040   89.062000
  H      3.221400   -5.228590   87.298300
  C      2.077520   -3.820370   88.462800
  H      1.361960   -4.490870   88.961900
  H      1.657690   -3.320270   87.591200
  H      2.326980   -3.050520   89.194400
  H      9.636820   -1.745630   91.302700
  H      7.063400   -6.725160   85.550500

 Total Charge           Charge          ....    0
 Multiplicity           Mult            ....    1
 Number of Electrons    NEL             ....  134
 Basis Dimension        Dim             ....  322

ORBITAL ENERGIES
----------------

  NO   OCC          E(Eh)            E(eV)
   0   2.0000     -88.966259     -2420.8950
   1   2.0000     -88.965792     -2420.8823
   2   2.0000     -10.325941      -280.9831
   3   2.0000     -10.318328      -280.7760
   4   2.0000     -10.313011      -280.6313
   5   2.0000     -10.308690      -280.5137
   6   2.0000     -10.302766      -280.3525
   7   2.0000     -10.296142      -280.1723
   8   2.0000     -10.294098      -280.1167
   9   2.0000     -10.292831      -280.0822
  10   2.0000     -10.290270      -280.0125
  11   2.0000     -10.288114      -279.9538
  12   2.0000     -10.284370      -279.8519
  13   2.0000     -10.284353      -279.8515
  14   2.0000     -10.283208      -279.8203
  15   2.0000     -10.276179      -279.6291
  16   2.0000      -8.081420      -219.9066
  17   2.0000      -8.080514      -219.8820
  18   2.0000      -6.039761      -164.3503
  19   2.0000      -6.038745      -164.3226
  20   2.0000      -6.036028      -164.2487
  21   2.0000      -6.035022      -164.2213
  22   2.0000      -6.032166      -164.1436
  23   2.0000      -6.031581      -164.1277
  24   2.0000      -1.008283       -27.4368
  25   2.0000      -0.984719       -26.7956
  26   2.0000      -0.914292       -24.8791
  27   2.0000      -0.906722       -24.6732
  28   2.0000      -0.867108       -23.5952
  29   2.0000      -0.855491       -23.2791
  30   2.0000      -0.847247       -23.0548
  31   2.0000      -0.809898       -22.0385
  32   2.0000      -0.785840       -21.3838
  33   2.0000      -0.771126       -20.9834
  34   2.0000      -0.701283       -19.0829
  35   2.0000      -0.697853       -18.9896
  36   2.0000      -0.693733       -18.8774
  37   2.0000      -0.658533       -17.9196
  38   2.0000      -0.644314       -17.5327
  39   2.0000      -0.617168       -16.7940
  40   2.0000      -0.597452       -16.2575
  41   2.0000      -0.574464       -15.6320
  42   2.0000      -0.569699       -15.5023
  43   2.0000      -0.559719       -15.2307
  44   2.0000      -0.527269       -14.3477
  45   2.0000      -0.520992       -14.1769
  46   2.0000      -0.516487       -14.0543
  47   2.0000      -0.513446       -13.9716
  48   2.0000      -0.504458       -13.7270
  49   2.0000      -0.500727       -13.6255
  50   2.0000      -0.492386       -13.3985
  51   2.0000      -0.480538       -13.0761
  52   2.0000      -0.468485       -12.7481
  53   2.0000      -0.460150       -12.5213
  54   2.0000      -0.453923       -12.3519
  55   2.0000      -0.452142       -12.3034
  56   2.0000      -0.448634       -12.2080
  57   2.0000      -0.434839       -11.8326
  58   2.0000      -0.432588       -11.7713
  59   2.0000      -0.427193       -11.6245
  60   2.0000      -0.423532       -11.5249
  61   2.0000      -0.417575       -11.3628
  62   2.0000      -0.411909       -11.2086
  63   2.0000      -0.341229        -9.2853
  64   2.0000      -0.334110        -9.0916
  65   2.0000      -0.326767        -8.8918
  66   2.0000      -0.290290        -7.8992
  67   0.0000       0.030774         0.8374
  68   0.0000       0.066994         1.8230
  69   0.0000       0.115608         3.1458
  70   0.0000       0.122371         3.3299
  71   0.0000       0.126180         3.4335

MULLIKEN ATOMIC CHARGES
-----------------------
   0 S :    0.104034
   1 C :   -0.116133
   2 C :   -0.087956
   3 C :    0.049144
   4 C :   -0.201323
   5 H :    0.011592
   6 C :    0.135718
   7 H :    0.029999
   8 H :   -0.002558
   9 C :   -0.122750
  10 H :    0.028043
  11 H :    0.048457
  12 C :   -0.065807
  13 H :    0.031053
  14 H :    0.030042
  15 H :    0.033804
  16 S :    0.130701
  17 C :   -0.079243
  18 C :   -0.045673
  19 C :   -0.009185
  20 C :   -0.148015
  21 H :    0.002356
  22 C :    0.069596
  23 H :    0.020801
  24 H :    0.049488
  25 C :   -0.111444
  26 H :    0.029751
  27 H :    0.042310
  28 C :   -0.037024
  29 H :    0.042046
  30 H :    0.031896
  31 H :    0.018471
  32 H :    0.045500
  33 H :    0.042312
Sum of atomic charges:   -0.0000000

LOEWDIN ATOMIC CHARGES
----------------------
   0 S :    0.409443
   1 C :   -0.188994
   2 C :   -0.061937
   3 C :   -0.053334
   4 C :   -0.194620
   5 H :    0.030862
   6 C :   -0.012271
   7 H :    0.029211
   8 H :    0.017034
   9 C :   -0.042762
  10 H :    0.020702
  11 H :    0.030977
  12 C :   -0.076430
  13 H :    0.024445
  14 H :    0.029304
  15 H :    0.023099
  16 S :    0.415501
  17 C :   -0.197041
  18 C :   -0.068769
  19 C :   -0.055856
  20 C :   -0.200886
  21 H :    0.022560
  22 C :   -0.035770
  23 H :    0.026548
  24 H :    0.043788
  25 C :   -0.038855
  26 H :    0.023702
  27 H :    0.026753
  28 C :   -0.066682
  29 H :    0.029952
  30 H :    0.021879
  31 H :    0.023401
  32 H :    0.020439
  33 H :    0.024606

  Mayer bond orders larger than 0.100000
B(  0-S ,  1-C ) :   1.1555 B(  0-S ,  4-C ) :   1.1623 B(  1-C ,  2-C ) :   1.5786
B(  1-C ,  4-C ) :   0.1005 B(  1-C , 32-H ) :   0.9735 B(  2-C ,  3-C ) :   1.2753
B(  2-C ,  6-C ) :   1.0233 B(  3-C ,  4-C ) :   1.5424 B(  3-C ,  5-H ) :   0.9913
B(  4-C , 20-C ) :   1.0389 B(  6-C ,  7-H ) :   0.9449 B(  6-C ,  8-H ) :   0.9388
B(  6-C ,  9-C ) :   1.0511 B(  9-C , 10-H ) :   0.9604 B(  9-C , 11-H ) :   0.9600
B(  9-C , 12-C ) :   1.0757 B( 12-C , 13-H ) :   0.9758 B( 12-C , 14-H ) :   0.9725
B( 12-C , 15-H ) :   0.9760 B( 16-S , 17-C ) :   1.1665 B( 16-S , 20-C ) :   1.1206
B( 17-C , 18-C ) :   1.6187 B( 17-C , 33-H ) :   0.9657 B( 18-C , 19-C ) :   1.2175
B( 18-C , 21-H ) :   0.9973 B( 19-C , 20-C ) :   1.6143 B( 19-C , 22-C ) :   1.0616
B( 22-C , 23-H ) :   0.9189 B( 22-C , 24-H ) :   0.9241 B( 22-C , 25-C ) :   1.0642
B( 25-C , 26-H ) :   0.9562 B( 25-C , 27-H ) :   0.9549 B( 25-C , 28-C ) :   1.0879
B( 28-C , 29-H ) :   0.9750 B( 28-C , 30-H ) :   0.9755 B( 28-C , 31-H ) :   0.9700

Dispersion correction           -0.013418270
FINAL SINGLE POINT ENERGY     -1339.874664747688

DIPOLE MOMENT
-------------
                                X             Y             Z
Electronic contribution:     11.05739     -20.86373      -0.98158
Nuclear contribution   :    -11.26047      21.33450       0.78265
                        -----------------------------------------
Total Dipole Moment    :     -0.20308       0.47077      -0.19893
                        -----------------------------------------
Magnitude (a.u.)       :      0.54994
Magnitude (Debye)      :      1.39785

Rotational constants in cm-1:     0.020113     0.007074     0.006081
Rotational constants in MHz :   602.980202   212.086427   182.313023

                             ****ORCA TERMINATED NORMALLY****
TOTAL RUN TIME: 0 days 0 hours 0 minutes 30 seconds 855 msec
