                         Program Version 4.2.1 -  RELEASE  -
|  1> ! wB97X-D3 SP def2-SVP
|  2> %pal
|  3> nprocs 16
|  4> end
|  5>
|  6> * xyz 0 1
|  7> S 	 -3.00208 	 -11.0919 	 70.3184
|  8> C 	 -2.52445 	 -11.7146 	 68.6937
|  9> C 	 -3.28047 	 -11.1685 	 67.6653
| 10> C 	 -3.99536 	 -10.0193 	 68.0707
| 11> C 	 -3.68445 	 -9.7565 	 69.4096
| 12> H 	 -4.63205 	 -9.3515 	 67.5475
| 13> C 	 -3.17955 	 -11.579 	 66.1951
| 14> H 	 -4.06105 	 -12.1116 	 65.8776
| 15> H 	 -2.31964 	 -12.2544 	 66.0224
| 16> C 	 -2.86825 	 -10.3625 	 65.333
| 17> H 	 -3.53983 	 -9.55635 	 65.5092
| 18> H 	 -1.84123 	 -10.1162 	 65.5941
| 19> C 	 -2.92634 	 -10.6285 	 63.8224
| 20> H 	 -2.32167 	 -11.538 	 63.5278
| 21> H 	 -4.03228 	 -10.7354 	 63.6062
| 22> H 	 -2.66766 	 -9.76481 	 63.2632
| 23> S 	 -5.63248 	 -9.04019 	 71.4035
| 24> C 	 -5.81162 	 -7.3245 	 71.6839
| 25> C 	 -4.86987 	 -6.51959 	 70.9592
| 26> C 	 -4.06663 	 -7.28729 	 70.0236
| 27> C 	 -4.33351 	 -8.6368 	 70.1006
| 28> H 	 -4.75991 	 -5.43385 	 71.1169
| 29> C 	 -2.95034 	 -6.63259 	 69.2144
| 30> H 	 -2.43905 	 -7.39314 	 68.6221
| 31> H 	 -2.24893 	 -6.36749 	 69.8971
| 32> C 	 -3.37902 	 -5.44149 	 68.3864
| 33> H 	 -3.5741 	 -4.55255 	 68.9943
| 34> H 	 -4.29334 	 -5.79999 	 67.846
| 35> C 	 -2.3796 	 -5.13983 	 67.2257
| 36> H 	 -2.21572 	 -6.07219 	 66.5855
| 37> H 	 -1.37826 	 -4.7206 	 67.6123
| 38> H 	 -2.6588 	 -4.21476 	 66.7156
| 39> H 	 -1.9014 	 -12.5729 	 68.6812
| 40> H 	 -6.6078 	 -6.82451 	 72.3347
| 41> *
| 42>
| 43>                          ****END OF INPUT****

CARTESIAN COORDINATES (ANGSTROEM)
---------------------------------
  S     -3.002080  -11.091900   70.318400
  C     -2.524450  -11.714600   68.693700
  C     -3.280470  -11.168500   67.665300
  C     -3.995360  -10.019300   68.070700
  C     -3.684450   -9.756500   69.409600
  H     -4.632050   -9.351500   67.547500
  C     -3.179550  -11.579000   66.195100
  H     -4.061050  -12.111600   65.877600
  H     -2.319640  -12.254400   66.022400
  C     -2.868250  -10.362500   65.333000
  H     -3.539830   -9.556350   65.509200
  H     -1.841230  -10.116200   65.594100
  C     -2.926340  -10.628500   63.822400
  H     -2.321670  -11.538000   63.527800
  H     -4.032280  -10.735400   63.606200
  H     -2.667660   -9.764810   63.263200
  S     -5.632480   -9.040190   71.403500
  C     -5.811620   -7.324500   71.683900
  C     -4.869870   -6.519590   70.959200
  C     -4.066630   -7.287290   70.023600
  C     -4.333510   -8.636800   70.100600
  H     -4.759910   -5.433850   71.116900
  C     -2.950340   -6.632590   69.214400
  H     -2.439050   -7.393140   68.622100
  H     -2.248930   -6.367490   69.897100
  C     -3.379020   -5.441490   68.386400
  H     -3.574100   -4.552550   68.994300
  H     -4.293340   -5.799990   67.846000
  C     -2.379600   -5.139830   67.225700
  H     -2.215720   -6.072190   66.585500
  H     -1.378260   -4.720600   67.612300
  H     -2.658800   -4.214760   66.715600
  H     -1.901400  -12.572900   68.681200
  H     -6.607800   -6.824510   72.334700

 Total Charge           Charge          ....    0
 Multiplicity           Mult            ....    1
 Number of Electrons    NEL             ....  134
 Basis Dimension        Dim             ....  322

ORBITAL ENERGIES
----------------

  NO   OCC          E(Eh)            E(eV)
   0   2.0000     -88.968249     -2420.9491
   1   2.0000     -88.965774     -2420.8818
   2   2.0000     -10.328931      -281.0645
   3   2.0000     -10.328448      -281.0514
   4   2.0000     -10.328076      -281.0412
   5   2.0000     -10.315384      -280.6959
   6   2.0000     -10.306070      -280.4424
   7   2.0000     -10.304405      -280.3971
   8   2.0000     -10.299871      -280.2737
   9   2.0000     -10.295029      -280.1420
  10   2.0000     -10.293383      -280.0972
  11   2.0000     -10.292403      -280.0705
  12   2.0000     -10.292084      -280.0618
  13   2.0000     -10.283917      -279.8396
  14   2.0000     -10.282456      -279.7999
  15   2.0000     -10.282036      -279.7884
  16   2.0000      -8.082454      -219.9347
  17   2.0000      -8.078662      -219.8316
  18   2.0000      -6.040685      -164.3754
  19   2.0000      -6.037705      -164.2943
  20   2.0000      -6.037243      -164.2817
  21   2.0000      -6.033700      -164.1853
  22   2.0000      -6.032862      -164.1625
  23   2.0000      -6.029185      -164.0625
  24   2.0000      -0.998828       -27.1795
  25   2.0000      -0.969460       -26.3804
  26   2.0000      -0.914847       -24.8943
  27   2.0000      -0.908468       -24.7207
  28   2.0000      -0.861405       -23.4400
  29   2.0000      -0.852020       -23.1846
  30   2.0000      -0.841598       -22.9010
  31   2.0000      -0.803400       -21.8616
  32   2.0000      -0.783363       -21.3164
  33   2.0000      -0.768377       -20.9086
  34   2.0000      -0.701528       -19.0895
  35   2.0000      -0.694960       -18.9108
  36   2.0000      -0.688053       -18.7229
  37   2.0000      -0.651407       -17.7257
  38   2.0000      -0.646795       -17.6002
  39   2.0000      -0.619959       -16.8699
  40   2.0000      -0.589832       -16.0501
  41   2.0000      -0.576044       -15.6750
  42   2.0000      -0.575079       -15.6487
  43   2.0000      -0.551902       -15.0180
  44   2.0000      -0.524352       -14.2683
  45   2.0000      -0.521338       -14.1863
  46   2.0000      -0.513372       -13.9696
  47   2.0000      -0.509216       -13.8565
  48   2.0000      -0.501886       -13.6570
  49   2.0000      -0.492439       -13.4000
  50   2.0000      -0.483068       -13.1449
  51   2.0000      -0.480156       -13.0657
  52   2.0000      -0.471105       -12.8194
  53   2.0000      -0.462098       -12.5743
  54   2.0000      -0.453730       -12.3466
  55   2.0000      -0.451579       -12.2881
  56   2.0000      -0.445975       -12.1356
  57   2.0000      -0.432581       -11.7711
  58   2.0000      -0.429873       -11.6974
  59   2.0000      -0.427893       -11.6436
  60   2.0000      -0.420740       -11.4489
  61   2.0000      -0.418081       -11.3765
  62   2.0000      -0.411896       -11.2083
  63   2.0000      -0.336449        -9.1552
  64   2.0000      -0.335042        -9.1170
  65   2.0000      -0.324806        -8.8384
  66   2.0000      -0.287664        -7.8277
  67   0.0000       0.026782         0.7288
  68   0.0000       0.049722         1.3530
  69   0.0000       0.095334         2.5942
  70   0.0000       0.111651         3.0382
  71   0.0000       0.122451         3.3321

MULLIKEN ATOMIC CHARGES
-----------------------
   0 S :    0.098069
   1 C :   -0.111361
   2 C :   -0.032201
   3 C :    0.025538
   4 C :   -0.161355
   5 H :    0.016321
   6 C :    0.076710
   7 H :    0.033012
   8 H :    0.021940
   9 C :   -0.105979
  10 H :    0.026106
  11 H :    0.031717
  12 C :   -0.050425
  13 H :    0.045082
  14 H :    0.029725
  15 H :    0.030456
  16 S :    0.089643
  17 C :   -0.115601
  18 C :   -0.053710
  19 C :   -0.034695
  20 C :   -0.186675
  21 H :    0.029713
  22 C :    0.137576
  23 H :    0.017710
  24 H :    0.009679
  25 C :   -0.102470
  26 H :    0.040334
  27 H :    0.040716
  28 C :   -0.087530
  29 H :    0.060591
  30 H :    0.028030
  31 H :    0.034759
  32 H :    0.032981
  33 H :    0.085598
Sum of atomic charges:   -0.0000000

LOEWDIN ATOMIC CHARGES
----------------------
   0 S :    0.378091
   1 C :   -0.170397
   2 C :   -0.052235
   3 C :   -0.047100
   4 C :   -0.182324
   5 H :    0.030211
   6 C :   -0.028413
   7 H :    0.027740
   8 H :    0.032852
   9 C :   -0.041006
  10 H :    0.015916
  11 H :    0.024829
  12 C :   -0.067480
  13 H :    0.030631
  14 H :    0.030248
  15 H :    0.020528
  16 S :    0.344304
  17 C :   -0.196480
  18 C :   -0.079554
  19 C :   -0.049418
  20 C :   -0.166507
  21 H :    0.032407
  22 C :   -0.024440
  23 H :    0.031990
  24 H :    0.021404
  25 C :   -0.043364
  26 H :    0.025049
  27 H :    0.031666
  28 C :   -0.080787
  29 H :    0.036689
  30 H :    0.028689
  31 H :    0.026277
  32 H :    0.014427
  33 H :    0.045560

  Mayer bond orders larger than 0.100000
B(  0-S ,  1-C ) :   1.1143 B(  0-S ,  4-C ) :   1.1538 B(  1-C ,  2-C ) :   1.6199
B(  1-C , 32-H ) :   0.9789 B(  2-C ,  3-C ) :   1.1978 B(  2-C ,  6-C ) :   1.0230
B(  3-C ,  4-C ) :   1.5741 B(  3-C ,  5-H ) :   1.0037 B(  4-C , 20-C ) :   1.0449
B(  6-C ,  7-H ) :   0.9368 B(  6-C ,  8-H ) :   0.9477 B(  6-C ,  9-C ) :   1.0572
B(  9-C , 10-H ) :   0.9563 B(  9-C , 11-H ) :   0.9581 B(  9-C , 12-C ) :   1.0894
B( 12-C , 13-H ) :   0.9732 B( 12-C , 14-H ) :   0.9747 B( 12-C , 15-H ) :   0.9729
B( 16-S , 17-C ) :   1.1461 B( 16-S , 20-C ) :   1.0884 B( 17-C , 18-C ) :   1.6325
B( 17-C , 33-H ) :   0.9551 B( 18-C , 19-C ) :   1.2022 B( 18-C , 21-H ) :   0.9818
B( 19-C , 20-C ) :   1.6613 B( 19-C , 22-C ) :   1.0387 B( 22-C , 23-H ) :   0.9305
B( 22-C , 24-H ) :   0.9211 B( 22-C , 25-C ) :   1.0512 B( 25-C , 26-H ) :   0.9512
B( 25-C , 27-H ) :   0.9619 B( 25-C , 28-C ) :   1.0877 B( 28-C , 29-H ) :   0.9723
B( 28-C , 30-H ) :   0.9708 B( 28-C , 31-H ) :   0.9726

Dispersion correction           -0.013993794
FINAL SINGLE POINT ENERGY     -1339.843907046013

DIPOLE MOMENT
-------------
                                X             Y             Z
Electronic contribution:     -9.18559     -12.24531      28.52979
Nuclear contribution   :      9.37140      12.58168     -29.10390
                        -----------------------------------------
Total Dipole Moment    :      0.18581       0.33637      -0.57411
                        -----------------------------------------
Magnitude (a.u.)       :      0.69085
Magnitude (Debye)      :      1.75600

Rotational constants in cm-1:     0.015661     0.009625     0.006707
Rotational constants in MHz :   469.511583   288.542028   201.063289

                             ****ORCA TERMINATED NORMALLY****
TOTAL RUN TIME: 0 days 0 hours 0 minutes 33 seconds 269 msec
