                         Program Version 4.2.1 -  RELEASE  -
|  1> ! wB97X-D3 SP def2-SVP
|  2> %pal
|  3> nprocs 16
|  4> end
|  5>
|  6> * xyz 0 1
|  7> S 	 8.96606 	 22.3924 	 56.1664
|  8> C 	 8.54375 	 21.5662 	 54.7165
|  9> C 	 7.58104 	 20.4943 	 54.8627
| 10> C 	 7.22211 	 20.3936 	 56.2774
| 11> C 	 7.84978 	 21.3145 	 57.1175
| 12> H 	 6.57911 	 19.6695 	 56.759
| 13> C 	 7.04937 	 19.5631 	 53.8498
| 14> H 	 6.65569 	 20.268 	 53.0855
| 15> H 	 6.17376 	 19.1082 	 54.1708
| 16> C 	 7.96986 	 18.4837 	 53.3632
| 17> H 	 7.65487 	 18.0549 	 52.3917
| 18> H 	 8.96109 	 18.9107 	 53.0632
| 19> C 	 8.18141 	 17.3906 	 54.4667
| 20> H 	 9.04036 	 16.7949 	 54.1486
| 21> H 	 8.37063 	 17.7892 	 55.4338
| 22> H 	 7.21747 	 16.7972 	 54.5171
| 23> S 	 9.27758 	 21.4528 	 59.5061
| 24> C 	 8.46776 	 21.0116 	 60.9532
| 25> C 	 7.09973 	 20.8859 	 60.7121
| 26> C 	 6.71011 	 21.0877 	 59.3879
| 27> C 	 7.77753 	 21.3439 	 58.5558
| 28> H 	 6.37574 	 20.6775 	 61.4795
| 29> C 	 5.29451 	 21.0337 	 59.0065
| 30> H 	 5.21053 	 21.0043 	 57.916
| 31> H 	 4.89688 	 21.9573 	 59.3548
| 32> C 	 4.36235 	 19.9939 	 59.4975
| 33> H 	 3.462 	 20.2696 	 58.9861
| 34> H 	 4.15944 	 20.1601 	 60.5258
| 35> C 	 4.69317 	 18.5141 	 59.1097
| 36> H 	 5.09861 	 18.5125 	 58.0825
| 37> H 	 3.75507 	 17.8762 	 59.0753
| 38> H 	 5.38889 	 18.059 	 59.7982
| 39> H 	 9.06531 	 21.8132 	 53.8435
| 40> H 	 8.9345 	 20.96 	 61.8727
| 41> *
| 42>
| 43>                          ****END OF INPUT****

CARTESIAN COORDINATES (ANGSTROEM)
---------------------------------
  S      8.966060   22.392400   56.166400
  C      8.543750   21.566200   54.716500
  C      7.581040   20.494300   54.862700
  C      7.222110   20.393600   56.277400
  C      7.849780   21.314500   57.117500
  H      6.579110   19.669500   56.759000
  C      7.049370   19.563100   53.849800
  H      6.655690   20.268000   53.085500
  H      6.173760   19.108200   54.170800
  C      7.969860   18.483700   53.363200
  H      7.654870   18.054900   52.391700
  H      8.961090   18.910700   53.063200
  C      8.181410   17.390600   54.466700
  H      9.040360   16.794900   54.148600
  H      8.370630   17.789200   55.433800
  H      7.217470   16.797200   54.517100
  S      9.277580   21.452800   59.506100
  C      8.467760   21.011600   60.953200
  C      7.099730   20.885900   60.712100
  C      6.710110   21.087700   59.387900
  C      7.777530   21.343900   58.555800
  H      6.375740   20.677500   61.479500
  C      5.294510   21.033700   59.006500
  H      5.210530   21.004300   57.916000
  H      4.896880   21.957300   59.354800
  C      4.362350   19.993900   59.497500
  H      3.462000   20.269600   58.986100
  H      4.159440   20.160100   60.525800
  C      4.693170   18.514100   59.109700
  H      5.098610   18.512500   58.082500
  H      3.755070   17.876200   59.075300
  H      5.388890   18.059000   59.798200
  H      9.065310   21.813200   53.843500
  H      8.934500   20.960000   61.872700

 Total Charge           Charge          ....    0
 Multiplicity           Mult            ....    1
 Number of Electrons    NEL             ....  134
 Basis Dimension        Dim             ....  322

ORBITAL ENERGIES
----------------

  NO   OCC          E(Eh)            E(eV)
   0   2.0000     -88.968387     -2420.9529
   1   2.0000     -88.964307     -2420.8419
   2   2.0000     -10.331371      -281.1309
   3   2.0000     -10.322927      -280.9011
   4   2.0000     -10.315383      -280.6958
   5   2.0000     -10.313054      -280.6325
   6   2.0000     -10.310093      -280.5519
   7   2.0000     -10.297878      -280.2195
   8   2.0000     -10.293281      -280.0944
   9   2.0000     -10.290776      -280.0262
  10   2.0000     -10.288509      -279.9646
  11   2.0000     -10.286967      -279.9226
  12   2.0000     -10.285208      -279.8747
  13   2.0000     -10.281906      -279.7849
  14   2.0000     -10.280479      -279.7460
  15   2.0000     -10.280427      -279.7446
  16   2.0000      -8.082337      -219.9316
  17   2.0000      -8.079320      -219.8495
  18   2.0000      -6.040776      -164.3779
  19   2.0000      -6.037749      -164.2955
  20   2.0000      -6.036978      -164.2745
  21   2.0000      -6.033752      -164.1867
  22   2.0000      -6.033225      -164.1724
  23   2.0000      -6.030187      -164.0897
  24   2.0000      -1.005202       -27.3529
  25   2.0000      -0.977166       -26.5900
  26   2.0000      -0.922137       -25.0926
  27   2.0000      -0.915386       -24.9089
  28   2.0000      -0.869382       -23.6571
  29   2.0000      -0.851914       -23.1818
  30   2.0000      -0.844267       -22.9737
  31   2.0000      -0.810191       -22.0464
  32   2.0000      -0.788428       -21.4542
  33   2.0000      -0.771264       -20.9871
  34   2.0000      -0.710056       -19.3216
  35   2.0000      -0.706420       -19.2227
  36   2.0000      -0.697503       -18.9800
  37   2.0000      -0.662377       -18.0242
  38   2.0000      -0.645843       -17.5743
  39   2.0000      -0.612866       -16.6769
  40   2.0000      -0.601272       -16.3614
  41   2.0000      -0.574684       -15.6379
  42   2.0000      -0.564261       -15.3543
  43   2.0000      -0.556624       -15.1465
  44   2.0000      -0.543323       -14.7846
  45   2.0000      -0.533374       -14.5139
  46   2.0000      -0.520982       -14.1766
  47   2.0000      -0.511372       -13.9151
  48   2.0000      -0.500754       -13.6262
  49   2.0000      -0.494291       -13.4503
  50   2.0000      -0.492855       -13.4113
  51   2.0000      -0.478601       -13.0234
  52   2.0000      -0.475369       -12.9354
  53   2.0000      -0.466875       -12.7043
  54   2.0000      -0.462349       -12.5812
  55   2.0000      -0.445482       -12.1222
  56   2.0000      -0.443187       -12.0597
  57   2.0000      -0.439858       -11.9691
  58   2.0000      -0.438583       -11.9344
  59   2.0000      -0.421437       -11.4679
  60   2.0000      -0.420702       -11.4479
  61   2.0000      -0.416204       -11.3255
  62   2.0000      -0.412176       -11.2159
  63   2.0000      -0.352487        -9.5917
  64   2.0000      -0.331651        -9.0247
  65   2.0000      -0.326448        -8.8831
  66   2.0000      -0.279195        -7.5973
  67   0.0000       0.023537         0.6405
  68   0.0000       0.069170         1.8822
  69   0.0000       0.103274         2.8102
  70   0.0000       0.119369         3.2482
  71   0.0000       0.129209         3.5159

MULLIKEN ATOMIC CHARGES
-----------------------
   0 S :    0.108163
   1 C :   -0.102192
   2 C :   -0.107353
   3 C :    0.035983
   4 C :   -0.166652
   5 H :   -0.008870
   6 C :    0.105232
   7 H :    0.036792
   8 H :   -0.007822
   9 C :   -0.071150
  10 H :    0.030024
  11 H :    0.024048
  12 C :   -0.060648
  13 H :    0.042359
  14 H :    0.041511
  15 H :    0.037088
  16 S :    0.105867
  17 C :   -0.058969
  18 C :   -0.035375
  19 C :   -0.019355
  20 C :   -0.143863
  21 H :    0.005473
  22 C :    0.051128
  23 H :    0.013257
  24 H :    0.028981
  25 C :   -0.041728
  26 H :    0.020756
  27 H :    0.015755
  28 C :   -0.063970
  29 H :    0.030713
  30 H :    0.043447
  31 H :    0.045834
  32 H :    0.032412
  33 H :    0.033123
Sum of atomic charges:   -0.0000000

LOEWDIN ATOMIC CHARGES
----------------------
   0 S :    0.391845
   1 C :   -0.196321
   2 C :   -0.052694
   3 C :   -0.059913
   4 C :   -0.175429
   5 H :    0.025518
   6 C :   -0.042400
   7 H :    0.042890
   8 H :    0.020823
   9 C :   -0.041701
  10 H :    0.026105
  11 H :    0.023295
  12 C :   -0.061700
  13 H :    0.029700
  14 H :    0.021764
  15 H :    0.030808
  16 S :    0.410798
  17 C :   -0.177609
  18 C :   -0.070380
  19 C :   -0.060509
  20 C :   -0.195721
  21 H :    0.026717
  22 C :   -0.035334
  23 H :    0.029511
  24 H :    0.038466
  25 C :   -0.037491
  26 H :    0.028833
  27 H :    0.014933
  28 C :   -0.066750
  29 H :    0.024360
  30 H :    0.034924
  31 H :    0.025569
  32 H :    0.012090
  33 H :    0.015003

  Mayer bond orders larger than 0.100000
B(  0-S ,  1-C ) :   1.1635 B(  0-S ,  4-C ) :   1.1271 B(  1-C ,  2-C ) :   1.5689
B(  1-C , 32-H ) :   0.9759 B(  2-C ,  3-C ) :   1.2379 B(  2-C ,  6-C ) :   1.0350
B(  3-C ,  4-C ) :   1.5792 B(  3-C ,  5-H ) :   0.9818 B(  4-C , 20-C ) :   1.0716
B(  6-C ,  7-H ) :   0.9248 B(  6-C ,  8-H ) :   0.9337 B(  6-C ,  9-C ) :   1.0674
B(  9-C , 10-H ) :   0.9544 B(  9-C , 11-H ) :   0.9600 B(  9-C , 12-C ) :   1.0595
B( 12-C , 13-H ) :   0.9746 B( 12-C , 14-H ) :   0.9797 B( 12-C , 15-H ) :   0.9756
B( 16-S , 17-C ) :   1.1771 B( 16-S , 20-C ) :   1.1307 B( 17-C , 18-C ) :   1.5484
B( 17-C , 20-C ) :   0.1026 B( 17-C , 33-H ) :   0.9815 B( 18-C , 19-C ) :   1.2801
B( 18-C , 21-H ) :   0.9949 B( 19-C , 20-C ) :   1.5578 B( 19-C , 22-C ) :   1.0455
B( 22-C , 23-H ) :   0.9321 B( 22-C , 24-H ) :   0.9152 B( 22-C , 25-C ) :   1.1052
B( 25-C , 26-H ) :   0.9483 B( 25-C , 27-H ) :   0.9461 B( 25-C , 28-C ) :   1.0644
B( 28-C , 29-H ) :   0.9727 B( 28-C , 30-H ) :   0.9743 B( 28-C , 31-H ) :   0.9760

Dispersion correction           -0.014922919
FINAL SINGLE POINT ENERGY     -1339.872580631853

DIPOLE MOMENT
-------------
                                X             Y             Z
Electronic contribution:     17.21334      20.32438       8.03977
Nuclear contribution   :    -17.74784     -20.73101      -8.08314
                        -----------------------------------------
Total Dipole Moment    :     -0.53449      -0.40664      -0.04337
                        -----------------------------------------
Magnitude (a.u.)       :      0.67299
Magnitude (Debye)      :      1.71061

Rotational constants in cm-1:     0.017667     0.009555     0.007355
Rotational constants in MHz :   529.636111   286.438131   220.499427

                             ****ORCA TERMINATED NORMALLY****
TOTAL RUN TIME: 0 days 0 hours 0 minutes 34 seconds 778 msec
