                         Program Version 4.2.1 -  RELEASE  -
|  1> ! wB97X-D3 SP def2-SVP
|  2> %pal
|  3> nprocs 16
|  4> end
|  5>
|  6> * xyz 0 1
|  7> S 	 -75.3699 	 45.4181 	 123.043
|  8> C 	 -76.5662 	 44.5852 	 124.019
|  9> C 	 -77.8151 	 44.3663 	 123.316
| 10> C 	 -77.6383 	 44.7563 	 121.919
| 11> C 	 -76.4373 	 45.371 	 121.615
| 12> H 	 -78.2966 	 44.5632 	 121.094
| 13> C 	 -78.973 	 43.5543 	 123.801
| 14> H 	 -79.8255 	 44.2235 	 123.519
| 15> H 	 -78.8296 	 43.4724 	 124.917
| 16> C 	 -79.1994 	 42.1924 	 123.092
| 17> H 	 -80.0603 	 41.899 	 123.542
| 18> H 	 -79.4065 	 42.4952 	 121.971
| 19> C 	 -78.1043 	 40.9753 	 123.107
| 20> H 	 -77.6105 	 40.7554 	 124.024
| 21> H 	 -78.6883 	 40.0195 	 123.024
| 22> H 	 -77.3071 	 40.886 	 122.38
| 23> S 	 -75.5637 	 47.5083 	 120.234
| 24> C 	 -75.4129 	 47.3287 	 118.526
| 25> C 	 -75.8778 	 46.0887 	 118.093
| 26> C 	 -75.9016 	 45.097 	 119.147
| 27> C 	 -75.8788 	 45.7598 	 120.371
| 28> H 	 -75.9155 	 45.9047 	 117
| 29> C 	 -76.3172 	 43.6742 	 118.857
| 30> H 	 -76.5785 	 43.6517 	 117.783
| 31> H 	 -77.2514 	 43.4897 	 119.411
| 32> C 	 -75.3049 	 42.5862 	 119.285
| 33> H 	 -75.1807 	 42.5521 	 120.378
| 34> H 	 -74.3245 	 42.9078 	 118.908
| 35> C 	 -75.794 	 41.2351 	 118.854
| 36> H 	 -75.1588 	 40.4654 	 119.173
| 37> H 	 -75.7782 	 41.2937 	 117.803
| 38> H 	 -76.8084 	 41.0349 	 119.02
| 39> H 	 -76.5076 	 44.4478 	 125.091
| 40> H 	 -75.1201 	 48.1645 	 117.947
| 41> *
| 42>
| 43>                          ****END OF INPUT****

CARTESIAN COORDINATES (ANGSTROEM)
---------------------------------
  S    -75.369900   45.418100  123.043000
  C    -76.566200   44.585200  124.019000
  C    -77.815100   44.366300  123.316000
  C    -77.638300   44.756300  121.919000
  C    -76.437300   45.371000  121.615000
  H    -78.296600   44.563200  121.094000
  C    -78.973000   43.554300  123.801000
  H    -79.825500   44.223500  123.519000
  H    -78.829600   43.472400  124.917000
  C    -79.199400   42.192400  123.092000
  H    -80.060300   41.899000  123.542000
  H    -79.406500   42.495200  121.971000
  C    -78.104300   40.975300  123.107000
  H    -77.610500   40.755400  124.024000
  H    -78.688300   40.019500  123.024000
  H    -77.307100   40.886000  122.380000
  S    -75.563700   47.508300  120.234000
  C    -75.412900   47.328700  118.526000
  C    -75.877800   46.088700  118.093000
  C    -75.901600   45.097000  119.147000
  C    -75.878800   45.759800  120.371000
  H    -75.915500   45.904700  117.000000
  C    -76.317200   43.674200  118.857000
  H    -76.578500   43.651700  117.783000
  H    -77.251400   43.489700  119.411000
  C    -75.304900   42.586200  119.285000
  H    -75.180700   42.552100  120.378000
  H    -74.324500   42.907800  118.908000
  C    -75.794000   41.235100  118.854000
  H    -75.158800   40.465400  119.173000
  H    -75.778200   41.293700  117.803000
  H    -76.808400   41.034900  119.020000
  H    -76.507600   44.447800  125.091000
  H    -75.120100   48.164500  117.947000

 Total Charge           Charge          ....    0
 Multiplicity           Mult            ....    1
 Number of Electrons    NEL             ....  134
 Basis Dimension        Dim             ....  322

ORBITAL ENERGIES
----------------

  NO   OCC          E(Eh)            E(eV)
   0   2.0000     -88.963019     -2420.8068
   1   2.0000     -88.962292     -2420.7870
   2   2.0000     -10.324243      -280.9369
   3   2.0000     -10.321707      -280.8679
   4   2.0000     -10.318123      -280.7704
   5   2.0000     -10.315074      -280.6874
   6   2.0000     -10.307315      -280.4763
   7   2.0000     -10.306827      -280.4630
   8   2.0000     -10.304910      -280.4109
   9   2.0000     -10.302677      -280.3501
  10   2.0000     -10.299070      -280.2519
  11   2.0000     -10.296017      -280.1689
  12   2.0000     -10.295740      -280.1613
  13   2.0000     -10.286843      -279.9192
  14   2.0000     -10.284556      -279.8570
  15   2.0000     -10.263196      -279.2758
  16   2.0000      -8.078257      -219.8206
  17   2.0000      -8.076435      -219.7710
  18   2.0000      -6.036557      -164.2631
  19   2.0000      -6.034927      -164.2187
  20   2.0000      -6.032841      -164.1619
  21   2.0000      -6.030967      -164.1110
  22   2.0000      -6.029040      -164.0585
  23   2.0000      -6.027319      -164.0117
  24   2.0000      -1.002838       -27.2886
  25   2.0000      -0.973254       -26.4836
  26   2.0000      -0.913411       -24.8552
  27   2.0000      -0.905435       -24.6382
  28   2.0000      -0.865021       -23.5384
  29   2.0000      -0.857140       -23.3240
  30   2.0000      -0.838235       -22.8095
  31   2.0000      -0.809063       -22.0157
  32   2.0000      -0.786674       -21.4065
  33   2.0000      -0.772463       -21.0198
  34   2.0000      -0.714549       -19.4439
  35   2.0000      -0.703646       -19.1472
  36   2.0000      -0.689333       -18.7577
  37   2.0000      -0.662006       -18.0141
  38   2.0000      -0.636891       -17.3307
  39   2.0000      -0.615811       -16.7571
  40   2.0000      -0.596158       -16.2223
  41   2.0000      -0.565611       -15.3911
  42   2.0000      -0.553673       -15.0662
  43   2.0000      -0.545157       -14.8345
  44   2.0000      -0.535805       -14.5800
  45   2.0000      -0.529246       -14.4015
  46   2.0000      -0.518860       -14.1189
  47   2.0000      -0.511563       -13.9203
  48   2.0000      -0.503596       -13.7036
  49   2.0000      -0.496713       -13.5162
  50   2.0000      -0.490483       -13.3467
  51   2.0000      -0.482864       -13.1394
  52   2.0000      -0.466768       -12.7014
  53   2.0000      -0.462132       -12.5753
  54   2.0000      -0.456490       -12.4217
  55   2.0000      -0.450802       -12.2669
  56   2.0000      -0.442798       -12.0491
  57   2.0000      -0.438392       -11.9293
  58   2.0000      -0.432461       -11.7679
  59   2.0000      -0.427947       -11.6450
  60   2.0000      -0.422444       -11.4953
  61   2.0000      -0.415631       -11.3099
  62   2.0000      -0.410410       -11.1678
  63   2.0000      -0.336393        -9.1537
  64   2.0000      -0.329132        -8.9561
  65   2.0000      -0.322199        -8.7675
  66   2.0000      -0.289450        -7.8763
  67   0.0000       0.028062         0.7636
  68   0.0000       0.062004         1.6872
  69   0.0000       0.100741         2.7413
  70   0.0000       0.112908         3.0724
  71   0.0000       0.121229         3.2988

MULLIKEN ATOMIC CHARGES
-----------------------
   0 S :    0.103771
   1 C :   -0.115608
   2 C :   -0.098142
   3 C :    0.025870
   4 C :   -0.161469
   5 H :    0.010911
   6 C :    0.020313
   7 H :    0.047226
   8 H :    0.034777
   9 C :   -0.042041
  10 H :    0.020137
  11 H :    0.043732
  12 C :   -0.057366
  13 H :    0.019127
  14 H :    0.028060
  15 H :    0.044214
  16 S :    0.109170
  17 C :   -0.088182
  18 C :   -0.048882
  19 C :   -0.048541
  20 C :   -0.134652
  21 H :    0.035710
  22 C :    0.043478
  23 H :    0.021439
  24 H :    0.020021
  25 C :   -0.087938
  26 H :    0.038870
  27 H :    0.031017
  28 C :    0.042628
  29 H :    0.028459
  30 H :    0.000129
  31 H :    0.011144
  32 H :    0.052022
  33 H :    0.050596
Sum of atomic charges:   -0.0000000

LOEWDIN ATOMIC CHARGES
----------------------
   0 S :    0.388959
   1 C :   -0.202833
   2 C :   -0.062823
   3 C :   -0.059226
   4 C :   -0.191039
   5 H :    0.025656
   6 C :   -0.043132
   7 H :    0.044517
   8 H :    0.034917
   9 C :   -0.027755
  10 H :    0.012098
  11 H :    0.037714
  12 C :   -0.077702
  13 H :    0.021289
  14 H :    0.035187
  15 H :    0.027298
  16 S :    0.407521
  17 C :   -0.181986
  18 C :   -0.074413
  19 C :   -0.048932
  20 C :   -0.200451
  21 H :    0.033816
  22 C :   -0.030915
  23 H :    0.031285
  24 H :    0.030541
  25 C :   -0.035203
  26 H :    0.026902
  27 H :    0.025550
  28 C :   -0.054954
  29 H :    0.022397
  30 H :    0.021606
  31 H :    0.020645
  32 H :    0.024218
  33 H :    0.019247

  Mayer bond orders larger than 0.100000
B(  0-S ,  1-C ) :   1.1520 B(  0-S ,  4-C ) :   1.1280 B(  1-C ,  2-C ) :   1.5945
B(  1-C ,  4-C ) :   0.1054 B(  1-C , 32-H ) :   0.9619 B(  2-C ,  3-C ) :   1.2090
B(  2-C ,  6-C ) :   1.0390 B(  3-C ,  4-C ) :   1.6198 B(  3-C ,  5-H ) :   0.9851
B(  4-C , 20-C ) :   1.0283 B(  6-C ,  7-H ) :   0.9312 B(  6-C ,  8-H ) :   0.9407
B(  6-C ,  9-C ) :   1.0724 B(  9-C , 10-H ) :   0.9580 B(  9-C , 11-H ) :   0.9528
B(  9-C , 12-C ) :   1.0424 B( 12-C , 13-H ) :   0.9779 B( 12-C , 14-H ) :   0.9752
B( 12-C , 15-H ) :   0.9825 B( 16-S , 17-C ) :   1.1676 B( 16-S , 20-C ) :   1.1424
B( 17-C , 18-C ) :   1.6025 B( 17-C , 20-C ) :   0.1006 B( 17-C , 33-H ) :   0.9754
B( 18-C , 19-C ) :   1.2392 B( 18-C , 21-H ) :   0.9765 B( 19-C , 20-C ) :   1.5765
B( 19-C , 22-C ) :   1.0469 B( 22-C , 23-H ) :   0.9408 B( 22-C , 24-H ) :   0.9277
B( 22-C , 25-C ) :   1.0538 B( 25-C , 26-H ) :   0.9546 B( 25-C , 27-H ) :   0.9575
B( 25-C , 28-C ) :   1.0840 B( 28-C , 29-H ) :   0.9711 B( 28-C , 30-H ) :   0.9668
B( 28-C , 31-H ) :   0.9670

Dispersion correction           -0.015069758
FINAL SINGLE POINT ENERGY     -1339.838842505661

DIPOLE MOMENT
-------------
                                X             Y             Z
Electronic contribution:     10.76456      28.65656       3.40458
Nuclear contribution   :    -11.24394     -29.23619      -3.67348
                        -----------------------------------------
Total Dipole Moment    :     -0.47938      -0.57963      -0.26890
                        -----------------------------------------
Magnitude (a.u.)       :      0.79880
Magnitude (Debye)      :      2.03040

Rotational constants in cm-1:     0.017500     0.010221     0.007489
Rotational constants in MHz :   524.639512   306.405281   224.511788

                             ****ORCA TERMINATED NORMALLY****
TOTAL RUN TIME: 0 days 0 hours 0 minutes 37 seconds 537 msec
