                         Program Version 4.2.1 -  RELEASE  -
|  1> ! wB97X-D3 SP def2-SVP
|  2> %pal
|  3> nprocs 16
|  4> end
|  5>
|  6> * xyz 0 1
|  7> S 	 -4.38533 	 51.5648 	 48.7073
|  8> C 	 -4.46965 	 52.2491 	 50.2937
|  9> C 	 -5.77989 	 52.411 	 50.6857
| 10> C 	 -6.75532 	 51.8401 	 49.7227
| 11> C 	 -6.14511 	 51.2424 	 48.6302
| 12> H 	 -7.82115 	 51.8954 	 49.8424
| 13> C 	 -6.28201 	 53.1604 	 51.9302
| 14> H 	 -5.37225 	 53.1999 	 52.4792
| 15> H 	 -6.9102 	 52.5474 	 52.4665
| 16> C 	 -6.87979 	 54.5692 	 51.6929
| 17> H 	 -6.11707 	 55.1912 	 51.2038
| 18> H 	 -7.77871 	 54.5432 	 51.1034
| 19> C 	 -7.25738 	 55.2231 	 53.089
| 20> H 	 -7.77227 	 56.0844 	 52.7896
| 21> H 	 -7.84337 	 54.5657 	 53.6906
| 22> H 	 -6.33764 	 55.4757 	 53.5778
| 23> S 	 -6.33423 	 51.1897 	 45.8766
| 24> C 	 -7.48401 	 50.0434 	 45.1903
| 25> C 	 -8.08839 	 49.2992 	 46.1628
| 26> C 	 -7.83348 	 49.7256 	 47.4885
| 27> C 	 -6.87611 	 50.7144 	 47.5091
| 28> H 	 -8.76384 	 48.5749 	 45.8407
| 29> C 	 -8.58281 	 49.1453 	 48.6755
| 30> H 	 -8.95486 	 49.9184 	 49.3442
| 31> H 	 -7.83908 	 48.5364 	 49.1779
| 32> C 	 -9.77367 	 48.135 	 48.376
| 33> H 	 -9.92682 	 47.483 	 49.3124
| 34> H 	 -9.46276 	 47.5106 	 47.5748
| 35> C 	 -11.065 	 48.8854 	 47.9827
| 36> H 	 -11.6594 	 48.2682 	 47.375
| 37> H 	 -10.778 	 49.7908 	 47.3412
| 38> H 	 -11.5596 	 49.3313 	 48.8165
| 39> H 	 -3.70277 	 52.8486 	 50.7762
| 40> H 	 -7.76131 	 49.836 	 44.1343
| 41> *
| 42>
| 43>                          ****END OF INPUT****

CARTESIAN COORDINATES (ANGSTROEM)
---------------------------------
  S     -4.385330   51.564800   48.707300
  C     -4.469650   52.249100   50.293700
  C     -5.779890   52.411000   50.685700
  C     -6.755320   51.840100   49.722700
  C     -6.145110   51.242400   48.630200
  H     -7.821150   51.895400   49.842400
  C     -6.282010   53.160400   51.930200
  H     -5.372250   53.199900   52.479200
  H     -6.910200   52.547400   52.466500
  C     -6.879790   54.569200   51.692900
  H     -6.117070   55.191200   51.203800
  H     -7.778710   54.543200   51.103400
  C     -7.257380   55.223100   53.089000
  H     -7.772270   56.084400   52.789600
  H     -7.843370   54.565700   53.690600
  H     -6.337640   55.475700   53.577800
  S     -6.334230   51.189700   45.876600
  C     -7.484010   50.043400   45.190300
  C     -8.088390   49.299200   46.162800
  C     -7.833480   49.725600   47.488500
  C     -6.876110   50.714400   47.509100
  H     -8.763840   48.574900   45.840700
  C     -8.582810   49.145300   48.675500
  H     -8.954860   49.918400   49.344200
  H     -7.839080   48.536400   49.177900
  C     -9.773670   48.135000   48.376000
  H     -9.926820   47.483000   49.312400
  H     -9.462760   47.510600   47.574800
  C    -11.065000   48.885400   47.982700
  H    -11.659400   48.268200   47.375000
  H    -10.778000   49.790800   47.341200
  H    -11.559600   49.331300   48.816500
  H     -3.702770   52.848600   50.776200
  H     -7.761310   49.836000   44.134300

 Total Charge           Charge          ....    0
 Multiplicity           Mult            ....    1
 Number of Electrons    NEL             ....  134
 Basis Dimension        Dim             ....  322

ORBITAL ENERGIES
----------------

  NO   OCC          E(Eh)            E(eV)
   0   2.0000     -88.967736     -2420.9352
   1   2.0000     -88.964429     -2420.8452
   2   2.0000     -10.330498      -281.1071
   3   2.0000     -10.326039      -280.9858
   4   2.0000     -10.318226      -280.7732
   5   2.0000     -10.310555      -280.5645
   6   2.0000     -10.304433      -280.3979
   7   2.0000     -10.301488      -280.3177
   8   2.0000     -10.296336      -280.1775
   9   2.0000     -10.294899      -280.1384
  10   2.0000     -10.293714      -280.1062
  11   2.0000     -10.290011      -280.0054
  12   2.0000     -10.285920      -279.8941
  13   2.0000     -10.282929      -279.8127
  14   2.0000     -10.278644      -279.6961
  15   2.0000     -10.273212      -279.5483
  16   2.0000      -8.081599      -219.9115
  17   2.0000      -8.078700      -219.8326
  18   2.0000      -6.040245      -164.3634
  19   2.0000      -6.037479      -164.2882
  20   2.0000      -6.036310      -164.2564
  21   2.0000      -6.033366      -164.1762
  22   2.0000      -6.032189      -164.1442
  23   2.0000      -6.029090      -164.0599
  24   2.0000      -1.003572       -27.3086
  25   2.0000      -0.979377       -26.6502
  26   2.0000      -0.907075       -24.6828
  27   2.0000      -0.904839       -24.6219
  28   2.0000      -0.873850       -23.7787
  29   2.0000      -0.849740       -23.1226
  30   2.0000      -0.841174       -22.8895
  31   2.0000      -0.816267       -22.2118
  32   2.0000      -0.783178       -21.3114
  33   2.0000      -0.771602       -20.9964
  34   2.0000      -0.710563       -19.3354
  35   2.0000      -0.701143       -19.0791
  36   2.0000      -0.697441       -18.9783
  37   2.0000      -0.657482       -17.8910
  38   2.0000      -0.636775       -17.3275
  39   2.0000      -0.616572       -16.7778
  40   2.0000      -0.597250       -16.2520
  41   2.0000      -0.574104       -15.6222
  42   2.0000      -0.560425       -15.2500
  43   2.0000      -0.554315       -15.0837
  44   2.0000      -0.535120       -14.5614
  45   2.0000      -0.533152       -14.5078
  46   2.0000      -0.519446       -14.1348
  47   2.0000      -0.508252       -13.8302
  48   2.0000      -0.504052       -13.7160
  49   2.0000      -0.500833       -13.6284
  50   2.0000      -0.498949       -13.5771
  51   2.0000      -0.474203       -12.9037
  52   2.0000      -0.473785       -12.8923
  53   2.0000      -0.465235       -12.6597
  54   2.0000      -0.456994       -12.4354
  55   2.0000      -0.449602       -12.2343
  56   2.0000      -0.444042       -12.0830
  57   2.0000      -0.440823       -11.9954
  58   2.0000      -0.439716       -11.9653
  59   2.0000      -0.429527       -11.6880
  60   2.0000      -0.419705       -11.4208
  61   2.0000      -0.415735       -11.3127
  62   2.0000      -0.405357       -11.0303
  63   2.0000      -0.352785        -9.5998
  64   2.0000      -0.333632        -9.0786
  65   2.0000      -0.321685        -8.7535
  66   2.0000      -0.288555        -7.8520
  67   0.0000       0.026533         0.7220
  68   0.0000       0.070590         1.9209
  69   0.0000       0.111359         3.0302
  70   0.0000       0.126385         3.4391
  71   0.0000       0.132277         3.5995

MULLIKEN ATOMIC CHARGES
-----------------------
   0 S :    0.098982
   1 C :   -0.102564
   2 C :   -0.132130
   3 C :    0.010929
   4 C :   -0.121718
   5 H :    0.011792
   6 C :    0.108852
   7 H :   -0.001185
   8 H :    0.006399
   9 C :   -0.093455
  10 H :    0.035452
  11 H :    0.031039
  12 C :   -0.011134
  13 H :    0.027071
  14 H :    0.028932
  15 H :    0.028745
  16 S :    0.109022
  17 C :   -0.090080
  18 C :   -0.034717
  19 C :   -0.023419
  20 C :   -0.174056
  21 H :   -0.007985
  22 C :    0.063365
  23 H :    0.035875
  24 H :    0.042454
  25 C :   -0.098251
  26 H :    0.048582
  27 H :    0.026471
  28 C :   -0.042111
  29 H :    0.030169
  30 H :    0.037499
  31 H :    0.033083
  32 H :    0.055450
  33 H :    0.062643
Sum of atomic charges:    0.0000000

LOEWDIN ATOMIC CHARGES
----------------------
   0 S :    0.389947
   1 C :   -0.216871
   2 C :   -0.056146
   3 C :   -0.059442
   4 C :   -0.180970
   5 H :    0.025133
   6 C :   -0.027880
   7 H :    0.025452
   8 H :    0.017359
   9 C :   -0.027814
  10 H :    0.027321
  11 H :    0.019046
  12 C :   -0.049999
  13 H :    0.020641
  14 H :    0.020229
  15 H :    0.022934
  16 S :    0.386524
  17 C :   -0.183758
  18 C :   -0.071497
  19 C :   -0.049280
  20 C :   -0.187256
  21 H :    0.020265
  22 C :   -0.029733
  23 H :    0.028538
  24 H :    0.039421
  25 C :   -0.038677
  26 H :    0.035713
  27 H :    0.015303
  28 C :   -0.066493
  29 H :    0.018882
  30 H :    0.035474
  31 H :    0.022453
  32 H :    0.034286
  33 H :    0.040894

  Mayer bond orders larger than 0.100000
B(  0-S ,  1-C ) :   1.1182 B(  0-S ,  4-C ) :   1.1249 B(  1-C ,  2-C ) :   1.6546
B(  1-C , 32-H ) :   0.9555 B(  2-C ,  3-C ) :   1.2154 B(  2-C ,  6-C ) :   1.0204
B(  3-C ,  4-C ) :   1.5756 B(  3-C ,  5-H ) :   0.9941 B(  4-C , 20-C ) :   1.0871
B(  6-C ,  7-H ) :   0.9370 B(  6-C ,  8-H ) :   0.9374 B(  6-C ,  9-C ) :   1.0645
B(  9-C , 10-H ) :   0.9572 B(  9-C , 11-H ) :   0.9610 B(  9-C , 12-C ) :   1.0734
B( 12-C , 13-H ) :   0.9770 B( 12-C , 14-H ) :   0.9781 B( 12-C , 15-H ) :   0.9792
B( 16-S , 17-C ) :   1.1368 B( 16-S , 20-C ) :   1.1211 B( 17-C , 18-C ) :   1.6464
B( 17-C , 33-H ) :   0.9557 B( 18-C , 19-C ) :   1.2372 B( 18-C , 21-H ) :   0.9882
B( 19-C , 20-C ) :   1.6095 B( 19-C , 22-C ) :   1.0194 B( 22-C , 23-H ) :   0.9444
B( 22-C , 24-H ) :   0.9167 B( 22-C , 25-C ) :   1.0863 B( 25-C , 26-H ) :   0.9563
B( 25-C , 27-H ) :   0.9520 B( 25-C , 28-C ) :   1.0694 B( 28-C , 29-H ) :   0.9771
B( 28-C , 30-H ) :   0.9764 B( 28-C , 31-H ) :   0.9743

Dispersion correction           -0.013744991
FINAL SINGLE POINT ENERGY     -1339.862896819831

DIPOLE MOMENT
-------------
                                X             Y             Z
Electronic contribution:     19.96229      -2.82907     -18.87569
Nuclear contribution   :    -20.62991       2.83488      19.22834
                        -----------------------------------------
Total Dipole Moment    :     -0.66762       0.00580       0.35265
                        -----------------------------------------
Magnitude (a.u.)       :      0.75506
Magnitude (Debye)      :      1.91920

Rotational constants in cm-1:     0.018314     0.007863     0.006185
Rotational constants in MHz :   549.030139   235.733309   185.427127

                             ****ORCA TERMINATED NORMALLY****
TOTAL RUN TIME: 0 days 0 hours 0 minutes 31 seconds 456 msec
