                         Program Version 4.2.1 -  RELEASE  -
|  1> ! wB97X-D3 SP def2-SVP
|  2> %pal
|  3> nprocs 16
|  4> end
|  5>
|  6> * xyz 0 1
|  7> S 	 -7.86439 	 76.9489 	 47.9525
|  8> C 	 -9.06027 	 78.1686 	 48.1217
|  9> C 	 -10.3816 	 77.6858 	 47.953
| 10> C 	 -10.3706 	 76.3232 	 47.5219
| 11> C 	 -9.07606 	 75.7726 	 47.3958
| 12> H 	 -11.2423 	 75.686 	 47.3724
| 13> C 	 -11.6862 	 78.3968 	 48.2604
| 14> H 	 -11.6002 	 78.9892 	 49.1879
| 15> H 	 -12.4596 	 77.5934 	 48.4449
| 16> C 	 -12.2546 	 79.157 	 47.071
| 17> H 	 -11.6571 	 79.9159 	 46.5481
| 18> H 	 -12.346 	 78.2923 	 46.3169
| 19> C 	 -13.6332 	 79.6957 	 47.3116
| 20> H 	 -14.0984 	 79.9519 	 46.308
| 21> H 	 -14.3759 	 78.8896 	 47.5897
| 22> H 	 -13.6648 	 80.4332 	 48.1054
| 23> S 	 -8.65831 	 73.2927 	 48.3929
| 24> C 	 -8.87422 	 71.9164 	 47.3432
| 25> C 	 -9.24601 	 72.2117 	 46.0701
| 26> C 	 -9.29511 	 73.6247 	 45.8883
| 27> C 	 -8.87487 	 74.3591 	 47.0484
| 28> H 	 -9.47462 	 71.3372 	 45.4292
| 29> C 	 -9.83959 	 74.2776 	 44.6489
| 30> H 	 -9.39105 	 73.8417 	 43.782
| 31> H 	 -9.36591 	 75.3027 	 44.7155
| 32> C 	 -11.3725 	 74.3331 	 44.5418
| 33> H 	 -11.7161 	 74.3381 	 45.5629
| 34> H 	 -11.7212 	 73.39 	 44.0796
| 35> C 	 -11.9708 	 75.5655 	 43.8385
| 36> H 	 -11.9481 	 76.4646 	 44.4409
| 37> H 	 -12.937 	 75.2383 	 43.5327
| 38> H 	 -11.4165 	 75.8488 	 42.8251
| 39> H 	 -8.69479 	 79.1849 	 48.3392
| 40> H 	 -9.12592 	 70.9047 	 47.7059
| 41> *
| 42>
| 43>                          ****END OF INPUT****

CARTESIAN COORDINATES (ANGSTROEM)
---------------------------------
  S     -7.864390   76.948900   47.952500
  C     -9.060270   78.168600   48.121700
  C    -10.381600   77.685800   47.953000
  C    -10.370600   76.323200   47.521900
  C     -9.076060   75.772600   47.395800
  H    -11.242300   75.686000   47.372400
  C    -11.686200   78.396800   48.260400
  H    -11.600200   78.989200   49.187900
  H    -12.459600   77.593400   48.444900
  C    -12.254600   79.157000   47.071000
  H    -11.657100   79.915900   46.548100
  H    -12.346000   78.292300   46.316900
  C    -13.633200   79.695700   47.311600
  H    -14.098400   79.951900   46.308000
  H    -14.375900   78.889600   47.589700
  H    -13.664800   80.433200   48.105400
  S     -8.658310   73.292700   48.392900
  C     -8.874220   71.916400   47.343200
  C     -9.246010   72.211700   46.070100
  C     -9.295110   73.624700   45.888300
  C     -8.874870   74.359100   47.048400
  H     -9.474620   71.337200   45.429200
  C     -9.839590   74.277600   44.648900
  H     -9.391050   73.841700   43.782000
  H     -9.365910   75.302700   44.715500
  C    -11.372500   74.333100   44.541800
  H    -11.716100   74.338100   45.562900
  H    -11.721200   73.390000   44.079600
  C    -11.970800   75.565500   43.838500
  H    -11.948100   76.464600   44.440900
  H    -12.937000   75.238300   43.532700
  H    -11.416500   75.848800   42.825100
  H     -8.694790   79.184900   48.339200
  H     -9.125920   70.904700   47.705900

 Total Charge           Charge          ....    0
 Multiplicity           Mult            ....    1
 Number of Electrons    NEL             ....  134
 Basis Dimension        Dim             ....  322

ORBITAL ENERGIES
----------------

  NO   OCC          E(Eh)            E(eV)
   0   2.0000     -88.970677     -2421.0152
   1   2.0000     -88.965071     -2420.8627
   2   2.0000     -10.332469      -281.1608
   3   2.0000     -10.326236      -280.9912
   4   2.0000     -10.320424      -280.8330
   5   2.0000     -10.312085      -280.6061
   6   2.0000     -10.307185      -280.4728
   7   2.0000     -10.306995      -280.4676
   8   2.0000     -10.299783      -280.2713
   9   2.0000     -10.298878      -280.2467
  10   2.0000     -10.293394      -280.0975
  11   2.0000     -10.291998      -280.0595
  12   2.0000     -10.287772      -279.9445
  13   2.0000     -10.285442      -279.8811
  14   2.0000     -10.285320      -279.8778
  15   2.0000     -10.284634      -279.8591
  16   2.0000      -8.085261      -220.0111
  17   2.0000      -8.080327      -219.8769
  18   2.0000      -6.043642      -164.4559
  19   2.0000      -6.039659      -164.3475
  20   2.0000      -6.038675      -164.3207
  21   2.0000      -6.036315      -164.2565
  22   2.0000      -6.034835      -164.2162
  23   2.0000      -6.031142      -164.1157
  24   2.0000      -1.004261       -27.3273
  25   2.0000      -0.983058       -26.7504
  26   2.0000      -0.914872       -24.8949
  27   2.0000      -0.905895       -24.6506
  28   2.0000      -0.871051       -23.7025
  29   2.0000      -0.853240       -23.2178
  30   2.0000      -0.847921       -23.0731
  31   2.0000      -0.812836       -22.1184
  32   2.0000      -0.778649       -21.1881
  33   2.0000      -0.763692       -20.7811
  34   2.0000      -0.701114       -19.0783
  35   2.0000      -0.692811       -18.8523
  36   2.0000      -0.689967       -18.7749
  37   2.0000      -0.655105       -17.8263
  38   2.0000      -0.643854       -17.5201
  39   2.0000      -0.618259       -16.8237
  40   2.0000      -0.588823       -16.0227
  41   2.0000      -0.570471       -15.5233
  42   2.0000      -0.567518       -15.4430
  43   2.0000      -0.559909       -15.2359
  44   2.0000      -0.530093       -14.4246
  45   2.0000      -0.524122       -14.2621
  46   2.0000      -0.514623       -14.0036
  47   2.0000      -0.508143       -13.8273
  48   2.0000      -0.501134       -13.6365
  49   2.0000      -0.493327       -13.4241
  50   2.0000      -0.487656       -13.2698
  51   2.0000      -0.483262       -13.1502
  52   2.0000      -0.468808       -12.7569
  53   2.0000      -0.466728       -12.7003
  54   2.0000      -0.460381       -12.5276
  55   2.0000      -0.448810       -12.2127
  56   2.0000      -0.443411       -12.0658
  57   2.0000      -0.431775       -11.7492
  58   2.0000      -0.426327       -11.6010
  59   2.0000      -0.425026       -11.5656
  60   2.0000      -0.419306       -11.4099
  61   2.0000      -0.415827       -11.3152
  62   2.0000      -0.410197       -11.1620
  63   2.0000      -0.346130        -9.4187
  64   2.0000      -0.331745        -9.0273
  65   2.0000      -0.319659        -8.6984
  66   2.0000      -0.294963        -8.0263
  67   0.0000       0.034371         0.9353
  68   0.0000       0.052750         1.4354
  69   0.0000       0.109141         2.9699
  70   0.0000       0.120973         3.2919
  71   0.0000       0.121425         3.3041

MULLIKEN ATOMIC CHARGES
-----------------------
   0 S :    0.126059
   1 C :   -0.142384
   2 C :   -0.061764
   3 C :    0.029848
   4 C :   -0.183712
   5 H :    0.021226
   6 C :    0.053054
   7 H :    0.037228
   8 H :    0.028391
   9 C :   -0.109580
  10 H :    0.041899
  11 H :    0.032582
  12 C :   -0.050360
  13 H :    0.041987
  14 H :    0.022499
  15 H :    0.040244
  16 S :    0.112864
  17 C :   -0.095386
  18 C :   -0.051764
  19 C :   -0.075435
  20 C :   -0.150718
  21 H :    0.037316
  22 C :    0.066866
  23 H :    0.019114
  24 H :    0.037603
  25 C :   -0.055920
  26 H :    0.021152
  27 H :    0.030297
  28 C :   -0.067552
  29 H :    0.049075
  30 H :    0.030555
  31 H :    0.039574
  32 H :    0.063560
  33 H :    0.061581
Sum of atomic charges:   -0.0000000

LOEWDIN ATOMIC CHARGES
----------------------
   0 S :    0.420050
   1 C :   -0.207300
   2 C :   -0.065621
   3 C :   -0.054810
   4 C :   -0.207628
   5 H :    0.031892
   6 C :   -0.034456
   7 H :    0.028980
   8 H :    0.038671
   9 C :   -0.053758
  10 H :    0.025627
  11 H :    0.031763
  12 C :   -0.076496
  13 H :    0.037012
  14 H :    0.027539
  15 H :    0.022854
  16 S :    0.422422
  17 C :   -0.194923
  18 C :   -0.079773
  19 C :   -0.049113
  20 C :   -0.217086
  21 H :    0.044131
  22 C :   -0.040857
  23 H :    0.024853
  24 H :    0.039776
  25 C :   -0.039501
  26 H :    0.019521
  27 H :    0.026460
  28 C :   -0.065770
  29 H :    0.022676
  30 H :    0.022437
  31 H :    0.036328
  32 H :    0.030716
  33 H :    0.033384

  Mayer bond orders larger than 0.100000
B(  0-S ,  1-C ) :   1.1755 B(  0-S ,  4-C ) :   1.1573 B(  1-C ,  2-C ) :   1.5520
B(  1-C ,  4-C ) :   0.1036 B(  1-C , 32-H ) :   0.9703 B(  2-C ,  3-C ) :   1.2810
B(  2-C ,  6-C ) :   1.0208 B(  3-C ,  4-C ) :   1.5394 B(  3-C ,  5-H ) :   0.9851
B(  4-C , 20-C ) :   1.0230 B(  6-C ,  7-H ) :   0.9441 B(  6-C ,  8-H ) :   0.9432
B(  6-C ,  9-C ) :   1.0483 B(  9-C , 10-H ) :   0.9578 B(  9-C , 11-H ) :   0.9509
B(  9-C , 12-C ) :   1.0914 B( 12-C , 13-H ) :   0.9700 B( 12-C , 14-H ) :   0.9682
B( 12-C , 15-H ) :   0.9733 B( 16-S , 17-C ) :   1.1681 B( 16-S , 20-C ) :   1.1608
B( 17-C , 18-C ) :   1.6259 B( 17-C , 33-H ) :   0.9536 B( 18-C , 19-C ) :   1.2384
B( 18-C , 21-H ) :   0.9903 B( 19-C , 20-C ) :   1.5679 B( 19-C , 22-C ) :   1.0571
B( 22-C , 23-H ) :   0.9322 B( 22-C , 24-H ) :   0.9366 B( 22-C , 25-C ) :   1.0424
B( 25-C , 26-H ) :   0.9575 B( 25-C , 27-H ) :   0.9526 B( 25-C , 28-C ) :   1.0819
B( 28-C , 29-H ) :   0.9739 B( 28-C , 30-H ) :   0.9737 B( 28-C , 31-H ) :   0.9736

Dispersion correction           -0.015145774
FINAL SINGLE POINT ENERGY     -1339.862310489319

DIPOLE MOMENT
-------------
                                X             Y             Z
Electronic contribution:     25.76274     -12.43164      14.57119
Nuclear contribution   :    -26.50828      12.48484     -14.77480
                        -----------------------------------------
Total Dipole Moment    :     -0.74554       0.05320      -0.20361
                        -----------------------------------------
Magnitude (a.u.)       :      0.77467
Magnitude (Debye)      :      1.96905

Rotational constants in cm-1:     0.018117     0.009276     0.007042
Rotational constants in MHz :   543.134010   278.098518   211.104200

                             ****ORCA TERMINATED NORMALLY****
TOTAL RUN TIME: 0 days 0 hours 0 minutes 35 seconds 471 msec
