                         Program Version 4.2.1 -  RELEASE  -
|  1> ! wB97X-D3 SP def2-SVP
|  2> %pal
|  3> nprocs 16
|  4> end
|  5>
|  6> * xyz 0 1
|  7> S 	 55.6799 	 2.19849 	 82.6418
|  8> C 	 54.6513 	 3.14713 	 83.6059
|  9> C 	 53.8772 	 2.41856 	 84.5008
| 10> C 	 54.1589 	 0.990169 	 84.4089
| 11> C 	 55.1795 	 0.674813 	 83.4717
| 12> H 	 53.634 	 0.220848 	 84.9363
| 13> C 	 52.7597 	 2.81378 	 85.4179
| 14> H 	 53.0489 	 3.87304 	 85.6246
| 15> H 	 52.9531 	 2.17754 	 86.2769
| 16> C 	 51.4146 	 2.67241 	 84.8838
| 17> H 	 51.4914 	 2.90051 	 83.8355
| 18> H 	 51.1329 	 1.62065 	 84.8679
| 19> C 	 50.2376 	 3.44478 	 85.5179
| 20> H 	 50.2891 	 3.2376 	 86.5604
| 21> H 	 50.487 	 4.52157 	 85.4244
| 22> H 	 49.2793 	 3.18761 	 85.0941
| 23> S 	 55.975 	 -1.66464 	 84.6148
| 24> C 	 56.5462 	 -3.03385 	 83.6654
| 25> C 	 56.3615 	 -2.72311 	 82.2885
| 26> C 	 55.8979 	 -1.38819 	 82.0029
| 27> C 	 55.697 	 -0.703087 	 83.1651
| 28> H 	 56.4866 	 -3.40377 	 81.5051
| 29> C 	 55.5863 	 -0.839291 	 80.622
| 30> H 	 54.7708 	 -0.13087 	 80.6646
| 31> H 	 55.5012 	 -1.73028 	 79.9343
| 32> C 	 56.753 	 -0.0659816 	 79.9692
| 33> H 	 57.631 	 -0.70866 	 79.8239
| 34> H 	 56.9192 	 0.859857 	 80.562
| 35> C 	 56.5085 	 0.368813 	 78.5071
| 36> H 	 57.372 	 0.786079 	 78.1067
| 37> H 	 55.6725 	 1.1408 	 78.4937
| 38> H 	 56.1111 	 -0.392227 	 77.7576
| 39> H 	 54.6106 	 4.22486 	 83.6107
| 40> H 	 56.8195 	 -3.98706 	 84.0618
| 41> *
| 42>
| 43>                          ****END OF INPUT****

CARTESIAN COORDINATES (ANGSTROEM)
---------------------------------
  S     55.679900    2.198490   82.641800
  C     54.651300    3.147130   83.605900
  C     53.877200    2.418560   84.500800
  C     54.158900    0.990169   84.408900
  C     55.179500    0.674813   83.471700
  H     53.634000    0.220848   84.936300
  C     52.759700    2.813780   85.417900
  H     53.048900    3.873040   85.624600
  H     52.953100    2.177540   86.276900
  C     51.414600    2.672410   84.883800
  H     51.491400    2.900510   83.835500
  H     51.132900    1.620650   84.867900
  C     50.237600    3.444780   85.517900
  H     50.289100    3.237600   86.560400
  H     50.487000    4.521570   85.424400
  H     49.279300    3.187610   85.094100
  S     55.975000   -1.664640   84.614800
  C     56.546200   -3.033850   83.665400
  C     56.361500   -2.723110   82.288500
  C     55.897900   -1.388190   82.002900
  C     55.697000   -0.703087   83.165100
  H     56.486600   -3.403770   81.505100
  C     55.586300   -0.839291   80.622000
  H     54.770800   -0.130870   80.664600
  H     55.501200   -1.730280   79.934300
  C     56.753000   -0.065982   79.969200
  H     57.631000   -0.708660   79.823900
  H     56.919200    0.859857   80.562000
  C     56.508500    0.368813   78.507100
  H     57.372000    0.786079   78.106700
  H     55.672500    1.140800   78.493700
  H     56.111100   -0.392227   77.757600
  H     54.610600    4.224860   83.610700
  H     56.819500   -3.987060   84.061800

 Total Charge           Charge          ....    0
 Multiplicity           Mult            ....    1
 Number of Electrons    NEL             ....  134
 Basis Dimension        Dim             ....  322

ORBITAL ENERGIES
----------------

  NO   OCC          E(Eh)            E(eV)
   0   2.0000     -88.973072     -2421.0804
   1   2.0000     -88.967027     -2420.9159
   2   2.0000     -10.341429      -281.4046
   3   2.0000     -10.329728      -281.0862
   4   2.0000     -10.323424      -280.9147
   5   2.0000     -10.315730      -280.7053
   6   2.0000     -10.302470      -280.3444
   7   2.0000     -10.302442      -280.3437
   8   2.0000     -10.298524      -280.2371
   9   2.0000     -10.298061      -280.2245
  10   2.0000     -10.297744      -280.2159
  11   2.0000     -10.289897      -280.0023
  12   2.0000     -10.288638      -279.9681
  13   2.0000     -10.279961      -279.7320
  14   2.0000     -10.279212      -279.7116
  15   2.0000     -10.278745      -279.6989
  16   2.0000      -8.086921      -220.0563
  17   2.0000      -8.081192      -219.9004
  18   2.0000      -6.045539      -164.5075
  19   2.0000      -6.041455      -164.3964
  20   2.0000      -6.039797      -164.3512
  21   2.0000      -6.037747      -164.2955
  22   2.0000      -6.035744      -164.2409
  23   2.0000      -6.031919      -164.1369
  24   2.0000      -1.001213       -27.2444
  25   2.0000      -0.982403       -26.7325
  26   2.0000      -0.921938       -25.0872
  27   2.0000      -0.907451       -24.6930
  28   2.0000      -0.864825       -23.5331
  29   2.0000      -0.853488       -23.2246
  30   2.0000      -0.849424       -23.1140
  31   2.0000      -0.809043       -22.0152
  32   2.0000      -0.782928       -21.3045
  33   2.0000      -0.774543       -21.0764
  34   2.0000      -0.703783       -19.1509
  35   2.0000      -0.697843       -18.9893
  36   2.0000      -0.686446       -18.6791
  37   2.0000      -0.673813       -18.3354
  38   2.0000      -0.642827       -17.4922
  39   2.0000      -0.611965       -16.6524
  40   2.0000      -0.596454       -16.2303
  41   2.0000      -0.578678       -15.7466
  42   2.0000      -0.572026       -15.5656
  43   2.0000      -0.561247       -15.2723
  44   2.0000      -0.531311       -14.4577
  45   2.0000      -0.525243       -14.2926
  46   2.0000      -0.515277       -14.0214
  47   2.0000      -0.511700       -13.9241
  48   2.0000      -0.509397       -13.8614
  49   2.0000      -0.501637       -13.6502
  50   2.0000      -0.492695       -13.4069
  51   2.0000      -0.477290       -12.9877
  52   2.0000      -0.471438       -12.8285
  53   2.0000      -0.467534       -12.7223
  54   2.0000      -0.461939       -12.5700
  55   2.0000      -0.454480       -12.3670
  56   2.0000      -0.449016       -12.2183
  57   2.0000      -0.438062       -11.9203
  58   2.0000      -0.429097       -11.6763
  59   2.0000      -0.419871       -11.4253
  60   2.0000      -0.412741       -11.2312
  61   2.0000      -0.411182       -11.1888
  62   2.0000      -0.410651       -11.1744
  63   2.0000      -0.351588        -9.5672
  64   2.0000      -0.330954        -9.0057
  65   2.0000      -0.328640        -8.9428
  66   2.0000      -0.290488        -7.9046
  67   0.0000       0.026968         0.7338
  68   0.0000       0.068829         1.8729
  69   0.0000       0.097730         2.6594
  70   0.0000       0.114798         3.1238
  71   0.0000       0.132450         3.6041

MULLIKEN ATOMIC CHARGES
-----------------------
   0 S :    0.102826
   1 C :   -0.096427
   2 C :   -0.131113
   3 C :    0.011324
   4 C :   -0.137664
   5 H :    0.015188
   6 C :    0.085372
   7 H :    0.017353
   8 H :    0.029313
   9 C :   -0.064689
  10 H :    0.019172
  11 H :    0.017252
  12 C :   -0.015471
  13 H :    0.021723
  14 H :    0.030625
  15 H :    0.044005
  16 S :    0.103241
  17 C :   -0.082391
  18 C :   -0.013863
  19 C :   -0.021742
  20 C :   -0.167214
  21 H :   -0.006071
  22 C :    0.073200
  23 H :    0.032776
  24 H :    0.024448
  25 C :   -0.094793
  26 H :    0.032727
  27 H :    0.042156
  28 C :   -0.063280
  29 H :    0.030354
  30 H :    0.026194
  31 H :    0.035250
  32 H :    0.044233
  33 H :    0.055986
Sum of atomic charges:    0.0000000

LOEWDIN ATOMIC CHARGES
----------------------
   0 S :    0.415907
   1 C :   -0.215240
   2 C :   -0.060861
   3 C :   -0.061536
   4 C :   -0.181171
   5 H :    0.024893
   6 C :   -0.036036
   7 H :    0.033274
   8 H :    0.033023
   9 C :   -0.049104
  10 H :    0.022836
  11 H :    0.024131
  12 C :   -0.054942
  13 H :    0.020900
  14 H :    0.027802
  15 H :    0.028344
  16 S :    0.406682
  17 C :   -0.183239
  18 C :   -0.055836
  19 C :   -0.062657
  20 C :   -0.187811
  21 H :    0.017735
  22 C :   -0.029360
  23 H :    0.029228
  24 H :    0.038562
  25 C :   -0.042822
  26 H :    0.025197
  27 H :    0.017420
  28 C :   -0.072662
  29 H :    0.016398
  30 H :    0.026126
  31 H :    0.029449
  32 H :    0.029034
  33 H :    0.026338

  Mayer bond orders larger than 0.100000
B(  0-S ,  1-C ) :   1.1421 B(  0-S ,  4-C ) :   1.1390 B(  1-C ,  2-C ) :   1.6144
B(  1-C , 32-H ) :   0.9615 B(  2-C ,  3-C ) :   1.2432 B(  2-C ,  6-C ) :   1.0236
B(  3-C ,  4-C ) :   1.5644 B(  3-C ,  5-H ) :   0.9871 B(  4-C , 20-C ) :   1.0225
B(  6-C ,  7-H ) :   0.9316 B(  6-C ,  8-H ) :   0.9273 B(  6-C ,  9-C ) :   1.0783
B(  9-C , 10-H ) :   0.9521 B(  9-C , 11-H ) :   0.9432 B(  9-C , 12-C ) :   1.0837
B( 12-C , 13-H ) :   0.9744 B( 12-C , 14-H ) :   0.9762 B( 12-C , 15-H ) :   0.9743
B( 16-S , 17-C ) :   1.1476 B( 16-S , 20-C ) :   1.1487 B( 17-C , 18-C ) :   1.5808
B( 17-C , 33-H ) :   0.9758 B( 18-C , 19-C ) :   1.2540 B( 18-C , 21-H ) :   0.9895
B( 19-C , 20-C ) :   1.5904 B( 19-C , 22-C ) :   1.0536 B( 22-C , 23-H ) :   0.9310
B( 22-C , 24-H ) :   0.9277 B( 22-C , 25-C ) :   1.0757 B( 25-C , 26-H ) :   0.9587
B( 25-C , 27-H ) :   0.9465 B( 25-C , 28-C ) :   1.0795 B( 28-C , 29-H ) :   0.9761
B( 28-C , 30-H ) :   0.9731 B( 28-C , 31-H ) :   0.9735

Dispersion correction           -0.013945229
FINAL SINGLE POINT ENERGY     -1339.868480479467

DIPOLE MOMENT
-------------
                                X             Y             Z
Electronic contribution:     13.44775      -8.59034       8.59956
Nuclear contribution   :    -13.82942       8.57113      -8.73645
                        -----------------------------------------
Total Dipole Moment    :     -0.38167      -0.01921      -0.13688
                        -----------------------------------------
Magnitude (a.u.)       :      0.40592
Magnitude (Debye)      :      1.03178

Rotational constants in cm-1:     0.019099     0.007959     0.006337
Rotational constants in MHz :   572.570033   238.612345   189.984641

                             ****ORCA TERMINATED NORMALLY****
TOTAL RUN TIME: 0 days 0 hours 0 minutes 28 seconds 888 msec
