                         Program Version 4.2.1 -  RELEASE  -
|  1> ! wB97X-D3 SP def2-SVP
|  2> %pal
|  3> nprocs 16
|  4> end
|  5>
|  6> * xyz 0 1
|  7> S 	 5.26243 	 19.5518 	 38.8211
|  8> C 	 6.2599 	 18.7446 	 37.6952
|  9> C 	 7.14832 	 19.633 	 37.0799
| 10> C 	 6.96364 	 20.9864 	 37.5667
| 11> C 	 5.89617 	 21.1109 	 38.4081
| 12> H 	 7.57529 	 21.7534 	 37.2552
| 13> C 	 8.25581 	 19.1735 	 36.0504
| 14> H 	 8.66239 	 20.0677 	 35.5995
| 15> H 	 7.80552 	 18.7326 	 35.124
| 16> C 	 9.41886 	 18.4216 	 36.668
| 17> H 	 10.0917 	 19.1599 	 37.0694
| 18> H 	 9.07489 	 17.7986 	 37.5477
| 19> C 	 10.1748 	 17.5451 	 35.6542
| 20> H 	 11.0855 	 17.3252 	 36.1761
| 21> H 	 9.56923 	 16.6656 	 35.4598
| 22> H 	 10.3017 	 17.9437 	 34.6509
| 23> S 	 5.28748 	 22.3788 	 40.8063
| 24> C 	 4.99008 	 24.1249 	 40.8107
| 25> C 	 5.0918 	 24.6726 	 39.5579
| 26> C 	 5.33003 	 23.6498 	 38.5462
| 27> C 	 5.5144 	 22.3528 	 39.0476
| 28> H 	 4.89709 	 25.7312 	 39.4608
| 29> C 	 5.21879 	 23.9471 	 37.0863
| 30> H 	 4.2192 	 24.3756 	 36.907
| 31> H 	 5.22384 	 22.977 	 36.5782
| 32> C 	 6.11784 	 24.9072 	 36.4514
| 33> H 	 7.1024 	 24.5111 	 36.4223
| 34> H 	 6.21459 	 25.8982 	 36.9203
| 35> C 	 5.65355 	 25.1781 	 34.9931
| 36> H 	 4.77898 	 25.8627 	 34.9884
| 37> H 	 5.44124 	 24.1991 	 34.5079
| 38> H 	 6.42067 	 25.7398 	 34.4192
| 39> H 	 6.37635 	 17.7062 	 37.4072
| 40> H 	 4.68129 	 24.745 	 41.6236
| 41> *
| 42>
| 43>                          ****END OF INPUT****

CARTESIAN COORDINATES (ANGSTROEM)
---------------------------------
  S      5.262430   19.551800   38.821100
  C      6.259900   18.744600   37.695200
  C      7.148320   19.633000   37.079900
  C      6.963640   20.986400   37.566700
  C      5.896170   21.110900   38.408100
  H      7.575290   21.753400   37.255200
  C      8.255810   19.173500   36.050400
  H      8.662390   20.067700   35.599500
  H      7.805520   18.732600   35.124000
  C      9.418860   18.421600   36.668000
  H     10.091700   19.159900   37.069400
  H      9.074890   17.798600   37.547700
  C     10.174800   17.545100   35.654200
  H     11.085500   17.325200   36.176100
  H      9.569230   16.665600   35.459800
  H     10.301700   17.943700   34.650900
  S      5.287480   22.378800   40.806300
  C      4.990080   24.124900   40.810700
  C      5.091800   24.672600   39.557900
  C      5.330030   23.649800   38.546200
  C      5.514400   22.352800   39.047600
  H      4.897090   25.731200   39.460800
  C      5.218790   23.947100   37.086300
  H      4.219200   24.375600   36.907000
  H      5.223840   22.977000   36.578200
  C      6.117840   24.907200   36.451400
  H      7.102400   24.511100   36.422300
  H      6.214590   25.898200   36.920300
  C      5.653550   25.178100   34.993100
  H      4.778980   25.862700   34.988400
  H      5.441240   24.199100   34.507900
  H      6.420670   25.739800   34.419200
  H      6.376350   17.706200   37.407200
  H      4.681290   24.745000   41.623600

 Total Charge           Charge          ....    0
 Multiplicity           Mult            ....    1
 Number of Electrons    NEL             ....  134
 Basis Dimension        Dim             ....  322

ORBITAL ENERGIES
----------------

  NO   OCC          E(Eh)            E(eV)
   0   2.0000     -88.971478     -2421.0370
   1   2.0000     -88.963177     -2420.8111
   2   2.0000     -10.329587      -281.0823
   3   2.0000     -10.328387      -281.0497
   4   2.0000     -10.316811      -280.7347
   5   2.0000     -10.313240      -280.6375
   6   2.0000     -10.305764      -280.4341
   7   2.0000     -10.304264      -280.3933
   8   2.0000     -10.296517      -280.1825
   9   2.0000     -10.295223      -280.1473
  10   2.0000     -10.290785      -280.0265
  11   2.0000     -10.288528      -279.9651
  12   2.0000     -10.284246      -279.8485
  13   2.0000     -10.282609      -279.8040
  14   2.0000     -10.279572      -279.7214
  15   2.0000     -10.277501      -279.6650
  16   2.0000      -8.086721      -220.0509
  17   2.0000      -8.077351      -219.7959
  18   2.0000      -6.045252      -164.4997
  19   2.0000      -6.041074      -164.3860
  20   2.0000      -6.037505      -164.2889
  21   2.0000      -6.036056      -164.2494
  22   2.0000      -6.031976      -164.1384
  23   2.0000      -6.027901      -164.0275
  24   2.0000      -1.009430       -27.4680
  25   2.0000      -0.981811       -26.7164
  26   2.0000      -0.917205       -24.9584
  27   2.0000      -0.909723       -24.7548
  28   2.0000      -0.874125       -23.7862
  29   2.0000      -0.852583       -23.2000
  30   2.0000      -0.843182       -22.9442
  31   2.0000      -0.818453       -22.2712
  32   2.0000      -0.781849       -21.2752
  33   2.0000      -0.767694       -20.8900
  34   2.0000      -0.707423       -19.2500
  35   2.0000      -0.699079       -19.0229
  36   2.0000      -0.695345       -18.9213
  37   2.0000      -0.661130       -17.9903
  38   2.0000      -0.640228       -17.4215
  39   2.0000      -0.623913       -16.9775
  40   2.0000      -0.596729       -16.2378
  41   2.0000      -0.576023       -15.6744
  42   2.0000      -0.571220       -15.5437
  43   2.0000      -0.557479       -15.1698
  44   2.0000      -0.535057       -14.5596
  45   2.0000      -0.526728       -14.3330
  46   2.0000      -0.516100       -14.0438
  47   2.0000      -0.512928       -13.9575
  48   2.0000      -0.506937       -13.7944
  49   2.0000      -0.500659       -13.6236
  50   2.0000      -0.492967       -13.4143
  51   2.0000      -0.473300       -12.8792
  52   2.0000      -0.468492       -12.7483
  53   2.0000      -0.463817       -12.6211
  54   2.0000      -0.458157       -12.4671
  55   2.0000      -0.453116       -12.3299
  56   2.0000      -0.449055       -12.2194
  57   2.0000      -0.444220       -12.0878
  58   2.0000      -0.435309       -11.8454
  59   2.0000      -0.418485       -11.3876
  60   2.0000      -0.417489       -11.3605
  61   2.0000      -0.414174       -11.2702
  62   2.0000      -0.407858       -11.0984
  63   2.0000      -0.353490        -9.6190
  64   2.0000      -0.332019        -9.0347
  65   2.0000      -0.326229        -8.8771
  66   2.0000      -0.291356        -7.9282
  67   0.0000       0.028924         0.7871
  68   0.0000       0.075022         2.0414
  69   0.0000       0.112160         3.0520
  70   0.0000       0.121193         3.2978
  71   0.0000       0.128859         3.5064

MULLIKEN ATOMIC CHARGES
-----------------------
   0 S :    0.135178
   1 C :   -0.092113
   2 C :   -0.139010
   3 C :    0.064654
   4 C :   -0.145975
   5 H :   -0.021281
   6 C :    0.049831
   7 H :    0.006770
   8 H :    0.038758
   9 C :   -0.087316
  10 H :    0.027904
  11 H :    0.042997
  12 C :   -0.031169
  13 H :    0.038247
  14 H :    0.027902
  15 H :    0.030816
  16 S :    0.090562
  17 C :   -0.081289
  18 C :   -0.028520
  19 C :   -0.021999
  20 C :   -0.130925
  21 H :    0.022614
  22 C :    0.035164
  23 H :    0.024576
  24 H :    0.027980
  25 C :   -0.047614
  26 H :    0.011444
  27 H :    0.027423
  28 C :   -0.083885
  29 H :    0.038485
  30 H :    0.040339
  31 H :    0.036279
  32 H :    0.044924
  33 H :    0.048252
Sum of atomic charges:    0.0000000

LOEWDIN ATOMIC CHARGES
----------------------
   0 S :    0.437980
   1 C :   -0.214694
   2 C :   -0.059975
   3 C :   -0.047831
   4 C :   -0.206093
   5 H :    0.017968
   6 C :   -0.041417
   7 H :    0.026615
   8 H :    0.033931
   9 C :   -0.044163
  10 H :    0.022343
  11 H :    0.029928
  12 C :   -0.061571
  13 H :    0.027720
  14 H :    0.024983
  15 H :    0.024425
  16 S :    0.377912
  17 C :   -0.171491
  18 C :   -0.069978
  19 C :   -0.051255
  20 C :   -0.189486
  21 H :    0.033997
  22 C :   -0.043293
  23 H :    0.035376
  24 H :    0.033031
  25 C :   -0.042531
  26 H :    0.015161
  27 H :    0.025313
  28 C :   -0.067060
  29 H :    0.026284
  30 H :    0.027947
  31 H :    0.027205
  32 H :    0.034632
  33 H :    0.028085

  Mayer bond orders larger than 0.100000
B(  0-S ,  1-C ) :   1.1495 B(  0-S ,  4-C ) :   1.1511 B(  1-C ,  2-C ) :   1.6049
B(  1-C , 32-H ) :   0.9650 B(  2-C ,  3-C ) :   1.2706 B(  2-C ,  6-C ) :   1.0113
B(  3-C ,  4-C ) :   1.5333 B(  3-C ,  5-H ) :   1.0097 B(  4-C , 20-C ) :   1.0569
B(  6-C ,  7-H ) :   0.9362 B(  6-C ,  8-H ) :   0.9534 B(  6-C ,  9-C ) :   1.0446
B(  9-C , 10-H ) :   0.9580 B(  9-C , 11-H ) :   0.9650 B(  9-C , 12-C ) :   1.0694
B( 12-C , 13-H ) :   0.9746 B( 12-C , 14-H ) :   0.9773 B( 12-C , 15-H ) :   0.9761
B( 16-S , 17-C ) :   1.1385 B( 16-S , 20-C ) :   1.1104 B( 17-C , 18-C ) :   1.6546
B( 17-C , 33-H ) :   0.9653 B( 18-C , 19-C ) :   1.1989 B( 18-C , 21-H ) :   0.9904
B( 19-C , 20-C ) :   1.6103 B( 19-C , 22-C ) :   1.0556 B( 22-C , 23-H ) :   0.9338
B( 22-C , 24-H ) :   0.9261 B( 22-C , 25-C ) :   1.0726 B( 25-C , 26-H ) :   0.9472
B( 25-C , 27-H ) :   0.9514 B( 25-C , 28-C ) :   1.0816 B( 28-C , 29-H ) :   0.9754
B( 28-C , 30-H ) :   0.9739 B( 28-C , 31-H ) :   0.9743

Dispersion correction           -0.013555090
FINAL SINGLE POINT ENERGY     -1339.874632991087

DIPOLE MOMENT
-------------
                                X             Y             Z
Electronic contribution:    -15.06666      -2.94247      24.75519
Nuclear contribution   :     15.41468       3.20156     -25.29618
                        -----------------------------------------
Total Dipole Moment    :      0.34803       0.25910      -0.54098
                        -----------------------------------------
Magnitude (a.u.)       :      0.69348
Magnitude (Debye)      :      1.76269

Rotational constants in cm-1:     0.018062     0.007964     0.006108
Rotational constants in MHz :   541.472145   238.753253   183.110938

                             ****ORCA TERMINATED NORMALLY****
TOTAL RUN TIME: 0 days 0 hours 0 minutes 33 seconds 935 msec
