                         Program Version 4.2.1 -  RELEASE  -
|  1> ! wB97X-D3 SP def2-SVP
|  2> %pal
|  3> nprocs 16
|  4> end
|  5>
|  6> * xyz 0 1
|  7> S 	 -95.0609 	 52.0281 	 120.575
|  8> C 	 -94.0427 	 52.8527 	 119.375
|  9> C 	 -94.7998 	 53.1904 	 118.233
| 10> C 	 -96.1465 	 52.7124 	 118.384
| 11> C 	 -96.4362 	 52.11 	 119.577
| 12> H 	 -96.9898 	 52.9739 	 117.716
| 13> C 	 -94.2855 	 54.0078 	 117.033
| 14> H 	 -93.3668 	 53.482 	 116.624
| 15> H 	 -93.917 	 54.9308 	 117.444
| 16> C 	 -95.1604 	 54.3556 	 115.841
| 17> H 	 -95.6781 	 53.4165 	 115.481
| 18> H 	 -95.9608 	 55.0907 	 116.184
| 19> C 	 -94.3367 	 54.9379 	 114.668
| 20> H 	 -95.1218 	 55.3377 	 114.045
| 21> H 	 -93.7108 	 55.7939 	 114.87
| 22> H 	 -93.744 	 54.2173 	 114.047
| 23> S 	 -98.3192 	 53.0465 	 121.259
| 24> C 	 -99.8666 	 52.2749 	 121.575
| 25> C 	 -99.9132 	 51.208 	 120.692
| 26> C 	 -98.7431 	 50.9799 	 119.935
| 27> C 	 -97.7261 	 51.8553 	 120.152
| 28> H 	 -100.859 	 50.5754 	 120.63
| 29> C 	 -98.6882 	 49.791 	 119.01
| 30> H 	 -97.9265 	 50.036 	 118.292
| 31> H 	 -99.6288 	 49.845 	 118.485
| 32> C 	 -98.4893 	 48.4034 	 119.667
| 33> H 	 -98.4972 	 47.5851 	 118.808
| 34> H 	 -99.3869 	 48.0967 	 120.272
| 35> C 	 -97.2051 	 48.388 	 120.595
| 36> H 	 -96.9951 	 47.3903 	 120.972
| 37> H 	 -97.3873 	 49.015 	 121.525
| 38> H 	 -96.3414 	 48.7865 	 119.949
| 39> H 	 -92.9694 	 53.0538 	 119.478
| 40> H 	 -100.727 	 52.6062 	 122.155
| 41> *
| 42>
| 43>                          ****END OF INPUT****

CARTESIAN COORDINATES (ANGSTROEM)
---------------------------------
  S    -95.060900   52.028100  120.575000
  C    -94.042700   52.852700  119.375000
  C    -94.799800   53.190400  118.233000
  C    -96.146500   52.712400  118.384000
  C    -96.436200   52.110000  119.577000
  H    -96.989800   52.973900  117.716000
  C    -94.285500   54.007800  117.033000
  H    -93.366800   53.482000  116.624000
  H    -93.917000   54.930800  117.444000
  C    -95.160400   54.355600  115.841000
  H    -95.678100   53.416500  115.481000
  H    -95.960800   55.090700  116.184000
  C    -94.336700   54.937900  114.668000
  H    -95.121800   55.337700  114.045000
  H    -93.710800   55.793900  114.870000
  H    -93.744000   54.217300  114.047000
  S    -98.319200   53.046500  121.259000
  C    -99.866600   52.274900  121.575000
  C    -99.913200   51.208000  120.692000
  C    -98.743100   50.979900  119.935000
  C    -97.726100   51.855300  120.152000
  H    -100.859000   50.575400  120.630000
  C    -98.688200   49.791000  119.010000
  H    -97.926500   50.036000  118.292000
  H    -99.628800   49.845000  118.485000
  C    -98.489300   48.403400  119.667000
  H    -98.497200   47.585100  118.808000
  H    -99.386900   48.096700  120.272000
  C    -97.205100   48.388000  120.595000
  H    -96.995100   47.390300  120.972000
  H    -97.387300   49.015000  121.525000
  H    -96.341400   48.786500  119.949000
  H    -92.969400   53.053800  119.478000
  H    -100.727000   52.606200  122.155000

 Total Charge           Charge          ....    0
 Multiplicity           Mult            ....    1
 Number of Electrons    NEL             ....  134
 Basis Dimension        Dim             ....  322

ORBITAL ENERGIES
----------------

  NO   OCC          E(Eh)            E(eV)
   0   2.0000     -88.968108     -2420.9453
   1   2.0000     -88.959255     -2420.7044
   2   2.0000     -10.324141      -280.9342
   3   2.0000     -10.320480      -280.8345
   4   2.0000     -10.320441      -280.8335
   5   2.0000     -10.319235      -280.8007
   6   2.0000     -10.309851      -280.5453
   7   2.0000     -10.301905      -280.3291
   8   2.0000     -10.300655      -280.2951
   9   2.0000     -10.296761      -280.1891
  10   2.0000     -10.296431      -280.1801
  11   2.0000     -10.294388      -280.1246
  12   2.0000     -10.294043      -280.1152
  13   2.0000     -10.285262      -279.8762
  14   2.0000     -10.284436      -279.8537
  15   2.0000     -10.283689      -279.8334
  16   2.0000      -8.083030      -219.9504
  17   2.0000      -8.074375      -219.7149
  18   2.0000      -6.041489      -164.3973
  19   2.0000      -6.037329      -164.2841
  20   2.0000      -6.033988      -164.1932
  21   2.0000      -6.032958      -164.1651
  22   2.0000      -6.028624      -164.0472
  23   2.0000      -6.025169      -163.9532
  24   2.0000      -1.014315       -27.6009
  25   2.0000      -0.986742       -26.8506
  26   2.0000      -0.911762       -24.8103
  27   2.0000      -0.900040       -24.4913
  28   2.0000      -0.873302       -23.7638
  29   2.0000      -0.846645       -23.0384
  30   2.0000      -0.834100       -22.6970
  31   2.0000      -0.814695       -22.1690
  32   2.0000      -0.782392       -21.2900
  33   2.0000      -0.769706       -20.9448
  34   2.0000      -0.710550       -19.3350
  35   2.0000      -0.689727       -18.7684
  36   2.0000      -0.688594       -18.7376
  37   2.0000      -0.656942       -17.8763
  38   2.0000      -0.643682       -17.5155
  39   2.0000      -0.616278       -16.7698
  40   2.0000      -0.587258       -15.9801
  41   2.0000      -0.570500       -15.5241
  42   2.0000      -0.567156       -15.4331
  43   2.0000      -0.548262       -14.9190
  44   2.0000      -0.531380       -14.4596
  45   2.0000      -0.522111       -14.2074
  46   2.0000      -0.516979       -14.0677
  47   2.0000      -0.508733       -13.8433
  48   2.0000      -0.503597       -13.7036
  49   2.0000      -0.496521       -13.5110
  50   2.0000      -0.486230       -13.2310
  51   2.0000      -0.482049       -13.1172
  52   2.0000      -0.472566       -12.8592
  53   2.0000      -0.458120       -12.4661
  54   2.0000      -0.457229       -12.4418
  55   2.0000      -0.449172       -12.2226
  56   2.0000      -0.437411       -11.9026
  57   2.0000      -0.431641       -11.7455
  58   2.0000      -0.427870       -11.6429
  59   2.0000      -0.427079       -11.6214
  60   2.0000      -0.419815       -11.4238
  61   2.0000      -0.412043       -11.2123
  62   2.0000      -0.402052       -10.9404
  63   2.0000      -0.341165        -9.2836
  64   2.0000      -0.328920        -8.9504
  65   2.0000      -0.322741        -8.7822
  66   2.0000      -0.305426        -8.3111
  67   0.0000       0.038478         1.0470
  68   0.0000       0.058620         1.5951
  69   0.0000       0.121444         3.3047
  70   0.0000       0.124468         3.3869
  71   0.0000       0.126214         3.4345

MULLIKEN ATOMIC CHARGES
-----------------------
   0 S :    0.128264
   1 C :   -0.140737
   2 C :   -0.075027
   3 C :    0.032712
   4 C :   -0.180977
   5 H :    0.025853
   6 C :    0.040342
   7 H :    0.040928
   8 H :    0.031520
   9 C :   -0.119867
  10 H :    0.045188
  11 H :    0.048802
  12 C :   -0.047498
  13 H :    0.028803
  14 H :    0.031252
  15 H :    0.048682
  16 S :    0.100259
  17 C :   -0.090481
  18 C :   -0.074910
  19 C :   -0.057868
  20 C :   -0.151495
  21 H :    0.038599
  22 C :    0.104774
  23 H :    0.018320
  24 H :    0.018254
  25 C :   -0.107523
  26 H :    0.046570
  27 H :    0.033064
  28 C :   -0.086833
  29 H :    0.036855
  30 H :    0.060230
  31 H :    0.052275
  32 H :    0.055924
  33 H :    0.065746
Sum of atomic charges:    0.0000000

LOEWDIN ATOMIC CHARGES
----------------------
   0 S :    0.433045
   1 C :   -0.196905
   2 C :   -0.059053
   3 C :   -0.067736
   4 C :   -0.221561
   5 H :    0.036923
   6 C :   -0.044505
   7 H :    0.039500
   8 H :    0.030958
   9 C :   -0.048912
  10 H :    0.031324
  11 H :    0.032356
  12 C :   -0.069004
  13 H :    0.029653
  14 H :    0.023532
  15 H :    0.032792
  16 S :    0.414684
  17 C :   -0.189633
  18 C :   -0.083980
  19 C :   -0.069317
  20 C :   -0.210432
  21 H :    0.039352
  22 C :   -0.033430
  23 H :    0.026106
  24 H :    0.030357
  25 C :   -0.050122
  26 H :    0.033675
  27 H :    0.023073
  28 C :   -0.076925
  29 H :    0.022316
  30 H :    0.036445
  31 H :    0.034489
  32 H :    0.032032
  33 H :    0.038904

  Mayer bond orders larger than 0.100000
B(  0-S ,  1-C ) :   1.1494 B(  0-S ,  4-C ) :   1.1709 B(  1-C ,  2-C ) :   1.5909
B(  1-C ,  4-C ) :   0.1033 B(  1-C , 32-H ) :   0.9728 B(  2-C ,  3-C ) :   1.2661
B(  2-C ,  6-C ) :   0.9946 B(  3-C ,  4-C ) :   1.5738 B(  3-C ,  5-H ) :   0.9839
B(  4-C , 20-C ) :   0.9976 B(  6-C ,  7-H ) :   0.9438 B(  6-C ,  8-H ) :   0.9371
B(  6-C ,  9-C ) :   1.0839 B(  9-C , 10-H ) :   0.9488 B(  9-C , 11-H ) :   0.9516
B(  9-C , 12-C ) :   1.0792 B( 12-C , 13-H ) :   0.9717 B( 12-C , 14-H ) :   0.9752
B( 12-C , 15-H ) :   0.9740 B( 16-S , 17-C ) :   1.1573 B( 16-S , 20-C ) :   1.1495
B( 17-C , 18-C ) :   1.5872 B( 17-C , 20-C ) :   0.1058 B( 17-C , 33-H ) :   0.9693
B( 18-C , 19-C ) :   1.2634 B( 18-C , 21-H ) :   0.9778 B( 19-C , 20-C ) :   1.5925
B( 19-C , 22-C ) :   1.0372 B( 22-C , 23-H ) :   0.9335 B( 22-C , 24-H ) :   0.9286
B( 22-C , 25-C ) :   1.0663 B( 25-C , 26-H ) :   0.9573 B( 25-C , 27-H ) :   0.9552
B( 25-C , 28-C ) :   1.0557 B( 28-C , 29-H ) :   0.9759 B( 28-C , 30-H ) :   0.9702
B( 28-C , 31-H ) :   0.9761

Dispersion correction           -0.014675525
FINAL SINGLE POINT ENERGY     -1339.874969371839

DIPOLE MOMENT
-------------
                                X             Y             Z
Electronic contribution:     -2.91972       4.97967      19.85442
Nuclear contribution   :      2.81465      -4.87265     -20.42871
                        -----------------------------------------
Total Dipole Moment    :     -0.10507       0.10702      -0.57429
                        -----------------------------------------
Magnitude (a.u.)       :      0.59355
Magnitude (Debye)      :      1.50868

Rotational constants in cm-1:     0.020801     0.007418     0.007219
Rotational constants in MHz :   623.596178   222.386038   216.415008

                             ****ORCA TERMINATED NORMALLY****
TOTAL RUN TIME: 0 days 0 hours 0 minutes 33 seconds 122 msec
