                         Program Version 4.2.1 -  RELEASE  -
|  1> ! wB97X-D3 SP def2-SVP
|  2> %pal
|  3> nprocs 16
|  4> end
|  5>
|  6> * xyz 0 1
|  7> S 	 40.5469 	 13.6758 	 85.0966
|  8> C 	 41.5787 	 14.9545 	 85.8073
|  9> C 	 42.873 	 14.8875 	 85.2227
| 10> C 	 42.9197 	 13.9135 	 84.1989
| 11> C 	 41.8496 	 13.0902 	 84.1586
| 12> H 	 43.7817 	 13.6878 	 83.736
| 13> C 	 44.0215 	 15.802 	 85.5887
| 14> H 	 44.6933 	 15.3164 	 86.1807
| 15> H 	 43.5255 	 16.5163 	 86.3385
| 16> C 	 44.6743 	 16.6075 	 84.4567
| 17> H 	 45.3582 	 17.3054 	 84.9092
| 18> H 	 45.3008 	 15.9541 	 83.8079
| 19> C 	 43.7445 	 17.6509 	 83.7754
| 20> H 	 42.7868 	 17.1741 	 83.4531
| 21> H 	 43.4202 	 18.5201 	 84.3588
| 22> H 	 44.0918 	 18.2014 	 82.8999
| 23> S 	 42.7432 	 11.5399 	 81.992
| 24> C 	 41.9549 	 10.0683 	 81.5581
| 25> C 	 40.8138 	 9.90648 	 82.2931
| 26> C 	 40.6976 	 10.7978 	 83.4215
| 27> C 	 41.6546 	 11.8228 	 83.4092
| 28> H 	 40.2118 	 9.04218 	 82.0595
| 29> C 	 39.5623 	 10.6216 	 84.4086
| 30> H 	 38.6538 	 10.4567 	 83.9021
| 31> H 	 39.2763 	 11.594 	 84.7948
| 32> C 	 39.7146 	 9.57548 	 85.5665
| 33> H 	 39.9147 	 8.64761 	 85.0753
| 34> H 	 38.8031 	 9.60303 	 86.1226
| 35> C 	 40.8802 	 9.86682 	 86.4535
| 36> H 	 41.0827 	 9.11713 	 87.1998
| 37> H 	 40.8595 	 10.8351 	 87.0891
| 38> H 	 41.7694 	 9.8456 	 85.8734
| 39> H 	 41.5019 	 15.6832 	 86.5775
| 40> H 	 42.271 	 9.46676 	 80.7043
| 41> *
| 42>
| 43>                          ****END OF INPUT****

CARTESIAN COORDINATES (ANGSTROEM)
---------------------------------
  S     40.546900   13.675800   85.096600
  C     41.578700   14.954500   85.807300
  C     42.873000   14.887500   85.222700
  C     42.919700   13.913500   84.198900
  C     41.849600   13.090200   84.158600
  H     43.781700   13.687800   83.736000
  C     44.021500   15.802000   85.588700
  H     44.693300   15.316400   86.180700
  H     43.525500   16.516300   86.338500
  C     44.674300   16.607500   84.456700
  H     45.358200   17.305400   84.909200
  H     45.300800   15.954100   83.807900
  C     43.744500   17.650900   83.775400
  H     42.786800   17.174100   83.453100
  H     43.420200   18.520100   84.358800
  H     44.091800   18.201400   82.899900
  S     42.743200   11.539900   81.992000
  C     41.954900   10.068300   81.558100
  C     40.813800    9.906480   82.293100
  C     40.697600   10.797800   83.421500
  C     41.654600   11.822800   83.409200
  H     40.211800    9.042180   82.059500
  C     39.562300   10.621600   84.408600
  H     38.653800   10.456700   83.902100
  H     39.276300   11.594000   84.794800
  C     39.714600    9.575480   85.566500
  H     39.914700    8.647610   85.075300
  H     38.803100    9.603030   86.122600
  C     40.880200    9.866820   86.453500
  H     41.082700    9.117130   87.199800
  H     40.859500   10.835100   87.089100
  H     41.769400    9.845600   85.873400
  H     41.501900   15.683200   86.577500
  H     42.271000    9.466760   80.704300

 Total Charge           Charge          ....    0
 Multiplicity           Mult            ....    1
 Number of Electrons    NEL             ....  134
 Basis Dimension        Dim             ....  322

ORBITAL ENERGIES
----------------

  NO   OCC          E(Eh)            E(eV)
   0   2.0000     -88.971149     -2421.0281
   1   2.0000     -88.962947     -2420.8049
   2   2.0000     -10.338115      -281.3144
   3   2.0000     -10.330808      -281.1156
   4   2.0000     -10.317773      -280.7609
   5   2.0000     -10.313381      -280.6414
   6   2.0000     -10.310597      -280.5656
   7   2.0000     -10.300483      -280.2904
   8   2.0000     -10.294836      -280.1367
   9   2.0000     -10.293599      -280.1031
  10   2.0000     -10.293499      -280.1004
  11   2.0000     -10.284079      -279.8440
  12   2.0000     -10.281962      -279.7864
  13   2.0000     -10.279685      -279.7244
  14   2.0000     -10.279280      -279.7134
  15   2.0000     -10.267875      -279.4031
  16   2.0000      -8.084942      -220.0024
  17   2.0000      -8.077403      -219.7973
  18   2.0000      -6.043638      -164.4558
  19   2.0000      -6.039514      -164.3435
  20   2.0000      -6.035964      -164.2469
  21   2.0000      -6.035598      -164.2370
  22   2.0000      -6.031950      -164.1377
  23   2.0000      -6.028145      -164.0342
  24   2.0000      -1.007355       -27.4115
  25   2.0000      -0.983817       -26.7710
  26   2.0000      -0.912836       -24.8395
  27   2.0000      -0.907805       -24.7026
  28   2.0000      -0.865049       -23.5392
  29   2.0000      -0.852523       -23.1983
  30   2.0000      -0.843929       -22.9645
  31   2.0000      -0.816395       -22.2152
  32   2.0000      -0.786954       -21.4141
  33   2.0000      -0.776750       -21.1364
  34   2.0000      -0.713038       -19.4028
  35   2.0000      -0.702911       -19.1272
  36   2.0000      -0.689491       -18.7620
  37   2.0000      -0.664560       -18.0836
  38   2.0000      -0.634674       -17.2704
  39   2.0000      -0.625607       -17.0236
  40   2.0000      -0.601264       -16.3612
  41   2.0000      -0.571894       -15.5620
  42   2.0000      -0.554717       -15.0946
  43   2.0000      -0.553551       -15.0629
  44   2.0000      -0.546671       -14.8757
  45   2.0000      -0.540518       -14.7082
  46   2.0000      -0.515941       -14.0395
  47   2.0000      -0.508258       -13.8304
  48   2.0000      -0.500339       -13.6149
  49   2.0000      -0.496061       -13.4985
  50   2.0000      -0.482738       -13.1360
  51   2.0000      -0.475792       -12.9470
  52   2.0000      -0.471664       -12.8346
  53   2.0000      -0.465584       -12.6692
  54   2.0000      -0.460154       -12.5214
  55   2.0000      -0.449670       -12.2361
  56   2.0000      -0.445813       -12.1312
  57   2.0000      -0.440703       -11.9921
  58   2.0000      -0.426901       -11.6166
  59   2.0000      -0.423309       -11.5188
  60   2.0000      -0.415440       -11.3047
  61   2.0000      -0.410669       -11.1749
  62   2.0000      -0.401424       -10.9233
  63   2.0000      -0.357543        -9.7292
  64   2.0000      -0.335213        -9.1216
  65   2.0000      -0.328779        -8.9465
  66   2.0000      -0.283687        -7.7195
  67   0.0000       0.018391         0.5004
  68   0.0000       0.084625         2.3028
  69   0.0000       0.111593         3.0366
  70   0.0000       0.121130         3.2961
  71   0.0000       0.127316         3.4644

MULLIKEN ATOMIC CHARGES
-----------------------
   0 S :    0.101462
   1 C :   -0.069282
   2 C :   -0.151978
   3 C :    0.052788
   4 C :   -0.084612
   5 H :   -0.038975
   6 C :    0.090235
   7 H :    0.021072
   8 H :    0.011656
   9 C :   -0.052287
  10 H :    0.029325
  11 H :    0.046865
  12 C :   -0.086691
  13 H :    0.041115
  14 H :    0.026741
  15 H :    0.031607
  16 S :    0.072983
  17 C :   -0.087709
  18 C :   -0.027103
  19 C :   -0.088918
  20 C :   -0.098161
  21 H :    0.020839
  22 C :    0.057278
  23 H :    0.007398
  24 H :    0.010488
  25 C :    0.005831
  26 H :    0.020754
  27 H :    0.029324
  28 C :   -0.073835
  29 H :    0.020458
  30 H :    0.041588
  31 H :    0.029084
  32 H :    0.022825
  33 H :    0.067834
Sum of atomic charges:    0.0000000

LOEWDIN ATOMIC CHARGES
----------------------
   0 S :    0.435783
   1 C :   -0.200709
   2 C :   -0.049240
   3 C :   -0.066194
   4 C :   -0.185193
   5 H :    0.007386
   6 C :   -0.026878
   7 H :    0.020089
   8 H :    0.037835
   9 C :   -0.041894
  10 H :    0.029326
  11 H :    0.030231
  12 C :   -0.079207
  13 H :    0.027933
  14 H :    0.027319
  15 H :    0.027931
  16 S :    0.386352
  17 C :   -0.185821
  18 C :   -0.074548
  19 C :   -0.059550
  20 C :   -0.172467
  21 H :    0.031473
  22 C :   -0.041141
  23 H :    0.027600
  24 H :    0.010850
  25 C :   -0.024582
  26 H :    0.023165
  27 H :    0.024176
  28 C :   -0.075059
  29 H :    0.021671
  30 H :    0.033741
  31 H :    0.021982
  32 H :    0.022778
  33 H :    0.034861

  Mayer bond orders larger than 0.100000
B(  0-S ,  1-C ) :   1.1159 B(  0-S ,  4-C ) :   1.1528 B(  1-C ,  2-C ) :   1.6204
B(  1-C , 32-H ) :   0.9612 B(  2-C ,  3-C ) :   1.2576 B(  2-C ,  6-C ) :   1.0205
B(  3-C ,  4-C ) :   1.5678 B(  3-C ,  5-H ) :   0.9996 B(  4-C , 20-C ) :   1.0633
B(  6-C ,  7-H ) :   0.9342 B(  6-C ,  8-H ) :   0.9344 B(  6-C ,  9-C ) :   1.0783
B(  9-C , 10-H ) :   0.9539 B(  9-C , 11-H ) :   0.9561 B(  9-C , 12-C ) :   1.0529
B( 12-C , 13-H ) :   0.9788 B( 12-C , 14-H ) :   0.9751 B( 12-C , 15-H ) :   0.9761
B( 16-S , 17-C ) :   1.1556 B( 16-S , 20-C ) :   1.1271 B( 17-C , 18-C ) :   1.6159
B( 17-C , 33-H ) :   0.9651 B( 18-C , 19-C ) :   1.2349 B( 18-C , 21-H ) :   0.9904
B( 19-C , 20-C ) :   1.5782 B( 19-C , 22-C ) :   1.0356 B( 22-C , 23-H ) :   0.9234
B( 22-C , 24-H ) :   0.9279 B( 22-C , 25-C ) :   1.0657 B( 25-C , 26-H ) :   0.9535
B( 25-C , 27-H ) :   0.9532 B( 25-C , 28-C ) :   1.0883 B( 28-C , 29-H ) :   0.9705
B( 28-C , 30-H ) :   0.9730 B( 28-C , 31-H ) :   0.9717

Dispersion correction           -0.014898870
FINAL SINGLE POINT ENERGY     -1339.851005460526

DIPOLE MOMENT
-------------
                                X             Y             Z
Electronic contribution:     -3.42143      -6.31964      -9.75614
Nuclear contribution   :      3.54002       6.26026       9.89141
                        -----------------------------------------
Total Dipole Moment    :      0.11859      -0.05938       0.13526
                        -----------------------------------------
Magnitude (a.u.)       :      0.18944
Magnitude (Debye)      :      0.48151

Rotational constants in cm-1:     0.022470     0.008462     0.006815
Rotational constants in MHz :   673.647251   253.691950   204.322786

                             ****ORCA TERMINATED NORMALLY****
TOTAL RUN TIME: 0 days 0 hours 0 minutes 28 seconds 795 msec
