                         Program Version 4.2.1 -  RELEASE  -
|  1> ! wB97X-D3 SP def2-SVP
|  2> %pal
|  3> nprocs 16
|  4> end
|  5>
|  6> * xyz 0 1
|  7> S 	 33.8459 	 26.1473 	 54.6639
|  8> C 	 35.3017 	 27.1966 	 54.708
|  9> C 	 36.4102 	 26.6297 	 55.2723
| 10> C 	 36.0928 	 25.2819 	 55.6755
| 11> C 	 34.8489 	 24.8133 	 55.4268
| 12> H 	 36.7881 	 24.5711 	 56.0657
| 13> C 	 37.8319 	 27.187 	 55.446
| 14> H 	 37.9251 	 27.9589 	 54.7428
| 15> H 	 38.4792 	 26.4196 	 55.0444
| 16> C 	 38.1851 	 27.5697 	 56.8972
| 17> H 	 38.3143 	 26.7326 	 57.6187
| 18> H 	 39.1889 	 27.9801 	 56.8235
| 19> C 	 37.2434 	 28.627 	 57.4373
| 20> H 	 36.994 	 29.4109 	 56.6575
| 21> H 	 36.3176 	 28.226 	 57.7897
| 22> H 	 37.6895 	 29.3702 	 58.1369
| 23> S 	 34.4435 	 22.6215 	 56.9443
| 24> C 	 34.0224 	 21.1246 	 56.2466
| 25> C 	 34.1287 	 21.1997 	 54.8324
| 26> C 	 34.2455 	 22.5165 	 54.3528
| 27> C 	 34.5291 	 23.3875 	 55.3585
| 28> H 	 33.9193 	 20.287 	 54.1899
| 29> C 	 34.2986 	 22.8574 	 52.8573
| 30> H 	 34.5821 	 23.891 	 52.7377
| 31> H 	 33.2437 	 22.6445 	 52.5991
| 32> C 	 35.217 	 21.9192 	 52.0172
| 33> H 	 35.0223 	 20.902 	 52.1836
| 34> H 	 36.244 	 22.1177 	 52.3042
| 35> C 	 34.976 	 22.2185 	 50.5197
| 36> H 	 35.0344 	 23.3286 	 50.4278
| 37> H 	 34.0359 	 21.839 	 50.0927
| 38> H 	 35.727 	 21.6828 	 49.9014
| 39> H 	 35.5011 	 28.1862 	 54.2665
| 40> H 	 33.9115 	 20.1691 	 56.8048
| 41> *
| 42>
| 43>                          ****END OF INPUT****

CARTESIAN COORDINATES (ANGSTROEM)
---------------------------------
  S     33.845900   26.147300   54.663900
  C     35.301700   27.196600   54.708000
  C     36.410200   26.629700   55.272300
  C     36.092800   25.281900   55.675500
  C     34.848900   24.813300   55.426800
  H     36.788100   24.571100   56.065700
  C     37.831900   27.187000   55.446000
  H     37.925100   27.958900   54.742800
  H     38.479200   26.419600   55.044400
  C     38.185100   27.569700   56.897200
  H     38.314300   26.732600   57.618700
  H     39.188900   27.980100   56.823500
  C     37.243400   28.627000   57.437300
  H     36.994000   29.410900   56.657500
  H     36.317600   28.226000   57.789700
  H     37.689500   29.370200   58.136900
  S     34.443500   22.621500   56.944300
  C     34.022400   21.124600   56.246600
  C     34.128700   21.199700   54.832400
  C     34.245500   22.516500   54.352800
  C     34.529100   23.387500   55.358500
  H     33.919300   20.287000   54.189900
  C     34.298600   22.857400   52.857300
  H     34.582100   23.891000   52.737700
  H     33.243700   22.644500   52.599100
  C     35.217000   21.919200   52.017200
  H     35.022300   20.902000   52.183600
  H     36.244000   22.117700   52.304200
  C     34.976000   22.218500   50.519700
  H     35.034400   23.328600   50.427800
  H     34.035900   21.839000   50.092700
  H     35.727000   21.682800   49.901400
  H     35.501100   28.186200   54.266500
  H     33.911500   20.169100   56.804800

 Total Charge           Charge          ....    0
 Multiplicity           Mult            ....    1
 Number of Electrons    NEL             ....  134
 Basis Dimension        Dim             ....  322

ORBITAL ENERGIES
----------------

  NO   OCC          E(Eh)            E(eV)
   0   2.0000     -88.967826     -2420.9376
   1   2.0000     -88.963547     -2420.8212
   2   2.0000     -10.329022      -281.0670
   3   2.0000     -10.321451      -280.8610
   4   2.0000     -10.318987      -280.7939
   5   2.0000     -10.317868      -280.7635
   6   2.0000     -10.299777      -280.2712
   7   2.0000     -10.298533      -280.2373
   8   2.0000     -10.297627      -280.2127
   9   2.0000     -10.294869      -280.1376
  10   2.0000     -10.293374      -280.0970
  11   2.0000     -10.292121      -280.0629
  12   2.0000     -10.289589      -279.9940
  13   2.0000     -10.283962      -279.8408
  14   2.0000     -10.282844      -279.8104
  15   2.0000     -10.279346      -279.7152
  16   2.0000      -8.080189      -219.8731
  17   2.0000      -8.078908      -219.8383
  18   2.0000      -6.039067      -164.3314
  19   2.0000      -6.037221      -164.2811
  20   2.0000      -6.035208      -164.2264
  21   2.0000      -6.033275      -164.1738
  22   2.0000      -6.030501      -164.0983
  23   2.0000      -6.029889      -164.0816
  24   2.0000      -1.005287       -27.3553
  25   2.0000      -0.978986       -26.6396
  26   2.0000      -0.911679       -24.8081
  27   2.0000      -0.907490       -24.6941
  28   2.0000      -0.866748       -23.5854
  29   2.0000      -0.852268       -23.1914
  30   2.0000      -0.841812       -22.9069
  31   2.0000      -0.807417       -21.9709
  32   2.0000      -0.782264       -21.2865
  33   2.0000      -0.772168       -21.0117
  34   2.0000      -0.706127       -19.2147
  35   2.0000      -0.703316       -19.1382
  36   2.0000      -0.693783       -18.8788
  37   2.0000      -0.660360       -17.9693
  38   2.0000      -0.631161       -17.1748
  39   2.0000      -0.616699       -16.7812
  40   2.0000      -0.595884       -16.2148
  41   2.0000      -0.565319       -15.3831
  42   2.0000      -0.564242       -15.3538
  43   2.0000      -0.548986       -14.9387
  44   2.0000      -0.542126       -14.7520
  45   2.0000      -0.525643       -14.3035
  46   2.0000      -0.514493       -14.0001
  47   2.0000      -0.508251       -13.8302
  48   2.0000      -0.505465       -13.7544
  49   2.0000      -0.492750       -13.4084
  50   2.0000      -0.484158       -13.1746
  51   2.0000      -0.475964       -12.9517
  52   2.0000      -0.467226       -12.7139
  53   2.0000      -0.463765       -12.6197
  54   2.0000      -0.452459       -12.3120
  55   2.0000      -0.446326       -12.1451
  56   2.0000      -0.442498       -12.0410
  57   2.0000      -0.437004       -11.8915
  58   2.0000      -0.433271       -11.7899
  59   2.0000      -0.428615       -11.6632
  60   2.0000      -0.424351       -11.5472
  61   2.0000      -0.416654       -11.3377
  62   2.0000      -0.411056       -11.1854
  63   2.0000      -0.342839        -9.3291
  64   2.0000      -0.330966        -9.0060
  65   2.0000      -0.326413        -8.8822
  66   2.0000      -0.296794        -8.0762
  67   0.0000       0.036687         0.9983
  68   0.0000       0.064182         1.7465
  69   0.0000       0.102977         2.8022
  70   0.0000       0.120618         3.2822
  71   0.0000       0.130268         3.5448

MULLIKEN ATOMIC CHARGES
-----------------------
   0 S :    0.095256
   1 C :   -0.117039
   2 C :   -0.120284
   3 C :    0.040310
   4 C :   -0.131455
   5 H :    0.003576
   6 C :    0.108747
   7 H :    0.002452
   8 H :    0.026913
   9 C :   -0.049579
  10 H :    0.044564
  11 H :    0.027345
  12 C :   -0.068800
  13 H :    0.017096
  14 H :    0.051932
  15 H :    0.034645
  16 S :    0.114531
  17 C :   -0.106415
  18 C :   -0.087333
  19 C :   -0.015905
  20 C :   -0.206221
  21 H :    0.042811
  22 C :    0.069680
  23 H :    0.032233
  24 H :    0.037215
  25 C :   -0.057252
  26 H :    0.016110
  27 H :    0.036027
  28 C :   -0.067797
  29 H :    0.040321
  30 H :    0.034682
  31 H :    0.034727
  32 H :    0.043244
  33 H :    0.073667
Sum of atomic charges:    0.0000000

LOEWDIN ATOMIC CHARGES
----------------------
   0 S :    0.345647
   1 C :   -0.185833
   2 C :   -0.066655
   3 C :   -0.050250
   4 C :   -0.177943
   5 H :    0.025584
   6 C :   -0.021122
   7 H :    0.021727
   8 H :    0.033481
   9 C :   -0.042081
  10 H :    0.031503
  11 H :    0.027090
  12 C :   -0.074823
  13 H :    0.029619
  14 H :    0.025448
  15 H :    0.031702
  16 S :    0.425468
  17 C :   -0.208930
  18 C :   -0.084264
  19 C :   -0.061253
  20 C :   -0.196682
  21 H :    0.038965
  22 C :   -0.022470
  23 H :    0.024810
  24 H :    0.038486
  25 C :   -0.031602
  26 H :    0.013176
  27 H :    0.026474
  28 C :   -0.068817
  29 H :    0.029643
  30 H :    0.025093
  31 H :    0.027508
  32 H :    0.034125
  33 H :    0.037176

  Mayer bond orders larger than 0.100000
B(  0-S ,  1-C ) :   1.1132 B(  0-S ,  4-C ) :   1.0769 B(  1-C ,  2-C ) :   1.6877
B(  1-C , 32-H ) :   0.9474 B(  2-C ,  3-C ) :   1.1901 B(  2-C ,  6-C ) :   1.0133
B(  3-C ,  4-C ) :   1.6614 B(  3-C ,  5-H ) :   0.9836 B(  4-C , 20-C ) :   1.0019
B(  6-C ,  7-H ) :   0.9347 B(  6-C ,  8-H ) :   0.9376 B(  6-C ,  9-C ) :   1.0727
B(  9-C , 10-H ) :   0.9577 B(  9-C , 11-H ) :   0.9530 B(  9-C , 12-C ) :   1.0689
B( 12-C , 13-H ) :   0.9714 B( 12-C , 14-H ) :   0.9749 B( 12-C , 15-H ) :   0.9722
B( 16-S , 17-C ) :   1.1847 B( 16-S , 20-C ) :   1.1477 B( 17-C , 18-C ) :   1.5787
B( 17-C , 20-C ) :   0.1041 B( 17-C , 33-H ) :   0.9623 B( 18-C , 19-C ) :   1.2557
B( 18-C , 21-H ) :   0.9746 B( 19-C , 20-C ) :   1.6088 B( 19-C , 22-C ) :   1.0201
B( 22-C , 23-H ) :   0.9387 B( 22-C , 24-H ) :   0.9295 B( 22-C , 25-C ) :   1.0726
B( 25-C , 26-H ) :   0.9519 B( 25-C , 27-H ) :   0.9569 B( 25-C , 28-C ) :   1.0813
B( 28-C , 29-H ) :   0.9749 B( 28-C , 30-H ) :   0.9771 B( 28-C , 31-H ) :   0.9736

Dispersion correction           -0.014363559
FINAL SINGLE POINT ENERGY     -1339.866023106379

DIPOLE MOMENT
-------------
                                X             Y             Z
Electronic contribution:    -13.64270      -5.08637      10.91095
Nuclear contribution   :     14.28423       4.99144     -11.23683
                        -----------------------------------------
Total Dipole Moment    :      0.64153      -0.09492      -0.32588
                        -----------------------------------------
Magnitude (a.u.)       :      0.72579
Magnitude (Debye)      :      1.84480

Rotational constants in cm-1:     0.019388     0.008048     0.006755
Rotational constants in MHz :   581.241628   241.268766   202.510154

                             ****ORCA TERMINATED NORMALLY****
TOTAL RUN TIME: 0 days 0 hours 0 minutes 36 seconds 223 msec
