                         Program Version 4.2.1 -  RELEASE  -
|  1> ! wB97X-D3 SP def2-SVP
|  2> %pal
|  3> nprocs 16
|  4> end
|  5>
|  6> * xyz 0 1
|  7> S 	 -94.3697 	 57.4698 	 124.111
|  8> C 	 -95.1204 	 57.0576 	 122.588
|  9> C 	 -95.8932 	 55.9167 	 122.615
| 10> C 	 -95.8878 	 55.3466 	 123.886
| 11> C 	 -94.9733 	 55.9006 	 124.76
| 12> H 	 -96.3433 	 54.501 	 124.185
| 13> C 	 -96.6366 	 55.4173 	 121.435
| 14> H 	 -96.1161 	 54.4293 	 121.196
| 15> H 	 -96.3774 	 56.0112 	 120.545
| 16> C 	 -98.1411 	 55.0717 	 121.567
| 17> H 	 -98.3167 	 54.5599 	 122.544
| 18> H 	 -98.5665 	 56.0557 	 121.511
| 19> C 	 -98.757 	 54.135 	 120.504
| 20> H 	 -98.5895 	 54.2988 	 119.427
| 21> H 	 -98.408 	 53.1029 	 120.719
| 22> H 	 -99.8342 	 54.0934 	 120.677
| 23> S 	 -94.6075 	 56.5908 	 127.417
| 24> C 	 -94.1083 	 55.4283 	 128.603
| 25> C 	 -93.9697 	 54.1761 	 128.022
| 26> C 	 -94.3639 	 54.1337 	 126.632
| 27> C 	 -94.5982 	 55.4264 	 126.121
| 28> H 	 -93.6233 	 53.2916 	 128.556
| 29> C 	 -94.3157 	 52.8308 	 125.839
| 30> H 	 -94.986 	 52.7969 	 124.97
| 31> H 	 -94.8513 	 52.0084 	 126.413
| 32> C 	 -92.8926 	 52.3657 	 125.438
| 33> H 	 -92.2858 	 52.3 	 126.367
| 34> H 	 -92.3278 	 53.0451 	 124.851
| 35> C 	 -92.9168 	 51.0877 	 124.669
| 36> H 	 -91.9575 	 50.5558 	 124.594
| 37> H 	 -93.3369 	 51.1859 	 123.764
| 38> H 	 -93.5229 	 50.3927 	 125.195
| 39> H 	 -95.0721 	 57.7287 	 121.691
| 40> H 	 -94.058 	 55.5985 	 129.676
| 41> *
| 42>
| 43>                          ****END OF INPUT****

CARTESIAN COORDINATES (ANGSTROEM)
---------------------------------
  S    -94.369700   57.469800  124.111000
  C    -95.120400   57.057600  122.588000
  C    -95.893200   55.916700  122.615000
  C    -95.887800   55.346600  123.886000
  C    -94.973300   55.900600  124.760000
  H    -96.343300   54.501000  124.185000
  C    -96.636600   55.417300  121.435000
  H    -96.116100   54.429300  121.196000
  H    -96.377400   56.011200  120.545000
  C    -98.141100   55.071700  121.567000
  H    -98.316700   54.559900  122.544000
  H    -98.566500   56.055700  121.511000
  C    -98.757000   54.135000  120.504000
  H    -98.589500   54.298800  119.427000
  H    -98.408000   53.102900  120.719000
  H    -99.834200   54.093400  120.677000
  S    -94.607500   56.590800  127.417000
  C    -94.108300   55.428300  128.603000
  C    -93.969700   54.176100  128.022000
  C    -94.363900   54.133700  126.632000
  C    -94.598200   55.426400  126.121000
  H    -93.623300   53.291600  128.556000
  C    -94.315700   52.830800  125.839000
  H    -94.986000   52.796900  124.970000
  H    -94.851300   52.008400  126.413000
  C    -92.892600   52.365700  125.438000
  H    -92.285800   52.300000  126.367000
  H    -92.327800   53.045100  124.851000
  C    -92.916800   51.087700  124.669000
  H    -91.957500   50.555800  124.594000
  H    -93.336900   51.185900  123.764000
  H    -93.522900   50.392700  125.195000
  H    -95.072100   57.728700  121.691000
  H    -94.058000   55.598500  129.676000

 Total Charge           Charge          ....    0
 Multiplicity           Mult            ....    1
 Number of Electrons    NEL             ....  134
 Basis Dimension        Dim             ....  322

ORBITAL ENERGIES
----------------

  NO   OCC          E(Eh)            E(eV)
   0   2.0000     -88.966851     -2420.9111
   1   2.0000     -88.966154     -2420.8921
   2   2.0000     -10.334644      -281.2200
   3   2.0000     -10.331983      -281.1476
   4   2.0000     -10.318778      -280.7882
   5   2.0000     -10.313921      -280.6561
   6   2.0000     -10.309086      -280.5245
   7   2.0000     -10.300176      -280.2821
   8   2.0000     -10.297423      -280.2071
   9   2.0000     -10.296810      -280.1904
  10   2.0000     -10.296376      -280.1786
  11   2.0000     -10.294577      -280.1297
  12   2.0000     -10.286353      -279.9059
  13   2.0000     -10.284790      -279.8634
  14   2.0000     -10.282086      -279.7898
  15   2.0000     -10.262981      -279.2699
  16   2.0000      -8.081253      -219.9021
  17   2.0000      -8.080848      -219.8911
  18   2.0000      -6.039811      -164.3516
  19   2.0000      -6.039350      -164.3391
  20   2.0000      -6.035658      -164.2386
  21   2.0000      -6.035554      -164.2358
  22   2.0000      -6.032100      -164.1418
  23   2.0000      -6.031476      -164.1248
  24   2.0000      -1.004314       -27.3288
  25   2.0000      -0.984961       -26.8021
  26   2.0000      -0.911136       -24.7933
  27   2.0000      -0.909273       -24.7426
  28   2.0000      -0.866025       -23.5657
  29   2.0000      -0.856591       -23.3090
  30   2.0000      -0.849539       -23.1171
  31   2.0000      -0.817759       -22.2523
  32   2.0000      -0.782493       -21.2927
  33   2.0000      -0.769683       -20.9442
  34   2.0000      -0.710245       -19.3268
  35   2.0000      -0.702382       -19.1128
  36   2.0000      -0.690280       -18.7835
  37   2.0000      -0.661246       -17.9934
  38   2.0000      -0.642827       -17.4922
  39   2.0000      -0.626852       -17.0575
  40   2.0000      -0.600279       -16.3344
  41   2.0000      -0.566918       -15.4266
  42   2.0000      -0.563753       -15.3405
  43   2.0000      -0.560779       -15.2596
  44   2.0000      -0.527655       -14.3582
  45   2.0000      -0.524418       -14.2702
  46   2.0000      -0.517890       -14.0925
  47   2.0000      -0.509713       -13.8700
  48   2.0000      -0.504491       -13.7279
  49   2.0000      -0.502279       -13.6677
  50   2.0000      -0.489673       -13.3247
  51   2.0000      -0.476525       -12.9669
  52   2.0000      -0.473329       -12.8799
  53   2.0000      -0.466407       -12.6916
  54   2.0000      -0.459999       -12.5172
  55   2.0000      -0.450796       -12.2668
  56   2.0000      -0.448842       -12.2136
  57   2.0000      -0.436680       -11.8827
  58   2.0000      -0.433866       -11.8061
  59   2.0000      -0.431107       -11.7310
  60   2.0000      -0.424474       -11.5505
  61   2.0000      -0.418609       -11.3909
  62   2.0000      -0.408278       -11.1098
  63   2.0000      -0.350568        -9.5394
  64   2.0000      -0.331728        -9.0268
  65   2.0000      -0.328581        -8.9411
  66   2.0000      -0.285948        -7.7811
  67   0.0000       0.026244         0.7141
  68   0.0000       0.071581         1.9478
  69   0.0000       0.107302         2.9198
  70   0.0000       0.117235         3.1901
  71   0.0000       0.136564         3.7161

MULLIKEN ATOMIC CHARGES
-----------------------
   0 S :    0.105720
   1 C :   -0.141917
   2 C :   -0.049122
   3 C :    0.072283
   4 C :   -0.150872
   5 H :   -0.039578
   6 C :    0.045110
   7 H :    0.028411
   8 H :    0.017989
   9 C :   -0.073552
  10 H :    0.043293
  11 H :    0.037336
  12 C :   -0.068055
  13 H :    0.043915
  14 H :    0.029064
  15 H :    0.038933
  16 S :    0.106910
  17 C :   -0.090489
  18 C :   -0.038265
  19 C :   -0.028593
  20 C :   -0.144824
  21 H :    0.024927
  22 C :    0.012796
  23 H :    0.008519
  24 H :    0.030248
  25 C :   -0.047494
  26 H :    0.020588
  27 H :    0.026301
  28 C :    0.017761
  29 H :    0.033091
  30 H :    0.006402
  31 H :   -0.001319
  32 H :    0.058463
  33 H :    0.066022
Sum of atomic charges:    0.0000000

LOEWDIN ATOMIC CHARGES
----------------------
   0 S :    0.380724
   1 C :   -0.201617
   2 C :   -0.068317
   3 C :   -0.047180
   4 C :   -0.165646
   5 H :    0.009303
   6 C :   -0.040297
   7 H :    0.035945
   8 H :    0.029978
   9 C :   -0.039504
  10 H :    0.033101
  11 H :    0.024039
  12 C :   -0.072149
  13 H :    0.027130
  14 H :    0.027154
  15 H :    0.030276
  16 S :    0.417771
  17 C :   -0.195364
  18 C :   -0.069693
  19 C :   -0.057774
  20 C :   -0.200582
  21 H :    0.032417
  22 C :   -0.040259
  23 H :    0.025069
  24 H :    0.037946
  25 C :   -0.035493
  26 H :    0.025537
  27 H :    0.022522
  28 C :   -0.054761
  29 H :    0.032864
  30 H :    0.009450
  31 H :    0.018572
  32 H :    0.034266
  33 H :    0.034569

  Mayer bond orders larger than 0.100000
B(  0-S ,  1-C ) :   1.1320 B(  0-S ,  4-C ) :   1.1405 B(  1-C ,  2-C ) :   1.6140
B(  1-C , 32-H ) :   0.9566 B(  2-C ,  3-C ) :   1.2285 B(  2-C ,  6-C ) :   1.0351
B(  3-C ,  4-C ) :   1.5835 B(  3-C ,  5-H ) :   1.0066 B(  4-C , 20-C ) :   1.0372
B(  6-C ,  7-H ) :   0.9293 B(  6-C ,  8-H ) :   0.9396 B(  6-C ,  9-C ) :   1.0448
B(  9-C , 10-H ) :   0.9555 B(  9-C , 11-H ) :   0.9595 B(  9-C , 12-C ) :   1.0793
B( 12-C , 13-H ) :   0.9779 B( 12-C , 14-H ) :   0.9732 B( 12-C , 15-H ) :   0.9740
B( 16-S , 17-C ) :   1.1578 B( 16-S , 20-C ) :   1.1563 B( 17-C , 18-C ) :   1.5868
B( 17-C , 33-H ) :   0.9692 B( 18-C , 19-C ) :   1.2603 B( 18-C , 21-H ) :   0.9863
B( 19-C , 20-C ) :   1.5741 B( 19-C , 22-C ) :   1.0489 B( 22-C , 23-H ) :   0.9384
B( 22-C , 24-H ) :   0.9320 B( 22-C , 25-C ) :   1.0554 B( 25-C , 26-H ) :   0.9534
B( 25-C , 27-H ) :   0.9561 B( 25-C , 28-C ) :   1.0883 B( 28-C , 29-H ) :   0.9691
B( 28-C , 30-H ) :   0.9717 B( 28-C , 31-H ) :   0.9674

Dispersion correction           -0.013473880
FINAL SINGLE POINT ENERGY     -1339.869453308792

DIPOLE MOMENT
-------------
                                X             Y             Z
Electronic contribution:      7.36008      24.51442      17.29678
Nuclear contribution   :     -7.61760     -25.18965     -17.55052
                        -----------------------------------------
Total Dipole Moment    :     -0.25752      -0.67522      -0.25374
                        -----------------------------------------
Magnitude (a.u.)       :      0.76592
Magnitude (Debye)      :      1.94681

Rotational constants in cm-1:     0.016544     0.008474     0.006545
Rotational constants in MHz :   495.970554   254.039833   196.229109

                             ****ORCA TERMINATED NORMALLY****
TOTAL RUN TIME: 0 days 0 hours 0 minutes 33 seconds 898 msec
