                         Program Version 4.2.1 -  RELEASE  -
|  1> ! wB97X-D3 SP def2-SVP
|  2> %pal
|  3> nprocs 16
|  4> end
|  5>
|  6> * xyz 0 1
|  7> S 	 -64.1996 	 35.1696 	 118.893
|  8> C 	 -64.9863 	 34.9519 	 120.449
|  9> C 	 -65.5681 	 36.1132 	 120.937
| 10> C 	 -65.5947 	 37.1274 	 119.827
| 11> C 	 -64.927 	 36.7371 	 118.673
| 12> H 	 -66.1008 	 38.0516 	 120.039
| 13> C 	 -66.1872 	 36.3069 	 122.354
| 14> H 	 -65.588 	 37.0779 	 122.71
| 15> H 	 -66.0459 	 35.4362 	 123.016
| 16> C 	 -67.6609 	 36.7152 	 122.297
| 17> H 	 -67.8337 	 37.3793 	 123.141
| 18> H 	 -67.7599 	 37.323 	 121.446
| 19> C 	 -68.6772 	 35.521 	 122.235
| 20> H 	 -69.7577 	 35.7964 	 122.36
| 21> H 	 -68.5197 	 34.9084 	 121.309
| 22> H 	 -68.4794 	 34.755 	 122.956
| 23> S 	 -63.2681 	 37.8669 	 116.773
| 24> C 	 -64.0308 	 38.3569 	 115.229
| 25> C 	 -65.3976 	 38.5439 	 115.36
| 26> C 	 -65.8623 	 37.8968 	 116.545
| 27> C 	 -64.8501 	 37.4664 	 117.391
| 28> H 	 -65.9533 	 38.9961 	 114.558
| 29> C 	 -67.3747 	 37.609 	 116.708
| 30> H 	 -67.441 	 36.8324 	 117.457
| 31> H 	 -67.7043 	 37.1464 	 115.764
| 32> C 	 -68.31 	 38.7408 	 117.042
| 33> H 	 -69.3247 	 38.3358 	 116.908
| 34> H 	 -68.1577 	 39.5529 	 116.309
| 35> C 	 -68.2045 	 39.3133 	 118.44
| 36> H 	 -68.4139 	 38.4318 	 119.051
| 37> H 	 -69.0125 	 39.9362 	 118.482
| 38> H 	 -67.3379 	 39.8164 	 118.702
| 39> H 	 -64.7299 	 34.1339 	 121.146
| 40> H 	 -63.3715 	 38.7274 	 114.451
| 41> *
| 42>
| 43>                          ****END OF INPUT****

CARTESIAN COORDINATES (ANGSTROEM)
---------------------------------
  S    -64.199600   35.169600  118.893000
  C    -64.986300   34.951900  120.449000
  C    -65.568100   36.113200  120.937000
  C    -65.594700   37.127400  119.827000
  C    -64.927000   36.737100  118.673000
  H    -66.100800   38.051600  120.039000
  C    -66.187200   36.306900  122.354000
  H    -65.588000   37.077900  122.710000
  H    -66.045900   35.436200  123.016000
  C    -67.660900   36.715200  122.297000
  H    -67.833700   37.379300  123.141000
  H    -67.759900   37.323000  121.446000
  C    -68.677200   35.521000  122.235000
  H    -69.757700   35.796400  122.360000
  H    -68.519700   34.908400  121.309000
  H    -68.479400   34.755000  122.956000
  S    -63.268100   37.866900  116.773000
  C    -64.030800   38.356900  115.229000
  C    -65.397600   38.543900  115.360000
  C    -65.862300   37.896800  116.545000
  C    -64.850100   37.466400  117.391000
  H    -65.953300   38.996100  114.558000
  C    -67.374700   37.609000  116.708000
  H    -67.441000   36.832400  117.457000
  H    -67.704300   37.146400  115.764000
  C    -68.310000   38.740800  117.042000
  H    -69.324700   38.335800  116.908000
  H    -68.157700   39.552900  116.309000
  C    -68.204500   39.313300  118.440000
  H    -68.413900   38.431800  119.051000
  H    -69.012500   39.936200  118.482000
  H    -67.337900   39.816400  118.702000
  H    -64.729900   34.133900  121.146000
  H    -63.371500   38.727400  114.451000

 Total Charge           Charge          ....    0
 Multiplicity           Mult            ....    1
 Number of Electrons    NEL             ....  134
 Basis Dimension        Dim             ....  322

ORBITAL ENERGIES
----------------

  NO   OCC          E(Eh)            E(eV)
   0   2.0000     -88.963623     -2420.8233
   1   2.0000     -88.963435     -2420.8181
   2   2.0000     -10.332719      -281.1676
   3   2.0000     -10.326698      -281.0037
   4   2.0000     -10.321094      -280.8512
   5   2.0000     -10.314188      -280.6633
   6   2.0000     -10.308324      -280.5037
   7   2.0000     -10.304448      -280.3983
   8   2.0000     -10.301137      -280.3082
   9   2.0000     -10.297337      -280.2048
  10   2.0000     -10.296008      -280.1686
  11   2.0000     -10.287988      -279.9504
  12   2.0000     -10.286437      -279.9082
  13   2.0000     -10.284945      -279.8676
  14   2.0000     -10.284880      -279.8658
  15   2.0000     -10.264014      -279.2980
  16   2.0000      -8.078484      -219.8267
  17   2.0000      -8.078044      -219.8148
  18   2.0000      -6.037131      -164.2787
  19   2.0000      -6.036474      -164.2608
  20   2.0000      -6.033032      -164.1672
  21   2.0000      -6.032794      -164.1607
  22   2.0000      -6.029015      -164.0578
  23   2.0000      -6.028682      -164.0488
  24   2.0000      -1.001078       -27.2407
  25   2.0000      -0.977984       -26.6123
  26   2.0000      -0.912148       -24.8208
  27   2.0000      -0.910062       -24.7641
  28   2.0000      -0.865047       -23.5391
  29   2.0000      -0.850963       -23.1559
  30   2.0000      -0.837160       -22.7803
  31   2.0000      -0.812907       -22.1203
  32   2.0000      -0.786191       -21.3934
  33   2.0000      -0.777176       -21.1480
  34   2.0000      -0.712186       -19.3796
  35   2.0000      -0.695454       -18.9243
  36   2.0000      -0.687761       -18.7149
  37   2.0000      -0.659259       -17.9393
  38   2.0000      -0.634306       -17.2603
  39   2.0000      -0.623123       -16.9560
  40   2.0000      -0.596453       -16.2303
  41   2.0000      -0.566405       -15.4127
  42   2.0000      -0.557306       -15.1651
  43   2.0000      -0.555706       -15.1215
  44   2.0000      -0.550742       -14.9864
  45   2.0000      -0.535420       -14.5695
  46   2.0000      -0.517898       -14.0927
  47   2.0000      -0.509988       -13.8775
  48   2.0000      -0.498806       -13.5732
  49   2.0000      -0.493274       -13.4227
  50   2.0000      -0.488647       -13.2968
  51   2.0000      -0.475616       -12.9422
  52   2.0000      -0.467084       -12.7100
  53   2.0000      -0.462416       -12.5830
  54   2.0000      -0.459361       -12.4998
  55   2.0000      -0.450207       -12.2508
  56   2.0000      -0.444041       -12.0830
  57   2.0000      -0.439504       -11.9595
  58   2.0000      -0.435533       -11.8514
  59   2.0000      -0.431866       -11.7517
  60   2.0000      -0.418876       -11.3982
  61   2.0000      -0.413791       -11.2598
  62   2.0000      -0.410819       -11.1790
  63   2.0000      -0.339191        -9.2299
  64   2.0000      -0.330648        -8.9974
  65   2.0000      -0.324584        -8.8324
  66   2.0000      -0.299507        -8.1500
  67   0.0000       0.033375         0.9082
  68   0.0000       0.066977         1.8225
  69   0.0000       0.104423         2.8415
  70   0.0000       0.117174         3.1885
  71   0.0000       0.130200         3.5429

MULLIKEN ATOMIC CHARGES
-----------------------
   0 S :    0.113285
   1 C :   -0.127911
   2 C :   -0.149306
   3 C :    0.038916
   4 C :   -0.140882
   5 H :   -0.000365
   6 C :    0.091377
   7 H :    0.024624
   8 H :    0.026492
   9 C :   -0.039608
  10 H :    0.025850
  11 H :    0.010595
  12 C :   -0.064068
  13 H :    0.050797
  14 H :    0.038413
  15 H :    0.016579
  16 S :    0.093632
  17 C :   -0.109497
  18 C :   -0.015985
  19 C :   -0.036718
  20 C :   -0.156898
  21 H :    0.026872
  22 C :    0.068476
  23 H :    0.020097
  24 H :    0.028950
  25 C :   -0.094409
  26 H :    0.030586
  27 H :    0.021119
  28 C :    0.012099
  29 H :    0.026913
  30 H :    0.010270
  31 H :    0.039760
  32 H :    0.058255
  33 H :    0.061692
Sum of atomic charges:    0.0000000

LOEWDIN ATOMIC CHARGES
----------------------
   0 S :    0.401897
   1 C :   -0.207596
   2 C :   -0.057263
   3 C :   -0.059425
   4 C :   -0.199854
   5 H :    0.023590
   6 C :   -0.021197
   7 H :    0.027822
   8 H :    0.032291
   9 C :   -0.035261
  10 H :    0.025099
  11 H :    0.015758
  12 C :   -0.073060
  13 H :    0.033474
  14 H :    0.034063
  15 H :    0.018510
  16 S :    0.383740
  17 C :   -0.162537
  18 C :   -0.063819
  19 C :   -0.053590
  20 C :   -0.203576
  21 H :    0.033966
  22 C :   -0.031794
  23 H :    0.026151
  24 H :    0.033532
  25 C :   -0.037680
  26 H :    0.029193
  27 H :    0.019652
  28 C :   -0.050608
  29 H :    0.028401
  30 H :    0.018052
  31 H :    0.016531
  32 H :    0.031932
  33 H :    0.023605

  Mayer bond orders larger than 0.100000
B(  0-S ,  1-C ) :   1.1287 B(  0-S ,  4-C ) :   1.1435 B(  1-C ,  2-C ) :   1.6546
B(  1-C , 32-H ) :   0.9564 B(  2-C ,  3-C ) :   1.2089 B(  2-C ,  6-C ) :   1.0116
B(  3-C ,  4-C ) :   1.5901 B(  3-C ,  5-H ) :   0.9928 B(  4-C , 20-C ) :   1.0143
B(  6-C ,  7-H ) :   0.9289 B(  6-C ,  8-H ) :   0.9504 B(  6-C ,  9-C ) :   1.0712
B(  9-C , 10-H ) :   0.9517 B(  9-C , 11-H ) :   0.9603 B(  9-C , 12-C ) :   1.0634
B( 12-C , 13-H ) :   0.9774 B( 12-C , 14-H ) :   0.9746 B( 12-C , 15-H ) :   0.9759
B( 16-S , 17-C ) :   1.1478 B( 16-S , 20-C ) :   1.1406 B( 17-C , 18-C ) :   1.6210
B( 17-C , 33-H ) :   0.9676 B( 18-C , 19-C ) :   1.2150 B( 18-C , 21-H ) :   0.9921
B( 19-C , 20-C ) :   1.6231 B( 19-C , 22-C ) :   1.0286 B( 22-C , 23-H ) :   0.9331
B( 22-C , 24-H ) :   0.9373 B( 22-C , 25-C ) :   1.0833 B( 25-C , 26-H ) :   0.9525
B( 25-C , 27-H ) :   0.9532 B( 25-C , 28-C ) :   1.0802 B( 28-C , 29-H ) :   0.9697
B( 28-C , 30-H ) :   0.9639 B( 28-C , 31-H ) :   0.9717

Dispersion correction           -0.015387866
FINAL SINGLE POINT ENERGY     -1339.867018636453

DIPOLE MOMENT
-------------
                                X             Y             Z
Electronic contribution:     26.85410      -4.82154     -13.67665
Nuclear contribution   :    -27.44806       5.13669      13.91859
                        -----------------------------------------
Total Dipole Moment    :     -0.59396       0.31514       0.24194
                        -----------------------------------------
Magnitude (a.u.)       :      0.71459
Magnitude (Debye)      :      1.81634

Rotational constants in cm-1:     0.019379     0.009592     0.007062
Rotational constants in MHz :   580.972033   287.556970   211.703733

                             ****ORCA TERMINATED NORMALLY****
TOTAL RUN TIME: 0 days 0 hours 0 minutes 31 seconds 627 msec
