                         Program Version 4.2.1 -  RELEASE  -
|  1> ! wB97X-D3 SP def2-SVP
|  2> %pal
|  3> nprocs 16
|  4> end
|  5>
|  6> * xyz 0 1
|  7> S 	 -46.184 	 35.9033 	 98.586
|  8> C 	 -47.3081 	 36.6258 	 97.441
|  9> C 	 -48.6205 	 36.6249 	 97.8776
| 10> C 	 -48.6966 	 35.9419 	 99.0844
| 11> C 	 -47.5316 	 35.5034 	 99.6538
| 12> H 	 -49.6143 	 35.8763 	 99.5645
| 13> C 	 -49.7612 	 37.2698 	 97.1611
| 14> H 	 -49.4524 	 38.1264 	 96.6272
| 15> H 	 -50.5422 	 37.7531 	 97.9075
| 16> C 	 -50.4166 	 36.2433 	 96.2146
| 17> H 	 -51.1718 	 36.7729 	 95.6716
| 18> H 	 -49.6083 	 36.0011 	 95.5843
| 19> C 	 -51.0841 	 35.1232 	 96.9981
| 20> H 	 -51.9592 	 35.3516 	 97.5855
| 21> H 	 -51.4203 	 34.4758 	 96.1781
| 22> H 	 -50.3717 	 34.6404 	 97.656
| 23> S 	 -46.0692 	 33.5819 	 100.885
| 24> C 	 -46.4114 	 33.1697 	 102.561
| 25> C 	 -47.4058 	 33.9447 	 103.086
| 26> C 	 -48.0166 	 34.8037 	 102.151
| 27> C 	 -47.363 	 34.8275 	 100.925
| 28> H 	 -47.7239 	 33.8417 	 104.155
| 29> C 	 -49.1805 	 35.6264 	 102.533
| 30> H 	 -49.8124 	 34.9517 	 103.188
| 31> H 	 -49.9095 	 35.9347 	 101.659
| 32> C 	 -48.8764 	 36.9888 	 103.181
| 33> H 	 -48.3013 	 36.8723 	 104.093
| 34> H 	 -49.9154 	 37.4388 	 103.446
| 35> C 	 -48.151 	 38.0526 	 102.284
| 36> H 	 -48.2216 	 39.0794 	 102.727
| 37> H 	 -48.6664 	 37.9688 	 101.321
| 38> H 	 -47.0916 	 37.7389 	 102.083
| 39> H 	 -46.9467 	 36.9201 	 96.5455
| 40> H 	 -45.967 	 32.3962 	 103.142
| 41> *
| 42>
| 43>                          ****END OF INPUT****

CARTESIAN COORDINATES (ANGSTROEM)
---------------------------------
  S    -46.184000   35.903300   98.586000
  C    -47.308100   36.625800   97.441000
  C    -48.620500   36.624900   97.877600
  C    -48.696600   35.941900   99.084400
  C    -47.531600   35.503400   99.653800
  H    -49.614300   35.876300   99.564500
  C    -49.761200   37.269800   97.161100
  H    -49.452400   38.126400   96.627200
  H    -50.542200   37.753100   97.907500
  C    -50.416600   36.243300   96.214600
  H    -51.171800   36.772900   95.671600
  H    -49.608300   36.001100   95.584300
  C    -51.084100   35.123200   96.998100
  H    -51.959200   35.351600   97.585500
  H    -51.420300   34.475800   96.178100
  H    -50.371700   34.640400   97.656000
  S    -46.069200   33.581900  100.885000
  C    -46.411400   33.169700  102.561000
  C    -47.405800   33.944700  103.086000
  C    -48.016600   34.803700  102.151000
  C    -47.363000   34.827500  100.925000
  H    -47.723900   33.841700  104.155000
  C    -49.180500   35.626400  102.533000
  H    -49.812400   34.951700  103.188000
  H    -49.909500   35.934700  101.659000
  C    -48.876400   36.988800  103.181000
  H    -48.301300   36.872300  104.093000
  H    -49.915400   37.438800  103.446000
  C    -48.151000   38.052600  102.284000
  H    -48.221600   39.079400  102.727000
  H    -48.666400   37.968800  101.321000
  H    -47.091600   37.738900  102.083000
  H    -46.946700   36.920100   96.545500
  H    -45.967000   32.396200  103.142000

 Total Charge           Charge          ....    0
 Multiplicity           Mult            ....    1
 Number of Electrons    NEL             ....  134
 Basis Dimension        Dim             ....  322

ORBITAL ENERGIES
----------------

  NO   OCC          E(Eh)            E(eV)
   0   2.0000     -88.967669     -2420.9334
   1   2.0000     -88.965415     -2420.8720
   2   2.0000     -10.331358      -281.1306
   3   2.0000     -10.329608      -281.0829
   4   2.0000     -10.316077      -280.7147
   5   2.0000     -10.307332      -280.4768
   6   2.0000     -10.304095      -280.3887
   7   2.0000     -10.302842      -280.3546
   8   2.0000     -10.296466      -280.1811
   9   2.0000     -10.295601      -280.1576
  10   2.0000     -10.294200      -280.1194
  11   2.0000     -10.293733      -280.1067
  12   2.0000     -10.282809      -279.8095
  13   2.0000     -10.281734      -279.7802
  14   2.0000     -10.281368      -279.7702
  15   2.0000     -10.273994      -279.5696
  16   2.0000      -8.082016      -219.9228
  17   2.0000      -8.079476      -219.8537
  18   2.0000      -6.040484      -164.3699
  19   2.0000      -6.038063      -164.3041
  20   2.0000      -6.036630      -164.2651
  21   2.0000      -6.034092      -164.1960
  22   2.0000      -6.032806      -164.1610
  23   2.0000      -6.030181      -164.0896
  24   2.0000      -1.008497       -27.4426
  25   2.0000      -0.986650       -26.8481
  26   2.0000      -0.918756       -25.0006
  27   2.0000      -0.905780       -24.6475
  28   2.0000      -0.871401       -23.7120
  29   2.0000      -0.851039       -23.1579
  30   2.0000      -0.843531       -22.9536
  31   2.0000      -0.817096       -22.2343
  32   2.0000      -0.783476       -21.3195
  33   2.0000      -0.771112       -20.9830
  34   2.0000      -0.709271       -19.3002
  35   2.0000      -0.703728       -19.1494
  36   2.0000      -0.686096       -18.6696
  37   2.0000      -0.664263       -18.0755
  38   2.0000      -0.648380       -17.6433
  39   2.0000      -0.628515       -17.1028
  40   2.0000      -0.598328       -16.2813
  41   2.0000      -0.579086       -15.7577
  42   2.0000      -0.550928       -14.9915
  43   2.0000      -0.547201       -14.8901
  44   2.0000      -0.544909       -14.8277
  45   2.0000      -0.532321       -14.4852
  46   2.0000      -0.514483       -13.9998
  47   2.0000      -0.510858       -13.9012
  48   2.0000      -0.502433       -13.6719
  49   2.0000      -0.497645       -13.5416
  50   2.0000      -0.493418       -13.4266
  51   2.0000      -0.481747       -13.1090
  52   2.0000      -0.472562       -12.8591
  53   2.0000      -0.464741       -12.6462
  54   2.0000      -0.457679       -12.4541
  55   2.0000      -0.446573       -12.1519
  56   2.0000      -0.443551       -12.0696
  57   2.0000      -0.438408       -11.9297
  58   2.0000      -0.430897       -11.7253
  59   2.0000      -0.423802       -11.5322
  60   2.0000      -0.417754       -11.3677
  61   2.0000      -0.414073       -11.2675
  62   2.0000      -0.405273       -11.0280
  63   2.0000      -0.354709        -9.6521
  64   2.0000      -0.335861        -9.1392
  65   2.0000      -0.332098        -9.0368
  66   2.0000      -0.282758        -7.6942
  67   0.0000       0.020824         0.5667
  68   0.0000       0.073311         1.9949
  69   0.0000       0.098390         2.6773
  70   0.0000       0.110585         3.0092
  71   0.0000       0.141077         3.8389

MULLIKEN ATOMIC CHARGES
-----------------------
   0 S :    0.106664
   1 C :   -0.094668
   2 C :   -0.073353
   3 C :    0.027182
   4 C :   -0.101069
   5 H :   -0.033590
   6 C :    0.029874
   7 H :    0.013321
   8 H :    0.037668
   9 C :   -0.022277
  10 H :    0.022542
  11 H :    0.020603
  12 C :   -0.053985
  13 H :    0.029898
  14 H :    0.036355
  15 H :    0.048042
  16 S :    0.084492
  17 C :   -0.064247
  18 C :   -0.055595
  19 C :   -0.003901
  20 C :   -0.135807
  21 H :    0.035515
  22 C :   -0.024998
  23 H :    0.040270
  24 H :    0.041615
  25 C :   -0.089328
  26 H :    0.027070
  27 H :    0.039608
  28 C :   -0.069351
  29 H :    0.054774
  30 H :    0.026483
  31 H :    0.054817
  32 H :    0.000169
  33 H :    0.045210
Sum of atomic charges:    0.0000000

LOEWDIN ATOMIC CHARGES
----------------------
   0 S :    0.396145
   1 C :   -0.168398
   2 C :   -0.059934
   3 C :   -0.062609
   4 C :   -0.188613
   5 H :    0.013660
   6 C :   -0.034960
   7 H :    0.021592
   8 H :    0.037724
   9 C :   -0.027351
  10 H :    0.020835
  11 H :    0.020871
  12 C :   -0.064602
  13 H :    0.024403
  14 H :    0.032379
  15 H :    0.026972
  16 S :    0.379856
  17 C :   -0.174573
  18 C :   -0.074132
  19 C :   -0.065865
  20 C :   -0.171894
  21 H :    0.041633
  22 C :   -0.047724
  23 H :    0.039467
  24 H :    0.039062
  25 C :   -0.044148
  26 H :    0.015932
  27 H :    0.031534
  28 C :   -0.073201
  29 H :    0.034078
  30 H :    0.023272
  31 H :    0.032766
  32 H :   -0.000620
  33 H :    0.026445

  Mayer bond orders larger than 0.100000
B(  0-S ,  1-C ) :   1.1476 B(  0-S ,  4-C ) :   1.1426 B(  1-C ,  2-C ) :   1.5721
B(  1-C ,  4-C ) :   0.1060 B(  1-C , 32-H ) :   0.9832 B(  2-C ,  3-C ) :   1.2830
B(  2-C ,  6-C ) :   1.0195 B(  3-C ,  4-C ) :   1.5438 B(  3-C ,  5-H ) :   1.0005
B(  4-C , 20-C ) :   1.0651 B(  6-C ,  7-H ) :   0.9386 B(  6-C ,  8-H ) :   0.9444
B(  6-C ,  9-C ) :   1.0666 B(  9-C , 10-H ) :   0.9534 B(  9-C , 11-H ) :   0.9545
B(  9-C , 12-C ) :   1.0806 B( 12-C , 13-H ) :   0.9740 B( 12-C , 14-H ) :   0.9712
B( 12-C , 15-H ) :   0.9700 B( 16-S , 17-C ) :   1.1423 B( 16-S , 20-C ) :   1.1211
B( 17-C , 18-C ) :   1.6277 B( 17-C , 20-C ) :   0.1022 B( 17-C , 33-H ) :   0.9682
B( 18-C , 19-C ) :   1.2357 B( 18-C , 21-H ) :   0.9784 B( 19-C , 20-C ) :   1.5938
B( 19-C , 22-C ) :   1.0398 B( 22-C , 23-H ) :   0.9286 B( 22-C , 24-H ) :   0.9403
B( 22-C , 25-C ) :   1.0726 B( 25-C , 26-H ) :   0.9561 B( 25-C , 27-H ) :   0.9555
B( 25-C , 28-C ) :   1.0657 B( 28-C , 29-H ) :   0.9736 B( 28-C , 30-H ) :   0.9733
B( 28-C , 31-H ) :   0.9725

Dispersion correction           -0.015671013
FINAL SINGLE POINT ENERGY     -1339.868350182336

DIPOLE MOMENT
-------------
                                X             Y             Z
Electronic contribution:     21.82510     -11.52087       0.60636
Nuclear contribution   :    -22.42881      11.72178      -0.52810
                        -----------------------------------------
Total Dipole Moment    :     -0.60371       0.20091       0.07826
                        -----------------------------------------
Magnitude (a.u.)       :      0.64106
Magnitude (Debye)      :      1.62945

Rotational constants in cm-1:     0.019554     0.009327     0.008029
Rotational constants in MHz :   586.205898   279.611535   240.712205

                             ****ORCA TERMINATED NORMALLY****
TOTAL RUN TIME: 0 days 0 hours 0 minutes 33 seconds 303 msec
