                         Program Version 4.2.1 -  RELEASE  -
|  1> ! wB97X-D3 SP def2-SVP
|  2> %pal
|  3> nprocs 16
|  4> end
|  5>
|  6> * xyz 0 1
|  7> S 	 -8.63343 	 34.4228 	 52.3258
|  8> C 	 -8.21358 	 33.3356 	 53.6496
|  9> C 	 -6.88702 	 32.8779 	 53.4876
| 10> C 	 -6.19175 	 33.4828 	 52.4314
| 11> C 	 -6.98827 	 34.3352 	 51.7674
| 12> H 	 -5.19973 	 33.2923 	 52.1265
| 13> C 	 -6.13327 	 31.9416 	 54.4403
| 14> H 	 -6.07881 	 30.9682 	 53.8813
| 15> H 	 -6.79463 	 31.6314 	 55.229
| 16> C 	 -4.68767 	 32.3338 	 54.9448
| 17> H 	 -4.22895 	 31.5009 	 55.5061
| 18> H 	 -4.02643 	 32.4869 	 54.1369
| 19> C 	 -4.60812 	 33.595 	 55.7908
| 20> H 	 -4.917 	 34.5224 	 55.28
| 21> H 	 -5.35154 	 33.5259 	 56.6015
| 22> H 	 -3.53679 	 33.7067 	 56.0849
| 23> S 	 -6.44568 	 36.7423 	 50.4715
| 24> C 	 -6.23508 	 36.738 	 48.743
| 25> C 	 -6.20592 	 35.4331 	 48.2399
| 26> C 	 -6.43339 	 34.4125 	 49.2124
| 27> C 	 -6.60412 	 35.0067 	 50.5033
| 28> H 	 -6.22881 	 35.2258 	 47.1747
| 29> C 	 -6.55851 	 32.8929 	 48.9666
| 30> H 	 -7.21636 	 32.6502 	 48.1066
| 31> H 	 -6.9344 	 32.4259 	 49.8416
| 32> C 	 -5.14094 	 32.2218 	 48.7267
| 33> H 	 -4.6933 	 32.0568 	 49.7165
| 34> H 	 -4.39712 	 32.8212 	 48.1809
| 35> C 	 -5.1632 	 30.7556 	 48.2065
| 36> H 	 -5.6554 	 29.971 	 48.7989
| 37> H 	 -4.11787 	 30.4584 	 47.9396
| 38> H 	 -5.61536 	 30.7122 	 47.1905
| 39> H 	 -8.8636 	 33.1267 	 54.5569
| 40> H 	 -6.31721 	 37.6436 	 48.1851
| 41> *
| 42>
| 43>                          ****END OF INPUT****

CARTESIAN COORDINATES (ANGSTROEM)
---------------------------------
  S     -8.633430   34.422800   52.325800
  C     -8.213580   33.335600   53.649600
  C     -6.887020   32.877900   53.487600
  C     -6.191750   33.482800   52.431400
  C     -6.988270   34.335200   51.767400
  H     -5.199730   33.292300   52.126500
  C     -6.133270   31.941600   54.440300
  H     -6.078810   30.968200   53.881300
  H     -6.794630   31.631400   55.229000
  C     -4.687670   32.333800   54.944800
  H     -4.228950   31.500900   55.506100
  H     -4.026430   32.486900   54.136900
  C     -4.608120   33.595000   55.790800
  H     -4.917000   34.522400   55.280000
  H     -5.351540   33.525900   56.601500
  H     -3.536790   33.706700   56.084900
  S     -6.445680   36.742300   50.471500
  C     -6.235080   36.738000   48.743000
  C     -6.205920   35.433100   48.239900
  C     -6.433390   34.412500   49.212400
  C     -6.604120   35.006700   50.503300
  H     -6.228810   35.225800   47.174700
  C     -6.558510   32.892900   48.966600
  H     -7.216360   32.650200   48.106600
  H     -6.934400   32.425900   49.841600
  C     -5.140940   32.221800   48.726700
  H     -4.693300   32.056800   49.716500
  H     -4.397120   32.821200   48.180900
  C     -5.163200   30.755600   48.206500
  H     -5.655400   29.971000   48.798900
  H     -4.117870   30.458400   47.939600
  H     -5.615360   30.712200   47.190500
  H     -8.863600   33.126700   54.556900
  H     -6.317210   37.643600   48.185100

 Total Charge           Charge          ....    0
 Multiplicity           Mult            ....    1
 Number of Electrons    NEL             ....  134
 Basis Dimension        Dim             ....  322

ORBITAL ENERGIES
----------------

  NO   OCC          E(Eh)            E(eV)
   0   2.0000     -88.968742     -2420.9625
   1   2.0000     -88.966777     -2420.9091
   2   2.0000     -10.325781      -280.9788
   3   2.0000     -10.323389      -280.9137
   4   2.0000     -10.321649      -280.8663
   5   2.0000     -10.316770      -280.7336
   6   2.0000     -10.309179      -280.5270
   7   2.0000     -10.303272      -280.3663
   8   2.0000     -10.297190      -280.2008
   9   2.0000     -10.296931      -280.1937
  10   2.0000     -10.296309      -280.1768
  11   2.0000     -10.292301      -280.0677
  12   2.0000     -10.289192      -279.9831
  13   2.0000     -10.285054      -279.8705
  14   2.0000     -10.284545      -279.8567
  15   2.0000     -10.279014      -279.7062
  16   2.0000      -8.083257      -219.9566
  17   2.0000      -8.081634      -219.9125
  18   2.0000      -6.041693      -164.4028
  19   2.0000      -6.039945      -164.3553
  20   2.0000      -6.037874      -164.2989
  21   2.0000      -6.036033      -164.2488
  22   2.0000      -6.034024      -164.1941
  23   2.0000      -6.032722      -164.1587
  24   2.0000      -1.006391       -27.3853
  25   2.0000      -0.981785       -26.7157
  26   2.0000      -0.904132       -24.6027
  27   2.0000      -0.898531       -24.4503
  28   2.0000      -0.862657       -23.4741
  29   2.0000      -0.852941       -23.2097
  30   2.0000      -0.846755       -23.0414
  31   2.0000      -0.812466       -22.1083
  32   2.0000      -0.781216       -21.2580
  33   2.0000      -0.765657       -20.8346
  34   2.0000      -0.703058       -19.1312
  35   2.0000      -0.695344       -18.9213
  36   2.0000      -0.689350       -18.7582
  37   2.0000      -0.656093       -17.8532
  38   2.0000      -0.641519       -17.4566
  39   2.0000      -0.625141       -17.0110
  40   2.0000      -0.597781       -16.2664
  41   2.0000      -0.559808       -15.2331
  42   2.0000      -0.554129       -15.0786
  43   2.0000      -0.546913       -14.8822
  44   2.0000      -0.536863       -14.6088
  45   2.0000      -0.522800       -14.2261
  46   2.0000      -0.515578       -14.0296
  47   2.0000      -0.507533       -13.8107
  48   2.0000      -0.504596       -13.7308
  49   2.0000      -0.497282       -13.5317
  50   2.0000      -0.486192       -13.2300
  51   2.0000      -0.476389       -12.9632
  52   2.0000      -0.467578       -12.7234
  53   2.0000      -0.463218       -12.6048
  54   2.0000      -0.455855       -12.4044
  55   2.0000      -0.450335       -12.2542
  56   2.0000      -0.449574       -12.2335
  57   2.0000      -0.437865       -11.9149
  58   2.0000      -0.433118       -11.7857
  59   2.0000      -0.422777       -11.5043
  60   2.0000      -0.420978       -11.4554
  61   2.0000      -0.415444       -11.3048
  62   2.0000      -0.411631       -11.2011
  63   2.0000      -0.340634        -9.2691
  64   2.0000      -0.331665        -9.0251
  65   2.0000      -0.320607        -8.7242
  66   2.0000      -0.302095        -8.2204
  67   0.0000       0.036116         0.9828
  68   0.0000       0.063251         1.7212
  69   0.0000       0.114548         3.1170
  70   0.0000       0.121193         3.2978
  71   0.0000       0.126958         3.4547

MULLIKEN ATOMIC CHARGES
-----------------------
   0 S :    0.127470
   1 C :   -0.155957
   2 C :   -0.086301
   3 C :    0.043154
   4 C :   -0.146002
   5 H :    0.001326
   6 C :    0.057110
   7 H :    0.038185
   8 H :    0.004707
   9 C :   -0.055800
  10 H :    0.034381
  11 H :    0.015961
  12 C :   -0.062591
  13 H :    0.039455
  14 H :    0.028912
  15 H :    0.044798
  16 S :    0.118472
  17 C :   -0.100429
  18 C :   -0.025649
  19 C :   -0.021600
  20 C :   -0.212151
  21 H :    0.022060
  22 C :    0.102372
  23 H :    0.037845
  24 H :    0.027599
  25 C :   -0.105742
  26 H :    0.026922
  27 H :    0.041159
  28 C :   -0.077476
  29 H :    0.046885
  30 H :    0.034641
  31 H :    0.023455
  32 H :    0.074544
  33 H :    0.058287
Sum of atomic charges:    0.0000000

LOEWDIN ATOMIC CHARGES
----------------------
   0 S :    0.410519
   1 C :   -0.214963
   2 C :   -0.061300
   3 C :   -0.058942
   4 C :   -0.193927
   5 H :    0.029505
   6 C :   -0.038326
   7 H :    0.040668
   8 H :    0.022971
   9 C :   -0.041378
  10 H :    0.031001
  11 H :    0.015327
  12 C :   -0.069927
  13 H :    0.027808
  14 H :    0.024718
  15 H :    0.033209
  16 S :    0.419541
  17 C :   -0.189598
  18 C :   -0.071624
  19 C :   -0.049034
  20 C :   -0.211917
  21 H :    0.031771
  22 C :   -0.023086
  23 H :    0.033090
  24 H :    0.028293
  25 C :   -0.044747
  26 H :    0.024227
  27 H :    0.026399
  28 C :   -0.079183
  29 H :    0.026931
  30 H :    0.032289
  31 H :    0.022158
  32 H :    0.042864
  33 H :    0.024663

  Mayer bond orders larger than 0.100000
B(  0-S ,  1-C ) :   1.1308 B(  0-S ,  4-C ) :   1.1675 B(  1-C ,  2-C ) :   1.6029
B(  1-C , 32-H ) :   0.9591 B(  2-C ,  3-C ) :   1.2269 B(  2-C ,  6-C ) :   1.0245
B(  3-C ,  4-C ) :   1.5844 B(  3-C ,  5-H ) :   1.0102 B(  4-C , 20-C ) :   0.9953
B(  6-C ,  7-H ) :   0.9314 B(  6-C ,  8-H ) :   0.9420 B(  6-C ,  9-C ) :   1.0651
B(  9-C , 10-H ) :   0.9536 B(  9-C , 11-H ) :   0.9522 B(  9-C , 12-C ) :   1.0782
B( 12-C , 13-H ) :   0.9742 B( 12-C , 14-H ) :   0.9762 B( 12-C , 15-H ) :   0.9728
B( 16-S , 17-C ) :   1.1682 B( 16-S , 20-C ) :   1.1745 B( 17-C , 18-C ) :   1.5730
B( 17-C , 20-C ) :   0.1060 B( 17-C , 33-H ) :   0.9733 B( 18-C , 19-C ) :   1.2752
B( 18-C , 21-H ) :   0.9852 B( 19-C , 20-C ) :   1.5551 B( 19-C , 22-C ) :   1.0471
B( 22-C , 23-H ) :   0.9469 B( 22-C , 24-H ) :   0.9282 B( 22-C , 25-C ) :   1.0414
B( 25-C , 26-H ) :   0.9557 B( 25-C , 27-H ) :   0.9650 B( 25-C , 28-C ) :   1.0765
B( 28-C , 29-H ) :   0.9767 B( 28-C , 30-H ) :   0.9725 B( 28-C , 31-H ) :   0.9739

Dispersion correction           -0.014691122
FINAL SINGLE POINT ENERGY     -1339.878409356827

DIPOLE MOMENT
-------------
                                X             Y             Z
Electronic contribution:    -14.95539      21.33215      -3.36838
Nuclear contribution   :     15.19139     -21.81138       3.30625
                        -----------------------------------------
Total Dipole Moment    :      0.23600      -0.47923      -0.06212
                        -----------------------------------------
Magnitude (a.u.)       :      0.53779
Magnitude (Debye)      :      1.36695

Rotational constants in cm-1:     0.016149     0.009301     0.007449
Rotational constants in MHz :   484.138073   278.824146   223.311650

                             ****ORCA TERMINATED NORMALLY****
TOTAL RUN TIME: 0 days 0 hours 0 minutes 32 seconds 943 msec
