                         Program Version 4.2.1 -  RELEASE  -
|  1> ! wB97X-D3 SP def2-SVP
|  2> %pal
|  3> nprocs 16
|  4> end
|  5>
|  6> * xyz 0 1
|  7> S 	 -64.1291 	 62.081 	 125.962
|  8> C 	 -63.1248 	 63.489 	 125.727
|  9> C 	 -63.9575 	 64.4413 	 125.232
| 10> C 	 -65.3496 	 64.168 	 125.284
| 11> C 	 -65.6342 	 62.8579 	 125.569
| 12> H 	 -66.1611 	 64.8049 	 125.06
| 13> C 	 -63.4844 	 65.6954 	 124.609
| 14> H 	 -63.849 	 65.6549 	 123.623
| 15> H 	 -62.442 	 65.6541 	 124.426
| 16> C 	 -63.8484 	 66.9297 	 125.453
| 17> H 	 -64.755 	 66.7339 	 126.039
| 18> H 	 -63.0222 	 67.0824 	 126.221
| 19> C 	 -63.9503 	 68.1734 	 124.517
| 20> H 	 -63.0114 	 68.4872 	 124.001
| 21> H 	 -64.6476 	 68.0845 	 123.736
| 22> H 	 -64.2254 	 69.0514 	 125.108
| 23> S 	 -67.2971 	 61.2338 	 126.86
| 24> C 	 -68.9861 	 61.0154 	 126.285
| 25> C 	 -68.9906 	 61.286 	 124.938
| 26> C 	 -67.8602 	 62.0185 	 124.481
| 27> C 	 -66.899 	 62.1945 	 125.44
| 28> H 	 -69.8652 	 60.9798 	 124.365
| 29> C 	 -67.733 	 62.5149 	 123.018
| 30> H 	 -67.4788 	 63.5479 	 123.14
| 31> H 	 -68.6415 	 62.5805 	 122.447
| 32> C 	 -66.8256 	 61.6682 	 122.21
| 33> H 	 -67.2133 	 60.6184 	 122.129
| 34> H 	 -65.9177 	 61.5316 	 122.78
| 35> C 	 -66.5157 	 62.1622 	 120.819
| 36> H 	 -67.366 	 62.0867 	 120.156
| 37> H 	 -65.6112 	 61.6126 	 120.379
| 38> H 	 -66.3368 	 63.1774 	 120.646
| 39> H 	 -62.0519 	 63.3978 	 125.699
| 40> H 	 -69.7865 	 60.3368 	 126.566
| 41> *
| 42>
| 43>                          ****END OF INPUT****

CARTESIAN COORDINATES (ANGSTROEM)
---------------------------------
  S    -64.129100   62.081000  125.962000
  C    -63.124800   63.489000  125.727000
  C    -63.957500   64.441300  125.232000
  C    -65.349600   64.168000  125.284000
  C    -65.634200   62.857900  125.569000
  H    -66.161100   64.804900  125.060000
  C    -63.484400   65.695400  124.609000
  H    -63.849000   65.654900  123.623000
  H    -62.442000   65.654100  124.426000
  C    -63.848400   66.929700  125.453000
  H    -64.755000   66.733900  126.039000
  H    -63.022200   67.082400  126.221000
  C    -63.950300   68.173400  124.517000
  H    -63.011400   68.487200  124.001000
  H    -64.647600   68.084500  123.736000
  H    -64.225400   69.051400  125.108000
  S    -67.297100   61.233800  126.860000
  C    -68.986100   61.015400  126.285000
  C    -68.990600   61.286000  124.938000
  C    -67.860200   62.018500  124.481000
  C    -66.899000   62.194500  125.440000
  H    -69.865200   60.979800  124.365000
  C    -67.733000   62.514900  123.018000
  H    -67.478800   63.547900  123.140000
  H    -68.641500   62.580500  122.447000
  C    -66.825600   61.668200  122.210000
  H    -67.213300   60.618400  122.129000
  H    -65.917700   61.531600  122.780000
  C    -66.515700   62.162200  120.819000
  H    -67.366000   62.086700  120.156000
  H    -65.611200   61.612600  120.379000
  H    -66.336800   63.177400  120.646000
  H    -62.051900   63.397800  125.699000
  H    -69.786500   60.336800  126.566000

 Total Charge           Charge          ....    0
 Multiplicity           Mult            ....    1
 Number of Electrons    NEL             ....  134
 Basis Dimension        Dim             ....  322

ORBITAL ENERGIES
----------------

  NO   OCC          E(Eh)            E(eV)
   0   2.0000     -88.963726     -2420.8260
   1   2.0000     -88.959798     -2420.7192
   2   2.0000     -10.329513      -281.0803
   3   2.0000     -10.329255      -281.0733
   4   2.0000     -10.317764      -280.7606
   5   2.0000     -10.312159      -280.6081
   6   2.0000     -10.307895      -280.4921
   7   2.0000     -10.296131      -280.1720
   8   2.0000     -10.295548      -280.1561
   9   2.0000     -10.294821      -280.1363
  10   2.0000     -10.288463      -279.9633
  11   2.0000     -10.287033      -279.9244
  12   2.0000     -10.281862      -279.7837
  13   2.0000     -10.278583      -279.6945
  14   2.0000     -10.278084      -279.6809
  15   2.0000     -10.274990      -279.5967
  16   2.0000      -8.077772      -219.8073
  17   2.0000      -8.075192      -219.7371
  18   2.0000      -6.036566      -164.2633
  19   2.0000      -6.033736      -164.1863
  20   2.0000      -6.032528      -164.1534
  21   2.0000      -6.029520      -164.0716
  22   2.0000      -6.028061      -164.0319
  23   2.0000      -6.025917      -163.9735
  24   2.0000      -1.014429       -27.6040
  25   2.0000      -0.989644       -26.9296
  26   2.0000      -0.915777       -24.9196
  27   2.0000      -0.913798       -24.8657
  28   2.0000      -0.877269       -23.8717
  29   2.0000      -0.849024       -23.1031
  30   2.0000      -0.842521       -22.9262
  31   2.0000      -0.824453       -22.4345
  32   2.0000      -0.782619       -21.2962
  33   2.0000      -0.774427       -21.0732
  34   2.0000      -0.716087       -19.4857
  35   2.0000      -0.705086       -19.1864
  36   2.0000      -0.699556       -19.0359
  37   2.0000      -0.664544       -18.0832
  38   2.0000      -0.651824       -17.7370
  39   2.0000      -0.625995       -17.0342
  40   2.0000      -0.593470       -16.1491
  41   2.0000      -0.569804       -15.5051
  42   2.0000      -0.560462       -15.2510
  43   2.0000      -0.553263       -15.0550
  44   2.0000      -0.536391       -14.5959
  45   2.0000      -0.528690       -14.3864
  46   2.0000      -0.522999       -14.2315
  47   2.0000      -0.517947       -14.0941
  48   2.0000      -0.507265       -13.8034
  49   2.0000      -0.503184       -13.6923
  50   2.0000      -0.499984       -13.6053
  51   2.0000      -0.485438       -13.2094
  52   2.0000      -0.468624       -12.7519
  53   2.0000      -0.466854       -12.7037
  54   2.0000      -0.462452       -12.5840
  55   2.0000      -0.450956       -12.2711
  56   2.0000      -0.446366       -12.1462
  57   2.0000      -0.437326       -11.9002
  58   2.0000      -0.434980       -11.8364
  59   2.0000      -0.421399       -11.4668
  60   2.0000      -0.417770       -11.3681
  61   2.0000      -0.404815       -11.0156
  62   2.0000      -0.401074       -10.9138
  63   2.0000      -0.350566        -9.5394
  64   2.0000      -0.328811        -8.9474
  65   2.0000      -0.324390        -8.8271
  66   2.0000      -0.299321        -8.1449
  67   0.0000       0.025623         0.6972
  68   0.0000       0.064883         1.7656
  69   0.0000       0.101036         2.7493
  70   0.0000       0.121751         3.3130
  71   0.0000       0.136574         3.7164

MULLIKEN ATOMIC CHARGES
-----------------------
   0 S :    0.087963
   1 C :   -0.108246
   2 C :   -0.118363
   3 C :    0.036407
   4 C :   -0.112252
   5 H :    0.001899
   6 C :    0.116693
   7 H :    0.018405
   8 H :   -0.003524
   9 C :   -0.089290
  10 H :    0.044396
  11 H :    0.043092
  12 C :   -0.045916
  13 H :    0.032036
  14 H :    0.021570
  15 H :    0.030099
  16 S :    0.087661
  17 C :   -0.062155
  18 C :   -0.081398
  19 C :   -0.027907
  20 C :   -0.179641
  21 H :    0.027360
  22 C :    0.115891
  23 H :    0.010215
  24 H :    0.001341
  25 C :   -0.062214
  26 H :    0.030411
  27 H :    0.025483
  28 C :   -0.025070
  29 H :    0.014216
  30 H :    0.046975
  31 H :    0.005814
  32 H :    0.057501
  33 H :    0.060548
Sum of atomic charges:    0.0000000

LOEWDIN ATOMIC CHARGES
----------------------
   0 S :    0.400172
   1 C :   -0.196426
   2 C :   -0.062968
   3 C :   -0.064272
   4 C :   -0.194873
   5 H :    0.025716
   6 C :   -0.030946
   7 H :    0.026796
   8 H :    0.023761
   9 C :   -0.034973
  10 H :    0.026047
  11 H :    0.035312
  12 C :   -0.068824
  13 H :    0.030162
  14 H :    0.015248
  15 H :    0.025915
  16 S :    0.386886
  17 C :   -0.181241
  18 C :   -0.068222
  19 C :   -0.050274
  20 C :   -0.185622
  21 H :    0.033744
  22 C :   -0.028665
  23 H :    0.026776
  24 H :    0.024676
  25 C :   -0.045788
  26 H :    0.033218
  27 H :    0.022711
  28 C :   -0.070754
  29 H :    0.022727
  30 H :    0.040065
  31 H :    0.015480
  32 H :    0.032076
  33 H :    0.036363

  Mayer bond orders larger than 0.100000
B(  0-S ,  1-C ) :   1.1171 B(  0-S ,  4-C ) :   1.1574 B(  1-C ,  2-C ) :   1.6089
B(  1-C , 32-H ) :   0.9760 B(  2-C ,  3-C ) :   1.2170 B(  2-C ,  6-C ) :   1.0316
B(  3-C ,  4-C ) :   1.5795 B(  3-C ,  5-H ) :   1.0056 B(  4-C , 20-C ) :   1.0389
B(  6-C ,  7-H ) :   0.9432 B(  6-C ,  8-H ) :   0.9297 B(  6-C ,  9-C ) :   1.0357
B(  9-C , 10-H ) :   0.9698 B(  9-C , 11-H ) :   0.9534 B(  9-C , 12-C ) :   1.0668
B( 12-C , 13-H ) :   0.9744 B( 12-C , 14-H ) :   0.9809 B( 12-C , 15-H ) :   0.9745
B( 16-S , 17-C ) :   1.1247 B( 16-S , 20-C ) :   1.1273 B( 17-C , 18-C ) :   1.6461
B( 17-C , 20-C ) :   0.1101 B( 17-C , 33-H ) :   0.9585 B( 18-C , 19-C ) :   1.2298
B( 18-C , 21-H ) :   0.9831 B( 19-C , 20-C ) :   1.6116 B( 19-C , 22-C ) :   1.0253
B( 22-C , 23-H ) :   0.9298 B( 22-C , 24-H ) :   0.9317 B( 22-C , 25-C ) :   1.0720
B( 25-C , 26-H ) :   0.9459 B( 25-C , 27-H ) :   0.9576 B( 25-C , 28-C ) :   1.0821
B( 28-C , 29-H ) :   0.9684 B( 28-C , 30-H ) :   0.9731 B( 28-C , 31-H ) :   0.9724

Dispersion correction           -0.014200522
FINAL SINGLE POINT ENERGY     -1339.847346858960

DIPOLE MOMENT
-------------
                                X             Y             Z
Electronic contribution:     -3.03317     -18.79597      20.65632
Nuclear contribution   :      2.95814      19.17124     -21.41827
                        -----------------------------------------
Total Dipole Moment    :     -0.07503       0.37527      -0.76194
                        -----------------------------------------
Magnitude (a.u.)       :      0.85265
Magnitude (Debye)      :      2.16726

Rotational constants in cm-1:     0.017766     0.008652     0.007256
Rotational constants in MHz :   532.607291   259.367884   217.539871

                             ****ORCA TERMINATED NORMALLY****
TOTAL RUN TIME: 0 days 0 hours 0 minutes 36 seconds 595 msec
