                         Program Version 4.2.1 -  RELEASE  -
|  1> ! wB97X-D3 SP def2-SVP
|  2> %pal
|  3> nprocs 16
|  4> end
|  5>
|  6> * xyz 0 1
|  7> S 	 -55.7891 	 27.4454 	 94.2004
|  8> C 	 -54.2595 	 28.2737 	 94.6003
|  9> C 	 -53.2798 	 27.9541 	 93.6733
| 10> C 	 -53.6707 	 26.7896 	 92.9048
| 11> C 	 -55.0173 	 26.4489 	 92.997
| 12> H 	 -53.0598 	 26.4002 	 92.11
| 13> C 	 -51.9475 	 28.569 	 93.8203
| 14> H 	 -51.2925 	 27.92 	 93.3995
| 15> H 	 -51.6094 	 28.6196 	 94.8749
| 16> C 	 -51.6978 	 29.8494 	 93.0679
| 17> H 	 -51.9751 	 29.7428 	 91.9861
| 18> H 	 -52.3725 	 30.5905 	 93.5163
| 19> C 	 -50.3198 	 30.4957 	 93.1832
| 20> H 	 -50.0634 	 30.4113 	 94.2566
| 21> H 	 -49.5725 	 29.9179 	 92.7294
| 22> H 	 -50.2803 	 31.5799 	 93.0702
| 23> S 	 -55.5492 	 23.7978 	 92.7429
| 24> C 	 -56.3792 	 23.1753 	 91.2904
| 25> C 	 -56.9029 	 24.2035 	 90.5453
| 26> C 	 -56.4132 	 25.5027 	 90.9744
| 27> C 	 -55.718 	 25.4397 	 92.195
| 28> H 	 -57.4782 	 24.0623 	 89.6624
| 29> C 	 -56.7368 	 26.7072 	 90.193
| 30> H 	 -56.4186 	 26.5991 	 89.134
| 31> H 	 -56.1206 	 27.4673 	 90.6295
| 32> C 	 -58.1885 	 27.1736 	 90.3265
| 33> H 	 -58.3825 	 27.2843 	 91.4144
| 34> H 	 -58.8513 	 26.4088 	 90.0184
| 35> C 	 -58.3682 	 28.4935 	 89.4589
| 36> H 	 -57.5891 	 29.2087 	 89.7169
| 37> H 	 -59.3592 	 28.8153 	 89.6377
| 38> H 	 -58.2098 	 28.2486 	 88.4147
| 39> H 	 -54.1854 	 29.2448 	 95.0426
| 40> H 	 -56.5521 	 22.1124 	 91.0735
| 41> *
| 42>
| 43>                          ****END OF INPUT****

CARTESIAN COORDINATES (ANGSTROEM)
---------------------------------
  S    -55.789100   27.445400   94.200400
  C    -54.259500   28.273700   94.600300
  C    -53.279800   27.954100   93.673300
  C    -53.670700   26.789600   92.904800
  C    -55.017300   26.448900   92.997000
  H    -53.059800   26.400200   92.110000
  C    -51.947500   28.569000   93.820300
  H    -51.292500   27.920000   93.399500
  H    -51.609400   28.619600   94.874900
  C    -51.697800   29.849400   93.067900
  H    -51.975100   29.742800   91.986100
  H    -52.372500   30.590500   93.516300
  C    -50.319800   30.495700   93.183200
  H    -50.063400   30.411300   94.256600
  H    -49.572500   29.917900   92.729400
  H    -50.280300   31.579900   93.070200
  S    -55.549200   23.797800   92.742900
  C    -56.379200   23.175300   91.290400
  C    -56.902900   24.203500   90.545300
  C    -56.413200   25.502700   90.974400
  C    -55.718000   25.439700   92.195000
  H    -57.478200   24.062300   89.662400
  C    -56.736800   26.707200   90.193000
  H    -56.418600   26.599100   89.134000
  H    -56.120600   27.467300   90.629500
  C    -58.188500   27.173600   90.326500
  H    -58.382500   27.284300   91.414400
  H    -58.851300   26.408800   90.018400
  C    -58.368200   28.493500   89.458900
  H    -57.589100   29.208700   89.716900
  H    -59.359200   28.815300   89.637700
  H    -58.209800   28.248600   88.414700
  H    -54.185400   29.244800   95.042600
  H    -56.552100   22.112400   91.073500

 Total Charge           Charge          ....    0
 Multiplicity           Mult            ....    1
 Number of Electrons    NEL             ....  134
 Basis Dimension        Dim             ....  322

ORBITAL ENERGIES
----------------

  NO   OCC          E(Eh)            E(eV)
   0   2.0000     -88.967011     -2420.9155
   1   2.0000     -88.963917     -2420.8312
   2   2.0000     -10.333292      -281.1832
   3   2.0000     -10.327448      -281.0242
   4   2.0000     -10.321568      -280.8642
   5   2.0000     -10.311240      -280.5831
   6   2.0000     -10.303614      -280.3756
   7   2.0000     -10.302005      -280.3318
   8   2.0000     -10.297663      -280.2137
   9   2.0000     -10.293090      -280.0892
  10   2.0000     -10.288819      -279.9730
  11   2.0000     -10.285676      -279.8875
  12   2.0000     -10.283837      -279.8374
  13   2.0000     -10.283057      -279.8162
  14   2.0000     -10.277601      -279.6677
  15   2.0000     -10.277452      -279.6637
  16   2.0000      -8.081089      -219.8976
  17   2.0000      -8.078357      -219.8233
  18   2.0000      -6.039618      -164.3464
  19   2.0000      -6.036992      -164.2749
  20   2.0000      -6.035584      -164.2366
  21   2.0000      -6.032864      -164.1626
  22   2.0000      -6.031964      -164.1381
  23   2.0000      -6.029033      -164.0583
  24   2.0000      -1.002827       -27.2883
  25   2.0000      -0.981052       -26.6958
  26   2.0000      -0.921545       -25.0765
  27   2.0000      -0.909720       -24.7547
  28   2.0000      -0.871009       -23.7014
  29   2.0000      -0.848711       -23.0946
  30   2.0000      -0.843932       -22.9645
  31   2.0000      -0.816734       -22.2245
  32   2.0000      -0.786436       -21.4000
  33   2.0000      -0.768227       -20.9045
  34   2.0000      -0.707787       -19.2599
  35   2.0000      -0.702056       -19.1039
  36   2.0000      -0.697126       -18.9697
  37   2.0000      -0.663409       -18.0523
  38   2.0000      -0.638969       -17.3872
  39   2.0000      -0.616673       -16.7805
  40   2.0000      -0.596405       -16.2290
  41   2.0000      -0.579078       -15.7575
  42   2.0000      -0.566938       -15.4272
  43   2.0000      -0.561219       -15.2716
  44   2.0000      -0.530241       -14.4286
  45   2.0000      -0.526194       -14.3185
  46   2.0000      -0.521064       -14.1789
  47   2.0000      -0.514095       -13.9892
  48   2.0000      -0.508264       -13.8306
  49   2.0000      -0.499364       -13.5884
  50   2.0000      -0.496771       -13.5178
  51   2.0000      -0.473631       -12.8882
  52   2.0000      -0.466855       -12.7038
  53   2.0000      -0.463051       -12.6003
  54   2.0000      -0.457452       -12.4479
  55   2.0000      -0.452679       -12.3180
  56   2.0000      -0.444791       -12.1034
  57   2.0000      -0.439935       -11.9712
  58   2.0000      -0.429402       -11.6846
  59   2.0000      -0.424457       -11.5501
  60   2.0000      -0.422240       -11.4897
  61   2.0000      -0.416031       -11.3208
  62   2.0000      -0.410995       -11.1837
  63   2.0000      -0.335073        -9.1178
  64   2.0000      -0.329772        -8.9736
  65   2.0000      -0.320444        -8.7197
  66   2.0000      -0.310249        -8.4423
  67   0.0000       0.038100         1.0368
  68   0.0000       0.052772         1.4360
  69   0.0000       0.107607         2.9281
  70   0.0000       0.117077         3.1858
  71   0.0000       0.123591         3.3631

MULLIKEN ATOMIC CHARGES
-----------------------
   0 S :    0.109897
   1 C :   -0.088811
   2 C :   -0.138694
   3 C :    0.074073
   4 C :   -0.178819
   5 H :    0.012850
   6 C :    0.096980
   7 H :   -0.020427
   8 H :    0.040188
   9 C :   -0.101591
  10 H :    0.038393
  11 H :    0.016162
  12 C :   -0.011855
  13 H :    0.006720
  14 H :    0.024164
  15 H :    0.044310
  16 S :    0.109450
  17 C :   -0.098590
  18 C :   -0.005788
  19 C :   -0.043263
  20 C :   -0.171286
  21 H :    0.012477
  22 C :    0.055632
  23 H :    0.031134
  24 H :    0.015959
  25 C :   -0.089863
  26 H :    0.033563
  27 H :    0.017382
  28 C :   -0.008133
  29 H :    0.033868
  30 H :    0.035489
  31 H :    0.026782
  32 H :    0.055340
  33 H :    0.066306
Sum of atomic charges:    0.0000000

LOEWDIN ATOMIC CHARGES
----------------------
   0 S :    0.399749
   1 C :   -0.189921
   2 C :   -0.053954
   3 C :   -0.057259
   4 C :   -0.204820
   5 H :    0.029475
   6 C :   -0.036147
   7 H :    0.016859
   8 H :    0.040285
   9 C :   -0.042770
  10 H :    0.028113
  11 H :    0.020186
  12 C :   -0.066035
  13 H :    0.027762
  14 H :    0.016958
  15 H :    0.033203
  16 S :    0.401262
  17 C :   -0.173482
  18 C :   -0.066214
  19 C :   -0.048381
  20 C :   -0.212982
  21 H :    0.027058
  22 C :   -0.040789
  23 H :    0.033047
  24 H :    0.027662
  25 C :   -0.030548
  26 H :    0.028135
  27 H :    0.013233
  28 C :   -0.054117
  29 H :    0.027384
  30 H :    0.021505
  31 H :    0.024865
  32 H :    0.026683
  33 H :    0.033995

  Mayer bond orders larger than 0.100000
B(  0-S ,  1-C ) :   1.1338 B(  0-S ,  4-C ) :   1.1584 B(  1-C ,  2-C ) :   1.6198
B(  1-C , 32-H ) :   0.9552 B(  2-C ,  3-C ) :   1.2481 B(  2-C ,  6-C ) :   1.0324
B(  3-C ,  4-C ) :   1.5816 B(  3-C ,  5-H ) :   0.9867 B(  4-C , 20-C ) :   1.0016
B(  6-C ,  7-H ) :   0.9210 B(  6-C ,  8-H ) :   0.9410 B(  6-C ,  9-C ) :   1.0582
B(  9-C , 10-H ) :   0.9543 B(  9-C , 11-H ) :   0.9554 B(  9-C , 12-C ) :   1.0846
B( 12-C , 13-H ) :   0.9651 B( 12-C , 14-H ) :   0.9744 B( 12-C , 15-H ) :   0.9738
B( 16-S , 17-C ) :   1.1465 B( 16-S , 20-C ) :   1.1422 B( 17-C , 18-C ) :   1.6217
B( 17-C , 33-H ) :   0.9648 B( 18-C , 19-C ) :   1.2208 B( 18-C , 21-H ) :   0.9895
B( 19-C , 20-C ) :   1.6087 B( 19-C , 22-C ) :   1.0677 B( 22-C , 23-H ) :   0.9297
B( 22-C , 24-H ) :   0.9234 B( 22-C , 25-C ) :   1.0598 B( 25-C , 26-H ) :   0.9525
B( 25-C , 27-H ) :   0.9602 B( 25-C , 28-C ) :   1.0686 B( 28-C , 29-H ) :   0.9768
B( 28-C , 30-H ) :   0.9762 B( 28-C , 31-H ) :   0.9752

Dispersion correction           -0.013828717
FINAL SINGLE POINT ENERGY     -1339.862380776427

DIPOLE MOMENT
-------------
                                X             Y             Z
Electronic contribution:     -7.57459     -21.02868      11.49844
Nuclear contribution   :      7.80264      21.37060     -12.04442
                        -----------------------------------------
Total Dipole Moment    :      0.22805       0.34191      -0.54597
                        -----------------------------------------
Magnitude (a.u.)       :      0.68337
Magnitude (Debye)      :      1.73700

Rotational constants in cm-1:     0.018830     0.007512     0.006385
Rotational constants in MHz :   564.495617   225.209137   191.403501

                             ****ORCA TERMINATED NORMALLY****
TOTAL RUN TIME: 0 days 0 hours 0 minutes 29 seconds 646 msec
