                         Program Version 4.2.1 -  RELEASE  -
|  1> ! wB97X-D3 SP def2-SVP
|  2> %pal
|  3> nprocs 16
|  4> end
|  5>
|  6> * xyz 0 1
|  7> S 	 -35.0292 	 43.5203 	 99.3793
|  8> C 	 -36.4454 	 44.0227 	 100.263
|  9> C 	 -36.5972 	 45.4117 	 100.316
| 10> C 	 -35.6197 	 46.0776 	 99.5183
| 11> C 	 -34.798 	 45.1264 	 98.912
| 12> H 	 -35.5524 	 47.1098 	 99.1978
| 13> C 	 -37.6653 	 46.0431 	 101.261
| 14> H 	 -38.0464 	 45.4616 	 102.009
| 15> H 	 -38.5673 	 46.3261 	 100.713
| 16> C 	 -37.2433 	 47.3542 	 101.975
| 17> H 	 -36.2663 	 47.1552 	 102.416
| 18> H 	 -37.1603 	 48.2132 	 101.279
| 19> C 	 -38.2836 	 47.6748 	 102.996
| 20> H 	 -38.1375 	 48.6361 	 103.57
| 21> H 	 -39.2511 	 47.9123 	 102.509
| 22> H 	 -38.4197 	 46.8684 	 103.723
| 23> S 	 -32.1487 	 44.6785 	 98.473
| 24> C 	 -31.3094 	 45.4237 	 97.1341
| 25> C 	 -32.1006 	 46.3693 	 96.566
| 26> C 	 -33.4332 	 46.4515 	 97.0507
| 27> C 	 -33.6377 	 45.5424 	 98.1428
| 28> H 	 -31.7667 	 47.0008 	 95.7422
| 29> C 	 -34.4187 	 47.4338 	 96.486
| 30> H 	 -33.9149 	 48.1516 	 95.8148
| 31> H 	 -34.8167 	 47.9755 	 97.324
| 32> C 	 -35.6414 	 46.8388 	 95.7492
| 33> H 	 -36.2605 	 47.6912 	 95.6141
| 34> H 	 -36.2595 	 46.1788 	 96.4156
| 35> C 	 -35.3668 	 46.0688 	 94.4918
| 36> H 	 -34.7089 	 45.1285 	 94.654
| 37> H 	 -35.1514 	 46.7461 	 93.7164
| 38> H 	 -36.2943 	 45.717 	 94.1392
| 39> H 	 -37.0876 	 43.4631 	 100.888
| 40> H 	 -30.2959 	 45.1702 	 96.8791
| 41> *
| 42>
| 43>                          ****END OF INPUT****

CARTESIAN COORDINATES (ANGSTROEM)
---------------------------------
  S    -35.029200   43.520300   99.379300
  C    -36.445400   44.022700  100.263000
  C    -36.597200   45.411700  100.316000
  C    -35.619700   46.077600   99.518300
  C    -34.798000   45.126400   98.912000
  H    -35.552400   47.109800   99.197800
  C    -37.665300   46.043100  101.261000
  H    -38.046400   45.461600  102.009000
  H    -38.567300   46.326100  100.713000
  C    -37.243300   47.354200  101.975000
  H    -36.266300   47.155200  102.416000
  H    -37.160300   48.213200  101.279000
  C    -38.283600   47.674800  102.996000
  H    -38.137500   48.636100  103.570000
  H    -39.251100   47.912300  102.509000
  H    -38.419700   46.868400  103.723000
  S    -32.148700   44.678500   98.473000
  C    -31.309400   45.423700   97.134100
  C    -32.100600   46.369300   96.566000
  C    -33.433200   46.451500   97.050700
  C    -33.637700   45.542400   98.142800
  H    -31.766700   47.000800   95.742200
  C    -34.418700   47.433800   96.486000
  H    -33.914900   48.151600   95.814800
  H    -34.816700   47.975500   97.324000
  C    -35.641400   46.838800   95.749200
  H    -36.260500   47.691200   95.614100
  H    -36.259500   46.178800   96.415600
  C    -35.366800   46.068800   94.491800
  H    -34.708900   45.128500   94.654000
  H    -35.151400   46.746100   93.716400
  H    -36.294300   45.717000   94.139200
  H    -37.087600   43.463100  100.888000
  H    -30.295900   45.170200   96.879100

 Total Charge           Charge          ....    0
 Multiplicity           Mult            ....    1
 Number of Electrons    NEL             ....  134
 Basis Dimension        Dim             ....  322

ORBITAL ENERGIES
----------------

  NO   OCC          E(Eh)            E(eV)
   0   2.0000     -88.974999     -2421.1328
   1   2.0000     -88.962152     -2420.7832
   2   2.0000     -10.327354      -281.0216
   3   2.0000     -10.325550      -280.9725
   4   2.0000     -10.311649      -280.5942
   5   2.0000     -10.308382      -280.5053
   6   2.0000     -10.306901      -280.4650
   7   2.0000     -10.301715      -280.3239
   8   2.0000     -10.296037      -280.1694
   9   2.0000     -10.290489      -280.0184
  10   2.0000     -10.289172      -279.9826
  11   2.0000     -10.288814      -279.9729
  12   2.0000     -10.286941      -279.9219
  13   2.0000     -10.283146      -279.8186
  14   2.0000     -10.280752      -279.7535
  15   2.0000     -10.269961      -279.4598
  16   2.0000      -8.090359      -220.1499
  17   2.0000      -8.077065      -219.7881
  18   2.0000      -6.048617      -164.5912
  19   2.0000      -6.044900      -164.4901
  20   2.0000      -6.041213      -164.3897
  21   2.0000      -6.035557      -164.2359
  22   2.0000      -6.031399      -164.1227
  23   2.0000      -6.028002      -164.0303
  24   2.0000      -1.012083       -27.5402
  25   2.0000      -0.983958       -26.7749
  26   2.0000      -0.916430       -24.9373
  27   2.0000      -0.909318       -24.7438
  28   2.0000      -0.871442       -23.7131
  29   2.0000      -0.855755       -23.2863
  30   2.0000      -0.847676       -23.0664
  31   2.0000      -0.813269       -22.1302
  32   2.0000      -0.784545       -21.3486
  33   2.0000      -0.771795       -21.0016
  34   2.0000      -0.710716       -19.3396
  35   2.0000      -0.695012       -18.9122
  36   2.0000      -0.684022       -18.6132
  37   2.0000      -0.662453       -18.0263
  38   2.0000      -0.641703       -17.4616
  39   2.0000      -0.620495       -16.8845
  40   2.0000      -0.594448       -16.1757
  41   2.0000      -0.575272       -15.6540
  42   2.0000      -0.564801       -15.3690
  43   2.0000      -0.554745       -15.0954
  44   2.0000      -0.549317       -14.9477
  45   2.0000      -0.518599       -14.1118
  46   2.0000      -0.514990       -14.0136
  47   2.0000      -0.507546       -13.8110
  48   2.0000      -0.502255       -13.6671
  49   2.0000      -0.496216       -13.5027
  50   2.0000      -0.487029       -13.2527
  51   2.0000      -0.480855       -13.0847
  52   2.0000      -0.475698       -12.9444
  53   2.0000      -0.473559       -12.8862
  54   2.0000      -0.461341       -12.5537
  55   2.0000      -0.451300       -12.2805
  56   2.0000      -0.442158       -12.0317
  57   2.0000      -0.437630       -11.9085
  58   2.0000      -0.433594       -11.7987
  59   2.0000      -0.425166       -11.5693
  60   2.0000      -0.417919       -11.3721
  61   2.0000      -0.416085       -11.3222
  62   2.0000      -0.411321       -11.1926
  63   2.0000      -0.348540        -9.4843
  64   2.0000      -0.336323        -9.1518
  65   2.0000      -0.328392        -8.9360
  66   2.0000      -0.282033        -7.6745
  67   0.0000       0.024959         0.6792
  68   0.0000       0.075664         2.0589
  69   0.0000       0.108592         2.9549
  70   0.0000       0.123358         3.3567
  71   0.0000       0.133794         3.6407

MULLIKEN ATOMIC CHARGES
-----------------------
   0 S :    0.143076
   1 C :   -0.094640
   2 C :   -0.052626
   3 C :    0.005712
   4 C :   -0.125489
   5 H :    0.013367
   6 C :    0.081243
   7 H :   -0.010514
   8 H :    0.026604
   9 C :   -0.083483
  10 H :    0.038116
  11 H :    0.035472
  12 C :   -0.075857
  13 H :    0.038332
  14 H :    0.026349
  15 H :    0.036830
  16 S :    0.087939
  17 C :   -0.094578
  18 C :   -0.022137
  19 C :   -0.042519
  20 C :   -0.173408
  21 H :    0.016516
  22 C :    0.074730
  23 H :    0.018031
  24 H :    0.021461
  25 C :   -0.096395
  26 H :    0.013363
  27 H :    0.037177
  28 C :   -0.002286
  29 H :    0.066169
  30 H :    0.010796
  31 H :    0.007810
  32 H :    0.020701
  33 H :    0.054137
Sum of atomic charges:    0.0000000

LOEWDIN ATOMIC CHARGES
----------------------
   0 S :    0.447041
   1 C :   -0.205147
   2 C :   -0.049001
   3 C :   -0.062043
   4 C :   -0.213115
   5 H :    0.032352
   6 C :   -0.024866
   7 H :    0.013730
   8 H :    0.032598
   9 C :   -0.042463
  10 H :    0.024264
  11 H :    0.025360
  12 C :   -0.073509
  13 H :    0.032132
  14 H :    0.027109
  15 H :    0.024236
  16 S :    0.400546
  17 C :   -0.189146
  18 C :   -0.073364
  19 C :   -0.061828
  20 C :   -0.193473
  21 H :    0.032168
  22 C :   -0.031477
  23 H :    0.031809
  24 H :    0.027195
  25 C :   -0.042534
  26 H :    0.019016
  27 H :    0.028747
  28 C :   -0.069165
  29 H :    0.045580
  30 H :    0.018920
  31 H :    0.022165
  32 H :    0.018367
  33 H :    0.027796

  Mayer bond orders larger than 0.100000
B(  0-S ,  1-C ) :   1.1308 B(  0-S ,  4-C ) :   1.1797 B(  1-C ,  2-C ) :   1.6108
B(  1-C , 32-H ) :   0.9707 B(  2-C ,  3-C ) :   1.2561 B(  2-C ,  6-C ) :   1.0085
B(  3-C ,  4-C ) :   1.5196 B(  3-C ,  5-H ) :   0.9965 B(  4-C , 20-C ) :   1.0601
B(  6-C ,  7-H ) :   0.9511 B(  6-C ,  8-H ) :   0.9317 B(  6-C ,  9-C ) :   1.0590
B(  9-C , 10-H ) :   0.9600 B(  9-C , 11-H ) :   0.9487 B(  9-C , 12-C ) :   1.0950
B( 12-C , 13-H ) :   0.9704 B( 12-C , 14-H ) :   0.9700 B( 12-C , 15-H ) :   0.9731
B( 16-S , 17-C ) :   1.1511 B( 16-S , 20-C ) :   1.1576 B( 17-C , 18-C ) :   1.5760
B( 17-C , 20-C ) :   0.1034 B( 17-C , 33-H ) :   0.9735 B( 18-C , 19-C ) :   1.2814
B( 18-C , 21-H ) :   0.9861 B( 19-C , 20-C ) :   1.5370 B( 19-C , 22-C ) :   1.0422
B( 22-C , 23-H ) :   0.9330 B( 22-C , 24-H ) :   0.9295 B( 22-C , 25-C ) :   1.0740
B( 25-C , 26-H ) :   0.9512 B( 25-C , 27-H ) :   0.9544 B( 25-C , 28-C ) :   1.0910
B( 28-C , 29-H ) :   0.9688 B( 28-C , 30-H ) :   0.9683 B( 28-C , 31-H ) :   0.9632

Dispersion correction           -0.014270095
FINAL SINGLE POINT ENERGY     -1339.868777569683

DIPOLE MOMENT
-------------
                                X             Y             Z
Electronic contribution:     19.30019     -17.56297       0.17422
Nuclear contribution   :    -19.72622      18.04916      -0.22673
                        -----------------------------------------
Total Dipole Moment    :     -0.42602       0.48619      -0.05251
                        -----------------------------------------
Magnitude (a.u.)       :      0.64856
Magnitude (Debye)      :      1.64852

Rotational constants in cm-1:     0.019710     0.008086     0.007032
Rotational constants in MHz :   590.883572   242.409006   210.808683

                             ****ORCA TERMINATED NORMALLY****
TOTAL RUN TIME: 0 days 0 hours 0 minutes 30 seconds 97 msec
