                         Program Version 4.2.1 -  RELEASE  -
|  1> ! wB97X-D3 SP def2-SVP
|  2> %pal
|  3> nprocs 16
|  4> end
|  5>
|  6> * xyz 0 1
|  7> S 	 45.3048 	 19.6858 	 85.2296
|  8> C 	 43.8889 	 20.3181 	 85.9557
|  9> C 	 42.9485 	 19.3185 	 86.2356
| 10> C 	 43.4298 	 18.0778 	 85.8096
| 11> C 	 44.7189 	 18.0623 	 85.2578
| 12> H 	 42.7182 	 17.2123 	 85.7901
| 13> C 	 41.5963 	 19.6063 	 86.7874
| 14> H 	 41.6839 	 20.0048 	 87.7601
| 15> H 	 41.038 	 18.6878 	 87.0136
| 16> C 	 40.7363 	 20.4663 	 85.8796
| 17> H 	 41.2319 	 21.3913 	 85.5947
| 18> H 	 40.7666 	 19.8848 	 84.9746
| 19> C 	 39.3351 	 20.6852 	 86.4221
| 20> H 	 38.9933 	 21.7075 	 86.08
| 21> H 	 38.5278 	 20.1277 	 86.0014
| 22> H 	 39.3212 	 20.6544 	 87.5379
| 23> S 	 47.1772 	 17.0664 	 85.02
| 24> C 	 47.5414 	 15.6913 	 84.0438
| 25> C 	 46.4405 	 15.1407 	 83.4436
| 26> C 	 45.2439 	 15.8484 	 83.8284
| 27> C 	 45.496 	 16.99 	 84.6614
| 28> H 	 46.4508 	 14.275 	 82.7251
| 29> C 	 43.8467 	 15.5054 	 83.3591
| 30> H 	 43.7594 	 15.7748 	 82.2723
| 31> H 	 43.1227 	 16.0703 	 83.8496
| 32> C 	 43.4737 	 14.09 	 83.638
| 33> H 	 43.5408 	 13.8779 	 84.7191
| 34> H 	 44.1133 	 13.2685 	 83.2148
| 35> C 	 42.0103 	 13.7568 	 83.289
| 36> H 	 41.8144 	 13.7017 	 82.2175
| 37> H 	 41.3531 	 14.4008 	 83.7997
| 38> H 	 41.9268 	 12.6907 	 83.5795
| 39> H 	 43.6913 	 21.388 	 86.1415
| 40> H 	 48.5837 	 15.3531 	 83.8601
| 41> *
| 42>
| 43>                          ****END OF INPUT****

CARTESIAN COORDINATES (ANGSTROEM)
---------------------------------
  S     45.304800   19.685800   85.229600
  C     43.888900   20.318100   85.955700
  C     42.948500   19.318500   86.235600
  C     43.429800   18.077800   85.809600
  C     44.718900   18.062300   85.257800
  H     42.718200   17.212300   85.790100
  C     41.596300   19.606300   86.787400
  H     41.683900   20.004800   87.760100
  H     41.038000   18.687800   87.013600
  C     40.736300   20.466300   85.879600
  H     41.231900   21.391300   85.594700
  H     40.766600   19.884800   84.974600
  C     39.335100   20.685200   86.422100
  H     38.993300   21.707500   86.080000
  H     38.527800   20.127700   86.001400
  H     39.321200   20.654400   87.537900
  S     47.177200   17.066400   85.020000
  C     47.541400   15.691300   84.043800
  C     46.440500   15.140700   83.443600
  C     45.243900   15.848400   83.828400
  C     45.496000   16.990000   84.661400
  H     46.450800   14.275000   82.725100
  C     43.846700   15.505400   83.359100
  H     43.759400   15.774800   82.272300
  H     43.122700   16.070300   83.849600
  C     43.473700   14.090000   83.638000
  H     43.540800   13.877900   84.719100
  H     44.113300   13.268500   83.214800
  C     42.010300   13.756800   83.289000
  H     41.814400   13.701700   82.217500
  H     41.353100   14.400800   83.799700
  H     41.926800   12.690700   83.579500
  H     43.691300   21.388000   86.141500
  H     48.583700   15.353100   83.860100

 Total Charge           Charge          ....    0
 Multiplicity           Mult            ....    1
 Number of Electrons    NEL             ....  134
 Basis Dimension        Dim             ....  322

ORBITAL ENERGIES
----------------

  NO   OCC          E(Eh)            E(eV)
   0   2.0000     -88.970133     -2421.0004
   1   2.0000     -88.964145     -2420.8375
   2   2.0000     -10.330707      -281.1128
   3   2.0000     -10.327522      -281.0261
   4   2.0000     -10.316956      -280.7386
   5   2.0000     -10.313333      -280.6400
   6   2.0000     -10.307691      -280.4865
   7   2.0000     -10.300388      -280.2878
   8   2.0000     -10.296691      -280.1872
   9   2.0000     -10.295983      -280.1679
  10   2.0000     -10.285988      -279.8960
  11   2.0000     -10.285931      -279.8944
  12   2.0000     -10.285388      -279.8796
  13   2.0000     -10.283716      -279.8341
  14   2.0000     -10.283588      -279.8307
  15   2.0000     -10.275373      -279.6071
  16   2.0000      -8.085504      -220.0177
  17   2.0000      -8.079953      -219.8667
  18   2.0000      -6.043879      -164.4623
  19   2.0000      -6.039724      -164.3492
  20   2.0000      -6.038347      -164.3118
  21   2.0000      -6.036559      -164.2631
  22   2.0000      -6.034182      -164.1984
  23   2.0000      -6.030894      -164.1090
  24   2.0000      -1.012766       -27.5588
  25   2.0000      -0.989060       -26.9137
  26   2.0000      -0.920997       -25.0616
  27   2.0000      -0.914830       -24.8938
  28   2.0000      -0.871900       -23.7256
  29   2.0000      -0.852632       -23.2013
  30   2.0000      -0.847705       -23.0672
  31   2.0000      -0.814710       -22.1694
  32   2.0000      -0.785159       -21.3653
  33   2.0000      -0.769187       -20.9306
  34   2.0000      -0.708596       -19.2819
  35   2.0000      -0.700546       -19.0628
  36   2.0000      -0.693675       -18.8759
  37   2.0000      -0.657095       -17.8805
  38   2.0000      -0.635343       -17.2886
  39   2.0000      -0.625408       -17.0182
  40   2.0000      -0.602197       -16.3866
  41   2.0000      -0.573394       -15.6029
  42   2.0000      -0.566459       -15.4141
  43   2.0000      -0.561913       -15.2904
  44   2.0000      -0.530385       -14.4325
  45   2.0000      -0.529295       -14.4029
  46   2.0000      -0.518670       -14.1137
  47   2.0000      -0.513653       -13.9772
  48   2.0000      -0.502096       -13.6627
  49   2.0000      -0.497007       -13.5243
  50   2.0000      -0.491775       -13.3819
  51   2.0000      -0.484642       -13.1878
  52   2.0000      -0.473660       -12.8889
  53   2.0000      -0.464422       -12.6376
  54   2.0000      -0.459571       -12.5056
  55   2.0000      -0.452231       -12.3058
  56   2.0000      -0.450717       -12.2646
  57   2.0000      -0.437655       -11.9092
  58   2.0000      -0.434978       -11.8363
  59   2.0000      -0.429422       -11.6852
  60   2.0000      -0.416485       -11.3331
  61   2.0000      -0.411486       -11.1971
  62   2.0000      -0.408864       -11.1258
  63   2.0000      -0.352751        -9.5988
  64   2.0000      -0.335497        -9.1293
  65   2.0000      -0.328768        -8.9462
  66   2.0000      -0.282809        -7.6956
  67   0.0000       0.027139         0.7385
  68   0.0000       0.074950         2.0395
  69   0.0000       0.115580         3.1451
  70   0.0000       0.122467         3.3325
  71   0.0000       0.128825         3.5055

MULLIKEN ATOMIC CHARGES
-----------------------
   0 S :    0.135651
   1 C :   -0.139846
   2 C :   -0.110119
   3 C :    0.013815
   4 C :   -0.147558
   5 H :    0.022280
   6 C :    0.086160
   7 H :    0.018624
   8 H :    0.012184
   9 C :   -0.068049
  10 H :    0.026412
  11 H :    0.023023
  12 C :   -0.043121
  13 H :    0.026923
  14 H :    0.032959
  15 H :    0.041745
  16 S :    0.103739
  17 C :   -0.100584
  18 C :   -0.035598
  19 C :   -0.065603
  20 C :   -0.144553
  21 H :    0.041664
  22 C :    0.151403
  23 H :    0.041038
  24 H :   -0.025632
  25 C :   -0.150457
  26 H :    0.030545
  27 H :    0.029200
  28 C :   -0.022241
  29 H :    0.029088
  30 H :    0.027097
  31 H :    0.029342
  32 H :    0.060299
  33 H :    0.070170
Sum of atomic charges:   -0.0000000

LOEWDIN ATOMIC CHARGES
----------------------
   0 S :    0.447294
   1 C :   -0.215015
   2 C :   -0.067187
   3 C :   -0.073071
   4 C :   -0.212594
   5 H :    0.033874
   6 C :   -0.033275
   7 H :    0.023569
   8 H :    0.030949
   9 C :   -0.041614
  10 H :    0.021686
  11 H :    0.026460
  12 C :   -0.072756
  13 H :    0.035285
  14 H :    0.024206
  15 H :    0.030705
  16 S :    0.430457
  17 C :   -0.199607
  18 C :   -0.077153
  19 C :   -0.051075
  20 C :   -0.212300
  21 H :    0.043847
  22 C :   -0.032890
  23 H :    0.039451
  24 H :    0.018230
  25 C :   -0.048759
  26 H :    0.027642
  27 H :    0.023491
  28 C :   -0.060193
  29 H :    0.023151
  30 H :    0.015492
  31 H :    0.032250
  32 H :    0.033297
  33 H :    0.036152

  Mayer bond orders larger than 0.100000
B(  0-S ,  1-C ) :   1.1736 B(  0-S ,  4-C ) :   1.1841 B(  1-C ,  2-C ) :   1.5382
B(  1-C ,  4-C ) :   0.1126 B(  1-C , 32-H ) :   0.9658 B(  2-C ,  3-C ) :   1.3365
B(  2-C ,  6-C ) :   1.0294 B(  3-C ,  4-C ) :   1.4990 B(  3-C ,  5-H ) :   0.9807
B(  4-C , 20-C ) :   1.0468 B(  6-C ,  7-H ) :   0.9223 B(  6-C ,  8-H ) :   0.9403
B(  6-C ,  9-C ) :   1.0604 B(  9-C , 10-H ) :   0.9626 B(  9-C , 11-H ) :   0.9550
B(  9-C , 12-C ) :   1.0657 B( 12-C , 13-H ) :   0.9727 B( 12-C , 14-H ) :   0.9750
B( 12-C , 15-H ) :   0.9762 B( 16-S , 17-C ) :   1.1714 B( 16-S , 20-C ) :   1.1588
B( 17-C , 18-C ) :   1.5826 B( 17-C , 33-H ) :   0.9620 B( 18-C , 19-C ) :   1.2657
B( 18-C , 21-H ) :   0.9831 B( 19-C , 20-C ) :   1.5475 B( 19-C , 22-C ) :   1.0498
B( 22-C , 23-H ) :   0.9261 B( 22-C , 24-H ) :   0.9260 B( 22-C , 25-C ) :   1.0579
B( 25-C , 26-H ) :   0.9546 B( 25-C , 27-H ) :   0.9542 B( 25-C , 28-C ) :   1.0921
B( 28-C , 29-H ) :   0.9744 B( 28-C , 30-H ) :   0.9744 B( 28-C , 31-H ) :   0.9735

Dispersion correction           -0.013393132
FINAL SINGLE POINT ENERGY     -1339.880147233877

DIPOLE MOMENT
-------------
                                X             Y             Z
Electronic contribution:     30.46704       6.44980       1.73255
Nuclear contribution   :    -31.07192      -6.60313      -1.92065
                        -----------------------------------------
Total Dipole Moment    :     -0.60488      -0.15333      -0.18810
                        -----------------------------------------
Magnitude (a.u.)       :      0.65175
Magnitude (Debye)      :      1.65661

Rotational constants in cm-1:     0.018259     0.008342     0.005941
Rotational constants in MHz :   547.391544   250.076033   178.109530

                             ****ORCA TERMINATED NORMALLY****
TOTAL RUN TIME: 0 days 0 hours 0 minutes 29 seconds 413 msec
