                         Program Version 4.2.1 -  RELEASE  -
|  1> ! wB97X-D3 SP def2-SVP
|  2> %pal
|  3> nprocs 16
|  4> end
|  5>
|  6> * xyz 0 1
|  7> S 	 -33.5804 	 60.1732 	 112.984
|  8> C 	 -35.1518 	 60.9158 	 113
|  9> C 	 -35.8428 	 60.5835 	 114.165
| 10> C 	 -35.0182 	 59.8119 	 115.038
| 11> C 	 -33.7292 	 59.793 	 114.675
| 12> H 	 -35.2316 	 59.3974 	 115.985
| 13> C 	 -37.2863 	 60.9021 	 114.392
| 14> H 	 -37.6979 	 60.1153 	 114.974
| 15> H 	 -37.7071 	 60.6452 	 113.475
| 16> C 	 -37.6885 	 62.2149 	 114.953
| 17> H 	 -37.2947 	 62.4389 	 115.942
| 18> H 	 -37.3483 	 63.0159 	 114.371
| 19> C 	 -39.2086 	 62.3777 	 115.07
| 20> H 	 -39.331 	 63.4815 	 115.18
| 21> H 	 -39.7285 	 61.9891 	 114.23
| 22> H 	 -39.5518 	 61.9962 	 116.012
| 23> S 	 -31.5345 	 58.0665 	 114.55
| 24> C 	 -30.6514 	 57.6338 	 116.021
| 25> C 	 -31.2309 	 58.296 	 117.126
| 26> C 	 -32.3286 	 59.1187 	 116.802
| 27> C 	 -32.6521 	 59.1649 	 115.469
| 28> H 	 -30.7861 	 58.3657 	 118.086
| 29> C 	 -32.9559 	 59.8523 	 118.002
| 30> H 	 -33.4073 	 60.664 	 117.532
| 31> H 	 -32.304 	 60.3056 	 118.728
| 32> C 	 -33.9314 	 58.9176 	 118.816
| 33> H 	 -33.3448 	 58.0794 	 119.263
| 34> H 	 -34.5705 	 58.472 	 118.043
| 35> C 	 -34.8323 	 59.6966 	 119.775
| 36> H 	 -35.619 	 60.1455 	 119.143
| 37> H 	 -34.1802 	 60.5156 	 120.173
| 38> H 	 -35.221 	 59.0512 	 120.577
| 39> H 	 -35.669 	 61.5095 	 112.184
| 40> H 	 -29.7286 	 57.0701 	 116.146
| 41> *
| 42>
| 43>                          ****END OF INPUT****

CARTESIAN COORDINATES (ANGSTROEM)
---------------------------------
  S    -33.580400   60.173200  112.984000
  C    -35.151800   60.915800  113.000000
  C    -35.842800   60.583500  114.165000
  C    -35.018200   59.811900  115.038000
  C    -33.729200   59.793000  114.675000
  H    -35.231600   59.397400  115.985000
  C    -37.286300   60.902100  114.392000
  H    -37.697900   60.115300  114.974000
  H    -37.707100   60.645200  113.475000
  C    -37.688500   62.214900  114.953000
  H    -37.294700   62.438900  115.942000
  H    -37.348300   63.015900  114.371000
  C    -39.208600   62.377700  115.070000
  H    -39.331000   63.481500  115.180000
  H    -39.728500   61.989100  114.230000
  H    -39.551800   61.996200  116.012000
  S    -31.534500   58.066500  114.550000
  C    -30.651400   57.633800  116.021000
  C    -31.230900   58.296000  117.126000
  C    -32.328600   59.118700  116.802000
  C    -32.652100   59.164900  115.469000
  H    -30.786100   58.365700  118.086000
  C    -32.955900   59.852300  118.002000
  H    -33.407300   60.664000  117.532000
  H    -32.304000   60.305600  118.728000
  C    -33.931400   58.917600  118.816000
  H    -33.344800   58.079400  119.263000
  H    -34.570500   58.472000  118.043000
  C    -34.832300   59.696600  119.775000
  H    -35.619000   60.145500  119.143000
  H    -34.180200   60.515600  120.173000
  H    -35.221000   59.051200  120.577000
  H    -35.669000   61.509500  112.184000
  H    -29.728600   57.070100  116.146000

 Total Charge           Charge          ....    0
 Multiplicity           Mult            ....    1
 Number of Electrons    NEL             ....  134
 Basis Dimension        Dim             ....  322

ORBITAL ENERGIES
----------------

  NO   OCC          E(Eh)            E(eV)
   0   2.0000     -88.967169     -2420.9197
   1   2.0000     -88.966885     -2420.9120
   2   2.0000     -10.334627      -281.2195
   3   2.0000     -10.326195      -280.9901
   4   2.0000     -10.323337      -280.9123
   5   2.0000     -10.317797      -280.7615
   6   2.0000     -10.302188      -280.3368
   7   2.0000     -10.300305      -280.2855
   8   2.0000     -10.291276      -280.0398
   9   2.0000     -10.289783      -279.9992
  10   2.0000     -10.288550      -279.9657
  11   2.0000     -10.287121      -279.9268
  12   2.0000     -10.286454      -279.9086
  13   2.0000     -10.279415      -279.7171
  14   2.0000     -10.279048      -279.7071
  15   2.0000     -10.276151      -279.6283
  16   2.0000      -8.082036      -219.9234
  17   2.0000      -8.080410      -219.8791
  18   2.0000      -6.040631      -164.3739
  19   2.0000      -6.039181      -164.3345
  20   2.0000      -6.036747      -164.2682
  21   2.0000      -6.035059      -164.2223
  22   2.0000      -6.032409      -164.1502
  23   2.0000      -6.031059      -164.1135
  24   2.0000      -1.010280       -27.4911
  25   2.0000      -0.981988       -26.7213
  26   2.0000      -0.922108       -25.0918
  27   2.0000      -0.906131       -24.6571
  28   2.0000      -0.869629       -23.6638
  29   2.0000      -0.856568       -23.3084
  30   2.0000      -0.848054       -23.0767
  31   2.0000      -0.817082       -22.2339
  32   2.0000      -0.782312       -21.2878
  33   2.0000      -0.772554       -21.0223
  34   2.0000      -0.709593       -19.3090
  35   2.0000      -0.699372       -19.0309
  36   2.0000      -0.694740       -18.9048
  37   2.0000      -0.668689       -18.1960
  38   2.0000      -0.644746       -17.5444
  39   2.0000      -0.619319       -16.8525
  40   2.0000      -0.594317       -16.1722
  41   2.0000      -0.575378       -15.6568
  42   2.0000      -0.566114       -15.4047
  43   2.0000      -0.562362       -15.3026
  44   2.0000      -0.539805       -14.6888
  45   2.0000      -0.528138       -14.3714
  46   2.0000      -0.520723       -14.1696
  47   2.0000      -0.511650       -13.9227
  48   2.0000      -0.507098       -13.7988
  49   2.0000      -0.498966       -13.5776
  50   2.0000      -0.496543       -13.5116
  51   2.0000      -0.480696       -13.0804
  52   2.0000      -0.470371       -12.7995
  53   2.0000      -0.464073       -12.6281
  54   2.0000      -0.460592       -12.5334
  55   2.0000      -0.451983       -12.2991
  56   2.0000      -0.449349       -12.2274
  57   2.0000      -0.440131       -11.9766
  58   2.0000      -0.433473       -11.7954
  59   2.0000      -0.422680       -11.5017
  60   2.0000      -0.419528       -11.4159
  61   2.0000      -0.413905       -11.2629
  62   2.0000      -0.410599       -11.1730
  63   2.0000      -0.352265        -9.5856
  64   2.0000      -0.332862        -9.0576
  65   2.0000      -0.328753        -8.9458
  66   2.0000      -0.288382        -7.8473
  67   0.0000       0.022242         0.6052
  68   0.0000       0.070075         1.9068
  69   0.0000       0.097351         2.6490
  70   0.0000       0.119211         3.2439
  71   0.0000       0.130682         3.5560

MULLIKEN ATOMIC CHARGES
-----------------------
   0 S :    0.109700
   1 C :   -0.127687
   2 C :   -0.111496
   3 C :    0.044336
   4 C :   -0.123612
   5 H :   -0.023141
   6 C :    0.121529
   7 H :   -0.003019
   8 H :   -0.001076
   9 C :   -0.026937
  10 H :    0.019126
  11 H :    0.007674
  12 C :   -0.037430
  13 H :    0.030477
  14 H :    0.031049
  15 H :    0.027851
  16 S :    0.083297
  17 C :   -0.082773
  18 C :   -0.023004
  19 C :   -0.065197
  20 C :   -0.137892
  21 H :    0.010678
  22 C :    0.067488
  23 H :    0.005979
  24 H :    0.022302
  25 C :   -0.106647
  26 H :    0.037905
  27 H :    0.028695
  28 C :   -0.035308
  29 H :    0.039749
  30 H :    0.033703
  31 H :    0.050136
  32 H :    0.068524
  33 H :    0.065020
Sum of atomic charges:    0.0000000

LOEWDIN ATOMIC CHARGES
----------------------
   0 S :    0.407237
   1 C :   -0.209602
   2 C :   -0.057849
   3 C :   -0.057262
   4 C :   -0.191199
   5 H :    0.023299
   6 C :   -0.036281
   7 H :    0.029471
   8 H :    0.026142
   9 C :   -0.034716
  10 H :    0.026819
  11 H :    0.015084
  12 C :   -0.055346
  13 H :    0.033625
  14 H :    0.018799
  15 H :    0.021214
  16 S :    0.369824
  17 C :   -0.180044
  18 C :   -0.068243
  19 C :   -0.059054
  20 C :   -0.169151
  21 H :    0.025582
  22 C :   -0.025500
  23 H :    0.018295
  24 H :    0.025968
  25 C :   -0.043392
  26 H :    0.026061
  27 H :    0.018771
  28 C :   -0.067420
  29 H :    0.030447
  30 H :    0.028337
  31 H :    0.030785
  32 H :    0.044083
  33 H :    0.035217

  Mayer bond orders larger than 0.100000
B(  0-S ,  1-C ) :   1.1329 B(  0-S ,  4-C ) :   1.1401 B(  1-C ,  2-C ) :   1.6159
B(  1-C , 32-H ) :   0.9609 B(  2-C ,  3-C ) :   1.2219 B(  2-C ,  6-C ) :   1.0143
B(  3-C ,  4-C ) :   1.5830 B(  3-C ,  5-H ) :   1.0040 B(  4-C , 20-C ) :   1.0361
B(  6-C ,  7-H ) :   0.9281 B(  6-C ,  8-H ) :   0.9239 B(  6-C ,  9-C ) :   1.0745
B(  9-C , 10-H ) :   0.9491 B(  9-C , 11-H ) :   0.9561 B(  9-C , 12-C ) :   1.0828
B( 12-C , 13-H ) :   0.9760 B( 12-C , 14-H ) :   0.9769 B( 12-C , 15-H ) :   0.9778
B( 16-S , 17-C ) :   1.1502 B( 16-S , 20-C ) :   1.1091 B( 17-C , 18-C ) :   1.5968
B( 17-C , 20-C ) :   0.1046 B( 17-C , 33-H ) :   0.9651 B( 18-C , 19-C ) :   1.2553
B( 18-C , 21-H ) :   0.9843 B( 19-C , 20-C ) :   1.6379 B( 19-C , 22-C ) :   1.0356
B( 22-C , 23-H ) :   0.9361 B( 22-C , 24-H ) :   0.9392 B( 22-C , 25-C ) :   1.0459
B( 25-C , 26-H ) :   0.9563 B( 25-C , 27-H ) :   0.9585 B( 25-C , 28-C ) :   1.0675
B( 28-C , 29-H ) :   0.9768 B( 28-C , 30-H ) :   0.9743 B( 28-C , 31-H ) :   0.9744

Dispersion correction           -0.013795144
FINAL SINGLE POINT ENERGY     -1339.850957824733

DIPOLE MOMENT
-------------
                                X             Y             Z
Electronic contribution:     23.82625     -10.53961     -20.22590
Nuclear contribution   :    -24.30570      10.74352      20.79698
                        -----------------------------------------
Total Dipole Moment    :     -0.47944       0.20391       0.57108
                        -----------------------------------------
Magnitude (a.u.)       :      0.77303
Magnitude (Debye)      :      1.96489

Rotational constants in cm-1:     0.017676     0.008929     0.006143
Rotational constants in MHz :   529.926735   267.674040   184.176596

                             ****ORCA TERMINATED NORMALLY****
TOTAL RUN TIME: 0 days 0 hours 0 minutes 28 seconds 512 msec
