                         Program Version 4.2.1 -  RELEASE  -
|  1> ! wB97X-D3 SP def2-SVP
|  2> %pal
|  3> nprocs 16
|  4> end
|  5>
|  6> * xyz 0 1
|  7> S 	 -72.7257 	 46.8842 	 124.317
|  8> C 	 -71.6539 	 46.7231 	 122.988
|  9> C 	 -70.4669 	 47.2813 	 123.289
| 10> C 	 -70.3999 	 47.784 	 124.621
| 11> C 	 -71.607 	 47.7148 	 125.298
| 12> H 	 -69.6177 	 48.396 	 125.002
| 13> C 	 -69.2663 	 47.1804 	 122.313
| 14> H 	 -69.4642 	 46.3459 	 121.606
| 15> H 	 -68.4097 	 46.8849 	 122.89
| 16> C 	 -68.8695 	 48.5412 	 121.669
| 17> H 	 -69.7235 	 48.8024 	 121.057
| 18> H 	 -68.8022 	 49.2435 	 122.435
| 19> C 	 -67.6555 	 48.5837 	 120.85
| 20> H 	 -67.4577 	 49.5859 	 120.499
| 21> H 	 -66.7746 	 48.0344 	 121.375
| 22> H 	 -67.8048 	 47.9655 	 119.963
| 23> S 	 -72.6665 	 49.9345 	 126.588
| 24> C 	 -72.679 	 49.97 	 128.336
| 25> C 	 -71.9938 	 48.9027 	 128.858
| 26> C 	 -71.5373 	 47.9439 	 127.896
| 27> C 	 -71.8834 	 48.3643 	 126.613
| 28> H 	 -71.9613 	 48.8399 	 129.923
| 29> C 	 -70.8455 	 46.6441 	 128.286
| 30> H 	 -69.9239 	 46.9227 	 128.742
| 31> H 	 -70.5238 	 46.1229 	 127.433
| 32> C 	 -71.6509 	 45.6209 	 129.115
| 33> H 	 -71.7653 	 46.0673 	 130.197
| 34> H 	 -71.04 	 44.6816 	 129.305
| 35> C 	 -73.052 	 45.3216 	 128.457
| 36> H 	 -73.592 	 44.4579 	 128.834
| 37> H 	 -72.8976 	 45.1007 	 127.449
| 38> H 	 -73.7037 	 46.1857 	 128.402
| 39> H 	 -71.7849 	 46.3291 	 122.014
| 40> H 	 -73.0987 	 50.7025 	 129.031
| 41> *
| 42>
| 43>                          ****END OF INPUT****

CARTESIAN COORDINATES (ANGSTROEM)
---------------------------------
  S    -72.725700   46.884200  124.317000
  C    -71.653900   46.723100  122.988000
  C    -70.466900   47.281300  123.289000
  C    -70.399900   47.784000  124.621000
  C    -71.607000   47.714800  125.298000
  H    -69.617700   48.396000  125.002000
  C    -69.266300   47.180400  122.313000
  H    -69.464200   46.345900  121.606000
  H    -68.409700   46.884900  122.890000
  C    -68.869500   48.541200  121.669000
  H    -69.723500   48.802400  121.057000
  H    -68.802200   49.243500  122.435000
  C    -67.655500   48.583700  120.850000
  H    -67.457700   49.585900  120.499000
  H    -66.774600   48.034400  121.375000
  H    -67.804800   47.965500  119.963000
  S    -72.666500   49.934500  126.588000
  C    -72.679000   49.970000  128.336000
  C    -71.993800   48.902700  128.858000
  C    -71.537300   47.943900  127.896000
  C    -71.883400   48.364300  126.613000
  H    -71.961300   48.839900  129.923000
  C    -70.845500   46.644100  128.286000
  H    -69.923900   46.922700  128.742000
  H    -70.523800   46.122900  127.433000
  C    -71.650900   45.620900  129.115000
  H    -71.765300   46.067300  130.197000
  H    -71.040000   44.681600  129.305000
  C    -73.052000   45.321600  128.457000
  H    -73.592000   44.457900  128.834000
  H    -72.897600   45.100700  127.449000
  H    -73.703700   46.185700  128.402000
  H    -71.784900   46.329100  122.014000
  H    -73.098700   50.702500  129.031000

 Total Charge           Charge          ....    0
 Multiplicity           Mult            ....    1
 Number of Electrons    NEL             ....  134
 Basis Dimension        Dim             ....  322

ORBITAL ENERGIES
----------------

  NO   OCC          E(Eh)            E(eV)
   0   2.0000     -88.968152     -2420.9465
   1   2.0000     -88.966222     -2420.8940
   2   2.0000     -10.330355      -281.1032
   3   2.0000     -10.327725      -281.0317
   4   2.0000     -10.316857      -280.7359
   5   2.0000     -10.307087      -280.4701
   6   2.0000     -10.304938      -280.4116
   7   2.0000     -10.302726      -280.3514
   8   2.0000     -10.294866      -280.1376
   9   2.0000     -10.293797      -280.1085
  10   2.0000     -10.290026      -280.0059
  11   2.0000     -10.289331      -279.9869
  12   2.0000     -10.285846      -279.8921
  13   2.0000     -10.280399      -279.7439
  14   2.0000     -10.275900      -279.6214
  15   2.0000     -10.269398      -279.4445
  16   2.0000      -8.082670      -219.9406
  17   2.0000      -8.082005      -219.9225
  18   2.0000      -6.041219      -164.3899
  19   2.0000      -6.040422      -164.3682
  20   2.0000      -6.037253      -164.2820
  21   2.0000      -6.036137      -164.2516
  22   2.0000      -6.033349      -164.1758
  23   2.0000      -6.033010      -164.1666
  24   2.0000      -1.012665       -27.5560
  25   2.0000      -0.989671       -26.9303
  26   2.0000      -0.913735       -24.8640
  27   2.0000      -0.903649       -24.5895
  28   2.0000      -0.873010       -23.7558
  29   2.0000      -0.850360       -23.1395
  30   2.0000      -0.841857       -22.9081
  31   2.0000      -0.817932       -22.2571
  32   2.0000      -0.785912       -21.3858
  33   2.0000      -0.775483       -21.1020
  34   2.0000      -0.708112       -19.2687
  35   2.0000      -0.695423       -18.9234
  36   2.0000      -0.692313       -18.8388
  37   2.0000      -0.654397       -17.8070
  38   2.0000      -0.644067       -17.5260
  39   2.0000      -0.618978       -16.8433
  40   2.0000      -0.594230       -16.1698
  41   2.0000      -0.577286       -15.7088
  42   2.0000      -0.565100       -15.3771
  43   2.0000      -0.551130       -14.9970
  44   2.0000      -0.538984       -14.6665
  45   2.0000      -0.530166       -14.4265
  46   2.0000      -0.512293       -13.9402
  47   2.0000      -0.507472       -13.8090
  48   2.0000      -0.504700       -13.7336
  49   2.0000      -0.498854       -13.5745
  50   2.0000      -0.490382       -13.3440
  51   2.0000      -0.480180       -13.0664
  52   2.0000      -0.470273       -12.7968
  53   2.0000      -0.464859       -12.6495
  54   2.0000      -0.459388       -12.5006
  55   2.0000      -0.448615       -12.2074
  56   2.0000      -0.446663       -12.1543
  57   2.0000      -0.441367       -12.0102
  58   2.0000      -0.431665       -11.7462
  59   2.0000      -0.424695       -11.5566
  60   2.0000      -0.419321       -11.4103
  61   2.0000      -0.414202       -11.2710
  62   2.0000      -0.407346       -11.0844
  63   2.0000      -0.337834        -9.1929
  64   2.0000      -0.328547        -8.9402
  65   2.0000      -0.327739        -8.9182
  66   2.0000      -0.313681        -8.5357
  67   0.0000       0.045073         1.2265
  68   0.0000       0.062013         1.6875
  69   0.0000       0.119900         3.2627
  70   0.0000       0.123882         3.3710
  71   0.0000       0.132305         3.6002

MULLIKEN ATOMIC CHARGES
-----------------------
   0 S :    0.129882
   1 C :   -0.096627
   2 C :   -0.105904
   3 C :    0.062980
   4 C :   -0.179110
   5 H :    0.004080
   6 C :    0.050945
   7 H :    0.024199
   8 H :    0.015222
   9 C :   -0.049059
  10 H :    0.020155
  11 H :    0.012318
  12 C :   -0.033272
  13 H :    0.040987
  14 H :    0.034790
  15 H :    0.020056
  16 S :    0.125126
  17 C :   -0.094945
  18 C :   -0.041100
  19 C :   -0.021747
  20 C :   -0.194024
  21 H :    0.009611
  22 C :    0.128779
  23 H :    0.023073
  24 H :    0.008473
  25 C :   -0.128557
  26 H :    0.037045
  27 H :    0.047063
  28 C :   -0.015956
  29 H :    0.035193
  30 H :    0.003561
  31 H :    0.041650
  32 H :    0.026567
  33 H :    0.058546
Sum of atomic charges:    0.0000000

LOEWDIN ATOMIC CHARGES
----------------------
   0 S :    0.442385
   1 C :   -0.205794
   2 C :   -0.066753
   3 C :   -0.061414
   4 C :   -0.216066
   5 H :    0.026112
   6 C :   -0.024715
   7 H :    0.028921
   8 H :    0.024447
   9 C :   -0.043343
  10 H :    0.024580
  11 H :    0.015282
  12 C :   -0.068315
  13 H :    0.028777
  14 H :    0.033568
  15 H :    0.023544
  16 S :    0.408644
  17 C :   -0.189874
  18 C :   -0.070394
  19 C :   -0.047797
  20 C :   -0.199484
  21 H :    0.027092
  22 C :   -0.029990
  23 H :    0.031778
  24 H :    0.024063
  25 C :   -0.044116
  26 H :    0.025348
  27 H :    0.032138
  28 C :   -0.065796
  29 H :    0.027407
  30 H :    0.015958
  31 H :    0.029918
  32 H :    0.027162
  33 H :    0.036727

  Mayer bond orders larger than 0.100000
B(  0-S ,  1-C ) :   1.1435 B(  0-S ,  4-C ) :   1.1776 B(  1-C ,  2-C ) :   1.6198
B(  1-C , 32-H ) :   0.9696 B(  2-C ,  3-C ) :   1.2633 B(  2-C ,  6-C ) :   1.0167
B(  3-C ,  4-C ) :   1.5641 B(  3-C ,  5-H ) :   0.9955 B(  4-C , 20-C ) :   0.9941
B(  6-C ,  7-H ) :   0.9497 B(  6-C ,  8-H ) :   0.9385 B(  6-C ,  9-C ) :   1.0533
B(  9-C , 10-H ) :   0.9491 B(  9-C , 11-H ) :   0.9555 B(  9-C , 12-C ) :   1.1028
B( 12-C , 13-H ) :   0.9696 B( 12-C , 14-H ) :   0.9686 B( 12-C , 15-H ) :   0.9697
B( 16-S , 17-C ) :   1.1395 B( 16-S , 20-C ) :   1.1539 B( 17-C , 18-C ) :   1.6491
B( 17-C , 33-H ) :   0.9622 B( 18-C , 19-C ) :   1.2146 B( 18-C , 21-H ) :   0.9903
B( 19-C , 20-C ) :   1.6091 B( 19-C , 22-C ) :   1.0421 B( 22-C , 23-H ) :   0.9288
B( 22-C , 24-H ) :   0.9245 B( 22-C , 25-C ) :   1.0679 B( 25-C , 26-H ) :   0.9572
B( 25-C , 27-H ) :   0.9579 B( 25-C , 28-C ) :   1.0557 B( 28-C , 29-H ) :   0.9765
B( 28-C , 30-H ) :   0.9728 B( 28-C , 31-H ) :   0.9711

Dispersion correction           -0.014703936
FINAL SINGLE POINT ENERGY     -1339.876207717996

DIPOLE MOMENT
-------------
                                X             Y             Z
Electronic contribution:    -15.02656       8.92845       3.56498
Nuclear contribution   :     15.45606      -9.01336      -3.54984
                        -----------------------------------------
Total Dipole Moment    :      0.42950      -0.08491       0.01514
                        -----------------------------------------
Magnitude (a.u.)       :      0.43807
Magnitude (Debye)      :      1.11348

Rotational constants in cm-1:     0.021971     0.007359     0.006736
Rotational constants in MHz :   658.688770   220.608081   201.954376

                             ****ORCA TERMINATED NORMALLY****
TOTAL RUN TIME: 0 days 0 hours 0 minutes 33 seconds 906 msec
