                         Program Version 4.2.1 -  RELEASE  -
|  1> ! wB97X-D3 SP def2-SVP
|  2> %pal
|  3> nprocs 16
|  4> end
|  5>
|  6> * xyz 0 1
|  7> S 	 -67.9317 	 40.316 	 126.475
|  8> C 	 -67.8823 	 40.5783 	 128.213
|  9> C 	 -69.0777 	 40.5324 	 128.836
| 10> C 	 -70.0668 	 40.1782 	 127.853
| 11> C 	 -69.5506 	 39.9054 	 126.606
| 12> H 	 -71.1323 	 40.1139 	 127.987
| 13> C 	 -69.384 	 40.7474 	 130.248
| 14> H 	 -68.8284 	 40.0162 	 130.926
| 15> H 	 -70.4259 	 40.4703 	 130.527
| 16> C 	 -69.2447 	 42.2149 	 130.756
| 17> H 	 -68.2147 	 42.6364 	 130.802
| 18> H 	 -69.6991 	 42.7626 	 129.951
| 19> C 	 -69.8857 	 42.4098 	 132.183
| 20> H 	 -69.775 	 43.47 	 132.277
| 21> H 	 -70.9669 	 42.0915 	 132.198
| 22> H 	 -69.2797 	 41.8734 	 132.921
| 23> S 	 -71.5388 	 40.279 	 124.731
| 24> C 	 -71.7269 	 39.1302 	 123.374
| 25> C 	 -70.8609 	 38.0881 	 123.526
| 26> C 	 -70.0304 	 38.1992 	 124.71
| 27> C 	 -70.2577 	 39.3245 	 125.505
| 28> H 	 -70.847 	 37.3207 	 122.806
| 29> C 	 -68.9075 	 37.2331 	 125.023
| 30> H 	 -68.3803 	 37.5704 	 125.87
| 31> H 	 -68.1546 	 37.3495 	 124.236
| 32> C 	 -69.3064 	 35.7844 	 125.149
| 33> H 	 -69.9208 	 35.4268 	 124.275
| 34> H 	 -69.9065 	 35.8526 	 126.044
| 35> C 	 -68.1703 	 34.8052 	 125.205
| 36> H 	 -67.6137 	 34.9397 	 126.139
| 37> H 	 -67.5014 	 34.7632 	 124.404
| 38> H 	 -68.4896 	 33.766 	 125.387
| 39> H 	 -66.9783 	 40.6794 	 128.771
| 40> H 	 -72.3075 	 39.2444 	 122.448
| 41> *
| 42>
| 43>                          ****END OF INPUT****

CARTESIAN COORDINATES (ANGSTROEM)
---------------------------------
  S    -67.931700   40.316000  126.475000
  C    -67.882300   40.578300  128.213000
  C    -69.077700   40.532400  128.836000
  C    -70.066800   40.178200  127.853000
  C    -69.550600   39.905400  126.606000
  H    -71.132300   40.113900  127.987000
  C    -69.384000   40.747400  130.248000
  H    -68.828400   40.016200  130.926000
  H    -70.425900   40.470300  130.527000
  C    -69.244700   42.214900  130.756000
  H    -68.214700   42.636400  130.802000
  H    -69.699100   42.762600  129.951000
  C    -69.885700   42.409800  132.183000
  H    -69.775000   43.470000  132.277000
  H    -70.966900   42.091500  132.198000
  H    -69.279700   41.873400  132.921000
  S    -71.538800   40.279000  124.731000
  C    -71.726900   39.130200  123.374000
  C    -70.860900   38.088100  123.526000
  C    -70.030400   38.199200  124.710000
  C    -70.257700   39.324500  125.505000
  H    -70.847000   37.320700  122.806000
  C    -68.907500   37.233100  125.023000
  H    -68.380300   37.570400  125.870000
  H    -68.154600   37.349500  124.236000
  C    -69.306400   35.784400  125.149000
  H    -69.920800   35.426800  124.275000
  H    -69.906500   35.852600  126.044000
  C    -68.170300   34.805200  125.205000
  H    -67.613700   34.939700  126.139000
  H    -67.501400   34.763200  124.404000
  H    -68.489600   33.766000  125.387000
  H    -66.978300   40.679400  128.771000
  H    -72.307500   39.244400  122.448000

 Total Charge           Charge          ....    0
 Multiplicity           Mult            ....    1
 Number of Electrons    NEL             ....  134
 Basis Dimension        Dim             ....  322

ORBITAL ENERGIES
----------------

  NO   OCC          E(Eh)            E(eV)
   0   2.0000     -88.968977     -2420.9689
   1   2.0000     -88.960382     -2420.7351
   2   2.0000     -10.325008      -280.9578
   3   2.0000     -10.320451      -280.8338
   4   2.0000     -10.320433      -280.8332
   5   2.0000     -10.307912      -280.4925
   6   2.0000     -10.304733      -280.4060
   7   2.0000     -10.297639      -280.2130
   8   2.0000     -10.297409      -280.2067
   9   2.0000     -10.291665      -280.0505
  10   2.0000     -10.291046      -280.0336
  11   2.0000     -10.290658      -280.0230
  12   2.0000     -10.286460      -279.9088
  13   2.0000     -10.282672      -279.8057
  14   2.0000     -10.279186      -279.7109
  15   2.0000     -10.271038      -279.4892
  16   2.0000      -8.084769      -219.9977
  17   2.0000      -8.074262      -219.7118
  18   2.0000      -6.043165      -164.4429
  19   2.0000      -6.039239      -164.3360
  20   2.0000      -6.035458      -164.2332
  21   2.0000      -6.032967      -164.1654
  22   2.0000      -6.028798      -164.0519
  23   2.0000      -6.024939      -163.9469
  24   2.0000      -1.015007       -27.6197
  25   2.0000      -0.982201       -26.7271
  26   2.0000      -0.915259       -24.9055
  27   2.0000      -0.910955       -24.7884
  28   2.0000      -0.873242       -23.7621
  29   2.0000      -0.852563       -23.1994
  30   2.0000      -0.844545       -22.9812
  31   2.0000      -0.816043       -22.2057
  32   2.0000      -0.785606       -21.3774
  33   2.0000      -0.771620       -20.9968
  34   2.0000      -0.707133       -19.2421
  35   2.0000      -0.702190       -19.1076
  36   2.0000      -0.696097       -18.9417
  37   2.0000      -0.659008       -17.9325
  38   2.0000      -0.643905       -17.5216
  39   2.0000      -0.617385       -16.7999
  40   2.0000      -0.593796       -16.1580
  41   2.0000      -0.578061       -15.7298
  42   2.0000      -0.569792       -15.5048
  43   2.0000      -0.557701       -15.1758
  44   2.0000      -0.529841       -14.4177
  45   2.0000      -0.526407       -14.3243
  46   2.0000      -0.517089       -14.0707
  47   2.0000      -0.515980       -14.0405
  48   2.0000      -0.510621       -13.8947
  49   2.0000      -0.499388       -13.5890
  50   2.0000      -0.498224       -13.5574
  51   2.0000      -0.479815       -13.0564
  52   2.0000      -0.465958       -12.6794
  53   2.0000      -0.463622       -12.6158
  54   2.0000      -0.456778       -12.4296
  55   2.0000      -0.450695       -12.2640
  56   2.0000      -0.449428       -12.2295
  57   2.0000      -0.439779       -11.9670
  58   2.0000      -0.428488       -11.6597
  59   2.0000      -0.421962       -11.4822
  60   2.0000      -0.415105       -11.2956
  61   2.0000      -0.414162       -11.2699
  62   2.0000      -0.408839       -11.1251
  63   2.0000      -0.340975        -9.2784
  64   2.0000      -0.333449        -9.0736
  65   2.0000      -0.322662        -8.7801
  66   2.0000      -0.298722        -8.1286
  67   0.0000       0.034580         0.9410
  68   0.0000       0.067443         1.8352
  69   0.0000       0.111915         3.0454
  70   0.0000       0.118782         3.2322
  71   0.0000       0.129334         3.5194

MULLIKEN ATOMIC CHARGES
-----------------------
   0 S :    0.140150
   1 C :   -0.124744
   2 C :   -0.034801
   3 C :    0.027627
   4 C :   -0.174673
   5 H :    0.003715
   6 C :    0.041912
   7 H :    0.038159
   8 H :    0.015007
   9 C :   -0.111714
  10 H :    0.035652
  11 H :    0.030530
  12 C :   -0.049597
  13 H :    0.039181
  14 H :    0.048222
  15 H :    0.043147
  16 S :    0.085684
  17 C :   -0.093398
  18 C :   -0.012662
  19 C :   -0.047531
  20 C :   -0.142893
  21 H :    0.003799
  22 C :    0.096672
  23 H :    0.003328
  24 H :    0.018812
  25 C :   -0.091453
  26 H :    0.035480
  27 H :    0.032141
  28 C :   -0.017221
  29 H :    0.016472
  30 H :    0.024405
  31 H :    0.024420
  32 H :    0.029510
  33 H :    0.066662
Sum of atomic charges:    0.0000000

LOEWDIN ATOMIC CHARGES
----------------------
   0 S :    0.445139
   1 C :   -0.184418
   2 C :   -0.066735
   3 C :   -0.053424
   4 C :   -0.224969
   5 H :    0.027516
   6 C :   -0.045148
   7 H :    0.037496
   8 H :    0.032779
   9 C :   -0.040152
  10 H :    0.025351
  11 H :    0.021432
  12 C :   -0.063642
  13 H :    0.026963
  14 H :    0.031179
  15 H :    0.028047
  16 S :    0.373528
  17 C :   -0.173013
  18 C :   -0.066553
  19 C :   -0.049017
  20 C :   -0.195989
  21 H :    0.024253
  22 C :   -0.035295
  23 H :    0.015603
  24 H :    0.028595
  25 C :   -0.043625
  26 H :    0.027576
  27 H :    0.028883
  28 C :   -0.066308
  29 H :    0.026182
  30 H :    0.017137
  31 H :    0.030485
  32 H :    0.020642
  33 H :    0.039503

  Mayer bond orders larger than 0.100000
B(  0-S ,  1-C ) :   1.1336 B(  0-S ,  4-C ) :   1.1616 B(  1-C ,  2-C ) :   1.6261
B(  1-C , 32-H ) :   0.9680 B(  2-C ,  3-C ) :   1.2223 B(  2-C ,  6-C ) :   1.0402
B(  3-C ,  4-C ) :   1.5748 B(  3-C ,  5-H ) :   1.0004 B(  4-C , 20-C ) :   1.0274
B(  6-C ,  7-H ) :   0.9298 B(  6-C ,  8-H ) :   0.9419 B(  6-C ,  9-C ) :   1.0422
B(  9-C , 10-H ) :   0.9571 B(  9-C , 11-H ) :   0.9589 B(  9-C , 12-C ) :   1.0726
B( 12-C , 13-H ) :   0.9768 B( 12-C , 14-H ) :   0.9749 B( 12-C , 15-H ) :   0.9753
B( 16-S , 17-C ) :   1.1401 B( 16-S , 20-C ) :   1.1149 B( 17-C , 18-C ) :   1.6406
B( 17-C , 33-H ) :   0.9614 B( 18-C , 19-C ) :   1.2102 B( 18-C , 21-H ) :   0.9971
B( 19-C , 20-C ) :   1.6091 B( 19-C , 22-C ) :   1.0528 B( 22-C , 23-H ) :   0.9269
B( 22-C , 24-H ) :   0.9288 B( 22-C , 25-C ) :   1.0504 B( 25-C , 26-H ) :   0.9583
B( 25-C , 27-H ) :   0.9555 B( 25-C , 28-C ) :   1.0924 B( 28-C , 29-H ) :   0.9681
B( 28-C , 30-H ) :   0.9746 B( 28-C , 31-H ) :   0.9699

Dispersion correction           -0.013613277
FINAL SINGLE POINT ENERGY     -1339.867854229443

DIPOLE MOMENT
-------------
                                X             Y             Z
Electronic contribution:     -4.18815       9.37850     -16.91190
Nuclear contribution   :      4.36284      -9.63251      17.17527
                        -----------------------------------------
Total Dipole Moment    :      0.17469      -0.25401       0.26337
                        -----------------------------------------
Magnitude (a.u.)       :      0.40547
Magnitude (Debye)      :      1.03062

Rotational constants in cm-1:     0.021011     0.007190     0.006076
Rotational constants in MHz :   629.894127   215.539575   182.159733

                             ****ORCA TERMINATED NORMALLY****
TOTAL RUN TIME: 0 days 0 hours 0 minutes 35 seconds 15 msec
