                         Program Version 4.2.1 -  RELEASE  -
|  1> ! wB97X-D3 SP def2-SVP
|  2> %pal
|  3> nprocs 16
|  4> end
|  5>
|  6> * xyz 0 1
|  7> S 	 -37.4295 	 63.2061 	 107.586
|  8> C 	 -36.9177 	 62.3558 	 109.025
|  9> C 	 -37.3509 	 61.0537 	 108.998
| 10> C 	 -38.0227 	 60.7503 	 107.737
| 11> C 	 -38.184 	 61.8304 	 106.897
| 12> H 	 -38.3466 	 59.7642 	 107.582
| 13> C 	 -36.9969 	 59.9116 	 109.876
| 14> H 	 -37.7706 	 59.1297 	 109.876
| 15> H 	 -37.0343 	 60.2354 	 110.943
| 16> C 	 -35.6155 	 59.2755 	 109.661
| 17> H 	 -34.8981 	 59.9025 	 110.219
| 18> H 	 -35.6328 	 58.2243 	 110.047
| 19> C 	 -34.9237 	 59.2032 	 108.29
| 20> H 	 -33.7365 	 59.1312 	 108.387
| 21> H 	 -35.229 	 58.365 	 107.751
| 22> H 	 -35.0387 	 60.1491 	 107.697
| 23> S 	 -37.669 	 60.9571 	 104.331
| 24> C 	 -38.6398 	 61.4981 	 103.048
| 25> C 	 -39.5765 	 62.4296 	 103.493
| 26> C 	 -39.5551 	 62.633 	 104.902
| 27> C 	 -38.6601 	 61.8086 	 105.564
| 28> H 	 -40.2034 	 63.032 	 102.786
| 29> C 	 -40.3816 	 63.7674 	 105.561
| 30> H 	 -39.7971 	 64.6861 	 105.558
| 31> H 	 -40.5361 	 63.6046 	 106.621
| 32> C 	 -41.7493 	 63.9854 	 104.948
| 33> H 	 -42.2733 	 63.1701 	 105.395
| 34> H 	 -41.7346 	 63.8524 	 103.87
| 35> C 	 -42.4399 	 65.3249 	 105.405
| 36> H 	 -43.4801 	 65.3873 	 105.236
| 37> H 	 -41.9961 	 66.144 	 104.835
| 38> H 	 -42.3386 	 65.4087 	 106.514
| 39> H 	 -36.2149 	 62.8137 	 109.714
| 40> H 	 -38.5308 	 61.1571 	 101.977
| 41> *
| 42>
| 43>                          ****END OF INPUT****

CARTESIAN COORDINATES (ANGSTROEM)
---------------------------------
  S    -37.429500   63.206100  107.586000
  C    -36.917700   62.355800  109.025000
  C    -37.350900   61.053700  108.998000
  C    -38.022700   60.750300  107.737000
  C    -38.184000   61.830400  106.897000
  H    -38.346600   59.764200  107.582000
  C    -36.996900   59.911600  109.876000
  H    -37.770600   59.129700  109.876000
  H    -37.034300   60.235400  110.943000
  C    -35.615500   59.275500  109.661000
  H    -34.898100   59.902500  110.219000
  H    -35.632800   58.224300  110.047000
  C    -34.923700   59.203200  108.290000
  H    -33.736500   59.131200  108.387000
  H    -35.229000   58.365000  107.751000
  H    -35.038700   60.149100  107.697000
  S    -37.669000   60.957100  104.331000
  C    -38.639800   61.498100  103.048000
  C    -39.576500   62.429600  103.493000
  C    -39.555100   62.633000  104.902000
  C    -38.660100   61.808600  105.564000
  H    -40.203400   63.032000  102.786000
  C    -40.381600   63.767400  105.561000
  H    -39.797100   64.686100  105.558000
  H    -40.536100   63.604600  106.621000
  C    -41.749300   63.985400  104.948000
  H    -42.273300   63.170100  105.395000
  H    -41.734600   63.852400  103.870000
  C    -42.439900   65.324900  105.405000
  H    -43.480100   65.387300  105.236000
  H    -41.996100   66.144000  104.835000
  H    -42.338600   65.408700  106.514000
  H    -36.214900   62.813700  109.714000
  H    -38.530800   61.157100  101.977000

 Total Charge           Charge          ....    0
 Multiplicity           Mult            ....    1
 Number of Electrons    NEL             ....  134
 Basis Dimension        Dim             ....  322

ORBITAL ENERGIES
----------------

  NO   OCC          E(Eh)            E(eV)
   0   2.0000     -88.964932     -2420.8589
   1   2.0000     -88.964082     -2420.8358
   2   2.0000     -10.323643      -280.9206
   3   2.0000     -10.323240      -280.9096
   4   2.0000     -10.321319      -280.8574
   5   2.0000     -10.316229      -280.7189
   6   2.0000     -10.305395      -280.4241
   7   2.0000     -10.300304      -280.2855
   8   2.0000     -10.296263      -280.1756
   9   2.0000     -10.294690      -280.1327
  10   2.0000     -10.290421      -280.0166
  11   2.0000     -10.290028      -280.0059
  12   2.0000     -10.288892      -279.9750
  13   2.0000     -10.281845      -279.7832
  14   2.0000     -10.281145      -279.7642
  15   2.0000     -10.280039      -279.7341
  16   2.0000      -8.079889      -219.8650
  17   2.0000      -8.079604      -219.8572
  18   2.0000      -6.038399      -164.3132
  19   2.0000      -6.038122      -164.3057
  20   2.0000      -6.034291      -164.2014
  21   2.0000      -6.033873      -164.1900
  22   2.0000      -6.030695      -164.1036
  23   2.0000      -6.030428      -164.0963
  24   2.0000      -1.010576       -27.4992
  25   2.0000      -0.986321       -26.8392
  26   2.0000      -0.912367       -24.8268
  27   2.0000      -0.908241       -24.7145
  28   2.0000      -0.871482       -23.7142
  29   2.0000      -0.846750       -23.0412
  30   2.0000      -0.843334       -22.9483
  31   2.0000      -0.808916       -22.0117
  32   2.0000      -0.785262       -21.3681
  33   2.0000      -0.775801       -21.1106
  34   2.0000      -0.706151       -19.2153
  35   2.0000      -0.697509       -18.9802
  36   2.0000      -0.692953       -18.8562
  37   2.0000      -0.652217       -17.7477
  38   2.0000      -0.644327       -17.5330
  39   2.0000      -0.613658       -16.6985
  40   2.0000      -0.602720       -16.4009
  41   2.0000      -0.574956       -15.6453
  42   2.0000      -0.564944       -15.3729
  43   2.0000      -0.551769       -15.0144
  44   2.0000      -0.536859       -14.6087
  45   2.0000      -0.518979       -14.1221
  46   2.0000      -0.513527       -13.9738
  47   2.0000      -0.510101       -13.8806
  48   2.0000      -0.507561       -13.8114
  49   2.0000      -0.503326       -13.6962
  50   2.0000      -0.492058       -13.3896
  51   2.0000      -0.474833       -12.9209
  52   2.0000      -0.469982       -12.7889
  53   2.0000      -0.465251       -12.6601
  54   2.0000      -0.458276       -12.4703
  55   2.0000      -0.452026       -12.3002
  56   2.0000      -0.443756       -12.0752
  57   2.0000      -0.435206       -11.8426
  58   2.0000      -0.429146       -11.6777
  59   2.0000      -0.421428       -11.4676
  60   2.0000      -0.416746       -11.3402
  61   2.0000      -0.414499       -11.2791
  62   2.0000      -0.399410       -10.8685
  63   2.0000      -0.339074        -9.2267
  64   2.0000      -0.331982        -9.0337
  65   2.0000      -0.326861        -8.8944
  66   2.0000      -0.300079        -8.1656
  67   0.0000       0.033348         0.9074
  68   0.0000       0.062274         1.6946
  69   0.0000       0.108534         2.9534
  70   0.0000       0.114731         3.1220
  71   0.0000       0.127179         3.4607

MULLIKEN ATOMIC CHARGES
-----------------------
   0 S :    0.113009
   1 C :   -0.142410
   2 C :   -0.075637
   3 C :    0.025061
   4 C :   -0.138947
   5 H :   -0.010081
   6 C :    0.064502
   7 H :    0.023794
   8 H :    0.032389
   9 C :   -0.088386
  10 H :    0.029228
  11 H :    0.040273
  12 C :   -0.082888
  13 H :    0.041673
  14 H :    0.026831
  15 H :    0.051797
  16 S :    0.116496
  17 C :   -0.113351
  18 C :   -0.063582
  19 C :   -0.034716
  20 C :   -0.144018
  21 H :    0.038781
  22 C :    0.075760
  23 H :    0.034024
  24 H :    0.023106
  25 C :   -0.099271
  26 H :    0.028059
  27 H :    0.030392
  28 C :   -0.040635
  29 H :    0.025939
  30 H :    0.038096
  31 H :    0.036267
  32 H :    0.055019
  33 H :    0.083424
Sum of atomic charges:   -0.0000000

LOEWDIN ATOMIC CHARGES
----------------------
   0 S :    0.424718
   1 C :   -0.193848
   2 C :   -0.066617
   3 C :   -0.047378
   4 C :   -0.213711
   5 H :    0.021308
   6 C :   -0.042465
   7 H :    0.030210
   8 H :    0.038834
   9 C :   -0.048065
  10 H :    0.026410
  11 H :    0.032164
  12 C :   -0.075469
  13 H :    0.039648
  14 H :    0.010562
  15 H :    0.031656
  16 S :    0.418575
  17 C :   -0.207541
  18 C :   -0.087675
  19 C :   -0.049004
  20 C :   -0.196699
  21 H :    0.037071
  22 C :   -0.032431
  23 H :    0.028830
  24 H :    0.027952
  25 C :   -0.040299
  26 H :    0.024608
  27 H :    0.017818
  28 C :   -0.062193
  29 H :    0.019643
  30 H :    0.027106
  31 H :    0.031738
  32 H :    0.029362
  33 H :    0.045180

  Mayer bond orders larger than 0.100000
B(  0-S ,  1-C ) :   1.1468 B(  0-S ,  4-C ) :   1.1469 B(  1-C ,  2-C ) :   1.5902
B(  1-C , 32-H ) :   0.9745 B(  2-C ,  3-C ) :   1.2379 B(  2-C ,  6-C ) :   1.0444
B(  3-C ,  4-C ) :   1.5395 B(  3-C ,  5-H ) :   1.0133 B(  4-C , 20-C ) :   1.0675
B(  6-C ,  7-H ) :   0.9397 B(  6-C ,  8-H ) :   0.9379 B(  6-C ,  9-C ) :   1.0551
B(  9-C , 10-H ) :   0.9595 B(  9-C , 11-H ) :   0.9584 B(  9-C , 12-C ) :   1.0876
B( 12-C , 13-H ) :   0.9755 B( 12-C , 14-H ) :   0.9789 B( 12-C , 15-H ) :   0.9643
B( 16-S , 17-C ) :   1.1879 B( 16-S , 20-C ) :   1.1323 B( 17-C , 18-C ) :   1.5711
B( 17-C , 20-C ) :   0.1032 B( 17-C , 33-H ) :   0.9577 B( 18-C , 19-C ) :   1.2718
B( 18-C , 21-H ) :   0.9784 B( 19-C , 20-C ) :   1.5737 B( 19-C , 22-C ) :   1.0298
B( 22-C , 23-H ) :   0.9370 B( 22-C , 24-H ) :   0.9355 B( 22-C , 25-C ) :   1.0432
B( 25-C , 26-H ) :   0.9603 B( 25-C , 27-H ) :   0.9620 B( 25-C , 28-C ) :   1.0793
B( 28-C , 29-H ) :   0.9760 B( 28-C , 30-H ) :   0.9770 B( 28-C , 31-H ) :   0.9736

Dispersion correction           -0.014425429
FINAL SINGLE POINT ENERGY     -1339.872225701537

DIPOLE MOMENT
-------------
                                X             Y             Z
Electronic contribution:      5.63783       0.18463      -7.30443
Nuclear contribution   :     -5.70040      -0.20658       7.39390
                        -----------------------------------------
Total Dipole Moment    :     -0.06257      -0.02195       0.08946
                        -----------------------------------------
Magnitude (a.u.)       :      0.11135
Magnitude (Debye)      :      0.28304

Rotational constants in cm-1:     0.023114     0.007913     0.006435
Rotational constants in MHz :   692.935809   237.228192   192.929853

                             ****ORCA TERMINATED NORMALLY****
TOTAL RUN TIME: 0 days 0 hours 0 minutes 27 seconds 786 msec
