                         Program Version 4.2.1 -  RELEASE  -
|  1> ! wB97X-D3 SP def2-SVP
|  2> %pal
|  3> nprocs 16
|  4> end
|  5>
|  6> * xyz 0 1
|  7> S 	 38.9463 	 12.3804 	 86.2025
|  8> C 	 38.3137 	 11.1172 	 85.1533
|  9> C 	 39.0412 	 11.0579 	 84.0115
| 10> C 	 40.1411 	 11.9741 	 83.9551
| 11> C 	 40.2544 	 12.7321 	 85.1308
| 12> H 	 40.8177 	 12.0951 	 83.0798
| 13> C 	 38.9382 	 10.0123 	 82.8859
| 14> H 	 38.7985 	 10.4558 	 81.892
| 15> H 	 38.0688 	 9.44147 	 83.2237
| 16> C 	 40.1201 	 9.18948 	 82.6443
| 17> H 	 40.9428 	 9.7384 	 82.297
| 18> H 	 40.4559 	 8.70015 	 83.5119
| 19> C 	 39.8331 	 8.23104 	 81.5055
| 20> H 	 39.6892 	 8.80659 	 80.5797
| 21> H 	 40.6911 	 7.5327 	 81.3731
| 22> H 	 38.8553 	 7.75258 	 81.6014
| 23> S 	 40.8679 	 15.2974 	 85.7719
| 24> C 	 42.5269 	 15.8083 	 86.0389
| 25> C 	 43.3822 	 14.7561 	 85.9168
| 26> C 	 42.7415 	 13.5466 	 85.5167
| 27> C 	 41.3471 	 13.7191 	 85.3343
| 28> H 	 44.3863 	 14.8127 	 86.1928
| 29> C 	 43.5426 	 12.2687 	 85.2715
| 30> H 	 44.5273 	 12.5662 	 84.8517
| 31> H 	 43.0986 	 11.6434 	 84.5154
| 32> C 	 43.6472 	 11.3277 	 86.463
| 33> H 	 42.6947 	 11.1602 	 86.9292
| 34> H 	 44.3085 	 11.72 	 87.2317
| 35> C 	 44.1682 	 9.9297 	 85.9951
| 36> H 	 44.3628 	 9.25129 	 86.8508
| 37> H 	 45.1611 	 9.99474 	 85.5215
| 38> H 	 43.3567 	 9.4703 	 85.5084
| 39> H 	 37.5565 	 10.3674 	 85.4067
| 40> H 	 42.9563 	 16.7341 	 86.3634
| 41> *
| 42>
| 43>                          ****END OF INPUT****

CARTESIAN COORDINATES (ANGSTROEM)
---------------------------------
  S     38.946300   12.380400   86.202500
  C     38.313700   11.117200   85.153300
  C     39.041200   11.057900   84.011500
  C     40.141100   11.974100   83.955100
  C     40.254400   12.732100   85.130800
  H     40.817700   12.095100   83.079800
  C     38.938200   10.012300   82.885900
  H     38.798500   10.455800   81.892000
  H     38.068800    9.441470   83.223700
  C     40.120100    9.189480   82.644300
  H     40.942800    9.738400   82.297000
  H     40.455900    8.700150   83.511900
  C     39.833100    8.231040   81.505500
  H     39.689200    8.806590   80.579700
  H     40.691100    7.532700   81.373100
  H     38.855300    7.752580   81.601400
  S     40.867900   15.297400   85.771900
  C     42.526900   15.808300   86.038900
  C     43.382200   14.756100   85.916800
  C     42.741500   13.546600   85.516700
  C     41.347100   13.719100   85.334300
  H     44.386300   14.812700   86.192800
  C     43.542600   12.268700   85.271500
  H     44.527300   12.566200   84.851700
  H     43.098600   11.643400   84.515400
  C     43.647200   11.327700   86.463000
  H     42.694700   11.160200   86.929200
  H     44.308500   11.720000   87.231700
  C     44.168200    9.929700   85.995100
  H     44.362800    9.251290   86.850800
  H     45.161100    9.994740   85.521500
  H     43.356700    9.470300   85.508400
  H     37.556500   10.367400   85.406700
  H     42.956300   16.734100   86.363400

 Total Charge           Charge          ....    0
 Multiplicity           Mult            ....    1
 Number of Electrons    NEL             ....  134
 Basis Dimension        Dim             ....  322

ORBITAL ENERGIES
----------------

  NO   OCC          E(Eh)            E(eV)
   0   2.0000     -88.970577     -2421.0125
   1   2.0000     -88.967348     -2420.9246
   2   2.0000     -10.333687      -281.1939
   3   2.0000     -10.327997      -281.0391
   4   2.0000     -10.315376      -280.6957
   5   2.0000     -10.312988      -280.6307
   6   2.0000     -10.304516      -280.4001
   7   2.0000     -10.297670      -280.2138
   8   2.0000     -10.295489      -280.1545
   9   2.0000     -10.289861      -280.0014
  10   2.0000     -10.289585      -279.9938
  11   2.0000     -10.286294      -279.9043
  12   2.0000     -10.281325      -279.7691
  13   2.0000     -10.280977      -279.7596
  14   2.0000     -10.276454      -279.6365
  15   2.0000     -10.272622      -279.5323
  16   2.0000      -8.085184      -220.0090
  17   2.0000      -8.082475      -219.9353
  18   2.0000      -6.043831      -164.4610
  19   2.0000      -6.040976      -164.3833
  20   2.0000      -6.039627      -164.3466
  21   2.0000      -6.036802      -164.2697
  22   2.0000      -6.035865      -164.2442
  23   2.0000      -6.033342      -164.1756
  24   2.0000      -1.008970       -27.4555
  25   2.0000      -0.988355       -26.8945
  26   2.0000      -0.927401       -25.2359
  27   2.0000      -0.907358       -24.6905
  28   2.0000      -0.874367       -23.7927
  29   2.0000      -0.848283       -23.0829
  30   2.0000      -0.847432       -23.0598
  31   2.0000      -0.815692       -22.1961
  32   2.0000      -0.779017       -21.1981
  33   2.0000      -0.769991       -20.9525
  34   2.0000      -0.710702       -19.3392
  35   2.0000      -0.699873       -19.0445
  36   2.0000      -0.692314       -18.8388
  37   2.0000      -0.663619       -18.0580
  38   2.0000      -0.638224       -17.3670
  39   2.0000      -0.622050       -16.9268
  40   2.0000      -0.596471       -16.2308
  41   2.0000      -0.587464       -15.9857
  42   2.0000      -0.571885       -15.5618
  43   2.0000      -0.567189       -15.4340
  44   2.0000      -0.530796       -14.4437
  45   2.0000      -0.522889       -14.2285
  46   2.0000      -0.510402       -13.8888
  47   2.0000      -0.508449       -13.8356
  48   2.0000      -0.502933       -13.6855
  49   2.0000      -0.500739       -13.6258
  50   2.0000      -0.489436       -13.3182
  51   2.0000      -0.487181       -13.2569
  52   2.0000      -0.469564       -12.7775
  53   2.0000      -0.466731       -12.7004
  54   2.0000      -0.461308       -12.5528
  55   2.0000      -0.449025       -12.2186
  56   2.0000      -0.447341       -12.1728
  57   2.0000      -0.441807       -12.0222
  58   2.0000      -0.432088       -11.7577
  59   2.0000      -0.425412       -11.5761
  60   2.0000      -0.420186       -11.4338
  61   2.0000      -0.416608       -11.3365
  62   2.0000      -0.410410       -11.1678
  63   2.0000      -0.346447        -9.4273
  64   2.0000      -0.332812        -9.0563
  65   2.0000      -0.329631        -8.9697
  66   2.0000      -0.296479        -8.0676
  67   0.0000       0.035254         0.9593
  68   0.0000       0.066782         1.8172
  69   0.0000       0.114765         3.1229
  70   0.0000       0.122603         3.3362
  71   0.0000       0.131341         3.5740

MULLIKEN ATOMIC CHARGES
-----------------------
   0 S :    0.123347
   1 C :   -0.140790
   2 C :   -0.061557
   3 C :   -0.005862
   4 C :   -0.133540
   5 H :    0.036611
   6 C :    0.063524
   7 H :    0.024673
   8 H :    0.012721
   9 C :   -0.029948
  10 H :    0.012474
  11 H :    0.015181
  12 C :   -0.054977
  13 H :    0.021363
  14 H :    0.046238
  15 H :    0.024842
  16 S :    0.113678
  17 C :   -0.065332
  18 C :   -0.021718
  19 C :   -0.032381
  20 C :   -0.174460
  21 H :   -0.002331
  22 C :    0.073977
  23 H :    0.026572
  24 H :    0.003726
  25 C :   -0.067246
  26 H :    0.031535
  27 H :    0.022262
  28 C :   -0.059449
  29 H :    0.026805
  30 H :    0.040392
  31 H :    0.033406
  32 H :    0.053781
  33 H :    0.042485
Sum of atomic charges:   -0.0000000

LOEWDIN ATOMIC CHARGES
----------------------
   0 S :    0.413835
   1 C :   -0.204932
   2 C :   -0.065778
   3 C :   -0.067930
   4 C :   -0.203789
   5 H :    0.037703
   6 C :   -0.029055
   7 H :    0.034687
   8 H :    0.027922
   9 C :   -0.040767
  10 H :    0.018973
  11 H :    0.016391
  12 C :   -0.061292
  13 H :    0.024308
  14 H :    0.031799
  15 H :    0.023090
  16 S :    0.429246
  17 C :   -0.186322
  18 C :   -0.064247
  19 C :   -0.051351
  20 C :   -0.214176
  21 H :    0.023172
  22 C :   -0.033978
  23 H :    0.032743
  24 H :    0.025516
  25 C :   -0.034305
  26 H :    0.024734
  27 H :    0.018406
  28 C :   -0.067424
  29 H :    0.028397
  30 H :    0.028220
  31 H :    0.019899
  32 H :    0.036241
  33 H :    0.030066

  Mayer bond orders larger than 0.100000
B(  0-S ,  1-C ) :   1.1169 B(  0-S ,  4-C ) :   1.1618 B(  1-C ,  2-C ) :   1.6384
B(  1-C , 32-H ) :   0.9611 B(  2-C ,  3-C ) :   1.2328 B(  2-C ,  6-C ) :   1.0205
B(  3-C ,  4-C ) :   1.5637 B(  3-C ,  5-H ) :   0.9888 B(  4-C , 20-C ) :   1.0200
B(  6-C ,  7-H ) :   0.9337 B(  6-C ,  8-H ) :   0.9403 B(  6-C ,  9-C ) :   1.0866
B(  9-C , 10-H ) :   0.9401 B(  9-C , 11-H ) :   0.9500 B(  9-C , 12-C ) :   1.0863
B( 12-C , 13-H ) :   0.9710 B( 12-C , 14-H ) :   0.9723 B( 12-C , 15-H ) :   0.9732
B( 16-S , 17-C ) :   1.1510 B( 16-S , 20-C ) :   1.1594 B( 17-C , 18-C ) :   1.6048
B( 17-C , 33-H ) :   0.9663 B( 18-C , 19-C ) :   1.2761 B( 18-C , 21-H ) :   0.9934
B( 19-C , 20-C ) :   1.5653 B( 19-C , 22-C ) :   1.0382 B( 22-C , 23-H ) :   0.9344
B( 22-C , 24-H ) :   0.9374 B( 22-C , 25-C ) :   1.0588 B( 25-C , 26-H ) :   0.9575
B( 25-C , 27-H ) :   0.9556 B( 25-C , 28-C ) :   1.0856 B( 28-C , 29-H ) :   0.9733
B( 28-C , 30-H ) :   0.9742 B( 28-C , 31-H ) :   0.9760

Dispersion correction           -0.014178858
FINAL SINGLE POINT ENERGY     -1339.873064265114

DIPOLE MOMENT
-------------
                                X             Y             Z
Electronic contribution:    -12.18402      26.33081      12.12563
Nuclear contribution   :     12.62497     -26.82889     -12.31567
                        -----------------------------------------
Total Dipole Moment    :      0.44096      -0.49808      -0.19004
                        -----------------------------------------
Magnitude (a.u.)       :      0.69184
Magnitude (Debye)      :      1.75851

Rotational constants in cm-1:     0.017847     0.009099     0.007074
Rotational constants in MHz :   535.052236   272.777409   212.066701

                             ****ORCA TERMINATED NORMALLY****
TOTAL RUN TIME: 0 days 0 hours 0 minutes 30 seconds 617 msec
