                         Program Version 4.2.1 -  RELEASE  -
|  1> ! wB97X-D3 SP def2-SVP
|  2> %pal
|  3> nprocs 16
|  4> end
|  5>
|  6> * xyz 0 1
|  7> S 	 47.8111 	 9.32749 	 91.7615
|  8> C 	 47.9259 	 11.0649 	 92.0213
|  9> C 	 48.6652 	 11.6589 	 91.0237
| 10> C 	 49.1109 	 10.7673 	 89.9777
| 11> C 	 48.6314 	 9.53318 	 90.1101
| 12> H 	 49.7577 	 11.0105 	 89.1574
| 13> C 	 49.3019 	 13.0268 	 91.0013
| 14> H 	 48.4834 	 13.8077 	 91.1299
| 15> H 	 49.8012 	 13.2203 	 90.0309
| 16> C 	 50.4345 	 13.2625 	 92.0689
| 17> H 	 50.869 	 14.2282 	 91.8415
| 18> H 	 50.1291 	 13.3566 	 93.0958
| 19> C 	 51.6472 	 12.2648 	 91.9449
| 20> H 	 52.1439 	 12.2211 	 90.9475
| 21> H 	 52.4292 	 12.7026 	 92.5568
| 22> H 	 51.4155 	 11.2629 	 92.2344
| 23> S 	 50.8942 	 8.31638 	 89.0787
| 24> C 	 50.687 	 6.80285 	 88.1464
| 25> C 	 49.4088 	 6.40813 	 88.0157
| 26> C 	 48.4801 	 7.25466 	 88.6664
| 27> C 	 49.118 	 8.31616 	 89.3803
| 28> H 	 49.1282 	 5.49581 	 87.4809
| 29> C 	 46.9895 	 7.0116 	 88.7585
| 30> H 	 46.4585 	 7.0766 	 87.7619
| 31> H 	 46.6211 	 7.84002 	 89.3651
| 32> C 	 46.6073 	 5.66652 	 89.3156
| 33> H 	 46.9897 	 5.51646 	 90.3134
| 34> H 	 46.9704 	 4.89884 	 88.6958
| 35> C 	 45.1053 	 5.43948 	 89.4428
| 36> H 	 44.9276 	 4.40972 	 89.8644
| 37> H 	 44.5158 	 5.45507 	 88.5106
| 38> H 	 44.6586 	 6.15997 	 90.1629
| 39> H 	 47.552 	 11.5358 	 92.8931
| 40> H 	 51.4738 	 6.20182 	 87.7422
| 41> *
| 42>
| 43>                          ****END OF INPUT****

CARTESIAN COORDINATES (ANGSTROEM)
---------------------------------
  S     47.811100    9.327490   91.761500
  C     47.925900   11.064900   92.021300
  C     48.665200   11.658900   91.023700
  C     49.110900   10.767300   89.977700
  C     48.631400    9.533180   90.110100
  H     49.757700   11.010500   89.157400
  C     49.301900   13.026800   91.001300
  H     48.483400   13.807700   91.129900
  H     49.801200   13.220300   90.030900
  C     50.434500   13.262500   92.068900
  H     50.869000   14.228200   91.841500
  H     50.129100   13.356600   93.095800
  C     51.647200   12.264800   91.944900
  H     52.143900   12.221100   90.947500
  H     52.429200   12.702600   92.556800
  H     51.415500   11.262900   92.234400
  S     50.894200    8.316380   89.078700
  C     50.687000    6.802850   88.146400
  C     49.408800    6.408130   88.015700
  C     48.480100    7.254660   88.666400
  C     49.118000    8.316160   89.380300
  H     49.128200    5.495810   87.480900
  C     46.989500    7.011600   88.758500
  H     46.458500    7.076600   87.761900
  H     46.621100    7.840020   89.365100
  C     46.607300    5.666520   89.315600
  H     46.989700    5.516460   90.313400
  H     46.970400    4.898840   88.695800
  C     45.105300    5.439480   89.442800
  H     44.927600    4.409720   89.864400
  H     44.515800    5.455070   88.510600
  H     44.658600    6.159970   90.162900
  H     47.552000   11.535800   92.893100
  H     51.473800    6.201820   87.742200

 Total Charge           Charge          ....    0
 Multiplicity           Mult            ....    1
 Number of Electrons    NEL             ....  134
 Basis Dimension        Dim             ....  322

ORBITAL ENERGIES
----------------

  NO   OCC          E(Eh)            E(eV)
   0   2.0000     -88.968532     -2420.9568
   1   2.0000     -88.964130     -2420.8371
   2   2.0000     -10.335410      -281.2408
   3   2.0000     -10.334368      -281.2125
   4   2.0000     -10.316914      -280.7375
   5   2.0000     -10.316085      -280.7149
   6   2.0000     -10.307695      -280.4866
   7   2.0000     -10.301569      -280.3199
   8   2.0000     -10.299069      -280.2519
   9   2.0000     -10.292422      -280.0710
  10   2.0000     -10.291622      -280.0493
  11   2.0000     -10.290508      -280.0190
  12   2.0000     -10.289322      -279.9867
  13   2.0000     -10.280826      -279.7555
  14   2.0000     -10.277761      -279.6721
  15   2.0000     -10.276359      -279.6339
  16   2.0000      -8.081683      -219.9138
  17   2.0000      -8.077333      -219.7954
  18   2.0000      -6.040244      -164.3634
  19   2.0000      -6.036588      -164.2639
  20   2.0000      -6.036091      -164.2504
  21   2.0000      -6.032313      -164.1476
  22   2.0000      -6.032299      -164.1472
  23   2.0000      -6.027670      -164.0212
  24   2.0000      -0.997875       -27.1536
  25   2.0000      -0.978328       -26.6217
  26   2.0000      -0.911128       -24.7930
  27   2.0000      -0.899937       -24.4885
  28   2.0000      -0.870526       -23.6882
  29   2.0000      -0.847608       -23.0646
  30   2.0000      -0.842545       -22.9268
  31   2.0000      -0.817277       -22.2392
  32   2.0000      -0.776825       -21.1385
  33   2.0000      -0.764914       -20.8144
  34   2.0000      -0.705623       -19.2010
  35   2.0000      -0.698539       -19.0082
  36   2.0000      -0.696081       -18.9413
  37   2.0000      -0.659605       -17.9488
  38   2.0000      -0.642188       -17.4748
  39   2.0000      -0.609471       -16.5845
  40   2.0000      -0.596597       -16.2342
  41   2.0000      -0.571261       -15.5448
  42   2.0000      -0.567851       -15.4520
  43   2.0000      -0.542980       -14.7753
  44   2.0000      -0.539709       -14.6862
  45   2.0000      -0.523065       -14.2333
  46   2.0000      -0.518570       -14.1110
  47   2.0000      -0.508294       -13.8314
  48   2.0000      -0.503917       -13.7123
  49   2.0000      -0.493464       -13.4278
  50   2.0000      -0.484194       -13.1756
  51   2.0000      -0.473448       -12.8832
  52   2.0000      -0.466761       -12.7012
  53   2.0000      -0.461072       -12.5464
  54   2.0000      -0.459534       -12.5046
  55   2.0000      -0.450176       -12.2499
  56   2.0000      -0.440156       -11.9773
  57   2.0000      -0.429927       -11.6989
  58   2.0000      -0.427754       -11.6398
  59   2.0000      -0.426348       -11.6015
  60   2.0000      -0.421652       -11.4737
  61   2.0000      -0.420535       -11.4433
  62   2.0000      -0.411682       -11.2024
  63   2.0000      -0.348569        -9.4850
  64   2.0000      -0.337915        -9.1951
  65   2.0000      -0.324591        -8.8326
  66   2.0000      -0.294011        -8.0004
  67   0.0000       0.027943         0.7604
  68   0.0000       0.059360         1.6153
  69   0.0000       0.093470         2.5434
  70   0.0000       0.104438         2.8419
  71   0.0000       0.133543         3.6339

MULLIKEN ATOMIC CHARGES
-----------------------
   0 S :    0.072989
   1 C :   -0.105706
   2 C :   -0.057906
   3 C :   -0.018617
   4 C :   -0.085991
   5 H :    0.022583
   6 C :    0.029991
   7 H :    0.042869
   8 H :    0.026880
   9 C :   -0.058713
  10 H :    0.022147
  11 H :    0.029076
  12 C :   -0.072736
  13 H :    0.027789
  14 H :    0.029943
  15 H :    0.048958
  16 S :    0.089220
  17 C :   -0.071677
  18 C :   -0.026212
  19 C :   -0.025117
  20 C :   -0.168209
  21 H :    0.025656
  22 C :    0.068332
  23 H :    0.035103
  24 H :    0.017722
  25 C :   -0.053609
  26 H :    0.028463
  27 H :    0.015173
  28 C :   -0.079389
  29 H :    0.035776
  30 H :    0.031712
  31 H :    0.039098
  32 H :    0.039292
  33 H :    0.045109
Sum of atomic charges:    0.0000000

LOEWDIN ATOMIC CHARGES
----------------------
   0 S :    0.350861
   1 C :   -0.178878
   2 C :   -0.065190
   3 C :   -0.062507
   4 C :   -0.156964
   5 H :    0.031789
   6 C :   -0.037483
   7 H :    0.037102
   8 H :    0.031390
   9 C :   -0.035011
  10 H :    0.023158
  11 H :    0.019856
  12 C :   -0.068738
  13 H :    0.027207
  14 H :    0.027250
  15 H :    0.021792
  16 S :    0.372196
  17 C :   -0.162805
  18 C :   -0.073520
  19 C :   -0.047188
  20 C :   -0.182563
  21 H :    0.037204
  22 C :   -0.036102
  23 H :    0.038489
  24 H :    0.025576
  25 C :   -0.040088
  26 H :    0.026704
  27 H :    0.015885
  28 C :   -0.070176
  29 H :    0.031300
  30 H :    0.022372
  31 H :    0.027762
  32 H :    0.022850
  33 H :    0.026469

  Mayer bond orders larger than 0.100000
B(  0-S ,  1-C ) :   1.1207 B(  0-S ,  4-C ) :   1.1064 B(  1-C ,  2-C ) :   1.6371
B(  1-C , 32-H ) :   0.9775 B(  2-C ,  3-C ) :   1.1860 B(  2-C ,  6-C ) :   1.0280
B(  3-C ,  4-C ) :   1.6403 B(  3-C ,  5-H ) :   0.9983 B(  4-C , 20-C ) :   1.0129
B(  6-C ,  7-H ) :   0.9376 B(  6-C ,  8-H ) :   0.9479 B(  6-C ,  9-C ) :   1.0685
B(  9-C , 10-H ) :   0.9580 B(  9-C , 11-H ) :   0.9600 B(  9-C , 12-C ) :   1.0683
B( 12-C , 13-H ) :   0.9755 B( 12-C , 14-H ) :   0.9746 B( 12-C , 15-H ) :   0.9782
B( 16-S , 17-C ) :   1.1346 B( 16-S , 20-C ) :   1.1242 B( 17-C , 18-C ) :   1.6451
B( 17-C , 33-H ) :   0.9629 B( 18-C , 19-C ) :   1.2334 B( 18-C , 21-H ) :   0.9842
B( 19-C , 20-C ) :   1.5874 B( 19-C , 22-C ) :   1.0523 B( 22-C , 23-H ) :   0.9274
B( 22-C , 24-H ) :   0.9304 B( 22-C , 25-C ) :   1.0715 B( 25-C , 26-H ) :   0.9507
B( 25-C , 27-H ) :   0.9497 B( 25-C , 28-C ) :   1.0954 B( 28-C , 29-H ) :   0.9734
B( 28-C , 30-H ) :   0.9730 B( 28-C , 31-H ) :   0.9753

Dispersion correction           -0.014554959
FINAL SINGLE POINT ENERGY     -1339.875823794618

DIPOLE MOMENT
-------------
                                X             Y             Z
Electronic contribution:      5.17873      -2.54054      -1.67465
Nuclear contribution   :     -5.08332       2.60749       1.56158
                        -----------------------------------------
Total Dipole Moment    :      0.09541       0.06695      -0.11307
                        -----------------------------------------
Magnitude (a.u.)       :      0.16239
Magnitude (Debye)      :      0.41276

Rotational constants in cm-1:     0.022439     0.008230     0.006445
Rotational constants in MHz :   672.698682   246.720649   193.216574

                             ****ORCA TERMINATED NORMALLY****
TOTAL RUN TIME: 0 days 0 hours 0 minutes 30 seconds 91 msec
