                         Program Version 4.2.1 -  RELEASE  -
|  1> ! wB97X-D3 SP def2-SVP
|  2> %pal
|  3> nprocs 16
|  4> end
|  5>
|  6> * xyz 0 1
|  7> S 	 4.93684 	 -4.87473 	 77.7252
|  8> C 	 6.306 	 -4.80125 	 78.8883
|  9> C 	 5.8807 	 -5.13936 	 80.1482
| 10> C 	 4.48667 	 -5.59711 	 80.2038
| 11> C 	 3.77488 	 -5.50175 	 78.9885
| 12> H 	 3.99651 	 -5.94038 	 81.0773
| 13> C 	 6.8205 	 -5.17687 	 81.353
| 14> H 	 7.50655 	 -6.05698 	 81.2046
| 15> H 	 6.23177 	 -5.26205 	 82.32
| 16> C 	 7.71627 	 -3.981 	 81.5951
| 17> H 	 8.39815 	 -4.23691 	 82.3815
| 18> H 	 8.32419 	 -3.8258 	 80.8039
| 19> C 	 7.10934 	 -2.6454 	 81.9417
| 20> H 	 6.66437 	 -2.66955 	 82.9594
| 21> H 	 7.88733 	 -1.83812 	 81.9696
| 22> H 	 6.42759 	 -2.35215 	 81.1746
| 23> S 	 1.20611 	 -4.94551 	 79.6442
| 24> C 	 -0.0615913 	 -5.88702 	 78.9278
| 25> C 	 0.40181 	 -6.88539 	 78.0378
| 26> C 	 1.77762 	 -6.72158 	 77.8266
| 27> C 	 2.38125 	 -5.87216 	 78.7524
| 28> H 	 -0.266385 	 -7.42338 	 77.423
| 29> C 	 2.45939 	 -7.57721 	 76.69
| 30> H 	 3.3898 	 -7.06012 	 76.4118
| 31> H 	 1.81707 	 -7.51212 	 75.796
| 32> C 	 2.8595 	 -9.03455 	 77.0165
| 33> H 	 2.11892 	 -9.68498 	 77.4366
| 34> H 	 3.60683 	 -9.01237 	 77.7733
| 35> C 	 3.3484 	 -9.83413 	 75.89
| 36> H 	 2.61398 	 -9.7306 	 75.0951
| 37> H 	 3.28576 	 -10.9104 	 76.1326
| 38> H 	 4.30312 	 -9.43995 	 75.6072
| 39> H 	 7.39509 	 -4.5534 	 78.5704
| 40> H 	 -1.07515 	 -5.74789 	 79.1636
| 41> *
| 42>
| 43>                          ****END OF INPUT****

CARTESIAN COORDINATES (ANGSTROEM)
---------------------------------
  S      4.936840   -4.874730   77.725200
  C      6.306000   -4.801250   78.888300
  C      5.880700   -5.139360   80.148200
  C      4.486670   -5.597110   80.203800
  C      3.774880   -5.501750   78.988500
  H      3.996510   -5.940380   81.077300
  C      6.820500   -5.176870   81.353000
  H      7.506550   -6.056980   81.204600
  H      6.231770   -5.262050   82.320000
  C      7.716270   -3.981000   81.595100
  H      8.398150   -4.236910   82.381500
  H      8.324190   -3.825800   80.803900
  C      7.109340   -2.645400   81.941700
  H      6.664370   -2.669550   82.959400
  H      7.887330   -1.838120   81.969600
  H      6.427590   -2.352150   81.174600
  S      1.206110   -4.945510   79.644200
  C     -0.061591   -5.887020   78.927800
  C      0.401810   -6.885390   78.037800
  C      1.777620   -6.721580   77.826600
  C      2.381250   -5.872160   78.752400
  H     -0.266385   -7.423380   77.423000
  C      2.459390   -7.577210   76.690000
  H      3.389800   -7.060120   76.411800
  H      1.817070   -7.512120   75.796000
  C      2.859500   -9.034550   77.016500
  H      2.118920   -9.684980   77.436600
  H      3.606830   -9.012370   77.773300
  C      3.348400   -9.834130   75.890000
  H      2.613980   -9.730600   75.095100
  H      3.285760  -10.910400   76.132600
  H      4.303120   -9.439950   75.607200
  H      7.395090   -4.553400   78.570400
  H     -1.075150   -5.747890   79.163600

 Total Charge           Charge          ....    0
 Multiplicity           Mult            ....    1
 Number of Electrons    NEL             ....  134
 Basis Dimension        Dim             ....  322

ORBITAL ENERGIES
----------------

  NO   OCC          E(Eh)            E(eV)
   0   2.0000     -88.972549     -2421.0661
   1   2.0000     -88.964559     -2420.8487
   2   2.0000     -10.339543      -281.3533
   3   2.0000     -10.327929      -281.0372
   4   2.0000     -10.325397      -280.9683
   5   2.0000     -10.318383      -280.7775
   6   2.0000     -10.307977      -280.4943
   7   2.0000     -10.306264      -280.4477
   8   2.0000     -10.299665      -280.2681
   9   2.0000     -10.299632      -280.2672
  10   2.0000     -10.297290      -280.2035
  11   2.0000     -10.293504      -280.1005
  12   2.0000     -10.275162      -279.6014
  13   2.0000     -10.272092      -279.5178
  14   2.0000     -10.271366      -279.4981
  15   2.0000     -10.269766      -279.4545
  16   2.0000      -8.087411      -220.0696
  17   2.0000      -8.077056      -219.7879
  18   2.0000      -6.045777      -164.5140
  19   2.0000      -6.041831      -164.4066
  20   2.0000      -6.038390      -164.3130
  21   2.0000      -6.035896      -164.2451
  22   2.0000      -6.031821      -164.1342
  23   2.0000      -6.027652      -164.0207
  24   2.0000      -1.003502       -27.3067
  25   2.0000      -0.973065       -26.4784
  26   2.0000      -0.912353       -24.8264
  27   2.0000      -0.911091       -24.7920
  28   2.0000      -0.868713       -23.6389
  29   2.0000      -0.859544       -23.3894
  30   2.0000      -0.839024       -22.8310
  31   2.0000      -0.810045       -22.0424
  32   2.0000      -0.781767       -21.2729
  33   2.0000      -0.770471       -20.9656
  34   2.0000      -0.701852       -19.0984
  35   2.0000      -0.699255       -19.0277
  36   2.0000      -0.690329       -18.7848
  37   2.0000      -0.669140       -18.2082
  38   2.0000      -0.632485       -17.2108
  39   2.0000      -0.607934       -16.5427
  40   2.0000      -0.596344       -16.2273
  41   2.0000      -0.579073       -15.7574
  42   2.0000      -0.570577       -15.5262
  43   2.0000      -0.551575       -15.0091
  44   2.0000      -0.538816       -14.6619
  45   2.0000      -0.529283       -14.4025
  46   2.0000      -0.517297       -14.0764
  47   2.0000      -0.512391       -13.9429
  48   2.0000      -0.507217       -13.8021
  49   2.0000      -0.493351       -13.4248
  50   2.0000      -0.486782       -13.2460
  51   2.0000      -0.475110       -12.9284
  52   2.0000      -0.465892       -12.6776
  53   2.0000      -0.464136       -12.6298
  54   2.0000      -0.462249       -12.5784
  55   2.0000      -0.454647       -12.3716
  56   2.0000      -0.438501       -11.9322
  57   2.0000      -0.436023       -11.8648
  58   2.0000      -0.429186       -11.6788
  59   2.0000      -0.423719       -11.5300
  60   2.0000      -0.417611       -11.3638
  61   2.0000      -0.411431       -11.1956
  62   2.0000      -0.408853       -11.1255
  63   2.0000      -0.339894        -9.2490
  64   2.0000      -0.337812        -9.1923
  65   2.0000      -0.325289        -8.8516
  66   2.0000      -0.295017        -8.0278
  67   0.0000       0.027068         0.7366
  68   0.0000       0.062212         1.6929
  69   0.0000       0.102608         2.7921
  70   0.0000       0.111952         3.0464
  71   0.0000       0.124108         3.3772

MULLIKEN ATOMIC CHARGES
-----------------------
   0 S :    0.085296
   1 C :   -0.178124
   2 C :   -0.068847
   3 C :    0.041238
   4 C :   -0.133091
   5 H :    0.000917
   6 C :    0.038355
   7 H :    0.055182
   8 H :    0.030877
   9 C :   -0.035669
  10 H :    0.016175
  11 H :   -0.012538
  12 C :   -0.056624
  13 H :    0.033590
  14 H :    0.032214
  15 H :    0.037410
  16 S :    0.136010
  17 C :   -0.086713
  18 C :   -0.006192
  19 C :   -0.034509
  20 C :   -0.179506
  21 H :    0.011479
  22 C :    0.061288
  23 H :    0.015642
  24 H :    0.025566
  25 C :   -0.045598
  26 H :    0.008015
  27 H :    0.018002
  28 C :   -0.024375
  29 H :    0.013364
  30 H :    0.036747
  31 H :    0.030437
  32 H :    0.091951
  33 H :    0.042032
Sum of atomic charges:   -0.0000000

LOEWDIN ATOMIC CHARGES
----------------------
   0 S :    0.350898
   1 C :   -0.198866
   2 C :   -0.070803
   3 C :   -0.056854
   4 C :   -0.171819
   5 H :    0.023934
   6 C :   -0.034048
   7 H :    0.044302
   8 H :    0.034983
   9 C :   -0.044736
  10 H :    0.025585
  11 H :    0.004760
  12 C :   -0.062520
  13 H :    0.026407
  14 H :    0.031454
  15 H :    0.022633
  16 S :    0.438112
  17 C :   -0.175953
  18 C :   -0.062424
  19 C :   -0.045527
  20 C :   -0.214018
  21 H :    0.027280
  22 C :   -0.026675
  23 H :    0.024666
  24 H :    0.029356
  25 C :   -0.045766
  26 H :    0.019450
  27 H :    0.021527
  28 C :   -0.058412
  29 H :    0.021731
  30 H :    0.033163
  31 H :    0.021323
  32 H :    0.051403
  33 H :    0.015453

  Mayer bond orders larger than 0.100000
B(  0-S ,  1-C ) :   1.1184 B(  0-S ,  4-C ) :   1.1116 B(  1-C ,  2-C ) :   1.6318
B(  1-C , 32-H ) :   0.9554 B(  2-C ,  3-C ) :   1.2135 B(  2-C ,  6-C ) :   1.0114
B(  3-C ,  4-C ) :   1.5919 B(  3-C ,  5-H ) :   0.9964 B(  4-C , 20-C ) :   1.0546
B(  6-C ,  7-H ) :   0.9364 B(  6-C ,  8-H ) :   0.9482 B(  6-C ,  9-C ) :   1.0843
B(  9-C , 10-H ) :   0.9478 B(  9-C , 11-H ) :   0.9458 B(  9-C , 12-C ) :   1.0885
B( 12-C , 13-H ) :   0.9742 B( 12-C , 14-H ) :   0.9717 B( 12-C , 15-H ) :   0.9747
B( 16-S , 17-C ) :   1.1880 B( 16-S , 20-C ) :   1.1556 B( 17-C , 18-C ) :   1.5651
B( 17-C , 20-C ) :   0.1092 B( 17-C , 33-H ) :   0.9726 B( 18-C , 19-C ) :   1.2832
B( 18-C , 21-H ) :   0.9899 B( 19-C , 20-C ) :   1.5599 B( 19-C , 22-C ) :   1.0364
B( 22-C , 23-H ) :   0.9293 B( 22-C , 24-H ) :   0.9405 B( 22-C , 25-C ) :   1.0612
B( 25-C , 26-H ) :   0.9565 B( 25-C , 27-H ) :   0.9502 B( 25-C , 28-C ) :   1.0943
B( 28-C , 29-H ) :   0.9705 B( 28-C , 30-H ) :   0.9722 B( 28-C , 31-H ) :   0.9755

Dispersion correction           -0.013757662
FINAL SINGLE POINT ENERGY     -1339.860966341885

DIPOLE MOMENT
-------------
                                X             Y             Z
Electronic contribution:    -13.80982       8.51547      -2.15978
Nuclear contribution   :     13.90045      -8.80704       2.29931
                        -----------------------------------------
Total Dipole Moment    :      0.09063      -0.29157       0.13952
                        -----------------------------------------
Magnitude (a.u.)       :      0.33570
Magnitude (Debye)      :      0.85329

Rotational constants in cm-1:     0.020539     0.007624     0.006191
Rotational constants in MHz :   615.741512   228.565448   185.593148

                             ****ORCA TERMINATED NORMALLY****
TOTAL RUN TIME: 0 days 0 hours 0 minutes 32 seconds 793 msec
