                         Program Version 4.2.1 -  RELEASE  -
|  1> ! wB97X-D3 SP def2-SVP
|  2> %pal
|  3> nprocs 16
|  4> end
|  5>
|  6> * xyz 0 1
|  7> S 	 -67.986 	 37.7301 	 132.082
|  8> C 	 -67.4754 	 39.2865 	 131.43
|  9> C 	 -66.8026 	 39.9947 	 132.41
| 10> C 	 -66.8063 	 39.3254 	 133.669
| 11> C 	 -67.3311 	 38.1092 	 133.635
| 12> H 	 -66.3697 	 39.6682 	 134.619
| 13> C 	 -66.1575 	 41.3393 	 132.208
| 14> H 	 -65.3693 	 41.2109 	 131.371
| 15> H 	 -65.7268 	 41.7621 	 133.116
| 16> C 	 -66.9973 	 42.5092 	 131.747
| 17> H 	 -66.4439 	 43.4454 	 131.675
| 18> H 	 -67.3819 	 42.2307 	 130.754
| 19> C 	 -68.2301 	 42.8345 	 132.649
| 20> H 	 -68.781 	 41.9226 	 132.927
| 21> H 	 -67.9648 	 43.3837 	 133.545
| 22> H 	 -69.0456 	 43.3715 	 132.084
| 23> S 	 -68.9088 	 36.4785 	 135.2
| 24> C 	 -68.1799 	 35.6182 	 136.49
| 25> C 	 -66.8325 	 35.7438 	 136.547
| 26> C 	 -66.3191 	 36.7368 	 135.601
| 27> C 	 -67.3049 	 37.1403 	 134.74
| 28> H 	 -66.2128 	 35.2906 	 137.279
| 29> C 	 -64.8745 	 37.1463 	 135.66
| 30> H 	 -64.572 	 36.8614 	 136.672
| 31> H 	 -64.6928 	 38.2327 	 135.647
| 32> C 	 -63.8878 	 36.6177 	 134.599
| 33> H 	 -64.0448 	 35.4973 	 134.619
| 34> H 	 -62.845 	 36.738 	 134.907
| 35> C 	 -63.9149 	 37.2336 	 133.224
| 36> H 	 -64.9615 	 37.2906 	 132.783
| 37> H 	 -63.1583 	 36.7062 	 132.562
| 38> H 	 -63.5665 	 38.307 	 133.353
| 39> H 	 -67.5874 	 39.7089 	 130.455
| 40> H 	 -68.7867 	 35.0791 	 137.243
| 41> *
| 42>
| 43>                          ****END OF INPUT****

CARTESIAN COORDINATES (ANGSTROEM)
---------------------------------
  S    -67.986000   37.730100  132.082000
  C    -67.475400   39.286500  131.430000
  C    -66.802600   39.994700  132.410000
  C    -66.806300   39.325400  133.669000
  C    -67.331100   38.109200  133.635000
  H    -66.369700   39.668200  134.619000
  C    -66.157500   41.339300  132.208000
  H    -65.369300   41.210900  131.371000
  H    -65.726800   41.762100  133.116000
  C    -66.997300   42.509200  131.747000
  H    -66.443900   43.445400  131.675000
  H    -67.381900   42.230700  130.754000
  C    -68.230100   42.834500  132.649000
  H    -68.781000   41.922600  132.927000
  H    -67.964800   43.383700  133.545000
  H    -69.045600   43.371500  132.084000
  S    -68.908800   36.478500  135.200000
  C    -68.179900   35.618200  136.490000
  C    -66.832500   35.743800  136.547000
  C    -66.319100   36.736800  135.601000
  C    -67.304900   37.140300  134.740000
  H    -66.212800   35.290600  137.279000
  C    -64.874500   37.146300  135.660000
  H    -64.572000   36.861400  136.672000
  H    -64.692800   38.232700  135.647000
  C    -63.887800   36.617700  134.599000
  H    -64.044800   35.497300  134.619000
  H    -62.845000   36.738000  134.907000
  C    -63.914900   37.233600  133.224000
  H    -64.961500   37.290600  132.783000
  H    -63.158300   36.706200  132.562000
  H    -63.566500   38.307000  133.353000
  H    -67.587400   39.708900  130.455000
  H    -68.786700   35.079100  137.243000

 Total Charge           Charge          ....    0
 Multiplicity           Mult            ....    1
 Number of Electrons    NEL             ....  134
 Basis Dimension        Dim             ....  322

ORBITAL ENERGIES
----------------

  NO   OCC          E(Eh)            E(eV)
   0   2.0000     -88.968784     -2420.9637
   1   2.0000     -88.964332     -2420.8426
   2   2.0000     -10.329081      -281.0686
   3   2.0000     -10.322736      -280.8959
   4   2.0000     -10.317381      -280.7502
   5   2.0000     -10.314097      -280.6609
   6   2.0000     -10.307769      -280.4886
   7   2.0000     -10.301694      -280.3234
   8   2.0000     -10.296040      -280.1695
   9   2.0000     -10.295324      -280.1500
  10   2.0000     -10.292775      -280.0806
  11   2.0000     -10.287853      -279.9467
  12   2.0000     -10.287525      -279.9378
  13   2.0000     -10.287307      -279.9319
  14   2.0000     -10.284252      -279.8487
  15   2.0000     -10.277638      -279.6687
  16   2.0000      -8.083242      -219.9562
  17   2.0000      -8.079532      -219.8552
  18   2.0000      -6.041904      -164.4086
  19   2.0000      -6.038019      -164.3028
  20   2.0000      -6.037698      -164.2941
  21   2.0000      -6.034052      -164.1949
  22   2.0000      -6.033936      -164.1918
  23   2.0000      -6.030212      -164.0904
  24   2.0000      -1.012363       -27.5478
  25   2.0000      -0.988833       -26.9075
  26   2.0000      -0.913238       -24.8505
  27   2.0000      -0.909020       -24.7357
  28   2.0000      -0.869107       -23.6496
  29   2.0000      -0.852361       -23.1939
  30   2.0000      -0.845240       -23.0002
  31   2.0000      -0.815744       -22.1975
  32   2.0000      -0.783572       -21.3221
  33   2.0000      -0.774618       -21.0784
  34   2.0000      -0.703941       -19.1552
  35   2.0000      -0.698618       -19.0104
  36   2.0000      -0.682698       -18.5772
  37   2.0000      -0.665642       -18.1130
  38   2.0000      -0.639070       -17.3900
  39   2.0000      -0.613043       -16.6817
  40   2.0000      -0.597924       -16.2703
  41   2.0000      -0.580822       -15.8050
  42   2.0000      -0.554460       -15.0876
  43   2.0000      -0.552760       -15.0414
  44   2.0000      -0.542737       -14.7686
  45   2.0000      -0.534247       -14.5376
  46   2.0000      -0.513208       -13.9651
  47   2.0000      -0.506551       -13.7839
  48   2.0000      -0.500402       -13.6166
  49   2.0000      -0.497708       -13.5433
  50   2.0000      -0.492420       -13.3994
  51   2.0000      -0.479593       -13.0504
  52   2.0000      -0.474016       -12.8986
  53   2.0000      -0.466052       -12.6819
  54   2.0000      -0.460885       -12.5413
  55   2.0000      -0.443843       -12.0776
  56   2.0000      -0.440096       -11.9756
  57   2.0000      -0.438651       -11.9363
  58   2.0000      -0.430452       -11.7132
  59   2.0000      -0.417707       -11.3664
  60   2.0000      -0.416858       -11.3433
  61   2.0000      -0.411268       -11.1912
  62   2.0000      -0.404887       -11.0175
  63   2.0000      -0.350240        -9.5305
  64   2.0000      -0.333083        -9.0636
  65   2.0000      -0.331203        -9.0125
  66   2.0000      -0.298194        -8.1143
  67   0.0000       0.035806         0.9743
  68   0.0000       0.066994         1.8230
  69   0.0000       0.108246         2.9455
  70   0.0000       0.113070         3.0768
  71   0.0000       0.137555         3.7431

MULLIKEN ATOMIC CHARGES
-----------------------
   0 S :    0.118834
   1 C :   -0.105980
   2 C :   -0.088056
   3 C :    0.019463
   4 C :   -0.150834
   5 H :    0.015763
   6 C :    0.052079
   7 H :    0.054691
   8 H :    0.019656
   9 C :   -0.074571
  10 H :    0.038080
  11 H :    0.017206
  12 C :   -0.089406
  13 H :    0.039581
  14 H :    0.035536
  15 H :    0.037979
  16 S :    0.099827
  17 C :   -0.087180
  18 C :   -0.015295
  19 C :   -0.038501
  20 C :   -0.155089
  21 H :    0.006036
  22 C :    0.067425
  23 H :    0.012845
  24 H :    0.019840
  25 C :   -0.077253
  26 H :    0.028601
  27 H :    0.026519
  28 C :   -0.077327
  29 H :    0.062954
  30 H :    0.050546
  31 H :    0.029525
  32 H :    0.036635
  33 H :    0.069871
Sum of atomic charges:   -0.0000000

LOEWDIN ATOMIC CHARGES
----------------------
   0 S :    0.410531
   1 C :   -0.193674
   2 C :   -0.060884
   3 C :   -0.069422
   4 C :   -0.204089
   5 H :    0.036733
   6 C :   -0.040979
   7 H :    0.046903
   8 H :    0.028600
   9 C :   -0.043181
  10 H :    0.027026
  11 H :    0.017491
  12 C :   -0.077440
  13 H :    0.027462
  14 H :    0.021152
  15 H :    0.032907
  16 S :    0.395489
  17 C :   -0.190246
  18 C :   -0.069156
  19 C :   -0.050047
  20 C :   -0.179170
  21 H :    0.025728
  22 C :   -0.037134
  23 H :    0.032644
  24 H :    0.029430
  25 C :   -0.049737
  26 H :    0.024848
  27 H :    0.025269
  28 C :   -0.076933
  29 H :    0.032825
  30 H :    0.035530
  31 H :    0.027780
  32 H :    0.027062
  33 H :    0.036680

  Mayer bond orders larger than 0.100000
B(  0-S ,  1-C ) :   1.1193 B(  0-S ,  4-C ) :   1.1460 B(  1-C ,  2-C ) :   1.6204
B(  1-C , 32-H ) :   0.9742 B(  2-C ,  3-C ) :   1.2129 B(  2-C ,  6-C ) :   1.0201
B(  3-C ,  4-C ) :   1.6204 B(  3-C ,  5-H ) :   0.9973 B(  4-C , 20-C ) :   0.9932
B(  6-C ,  7-H ) :   0.9354 B(  6-C ,  8-H ) :   0.9471 B(  6-C ,  9-C ) :   1.0762
B(  9-C , 10-H ) :   0.9586 B(  9-C , 11-H ) :   0.9549 B(  9-C , 12-C ) :   1.0698
B( 12-C , 13-H ) :   0.9742 B( 12-C , 14-H ) :   0.9778 B( 12-C , 15-H ) :   0.9758
B( 16-S , 17-C ) :   1.1534 B( 16-S , 20-C ) :   1.1254 B( 17-C , 18-C ) :   1.6354
B( 17-C , 33-H ) :   0.9605 B( 18-C , 19-C ) :   1.2069 B( 18-C , 21-H ) :   0.9912
B( 19-C , 20-C ) :   1.6510 B( 19-C , 22-C ) :   1.0438 B( 22-C , 23-H ) :   0.9233
B( 22-C , 24-H ) :   0.9349 B( 22-C , 25-C ) :   1.0723 B( 25-C , 26-H ) :   0.9513
B( 25-C , 27-H ) :   0.9528 B( 25-C , 28-C ) :   1.0826 B( 28-C , 29-H ) :   0.9714
B( 28-C , 30-H ) :   0.9690 B( 28-C , 31-H ) :   0.9668

Dispersion correction           -0.015761231
FINAL SINGLE POINT ENERGY     -1339.883712259061

DIPOLE MOMENT
-------------
                                X             Y             Z
Electronic contribution:    -16.35003     -17.16596       3.15220
Nuclear contribution   :     16.85609      17.51309      -2.87062
                        -----------------------------------------
Total Dipole Moment    :      0.50605       0.34713       0.28159
                        -----------------------------------------
Magnitude (a.u.)       :      0.67519
Magnitude (Debye)      :      1.71620

Rotational constants in cm-1:     0.020754     0.008910     0.007582
Rotational constants in MHz :   622.196986   267.106378   227.297960

                             ****ORCA TERMINATED NORMALLY****
TOTAL RUN TIME: 0 days 0 hours 0 minutes 36 seconds 51 msec
