                         Program Version 4.2.1 -  RELEASE  -
|  1> ! wB97X-D3 SP def2-SVP
|  2> %pal
|  3> nprocs 16
|  4> end
|  5>
|  6> * xyz 0 1
|  7> S 	 48.9468 	 11.037 	 91.7638
|  8> C 	 48.5042 	 12.7204 	 91.8001
|  9> C 	 48.3494 	 13.3266 	 90.6034
| 10> C 	 48.3238 	 12.3106 	 89.5808
| 11> C 	 48.5146 	 11.0057 	 90.0402
| 12> H 	 48.0781 	 12.3465 	 88.5185
| 13> C 	 48.1809 	 14.807 	 90.3341
| 14> H 	 47.442 	 15.1676 	 91.0353
| 15> H 	 47.7397 	 14.9289 	 89.4136
| 16> C 	 49.4287 	 15.7445 	 90.5593
| 17> H 	 49.1277 	 16.7378 	 90.2434
| 18> H 	 49.7378 	 15.7946 	 91.6276
| 19> C 	 50.6761 	 15.3228 	 89.7548
| 20> H 	 50.4986 	 15.7051 	 88.8163
| 21> H 	 51.6343 	 15.781 	 90.0406
| 22> H 	 50.7419 	 14.2602 	 89.5506
| 23> S 	 50.3151 	 9.24171 	 89.1146
| 24> C 	 49.7704 	 8.03725 	 87.9948
| 25> C 	 48.3974 	 7.95001 	 87.8684
| 26> C 	 47.7277 	 9.00204 	 88.5563
| 27> C 	 48.6612 	 9.8436 	 89.1875
| 28> H 	 48.019 	 7.05357 	 87.4285
| 29> C 	 46.2137 	 9.21202 	 88.7022
| 30> H 	 45.8306 	 8.7882 	 87.794
| 31> H 	 45.9107 	 10.2829 	 88.7804
| 32> C 	 45.622 	 8.36558 	 89.8487
| 33> H 	 46.0625 	 8.76022 	 90.7645
| 34> H 	 46.0329 	 7.3613 	 89.6699
| 35> C 	 44.079 	 8.35397 	 89.9433
| 36> H 	 43.5803 	 7.59745 	 90.6181
| 37> H 	 43.6189 	 8.11197 	 88.8955
| 38> H 	 43.6528 	 9.39131 	 90.1057
| 39> H 	 48.5747 	 13.2372 	 92.7803
| 40> H 	 50.4679 	 7.32347 	 87.5633
| 41> *
| 42>
| 43>                          ****END OF INPUT****

CARTESIAN COORDINATES (ANGSTROEM)
---------------------------------
  S     48.946800   11.037000   91.763800
  C     48.504200   12.720400   91.800100
  C     48.349400   13.326600   90.603400
  C     48.323800   12.310600   89.580800
  C     48.514600   11.005700   90.040200
  H     48.078100   12.346500   88.518500
  C     48.180900   14.807000   90.334100
  H     47.442000   15.167600   91.035300
  H     47.739700   14.928900   89.413600
  C     49.428700   15.744500   90.559300
  H     49.127700   16.737800   90.243400
  H     49.737800   15.794600   91.627600
  C     50.676100   15.322800   89.754800
  H     50.498600   15.705100   88.816300
  H     51.634300   15.781000   90.040600
  H     50.741900   14.260200   89.550600
  S     50.315100    9.241710   89.114600
  C     49.770400    8.037250   87.994800
  C     48.397400    7.950010   87.868400
  C     47.727700    9.002040   88.556300
  C     48.661200    9.843600   89.187500
  H     48.019000    7.053570   87.428500
  C     46.213700    9.212020   88.702200
  H     45.830600    8.788200   87.794000
  H     45.910700   10.282900   88.780400
  C     45.622000    8.365580   89.848700
  H     46.062500    8.760220   90.764500
  H     46.032900    7.361300   89.669900
  C     44.079000    8.353970   89.943300
  H     43.580300    7.597450   90.618100
  H     43.618900    8.111970   88.895500
  H     43.652800    9.391310   90.105700
  H     48.574700   13.237200   92.780300
  H     50.467900    7.323470   87.563300

 Total Charge           Charge          ....    0
 Multiplicity           Mult            ....    1
 Number of Electrons    NEL             ....  134
 Basis Dimension        Dim             ....  322

ORBITAL ENERGIES
----------------

  NO   OCC          E(Eh)            E(eV)
   0   2.0000     -88.965543     -2420.8755
   1   2.0000     -88.965327     -2420.8696
   2   2.0000     -10.325695      -280.9765
   3   2.0000     -10.323437      -280.9150
   4   2.0000     -10.315467      -280.6981
   5   2.0000     -10.312213      -280.6096
   6   2.0000     -10.308829      -280.5175
   7   2.0000     -10.301595      -280.3206
   8   2.0000     -10.295370      -280.1513
   9   2.0000     -10.294427      -280.1256
  10   2.0000     -10.294010      -280.1143
  11   2.0000     -10.293377      -280.0970
  12   2.0000     -10.292739      -280.0797
  13   2.0000     -10.289918      -280.0029
  14   2.0000     -10.287613      -279.9402
  15   2.0000     -10.265670      -279.3431
  16   2.0000      -8.080719      -219.8876
  17   2.0000      -8.080004      -219.8681
  18   2.0000      -6.038924      -164.3275
  19   2.0000      -6.038413      -164.3136
  20   2.0000      -6.035397      -164.2315
  21   2.0000      -6.034772      -164.2145
  22   2.0000      -6.031536      -164.1264
  23   2.0000      -6.030628      -164.1017
  24   2.0000      -1.005495       -27.3609
  25   2.0000      -0.983670       -26.7670
  26   2.0000      -0.907791       -24.7023
  27   2.0000      -0.905047       -24.6276
  28   2.0000      -0.868580       -23.6353
  29   2.0000      -0.847710       -23.0674
  30   2.0000      -0.845649       -23.0113
  31   2.0000      -0.811204       -22.0740
  32   2.0000      -0.785897       -21.3853
  33   2.0000      -0.768660       -20.9163
  34   2.0000      -0.704380       -19.1672
  35   2.0000      -0.699928       -19.0460
  36   2.0000      -0.688322       -18.7302
  37   2.0000      -0.661206       -17.9923
  38   2.0000      -0.643065       -17.4987
  39   2.0000      -0.607848       -16.5404
  40   2.0000      -0.593058       -16.1379
  41   2.0000      -0.574292       -15.6273
  42   2.0000      -0.562553       -15.3079
  43   2.0000      -0.545286       -14.8380
  44   2.0000      -0.536283       -14.5930
  45   2.0000      -0.515686       -14.0325
  46   2.0000      -0.514568       -14.0021
  47   2.0000      -0.511616       -13.9218
  48   2.0000      -0.505003       -13.7418
  49   2.0000      -0.487051       -13.2533
  50   2.0000      -0.486081       -13.2269
  51   2.0000      -0.473916       -12.8959
  52   2.0000      -0.470397       -12.8002
  53   2.0000      -0.464205       -12.6317
  54   2.0000      -0.459428       -12.5017
  55   2.0000      -0.453314       -12.3353
  56   2.0000      -0.441215       -12.0061
  57   2.0000      -0.437159       -11.8957
  58   2.0000      -0.429437       -11.6856
  59   2.0000      -0.427217       -11.6252
  60   2.0000      -0.425289       -11.5727
  61   2.0000      -0.415862       -11.3162
  62   2.0000      -0.414088       -11.2679
  63   2.0000      -0.339131        -9.2282
  64   2.0000      -0.330990        -9.0067
  65   2.0000      -0.328878        -8.9492
  66   2.0000      -0.294512        -8.0141
  67   0.0000       0.038549         1.0490
  68   0.0000       0.051372         1.3979
  69   0.0000       0.110821         3.0156
  70   0.0000       0.118467         3.2237
  71   0.0000       0.128886         3.5072

MULLIKEN ATOMIC CHARGES
-----------------------
   0 S :    0.109152
   1 C :   -0.140886
   2 C :   -0.068355
   3 C :    0.029304
   4 C :   -0.178085
   5 H :    0.017552
   6 C :    0.119551
   7 H :    0.026638
   8 H :   -0.000279
   9 C :   -0.081256
  10 H :    0.030303
  11 H :    0.036271
  12 C :   -0.026469
  13 H :   -0.003747
  14 H :    0.036855
  15 H :    0.041247
  16 S :    0.114654
  17 C :   -0.095393
  18 C :   -0.040142
  19 C :   -0.020340
  20 C :   -0.204413
  21 H :    0.015329
  22 C :    0.084314
  23 H :    0.007242
  24 H :    0.040543
  25 C :   -0.059572
  26 H :    0.033789
  27 H :    0.026815
  28 C :   -0.087456
  29 H :    0.057390
  30 H :    0.025495
  31 H :    0.041122
  32 H :    0.056602
  33 H :    0.056225
Sum of atomic charges:    0.0000000

LOEWDIN ATOMIC CHARGES
----------------------
   0 S :    0.389217
   1 C :   -0.190989
   2 C :   -0.068347
   3 C :   -0.058362
   4 C :   -0.200271
   5 H :    0.033722
   6 C :   -0.021620
   7 H :    0.037501
   8 H :    0.018388
   9 C :   -0.031294
  10 H :    0.023419
  11 H :    0.024520
  12 C :   -0.070101
  13 H :    0.014223
  14 H :    0.029778
  15 H :    0.029202
  16 S :    0.411480
  17 C :   -0.185138
  18 C :   -0.074429
  19 C :   -0.047640
  20 C :   -0.198890
  21 H :    0.031222
  22 C :   -0.026831
  23 H :    0.023513
  24 H :    0.034866
  25 C :   -0.041849
  26 H :    0.024697
  27 H :    0.025499
  28 C :   -0.085871
  29 H :    0.034424
  30 H :    0.029050
  31 H :    0.030726
  32 H :    0.029912
  33 H :    0.026276

  Mayer bond orders larger than 0.100000
B(  0-S ,  1-C ) :   1.1422 B(  0-S ,  4-C ) :   1.1278 B(  1-C ,  2-C ) :   1.6357
B(  1-C , 32-H ) :   0.9612 B(  2-C ,  3-C ) :   1.1979 B(  2-C ,  6-C ) :   1.0193
B(  3-C ,  4-C ) :   1.6147 B(  3-C ,  5-H ) :   0.9887 B(  4-C , 20-C ) :   1.0424
B(  6-C ,  7-H ) :   0.9328 B(  6-C ,  8-H ) :   0.9397 B(  6-C ,  9-C ) :   1.0679
B(  9-C , 10-H ) :   0.9611 B(  9-C , 11-H ) :   0.9627 B(  9-C , 12-C ) :   1.0621
B( 12-C , 13-H ) :   0.9715 B( 12-C , 14-H ) :   0.9756 B( 12-C , 15-H ) :   0.9778
B( 16-S , 17-C ) :   1.1622 B( 16-S , 20-C ) :   1.1562 B( 17-C , 18-C ) :   1.6163
B( 17-C , 20-C ) :   0.1026 B( 17-C , 33-H ) :   0.9649 B( 18-C , 19-C ) :   1.2322
B( 18-C , 21-H ) :   0.9943 B( 19-C , 20-C ) :   1.5899 B( 19-C , 22-C ) :   1.0427
B( 22-C , 23-H ) :   0.9247 B( 22-C , 24-H ) :   0.9355 B( 22-C , 25-C ) :   1.0647
B( 25-C , 26-H ) :   0.9556 B( 25-C , 27-H ) :   0.9559 B( 25-C , 28-C ) :   1.0709
B( 28-C , 29-H ) :   0.9752 B( 28-C , 30-H ) :   0.9720 B( 28-C , 31-H ) :   0.9724

Dispersion correction           -0.014360187
FINAL SINGLE POINT ENERGY     -1339.868208017177

DIPOLE MOMENT
-------------
                                X             Y             Z
Electronic contribution:     13.52895     -11.18204       3.02900
Nuclear contribution   :    -13.79528      11.39453      -3.23018
                        -----------------------------------------
Total Dipole Moment    :     -0.26633       0.21249      -0.20118
                        -----------------------------------------
Magnitude (a.u.)       :      0.39567
Magnitude (Debye)      :      1.00572

Rotational constants in cm-1:     0.019788     0.008172     0.006816
Rotational constants in MHz :   593.223467   244.980592   204.344340

                             ****ORCA TERMINATED NORMALLY****
TOTAL RUN TIME: 0 days 0 hours 0 minutes 30 seconds 123 msec
