                         Program Version 4.2.1 -  RELEASE  -
|  1> ! wB97X-D3 SP def2-SVP
|  2> %pal
|  3> nprocs 16
|  4> end
|  5>
|  6> * xyz 0 1
|  7> S 	 -94.7486 	 40.1017 	 123.789
|  8> C 	 -93.4892 	 39.4094 	 124.788
|  9> C 	 -92.5742 	 38.7253 	 124.009
| 10> C 	 -92.8914 	 38.8578 	 122.633
| 11> C 	 -93.932 	 39.6788 	 122.287
| 12> H 	 -92.4786 	 38.2516 	 121.878
| 13> C 	 -91.3653 	 38.0232 	 124.492
| 14> H 	 -91.5343 	 36.905 	 124.54
| 15> H 	 -91.0695 	 38.309 	 125.551
| 16> C 	 -90.0981 	 38.3081 	 123.589
| 17> H 	 -89.313 	 37.5704 	 123.827
| 18> H 	 -90.2993 	 38.1233 	 122.51
| 19> C 	 -89.508 	 39.7618 	 123.788
| 20> H 	 -90.3632 	 40.4519 	 123.872
| 21> H 	 -88.9302 	 39.8028 	 124.683
| 22> H 	 -88.8216 	 40.0126 	 123.083
| 23> S 	 -96.3419 	 39.9129 	 120.941
| 24> C 	 -96.3795 	 40.4409 	 119.332
| 25> C 	 -95.0883 	 40.4926 	 118.812
| 26> C 	 -94.0641 	 40.2106 	 119.766
| 27> C 	 -94.5905 	 39.8664 	 120.998
| 28> H 	 -94.9826 	 40.7864 	 117.838
| 29> C 	 -92.5616 	 40.2859 	 119.437
| 30> H 	 -92.5455 	 39.327 	 118.912
| 31> H 	 -91.89 	 40.263 	 120.249
| 32> C 	 -92.0785 	 41.3799 	 118.504
| 33> H 	 -92.7769 	 41.3511 	 117.612
| 34> H 	 -91.0392 	 41.1223 	 118.399
| 35> C 	 -92.0907 	 42.6596 	 119.232
| 36> H 	 -91.5468 	 43.3912 	 118.674
| 37> H 	 -91.4846 	 42.6415 	 120.161
| 38> H 	 -93.1059 	 43.0303 	 119.308
| 39> H 	 -93.5566 	 39.4169 	 125.878
| 40> H 	 -97.2561 	 40.5571 	 118.696
| 41> *
| 42>
| 43>                          ****END OF INPUT****

CARTESIAN COORDINATES (ANGSTROEM)
---------------------------------
  S    -94.748600   40.101700  123.789000
  C    -93.489200   39.409400  124.788000
  C    -92.574200   38.725300  124.009000
  C    -92.891400   38.857800  122.633000
  C    -93.932000   39.678800  122.287000
  H    -92.478600   38.251600  121.878000
  C    -91.365300   38.023200  124.492000
  H    -91.534300   36.905000  124.540000
  H    -91.069500   38.309000  125.551000
  C    -90.098100   38.308100  123.589000
  H    -89.313000   37.570400  123.827000
  H    -90.299300   38.123300  122.510000
  C    -89.508000   39.761800  123.788000
  H    -90.363200   40.451900  123.872000
  H    -88.930200   39.802800  124.683000
  H    -88.821600   40.012600  123.083000
  S    -96.341900   39.912900  120.941000
  C    -96.379500   40.440900  119.332000
  C    -95.088300   40.492600  118.812000
  C    -94.064100   40.210600  119.766000
  C    -94.590500   39.866400  120.998000
  H    -94.982600   40.786400  117.838000
  C    -92.561600   40.285900  119.437000
  H    -92.545500   39.327000  118.912000
  H    -91.890000   40.263000  120.249000
  C    -92.078500   41.379900  118.504000
  H    -92.776900   41.351100  117.612000
  H    -91.039200   41.122300  118.399000
  C    -92.090700   42.659600  119.232000
  H    -91.546800   43.391200  118.674000
  H    -91.484600   42.641500  120.161000
  H    -93.105900   43.030300  119.308000
  H    -93.556600   39.416900  125.878000
  H    -97.256100   40.557100  118.696000

 Total Charge           Charge          ....    0
 Multiplicity           Mult            ....    1
 Number of Electrons    NEL             ....  134
 Basis Dimension        Dim             ....  322

ORBITAL ENERGIES
----------------

  NO   OCC          E(Eh)            E(eV)
   0   2.0000     -88.965201     -2420.8662
   1   2.0000     -88.960939     -2420.7502
   2   2.0000     -10.328584      -281.0551
   3   2.0000     -10.324487      -280.9436
   4   2.0000     -10.316441      -280.7246
   5   2.0000     -10.315348      -280.6949
   6   2.0000     -10.305978      -280.4399
   7   2.0000     -10.303059      -280.3605
   8   2.0000     -10.299356      -280.2597
   9   2.0000     -10.294524      -280.1283
  10   2.0000     -10.288634      -279.9680
  11   2.0000     -10.286455      -279.9087
  12   2.0000     -10.285929      -279.8944
  13   2.0000     -10.284735      -279.8619
  14   2.0000     -10.269732      -279.4536
  15   2.0000     -10.268590      -279.4225
  16   2.0000      -8.080832      -219.8906
  17   2.0000      -8.075763      -219.7527
  18   2.0000      -6.039270      -164.3369
  19   2.0000      -6.035115      -164.2238
  20   2.0000      -6.034333      -164.2026
  21   2.0000      -6.031701      -164.1309
  22   2.0000      -6.030268      -164.0919
  23   2.0000      -6.026427      -163.9874
  24   2.0000      -1.010408       -27.4946
  25   2.0000      -0.988566       -26.9003
  26   2.0000      -0.922328       -25.0978
  27   2.0000      -0.906205       -24.6591
  28   2.0000      -0.869522       -23.6609
  29   2.0000      -0.855236       -23.2722
  30   2.0000      -0.840215       -22.8634
  31   2.0000      -0.817457       -22.2441
  32   2.0000      -0.786680       -21.4067
  33   2.0000      -0.774793       -21.0832
  34   2.0000      -0.710835       -19.3428
  35   2.0000      -0.693888       -18.8817
  36   2.0000      -0.692030       -18.8311
  37   2.0000      -0.656695       -17.8696
  38   2.0000      -0.642007       -17.4699
  39   2.0000      -0.627809       -17.0836
  40   2.0000      -0.609113       -16.5748
  41   2.0000      -0.568360       -15.4659
  42   2.0000      -0.557636       -15.1741
  43   2.0000      -0.557319       -15.1654
  44   2.0000      -0.553366       -15.0578
  45   2.0000      -0.528674       -14.3859
  46   2.0000      -0.520110       -14.1529
  47   2.0000      -0.512655       -13.9500
  48   2.0000      -0.504820       -13.7368
  49   2.0000      -0.493895       -13.4396
  50   2.0000      -0.491800       -13.3826
  51   2.0000      -0.479844       -13.0572
  52   2.0000      -0.474405       -12.9092
  53   2.0000      -0.466117       -12.6837
  54   2.0000      -0.462891       -12.5959
  55   2.0000      -0.448731       -12.2106
  56   2.0000      -0.443446       -12.0668
  57   2.0000      -0.440577       -11.9887
  58   2.0000      -0.431274       -11.7355
  59   2.0000      -0.423051       -11.5118
  60   2.0000      -0.419064       -11.4033
  61   2.0000      -0.413235       -11.2447
  62   2.0000      -0.404808       -11.0154
  63   2.0000      -0.355913        -9.6849
  64   2.0000      -0.329107        -8.9555
  65   2.0000      -0.324799        -8.8382
  66   2.0000      -0.287245        -7.8163
  67   0.0000       0.027721         0.7543
  68   0.0000       0.076579         2.0838
  69   0.0000       0.113848         3.0980
  70   0.0000       0.123718         3.3665
  71   0.0000       0.132528         3.6063

MULLIKEN ATOMIC CHARGES
-----------------------
   0 S :    0.082893
   1 C :   -0.129019
   2 C :   -0.054912
   3 C :    0.010254
   4 C :   -0.115412
   5 H :    0.004211
   6 C :    0.027104
   7 H :    0.053818
   8 H :    0.033211
   9 C :   -0.120212
  10 H :    0.027527
  11 H :    0.035168
  12 C :   -0.006703
  13 H :    0.047748
  14 H :    0.016859
  15 H :    0.012648
  16 S :    0.114516
  17 C :   -0.091415
  18 C :   -0.031029
  19 C :   -0.036393
  20 C :   -0.161890
  21 H :   -0.018722
  22 C :    0.064514
  23 H :    0.040421
  24 H :    0.008858
  25 C :   -0.057015
  26 H :    0.040847
  27 H :    0.023153
  28 C :   -0.026940
  29 H :    0.015509
  30 H :    0.031046
  31 H :    0.040297
  32 H :    0.055817
  33 H :    0.063245
Sum of atomic charges:   -0.0000000

LOEWDIN ATOMIC CHARGES
----------------------
   0 S :    0.393859
   1 C :   -0.191323
   2 C :   -0.073912
   3 C :   -0.064452
   4 C :   -0.181438
   5 H :    0.022560
   6 C :   -0.039233
   7 H :    0.041250
   8 H :    0.036478
   9 C :   -0.041878
  10 H :    0.022548
  11 H :    0.021565
  12 C :   -0.056921
  13 H :    0.032420
  14 H :    0.022381
  15 H :    0.011839
  16 S :    0.428261
  17 C :   -0.199018
  18 C :   -0.072989
  19 C :   -0.046862
  20 C :   -0.207080
  21 H :    0.012635
  22 C :   -0.029144
  23 H :    0.038418
  24 H :    0.019908
  25 C :   -0.041595
  26 H :    0.031125
  27 H :    0.028152
  28 C :   -0.065143
  29 H :    0.020123
  30 H :    0.032426
  31 H :    0.028127
  32 H :    0.031252
  33 H :    0.035660

  Mayer bond orders larger than 0.100000
B(  0-S ,  1-C ) :   1.1465 B(  0-S ,  4-C ) :   1.1391 B(  1-C ,  2-C ) :   1.5824
B(  1-C , 32-H ) :   0.9706 B(  2-C ,  3-C ) :   1.2498 B(  2-C ,  6-C ) :   1.0328
B(  3-C ,  4-C ) :   1.5678 B(  3-C ,  5-H ) :   0.9945 B(  4-C , 20-C ) :   1.0617
B(  6-C ,  7-H ) :   0.9315 B(  6-C ,  8-H ) :   0.9503 B(  6-C ,  9-C ) :   1.0664
B(  9-C , 10-H ) :   0.9578 B(  9-C , 11-H ) :   0.9579 B(  9-C , 12-C ) :   1.0637
B( 12-C , 13-H ) :   0.9796 B( 12-C , 14-H ) :   0.9733 B( 12-C , 15-H ) :   0.9748
B( 16-S , 17-C ) :   1.1802 B( 16-S , 20-C ) :   1.1362 B( 17-C , 18-C ) :   1.5856
B( 17-C , 33-H ) :   0.9648 B( 18-C , 19-C ) :   1.2526 B( 18-C , 21-H ) :   1.0039
B( 19-C , 20-C ) :   1.5830 B( 19-C , 22-C ) :   1.0100 B( 22-C , 23-H ) :   0.9301
B( 22-C , 24-H ) :   0.9361 B( 22-C , 25-C ) :   1.0874 B( 25-C , 26-H ) :   0.9469
B( 25-C , 27-H ) :   0.9453 B( 25-C , 28-C ) :   1.1034 B( 28-C , 29-H ) :   0.9689
B( 28-C , 30-H ) :   0.9653 B( 28-C , 31-H ) :   0.9716

Dispersion correction           -0.014563622
FINAL SINGLE POINT ENERGY     -1339.865870668560

DIPOLE MOMENT
-------------
                                X             Y             Z
Electronic contribution:    -27.75529      -2.81812       5.16020
Nuclear contribution   :     28.35955       2.64478      -5.47272
                        -----------------------------------------
Total Dipole Moment    :      0.60426      -0.17334      -0.31252
                        -----------------------------------------
Magnitude (a.u.)       :      0.70203
Magnitude (Debye)      :      1.78443

Rotational constants in cm-1:     0.018216     0.009897     0.007138
Rotational constants in MHz :   546.094506   296.704797   213.998350

                             ****ORCA TERMINATED NORMALLY****
TOTAL RUN TIME: 0 days 0 hours 0 minutes 35 seconds 136 msec
