                         Program Version 4.2.1 -  RELEASE  -
|  1> ! wB97X-D3 SP def2-SVP
|  2> %pal
|  3> nprocs 16
|  4> end
|  5>
|  6> * xyz 0 1
|  7> S 	 -63.5511 	 45.767 	 121.188
|  8> C 	 -64.8001 	 44.7124 	 121.771
|  9> C 	 -66.0103 	 45.3693 	 121.883
| 10> C 	 -65.9216 	 46.697 	 121.517
| 11> C 	 -64.7095 	 47.0412 	 120.89
| 12> H 	 -66.7045 	 47.4143 	 121.521
| 13> C 	 -67.3015 	 44.881 	 122.422
| 14> H 	 -67.4022 	 43.8547 	 122.243
| 15> H 	 -68.1137 	 45.3101 	 121.855
| 16> C 	 -67.5203 	 45.2705 	 123.927
| 17> H 	 -66.5983 	 45.0316 	 124.435
| 18> H 	 -67.5884 	 46.3173 	 124.023
| 19> C 	 -68.7767 	 44.6387 	 124.591
| 20> H 	 -68.7694 	 44.9032 	 125.507
| 21> H 	 -69.677 	 45.0699 	 124.182
| 22> H 	 -68.9913 	 43.5371 	 124.517
| 23> S 	 -65.2249 	 48.4963 	 118.659
| 24> C 	 -64.5216 	 50.0769 	 118.51
| 25> C 	 -63.8413 	 50.4798 	 119.685
| 26> C 	 -63.7791 	 49.4527 	 120.691
| 27> C 	 -64.383 	 48.2924 	 120.234
| 28> H 	 -63.4705 	 51.4081 	 119.888
| 29> C 	 -63.1103 	 49.5256 	 122.015
| 30> H 	 -62.3525 	 50.3409 	 122.089
| 31> H 	 -62.4811 	 48.6354 	 122.137
| 32> C 	 -64.007 	 49.689 	 123.306
| 33> H 	 -64.6536 	 48.7987 	 123.313
| 34> H 	 -64.5688 	 50.6583 	 123.3
| 35> C 	 -63.2267 	 49.774 	 124.653
| 36> H 	 -62.9215 	 48.7815 	 124.975
| 37> H 	 -63.7336 	 50.249 	 125.507
| 38> H 	 -62.2955 	 50.2987 	 124.546
| 39> H 	 -64.5217 	 43.6978 	 122.04
| 40> H 	 -64.7828 	 50.8367 	 117.676
| 41> *
| 42>
| 43>                          ****END OF INPUT****

CARTESIAN COORDINATES (ANGSTROEM)
---------------------------------
  S    -63.551100   45.767000  121.188000
  C    -64.800100   44.712400  121.771000
  C    -66.010300   45.369300  121.883000
  C    -65.921600   46.697000  121.517000
  C    -64.709500   47.041200  120.890000
  H    -66.704500   47.414300  121.521000
  C    -67.301500   44.881000  122.422000
  H    -67.402200   43.854700  122.243000
  H    -68.113700   45.310100  121.855000
  C    -67.520300   45.270500  123.927000
  H    -66.598300   45.031600  124.435000
  H    -67.588400   46.317300  124.023000
  C    -68.776700   44.638700  124.591000
  H    -68.769400   44.903200  125.507000
  H    -69.677000   45.069900  124.182000
  H    -68.991300   43.537100  124.517000
  S    -65.224900   48.496300  118.659000
  C    -64.521600   50.076900  118.510000
  C    -63.841300   50.479800  119.685000
  C    -63.779100   49.452700  120.691000
  C    -64.383000   48.292400  120.234000
  H    -63.470500   51.408100  119.888000
  C    -63.110300   49.525600  122.015000
  H    -62.352500   50.340900  122.089000
  H    -62.481100   48.635400  122.137000
  C    -64.007000   49.689000  123.306000
  H    -64.653600   48.798700  123.313000
  H    -64.568800   50.658300  123.300000
  C    -63.226700   49.774000  124.653000
  H    -62.921500   48.781500  124.975000
  H    -63.733600   50.249000  125.507000
  H    -62.295500   50.298700  124.546000
  H    -64.521700   43.697800  122.040000
  H    -64.782800   50.836700  117.676000

 Total Charge           Charge          ....    0
 Multiplicity           Mult            ....    1
 Number of Electrons    NEL             ....  134
 Basis Dimension        Dim             ....  322

ORBITAL ENERGIES
----------------

  NO   OCC          E(Eh)            E(eV)
   0   2.0000     -88.968502     -2420.9560
   1   2.0000     -88.965589     -2420.8768
   2   2.0000     -10.327271      -281.0193
   3   2.0000     -10.326236      -280.9912
   4   2.0000     -10.324882      -280.9543
   5   2.0000     -10.312971      -280.6302
   6   2.0000     -10.305154      -280.4175
   7   2.0000     -10.296180      -280.1733
   8   2.0000     -10.294245      -280.1206
   9   2.0000     -10.292978      -280.0862
  10   2.0000     -10.292866      -280.0831
  11   2.0000     -10.287415      -279.9348
  12   2.0000     -10.286033      -279.8972
  13   2.0000     -10.282977      -279.8140
  14   2.0000     -10.276177      -279.6290
  15   2.0000     -10.268429      -279.4182
  16   2.0000      -8.082577      -219.9381
  17   2.0000      -8.080500      -219.8816
  18   2.0000      -6.041043      -164.3851
  19   2.0000      -6.038803      -164.3242
  20   2.0000      -6.037223      -164.2812
  21   2.0000      -6.034916      -164.2184
  22   2.0000      -6.033366      -164.1762
  23   2.0000      -6.031556      -164.1270
  24   2.0000      -1.006567       -27.3901
  25   2.0000      -0.982821       -26.7439
  26   2.0000      -0.911268       -24.7969
  27   2.0000      -0.901730       -24.5373
  28   2.0000      -0.865723       -23.5575
  29   2.0000      -0.854676       -23.2569
  30   2.0000      -0.850783       -23.1510
  31   2.0000      -0.809597       -22.0302
  32   2.0000      -0.786938       -21.4137
  33   2.0000      -0.769965       -20.9518
  34   2.0000      -0.712972       -19.4010
  35   2.0000      -0.702672       -19.1207
  36   2.0000      -0.686618       -18.6838
  37   2.0000      -0.667784       -18.1713
  38   2.0000      -0.648787       -17.6544
  39   2.0000      -0.620401       -16.8820
  40   2.0000      -0.595696       -16.2097
  41   2.0000      -0.568555       -15.4712
  42   2.0000      -0.562340       -15.3020
  43   2.0000      -0.549217       -14.9450
  44   2.0000      -0.533008       -14.5039
  45   2.0000      -0.518281       -14.1031
  46   2.0000      -0.513702       -13.9785
  47   2.0000      -0.512127       -13.9357
  48   2.0000      -0.509223       -13.8567
  49   2.0000      -0.498305       -13.5596
  50   2.0000      -0.486537       -13.2394
  51   2.0000      -0.474165       -12.9027
  52   2.0000      -0.471296       -12.8246
  53   2.0000      -0.465712       -12.6727
  54   2.0000      -0.460446       -12.5294
  55   2.0000      -0.455179       -12.3860
  56   2.0000      -0.445401       -12.1200
  57   2.0000      -0.443275       -12.0621
  58   2.0000      -0.434088       -11.8121
  59   2.0000      -0.424967       -11.5639
  60   2.0000      -0.421534       -11.4705
  61   2.0000      -0.419629       -11.4187
  62   2.0000      -0.415044       -11.2939
  63   2.0000      -0.336071        -9.1450
  64   2.0000      -0.329624        -8.9695
  65   2.0000      -0.322434        -8.7739
  66   2.0000      -0.300036        -8.1644
  67   0.0000       0.036478         0.9926
  68   0.0000       0.050901         1.3851
  69   0.0000       0.107114         2.9147
  70   0.0000       0.116910         3.1813
  71   0.0000       0.126355         3.4383

MULLIKEN ATOMIC CHARGES
-----------------------
   0 S :    0.115749
   1 C :   -0.143691
   2 C :   -0.061363
   3 C :    0.049642
   4 C :   -0.191245
   5 H :   -0.000468
   6 C :    0.114420
   7 H :    0.001688
   8 H :    0.013822
   9 C :   -0.071744
  10 H :    0.024244
  11 H :    0.016354
  12 C :    0.030441
  13 H :   -0.014530
  14 H :    0.014046
  15 H :    0.037078
  16 S :    0.118625
  17 C :   -0.109185
  18 C :    0.001836
  19 C :    0.021704
  20 C :   -0.196787
  21 H :   -0.024553
  22 C :    0.035821
  23 H :    0.016385
  24 H :    0.028559
  25 C :   -0.084451
  26 H :    0.046107
  27 H :    0.039491
  28 C :   -0.051098
  29 H :    0.024801
  30 H :    0.041554
  31 H :    0.017174
  32 H :    0.049286
  33 H :    0.090288
Sum of atomic charges:   -0.0000000

LOEWDIN ATOMIC CHARGES
----------------------
   0 S :    0.419007
   1 C :   -0.199649
   2 C :   -0.068826
   3 C :   -0.054084
   4 C :   -0.206117
   5 H :    0.025125
   6 C :   -0.024355
   7 H :    0.020977
   8 H :    0.028785
   9 C :   -0.023003
  10 H :    0.021887
  11 H :    0.019546
  12 C :   -0.051597
  13 H :   -0.002569
  14 H :    0.026424
  15 H :    0.033936
  16 S :    0.406319
  17 C :   -0.204893
  18 C :   -0.058684
  19 C :   -0.048617
  20 C :   -0.188362
  21 H :    0.012958
  22 C :   -0.040166
  23 H :    0.029682
  24 H :    0.032614
  25 C :   -0.038162
  26 H :    0.026371
  27 H :    0.028817
  28 C :   -0.071649
  29 H :    0.023384
  30 H :    0.030183
  31 H :    0.019942
  32 H :    0.025920
  33 H :    0.048855

  Mayer bond orders larger than 0.100000
B(  0-S ,  1-C ) :   1.1614 B(  0-S ,  4-C ) :   1.1698 B(  1-C ,  2-C ) :   1.5502
B(  1-C ,  4-C ) :   0.1121 B(  1-C , 32-H ) :   0.9762 B(  2-C ,  3-C ) :   1.2745
B(  2-C ,  6-C ) :   1.0419 B(  3-C ,  4-C ) :   1.5341 B(  3-C ,  5-H ) :   1.0005
B(  4-C , 20-C ) :   1.0272 B(  6-C ,  7-H ) :   0.9355 B(  6-C ,  8-H ) :   0.9321
B(  6-C ,  9-C ) :   1.0526 B(  9-C , 10-H ) :   0.9600 B(  9-C , 11-H ) :   0.9532
B(  9-C , 12-C ) :   1.0788 B( 12-C , 13-H ) :   0.9679 B( 12-C , 14-H ) :   0.9684
B( 12-C , 15-H ) :   0.9770 B( 16-S , 17-C ) :   1.1615 B( 16-S , 20-C ) :   1.1414
B( 17-C , 18-C ) :   1.5831 B( 17-C , 20-C ) :   0.1023 B( 17-C , 33-H ) :   0.9539
B( 18-C , 19-C ) :   1.2532 B( 18-C , 21-H ) :   0.9987 B( 19-C , 20-C ) :   1.5896
B( 19-C , 22-C ) :   1.0493 B( 22-C , 23-H ) :   0.9318 B( 22-C , 24-H ) :   0.9346
B( 22-C , 25-C ) :   1.0524 B( 25-C , 26-H ) :   0.9589 B( 25-C , 27-H ) :   0.9607
B( 25-C , 28-C ) :   1.0712 B( 28-C , 29-H ) :   0.9758 B( 28-C , 30-H ) :   0.9785
B( 28-C , 31-H ) :   0.9731

Dispersion correction           -0.014596572
FINAL SINGLE POINT ENERGY     -1339.854256243708

DIPOLE MOMENT
-------------
                                X             Y             Z
Electronic contribution:      9.19885      -0.81550     -25.52573
Nuclear contribution   :     -9.51085       1.00646      26.05961
                        -----------------------------------------
Total Dipole Moment    :     -0.31201       0.19096       0.53388
                        -----------------------------------------
Magnitude (a.u.)       :      0.64718
Magnitude (Debye)      :      1.64500

Rotational constants in cm-1:     0.017416     0.008580     0.007259
Rotational constants in MHz :   522.116640   257.228647   217.630085

                             ****ORCA TERMINATED NORMALLY****
TOTAL RUN TIME: 0 days 0 hours 0 minutes 31 seconds 776 msec
