                         Program Version 4.2.1 -  RELEASE  -
|  1> ! wB97X-D3 SP def2-SVP
|  2> %pal
|  3> nprocs 16
|  4> end
|  5>
|  6> * xyz 0 1
|  7> S 	 -17.0551 	 -3.30053 	 82.8887
|  8> C 	 -16.352 	 -3.97867 	 81.4824
|  9> C 	 -15.9113 	 -5.27491 	 81.7599
| 10> C 	 -16.025 	 -5.55976 	 83.1562
| 11> C 	 -16.6112 	 -4.60851 	 83.9466
| 12> H 	 -15.7655 	 -6.44395 	 83.6546
| 13> C 	 -15.3413 	 -6.21131 	 80.706
| 14> H 	 -14.3955 	 -6.3679 	 81.23
| 15> H 	 -15.0346 	 -5.70761 	 79.7859
| 16> C 	 -15.9973 	 -7.57332 	 80.36
| 17> H 	 -16.2393 	 -8.24939 	 81.2435
| 18> H 	 -16.9794 	 -7.27237 	 79.9191
| 19> C 	 -15.1406 	 -8.38369 	 79.5577
| 20> H 	 -14.7707 	 -7.95187 	 78.612
| 21> H 	 -14.2575 	 -8.55171 	 80.2548
| 22> H 	 -15.4915 	 -9.37496 	 79.3148
| 23> S 	 -18.6101 	 -5.23042 	 85.5978
| 24> C 	 -18.4279 	 -5.29082 	 87.3188
| 25> C 	 -17.1767 	 -4.85078 	 87.7478
| 26> C 	 -16.3378 	 -4.45984 	 86.5987
| 27> C 	 -16.9626 	 -4.73746 	 85.3522
| 28> H 	 -16.8915 	 -4.84925 	 88.7767
| 29> C 	 -15.0288 	 -3.75639 	 86.7165
| 30> H 	 -14.5601 	 -4.14844 	 85.7764
| 31> H 	 -14.4064 	 -4.24376 	 87.5268
| 32> C 	 -14.9864 	 -2.22157 	 86.6327
| 33> H 	 -15.8707 	 -1.79395 	 87.1102
| 34> H 	 -14.9142 	 -1.85478 	 85.6229
| 35> C 	 -13.6506 	 -1.71618 	 87.3054
| 36> H 	 -13.6231 	 -0.61968 	 87.2435
| 37> H 	 -12.6934 	 -2.11383 	 86.9109
| 38> H 	 -13.5681 	 -2.01055 	 88.3603
| 39> H 	 -16.4142 	 -3.54036 	 80.5361
| 40> H 	 -19.1931 	 -5.62658 	 88.0673
| 41> *
| 42>
| 43>                          ****END OF INPUT****

CARTESIAN COORDINATES (ANGSTROEM)
---------------------------------
  S    -17.055100   -3.300530   82.888700
  C    -16.352000   -3.978670   81.482400
  C    -15.911300   -5.274910   81.759900
  C    -16.025000   -5.559760   83.156200
  C    -16.611200   -4.608510   83.946600
  H    -15.765500   -6.443950   83.654600
  C    -15.341300   -6.211310   80.706000
  H    -14.395500   -6.367900   81.230000
  H    -15.034600   -5.707610   79.785900
  C    -15.997300   -7.573320   80.360000
  H    -16.239300   -8.249390   81.243500
  H    -16.979400   -7.272370   79.919100
  C    -15.140600   -8.383690   79.557700
  H    -14.770700   -7.951870   78.612000
  H    -14.257500   -8.551710   80.254800
  H    -15.491500   -9.374960   79.314800
  S    -18.610100   -5.230420   85.597800
  C    -18.427900   -5.290820   87.318800
  C    -17.176700   -4.850780   87.747800
  C    -16.337800   -4.459840   86.598700
  C    -16.962600   -4.737460   85.352200
  H    -16.891500   -4.849250   88.776700
  C    -15.028800   -3.756390   86.716500
  H    -14.560100   -4.148440   85.776400
  H    -14.406400   -4.243760   87.526800
  C    -14.986400   -2.221570   86.632700
  H    -15.870700   -1.793950   87.110200
  H    -14.914200   -1.854780   85.622900
  C    -13.650600   -1.716180   87.305400
  H    -13.623100   -0.619680   87.243500
  H    -12.693400   -2.113830   86.910900
  H    -13.568100   -2.010550   88.360300
  H    -16.414200   -3.540360   80.536100
  H    -19.193100   -5.626580   88.067300

 Total Charge           Charge          ....    0
 Multiplicity           Mult            ....    1
 Number of Electrons    NEL             ....  134
 Basis Dimension        Dim             ....  322

ORBITAL ENERGIES
----------------

  NO   OCC          E(Eh)            E(eV)
   0   2.0000     -88.965389     -2420.8713
   1   2.0000     -88.961833     -2420.7745
   2   2.0000     -10.327336      -281.0211
   3   2.0000     -10.326345      -280.9941
   4   2.0000     -10.321559      -280.8639
   5   2.0000     -10.311145      -280.5805
   6   2.0000     -10.310355      -280.5590
   7   2.0000     -10.304816      -280.4083
   8   2.0000     -10.297007      -280.1958
   9   2.0000     -10.294187      -280.1191
  10   2.0000     -10.292113      -280.0626
  11   2.0000     -10.291301      -280.0405
  12   2.0000     -10.288895      -279.9751
  13   2.0000     -10.288713      -279.9701
  14   2.0000     -10.280990      -279.7600
  15   2.0000     -10.278496      -279.6921
  16   2.0000      -8.080579      -219.8837
  17   2.0000      -8.077446      -219.7985
  18   2.0000      -6.039044      -164.3307
  19   2.0000      -6.035801      -164.2425
  20   2.0000      -6.034914      -164.2183
  21   2.0000      -6.031682      -164.1304
  22   2.0000      -6.031450      -164.1241
  23   2.0000      -6.028435      -164.0421
  24   2.0000      -1.009103       -27.4591
  25   2.0000      -0.984416       -26.7873
  26   2.0000      -0.919933       -25.0327
  27   2.0000      -0.903487       -24.5851
  28   2.0000      -0.876112       -23.8402
  29   2.0000      -0.854175       -23.2433
  30   2.0000      -0.844679       -22.9849
  31   2.0000      -0.818765       -22.2797
  32   2.0000      -0.778739       -21.1906
  33   2.0000      -0.763577       -20.7780
  34   2.0000      -0.708076       -19.2677
  35   2.0000      -0.695170       -18.9165
  36   2.0000      -0.691482       -18.8162
  37   2.0000      -0.658922       -17.9302
  38   2.0000      -0.652380       -17.7522
  39   2.0000      -0.620238       -16.8775
  40   2.0000      -0.587888       -15.9973
  41   2.0000      -0.572173       -15.5696
  42   2.0000      -0.570940       -15.5361
  43   2.0000      -0.556276       -15.1370
  44   2.0000      -0.530867       -14.4456
  45   2.0000      -0.523563       -14.2469
  46   2.0000      -0.515583       -14.0297
  47   2.0000      -0.511727       -13.9248
  48   2.0000      -0.509370       -13.8607
  49   2.0000      -0.505706       -13.7610
  50   2.0000      -0.501101       -13.6356
  51   2.0000      -0.475990       -12.9523
  52   2.0000      -0.469424       -12.7737
  53   2.0000      -0.461042       -12.5456
  54   2.0000      -0.453184       -12.3318
  55   2.0000      -0.449310       -12.2264
  56   2.0000      -0.445580       -12.1248
  57   2.0000      -0.441089       -12.0026
  58   2.0000      -0.429260       -11.6808
  59   2.0000      -0.420730       -11.4486
  60   2.0000      -0.414377       -11.2758
  61   2.0000      -0.410063       -11.1584
  62   2.0000      -0.405457       -11.0331
  63   2.0000      -0.335941        -9.1414
  64   2.0000      -0.326755        -8.8915
  65   2.0000      -0.318668        -8.6714
  66   2.0000      -0.308088        -8.3835
  67   0.0000       0.047404         1.2899
  68   0.0000       0.051112         1.3908
  69   0.0000       0.118063         3.2127
  70   0.0000       0.123388         3.3575
  71   0.0000       0.129028         3.5110

MULLIKEN ATOMIC CHARGES
-----------------------
   0 S :    0.113792
   1 C :   -0.098972
   2 C :   -0.066685
   3 C :    0.065538
   4 C :   -0.174268
   5 H :   -0.014595
   6 C :    0.028884
   7 H :    0.027106
   8 H :    0.018443
   9 C :   -0.053384
  10 H :    0.037414
  11 H :    0.033980
  12 C :   -0.045128
  13 H :    0.029157
  14 H :    0.026734
  15 H :    0.032642
  16 S :    0.124283
  17 C :   -0.105315
  18 C :   -0.027641
  19 C :   -0.038737
  20 C :   -0.187453
  21 H :    0.014316
  22 C :    0.014661
  23 H :    0.033715
  24 H :    0.035891
  25 C :   -0.016699
  26 H :    0.039383
  27 H :    0.037008
  28 C :   -0.090814
  29 H :    0.038365
  30 H :    0.034303
  31 H :    0.027173
  32 H :    0.031700
  33 H :    0.075205
Sum of atomic charges:    0.0000000

LOEWDIN ATOMIC CHARGES
----------------------
   0 S :    0.423361
   1 C :   -0.197272
   2 C :   -0.063144
   3 C :   -0.055157
   4 C :   -0.216683
   5 H :    0.022539
   6 C :   -0.037498
   7 H :    0.034573
   8 H :    0.031264
   9 C :   -0.051573
  10 H :    0.035730
  11 H :    0.024496
  12 C :   -0.069919
  13 H :    0.023079
  14 H :    0.035189
  15 H :    0.025243
  16 S :    0.429748
  17 C :   -0.199404
  18 C :   -0.074065
  19 C :   -0.046895
  20 C :   -0.214486
  21 H :    0.028626
  22 C :   -0.052446
  23 H :    0.042384
  24 H :    0.035241
  25 C :   -0.029955
  26 H :    0.026637
  27 H :    0.027252
  28 C :   -0.071615
  29 H :    0.025738
  30 H :    0.027455
  31 H :    0.021420
  32 H :    0.018710
  33 H :    0.041426

  Mayer bond orders larger than 0.100000
B(  0-S ,  1-C ) :   1.1657 B(  0-S ,  4-C ) :   1.1518 B(  1-C ,  2-C ) :   1.5640
B(  1-C , 32-H ) :   0.9814 B(  2-C ,  3-C ) :   1.2512 B(  2-C ,  6-C ) :   1.0077
B(  3-C ,  4-C ) :   1.5792 B(  3-C ,  5-H ) :   1.0030 B(  4-C , 20-C ) :   1.0146
B(  6-C ,  7-H ) :   0.9382 B(  6-C ,  8-H ) :   0.9460 B(  6-C ,  9-C ) :   1.0512
B(  9-C , 10-H ) :   0.9509 B(  9-C , 11-H ) :   0.9498 B(  9-C , 12-C ) :   1.0876
B( 12-C , 13-H ) :   0.9706 B( 12-C , 14-H ) :   0.9692 B( 12-C , 15-H ) :   0.9698
B( 16-S , 17-C ) :   1.1682 B( 16-S , 20-C ) :   1.1555 B( 17-C , 18-C ) :   1.6036
B( 17-C , 33-H ) :   0.9589 B( 18-C , 19-C ) :   1.2285 B( 18-C , 21-H ) :   0.9966
B( 19-C , 20-C ) :   1.5831 B( 19-C , 22-C ) :   1.0562 B( 22-C , 23-H ) :   0.9209
B( 22-C , 24-H ) :   0.9464 B( 22-C , 25-C ) :   1.0447 B( 25-C , 26-H ) :   0.9629
B( 25-C , 27-H ) :   0.9530 B( 25-C , 28-C ) :   1.0702 B( 28-C , 29-H ) :   0.9768
B( 28-C , 30-H ) :   0.9763 B( 28-C , 31-H ) :   0.9792

Dispersion correction           -0.013579405
FINAL SINGLE POINT ENERGY     -1339.861519429030

DIPOLE MOMENT
-------------
                                X             Y             Z
Electronic contribution:    -18.86602       4.67015       4.95708
Nuclear contribution   :     19.21808      -4.94659      -4.98206
                        -----------------------------------------
Total Dipole Moment    :      0.35206      -0.27644      -0.02498
                        -----------------------------------------
Magnitude (a.u.)       :      0.44832
Magnitude (Debye)      :      1.13953

Rotational constants in cm-1:     0.019630     0.007312     0.006411
Rotational constants in MHz :   588.493919   219.201429   192.194387

                             ****ORCA TERMINATED NORMALLY****
TOTAL RUN TIME: 0 days 0 hours 0 minutes 32 seconds 858 msec
