                         Program Version 4.2.1 -  RELEASE  -
|  1> ! wB97X-D3 SP def2-SVP
|  2> %pal
|  3> nprocs 16
|  4> end
|  5>
|  6> * xyz 0 1
|  7> S 	 -39.6676 	 25.9102 	 91.7586
|  8> C 	 -39.9144 	 24.2317 	 92.1058
|  9> C 	 -39.9826 	 23.47 	 90.9566
| 10> C 	 -39.7579 	 24.2794 	 89.785
| 11> C 	 -39.3415 	 25.5419 	 90.0273
| 12> H 	 -39.8633 	 23.9674 	 88.7603
| 13> C 	 -40.2831 	 22.0115 	 90.9166
| 14> H 	 -39.5505 	 21.4276 	 91.5554
| 15> H 	 -40.1523 	 21.6765 	 89.8579
| 16> C 	 -41.6254 	 21.5476 	 91.5097
| 17> H 	 -41.5804 	 20.4633 	 91.4025
| 18> H 	 -41.6158 	 21.7884 	 92.6132
| 19> C 	 -42.8837 	 22.129 	 90.8836
| 20> H 	 -43.705 	 21.9977 	 91.6472
| 21> H 	 -42.7677 	 23.2069 	 90.8453
| 22> H 	 -42.9096 	 21.7207 	 89.7914
| 23> S 	 -39.072 	 28.1882 	 89.755
| 24> C 	 -38.695 	 28.9133 	 88.2225
| 25> C 	 -38.4334 	 27.947 	 87.2655
| 26> C 	 -38.717 	 26.6183 	 87.7054
| 27> C 	 -39.0835 	 26.5774 	 89.0469
| 28> H 	 -37.9939 	 28.2611 	 86.375
| 29> C 	 -38.5362 	 25.473 	 86.7459
| 30> H 	 -38.3068 	 24.4484 	 87.2134
| 31> H 	 -37.6299 	 25.7755 	 86.3066
| 32> C 	 -39.597 	 25.3323 	 85.6311
| 33> H 	 -39.2984 	 24.5686 	 84.8561
| 34> H 	 -39.5433 	 26.2601 	 85.0389
| 35> C 	 -41.0316 	 24.9982 	 86.0984
| 36> H 	 -41.6758 	 25.4569 	 85.3106
| 37> H 	 -41.3389 	 25.4125 	 87.1101
| 38> H 	 -41.0867 	 23.8816 	 86.1024
| 39> H 	 -39.8968 	 23.7969 	 93.1394
| 40> H 	 -38.4459 	 29.9845 	 88.2005
| 41> *
| 42>
| 43>                          ****END OF INPUT****

CARTESIAN COORDINATES (ANGSTROEM)
---------------------------------
  S    -39.667600   25.910200   91.758600
  C    -39.914400   24.231700   92.105800
  C    -39.982600   23.470000   90.956600
  C    -39.757900   24.279400   89.785000
  C    -39.341500   25.541900   90.027300
  H    -39.863300   23.967400   88.760300
  C    -40.283100   22.011500   90.916600
  H    -39.550500   21.427600   91.555400
  H    -40.152300   21.676500   89.857900
  C    -41.625400   21.547600   91.509700
  H    -41.580400   20.463300   91.402500
  H    -41.615800   21.788400   92.613200
  C    -42.883700   22.129000   90.883600
  H    -43.705000   21.997700   91.647200
  H    -42.767700   23.206900   90.845300
  H    -42.909600   21.720700   89.791400
  S    -39.072000   28.188200   89.755000
  C    -38.695000   28.913300   88.222500
  C    -38.433400   27.947000   87.265500
  C    -38.717000   26.618300   87.705400
  C    -39.083500   26.577400   89.046900
  H    -37.993900   28.261100   86.375000
  C    -38.536200   25.473000   86.745900
  H    -38.306800   24.448400   87.213400
  H    -37.629900   25.775500   86.306600
  C    -39.597000   25.332300   85.631100
  H    -39.298400   24.568600   84.856100
  H    -39.543300   26.260100   85.038900
  C    -41.031600   24.998200   86.098400
  H    -41.675800   25.456900   85.310600
  H    -41.338900   25.412500   87.110100
  H    -41.086700   23.881600   86.102400
  H    -39.896800   23.796900   93.139400
  H    -38.445900   29.984500   88.200500

 Total Charge           Charge          ....    0
 Multiplicity           Mult            ....    1
 Number of Electrons    NEL             ....  134
 Basis Dimension        Dim             ....  322

ORBITAL ENERGIES
----------------

  NO   OCC          E(Eh)            E(eV)
   0   2.0000     -88.963977     -2420.8329
   1   2.0000     -88.962606     -2420.7956
   2   2.0000     -10.329545      -281.0812
   3   2.0000     -10.329347      -281.0758
   4   2.0000     -10.319461      -280.8068
   5   2.0000     -10.316132      -280.7162
   6   2.0000     -10.308176      -280.4997
   7   2.0000     -10.299758      -280.2707
   8   2.0000     -10.296408      -280.1795
   9   2.0000     -10.295668      -280.1594
  10   2.0000     -10.294714      -280.1334
  11   2.0000     -10.293850      -280.1099
  12   2.0000     -10.290811      -280.0272
  13   2.0000     -10.288600      -279.9670
  14   2.0000     -10.288565      -279.9661
  15   2.0000     -10.284859      -279.8653
  16   2.0000      -8.078474      -219.8265
  17   2.0000      -8.078057      -219.8151
  18   2.0000      -6.037247      -164.2819
  19   2.0000      -6.036580      -164.2637
  20   2.0000      -6.033235      -164.1727
  21   2.0000      -6.032499      -164.1526
  22   2.0000      -6.028749      -164.0506
  23   2.0000      -6.028733      -164.0502
  24   2.0000      -1.009365       -27.4662
  25   2.0000      -0.985472       -26.8160
  26   2.0000      -0.912628       -24.8339
  27   2.0000      -0.908692       -24.7268
  28   2.0000      -0.871848       -23.7242
  29   2.0000      -0.853094       -23.2139
  30   2.0000      -0.843536       -22.9538
  31   2.0000      -0.815847       -22.2003
  32   2.0000      -0.782738       -21.2994
  33   2.0000      -0.771374       -20.9901
  34   2.0000      -0.704730       -19.1767
  35   2.0000      -0.697762       -18.9871
  36   2.0000      -0.686085       -18.6693
  37   2.0000      -0.667721       -18.1696
  38   2.0000      -0.634636       -17.2693
  39   2.0000      -0.614428       -16.7194
  40   2.0000      -0.593333       -16.1454
  41   2.0000      -0.574806       -15.6413
  42   2.0000      -0.553460       -15.0604
  43   2.0000      -0.551156       -14.9977
  44   2.0000      -0.542239       -14.7551
  45   2.0000      -0.535533       -14.5726
  46   2.0000      -0.516528       -14.0554
  47   2.0000      -0.514546       -14.0015
  48   2.0000      -0.502982       -13.6868
  49   2.0000      -0.496305       -13.5051
  50   2.0000      -0.495028       -13.4704
  51   2.0000      -0.478258       -13.0141
  52   2.0000      -0.468825       -12.7574
  53   2.0000      -0.464272       -12.6335
  54   2.0000      -0.462061       -12.5733
  55   2.0000      -0.447610       -12.1801
  56   2.0000      -0.440309       -11.9814
  57   2.0000      -0.431473       -11.7410
  58   2.0000      -0.428936       -11.6719
  59   2.0000      -0.421716       -11.4755
  60   2.0000      -0.416504       -11.3337
  61   2.0000      -0.414371       -11.2756
  62   2.0000      -0.407322       -11.0838
  63   2.0000      -0.365572        -9.9477
  64   2.0000      -0.335499        -9.1294
  65   2.0000      -0.322860        -8.7855
  66   2.0000      -0.281147        -7.6504
  67   0.0000       0.017020         0.4631
  68   0.0000       0.078854         2.1457
  69   0.0000       0.090840         2.4719
  70   0.0000       0.109724         2.9857
  71   0.0000       0.129198         3.5156

MULLIKEN ATOMIC CHARGES
-----------------------
   0 S :    0.081305
   1 C :   -0.131238
   2 C :   -0.069920
   3 C :   -0.023649
   4 C :   -0.059402
   5 H :   -0.005377
   6 C :    0.033716
   7 H :    0.044226
   8 H :    0.023199
   9 C :   -0.102774
  10 H :    0.033719
  11 H :    0.028213
  12 C :   -0.057751
  13 H :    0.048151
  14 H :    0.037882
  15 H :    0.049742
  16 S :    0.073148
  17 C :   -0.093201
  18 C :   -0.021243
  19 C :   -0.047985
  20 C :   -0.131525
  21 H :    0.000504
  22 C :    0.052859
  23 H :    0.043553
  24 H :    0.012100
  25 C :   -0.096232
  26 H :    0.037656
  27 H :    0.024086
  28 C :   -0.083154
  29 H :    0.048716
  30 H :    0.064371
  31 H :    0.043649
  32 H :    0.070913
  33 H :    0.071743
Sum of atomic charges:   -0.0000000

LOEWDIN ATOMIC CHARGES
----------------------
   0 S :    0.376988
   1 C :   -0.203207
   2 C :   -0.070215
   3 C :   -0.064089
   4 C :   -0.171450
   5 H :    0.026048
   6 C :   -0.043273
   7 H :    0.043130
   8 H :    0.029848
   9 C :   -0.049445
  10 H :    0.022992
  11 H :    0.024171
  12 C :   -0.079690
  13 H :    0.037915
  14 H :    0.024103
  15 H :    0.039844
  16 S :    0.399513
  17 C :   -0.185827
  18 C :   -0.062822
  19 C :   -0.058796
  20 C :   -0.182290
  21 H :    0.022973
  22 C :   -0.039683
  23 H :    0.036239
  24 H :    0.028447
  25 C :   -0.047943
  26 H :    0.031004
  27 H :    0.020328
  28 C :   -0.078559
  29 H :    0.035830
  30 H :    0.035362
  31 H :    0.028757
  32 H :    0.040517
  33 H :    0.033279

  Mayer bond orders larger than 0.100000
B(  0-S ,  1-C ) :   1.1318 B(  0-S ,  4-C ) :   1.1134 B(  1-C ,  2-C ) :   1.6132
B(  1-C , 32-H ) :   0.9601 B(  2-C ,  3-C ) :   1.2132 B(  2-C ,  6-C ) :   1.0299
B(  3-C ,  4-C ) :   1.6035 B(  3-C ,  5-H ) :   0.9941 B(  4-C , 20-C ) :   1.0950
B(  6-C ,  7-H ) :   0.9345 B(  6-C ,  8-H ) :   0.9422 B(  6-C ,  9-C ) :   1.0725
B(  9-C , 10-H ) :   0.9569 B(  9-C , 11-H ) :   0.9527 B(  9-C , 12-C ) :   1.0729
B( 12-C , 13-H ) :   0.9716 B( 12-C , 14-H ) :   0.9735 B( 12-C , 15-H ) :   0.9713
B( 16-S , 17-C ) :   1.1634 B( 16-S , 20-C ) :   1.1342 B( 17-C , 18-C ) :   1.6004
B( 17-C , 33-H ) :   0.9651 B( 18-C , 19-C ) :   1.2374 B( 18-C , 21-H ) :   0.9998
B( 19-C , 20-C ) :   1.5775 B( 19-C , 22-C ) :   1.0291 B( 22-C , 23-H ) :   0.9394
B( 22-C , 24-H ) :   0.9214 B( 22-C , 25-C ) :   1.0798 B( 25-C , 26-H ) :   0.9558
B( 25-C , 27-H ) :   0.9598 B( 25-C , 28-C ) :   1.0576 B( 28-C , 29-H ) :   0.9744
B( 28-C , 30-H ) :   0.9750 B( 28-C , 31-H ) :   0.9744

Dispersion correction           -0.014825556
FINAL SINGLE POINT ENERGY     -1339.869083756497

DIPOLE MOMENT
-------------
                                X             Y             Z
Electronic contribution:     10.98382      21.65134      13.03227
Nuclear contribution   :    -10.86879     -22.04339     -13.51154
                        -----------------------------------------
Total Dipole Moment    :      0.11503      -0.39204      -0.47926
                        -----------------------------------------
Magnitude (a.u.)       :      0.62978
Magnitude (Debye)      :      1.60077

Rotational constants in cm-1:     0.019921     0.009228     0.006908
Rotational constants in MHz :   597.210813   276.649947   207.095342

                             ****ORCA TERMINATED NORMALLY****
TOTAL RUN TIME: 0 days 0 hours 0 minutes 30 seconds 689 msec
