                         Program Version 4.2.1 -  RELEASE  -
|  1> ! wB97X-D3 SP def2-SVP
|  2> %pal
|  3> nprocs 16
|  4> end
|  5>
|  6> * xyz 0 1
|  7> S 	 17.8371 	 4.45671 	 87.8816
|  8> C 	 18.7393 	 6.002 	 87.976
|  9> C 	 18.5194 	 6.81374 	 86.8564
| 10> C 	 17.5418 	 6.2018 	 85.964
| 11> C 	 16.9391 	 5.06397 	 86.4724
| 12> H 	 17.0922 	 6.60807 	 85.0602
| 13> C 	 19.1954 	 8.09004 	 86.5161
| 14> H 	 20.333 	 8.04396 	 86.2914
| 15> H 	 19.2248 	 8.58293 	 87.4722
| 16> C 	 18.6202 	 9.03309 	 85.5101
| 17> H 	 18.7853 	 8.59353 	 84.5138
| 18> H 	 17.6054 	 9.1693 	 85.7301
| 19> C 	 19.3575 	 10.4241 	 85.459
| 20> H 	 19.1621 	 11.0053 	 84.5068
| 21> H 	 19.1691 	 11.0966 	 86.2665
| 22> H 	 20.4968 	 10.2621 	 85.4084
| 23> S 	 16.2416 	 2.69467 	 85.4043
| 24> C 	 14.6292 	 2.40897 	 84.9049
| 25> C 	 13.849 	 3.52223 	 84.8126
| 26> C 	 14.5542 	 4.64199 	 85.3519
| 27> C 	 15.8158 	 4.33375 	 85.8693
| 28> H 	 12.7996 	 3.46964 	 84.314
| 29> C 	 13.83 	 5.91737 	 85.5369
| 30> H 	 14.2335 	 6.31413 	 86.4932
| 31> H 	 12.7634 	 5.69744 	 85.8842
| 32> C 	 13.7945 	 6.93703 	 84.3558
| 33> H 	 12.8798 	 6.75916 	 83.768
| 34> H 	 14.6908 	 6.78493 	 83.6455
| 35> C 	 13.6607 	 8.43575 	 84.8258
| 36> H 	 13.4547 	 9.12052 	 84.0299
| 37> H 	 14.4393 	 8.82625 	 85.5405
| 38> H 	 12.759 	 8.54361 	 85.3695
| 39> H 	 19.5312 	 6.18652 	 88.711
| 40> H 	 14.2688 	 1.48497 	 84.4593
| 41> *
| 42>
| 43>                          ****END OF INPUT****

CARTESIAN COORDINATES (ANGSTROEM)
---------------------------------
  S     17.837100    4.456710   87.881600
  C     18.739300    6.002000   87.976000
  C     18.519400    6.813740   86.856400
  C     17.541800    6.201800   85.964000
  C     16.939100    5.063970   86.472400
  H     17.092200    6.608070   85.060200
  C     19.195400    8.090040   86.516100
  H     20.333000    8.043960   86.291400
  H     19.224800    8.582930   87.472200
  C     18.620200    9.033090   85.510100
  H     18.785300    8.593530   84.513800
  H     17.605400    9.169300   85.730100
  C     19.357500   10.424100   85.459000
  H     19.162100   11.005300   84.506800
  H     19.169100   11.096600   86.266500
  H     20.496800   10.262100   85.408400
  S     16.241600    2.694670   85.404300
  C     14.629200    2.408970   84.904900
  C     13.849000    3.522230   84.812600
  C     14.554200    4.641990   85.351900
  C     15.815800    4.333750   85.869300
  H     12.799600    3.469640   84.314000
  C     13.830000    5.917370   85.536900
  H     14.233500    6.314130   86.493200
  H     12.763400    5.697440   85.884200
  C     13.794500    6.937030   84.355800
  H     12.879800    6.759160   83.768000
  H     14.690800    6.784930   83.645500
  C     13.660700    8.435750   84.825800
  H     13.454700    9.120520   84.029900
  H     14.439300    8.826250   85.540500
  H     12.759000    8.543610   85.369500
  H     19.531200    6.186520   88.711000
  H     14.268800    1.484970   84.459300

 Total Charge           Charge          ....    0
 Multiplicity           Mult            ....    1
 Number of Electrons    NEL             ....  134
 Basis Dimension        Dim             ....  322

ORBITAL ENERGIES
----------------

  NO   OCC          E(Eh)            E(eV)
   0   2.0000     -88.967768     -2420.9360
   1   2.0000     -88.963237     -2420.8128
   2   2.0000     -10.332592      -281.1641
   3   2.0000     -10.327670      -281.0302
   4   2.0000     -10.321527      -280.8630
   5   2.0000     -10.310934      -280.5748
   6   2.0000     -10.309509      -280.5360
   7   2.0000     -10.304253      -280.3930
   8   2.0000     -10.301825      -280.3269
   9   2.0000     -10.297071      -280.1975
  10   2.0000     -10.296469      -280.1812
  11   2.0000     -10.293871      -280.1105
  12   2.0000     -10.293358      -280.0965
  13   2.0000     -10.291452      -280.0447
  14   2.0000     -10.288566      -279.9661
  15   2.0000     -10.279654      -279.7236
  16   2.0000      -8.081318      -219.9038
  17   2.0000      -8.078894      -219.8379
  18   2.0000      -6.039980      -164.3562
  19   2.0000      -6.037244      -164.2818
  20   2.0000      -6.036108      -164.2508
  21   2.0000      -6.033402      -164.1772
  22   2.0000      -6.031850      -164.1350
  23   2.0000      -6.029627      -164.0745
  24   2.0000      -1.006475       -27.3876
  25   2.0000      -0.980421       -26.6786
  26   2.0000      -0.916168       -24.9302
  27   2.0000      -0.902563       -24.5600
  28   2.0000      -0.868614       -23.6362
  29   2.0000      -0.850179       -23.1345
  30   2.0000      -0.842139       -22.9158
  31   2.0000      -0.814401       -22.1610
  32   2.0000      -0.779598       -21.2139
  33   2.0000      -0.769547       -20.9404
  34   2.0000      -0.713308       -19.4101
  35   2.0000      -0.700064       -19.0497
  36   2.0000      -0.688310       -18.7299
  37   2.0000      -0.655335       -17.8326
  38   2.0000      -0.641499       -17.4561
  39   2.0000      -0.616175       -16.7670
  40   2.0000      -0.592072       -16.1111
  41   2.0000      -0.579199       -15.7608
  42   2.0000      -0.561695       -15.2845
  43   2.0000      -0.550953       -14.9922
  44   2.0000      -0.522595       -14.2205
  45   2.0000      -0.520156       -14.1542
  46   2.0000      -0.511319       -13.9137
  47   2.0000      -0.507408       -13.8073
  48   2.0000      -0.499980       -13.6051
  49   2.0000      -0.491147       -13.3648
  50   2.0000      -0.489544       -13.3212
  51   2.0000      -0.476880       -12.9766
  52   2.0000      -0.469377       -12.7724
  53   2.0000      -0.467597       -12.7240
  54   2.0000      -0.459263       -12.4972
  55   2.0000      -0.451217       -12.2782
  56   2.0000      -0.446843       -12.1592
  57   2.0000      -0.435194       -11.8422
  58   2.0000      -0.431912       -11.7529
  59   2.0000      -0.427673       -11.6376
  60   2.0000      -0.423552       -11.5254
  61   2.0000      -0.416399       -11.3308
  62   2.0000      -0.408054       -11.1037
  63   2.0000      -0.342460        -9.3188
  64   2.0000      -0.329468        -8.9653
  65   2.0000      -0.327186        -8.9032
  66   2.0000      -0.294154        -8.0043
  67   0.0000       0.026619         0.7244
  68   0.0000       0.064164         1.7460
  69   0.0000       0.106564         2.8997
  70   0.0000       0.119051         3.2395
  71   0.0000       0.125811         3.4235

MULLIKEN ATOMIC CHARGES
-----------------------
   0 S :    0.105375
   1 C :   -0.122956
   2 C :   -0.062063
   3 C :    0.037545
   4 C :   -0.160640
   5 H :    0.016388
   6 C :    0.022798
   7 H :    0.045434
   8 H :    0.018191
   9 C :   -0.050722
  10 H :    0.041402
  11 H :    0.027466
  12 C :   -0.088341
  13 H :    0.043555
  14 H :    0.037113
  15 H :    0.033541
  16 S :    0.105341
  17 C :   -0.072638
  18 C :   -0.075521
  19 C :   -0.023373
  20 C :   -0.154300
  21 H :    0.059172
  22 C :   -0.003458
  23 H :    0.034333
  24 H :    0.035391
  25 C :   -0.075377
  26 H :    0.034731
  27 H :    0.053116
  28 C :   -0.054074
  29 H :    0.027967
  30 H :    0.048517
  31 H :    0.011616
  32 H :    0.054647
  33 H :    0.049824
Sum of atomic charges:    0.0000000

LOEWDIN ATOMIC CHARGES
----------------------
   0 S :    0.377989
   1 C :   -0.185592
   2 C :   -0.058227
   3 C :   -0.059660
   4 C :   -0.191509
   5 H :    0.032802
   6 C :   -0.051529
   7 H :    0.042673
   8 H :    0.032076
   9 C :   -0.037901
  10 H :    0.030141
  11 H :    0.018093
  12 C :   -0.071237
  13 H :    0.033846
  14 H :    0.018652
  15 H :    0.031521
  16 S :    0.417320
  17 C :   -0.193382
  18 C :   -0.085852
  19 C :   -0.059916
  20 C :   -0.196726
  21 H :    0.053950
  22 C :   -0.048482
  23 H :    0.035349
  24 H :    0.038374
  25 C :   -0.042228
  26 H :    0.028087
  27 H :    0.029917
  28 C :   -0.072546
  29 H :    0.023858
  30 H :    0.031060
  31 H :    0.020292
  32 H :    0.031109
  33 H :    0.027675

  Mayer bond orders larger than 0.100000
B(  0-S ,  1-C ) :   1.1221 B(  0-S ,  4-C ) :   1.1341 B(  1-C ,  2-C ) :   1.6255
B(  1-C , 32-H ) :   0.9684 B(  2-C ,  3-C ) :   1.2093 B(  2-C ,  6-C ) :   1.0185
B(  3-C ,  4-C ) :   1.5969 B(  3-C ,  5-H ) :   0.9870 B(  4-C , 20-C ) :   1.0245
B(  6-C ,  7-H ) :   0.9245 B(  6-C ,  8-H ) :   0.9336 B(  6-C ,  9-C ) :   1.0911
B(  9-C , 10-H ) :   0.9444 B(  9-C , 11-H ) :   0.9550 B(  9-C , 12-C ) :   1.0764
B( 12-C , 13-H ) :   0.9759 B( 12-C , 14-H ) :   0.9781 B( 12-C , 15-H ) :   0.9729
B( 16-S , 17-C ) :   1.1630 B( 16-S , 20-C ) :   1.1436 B( 17-C , 18-C ) :   1.6308
B( 17-C , 33-H ) :   0.9605 B( 18-C , 19-C ) :   1.2293 B( 18-C , 21-H ) :   0.9762
B( 19-C , 20-C ) :   1.6008 B( 19-C , 22-C ) :   1.0524 B( 22-C , 23-H ) :   0.9505
B( 22-C , 24-H ) :   0.9413 B( 22-C , 25-C ) :   1.0228 B( 25-C , 26-H ) :   0.9518
B( 25-C , 27-H ) :   0.9652 B( 25-C , 28-C ) :   1.0754 B( 28-C , 29-H ) :   0.9743
B( 28-C , 30-H ) :   0.9775 B( 28-C , 31-H ) :   0.9698

Dispersion correction           -0.014089908
FINAL SINGLE POINT ENERGY     -1339.857273058563

DIPOLE MOMENT
-------------
                                X             Y             Z
Electronic contribution:      3.43525     -31.71353       8.75102
Nuclear contribution   :     -3.66038      32.34891      -9.08140
                        -----------------------------------------
Total Dipole Moment    :     -0.22513       0.63539      -0.33038
                        -----------------------------------------
Magnitude (a.u.)       :      0.75070
Magnitude (Debye)      :      1.90813

Rotational constants in cm-1:     0.016738     0.009428     0.006608
Rotational constants in MHz :   501.782363   282.636555   198.093896

                             ****ORCA TERMINATED NORMALLY****
TOTAL RUN TIME: 0 days 0 hours 0 minutes 34 seconds 663 msec
