                         Program Version 4.2.1 -  RELEASE  -
|  1> ! wB97X-D3 SP def2-SVP
|  2> %pal
|  3> nprocs 16
|  4> end
|  5>
|  6> * xyz 0 1
|  7> S 	 -37.6777 	 51.088 	 103.189
|  8> C 	 -36.0509 	 50.8879 	 103.621
|  9> C 	 -35.2487 	 51.6637 	 102.824
| 10> C 	 -35.9666 	 52.2691 	 101.753
| 11> C 	 -37.3586 	 52.1646 	 101.813
| 12> H 	 -35.4947 	 52.9617 	 101.082
| 13> C 	 -33.7408 	 51.8602 	 103.005
| 14> H 	 -33.5737 	 52.0891 	 104.02
| 15> H 	 -33.4786 	 52.6987 	 102.335
| 16> C 	 -32.8435 	 50.717 	 102.517
| 17> H 	 -31.8142 	 51.0097 	 102.379
| 18> H 	 -32.777 	 49.8157 	 103.142
| 19> C 	 -33.1707 	 50.2125 	 101.128
| 20> H 	 -32.2406 	 49.762 	 100.739
| 21> H 	 -34.1456 	 49.6148 	 100.984
| 22> H 	 -33.3103 	 51.0698 	 100.501
| 23> S 	 -40.0065 	 52.9315 	 101.899
| 24> C 	 -40.7981 	 53.7495 	 100.53
| 25> C 	 -39.8201 	 53.8954 	 99.5338
| 26> C 	 -38.5239 	 53.4366 	 99.7718
| 27> C 	 -38.4152 	 52.8691 	 101.043
| 28> H 	 -40.1139 	 54.4082 	 98.625
| 29> C 	 -37.4242 	 53.5652 	 98.7665
| 30> H 	 -36.4899 	 53.9687 	 99.1769
| 31> H 	 -37.8208 	 54.2835 	 98.039
| 32> C 	 -37.0324 	 52.1847 	 98.1776
| 33> H 	 -37.7932 	 51.8498 	 97.54
| 34> H 	 -36.735 	 51.4774 	 98.96
| 35> C 	 -35.7905 	 52.2664 	 97.2027
| 36> H 	 -35.4596 	 51.3222 	 96.71
| 37> H 	 -34.9748 	 52.5869 	 97.7693
| 38> H 	 -35.8766 	 53.157 	 96.5809
| 39> H 	 -35.6695 	 50.2881 	 104.43
| 40> H 	 -41.8644 	 54.1035 	 100.61
| 41> *
| 42>
| 43>                          ****END OF INPUT****

CARTESIAN COORDINATES (ANGSTROEM)
---------------------------------
  S    -37.677700   51.088000  103.189000
  C    -36.050900   50.887900  103.621000
  C    -35.248700   51.663700  102.824000
  C    -35.966600   52.269100  101.753000
  C    -37.358600   52.164600  101.813000
  H    -35.494700   52.961700  101.082000
  C    -33.740800   51.860200  103.005000
  H    -33.573700   52.089100  104.020000
  H    -33.478600   52.698700  102.335000
  C    -32.843500   50.717000  102.517000
  H    -31.814200   51.009700  102.379000
  H    -32.777000   49.815700  103.142000
  C    -33.170700   50.212500  101.128000
  H    -32.240600   49.762000  100.739000
  H    -34.145600   49.614800  100.984000
  H    -33.310300   51.069800  100.501000
  S    -40.006500   52.931500  101.899000
  C    -40.798100   53.749500  100.530000
  C    -39.820100   53.895400   99.533800
  C    -38.523900   53.436600   99.771800
  C    -38.415200   52.869100  101.043000
  H    -40.113900   54.408200   98.625000
  C    -37.424200   53.565200   98.766500
  H    -36.489900   53.968700   99.176900
  H    -37.820800   54.283500   98.039000
  C    -37.032400   52.184700   98.177600
  H    -37.793200   51.849800   97.540000
  H    -36.735000   51.477400   98.960000
  C    -35.790500   52.266400   97.202700
  H    -35.459600   51.322200   96.710000
  H    -34.974800   52.586900   97.769300
  H    -35.876600   53.157000   96.580900
  H    -35.669500   50.288100  104.430000
  H    -41.864400   54.103500  100.610000

 Total Charge           Charge          ....    0
 Multiplicity           Mult            ....    1
 Number of Electrons    NEL             ....  134
 Basis Dimension        Dim             ....  322

ORBITAL ENERGIES
----------------

  NO   OCC          E(Eh)            E(eV)
   0   2.0000     -88.967453     -2420.9275
   1   2.0000     -88.965335     -2420.8698
   2   2.0000     -10.339905      -281.3631
   3   2.0000     -10.339603      -281.3549
   4   2.0000     -10.329917      -281.0913
   5   2.0000     -10.311341      -280.5858
   6   2.0000     -10.306227      -280.4467
   7   2.0000     -10.299182      -280.2550
   8   2.0000     -10.298750      -280.2432
   9   2.0000     -10.298246      -280.2295
  10   2.0000     -10.295286      -280.1490
  11   2.0000     -10.293261      -280.0939
  12   2.0000     -10.285495      -279.8826
  13   2.0000     -10.284435      -279.8537
  14   2.0000     -10.277515      -279.6654
  15   2.0000     -10.275130      -279.6005
  16   2.0000      -8.082504      -219.9361
  17   2.0000      -8.078919      -219.8385
  18   2.0000      -6.041033      -164.3849
  19   2.0000      -6.037539      -164.2898
  20   2.0000      -6.036785      -164.2693
  21   2.0000      -6.033469      -164.1790
  22   2.0000      -6.033362      -164.1761
  23   2.0000      -6.029736      -164.0775
  24   2.0000      -1.007188       -27.4070
  25   2.0000      -0.985590       -26.8193
  26   2.0000      -0.914323       -24.8800
  27   2.0000      -0.908849       -24.7310
  28   2.0000      -0.869002       -23.6467
  29   2.0000      -0.852874       -23.2079
  30   2.0000      -0.846832       -23.0435
  31   2.0000      -0.814180       -22.1550
  32   2.0000      -0.782233       -21.2856
  33   2.0000      -0.773905       -21.0590
  34   2.0000      -0.709859       -19.3162
  35   2.0000      -0.698024       -18.9942
  36   2.0000      -0.693682       -18.8760
  37   2.0000      -0.668665       -18.1953
  38   2.0000      -0.641138       -17.4463
  39   2.0000      -0.619344       -16.8532
  40   2.0000      -0.596731       -16.2379
  41   2.0000      -0.572417       -15.5762
  42   2.0000      -0.568854       -15.4793
  43   2.0000      -0.558439       -15.1959
  44   2.0000      -0.546214       -14.8632
  45   2.0000      -0.526321       -14.3219
  46   2.0000      -0.520494       -14.1634
  47   2.0000      -0.509125       -13.8540
  48   2.0000      -0.506057       -13.7705
  49   2.0000      -0.504328       -13.7235
  50   2.0000      -0.491990       -13.3877
  51   2.0000      -0.477699       -12.9989
  52   2.0000      -0.471877       -12.8404
  53   2.0000      -0.463898       -12.6233
  54   2.0000      -0.457294       -12.4436
  55   2.0000      -0.444816       -12.1040
  56   2.0000      -0.439703       -11.9649
  57   2.0000      -0.436671       -11.8824
  58   2.0000      -0.431641       -11.7456
  59   2.0000      -0.425733       -11.5848
  60   2.0000      -0.422244       -11.4899
  61   2.0000      -0.415755       -11.3133
  62   2.0000      -0.405341       -11.0299
  63   2.0000      -0.362367        -9.8605
  64   2.0000      -0.336019        -9.1435
  65   2.0000      -0.330004        -8.9799
  66   2.0000      -0.282637        -7.6909
  67   0.0000       0.014152         0.3851
  68   0.0000       0.076361         2.0779
  69   0.0000       0.102776         2.7967
  70   0.0000       0.119044         3.2394
  71   0.0000       0.123257         3.3540

MULLIKEN ATOMIC CHARGES
-----------------------
   0 S :    0.111310
   1 C :   -0.099919
   2 C :   -0.132586
   3 C :    0.008744
   4 C :   -0.106333
   5 H :   -0.005171
   6 C :    0.117712
   7 H :    0.026321
   8 H :    0.020931
   9 C :   -0.072234
  10 H :    0.022603
  11 H :    0.029016
  12 C :   -0.079605
  13 H :    0.035054
  14 H :    0.062425
  15 H :    0.002719
  16 S :    0.073186
  17 C :   -0.120358
  18 C :   -0.043323
  19 C :   -0.015223
  20 C :   -0.138625
  21 H :    0.016696
  22 C :    0.052227
  23 H :    0.030078
  24 H :    0.022587
  25 C :   -0.071832
  26 H :    0.027078
  27 H :    0.054001
  28 C :   -0.032838
  29 H :    0.054416
  30 H :   -0.004785
  31 H :    0.016795
  32 H :    0.047199
  33 H :    0.091732
Sum of atomic charges:   -0.0000000

LOEWDIN ATOMIC CHARGES
----------------------
   0 S :    0.423111
   1 C :   -0.209369
   2 C :   -0.068403
   3 C :   -0.073028
   4 C :   -0.186631
   5 H :    0.021852
   6 C :   -0.023220
   7 H :    0.026899
   8 H :    0.034789
   9 C :   -0.046988
  10 H :    0.025207
  11 H :    0.022285
  12 C :   -0.075090
  13 H :    0.030142
  14 H :    0.036683
  15 H :    0.013617
  16 S :    0.372114
  17 C :   -0.186235
  18 C :   -0.073360
  19 C :   -0.063131
  20 C :   -0.163733
  21 H :    0.029749
  22 C :   -0.028029
  23 H :    0.029600
  24 H :    0.033517
  25 C :   -0.027201
  26 H :    0.017622
  27 H :    0.030461
  28 C :   -0.073066
  29 H :    0.034889
  30 H :    0.011112
  31 H :    0.024349
  32 H :    0.032587
  33 H :    0.046899

  Mayer bond orders larger than 0.100000
B(  0-S ,  1-C ) :   1.1565 B(  0-S ,  4-C ) :   1.1573 B(  1-C ,  2-C ) :   1.5762
B(  1-C , 32-H ) :   0.9727 B(  2-C ,  3-C ) :   1.2968 B(  2-C ,  6-C ) :   1.0214
B(  3-C ,  4-C ) :   1.5233 B(  3-C ,  5-H ) :   0.9884 B(  4-C , 20-C ) :   1.0779
B(  6-C ,  7-H ) :   0.9411 B(  6-C ,  8-H ) :   0.9355 B(  6-C ,  9-C ) :   1.0767
B(  9-C , 10-H ) :   0.9587 B(  9-C , 11-H ) :   0.9550 B(  9-C , 12-C ) :   1.0792
B( 12-C , 13-H ) :   0.9743 B( 12-C , 14-H ) :   0.9669 B( 12-C , 15-H ) :   0.9728
B( 16-S , 17-C ) :   1.1519 B( 16-S , 20-C ) :   1.1452 B( 17-C , 18-C ) :   1.5626
B( 17-C , 20-C ) :   0.1146 B( 17-C , 33-H ) :   0.9654 B( 18-C , 19-C ) :   1.2845
B( 18-C , 21-H ) :   0.9840 B( 19-C , 20-C ) :   1.5429 B( 19-C , 22-C ) :   1.0440
B( 22-C , 23-H ) :   0.9385 B( 22-C , 24-H ) :   0.9251 B( 22-C , 25-C ) :   1.0597
B( 25-C , 26-H ) :   0.9575 B( 25-C , 27-H ) :   0.9595 B( 25-C , 28-C ) :   1.0767
B( 28-C , 29-H ) :   0.9753 B( 28-C , 30-H ) :   0.9692 B( 28-C , 31-H ) :   0.9684

Dispersion correction           -0.014789312
FINAL SINGLE POINT ENERGY     -1339.867309499423

DIPOLE MOMENT
-------------
                                X             Y             Z
Electronic contribution:    -25.78622       2.90303      17.08713
Nuclear contribution   :     26.30134      -2.65671     -17.38936
                        -----------------------------------------
Total Dipole Moment    :      0.51512       0.24633      -0.30223
                        -----------------------------------------
Magnitude (a.u.)       :      0.64604
Magnitude (Debye)      :      1.64210

Rotational constants in cm-1:     0.018647     0.009721     0.006815
Rotational constants in MHz :   559.023177   291.432124   204.302413

                             ****ORCA TERMINATED NORMALLY****
TOTAL RUN TIME: 0 days 0 hours 0 minutes 31 seconds 327 msec
