                         Program Version 4.2.1 -  RELEASE  -
|  1> ! wB97X-D3 SP def2-SVP
|  2> %pal
|  3> nprocs 16
|  4> end
|  5>
|  6> * xyz 0 1
|  7> S 	 -107.529 	 55.611 	 116.395
|  8> C 	 -106.403 	 56.5806 	 117.339
|  9> C 	 -107.09 	 57.2787 	 118.306
| 10> C 	 -108.533 	 57.2064 	 118.138
| 11> C 	 -108.853 	 56.5185 	 116.947
| 12> H 	 -109.266 	 57.6331 	 118.715
| 13> C 	 -106.546 	 58.0292 	 119.571
| 14> H 	 -106.81 	 59.1316 	 119.567
| 15> H 	 -105.424 	 58.0551 	 119.487
| 16> C 	 -106.895 	 57.4951 	 120.96
| 17> H 	 -106.554 	 58.2233 	 121.718
| 18> H 	 -107.992 	 57.5601 	 120.996
| 19> C 	 -106.304 	 56.1774 	 121.569
| 20> H 	 -105.274 	 56.3641 	 121.82
| 21> H 	 -106.911 	 55.6722 	 122.425
| 22> H 	 -106.277 	 55.4039 	 120.863
| 23> S 	 -110.807 	 54.5946 	 116.469
| 24> C 	 -112.427 	 55.0849 	 116.254
| 25> C 	 -112.605 	 56.4519 	 116.223
| 26> C 	 -111.299 	 57.1529 	 116.26
| 27> C 	 -110.217 	 56.2745 	 116.443
| 28> H 	 -113.579 	 56.992 	 116.363
| 29> C 	 -111.2 	 58.6926 	 116.341
| 30> H 	 -111.914 	 59.1195 	 115.653
| 31> H 	 -110.175 	 59.004 	 116.003
| 32> C 	 -111.485 	 59.2272 	 117.78
| 33> H 	 -111.235 	 60.3005 	 117.679
| 34> H 	 -110.772 	 58.8045 	 118.515
| 35> C 	 -112.885 	 59.1885 	 118.31
| 36> H 	 -113.149 	 58.1491 	 118.543
| 37> H 	 -113.591 	 59.4557 	 117.526
| 38> H 	 -112.998 	 59.9009 	 119.159
| 39> H 	 -105.331 	 56.4891 	 117.386
| 40> H 	 -113.207 	 54.2983 	 116.188
| 41> *
| 42>
| 43>                          ****END OF INPUT****

CARTESIAN COORDINATES (ANGSTROEM)
---------------------------------
  S    -107.529000   55.611000  116.395000
  C    -106.403000   56.580600  117.339000
  C    -107.090000   57.278700  118.306000
  C    -108.533000   57.206400  118.138000
  C    -108.853000   56.518500  116.947000
  H    -109.266000   57.633100  118.715000
  C    -106.546000   58.029200  119.571000
  H    -106.810000   59.131600  119.567000
  H    -105.424000   58.055100  119.487000
  C    -106.895000   57.495100  120.960000
  H    -106.554000   58.223300  121.718000
  H    -107.992000   57.560100  120.996000
  C    -106.304000   56.177400  121.569000
  H    -105.274000   56.364100  121.820000
  H    -106.911000   55.672200  122.425000
  H    -106.277000   55.403900  120.863000
  S    -110.807000   54.594600  116.469000
  C    -112.427000   55.084900  116.254000
  C    -112.605000   56.451900  116.223000
  C    -111.299000   57.152900  116.260000
  C    -110.217000   56.274500  116.443000
  H    -113.579000   56.992000  116.363000
  C    -111.200000   58.692600  116.341000
  H    -111.914000   59.119500  115.653000
  H    -110.175000   59.004000  116.003000
  C    -111.485000   59.227200  117.780000
  H    -111.235000   60.300500  117.679000
  H    -110.772000   58.804500  118.515000
  C    -112.885000   59.188500  118.310000
  H    -113.149000   58.149100  118.543000
  H    -113.591000   59.455700  117.526000
  H    -112.998000   59.900900  119.159000
  H    -105.331000   56.489100  117.386000
  H    -113.207000   54.298300  116.188000

 Total Charge           Charge          ....    0
 Multiplicity           Mult            ....    1
 Number of Electrons    NEL             ....  134
 Basis Dimension        Dim             ....  322

ORBITAL ENERGIES
----------------

  NO   OCC          E(Eh)            E(eV)
   0   2.0000     -88.967635     -2420.9324
   1   2.0000     -88.963665     -2420.8244
   2   2.0000     -10.331101      -281.1236
   3   2.0000     -10.329253      -281.0733
   4   2.0000     -10.321395      -280.8594
   5   2.0000     -10.316157      -280.7169
   6   2.0000     -10.311431      -280.5883
   7   2.0000     -10.308394      -280.5057
   8   2.0000     -10.306616      -280.4573
   9   2.0000     -10.303688      -280.3776
  10   2.0000     -10.298945      -280.2485
  11   2.0000     -10.293475      -280.0997
  12   2.0000     -10.292845      -280.0826
  13   2.0000     -10.290187      -280.0102
  14   2.0000     -10.281637      -279.7776
  15   2.0000     -10.281550      -279.7752
  16   2.0000      -8.083205      -219.9552
  17   2.0000      -8.079132      -219.8444
  18   2.0000      -6.041759      -164.4046
  19   2.0000      -6.037760      -164.2958
  20   2.0000      -6.037625      -164.2921
  21   2.0000      -6.033694      -164.1852
  22   2.0000      -6.033567      -164.1817
  23   2.0000      -6.029840      -164.0803
  24   2.0000      -1.007182       -27.4068
  25   2.0000      -0.983083       -26.7511
  26   2.0000      -0.908800       -24.7297
  27   2.0000      -0.903948       -24.5977
  28   2.0000      -0.866921       -23.5901
  29   2.0000      -0.849460       -23.1150
  30   2.0000      -0.841813       -22.9069
  31   2.0000      -0.810721       -22.0609
  32   2.0000      -0.787009       -21.4156
  33   2.0000      -0.777290       -21.1511
  34   2.0000      -0.703633       -19.1468
  35   2.0000      -0.695910       -18.9367
  36   2.0000      -0.685966       -18.6661
  37   2.0000      -0.659034       -17.9332
  38   2.0000      -0.642227       -17.4759
  39   2.0000      -0.616700       -16.7813
  40   2.0000      -0.594914       -16.1884
  41   2.0000      -0.563103       -15.3228
  42   2.0000      -0.551278       -15.0010
  43   2.0000      -0.547324       -14.8934
  44   2.0000      -0.544969       -14.8294
  45   2.0000      -0.537649       -14.6302
  46   2.0000      -0.517061       -14.0699
  47   2.0000      -0.509458       -13.8630
  48   2.0000      -0.501972       -13.6594
  49   2.0000      -0.498362       -13.5611
  50   2.0000      -0.494046       -13.4437
  51   2.0000      -0.481009       -13.0889
  52   2.0000      -0.471515       -12.8306
  53   2.0000      -0.466555       -12.6956
  54   2.0000      -0.459072       -12.4920
  55   2.0000      -0.450591       -12.2612
  56   2.0000      -0.442039       -12.0285
  57   2.0000      -0.440375       -11.9832
  58   2.0000      -0.430975       -11.7274
  59   2.0000      -0.429634       -11.6909
  60   2.0000      -0.414651       -11.2832
  61   2.0000      -0.411754       -11.2044
  62   2.0000      -0.407050       -11.0764
  63   2.0000      -0.344504        -9.3744
  64   2.0000      -0.328895        -8.9497
  65   2.0000      -0.327026        -8.8988
  66   2.0000      -0.294898        -8.0246
  67   0.0000       0.028209         0.7676
  68   0.0000       0.066062         1.7977
  69   0.0000       0.099345         2.7033
  70   0.0000       0.118389         3.2215
  71   0.0000       0.124463         3.3868

MULLIKEN ATOMIC CHARGES
-----------------------
   0 S :    0.114844
   1 C :   -0.098657
   2 C :   -0.071149
   3 C :    0.069899
   4 C :   -0.155376
   5 H :   -0.033673
   6 C :    0.022930
   7 H :    0.050464
   8 H :    0.015459
   9 C :   -0.090371
  10 H :    0.034639
  11 H :    0.026851
  12 C :   -0.043643
  13 H :    0.029512
  14 H :    0.053284
  15 H :    0.017175
  16 S :    0.096753
  17 C :   -0.102519
  18 C :   -0.044138
  19 C :   -0.087896
  20 C :   -0.128436
  21 H :    0.046075
  22 C :    0.063365
  23 H :    0.023489
  24 H :    0.045414
  25 C :   -0.095424
  26 H :    0.030802
  27 H :    0.028873
  28 C :   -0.044253
  29 H :    0.038164
  30 H :    0.020962
  31 H :    0.050025
  32 H :    0.041807
  33 H :    0.074748
Sum of atomic charges:    0.0000000

LOEWDIN ATOMIC CHARGES
----------------------
   0 S :    0.425035
   1 C :   -0.196448
   2 C :   -0.059216
   3 C :   -0.047625
   4 C :   -0.204952
   5 H :    0.009084
   6 C :   -0.040148
   7 H :    0.042356
   8 H :    0.026312
   9 C :   -0.050290
  10 H :    0.030904
  11 H :    0.021588
  12 C :   -0.070364
  13 H :    0.023404
  14 H :    0.044896
  15 H :    0.014388
  16 S :    0.404014
  17 C :   -0.196121
  18 C :   -0.086957
  19 C :   -0.050134
  20 C :   -0.201198
  21 H :    0.041442
  22 C :   -0.029925
  23 H :    0.027833
  24 H :    0.040327
  25 C :   -0.045218
  26 H :    0.027342
  27 H :    0.022610
  28 C :   -0.069186
  29 H :    0.025127
  30 H :    0.021593
  31 H :    0.035852
  32 H :    0.028561
  33 H :    0.035114

  Mayer bond orders larger than 0.100000
B(  0-S ,  1-C ) :   1.1256 B(  0-S ,  4-C ) :   1.1770 B(  1-C ,  2-C ) :   1.6303
B(  1-C , 32-H ) :   0.9675 B(  2-C ,  3-C ) :   1.2239 B(  2-C ,  6-C ) :   1.0126
B(  3-C ,  4-C ) :   1.5401 B(  3-C ,  5-H ) :   1.0084 B(  4-C , 20-C ) :   1.0247
B(  6-C ,  7-H ) :   0.9422 B(  6-C ,  8-H ) :   0.9439 B(  6-C ,  9-C ) :   1.0761
B(  9-C , 10-H ) :   0.9566 B(  9-C , 11-H ) :   0.9568 B(  9-C , 12-C ) :   1.0578
B( 12-C , 13-H ) :   0.9757 B( 12-C , 14-H ) :   0.9734 B( 12-C , 15-H ) :   0.9801
B( 16-S , 17-C ) :   1.1774 B( 16-S , 20-C ) :   1.1255 B( 17-C , 18-C ) :   1.6031
B( 17-C , 33-H ) :   0.9616 B( 18-C , 19-C ) :   1.2276 B( 18-C , 21-H ) :   0.9795
B( 19-C , 20-C ) :   1.6279 B( 19-C , 22-C ) :   1.0498 B( 22-C , 23-H ) :   0.9338
B( 22-C , 24-H ) :   0.9363 B( 22-C , 25-C ) :   1.0688 B( 25-C , 26-H ) :   0.9517
B( 25-C , 27-H ) :   0.9497 B( 25-C , 28-C ) :   1.0863 B( 28-C , 29-H ) :   0.9690
B( 28-C , 30-H ) :   0.9701 B( 28-C , 31-H ) :   0.9691

Dispersion correction           -0.014934200
FINAL SINGLE POINT ENERGY     -1339.860485546385

DIPOLE MOMENT
-------------
                                X             Y             Z
Electronic contribution:      1.01001     -17.77886     -20.25111
Nuclear contribution   :     -1.18722      18.24522      20.81954
                        -----------------------------------------
Total Dipole Moment    :     -0.17721       0.46636       0.56843
                        -----------------------------------------
Magnitude (a.u.)       :      0.75631
Magnitude (Debye)      :      1.92239

Rotational constants in cm-1:     0.018234     0.009040     0.007277
Rotational constants in MHz :   546.626808   271.004673   218.154829

                             ****ORCA TERMINATED NORMALLY****
TOTAL RUN TIME: 0 days 0 hours 0 minutes 35 seconds 612 msec
