                         Program Version 4.2.1 -  RELEASE  -
|  1> ! wB97X-D3 SP def2-SVP
|  2> %pal
|  3> nprocs 16
|  4> end
|  5>
|  6> * xyz 0 1
|  7> S 	 3.55149 	 -14.1335 	 77.9389
|  8> C 	 4.89658 	 -13.2974 	 78.7145
|  9> C 	 4.35916 	 -12.2967 	 79.63
| 10> C 	 2.96758 	 -12.5052 	 79.871
| 11> C 	 2.38288 	 -13.5259 	 79.1886
| 12> H 	 2.32912 	 -11.7852 	 80.4338
| 13> C 	 5.14756 	 -11.2776 	 80.3955
| 14> H 	 5.16426 	 -11.7634 	 81.3964
| 15> H 	 4.47519 	 -10.4178 	 80.514
| 16> C 	 6.38938 	 -10.6529 	 79.6385
| 17> H 	 7.16865 	 -11.3869 	 79.6556
| 18> H 	 6.22729 	 -10.6198 	 78.5242
| 19> C 	 6.99784 	 -9.33265 	 80.15
| 20> H 	 7.16075 	 -9.22556 	 81.2234
| 21> H 	 7.91828 	 -9.13459 	 79.6533
| 22> H 	 6.34691 	 -8.51514 	 79.8911
| 23> S 	 0.0500368 	 -14.0687 	 77.8106
| 24> C 	 -1.44004 	 -14.4195 	 78.6146
| 25> C 	 -1.34681 	 -14.1269 	 79.9815
| 26> C 	 0.0299724 	 -13.9556 	 80.3296
| 27> C 	 0.92881 	 -13.9073 	 79.2687
| 28> H 	 -2.13931 	 -14.2222 	 80.6684
| 29> C 	 0.421162 	 -13.6019 	 81.7688
| 30> H 	 1.56121 	 -13.5992 	 81.7976
| 31> H 	 0.143007 	 -14.4385 	 82.4105
| 32> C 	 -0.073572 	 -12.1769 	 82.2249
| 33> H 	 -1.13481 	 -12.2682 	 82.2691
| 34> H 	 0.134252 	 -11.4074 	 81.4486
| 35> C 	 0.426766 	 -11.8421 	 83.6718
| 36> H 	 0.0779964 	 -10.8897 	 84.0231
| 37> H 	 1.45904 	 -11.8361 	 83.5492
| 38> H 	 0.0370473 	 -12.5145 	 84.4706
| 39> H 	 5.88807 	 -13.3387 	 78.2762
| 40> H 	 -2.35353 	 -14.6111 	 78.0957
| 41> *
| 42>
| 43>                          ****END OF INPUT****

CARTESIAN COORDINATES (ANGSTROEM)
---------------------------------
  S      3.551490  -14.133500   77.938900
  C      4.896580  -13.297400   78.714500
  C      4.359160  -12.296700   79.630000
  C      2.967580  -12.505200   79.871000
  C      2.382880  -13.525900   79.188600
  H      2.329120  -11.785200   80.433800
  C      5.147560  -11.277600   80.395500
  H      5.164260  -11.763400   81.396400
  H      4.475190  -10.417800   80.514000
  C      6.389380  -10.652900   79.638500
  H      7.168650  -11.386900   79.655600
  H      6.227290  -10.619800   78.524200
  C      6.997840   -9.332650   80.150000
  H      7.160750   -9.225560   81.223400
  H      7.918280   -9.134590   79.653300
  H      6.346910   -8.515140   79.891100
  S      0.050037  -14.068700   77.810600
  C     -1.440040  -14.419500   78.614600
  C     -1.346810  -14.126900   79.981500
  C      0.029972  -13.955600   80.329600
  C      0.928810  -13.907300   79.268700
  H     -2.139310  -14.222200   80.668400
  C      0.421162  -13.601900   81.768800
  H      1.561210  -13.599200   81.797600
  H      0.143007  -14.438500   82.410500
  C     -0.073572  -12.176900   82.224900
  H     -1.134810  -12.268200   82.269100
  H      0.134252  -11.407400   81.448600
  C      0.426766  -11.842100   83.671800
  H      0.077996  -10.889700   84.023100
  H      1.459040  -11.836100   83.549200
  H      0.037047  -12.514500   84.470600
  H      5.888070  -13.338700   78.276200
  H     -2.353530  -14.611100   78.095700

 Total Charge           Charge          ....    0
 Multiplicity           Mult            ....    1
 Number of Electrons    NEL             ....  134
 Basis Dimension        Dim             ....  322

ORBITAL ENERGIES
----------------

  NO   OCC          E(Eh)            E(eV)
   0   2.0000     -88.966342     -2420.8973
   1   2.0000     -88.964652     -2420.8513
   2   2.0000     -10.337846      -281.3071
   3   2.0000     -10.327593      -281.0281
   4   2.0000     -10.323194      -280.9084
   5   2.0000     -10.317601      -280.7562
   6   2.0000     -10.311465      -280.5892
   7   2.0000     -10.301972      -280.3309
   8   2.0000     -10.300957      -280.3033
   9   2.0000     -10.297240      -280.2022
  10   2.0000     -10.297022      -280.1962
  11   2.0000     -10.294642      -280.1314
  12   2.0000     -10.293926      -280.1120
  13   2.0000     -10.293007      -280.0870
  14   2.0000     -10.279132      -279.7094
  15   2.0000     -10.278393      -279.6893
  16   2.0000      -8.080509      -219.8818
  17   2.0000      -8.079728      -219.8606
  18   2.0000      -6.038899      -164.3268
  19   2.0000      -6.038413      -164.3136
  20   2.0000      -6.034792      -164.2150
  21   2.0000      -6.034586      -164.2094
  22   2.0000      -6.031400      -164.1227
  23   2.0000      -6.030227      -164.0908
  24   2.0000      -1.006025       -27.3753
  25   2.0000      -0.979965       -26.6662
  26   2.0000      -0.904997       -24.6262
  27   2.0000      -0.901551       -24.5324
  28   2.0000      -0.864494       -23.5241
  29   2.0000      -0.853461       -23.2238
  30   2.0000      -0.848012       -23.0756
  31   2.0000      -0.817005       -22.2318
  32   2.0000      -0.777366       -21.1532
  33   2.0000      -0.765347       -20.8261
  34   2.0000      -0.715938       -19.4817
  35   2.0000      -0.703081       -19.1318
  36   2.0000      -0.689385       -18.7591
  37   2.0000      -0.665334       -18.1047
  38   2.0000      -0.638935       -17.3863
  39   2.0000      -0.613335       -16.6897
  40   2.0000      -0.591775       -16.1030
  41   2.0000      -0.567359       -15.4386
  42   2.0000      -0.565469       -15.3872
  43   2.0000      -0.558866       -15.2075
  44   2.0000      -0.527648       -14.3580
  45   2.0000      -0.524211       -14.2645
  46   2.0000      -0.519850       -14.1458
  47   2.0000      -0.513457       -13.9719
  48   2.0000      -0.505573       -13.7573
  49   2.0000      -0.498987       -13.5781
  50   2.0000      -0.496659       -13.5148
  51   2.0000      -0.478491       -13.0204
  52   2.0000      -0.471952       -12.8425
  53   2.0000      -0.459560       -12.5053
  54   2.0000      -0.455215       -12.3870
  55   2.0000      -0.453050       -12.3281
  56   2.0000      -0.449612       -12.2346
  57   2.0000      -0.440188       -11.9781
  58   2.0000      -0.438196       -11.9239
  59   2.0000      -0.423828       -11.5329
  60   2.0000      -0.415350       -11.3023
  61   2.0000      -0.414197       -11.2709
  62   2.0000      -0.407654       -11.0928
  63   2.0000      -0.351519        -9.5653
  64   2.0000      -0.330750        -9.0002
  65   2.0000      -0.323252        -8.7961
  66   2.0000      -0.287391        -7.8203
  67   0.0000       0.022626         0.6157
  68   0.0000       0.068018         1.8509
  69   0.0000       0.097258         2.6465
  70   0.0000       0.125446         3.4136
  71   0.0000       0.132441         3.6039

MULLIKEN ATOMIC CHARGES
-----------------------
   0 S :    0.094344
   1 C :   -0.126150
   2 C :   -0.115035
   3 C :   -0.008168
   4 C :   -0.108612
   5 H :    0.030776
   6 C :    0.050194
   7 H :    0.063280
   8 H :    0.026316
   9 C :   -0.097962
  10 H :    0.021427
  11 H :    0.042565
  12 C :   -0.021495
  13 H :    0.035567
  14 H :    0.027139
  15 H :    0.026218
  16 S :    0.104808
  17 C :   -0.086274
  18 C :   -0.006464
  19 C :   -0.084133
  20 C :   -0.120930
  21 H :    0.011599
  22 C :    0.007912
  23 H :    0.031100
  24 H :    0.033142
  25 C :   -0.088223
  26 H :    0.017906
  27 H :    0.046973
  28 C :   -0.014513
  29 H :    0.025318
  30 H :    0.022255
  31 H :    0.040844
  32 H :    0.064084
  33 H :    0.054193
Sum of atomic charges:    0.0000000

LOEWDIN ATOMIC CHARGES
----------------------
   0 S :    0.372804
   1 C :   -0.202641
   2 C :   -0.055643
   3 C :   -0.073605
   4 C :   -0.169645
   5 H :    0.040182
   6 C :   -0.042346
   7 H :    0.048161
   8 H :    0.032006
   9 C :   -0.045602
  10 H :    0.016799
  11 H :    0.036334
  12 C :   -0.062796
  13 H :    0.028274
  14 H :    0.026526
  15 H :    0.023052
  16 S :    0.433602
  17 C :   -0.183405
  18 C :   -0.063115
  19 C :   -0.063208
  20 C :   -0.212268
  21 H :    0.025476
  22 C :   -0.039764
  23 H :    0.030286
  24 H :    0.029015
  25 C :   -0.037091
  26 H :    0.015547
  27 H :    0.028546
  28 C :   -0.059288
  29 H :    0.022877
  30 H :    0.015544
  31 H :    0.034211
  32 H :    0.027142
  33 H :    0.024032

  Mayer bond orders larger than 0.100000
B(  0-S ,  1-C ) :   1.1409 B(  0-S ,  4-C ) :   1.1380 B(  1-C ,  2-C ) :   1.5551
B(  1-C ,  4-C ) :   0.1078 B(  1-C , 32-H ) :   0.9705 B(  2-C ,  3-C ) :   1.2634
B(  2-C ,  6-C ) :   1.0199 B(  3-C ,  4-C ) :   1.5707 B(  3-C ,  5-H ) :   0.9809
B(  4-C , 20-C ) :   1.0250 B(  6-C ,  7-H ) :   0.9389 B(  6-C ,  8-H ) :   0.9460
B(  6-C ,  9-C ) :   1.0316 B(  9-C , 10-H ) :   0.9550 B(  9-C , 11-H ) :   0.9591
B(  9-C , 12-C ) :   1.0877 B( 12-C , 13-H ) :   0.9760 B( 12-C , 14-H ) :   0.9718
B( 12-C , 15-H ) :   0.9747 B( 16-S , 17-C ) :   1.1867 B( 16-S , 20-C ) :   1.1532
B( 17-C , 18-C ) :   1.5544 B( 17-C , 33-H ) :   0.9729 B( 18-C , 19-C ) :   1.2743
B( 18-C , 21-H ) :   0.9974 B( 19-C , 20-C ) :   1.5817 B( 19-C , 22-C ) :   1.0455
B( 22-C , 23-H ) :   0.9422 B( 22-C , 24-H ) :   0.9360 B( 22-C , 25-C ) :   1.0430
B( 25-C , 26-H ) :   0.9538 B( 25-C , 27-H ) :   0.9559 B( 25-C , 28-C ) :   1.0716
B( 28-C , 29-H ) :   0.9741 B( 28-C , 30-H ) :   0.9799 B( 28-C , 31-H ) :   0.9745

Dispersion correction           -0.014021538
FINAL SINGLE POINT ENERGY     -1339.853508927903

DIPOLE MOMENT
-------------
                                X             Y             Z
Electronic contribution:    -10.15967     -19.24904     -21.91781
Nuclear contribution   :     10.16031      19.87904      22.42754
                        -----------------------------------------
Total Dipole Moment    :      0.00064       0.63000       0.50972
                        -----------------------------------------
Magnitude (a.u.)       :      0.81038
Magnitude (Debye)      :      2.05982

Rotational constants in cm-1:     0.018374     0.008208     0.006035
Rotational constants in MHz :   550.830206   246.060665   180.929125

                             ****ORCA TERMINATED NORMALLY****
TOTAL RUN TIME: 0 days 0 hours 0 minutes 34 seconds 4 msec
