                         Program Version 4.2.1 -  RELEASE  -
|  1> ! wB97X-D3 SP def2-SVP
|  2> %pal
|  3> nprocs 16
|  4> end
|  5>
|  6> * xyz 0 1
|  7> S 	 -41.8669 	 63.5861 	 146.197
|  8> C 	 -41.4216 	 63.7959 	 144.541
|  9> C 	 -41.7692 	 65.0073 	 143.954
| 10> C 	 -42.331 	 65.8602 	 144.915
| 11> C 	 -42.4217 	 65.3041 	 146.16
| 12> H 	 -42.8903 	 66.724 	 144.712
| 13> C 	 -41.636 	 65.3148 	 142.485
| 14> H 	 -42.5051 	 66.0005 	 142.277
| 15> H 	 -41.8668 	 64.3614 	 141.984
| 16> C 	 -40.2664 	 65.9238 	 141.976
| 17> H 	 -39.3997 	 65.2705 	 142.204
| 18> H 	 -40.294 	 65.8906 	 140.87
| 19> C 	 -40.0394 	 67.3482 	 142.557
| 20> H 	 -39.8316 	 67.3219 	 143.631
| 21> H 	 -39.019 	 67.6763 	 142.115
| 22> H 	 -40.7456 	 68.0642 	 142.219
| 23> S 	 -44.657 	 65.1945 	 147.86
| 24> C 	 -44.7528 	 66.2905 	 149.188
| 25> C 	 -43.9079 	 67.3282 	 149.038
| 26> C 	 -42.9542 	 67.0589 	 148.027
| 27> C 	 -43.1976 	 65.944 	 147.258
| 28> H 	 -43.9456 	 68.1261 	 149.717
| 29> C 	 -41.8155 	 68.0656 	 147.734
| 30> H 	 -42.2028 	 69.0917 	 147.833
| 31> H 	 -41.3566 	 67.9017 	 146.841
| 32> C 	 -40.6811 	 68.0346 	 148.801
| 33> H 	 -40.2984 	 67.0871 	 148.717
| 34> H 	 -41.1978 	 68.2852 	 149.775
| 35> C 	 -39.5776 	 69.0074 	 148.565
| 36> H 	 -38.9346 	 68.588 	 147.737
| 37> H 	 -38.9397 	 69.0527 	 149.437
| 38> H 	 -39.8706 	 70.0071 	 148.277
| 39> H 	 -40.9535 	 62.9957 	 143.977
| 40> H 	 -45.5651 	 66.3046 	 149.863
| 41> *
| 42>
| 43>                          ****END OF INPUT****

CARTESIAN COORDINATES (ANGSTROEM)
---------------------------------
  S    -41.866900   63.586100  146.197000
  C    -41.421600   63.795900  144.541000
  C    -41.769200   65.007300  143.954000
  C    -42.331000   65.860200  144.915000
  C    -42.421700   65.304100  146.160000
  H    -42.890300   66.724000  144.712000
  C    -41.636000   65.314800  142.485000
  H    -42.505100   66.000500  142.277000
  H    -41.866800   64.361400  141.984000
  C    -40.266400   65.923800  141.976000
  H    -39.399700   65.270500  142.204000
  H    -40.294000   65.890600  140.870000
  C    -40.039400   67.348200  142.557000
  H    -39.831600   67.321900  143.631000
  H    -39.019000   67.676300  142.115000
  H    -40.745600   68.064200  142.219000
  S    -44.657000   65.194500  147.860000
  C    -44.752800   66.290500  149.188000
  C    -43.907900   67.328200  149.038000
  C    -42.954200   67.058900  148.027000
  C    -43.197600   65.944000  147.258000
  H    -43.945600   68.126100  149.717000
  C    -41.815500   68.065600  147.734000
  H    -42.202800   69.091700  147.833000
  H    -41.356600   67.901700  146.841000
  C    -40.681100   68.034600  148.801000
  H    -40.298400   67.087100  148.717000
  H    -41.197800   68.285200  149.775000
  C    -39.577600   69.007400  148.565000
  H    -38.934600   68.588000  147.737000
  H    -38.939700   69.052700  149.437000
  H    -39.870600   70.007100  148.277000
  H    -40.953500   62.995700  143.977000
  H    -45.565100   66.304600  149.863000

 Total Charge           Charge          ....    0
 Multiplicity           Mult            ....    1
 Number of Electrons    NEL             ....  134
 Basis Dimension        Dim             ....  322

ORBITAL ENERGIES
----------------

  NO   OCC          E(Eh)            E(eV)
   0   2.0000     -88.972099     -2421.0539
   1   2.0000     -88.958563     -2420.6856
   2   2.0000     -10.330956      -281.1196
   3   2.0000     -10.322317      -280.8845
   4   2.0000     -10.313303      -280.6393
   5   2.0000     -10.307515      -280.4817
   6   2.0000     -10.299271      -280.2574
   7   2.0000     -10.298587      -280.2388
   8   2.0000     -10.298508      -280.2367
   9   2.0000     -10.297456      -280.2080
  10   2.0000     -10.288374      -279.9609
  11   2.0000     -10.285564      -279.8844
  12   2.0000     -10.284353      -279.8515
  13   2.0000     -10.279588      -279.7218
  14   2.0000     -10.274400      -279.5806
  15   2.0000     -10.273942      -279.5682
  16   2.0000      -8.086175      -220.0360
  17   2.0000      -8.074259      -219.7118
  18   2.0000      -6.044562      -164.4809
  19   2.0000      -6.040983      -164.3835
  20   2.0000      -6.036907      -164.2726
  21   2.0000      -6.032672      -164.1574
  22   2.0000      -6.028654      -164.0480
  23   2.0000      -6.025043      -163.9497
  24   2.0000      -1.007764       -27.4227
  25   2.0000      -0.988788       -26.9063
  26   2.0000      -0.908517       -24.7220
  27   2.0000      -0.903561       -24.5871
  28   2.0000      -0.869061       -23.6484
  29   2.0000      -0.853384       -23.2217
  30   2.0000      -0.847736       -23.0681
  31   2.0000      -0.818551       -22.2739
  32   2.0000      -0.779797       -21.2193
  33   2.0000      -0.767849       -20.8942
  34   2.0000      -0.703579       -19.1454
  35   2.0000      -0.699521       -19.0349
  36   2.0000      -0.687862       -18.7177
  37   2.0000      -0.660940       -17.9851
  38   2.0000      -0.644920       -17.5492
  39   2.0000      -0.617510       -16.8033
  40   2.0000      -0.597298       -16.2533
  41   2.0000      -0.576677       -15.6922
  42   2.0000      -0.571049       -15.5390
  43   2.0000      -0.543775       -14.7969
  44   2.0000      -0.543382       -14.7862
  45   2.0000      -0.517434       -14.0801
  46   2.0000      -0.515641       -14.0313
  47   2.0000      -0.511739       -13.9251
  48   2.0000      -0.503416       -13.6986
  49   2.0000      -0.493166       -13.4197
  50   2.0000      -0.486157       -13.2290
  51   2.0000      -0.481311       -13.0971
  52   2.0000      -0.471258       -12.8236
  53   2.0000      -0.466809       -12.7025
  54   2.0000      -0.462325       -12.5805
  55   2.0000      -0.452413       -12.3108
  56   2.0000      -0.448294       -12.1987
  57   2.0000      -0.435253       -11.8438
  58   2.0000      -0.427728       -11.6391
  59   2.0000      -0.424073       -11.5396
  60   2.0000      -0.419838       -11.4244
  61   2.0000      -0.414612       -11.2822
  62   2.0000      -0.411440       -11.1959
  63   2.0000      -0.347824        -9.4648
  64   2.0000      -0.329503        -8.9662
  65   2.0000      -0.327084        -8.9004
  66   2.0000      -0.295900        -8.0518
  67   0.0000       0.033863         0.9214
  68   0.0000       0.065440         1.7807
  69   0.0000       0.107416         2.9229
  70   0.0000       0.120057         3.2669
  71   0.0000       0.131137         3.5684

MULLIKEN ATOMIC CHARGES
-----------------------
   0 S :    0.128448
   1 C :   -0.126487
   2 C :   -0.082149
   3 C :    0.051072
   4 C :   -0.158681
   5 H :    0.006779
   6 C :    0.042695
   7 H :    0.032698
   8 H :    0.029544
   9 C :   -0.065665
  10 H :    0.033303
  11 H :    0.035734
  12 C :   -0.071141
  13 H :    0.054588
  14 H :    0.034036
  15 H :    0.038513
  16 S :    0.092877
  17 C :   -0.069867
  18 C :   -0.010990
  19 C :   -0.036559
  20 C :   -0.172990
  21 H :    0.001331
  22 C :    0.108805
  23 H :    0.018397
  24 H :   -0.014854
  25 C :   -0.086281
  26 H :    0.016683
  27 H :    0.029621
  28 C :   -0.029761
  29 H :    0.028603
  30 H :    0.034848
  31 H :    0.022959
  32 H :    0.043425
  33 H :    0.040465
Sum of atomic charges:   -0.0000000

LOEWDIN ATOMIC CHARGES
----------------------
   0 S :    0.400006
   1 C :   -0.195559
   2 C :   -0.071505
   3 C :   -0.049179
   4 C :   -0.180196
   5 H :    0.028695
   6 C :   -0.037937
   7 H :    0.036161
   8 H :    0.032461
   9 C :   -0.041036
  10 H :    0.027343
  11 H :    0.026133
  12 C :   -0.069560
  13 H :    0.030308
  14 H :    0.036046
  15 H :    0.020040
  16 S :    0.405117
  17 C :   -0.175706
  18 C :   -0.067105
  19 C :   -0.052426
  20 C :   -0.205023
  21 H :    0.024902
  22 C :   -0.017690
  23 H :    0.029311
  24 H :    0.007734
  25 C :   -0.035909
  26 H :    0.014157
  27 H :    0.024577
  28 C :   -0.066075
  29 H :    0.031057
  30 H :    0.027190
  31 H :    0.019242
  32 H :    0.023768
  33 H :    0.020656

  Mayer bond orders larger than 0.100000
B(  0-S ,  1-C ) :   1.1549 B(  0-S ,  4-C ) :   1.1343 B(  1-C ,  2-C ) :   1.6081
B(  1-C , 32-H ) :   0.9618 B(  2-C ,  3-C ) :   1.2509 B(  2-C ,  6-C ) :   1.0098
B(  3-C ,  4-C ) :   1.5915 B(  3-C ,  5-H ) :   0.9912 B(  4-C , 20-C ) :   1.0224
B(  6-C ,  7-H ) :   0.9458 B(  6-C ,  8-H ) :   0.9391 B(  6-C ,  9-C ) :   1.0595
B(  9-C , 10-H ) :   0.9579 B(  9-C , 11-H ) :   0.9574 B(  9-C , 12-C ) :   1.0726
B( 12-C , 13-H ) :   0.9745 B( 12-C , 14-H ) :   0.9723 B( 12-C , 15-H ) :   0.9780
B( 16-S , 17-C ) :   1.1674 B( 16-S , 20-C ) :   1.1325 B( 17-C , 18-C ) :   1.6147
B( 17-C , 33-H ) :   0.9661 B( 18-C , 19-C ) :   1.2334 B( 18-C , 21-H ) :   0.9995
B( 19-C , 20-C ) :   1.6196 B( 19-C , 22-C ) :   1.0457 B( 22-C , 23-H ) :   0.9393
B( 22-C , 24-H ) :   0.9338 B( 22-C , 25-C ) :   1.0650 B( 25-C , 26-H ) :   0.9548
B( 25-C , 27-H ) :   0.9592 B( 25-C , 28-C ) :   1.0977 B( 28-C , 29-H ) :   0.9705
B( 28-C , 30-H ) :   0.9718 B( 28-C , 31-H ) :   0.9724

Dispersion correction           -0.014126641
FINAL SINGLE POINT ENERGY     -1339.868525957321

DIPOLE MOMENT
-------------
                                X             Y             Z
Electronic contribution:    -18.42502     -19.61784      10.16930
Nuclear contribution   :     18.60619      20.01855     -10.52006
                        -----------------------------------------
Total Dipole Moment    :      0.18117       0.40071      -0.35076
                        -----------------------------------------
Magnitude (a.u.)       :      0.56251
Magnitude (Debye)      :      1.42979

Rotational constants in cm-1:     0.016880     0.009196     0.006922
Rotational constants in MHz :   506.039939   275.693131   207.514719

                             ****ORCA TERMINATED NORMALLY****
TOTAL RUN TIME: 0 days 0 hours 0 minutes 35 seconds 75 msec
