                         Program Version 4.2.1 -  RELEASE  -
|  1> ! wB97X-D3 SP def2-SVP
|  2> %pal
|  3> nprocs 16
|  4> end
|  5>
|  6> * xyz 0 1
|  7> S 	 -15.6293 	 43.5954 	 35.8527
|  8> C 	 -14.6937 	 42.3865 	 36.7931
|  9> C 	 -13.7159 	 41.8573 	 35.9552
| 10> C 	 -13.6492 	 42.5369 	 34.7098
| 11> C 	 -14.6144 	 43.499 	 34.4647
| 12> H 	 -12.9284 	 42.2996 	 33.908
| 13> C 	 -12.7032 	 40.8085 	 36.382
| 14> H 	 -12.9197 	 40.3683 	 37.2897
| 15> H 	 -11.7704 	 41.2712 	 36.4581
| 16> C 	 -12.5379 	 39.6242 	 35.3448
| 17> H 	 -12.3931 	 40.1775 	 34.4579
| 18> H 	 -11.731 	 38.9241 	 35.7037
| 19> C 	 -13.8142 	 38.6773 	 35.2474
| 20> H 	 -13.6811 	 37.8437 	 34.5522
| 21> H 	 -13.8388 	 38.09 	 36.2114
| 22> H 	 -14.735 	 39.2728 	 35.0673
| 23> S 	 -16.7546 	 44.2342 	 32.9869
| 24> C 	 -16.5058 	 44.9232 	 31.3832
| 25> C 	 -15.2022 	 45.1551 	 31.1454
| 26> C 	 -14.3378 	 44.6932 	 32.1772
| 27> C 	 -15.0217 	 44.1326 	 33.2323
| 28> H 	 -15.0167 	 45.4656 	 30.1827
| 29> C 	 -12.8458 	 44.6715 	 31.9228
| 30> H 	 -12.7447 	 44.8634 	 30.8034
| 31> H 	 -12.4638 	 43.6558 	 32.0962
| 32> C 	 -12.0336 	 45.7647 	 32.6653
| 33> H 	 -12.2654 	 45.6805 	 33.8154
| 34> H 	 -12.431 	 46.7599 	 32.4797
| 35> C 	 -10.5925 	 45.9171 	 32.3077
| 36> H 	 -10.6163 	 45.9831 	 31.1519
| 37> H 	 -9.99062 	 45.0401 	 32.5437
| 38> H 	 -10.0294 	 46.805 	 32.7202
| 39> H 	 -14.9781 	 41.9443 	 37.769
| 40> H 	 -17.3548 	 45.2436 	 30.7492
| 41> *
| 42>
| 43>                          ****END OF INPUT****

CARTESIAN COORDINATES (ANGSTROEM)
---------------------------------
  S    -15.629300   43.595400   35.852700
  C    -14.693700   42.386500   36.793100
  C    -13.715900   41.857300   35.955200
  C    -13.649200   42.536900   34.709800
  C    -14.614400   43.499000   34.464700
  H    -12.928400   42.299600   33.908000
  C    -12.703200   40.808500   36.382000
  H    -12.919700   40.368300   37.289700
  H    -11.770400   41.271200   36.458100
  C    -12.537900   39.624200   35.344800
  H    -12.393100   40.177500   34.457900
  H    -11.731000   38.924100   35.703700
  C    -13.814200   38.677300   35.247400
  H    -13.681100   37.843700   34.552200
  H    -13.838800   38.090000   36.211400
  H    -14.735000   39.272800   35.067300
  S    -16.754600   44.234200   32.986900
  C    -16.505800   44.923200   31.383200
  C    -15.202200   45.155100   31.145400
  C    -14.337800   44.693200   32.177200
  C    -15.021700   44.132600   33.232300
  H    -15.016700   45.465600   30.182700
  C    -12.845800   44.671500   31.922800
  H    -12.744700   44.863400   30.803400
  H    -12.463800   43.655800   32.096200
  C    -12.033600   45.764700   32.665300
  H    -12.265400   45.680500   33.815400
  H    -12.431000   46.759900   32.479700
  C    -10.592500   45.917100   32.307700
  H    -10.616300   45.983100   31.151900
  H     -9.990620   45.040100   32.543700
  H    -10.029400   46.805000   32.720200
  H    -14.978100   41.944300   37.769000
  H    -17.354800   45.243600   30.749200

 Total Charge           Charge          ....    0
 Multiplicity           Mult            ....    1
 Number of Electrons    NEL             ....  134
 Basis Dimension        Dim             ....  322

ORBITAL ENERGIES
----------------

  NO   OCC          E(Eh)            E(eV)
   0   2.0000     -88.965766     -2420.8816
   1   2.0000     -88.964767     -2420.8544
   2   2.0000     -10.331609      -281.1374
   3   2.0000     -10.329893      -281.0907
   4   2.0000     -10.321461      -280.8612
   5   2.0000     -10.317463      -280.7524
   6   2.0000     -10.305303      -280.4216
   7   2.0000     -10.305221      -280.4193
   8   2.0000     -10.302774      -280.3527
   9   2.0000     -10.296233      -280.1747
  10   2.0000     -10.292981      -280.0862
  11   2.0000     -10.291858      -280.0557
  12   2.0000     -10.287464      -279.9361
  13   2.0000     -10.286940      -279.9219
  14   2.0000     -10.284555      -279.8570
  15   2.0000     -10.284412      -279.8531
  16   2.0000      -8.080316      -219.8766
  17   2.0000      -8.079684      -219.8594
  18   2.0000      -6.038911      -164.3271
  19   2.0000      -6.038242      -164.3089
  20   2.0000      -6.034704      -164.2126
  21   2.0000      -6.034202      -164.1990
  22   2.0000      -6.031104      -164.1147
  23   2.0000      -6.030325      -164.0935
  24   2.0000      -1.013073       -27.5671
  25   2.0000      -0.986924       -26.8556
  26   2.0000      -0.911077       -24.7917
  27   2.0000      -0.907281       -24.6884
  28   2.0000      -0.872343       -23.7377
  29   2.0000      -0.854687       -23.2572
  30   2.0000      -0.837313       -22.7844
  31   2.0000      -0.818813       -22.2810
  32   2.0000      -0.783902       -21.3311
  33   2.0000      -0.772765       -21.0280
  34   2.0000      -0.711831       -19.3699
  35   2.0000      -0.692860       -18.8537
  36   2.0000      -0.687358       -18.7040
  37   2.0000      -0.667148       -18.1540
  38   2.0000      -0.641279       -17.4501
  39   2.0000      -0.624190       -16.9851
  40   2.0000      -0.597574       -16.2608
  41   2.0000      -0.575026       -15.6472
  42   2.0000      -0.556872       -15.1533
  43   2.0000      -0.549762       -14.9598
  44   2.0000      -0.545716       -14.8497
  45   2.0000      -0.527817       -14.3626
  46   2.0000      -0.516968       -14.0674
  47   2.0000      -0.512928       -13.9575
  48   2.0000      -0.506771       -13.7899
  49   2.0000      -0.497746       -13.5444
  50   2.0000      -0.493729       -13.4350
  51   2.0000      -0.480396       -13.0722
  52   2.0000      -0.469526       -12.7764
  53   2.0000      -0.467556       -12.7229
  54   2.0000      -0.455801       -12.4030
  55   2.0000      -0.454811       -12.3760
  56   2.0000      -0.449651       -12.2356
  57   2.0000      -0.432747       -11.7756
  58   2.0000      -0.429761       -11.6944
  59   2.0000      -0.424982       -11.5644
  60   2.0000      -0.417544       -11.3620
  61   2.0000      -0.405386       -11.0311
  62   2.0000      -0.402407       -10.9501
  63   2.0000      -0.357030        -9.7153
  64   2.0000      -0.335227        -9.1220
  65   2.0000      -0.330324        -8.9886
  66   2.0000      -0.290620        -7.9082
  67   0.0000       0.021951         0.5973
  68   0.0000       0.072223         1.9653
  69   0.0000       0.106519         2.8985
  70   0.0000       0.120149         3.2694
  71   0.0000       0.131923         3.5898

MULLIKEN ATOMIC CHARGES
-----------------------
   0 S :    0.084804
   1 C :   -0.129610
   2 C :   -0.102471
   3 C :   -0.007981
   4 C :   -0.109857
   5 H :    0.018625
   6 C :    0.137480
   7 H :   -0.012457
   8 H :    0.030045
   9 C :   -0.105624
  10 H :    0.024431
  11 H :    0.045279
  12 C :   -0.087193
  13 H :    0.038590
  14 H :    0.026818
  15 H :    0.061425
  16 S :    0.091590
  17 C :   -0.110560
  18 C :   -0.001011
  19 C :   -0.019352
  20 C :   -0.132585
  21 H :   -0.008223
  22 C :    0.036771
  23 H :    0.025198
  24 H :    0.038081
  25 C :   -0.091221
  26 H :    0.046641
  27 H :    0.023768
  28 C :   -0.061099
  29 H :    0.029829
  30 H :    0.029200
  31 H :    0.054520
  32 H :    0.066295
  33 H :    0.069854
Sum of atomic charges:   -0.0000000

LOEWDIN ATOMIC CHARGES
----------------------
   0 S :    0.399807
   1 C :   -0.193919
   2 C :   -0.060424
   3 C :   -0.076997
   4 C :   -0.196008
   5 H :    0.030017
   6 C :   -0.016005
   7 H :    0.014539
   8 H :    0.028681
   9 C :   -0.033946
  10 H :    0.011362
  11 H :    0.032399
  12 C :   -0.076245
  13 H :    0.025566
  14 H :    0.027973
  15 H :    0.031344
  16 S :    0.393477
  17 C :   -0.174804
  18 C :   -0.066045
  19 C :   -0.057173
  20 C :   -0.188598
  21 H :    0.022320
  22 C :   -0.031124
  23 H :    0.035791
  24 H :    0.029119
  25 C :   -0.058556
  26 H :    0.033666
  27 H :    0.025303
  28 C :   -0.076579
  29 H :    0.033097
  30 H :    0.019483
  31 H :    0.036308
  32 H :    0.039202
  33 H :    0.036969

  Mayer bond orders larger than 0.100000
B(  0-S ,  1-C ) :   1.1279 B(  0-S ,  4-C ) :   1.1537 B(  1-C ,  2-C ) :   1.5968
B(  1-C ,  4-C ) :   0.1011 B(  1-C , 32-H ) :   0.9641 B(  2-C ,  3-C ) :   1.2558
B(  2-C ,  6-C ) :   1.0281 B(  3-C ,  4-C ) :   1.5578 B(  3-C ,  5-H ) :   0.9818
B(  4-C , 20-C ) :   1.0639 B(  6-C ,  7-H ) :   0.9386 B(  6-C ,  8-H ) :   0.9409
B(  6-C ,  9-C ) :   1.0559 B(  9-C , 10-H ) :   0.9629 B(  9-C , 11-H ) :   0.9599
B(  9-C , 12-C ) :   1.0670 B( 12-C , 13-H ) :   0.9770 B( 12-C , 14-H ) :   0.9751
B( 12-C , 15-H ) :   0.9766 B( 16-S , 17-C ) :   1.1408 B( 16-S , 20-C ) :   1.1328
B( 17-C , 18-C ) :   1.6454 B( 17-C , 33-H ) :   0.9604 B( 18-C , 19-C ) :   1.2183
B( 18-C , 21-H ) :   1.0001 B( 19-C , 20-C ) :   1.6095 B( 19-C , 22-C ) :   1.0334
B( 22-C , 23-H ) :   0.9338 B( 22-C , 24-H ) :   0.9393 B( 22-C , 25-C ) :   1.0536
B( 25-C , 26-H ) :   0.9516 B( 25-C , 27-H ) :   0.9526 B( 25-C , 28-C ) :   1.0779
B( 28-C , 29-H ) :   0.9678 B( 28-C , 30-H ) :   0.9741 B( 28-C , 31-H ) :   0.9734

Dispersion correction           -0.013960173
FINAL SINGLE POINT ENERGY     -1339.863917161412

DIPOLE MOMENT
-------------
                                X             Y             Z
Electronic contribution:    -23.58974       9.64885       3.22125
Nuclear contribution   :     24.06575      -9.88460      -3.51850
                        -----------------------------------------
Total Dipole Moment    :      0.47601      -0.23575      -0.29725
                        -----------------------------------------
Magnitude (a.u.)       :      0.60870
Magnitude (Debye)      :      1.54719

Rotational constants in cm-1:     0.016719     0.009074     0.007203
Rotational constants in MHz :   501.208959   272.021066   215.932059

                             ****ORCA TERMINATED NORMALLY****
TOTAL RUN TIME: 0 days 0 hours 0 minutes 34 seconds 364 msec
