                         Program Version 4.2.1 -  RELEASE  -
|  1> ! wB97X-D3 SP def2-SVP
|  2> %pal
|  3> nprocs 16
|  4> end
|  5>
|  6> * xyz 0 1
|  7> S 	 40.9891 	 6.87699 	 83.2743
|  8> C 	 42.0723 	 7.82161 	 82.3311
|  9> C 	 42.7505 	 8.65975 	 83.1561
| 10> C 	 42.3422 	 8.64911 	 84.5213
| 11> C 	 41.3245 	 7.78314 	 84.7638
| 12> H 	 42.7408 	 9.22846 	 85.3361
| 13> C 	 43.8155 	 9.62685 	 82.7018
| 14> H 	 43.6633 	 10.5652 	 83.2371
| 15> H 	 43.7928 	 9.63759 	 81.5679
| 16> C 	 45.2495 	 9.26182 	 83.0153
| 17> H 	 45.3538 	 8.25897 	 82.5726
| 18> H 	 45.9987 	 9.89131 	 82.4956
| 19> C 	 45.4652 	 9.0917 	 84.5071
| 20> H 	 46.515 	 9.07437 	 84.767
| 21> H 	 44.9489 	 9.87081 	 85.0929
| 22> H 	 45.0656 	 8.1593 	 84.7785
| 23> S 	 38.7483 	 7.30055 	 85.6879
| 24> C 	 38.3511 	 7.43716 	 87.3827
| 25> C 	 39.413 	 7.96145 	 88.0103
| 26> C 	 40.6106 	 8.16948 	 87.2753
| 27> C 	 40.4652 	 7.75255 	 85.9671
| 28> H 	 39.2765 	 7.98582 	 89.109
| 29> C 	 41.7983 	 8.70063 	 87.9707
| 30> H 	 42.5989 	 8.30135 	 87.3454
| 31> H 	 41.913 	 8.29899 	 88.985
| 32> C 	 41.9264 	 10.246 	 88.1533
| 33> H 	 41.0432 	 10.6452 	 88.6017
| 34> H 	 42.0135 	 10.8102 	 87.2544
| 35> C 	 43.2488 	 10.6792 	 88.774
| 36> H 	 43.0995 	 11.7662 	 88.8937
| 37> H 	 44.0821 	 10.4331 	 88.1294
| 38> H 	 43.4696 	 10.1971 	 89.6825
| 39> H 	 42.087 	 7.62484 	 81.2963
| 40> H 	 37.5084 	 7.01795 	 87.999
| 41> *
| 42>
| 43>                          ****END OF INPUT****

CARTESIAN COORDINATES (ANGSTROEM)
---------------------------------
  S     40.989100    6.876990   83.274300
  C     42.072300    7.821610   82.331100
  C     42.750500    8.659750   83.156100
  C     42.342200    8.649110   84.521300
  C     41.324500    7.783140   84.763800
  H     42.740800    9.228460   85.336100
  C     43.815500    9.626850   82.701800
  H     43.663300   10.565200   83.237100
  H     43.792800    9.637590   81.567900
  C     45.249500    9.261820   83.015300
  H     45.353800    8.258970   82.572600
  H     45.998700    9.891310   82.495600
  C     45.465200    9.091700   84.507100
  H     46.515000    9.074370   84.767000
  H     44.948900    9.870810   85.092900
  H     45.065600    8.159300   84.778500
  S     38.748300    7.300550   85.687900
  C     38.351100    7.437160   87.382700
  C     39.413000    7.961450   88.010300
  C     40.610600    8.169480   87.275300
  C     40.465200    7.752550   85.967100
  H     39.276500    7.985820   89.109000
  C     41.798300    8.700630   87.970700
  H     42.598900    8.301350   87.345400
  H     41.913000    8.298990   88.985000
  C     41.926400   10.246000   88.153300
  H     41.043200   10.645200   88.601700
  H     42.013500   10.810200   87.254400
  C     43.248800   10.679200   88.774000
  H     43.099500   11.766200   88.893700
  H     44.082100   10.433100   88.129400
  H     43.469600   10.197100   89.682500
  H     42.087000    7.624840   81.296300
  H     37.508400    7.017950   87.999000

 Total Charge           Charge          ....    0
 Multiplicity           Mult            ....    1
 Number of Electrons    NEL             ....  134
 Basis Dimension        Dim             ....  322

ORBITAL ENERGIES
----------------

  NO   OCC          E(Eh)            E(eV)
   0   2.0000     -88.962973     -2420.8056
   1   2.0000     -88.961111     -2420.7549
   2   2.0000     -10.335527      -281.2440
   3   2.0000     -10.333637      -281.1926
   4   2.0000     -10.314003      -280.6583
   5   2.0000     -10.313982      -280.6577
   6   2.0000     -10.302082      -280.3339
   7   2.0000     -10.301340      -280.3137
   8   2.0000     -10.293805      -280.1087
   9   2.0000     -10.293109      -280.0897
  10   2.0000     -10.292137      -280.0633
  11   2.0000     -10.286453      -279.9086
  12   2.0000     -10.284256      -279.8488
  13   2.0000     -10.284214      -279.8477
  14   2.0000     -10.277748      -279.6717
  15   2.0000     -10.272762      -279.5361
  16   2.0000      -8.078359      -219.8233
  17   2.0000      -8.075384      -219.7424
  18   2.0000      -6.036944      -164.2736
  19   2.0000      -6.034187      -164.1986
  20   2.0000      -6.032680      -164.1576
  21   2.0000      -6.029956      -164.0834
  22   2.0000      -6.029073      -164.0594
  23   2.0000      -6.025819      -163.9709
  24   2.0000      -1.011740       -27.5308
  25   2.0000      -0.991120       -26.9697
  26   2.0000      -0.918876       -25.0039
  27   2.0000      -0.913714       -24.8634
  28   2.0000      -0.877025       -23.8651
  29   2.0000      -0.858212       -23.3531
  30   2.0000      -0.847000       -23.0480
  31   2.0000      -0.822431       -22.3795
  32   2.0000      -0.783149       -21.3106
  33   2.0000      -0.774857       -21.0849
  34   2.0000      -0.710767       -19.3409
  35   2.0000      -0.701951       -19.1011
  36   2.0000      -0.697210       -18.9720
  37   2.0000      -0.666452       -18.1351
  38   2.0000      -0.645626       -17.5684
  39   2.0000      -0.617804       -16.8113
  40   2.0000      -0.593865       -16.1599
  41   2.0000      -0.579506       -15.7692
  42   2.0000      -0.570980       -15.5372
  43   2.0000      -0.549796       -14.9607
  44   2.0000      -0.545687       -14.8489
  45   2.0000      -0.534396       -14.5416
  46   2.0000      -0.527879       -14.3643
  47   2.0000      -0.521871       -14.2008
  48   2.0000      -0.509694       -13.8695
  49   2.0000      -0.503887       -13.7114
  50   2.0000      -0.493625       -13.4322
  51   2.0000      -0.485944       -13.2232
  52   2.0000      -0.476350       -12.9621
  53   2.0000      -0.469615       -12.7789
  54   2.0000      -0.462327       -12.5806
  55   2.0000      -0.442270       -12.0348
  56   2.0000      -0.439224       -11.9519
  57   2.0000      -0.435891       -11.8612
  58   2.0000      -0.428485       -11.6597
  59   2.0000      -0.426864       -11.6155
  60   2.0000      -0.420955       -11.4548
  61   2.0000      -0.411896       -11.2083
  62   2.0000      -0.408024       -11.1029
  63   2.0000      -0.364248        -9.9117
  64   2.0000      -0.329803        -8.9744
  65   2.0000      -0.326991        -8.8979
  66   2.0000      -0.291211        -7.9242
  67   0.0000       0.019714         0.5364
  68   0.0000       0.086913         2.3650
  69   0.0000       0.106062         2.8861
  70   0.0000       0.116027         3.1573
  71   0.0000       0.123329         3.3559

MULLIKEN ATOMIC CHARGES
-----------------------
   0 S :    0.093444
   1 C :   -0.125122
   2 C :   -0.056318
   3 C :    0.018742
   4 C :   -0.116919
   5 H :   -0.010375
   6 C :    0.051337
   7 H :    0.029194
   8 H :    0.029070
   9 C :   -0.073258
  10 H :    0.015587
  11 H :    0.040754
  12 C :   -0.038973
  13 H :    0.031796
  14 H :    0.024065
  15 H :    0.033106
  16 S :    0.080650
  17 C :   -0.101261
  18 C :   -0.058593
  19 C :   -0.021066
  20 C :   -0.119182
  21 H :    0.023338
  22 C :    0.041868
  23 H :    0.017792
  24 H :    0.026902
  25 C :   -0.054351
  26 H :    0.021715
  27 H :    0.014655
  28 C :   -0.025570
  29 H :    0.044549
  30 H :    0.028151
  31 H :    0.014880
  32 H :    0.043228
  33 H :    0.076163
Sum of atomic charges:   -0.0000000

LOEWDIN ATOMIC CHARGES
----------------------
   0 S :    0.399827
   1 C :   -0.186156
   2 C :   -0.067376
   3 C :   -0.061426
   4 C :   -0.180063
   5 H :    0.028870
   6 C :   -0.032814
   7 H :    0.027637
   8 H :    0.037385
   9 C :   -0.045710
  10 H :    0.024478
  11 H :    0.025683
  12 C :   -0.062551
  13 H :    0.026661
  14 H :    0.019066
  15 H :    0.021763
  16 S :    0.378644
  17 C :   -0.199004
  18 C :   -0.082916
  19 C :   -0.065678
  20 C :   -0.166680
  21 H :    0.034657
  22 C :   -0.034852
  23 H :    0.029187
  24 H :    0.034615
  25 C :   -0.036816
  26 H :    0.020884
  27 H :    0.020687
  28 C :   -0.055155
  29 H :    0.035957
  30 H :    0.024336
  31 H :    0.012438
  32 H :    0.023754
  33 H :    0.050664

  Mayer bond orders larger than 0.100000
B(  0-S ,  1-C ) :   1.1362 B(  0-S ,  4-C ) :   1.1450 B(  1-C ,  2-C ) :   1.5916
B(  1-C , 32-H ) :   0.9870 B(  2-C ,  3-C ) :   1.2310 B(  2-C ,  6-C ) :   1.0275
B(  3-C ,  4-C ) :   1.5747 B(  3-C ,  5-H ) :   0.9910 B(  4-C , 20-C ) :   1.0522
B(  6-C ,  7-H ) :   0.9418 B(  6-C ,  8-H ) :   0.9405 B(  6-C ,  9-C ) :   1.0752
B(  9-C , 10-H ) :   0.9476 B(  9-C , 11-H ) :   0.9606 B(  9-C , 12-C ) :   1.0848
B( 12-C , 13-H ) :   0.9687 B( 12-C , 14-H ) :   0.9727 B( 12-C , 15-H ) :   0.9664
B( 16-S , 17-C ) :   1.1243 B( 16-S , 20-C ) :   1.1251 B( 17-C , 18-C ) :   1.6681
B( 17-C , 33-H ) :   0.9542 B( 18-C , 19-C ) :   1.2154 B( 18-C , 21-H ) :   0.9782
B( 19-C , 20-C ) :   1.6057 B( 19-C , 22-C ) :   1.0555 B( 22-C , 23-H ) :   0.9292
B( 22-C , 24-H ) :   0.9320 B( 22-C , 25-C ) :   1.0627 B( 25-C , 26-H ) :   0.9543
B( 25-C , 27-H ) :   0.9537 B( 25-C , 28-C ) :   1.0733 B( 28-C , 29-H ) :   0.9745
B( 28-C , 30-H ) :   0.9751 B( 28-C , 31-H ) :   0.9745

Dispersion correction           -0.014717078
FINAL SINGLE POINT ENERGY     -1339.863918238109

DIPOLE MOMENT
-------------
                                X             Y             Z
Electronic contribution:    -24.79625     -16.38031      -9.98700
Nuclear contribution   :     25.32180      16.72363      10.30358
                        -----------------------------------------
Total Dipole Moment    :      0.52555       0.34331       0.31658
                        -----------------------------------------
Magnitude (a.u.)       :      0.70306
Magnitude (Debye)      :      1.78703

Rotational constants in cm-1:     0.016710     0.010758     0.006844
Rotational constants in MHz :   500.942902   322.529375   205.187972

                             ****ORCA TERMINATED NORMALLY****
TOTAL RUN TIME: 0 days 0 hours 0 minutes 32 seconds 44 msec
