                         Program Version 4.2.1 -  RELEASE  -
|  1> ! wB97X-D3 SP def2-SVP
|  2> %pal
|  3> nprocs 16
|  4> end
|  5>
|  6> * xyz 0 1
|  7> S 	 -3.17646 	 -13.8429 	 69.3805
|  8> C 	 -3.91065 	 -14.8391 	 68.1318
|  9> C 	 -4.60005 	 -14.0762 	 67.2042
| 10> C 	 -4.62184 	 -12.6969 	 67.5259
| 11> C 	 -3.80041 	 -12.4036 	 68.5871
| 12> H 	 -5.17379 	 -11.8644 	 67.1042
| 13> C 	 -5.35981 	 -14.7266 	 66.0896
| 14> H 	 -4.87154 	 -15.585 	 65.771
| 15> H 	 -5.24187 	 -14.1096 	 65.2238
| 16> C 	 -6.78893 	 -15.0492 	 66.458
| 17> H 	 -7.0291 	 -15.8961 	 65.763
| 18> H 	 -6.94685 	 -15.4485 	 67.4896
| 19> C 	 -7.70635 	 -13.855 	 66.2853
| 20> H 	 -8.70398 	 -14.086 	 66.6513
| 21> H 	 -7.38228 	 -12.9152 	 66.7106
| 22> H 	 -7.76662 	 -13.7238 	 65.1862
| 23> S 	 -3.62816 	 -11.0165 	 71.0205
| 24> C 	 -3.58615 	 -9.32021 	 71.0162
| 25> C 	 -3.47029 	 -8.85916 	 69.7768
| 26> C 	 -3.48995 	 -9.83057 	 68.7361
| 27> C 	 -3.68971 	 -11.1065 	 69.2176
| 28> H 	 -3.46454 	 -7.7808 	 69.5121
| 29> C 	 -3.43195 	 -9.41391 	 67.2921
| 30> H 	 -3.09379 	 -10.2398 	 66.6855
| 31> H 	 -2.56238 	 -8.82236 	 67.0342
| 32> C 	 -4.81674 	 -8.9549 	 66.627
| 33> H 	 -5.04955 	 -7.93413 	 67.0416
| 34> H 	 -5.64193 	 -9.65496 	 66.962
| 35> C 	 -4.78964 	 -8.75135 	 65.1135
| 36> H 	 -3.9614 	 -8.14991 	 64.7252
| 37> H 	 -5.73173 	 -8.20196 	 64.9015
| 38> H 	 -4.84826 	 -9.7043 	 64.6012
| 39> H 	 -4.0013 	 -15.9228 	 68.1276
| 40> H 	 -3.50175 	 -8.67673 	 71.8701
| 41> *
| 42>
| 43>                          ****END OF INPUT****

CARTESIAN COORDINATES (ANGSTROEM)
---------------------------------
  S     -3.176460  -13.842900   69.380500
  C     -3.910650  -14.839100   68.131800
  C     -4.600050  -14.076200   67.204200
  C     -4.621840  -12.696900   67.525900
  C     -3.800410  -12.403600   68.587100
  H     -5.173790  -11.864400   67.104200
  C     -5.359810  -14.726600   66.089600
  H     -4.871540  -15.585000   65.771000
  H     -5.241870  -14.109600   65.223800
  C     -6.788930  -15.049200   66.458000
  H     -7.029100  -15.896100   65.763000
  H     -6.946850  -15.448500   67.489600
  C     -7.706350  -13.855000   66.285300
  H     -8.703980  -14.086000   66.651300
  H     -7.382280  -12.915200   66.710600
  H     -7.766620  -13.723800   65.186200
  S     -3.628160  -11.016500   71.020500
  C     -3.586150   -9.320210   71.016200
  C     -3.470290   -8.859160   69.776800
  C     -3.489950   -9.830570   68.736100
  C     -3.689710  -11.106500   69.217600
  H     -3.464540   -7.780800   69.512100
  C     -3.431950   -9.413910   67.292100
  H     -3.093790  -10.239800   66.685500
  H     -2.562380   -8.822360   67.034200
  C     -4.816740   -8.954900   66.627000
  H     -5.049550   -7.934130   67.041600
  H     -5.641930   -9.654960   66.962000
  C     -4.789640   -8.751350   65.113500
  H     -3.961400   -8.149910   64.725200
  H     -5.731730   -8.201960   64.901500
  H     -4.848260   -9.704300   64.601200
  H     -4.001300  -15.922800   68.127600
  H     -3.501750   -8.676730   71.870100

 Total Charge           Charge          ....    0
 Multiplicity           Mult            ....    1
 Number of Electrons    NEL             ....  134
 Basis Dimension        Dim             ....  322

ORBITAL ENERGIES
----------------

  NO   OCC          E(Eh)            E(eV)
   0   2.0000     -88.967631     -2420.9323
   1   2.0000     -88.959848     -2420.7205
   2   2.0000     -10.327919      -281.0370
   3   2.0000     -10.327408      -281.0231
   4   2.0000     -10.311825      -280.5990
   5   2.0000     -10.307293      -280.4757
   6   2.0000     -10.302103      -280.3345
   7   2.0000     -10.299851      -280.2732
   8   2.0000     -10.298032      -280.2237
   9   2.0000     -10.293415      -280.0981
  10   2.0000     -10.290387      -280.0157
  11   2.0000     -10.289567      -279.9933
  12   2.0000     -10.285025      -279.8698
  13   2.0000     -10.283661      -279.8326
  14   2.0000     -10.280408      -279.7441
  15   2.0000     -10.277104      -279.6542
  16   2.0000      -8.081965      -219.9215
  17   2.0000      -8.075191      -219.7371
  18   2.0000      -6.040498      -164.3703
  19   2.0000      -6.036627      -164.2650
  20   2.0000      -6.033781      -164.1875
  21   2.0000      -6.032627      -164.1561
  22   2.0000      -6.029681      -164.0760
  23   2.0000      -6.025756      -163.9692
  24   2.0000      -1.009544       -27.4711
  25   2.0000      -0.988185       -26.8899
  26   2.0000      -0.919878       -25.0311
  27   2.0000      -0.903404       -24.5829
  28   2.0000      -0.871690       -23.7199
  29   2.0000      -0.854380       -23.2489
  30   2.0000      -0.845458       -23.0061
  31   2.0000      -0.819137       -22.2899
  32   2.0000      -0.786185       -21.3932
  33   2.0000      -0.773679       -21.0529
  34   2.0000      -0.705279       -19.1916
  35   2.0000      -0.700564       -19.0633
  36   2.0000      -0.695930       -18.9372
  37   2.0000      -0.659611       -17.9489
  38   2.0000      -0.641736       -17.4625
  39   2.0000      -0.618994       -16.8437
  40   2.0000      -0.603987       -16.4353
  41   2.0000      -0.572430       -15.5766
  42   2.0000      -0.559226       -15.2173
  43   2.0000      -0.550296       -14.9743
  44   2.0000      -0.535436       -14.5700
  45   2.0000      -0.525718       -14.3055
  46   2.0000      -0.522300       -14.2125
  47   2.0000      -0.513730       -13.9793
  48   2.0000      -0.507452       -13.8085
  49   2.0000      -0.499478       -13.5915
  50   2.0000      -0.494968       -13.4688
  51   2.0000      -0.484487       -13.1836
  52   2.0000      -0.472215       -12.8496
  53   2.0000      -0.469554       -12.7772
  54   2.0000      -0.455345       -12.3906
  55   2.0000      -0.451074       -12.2744
  56   2.0000      -0.443622       -12.0716
  57   2.0000      -0.437397       -11.9022
  58   2.0000      -0.434278       -11.8173
  59   2.0000      -0.432205       -11.7609
  60   2.0000      -0.416895       -11.3443
  61   2.0000      -0.407973       -11.1015
  62   2.0000      -0.406131       -11.0514
  63   2.0000      -0.354693        -9.6517
  64   2.0000      -0.332494        -9.0476
  65   2.0000      -0.328697        -8.9443
  66   2.0000      -0.287455        -7.8221
  67   0.0000       0.025003         0.6804
  68   0.0000       0.078889         2.1467
  69   0.0000       0.106769         2.9053
  70   0.0000       0.124378         3.3845
  71   0.0000       0.127743         3.4761

MULLIKEN ATOMIC CHARGES
-----------------------
   0 S :    0.109390
   1 C :   -0.113456
   2 C :   -0.093248
   3 C :    0.008534
   4 C :   -0.124146
   5 H :    0.000115
   6 C :    0.118505
   7 H :   -0.005104
   8 H :    0.011130
   9 C :   -0.080881
  10 H :    0.033158
  11 H :    0.037308
  12 C :   -0.038555
  13 H :    0.033379
  14 H :    0.032919
  15 H :    0.024343
  16 S :    0.086383
  17 C :   -0.056382
  18 C :   -0.037309
  19 C :   -0.038042
  20 C :   -0.153226
  21 H :    0.023287
  22 C :    0.058275
  23 H :    0.003449
  24 H :    0.019841
  25 C :   -0.111957
  26 H :    0.032698
  27 H :    0.048846
  28 C :   -0.043676
  29 H :    0.042563
  30 H :    0.039353
  31 H :    0.034091
  32 H :    0.047229
  33 H :    0.051182
Sum of atomic charges:   -0.0000000

LOEWDIN ATOMIC CHARGES
----------------------
   0 S :    0.398656
   1 C :   -0.196812
   2 C :   -0.056784
   3 C :   -0.063137
   4 C :   -0.183649
   5 H :    0.031474
   6 C :   -0.030288
   7 H :    0.021852
   8 H :    0.029350
   9 C :   -0.041354
  10 H :    0.029168
  11 H :    0.028132
  12 C :   -0.064280
  13 H :    0.025636
  14 H :    0.022168
  15 H :    0.027465
  16 S :    0.391253
  17 C :   -0.193725
  18 C :   -0.080115
  19 C :   -0.060007
  20 C :   -0.174459
  21 H :    0.035203
  22 C :   -0.048159
  23 H :    0.027403
  24 H :    0.032964
  25 C :   -0.041640
  26 H :    0.025155
  27 H :    0.029008
  28 C :   -0.069424
  29 H :    0.028684
  30 H :    0.034445
  31 H :    0.022654
  32 H :    0.030153
  33 H :    0.033010

  Mayer bond orders larger than 0.100000
B(  0-S ,  1-C ) :   1.1280 B(  0-S ,  4-C ) :   1.1421 B(  1-C ,  2-C ) :   1.6185
B(  1-C , 32-H ) :   0.9639 B(  2-C ,  3-C ) :   1.2278 B(  2-C ,  6-C ) :   1.0369
B(  3-C ,  4-C ) :   1.5700 B(  3-C ,  5-H ) :   0.9918 B(  4-C , 20-C ) :   1.0724
B(  6-C ,  7-H ) :   0.9293 B(  6-C ,  8-H ) :   0.9315 B(  6-C ,  9-C ) :   1.0563
B(  9-C , 10-H ) :   0.9573 B(  9-C , 11-H ) :   0.9577 B(  9-C , 12-C ) :   1.0780
B( 12-C , 13-H ) :   0.9726 B( 12-C , 14-H ) :   0.9749 B( 12-C , 15-H ) :   0.9752
B( 16-S , 17-C ) :   1.1471 B( 16-S , 20-C ) :   1.1161 B( 17-C , 18-C ) :   1.6208
B( 17-C , 33-H ) :   0.9657 B( 18-C , 19-C ) :   1.2457 B( 18-C , 21-H ) :   0.9849
B( 19-C , 20-C ) :   1.5993 B( 19-C , 22-C ) :   1.0666 B( 22-C , 23-H ) :   0.9226
B( 22-C , 24-H ) :   0.9280 B( 22-C , 25-C ) :   1.0358 B( 25-C , 26-H ) :   0.9589
B( 25-C , 27-H ) :   0.9519 B( 25-C , 28-C ) :   1.0792 B( 28-C , 29-H ) :   0.9740
B( 28-C , 30-H ) :   0.9731 B( 28-C , 31-H ) :   0.9747

Dispersion correction           -0.014633277
FINAL SINGLE POINT ENERGY     -1339.877051797914

DIPOLE MOMENT
-------------
                                X             Y             Z
Electronic contribution:     15.74527      -4.68740      25.50388
Nuclear contribution   :    -16.09834       4.89340     -26.13636
                        -----------------------------------------
Total Dipole Moment    :     -0.35307       0.20600      -0.63248
                        -----------------------------------------
Magnitude (a.u.)       :      0.75308
Magnitude (Debye)      :      1.91418

Rotational constants in cm-1:     0.016520     0.010077     0.007106
Rotational constants in MHz :   495.271281   302.108157   213.041124

                             ****ORCA TERMINATED NORMALLY****
TOTAL RUN TIME: 0 days 0 hours 0 minutes 33 seconds 522 msec
