                         Program Version 4.2.1 -  RELEASE  -
|  1> ! wB97X-D3 SP def2-SVP
|  2> %pal
|  3> nprocs 16
|  4> end
|  5>
|  6> * xyz 0 1
|  7> S 	 -73.7693 	 41.7865 	 139.193
|  8> C 	 -74.7555 	 41.4483 	 137.802
|  9> C 	 -73.9714 	 41.668 	 136.686
| 10> C 	 -72.6125 	 41.9002 	 136.933
| 11> C 	 -72.3185 	 41.7449 	 138.28
| 12> H 	 -71.8105 	 42.0648 	 136.225
| 13> C 	 -74.6606 	 41.674 	 135.389
| 14> H 	 -74.1942 	 42.4222 	 134.824
| 15> H 	 -75.7639 	 41.8634 	 135.543
| 16> C 	 -74.4072 	 40.3557 	 134.597
| 17> H 	 -73.4203 	 40.3447 	 134.341
| 18> H 	 -74.6832 	 39.5343 	 135.228
| 19> C 	 -75.0198 	 40.3392 	 133.19
| 20> H 	 -74.6951 	 39.3917 	 132.735
| 21> H 	 -76.0923 	 40.4833 	 133.199
| 22> H 	 -74.6461 	 41.0888 	 132.445
| 23> S 	 -70.5386 	 40.3807 	 139.89
| 24> C 	 -69.0033 	 41.107 	 140.281
| 25> C 	 -68.9397 	 42.3664 	 139.852
| 26> C 	 -70.0561 	 42.7876 	 139.016
| 27> C 	 -71.0602 	 41.8484 	 138.98
| 28> H 	 -68.0197 	 42.8821 	 140.042
| 29> C 	 -70.1918 	 44.1718 	 138.365
| 30> H 	 -70.4903 	 44.0203 	 137.302
| 31> H 	 -69.2363 	 44.623 	 138.279
| 32> C 	 -71.1188 	 45.1984 	 139.074
| 33> H 	 -70.562 	 45.5107 	 139.938
| 34> H 	 -72.0895 	 44.7362 	 139.403
| 35> C 	 -71.242 	 46.4517 	 138.211
| 36> H 	 -70.2796 	 46.9053 	 137.997
| 37> H 	 -71.7774 	 47.2416 	 138.792
| 38> H 	 -71.7407 	 46.2109 	 137.264
| 39> H 	 -75.8696 	 41.3543 	 137.802
| 40> H 	 -68.1835 	 40.6701 	 140.827
| 41> *
| 42>
| 43>                          ****END OF INPUT****

CARTESIAN COORDINATES (ANGSTROEM)
---------------------------------
  S    -73.769300   41.786500  139.193000
  C    -74.755500   41.448300  137.802000
  C    -73.971400   41.668000  136.686000
  C    -72.612500   41.900200  136.933000
  C    -72.318500   41.744900  138.280000
  H    -71.810500   42.064800  136.225000
  C    -74.660600   41.674000  135.389000
  H    -74.194200   42.422200  134.824000
  H    -75.763900   41.863400  135.543000
  C    -74.407200   40.355700  134.597000
  H    -73.420300   40.344700  134.341000
  H    -74.683200   39.534300  135.228000
  C    -75.019800   40.339200  133.190000
  H    -74.695100   39.391700  132.735000
  H    -76.092300   40.483300  133.199000
  H    -74.646100   41.088800  132.445000
  S    -70.538600   40.380700  139.890000
  C    -69.003300   41.107000  140.281000
  C    -68.939700   42.366400  139.852000
  C    -70.056100   42.787600  139.016000
  C    -71.060200   41.848400  138.980000
  H    -68.019700   42.882100  140.042000
  C    -70.191800   44.171800  138.365000
  H    -70.490300   44.020300  137.302000
  H    -69.236300   44.623000  138.279000
  C    -71.118800   45.198400  139.074000
  H    -70.562000   45.510700  139.938000
  H    -72.089500   44.736200  139.403000
  C    -71.242000   46.451700  138.211000
  H    -70.279600   46.905300  137.997000
  H    -71.777400   47.241600  138.792000
  H    -71.740700   46.210900  137.264000
  H    -75.869600   41.354300  137.802000
  H    -68.183500   40.670100  140.827000

 Total Charge           Charge          ....    0
 Multiplicity           Mult            ....    1
 Number of Electrons    NEL             ....  134
 Basis Dimension        Dim             ....  322

ORBITAL ENERGIES
----------------

  NO   OCC          E(Eh)            E(eV)
   0   2.0000     -88.962452     -2420.7914
   1   2.0000     -88.959817     -2420.7197
   2   2.0000     -10.326921      -281.0098
   3   2.0000     -10.326430      -280.9965
   4   2.0000     -10.311969      -280.6029
   5   2.0000     -10.311476      -280.5895
   6   2.0000     -10.307948      -280.4935
   7   2.0000     -10.294854      -280.1372
   8   2.0000     -10.293788      -280.1082
   9   2.0000     -10.291707      -280.0516
  10   2.0000     -10.288918      -279.9757
  11   2.0000     -10.286570      -279.9118
  12   2.0000     -10.284606      -279.8584
  13   2.0000     -10.279839      -279.7287
  14   2.0000     -10.279756      -279.7264
  15   2.0000     -10.276504      -279.6379
  16   2.0000      -8.078017      -219.8140
  17   2.0000      -8.074298      -219.7128
  18   2.0000      -6.036356      -164.2576
  19   2.0000      -6.032906      -164.1637
  20   2.0000      -6.032461      -164.1516
  21   2.0000      -6.028873      -164.0540
  22   2.0000      -6.028833      -164.0529
  23   2.0000      -6.024915      -163.9463
  24   2.0000      -1.012379       -27.5482
  25   2.0000      -0.986916       -26.8553
  26   2.0000      -0.917032       -24.9537
  27   2.0000      -0.905964       -24.6525
  28   2.0000      -0.873315       -23.7641
  29   2.0000      -0.851187       -23.1620
  30   2.0000      -0.843721       -22.9588
  31   2.0000      -0.821860       -22.3639
  32   2.0000      -0.780947       -21.2506
  33   2.0000      -0.767208       -20.8768
  34   2.0000      -0.711229       -19.3535
  35   2.0000      -0.696959       -18.9652
  36   2.0000      -0.692367       -18.8403
  37   2.0000      -0.658511       -17.9190
  38   2.0000      -0.642619       -17.4866
  39   2.0000      -0.620906       -16.8957
  40   2.0000      -0.592498       -16.1227
  41   2.0000      -0.577575       -15.7166
  42   2.0000      -0.568560       -15.4713
  43   2.0000      -0.563035       -15.3210
  44   2.0000      -0.526628       -14.3303
  45   2.0000      -0.521544       -14.1919
  46   2.0000      -0.516621       -14.0580
  47   2.0000      -0.510063       -13.8795
  48   2.0000      -0.507020       -13.7967
  49   2.0000      -0.501847       -13.6560
  50   2.0000      -0.499051       -13.5799
  51   2.0000      -0.477253       -12.9867
  52   2.0000      -0.470566       -12.8048
  53   2.0000      -0.468408       -12.7460
  54   2.0000      -0.458474       -12.4757
  55   2.0000      -0.450696       -12.2641
  56   2.0000      -0.447542       -12.1782
  57   2.0000      -0.432949       -11.7811
  58   2.0000      -0.429858       -11.6970
  59   2.0000      -0.421233       -11.4623
  60   2.0000      -0.419420       -11.4130
  61   2.0000      -0.414629       -11.2826
  62   2.0000      -0.413597       -11.2545
  63   2.0000      -0.341021        -9.2796
  64   2.0000      -0.328757        -8.9459
  65   2.0000      -0.324989        -8.8434
  66   2.0000      -0.300266        -8.1707
  67   0.0000       0.031898         0.8680
  68   0.0000       0.064082         1.7438
  69   0.0000       0.109845         2.9890
  70   0.0000       0.122374         3.3300
  71   0.0000       0.136621         3.7177

MULLIKEN ATOMIC CHARGES
-----------------------
   0 S :    0.116099
   1 C :   -0.134705
   2 C :   -0.102480
   3 C :    0.053016
   4 C :   -0.162351
   5 H :    0.015069
   6 C :    0.079685
   7 H :   -0.000841
   8 H :    0.030203
   9 C :   -0.037311
  10 H :    0.006748
  11 H :    0.030540
  12 C :   -0.060839
  13 H :    0.036030
  14 H :    0.029010
  15 H :    0.030332
  16 S :    0.095303
  17 C :   -0.072697
  18 C :   -0.033198
  19 C :   -0.013556
  20 C :   -0.173764
  21 H :    0.009501
  22 C :    0.062222
  23 H :    0.019406
  24 H :   -0.000574
  25 C :   -0.053678
  26 H :    0.020801
  27 H :    0.046508
  28 C :   -0.055611
  29 H :    0.023443
  30 H :    0.040988
  31 H :    0.038131
  32 H :    0.066665
  33 H :    0.051908
Sum of atomic charges:    0.0000000

LOEWDIN ATOMIC CHARGES
----------------------
   0 S :    0.430609
   1 C :   -0.214383
   2 C :   -0.067214
   3 C :   -0.062524
   4 C :   -0.200911
   5 H :    0.032849
   6 C :   -0.028063
   7 H :    0.022000
   8 H :    0.033124
   9 C :   -0.027629
  10 H :    0.014173
  11 H :    0.023563
  12 C :   -0.069385
  13 H :    0.029799
  14 H :    0.018523
  15 H :    0.028913
  16 S :    0.380224
  17 C :   -0.177470
  18 C :   -0.077760
  19 C :   -0.047180
  20 C :   -0.189333
  21 H :    0.029417
  22 C :   -0.033027
  23 H :    0.029892
  24 H :    0.021589
  25 C :   -0.036454
  26 H :    0.022365
  27 H :    0.028779
  28 C :   -0.066468
  29 H :    0.022581
  30 H :    0.031791
  31 H :    0.025206
  32 H :    0.039023
  33 H :    0.033381

  Mayer bond orders larger than 0.100000
B(  0-S ,  1-C ) :   1.1370 B(  0-S ,  4-C ) :   1.1981 B(  1-C ,  2-C ) :   1.5627
B(  1-C ,  4-C ) :   0.1082 B(  1-C , 32-H ) :   0.9695 B(  2-C ,  3-C ) :   1.2608
B(  2-C ,  6-C ) :   1.0446 B(  3-C ,  4-C ) :   1.5314 B(  3-C ,  5-H ) :   1.0026
B(  4-C , 20-C ) :   1.0206 B(  6-C ,  7-H ) :   0.9228 B(  6-C ,  8-H ) :   0.9439
B(  6-C ,  9-C ) :   1.0692 B(  9-C , 10-H ) :   0.9542 B(  9-C , 11-H ) :   0.9587
B(  9-C , 12-C ) :   1.0790 B( 12-C , 13-H ) :   0.9741 B( 12-C , 14-H ) :   0.9766
B( 12-C , 15-H ) :   0.9736 B( 16-S , 17-C ) :   1.1372 B( 16-S , 20-C ) :   1.1180
B( 17-C , 18-C ) :   1.6685 B( 17-C , 33-H ) :   0.9623 B( 18-C , 19-C ) :   1.1951
B( 18-C , 21-H ) :   0.9895 B( 19-C , 20-C ) :   1.6342 B( 19-C , 22-C ) :   1.0458
B( 22-C , 23-H ) :   0.9368 B( 22-C , 24-H ) :   0.9274 B( 22-C , 25-C ) :   1.0598
B( 25-C , 26-H ) :   0.9510 B( 25-C , 27-H ) :   0.9587 B( 25-C , 28-C ) :   1.0811
B( 28-C , 29-H ) :   0.9717 B( 28-C , 30-H ) :   0.9728 B( 28-C , 31-H ) :   0.9770

Dispersion correction           -0.014085444
FINAL SINGLE POINT ENERGY     -1339.869652640269

DIPOLE MOMENT
-------------
                                X             Y             Z
Electronic contribution:      5.04793     -12.82192      20.93909
Nuclear contribution   :     -4.80743      13.27544     -21.40582
                        -----------------------------------------
Total Dipole Moment    :      0.24049       0.45352      -0.46674
                        -----------------------------------------
Magnitude (a.u.)       :      0.69380
Magnitude (Debye)      :      1.76350

Rotational constants in cm-1:     0.018631     0.008095     0.006864
Rotational constants in MHz :   558.553272   242.694746   205.775354

                             ****ORCA TERMINATED NORMALLY****
TOTAL RUN TIME: 0 days 0 hours 0 minutes 34 seconds 907 msec
