                         Program Version 4.2.1 -  RELEASE  -
|  1> ! wB97X-D3 SP def2-SVP
|  2> %pal
|  3> nprocs 16
|  4> end
|  5>
|  6> * xyz 0 1
|  7> S 	 47.5162 	 12.2449 	 77.9057
|  8> C 	 47.1472 	 11.3398 	 79.4083
|  9> C 	 47.4868 	 11.9495 	 80.6185
| 10> C 	 48.1622 	 13.167 	 80.2765
| 11> C 	 48.1757 	 13.541 	 78.9198
| 12> H 	 48.5942 	 13.85 	 81.0252
| 13> C 	 47.2758 	 11.4188 	 82.0552
| 14> H 	 48.0583 	 11.7506 	 82.6792
| 15> H 	 47.2812 	 10.3314 	 81.895
| 16> C 	 45.9203 	 11.6817 	 82.7644
| 17> H 	 45.8537 	 12.7255 	 83.1283
| 18> H 	 45.0991 	 11.5109 	 82.0727
| 19> C 	 45.7059 	 10.8609 	 84.0861
| 20> H 	 44.8598 	 11.3278 	 84.6168
| 21> H 	 45.5417 	 9.82365 	 83.8939
| 22> H 	 46.6137 	 10.8808 	 84.7751
| 23> S 	 49.6311 	 14.8013 	 76.9117
| 24> C 	 49.7657 	 16.5429 	 77.0076
| 25> C 	 49.0706 	 17.065 	 78.0522
| 26> C 	 48.2328 	 16.097 	 78.7364
| 27> C 	 48.5835 	 14.8039 	 78.3333
| 28> H 	 49.1962 	 18.1539 	 78.2088
| 29> C 	 47.1317 	 16.3407 	 79.73
| 30> H 	 46.8632 	 15.3713 	 80.193
| 31> H 	 46.2829 	 16.6036 	 79.1816
| 32> C 	 47.4305 	 17.3163 	 80.9433
| 33> H 	 46.6056 	 17.7263 	 81.4096
| 34> H 	 47.9387 	 18.2347 	 80.5871
| 35> C 	 48.3348 	 16.7596 	 82.0225
| 36> H 	 47.7694 	 15.9757 	 82.5569
| 37> H 	 48.572 	 17.6624 	 82.6326
| 38> H 	 49.2358 	 16.3146 	 81.5373
| 39> H 	 46.7633 	 10.2953 	 79.4058
| 40> H 	 50.3147 	 17.0399 	 76.3166
| 41> *
| 42>
| 43>                          ****END OF INPUT****

CARTESIAN COORDINATES (ANGSTROEM)
---------------------------------
  S     47.516200   12.244900   77.905700
  C     47.147200   11.339800   79.408300
  C     47.486800   11.949500   80.618500
  C     48.162200   13.167000   80.276500
  C     48.175700   13.541000   78.919800
  H     48.594200   13.850000   81.025200
  C     47.275800   11.418800   82.055200
  H     48.058300   11.750600   82.679200
  H     47.281200   10.331400   81.895000
  C     45.920300   11.681700   82.764400
  H     45.853700   12.725500   83.128300
  H     45.099100   11.510900   82.072700
  C     45.705900   10.860900   84.086100
  H     44.859800   11.327800   84.616800
  H     45.541700    9.823650   83.893900
  H     46.613700   10.880800   84.775100
  S     49.631100   14.801300   76.911700
  C     49.765700   16.542900   77.007600
  C     49.070600   17.065000   78.052200
  C     48.232800   16.097000   78.736400
  C     48.583500   14.803900   78.333300
  H     49.196200   18.153900   78.208800
  C     47.131700   16.340700   79.730000
  H     46.863200   15.371300   80.193000
  H     46.282900   16.603600   79.181600
  C     47.430500   17.316300   80.943300
  H     46.605600   17.726300   81.409600
  H     47.938700   18.234700   80.587100
  C     48.334800   16.759600   82.022500
  H     47.769400   15.975700   82.556900
  H     48.572000   17.662400   82.632600
  H     49.235800   16.314600   81.537300
  H     46.763300   10.295300   79.405800
  H     50.314700   17.039900   76.316600

 Total Charge           Charge          ....    0
 Multiplicity           Mult            ....    1
 Number of Electrons    NEL             ....  134
 Basis Dimension        Dim             ....  322

ORBITAL ENERGIES
----------------

  NO   OCC          E(Eh)            E(eV)
   0   2.0000     -88.969833     -2420.9922
   1   2.0000     -88.962316     -2420.7877
   2   2.0000     -10.330368      -281.1036
   3   2.0000     -10.325826      -280.9800
   4   2.0000     -10.321278      -280.8563
   5   2.0000     -10.310044      -280.5506
   6   2.0000     -10.308904      -280.5195
   7   2.0000     -10.308182      -280.4999
   8   2.0000     -10.300069      -280.2791
   9   2.0000     -10.298586      -280.2388
  10   2.0000     -10.298386      -280.2333
  11   2.0000     -10.294584      -280.1299
  12   2.0000     -10.288547      -279.9656
  13   2.0000     -10.287693      -279.9424
  14   2.0000     -10.282786      -279.8088
  15   2.0000     -10.281863      -279.7837
  16   2.0000      -8.083392      -219.9603
  17   2.0000      -8.077348      -219.7958
  18   2.0000      -6.041905      -164.4086
  19   2.0000      -6.038235      -164.3087
  20   2.0000      -6.035768      -164.2416
  21   2.0000      -6.034060      -164.1951
  22   2.0000      -6.031936      -164.1373
  23   2.0000      -6.028075      -164.0323
  24   2.0000      -1.001481       -27.2517
  25   2.0000      -0.976749       -26.5787
  26   2.0000      -0.907396       -24.6915
  27   2.0000      -0.906401       -24.6644
  28   2.0000      -0.868316       -23.6281
  29   2.0000      -0.853641       -23.2288
  30   2.0000      -0.842741       -22.9321
  31   2.0000      -0.811106       -22.0713
  32   2.0000      -0.785585       -21.3769
  33   2.0000      -0.771826       -21.0025
  34   2.0000      -0.704028       -19.1576
  35   2.0000      -0.699139       -19.0245
  36   2.0000      -0.698605       -19.0100
  37   2.0000      -0.653288       -17.7769
  38   2.0000      -0.635065       -17.2810
  39   2.0000      -0.616683       -16.7808
  40   2.0000      -0.599016       -16.3000
  41   2.0000      -0.576703       -15.6929
  42   2.0000      -0.558113       -15.1870
  43   2.0000      -0.556247       -15.1363
  44   2.0000      -0.541700       -14.7404
  45   2.0000      -0.527685       -14.3590
  46   2.0000      -0.518883       -14.1195
  47   2.0000      -0.506032       -13.7698
  48   2.0000      -0.499740       -13.5986
  49   2.0000      -0.493340       -13.4245
  50   2.0000      -0.487760       -13.2726
  51   2.0000      -0.477357       -12.9896
  52   2.0000      -0.472215       -12.8496
  53   2.0000      -0.462948       -12.5974
  54   2.0000      -0.456552       -12.4234
  55   2.0000      -0.447517       -12.1776
  56   2.0000      -0.443661       -12.0726
  57   2.0000      -0.437640       -11.9088
  58   2.0000      -0.435217       -11.8429
  59   2.0000      -0.433109       -11.7855
  60   2.0000      -0.421235       -11.4624
  61   2.0000      -0.420565       -11.4442
  62   2.0000      -0.413596       -11.2545
  63   2.0000      -0.341274        -9.2865
  64   2.0000      -0.333840        -9.0842
  65   2.0000      -0.329276        -8.9600
  66   2.0000      -0.287711        -7.8290
  67   0.0000       0.025248         0.6870
  68   0.0000       0.070828         1.9273
  69   0.0000       0.099320         2.7026
  70   0.0000       0.118629         3.2280
  71   0.0000       0.129235         3.5167

MULLIKEN ATOMIC CHARGES
-----------------------
   0 S :    0.113228
   1 C :   -0.137229
   2 C :   -0.091810
   3 C :    0.021210
   4 C :   -0.165131
   5 H :    0.008407
   6 C :    0.092709
   7 H :    0.022400
   8 H :    0.025183
   9 C :   -0.077053
  10 H :    0.031056
  11 H :    0.034582
  12 C :   -0.076594
  13 H :    0.046238
  14 H :    0.032607
  15 H :    0.038120
  16 S :    0.094436
  17 C :   -0.053994
  18 C :   -0.039818
  19 C :   -0.042854
  20 C :   -0.154011
  21 H :    0.035082
  22 C :    0.096820
  23 H :    0.028791
  24 H :    0.028278
  25 C :   -0.064367
  26 H :    0.007007
  27 H :    0.016370
  28 C :   -0.080076
  29 H :    0.037489
  30 H :    0.047430
  31 H :    0.053705
  32 H :    0.053666
  33 H :    0.018121
Sum of atomic charges:    0.0000000

LOEWDIN ATOMIC CHARGES
----------------------
   0 S :    0.382649
   1 C :   -0.188736
   2 C :   -0.063204
   3 C :   -0.061543
   4 C :   -0.191652
   5 H :    0.030550
   6 C :   -0.024323
   7 H :    0.026237
   8 H :    0.035772
   9 C :   -0.038933
  10 H :    0.024267
  11 H :    0.024541
  12 C :   -0.068798
  13 H :    0.031761
  14 H :    0.017516
  15 H :    0.031455
  16 S :    0.387283
  17 C :   -0.160301
  18 C :   -0.072716
  19 C :   -0.046669
  20 C :   -0.198578
  21 H :    0.039194
  22 C :   -0.028327
  23 H :    0.036769
  24 H :    0.028929
  25 C :   -0.040343
  26 H :    0.012673
  27 H :    0.020844
  28 C :   -0.068417
  29 H :    0.022564
  30 H :    0.035458
  31 H :    0.028449
  32 H :    0.029282
  33 H :    0.006348

  Mayer bond orders larger than 0.100000
B(  0-S ,  1-C ) :   1.1390 B(  0-S ,  4-C ) :   1.1322 B(  1-C ,  2-C ) :   1.6254
B(  1-C ,  4-C ) :   0.1020 B(  1-C , 32-H ) :   0.9547 B(  2-C ,  3-C ) :   1.2440
B(  2-C ,  6-C ) :   1.0150 B(  3-C ,  4-C ) :   1.5784 B(  3-C ,  5-H ) :   0.9847
B(  4-C , 20-C ) :   1.0566 B(  6-C ,  7-H ) :   0.9407 B(  6-C ,  8-H ) :   0.9386
B(  6-C ,  9-C ) :   1.0674 B(  9-C , 10-H ) :   0.9590 B(  9-C , 11-H ) :   0.9566
B(  9-C , 12-C ) :   1.0704 B( 12-C , 13-H ) :   0.9767 B( 12-C , 14-H ) :   0.9778
B( 12-C , 15-H ) :   0.9756 B( 16-S , 17-C ) :   1.1427 B( 16-S , 20-C ) :   1.1321
B( 17-C , 18-C ) :   1.6419 B( 17-C , 33-H ) :   0.9812 B( 18-C , 19-C ) :   1.1906
B( 18-C , 21-H ) :   0.9871 B( 19-C , 20-C ) :   1.5912 B( 19-C , 22-C ) :   1.0427
B( 22-C , 23-H ) :   0.9329 B( 22-C , 24-H ) :   0.9257 B( 22-C , 25-C ) :   1.0530
B( 25-C , 26-H ) :   0.9553 B( 25-C , 27-H ) :   0.9612 B( 25-C , 28-C ) :   1.0759
B( 28-C , 29-H ) :   0.9731 B( 28-C , 30-H ) :   0.9709 B( 28-C , 31-H ) :   0.9729

Dispersion correction           -0.014497643
FINAL SINGLE POINT ENERGY     -1339.868517311648

DIPOLE MOMENT
-------------
                                X             Y             Z
Electronic contribution:     10.28122      -2.58977     -31.02351
Nuclear contribution   :    -10.54784       2.86934      31.66366
                        -----------------------------------------
Total Dipole Moment    :     -0.26661       0.27957       0.64015
                        -----------------------------------------
Magnitude (a.u.)       :      0.74769
Magnitude (Debye)      :      1.90047

Rotational constants in cm-1:     0.019379     0.008644     0.006354
Rotational constants in MHz :   580.971176   259.151967   190.476745

                             ****ORCA TERMINATED NORMALLY****
TOTAL RUN TIME: 0 days 0 hours 0 minutes 30 seconds 542 msec
