                         Program Version 4.2.1 -  RELEASE  -
|  1> ! wB97X-D3 SP def2-SVP
|  2> %pal
|  3> nprocs 16
|  4> end
|  5>
|  6> * xyz 0 1
|  7> S 	 -95.6178 	 53.2256 	 124.614
|  8> C 	 -96.9961 	 52.4171 	 123.81
|  9> C 	 -96.5056 	 51.3056 	 123.114
| 10> C 	 -95.0892 	 51.1868 	 123.17
| 11> C 	 -94.4686 	 52.0905 	 124.019
| 12> H 	 -94.4369 	 50.4559 	 122.749
| 13> C 	 -97.3513 	 50.2161 	 122.483
| 14> H 	 -97.0078 	 50.178 	 121.442
| 15> H 	 -98.3218 	 50.7322 	 122.373
| 16> C 	 -97.2992 	 48.824 	 123.041
| 17> H 	 -98.02 	 48.1221 	 122.602
| 18> H 	 -96.2805 	 48.4519 	 122.825
| 19> C 	 -97.5793 	 48.7805 	 124.565
| 20> H 	 -96.9391 	 49.5087 	 125.079
| 21> H 	 -98.6378 	 48.9441 	 124.685
| 22> H 	 -97.4086 	 47.7703 	 125.057
| 23> S 	 -92.2502 	 53.4309 	 123.124
| 24> C 	 -90.7884 	 53.2514 	 124.015
| 25> C 	 -90.9036 	 52.3345 	 125.021
| 26> C 	 -92.1643 	 51.6893 	 125.016
| 27> C 	 -93.0391 	 52.3081 	 124.199
| 28> H 	 -90.0425 	 52.0419 	 125.617
| 29> C 	 -92.4344 	 50.5531 	 125.847
| 30> H 	 -93.5086 	 50.4348 	 126.029
| 31> H 	 -91.9617 	 50.8144 	 126.823
| 32> C 	 -91.7901 	 49.2208 	 125.324
| 33> H 	 -91.9087 	 48.5398 	 126.098
| 34> H 	 -90.7649 	 49.3564 	 125.162
| 35> C 	 -92.3739 	 48.635 	 124.002
| 36> H 	 -92.0646 	 49.1465 	 123.033
| 37> H 	 -93.4591 	 48.6722 	 124.17
| 38> H 	 -92.1124 	 47.559 	 123.896
| 39> H 	 -98.0002 	 52.8111 	 123.817
| 40> H 	 -89.8719 	 53.7712 	 123.809
| 41> *
| 42>
| 43>                          ****END OF INPUT****

CARTESIAN COORDINATES (ANGSTROEM)
---------------------------------
  S    -95.617800   53.225600  124.614000
  C    -96.996100   52.417100  123.810000
  C    -96.505600   51.305600  123.114000
  C    -95.089200   51.186800  123.170000
  C    -94.468600   52.090500  124.019000
  H    -94.436900   50.455900  122.749000
  C    -97.351300   50.216100  122.483000
  H    -97.007800   50.178000  121.442000
  H    -98.321800   50.732200  122.373000
  C    -97.299200   48.824000  123.041000
  H    -98.020000   48.122100  122.602000
  H    -96.280500   48.451900  122.825000
  C    -97.579300   48.780500  124.565000
  H    -96.939100   49.508700  125.079000
  H    -98.637800   48.944100  124.685000
  H    -97.408600   47.770300  125.057000
  S    -92.250200   53.430900  123.124000
  C    -90.788400   53.251400  124.015000
  C    -90.903600   52.334500  125.021000
  C    -92.164300   51.689300  125.016000
  C    -93.039100   52.308100  124.199000
  H    -90.042500   52.041900  125.617000
  C    -92.434400   50.553100  125.847000
  H    -93.508600   50.434800  126.029000
  H    -91.961700   50.814400  126.823000
  C    -91.790100   49.220800  125.324000
  H    -91.908700   48.539800  126.098000
  H    -90.764900   49.356400  125.162000
  C    -92.373900   48.635000  124.002000
  H    -92.064600   49.146500  123.033000
  H    -93.459100   48.672200  124.170000
  H    -92.112400   47.559000  123.896000
  H    -98.000200   52.811100  123.817000
  H    -89.871900   53.771200  123.809000

 Total Charge           Charge          ....    0
 Multiplicity           Mult            ....    1
 Number of Electrons    NEL             ....  134
 Basis Dimension        Dim             ....  322

ORBITAL ENERGIES
----------------

  NO   OCC          E(Eh)            E(eV)
   0   2.0000     -88.963431     -2420.8180
   1   2.0000     -88.962309     -2420.7875
   2   2.0000     -10.323807      -280.9251
   3   2.0000     -10.318920      -280.7921
   4   2.0000     -10.315544      -280.7002
   5   2.0000     -10.312057      -280.6053
   6   2.0000     -10.303400      -280.3698
   7   2.0000     -10.290544      -280.0199
   8   2.0000     -10.290408      -280.0162
   9   2.0000     -10.290259      -280.0122
  10   2.0000     -10.288832      -279.9734
  11   2.0000     -10.288615      -279.9674
  12   2.0000     -10.287633      -279.9407
  13   2.0000     -10.287402      -279.9345
  14   2.0000     -10.282637      -279.8048
  15   2.0000     -10.277276      -279.6589
  16   2.0000      -8.078041      -219.8147
  17   2.0000      -8.077991      -219.8133
  18   2.0000      -6.036502      -164.2616
  19   2.0000      -6.036409      -164.2590
  20   2.0000      -6.032500      -164.1527
  21   2.0000      -6.032382      -164.1495
  22   2.0000      -6.029026      -164.0581
  23   2.0000      -6.028661      -164.0482
  24   2.0000      -1.013203       -27.5707
  25   2.0000      -0.986466       -26.8431
  26   2.0000      -0.913992       -24.8710
  27   2.0000      -0.913139       -24.8478
  28   2.0000      -0.867822       -23.6146
  29   2.0000      -0.852505       -23.1978
  30   2.0000      -0.841671       -22.9030
  31   2.0000      -0.814056       -22.1516
  32   2.0000      -0.783013       -21.3069
  33   2.0000      -0.773410       -21.0455
  34   2.0000      -0.710364       -19.3300
  35   2.0000      -0.700727       -19.0678
  36   2.0000      -0.692685       -18.8489
  37   2.0000      -0.663062       -18.0428
  38   2.0000      -0.642549       -17.4846
  39   2.0000      -0.615028       -16.7358
  40   2.0000      -0.599853       -16.3228
  41   2.0000      -0.566906       -15.4263
  42   2.0000      -0.555491       -15.1157
  43   2.0000      -0.548883       -14.9359
  44   2.0000      -0.547035       -14.8856
  45   2.0000      -0.542373       -14.7587
  46   2.0000      -0.521188       -14.1822
  47   2.0000      -0.517248       -14.0750
  48   2.0000      -0.499944       -13.6042
  49   2.0000      -0.493953       -13.4412
  50   2.0000      -0.489853       -13.3296
  51   2.0000      -0.471973       -12.8430
  52   2.0000      -0.467753       -12.7282
  53   2.0000      -0.466516       -12.6946
  54   2.0000      -0.458427       -12.4744
  55   2.0000      -0.450039       -12.2462
  56   2.0000      -0.441599       -12.0165
  57   2.0000      -0.437606       -11.9079
  58   2.0000      -0.435425       -11.8485
  59   2.0000      -0.427392       -11.6299
  60   2.0000      -0.418633       -11.3916
  61   2.0000      -0.415952       -11.3186
  62   2.0000      -0.410232       -11.1630
  63   2.0000      -0.335336        -9.1250
  64   2.0000      -0.324016        -8.8169
  65   2.0000      -0.318855        -8.6765
  66   2.0000      -0.313091        -8.5196
  67   0.0000       0.045044         1.2257
  68   0.0000       0.058125         1.5817
  69   0.0000       0.114989         3.1290
  70   0.0000       0.124843         3.3971
  71   0.0000       0.126006         3.4288

MULLIKEN ATOMIC CHARGES
-----------------------
   0 S :    0.107473
   1 C :   -0.131381
   2 C :   -0.109005
   3 C :    0.055212
   4 C :   -0.192811
   5 H :   -0.007483
   6 C :    0.086850
   7 H :    0.030139
   8 H :    0.012264
   9 C :   -0.054954
  10 H :    0.038473
  11 H :    0.031825
  12 C :   -0.078635
  13 H :    0.052109
  14 H :    0.028212
  15 H :    0.036623
  16 S :    0.126751
  17 C :   -0.081305
  18 C :   -0.032479
  19 C :   -0.001355
  20 C :   -0.188878
  21 H :    0.016975
  22 C :    0.036429
  23 H :    0.033598
  24 H :    0.027873
  25 C :   -0.016413
  26 H :    0.017903
  27 H :    0.013660
  28 C :   -0.098841
  29 H :    0.062593
  30 H :    0.035133
  31 H :    0.040890
  32 H :    0.053936
  33 H :    0.048615
Sum of atomic charges:    0.0000000

LOEWDIN ATOMIC CHARGES
----------------------
   0 S :    0.408825
   1 C :   -0.189265
   2 C :   -0.064160
   3 C :   -0.064347
   4 C :   -0.205062
   5 H :    0.026241
   6 C :   -0.039607
   7 H :    0.036309
   8 H :    0.028869
   9 C :   -0.042344
  10 H :    0.030630
  11 H :    0.025222
  12 C :   -0.070473
  13 H :    0.026954
  14 H :    0.022106
  15 H :    0.030175
  16 S :    0.418193
  17 C :   -0.183510
  18 C :   -0.073241
  19 C :   -0.059997
  20 C :   -0.211728
  21 H :    0.032150
  22 C :   -0.032166
  23 H :    0.031693
  24 H :    0.039143
  25 C :   -0.023355
  26 H :    0.017724
  27 H :    0.015314
  28 C :   -0.075417
  29 H :    0.034340
  30 H :    0.023810
  31 H :    0.031187
  32 H :    0.028991
  33 H :    0.026796

  Mayer bond orders larger than 0.100000
B(  0-S ,  1-C ) :   1.1432 B(  0-S ,  4-C ) :   1.1702 B(  1-C ,  2-C ) :   1.5800
B(  1-C ,  4-C ) :   0.1038 B(  1-C , 32-H ) :   0.9738 B(  2-C ,  3-C ) :   1.2283
B(  2-C ,  6-C ) :   1.0210 B(  3-C ,  4-C ) :   1.5792 B(  3-C ,  5-H ) :   0.9974
B(  4-C , 20-C ) :   0.9996 B(  6-C ,  7-H ) :   0.9313 B(  6-C ,  8-H ) :   0.9389
B(  6-C ,  9-C ) :   1.0660 B(  9-C , 10-H ) :   0.9554 B(  9-C , 11-H ) :   0.9507
B(  9-C , 12-C ) :   1.0748 B( 12-C , 13-H ) :   0.9745 B( 12-C , 14-H ) :   0.9768
B( 12-C , 15-H ) :   0.9756 B( 16-S , 17-C ) :   1.1597 B( 16-S , 20-C ) :   1.1355
B( 17-C , 18-C ) :   1.6209 B( 17-C , 33-H ) :   0.9668 B( 18-C , 19-C ) :   1.2232
B( 18-C , 21-H ) :   0.9873 B( 19-C , 20-C ) :   1.6217 B( 19-C , 22-C ) :   1.0722
B( 22-C , 23-H ) :   0.9280 B( 22-C , 24-H ) :   0.9233 B( 22-C , 25-C ) :   1.0740
B( 25-C , 26-H ) :   0.9545 B( 25-C , 27-H ) :   0.9561 B( 25-C , 28-C ) :   1.0667
B( 28-C , 29-H ) :   0.9718 B( 28-C , 30-H ) :   0.9728 B( 28-C , 31-H ) :   0.9710

Dispersion correction           -0.016227934
FINAL SINGLE POINT ENERGY     -1339.881158431775

DIPOLE MOMENT
-------------
                                X             Y             Z
Electronic contribution:      5.79500      26.59042      -2.07753
Nuclear contribution   :     -5.65549     -27.21816       2.10242
                        -----------------------------------------
Total Dipole Moment    :      0.13951      -0.62775       0.02490
                        -----------------------------------------
Magnitude (a.u.)       :      0.64355
Magnitude (Debye)      :      1.63576

Rotational constants in cm-1:     0.020072     0.010012     0.007762
Rotational constants in MHz :   601.743308   300.157374   232.689643

                             ****ORCA TERMINATED NORMALLY****
TOTAL RUN TIME: 0 days 0 hours 0 minutes 35 seconds 484 msec
