                         Program Version 4.2.1 -  RELEASE  -
|  1> ! wB97X-D3 SP def2-SVP
|  2> %pal
|  3> nprocs 16
|  4> end
|  5>
|  6> * xyz 0 1
|  7> S 	 -22.3773 	 -1.7393 	 89.4124
|  8> C 	 -23.6912 	 -1.4671 	 90.6045
|  9> C 	 -24.787 	 -0.845413 	 90.0618
| 10> C 	 -24.642 	 -0.497811 	 88.6468
| 11> C 	 -23.4367 	 -0.946895 	 88.112
| 12> H 	 -25.3085 	 0.0636369 	 88.0482
| 13> C 	 -26.0417 	 -0.505115 	 90.9022
| 14> H 	 -26.3636 	 0.440054 	 90.448
| 15> H 	 -25.6594 	 -0.0951411 	 91.9144
| 16> C 	 -27.1216 	 -1.51256 	 91.1393
| 17> H 	 -26.8193 	 -2.42292 	 91.6778
| 18> H 	 -27.9672 	 -1.15929 	 91.7081
| 19> C 	 -27.8329 	 -1.80864 	 89.7846
| 20> H 	 -28.3564 	 -0.821937 	 89.5264
| 21> H 	 -27.3227 	 -2.24618 	 88.9382
| 22> H 	 -28.7352 	 -2.49353 	 89.9486
| 23> S 	 -21.4666 	 -0.319496 	 86.2561
| 24> C 	 -21.7413 	 -0.645034 	 84.5246
| 25> C 	 -22.9641 	 -1.2109 	 84.421
| 26> C 	 -23.7538 	 -1.38613 	 85.5921
| 27> C 	 -23.0211 	 -0.964999 	 86.6964
| 28> H 	 -23.3315 	 -1.34186 	 83.4253
| 29> C 	 -25.2746 	 -1.73723 	 85.6079
| 30> H 	 -25.726 	 -1.55694 	 86.5711
| 31> H 	 -25.4172 	 -2.79163 	 85.3665
| 32> C 	 -26.0075 	 -0.922689 	 84.5664
| 33> H 	 -25.5124 	 -1.23158 	 83.6818
| 34> H 	 -25.7531 	 0.133342 	 84.6125
| 35> C 	 -27.5339 	 -0.896386 	 84.6098
| 36> H 	 -28.0283 	 -0.717936 	 85.5971
| 37> H 	 -28.0357 	 -1.79498 	 84.1674
| 38> H 	 -28.0587 	 -0.0316505 	 84.0853
| 39> H 	 -23.5012 	 -1.77401 	 91.6351
| 40> H 	 -21.0127 	 -0.582672 	 83.7365
| 41> *
| 42>
| 43>                          ****END OF INPUT****

CARTESIAN COORDINATES (ANGSTROEM)
---------------------------------
  S    -22.377300   -1.739300   89.412400
  C    -23.691200   -1.467100   90.604500
  C    -24.787000   -0.845413   90.061800
  C    -24.642000   -0.497811   88.646800
  C    -23.436700   -0.946895   88.112000
  H    -25.308500    0.063637   88.048200
  C    -26.041700   -0.505115   90.902200
  H    -26.363600    0.440054   90.448000
  H    -25.659400   -0.095141   91.914400
  C    -27.121600   -1.512560   91.139300
  H    -26.819300   -2.422920   91.677800
  H    -27.967200   -1.159290   91.708100
  C    -27.832900   -1.808640   89.784600
  H    -28.356400   -0.821937   89.526400
  H    -27.322700   -2.246180   88.938200
  H    -28.735200   -2.493530   89.948600
  S    -21.466600   -0.319496   86.256100
  C    -21.741300   -0.645034   84.524600
  C    -22.964100   -1.210900   84.421000
  C    -23.753800   -1.386130   85.592100
  C    -23.021100   -0.964999   86.696400
  H    -23.331500   -1.341860   83.425300
  C    -25.274600   -1.737230   85.607900
  H    -25.726000   -1.556940   86.571100
  H    -25.417200   -2.791630   85.366500
  C    -26.007500   -0.922689   84.566400
  H    -25.512400   -1.231580   83.681800
  H    -25.753100    0.133342   84.612500
  C    -27.533900   -0.896386   84.609800
  H    -28.028300   -0.717936   85.597100
  H    -28.035700   -1.794980   84.167400
  H    -28.058700   -0.031650   84.085300
  H    -23.501200   -1.774010   91.635100
  H    -21.012700   -0.582672   83.736500

 Total Charge           Charge          ....    0
 Multiplicity           Mult            ....    1
 Number of Electrons    NEL             ....  134
 Basis Dimension        Dim             ....  322

ORBITAL ENERGIES
----------------

  NO   OCC          E(Eh)            E(eV)
   0   2.0000     -88.964421     -2420.8450
   1   2.0000     -88.963780     -2420.8275
   2   2.0000     -10.340262      -281.3728
   3   2.0000     -10.329759      -281.0870
   4   2.0000     -10.319997      -280.8214
   5   2.0000     -10.318673      -280.7854
   6   2.0000     -10.309154      -280.5263
   7   2.0000     -10.307617      -280.4845
   8   2.0000     -10.302688      -280.3504
   9   2.0000     -10.300929      -280.3025
  10   2.0000     -10.294412      -280.1252
  11   2.0000     -10.292258      -280.0666
  12   2.0000     -10.291815      -280.0545
  13   2.0000     -10.291682      -280.0509
  14   2.0000     -10.288074      -279.9527
  15   2.0000     -10.284727      -279.8617
  16   2.0000      -8.079016      -219.8412
  17   2.0000      -8.076702      -219.7782
  18   2.0000      -6.037584      -164.2910
  19   2.0000      -6.035387      -164.2312
  20   2.0000      -6.033499      -164.1799
  21   2.0000      -6.031621      -164.1288
  22   2.0000      -6.029745      -164.0777
  23   2.0000      -6.027224      -164.0091
  24   2.0000      -1.001996       -27.2657
  25   2.0000      -0.973210       -26.4824
  26   2.0000      -0.912596       -24.8330
  27   2.0000      -0.908666       -24.7261
  28   2.0000      -0.869719       -23.6663
  29   2.0000      -0.846812       -23.0429
  30   2.0000      -0.838926       -22.8283
  31   2.0000      -0.816922       -22.2296
  32   2.0000      -0.782790       -21.3008
  33   2.0000      -0.769073       -20.9275
  34   2.0000      -0.706329       -19.2202
  35   2.0000      -0.703059       -19.1312
  36   2.0000      -0.701855       -19.0984
  37   2.0000      -0.657150       -17.8820
  38   2.0000      -0.643097       -17.4995
  39   2.0000      -0.614546       -16.7227
  40   2.0000      -0.598854       -16.2957
  41   2.0000      -0.571189       -15.5428
  42   2.0000      -0.568516       -15.4701
  43   2.0000      -0.550288       -14.9741
  44   2.0000      -0.539916       -14.6919
  45   2.0000      -0.521646       -14.1947
  46   2.0000      -0.517705       -14.0875
  47   2.0000      -0.516795       -14.0627
  48   2.0000      -0.509858       -13.8739
  49   2.0000      -0.491014       -13.3612
  50   2.0000      -0.486909       -13.2495
  51   2.0000      -0.481872       -13.1124
  52   2.0000      -0.471270       -12.8239
  53   2.0000      -0.462688       -12.5904
  54   2.0000      -0.460726       -12.5370
  55   2.0000      -0.447027       -12.1642
  56   2.0000      -0.442183       -12.0324
  57   2.0000      -0.433556       -11.7977
  58   2.0000      -0.424329       -11.5466
  59   2.0000      -0.422531       -11.4977
  60   2.0000      -0.416011       -11.3202
  61   2.0000      -0.411990       -11.2108
  62   2.0000      -0.408920       -11.1273
  63   2.0000      -0.347367        -9.4523
  64   2.0000      -0.332249        -9.0409
  65   2.0000      -0.330287        -8.9876
  66   2.0000      -0.296758        -8.0752
  67   0.0000       0.024866         0.6767
  68   0.0000       0.066992         1.8230
  69   0.0000       0.104577         2.8457
  70   0.0000       0.119961         3.2643
  71   0.0000       0.124222         3.3803

MULLIKEN ATOMIC CHARGES
-----------------------
   0 S :    0.077635
   1 C :   -0.131284
   2 C :   -0.075365
   3 C :    0.047292
   4 C :   -0.134189
   5 H :    0.012377
   6 C :    0.028261
   7 H :    0.019872
   8 H :    0.035511
   9 C :    0.001094
  10 H :    0.036425
  11 H :    0.028882
  12 C :   -0.132181
  13 H :    0.031696
  14 H :    0.057929
  15 H :    0.033894
  16 S :    0.098037
  17 C :   -0.087131
  18 C :   -0.042267
  19 C :   -0.023336
  20 C :   -0.177443
  21 H :    0.012848
  22 C :    0.126193
  23 H :    0.005746
  24 H :    0.033699
  25 C :   -0.075882
  26 H :    0.018661
  27 H :    0.029620
  28 C :   -0.084903
  29 H :    0.033156
  30 H :    0.039150
  31 H :    0.037451
  32 H :    0.059888
  33 H :    0.058665
Sum of atomic charges:   -0.0000000

LOEWDIN ATOMIC CHARGES
----------------------
   0 S :    0.337080
   1 C :   -0.171935
   2 C :   -0.064508
   3 C :   -0.051888
   4 C :   -0.151877
   5 H :    0.027660
   6 C :   -0.040797
   7 H :    0.029914
   8 H :    0.038322
   9 C :   -0.042918
  10 H :    0.027321
  11 H :    0.030577
  12 C :   -0.079105
  13 H :    0.030415
  14 H :    0.020368
  15 H :    0.029706
  16 S :    0.394959
  17 C :   -0.172672
  18 C :   -0.072454
  19 C :   -0.052138
  20 C :   -0.201216
  21 H :    0.025994
  22 C :   -0.018233
  23 H :    0.022268
  24 H :    0.033454
  25 C :   -0.047967
  26 H :    0.019314
  27 H :    0.028246
  28 C :   -0.083997
  29 H :    0.030486
  30 H :    0.026905
  31 H :    0.035491
  32 H :    0.030290
  33 H :    0.032936

  Mayer bond orders larger than 0.100000
B(  0-S ,  1-C ) :   1.1186 B(  0-S ,  4-C ) :   1.1185 B(  1-C ,  2-C ) :   1.6557
B(  1-C , 32-H ) :   0.9702 B(  2-C ,  3-C ) :   1.1892 B(  2-C ,  6-C ) :   1.0007
B(  3-C ,  4-C ) :   1.6192 B(  3-C ,  5-H ) :   0.9921 B(  4-C , 20-C ) :   1.0287
B(  6-C ,  7-H ) :   0.9443 B(  6-C ,  8-H ) :   0.9423 B(  6-C ,  9-C ) :   1.0778
B(  9-C , 10-H ) :   0.9555 B(  9-C , 11-H ) :   0.9499 B(  9-C , 12-C ) :   1.0572
B( 12-C , 13-H ) :   0.9760 B( 12-C , 14-H ) :   0.9796 B( 12-C , 15-H ) :   0.9743
B( 16-S , 17-C ) :   1.1286 B( 16-S , 20-C ) :   1.1588 B( 17-C , 18-C ) :   1.6385
B( 17-C , 33-H ) :   0.9695 B( 18-C , 19-C ) :   1.2329 B( 18-C , 21-H ) :   0.9823
B( 19-C , 20-C ) :   1.5919 B( 19-C , 22-C ) :   1.0320 B( 22-C , 23-H ) :   0.9404
B( 22-C , 24-H ) :   0.9272 B( 22-C , 25-C ) :   1.0543 B( 25-C , 26-H ) :   0.9540
B( 25-C , 27-H ) :   0.9584 B( 25-C , 28-C ) :   1.0717 B( 28-C , 29-H ) :   0.9713
B( 28-C , 30-H ) :   0.9756 B( 28-C , 31-H ) :   0.9758

Dispersion correction           -0.014527192
FINAL SINGLE POINT ENERGY     -1339.861072775831

DIPOLE MOMENT
-------------
                                X             Y             Z
Electronic contribution:     32.60492       0.96289       1.48039
Nuclear contribution   :    -33.37800      -0.89540      -1.60029
                        -----------------------------------------
Total Dipole Moment    :     -0.77308       0.06749      -0.11990
                        -----------------------------------------
Magnitude (a.u.)       :      0.78523
Magnitude (Debye)      :      1.99589

Rotational constants in cm-1:     0.016646     0.010056     0.006612
Rotational constants in MHz :   499.038102   301.478452   198.210064

                             ****ORCA TERMINATED NORMALLY****
TOTAL RUN TIME: 0 days 0 hours 0 minutes 30 seconds 913 msec
