                         Program Version 4.2.1 -  RELEASE  -
|  1> ! wB97X-D3 SP def2-SVP
|  2> %pal
|  3> nprocs 16
|  4> end
|  5>
|  6> * xyz 0 1
|  7> S 	 31.7185 	 3.37451 	 72.8279
|  8> C 	 30.123 	 3.93944 	 73.1889
|  9> C 	 29.4123 	 2.92231 	 73.8563
| 10> C 	 30.1301 	 1.65015 	 73.8588
| 11> C 	 31.3408 	 1.72596 	 73.2555
| 12> H 	 29.7772 	 0.726597 	 74.3334
| 13> C 	 28.1074 	 3.33222 	 74.6275
| 14> H 	 28.0427 	 4.36774 	 74.9703
| 15> H 	 28.1685 	 2.64028 	 75.461
| 16> C 	 26.7625 	 3.05828 	 73.8028
| 17> H 	 26.5968 	 2.02167 	 73.5571
| 18> H 	 25.8833 	 3.35082 	 74.4906
| 19> C 	 26.7808 	 3.86377 	 72.4229
| 20> H 	 27.0399 	 4.91642 	 72.6342
| 21> H 	 27.4522 	 3.49983 	 71.6184
| 22> H 	 25.8357 	 3.78447 	 71.9476
| 23> S 	 32.6404 	 0.427507 	 71.2293
| 24> C 	 33.8342 	 -0.821487 	 71.5489
| 25> C 	 33.9352 	 -0.936857 	 72.9033
| 26> C 	 32.983 	 -0.183754 	 73.6701
| 27> C 	 32.2352 	 0.660694 	 72.8747
| 28> H 	 34.7281 	 -1.57384 	 73.3698
| 29> C 	 32.9322 	 -0.149885 	 75.1902
| 30> H 	 32.5324 	 -1.21461 	 75.4215
| 31> H 	 32.0767 	 0.532967 	 75.3795
| 32> C 	 34.2685 	 0.242736 	 75.8648
| 33> H 	 34.6578 	 1.13014 	 75.4153
| 34> H 	 35.0171 	 -0.543128 	 75.8039
| 35> C 	 34.1694 	 0.639453 	 77.3124
| 36> H 	 35.0408 	 1.19597 	 77.6014
| 37> H 	 34.1145 	 -0.241319 	 77.9283
| 38> H 	 33.2473 	 1.14063 	 77.5504
| 39> H 	 29.7855 	 5.04828 	 73.0749
| 40> H 	 34.5337 	 -1.06151 	 70.8213
| 41> *
| 42>
| 43>                          ****END OF INPUT****

CARTESIAN COORDINATES (ANGSTROEM)
---------------------------------
  S     31.718500    3.374510   72.827900
  C     30.123000    3.939440   73.188900
  C     29.412300    2.922310   73.856300
  C     30.130100    1.650150   73.858800
  C     31.340800    1.725960   73.255500
  H     29.777200    0.726597   74.333400
  C     28.107400    3.332220   74.627500
  H     28.042700    4.367740   74.970300
  H     28.168500    2.640280   75.461000
  C     26.762500    3.058280   73.802800
  H     26.596800    2.021670   73.557100
  H     25.883300    3.350820   74.490600
  C     26.780800    3.863770   72.422900
  H     27.039900    4.916420   72.634200
  H     27.452200    3.499830   71.618400
  H     25.835700    3.784470   71.947600
  S     32.640400    0.427507   71.229300
  C     33.834200   -0.821487   71.548900
  C     33.935200   -0.936857   72.903300
  C     32.983000   -0.183754   73.670100
  C     32.235200    0.660694   72.874700
  H     34.728100   -1.573840   73.369800
  C     32.932200   -0.149885   75.190200
  H     32.532400   -1.214610   75.421500
  H     32.076700    0.532967   75.379500
  C     34.268500    0.242736   75.864800
  H     34.657800    1.130140   75.415300
  H     35.017100   -0.543128   75.803900
  C     34.169400    0.639453   77.312400
  H     35.040800    1.195970   77.601400
  H     34.114500   -0.241319   77.928300
  H     33.247300    1.140630   77.550400
  H     29.785500    5.048280   73.074900
  H     34.533700   -1.061510   70.821300

 Total Charge           Charge          ....    0
 Multiplicity           Mult            ....    1
 Number of Electrons    NEL             ....  134
 Basis Dimension        Dim             ....  322

ORBITAL ENERGIES
----------------

  NO   OCC          E(Eh)            E(eV)
   0   2.0000     -88.964066     -2420.8353
   1   2.0000     -88.958623     -2420.6872
   2   2.0000     -10.327013      -281.0123
   3   2.0000     -10.322450      -280.8881
   4   2.0000     -10.320292      -280.8294
   5   2.0000     -10.311543      -280.5913
   6   2.0000     -10.309791      -280.5437
   7   2.0000     -10.301406      -280.3155
   8   2.0000     -10.301310      -280.3129
   9   2.0000     -10.299863      -280.2735
  10   2.0000     -10.299333      -280.2591
  11   2.0000     -10.299123      -280.2534
  12   2.0000     -10.296128      -280.1719
  13   2.0000     -10.283752      -279.8351
  14   2.0000     -10.278992      -279.7056
  15   2.0000     -10.268410      -279.4176
  16   2.0000      -8.079392      -219.8514
  17   2.0000      -8.074372      -219.7148
  18   2.0000      -6.037899      -164.2996
  19   2.0000      -6.033761      -164.1870
  20   2.0000      -6.032791      -164.1606
  21   2.0000      -6.030164      -164.0891
  22   2.0000      -6.028643      -164.0477
  23   2.0000      -6.025217      -163.9545
  24   2.0000      -1.012400       -27.5488
  25   2.0000      -0.986349       -26.8399
  26   2.0000      -0.908449       -24.7201
  27   2.0000      -0.896674       -24.3997
  28   2.0000      -0.870000       -23.6739
  29   2.0000      -0.852331       -23.1931
  30   2.0000      -0.840473       -22.8704
  31   2.0000      -0.815695       -22.1962
  32   2.0000      -0.778428       -21.1821
  33   2.0000      -0.768662       -20.9164
  34   2.0000      -0.705533       -19.1985
  35   2.0000      -0.702463       -19.1150
  36   2.0000      -0.689171       -18.7533
  37   2.0000      -0.656286       -17.8585
  38   2.0000      -0.640937       -17.4408
  39   2.0000      -0.618051       -16.8180
  40   2.0000      -0.594298       -16.1717
  41   2.0000      -0.565795       -15.3961
  42   2.0000      -0.561020       -15.2661
  43   2.0000      -0.549386       -14.9496
  44   2.0000      -0.540250       -14.7009
  45   2.0000      -0.528697       -14.3866
  46   2.0000      -0.519587       -14.1387
  47   2.0000      -0.508875       -13.8472
  48   2.0000      -0.504555       -13.7296
  49   2.0000      -0.497742       -13.5442
  50   2.0000      -0.483231       -13.1494
  51   2.0000      -0.475983       -12.9522
  52   2.0000      -0.470158       -12.7937
  53   2.0000      -0.467845       -12.7307
  54   2.0000      -0.455825       -12.4036
  55   2.0000      -0.448296       -12.1988
  56   2.0000      -0.443783       -12.0760
  57   2.0000      -0.437286       -11.8991
  58   2.0000      -0.434324       -11.8186
  59   2.0000      -0.421555       -11.4711
  60   2.0000      -0.417675       -11.3655
  61   2.0000      -0.409841       -11.1523
  62   2.0000      -0.407076       -11.0771
  63   2.0000      -0.346716        -9.4346
  64   2.0000      -0.325649        -8.8614
  65   2.0000      -0.323817        -8.8115
  66   2.0000      -0.300926        -8.1886
  67   0.0000       0.034201         0.9306
  68   0.0000       0.068067         1.8522
  69   0.0000       0.106103         2.8872
  70   0.0000       0.126830         3.4512
  71   0.0000       0.135359         3.6833

MULLIKEN ATOMIC CHARGES
-----------------------
   0 S :    0.121903
   1 C :   -0.161451
   2 C :   -0.105381
   3 C :    0.054817
   4 C :   -0.187828
   5 H :    0.025055
   6 C :    0.048656
   7 H :    0.042655
   8 H :    0.027242
   9 C :   -0.095524
  10 H :    0.031383
  11 H :    0.046090
  12 C :   -0.070282
  13 H :    0.026516
  14 H :    0.051687
  15 H :    0.028382
  16 S :    0.095627
  17 C :   -0.070805
  18 C :   -0.047936
  19 C :   -0.060173
  20 C :   -0.153479
  21 H :    0.034107
  22 C :    0.057331
  23 H :    0.047423
  24 H :    0.021664
  25 C :   -0.056518
  26 H :    0.029436
  27 H :    0.029675
  28 C :   -0.020929
  29 H :    0.033580
  30 H :    0.013931
  31 H :    0.022546
  32 H :    0.091930
  33 H :    0.048670
Sum of atomic charges:   -0.0000000

LOEWDIN ATOMIC CHARGES
----------------------
   0 S :    0.415450
   1 C :   -0.217882
   2 C :   -0.065460
   3 C :   -0.063943
   4 C :   -0.199008
   5 H :    0.036699
   6 C :   -0.028264
   7 H :    0.031431
   8 H :    0.029117
   9 C :   -0.040644
  10 H :    0.018433
  11 H :    0.031389
  12 C :   -0.073160
  13 H :    0.021555
  14 H :    0.033407
  15 H :    0.020332
  16 S :    0.417206
  17 C :   -0.177261
  18 C :   -0.072348
  19 C :   -0.062784
  20 C :   -0.219719
  21 H :    0.036750
  22 C :   -0.038297
  23 H :    0.042368
  24 H :    0.031776
  25 C :   -0.038354
  26 H :    0.026115
  27 H :    0.025017
  28 C :   -0.059986
  29 H :    0.026252
  30 H :    0.020524
  31 H :    0.023228
  32 H :    0.050982
  33 H :    0.019077

  Mayer bond orders larger than 0.100000
B(  0-S ,  1-C ) :   1.1496 B(  0-S ,  4-C ) :   1.1581 B(  1-C ,  2-C ) :   1.5897
B(  1-C , 32-H ) :   0.9583 B(  2-C ,  3-C ) :   1.2442 B(  2-C ,  6-C ) :   1.0000
B(  3-C ,  4-C ) :   1.5816 B(  3-C ,  5-H ) :   0.9896 B(  4-C , 20-C ) :   1.0202
B(  6-C ,  7-H ) :   0.9572 B(  6-C ,  8-H ) :   0.9442 B(  6-C ,  9-C ) :   1.0603
B(  9-C , 10-H ) :   0.9613 B(  9-C , 11-H ) :   0.9612 B(  9-C , 12-C ) :   1.0609
B( 12-C , 13-H ) :   0.9789 B( 12-C , 14-H ) :   0.9732 B( 12-C , 15-H ) :   0.9760
B( 16-S , 17-C ) :   1.1524 B( 16-S , 20-C ) :   1.1614 B( 17-C , 18-C ) :   1.5990
B( 17-C , 33-H ) :   0.9765 B( 18-C , 19-C ) :   1.2551 B( 18-C , 21-H ) :   0.9821
B( 19-C , 20-C ) :   1.5798 B( 19-C , 22-C ) :   1.0395 B( 22-C , 23-H ) :   0.9276
B( 22-C , 24-H ) :   0.9282 B( 22-C , 25-C ) :   1.0608 B( 25-C , 26-H ) :   0.9601
B( 25-C , 27-H ) :   0.9505 B( 25-C , 28-C ) :   1.0971 B( 28-C , 29-H ) :   0.9756
B( 28-C , 30-H ) :   0.9717 B( 28-C , 31-H ) :   0.9732

Dispersion correction           -0.014258570
FINAL SINGLE POINT ENERGY     -1339.865201782786

DIPOLE MOMENT
-------------
                                X             Y             Z
Electronic contribution:     10.54405      -1.48605     -17.54916
Nuclear contribution   :    -10.60434       1.47076      18.08295
                        -----------------------------------------
Total Dipole Moment    :     -0.06030      -0.01530       0.53379
                        -----------------------------------------
Magnitude (a.u.)       :      0.53740
Magnitude (Debye)      :      1.36597

Rotational constants in cm-1:     0.020289     0.007982     0.006615
Rotational constants in MHz :   608.251607   239.296995   198.314907

                             ****ORCA TERMINATED NORMALLY****
TOTAL RUN TIME: 0 days 0 hours 0 minutes 27 seconds 771 msec
