                         Program Version 4.2.1 -  RELEASE  -
|  1> ! wB97X-D3 SP def2-SVP
|  2> %pal
|  3> nprocs 16
|  4> end
|  5>
|  6> * xyz 0 1
|  7> S 	 -92.7771 	 57.2616 	 130.091
|  8> C 	 -91.4006 	 56.7012 	 131.059
|  9> C 	 -90.311 	 56.2596 	 130.278
| 10> C 	 -90.7785 	 56.1878 	 128.907
| 11> C 	 -92.0929 	 56.6089 	 128.569
| 12> H 	 -90.2092 	 56.0051 	 127.991
| 13> C 	 -88.8907 	 55.8996 	 130.718
| 14> H 	 -88.7689 	 56.3196 	 131.732
| 15> H 	 -88.258 	 56.4587 	 130.103
| 16> C 	 -88.5186 	 54.3584 	 130.691
| 17> H 	 -88.9303 	 54.0485 	 131.633
| 18> H 	 -88.9718 	 53.7598 	 129.891
| 19> C 	 -87.0291 	 54.0928 	 130.605
| 20> H 	 -86.5756 	 54.5482 	 131.522
| 21> H 	 -86.8217 	 52.9866 	 130.612
| 22> H 	 -86.7604 	 54.5384 	 129.642
| 23> S 	 -93.1693 	 58.3585 	 126.676
| 24> C 	 -93.5985 	 57.7665 	 125.093
| 25> C 	 -93.5203 	 56.3895 	 125.033
| 26> C 	 -92.9521 	 55.856 	 126.271
| 27> C 	 -92.7128 	 56.8148 	 127.283
| 28> H 	 -93.9339 	 55.8504 	 124.184
| 29> C 	 -92.7776 	 54.4258 	 126.483
| 30> H 	 -93.5021 	 54.0049 	 125.79
| 31> H 	 -93.1011 	 54.1383 	 127.566
| 32> C 	 -91.4466 	 53.8415 	 125.994
| 33> H 	 -91.465 	 52.7639 	 126.051
| 34> H 	 -90.7342 	 54.035 	 126.822
| 35> C 	 -90.9808 	 54.4045 	 124.672
| 36> H 	 -89.9297 	 54.0887 	 124.463
| 37> H 	 -90.9202 	 55.4892 	 124.713
| 38> H 	 -91.5883 	 54.221 	 123.761
| 39> H 	 -91.3512 	 56.7654 	 132.122
| 40> H 	 -94.0344 	 58.4156 	 124.379
| 41> *
| 42>
| 43>                          ****END OF INPUT****

CARTESIAN COORDINATES (ANGSTROEM)
---------------------------------
  S    -92.777100   57.261600  130.091000
  C    -91.400600   56.701200  131.059000
  C    -90.311000   56.259600  130.278000
  C    -90.778500   56.187800  128.907000
  C    -92.092900   56.608900  128.569000
  H    -90.209200   56.005100  127.991000
  C    -88.890700   55.899600  130.718000
  H    -88.768900   56.319600  131.732000
  H    -88.258000   56.458700  130.103000
  C    -88.518600   54.358400  130.691000
  H    -88.930300   54.048500  131.633000
  H    -88.971800   53.759800  129.891000
  C    -87.029100   54.092800  130.605000
  H    -86.575600   54.548200  131.522000
  H    -86.821700   52.986600  130.612000
  H    -86.760400   54.538400  129.642000
  S    -93.169300   58.358500  126.676000
  C    -93.598500   57.766500  125.093000
  C    -93.520300   56.389500  125.033000
  C    -92.952100   55.856000  126.271000
  C    -92.712800   56.814800  127.283000
  H    -93.933900   55.850400  124.184000
  C    -92.777600   54.425800  126.483000
  H    -93.502100   54.004900  125.790000
  H    -93.101100   54.138300  127.566000
  C    -91.446600   53.841500  125.994000
  H    -91.465000   52.763900  126.051000
  H    -90.734200   54.035000  126.822000
  C    -90.980800   54.404500  124.672000
  H    -89.929700   54.088700  124.463000
  H    -90.920200   55.489200  124.713000
  H    -91.588300   54.221000  123.761000
  H    -91.351200   56.765400  132.122000
  H    -94.034400   58.415600  124.379000

 Total Charge           Charge          ....    0
 Multiplicity           Mult            ....    1
 Number of Electrons    NEL             ....  134
 Basis Dimension        Dim             ....  322

ORBITAL ENERGIES
----------------

  NO   OCC          E(Eh)            E(eV)
   0   2.0000     -88.966307     -2420.8963
   1   2.0000     -88.964030     -2420.8343
   2   2.0000     -10.336404      -281.2679
   3   2.0000     -10.326316      -280.9934
   4   2.0000     -10.322213      -280.8817
   5   2.0000     -10.317864      -280.7634
   6   2.0000     -10.313431      -280.6427
   7   2.0000     -10.303362      -280.3687
   8   2.0000     -10.302312      -280.3402
   9   2.0000     -10.300249      -280.2840
  10   2.0000     -10.299832      -280.2727
  11   2.0000     -10.288845      -279.9737
  12   2.0000     -10.287439      -279.9354
  13   2.0000     -10.287102      -279.9263
  14   2.0000     -10.284709      -279.8612
  15   2.0000     -10.279260      -279.7129
  16   2.0000      -8.079919      -219.8658
  17   2.0000      -8.079454      -219.8531
  18   2.0000      -6.038550      -164.3173
  19   2.0000      -6.037947      -164.3009
  20   2.0000      -6.034530      -164.2079
  21   2.0000      -6.033708      -164.1855
  22   2.0000      -6.030654      -164.1025
  23   2.0000      -6.030346      -164.0941
  24   2.0000      -1.003748       -27.3134
  25   2.0000      -0.977234       -26.5919
  26   2.0000      -0.914063       -24.8729
  27   2.0000      -0.910018       -24.7629
  28   2.0000      -0.873283       -23.7632
  29   2.0000      -0.846220       -23.0268
  30   2.0000      -0.843856       -22.9625
  31   2.0000      -0.814966       -22.1763
  32   2.0000      -0.782503       -21.2930
  33   2.0000      -0.770274       -20.9602
  34   2.0000      -0.711696       -19.3662
  35   2.0000      -0.697763       -18.9871
  36   2.0000      -0.692015       -18.8307
  37   2.0000      -0.664029       -18.0691
  38   2.0000      -0.645760       -17.5720
  39   2.0000      -0.611150       -16.6302
  40   2.0000      -0.582595       -15.8532
  41   2.0000      -0.571101       -15.5404
  42   2.0000      -0.568915       -15.4810
  43   2.0000      -0.552447       -15.0328
  44   2.0000      -0.550107       -14.9692
  45   2.0000      -0.529612       -14.4115
  46   2.0000      -0.516671       -14.0593
  47   2.0000      -0.511938       -13.9305
  48   2.0000      -0.506934       -13.7944
  49   2.0000      -0.496412       -13.5081
  50   2.0000      -0.491955       -13.3868
  51   2.0000      -0.481325       -13.0975
  52   2.0000      -0.472258       -12.8508
  53   2.0000      -0.463230       -12.6051
  54   2.0000      -0.457476       -12.4486
  55   2.0000      -0.442161       -12.0318
  56   2.0000      -0.437724       -11.9111
  57   2.0000      -0.434910       -11.8345
  58   2.0000      -0.430464       -11.7135
  59   2.0000      -0.427458       -11.6317
  60   2.0000      -0.424476       -11.5506
  61   2.0000      -0.418527       -11.3887
  62   2.0000      -0.400254       -10.8915
  63   2.0000      -0.348018        -9.4701
  64   2.0000      -0.327319        -8.9068
  65   2.0000      -0.323154        -8.7935
  66   2.0000      -0.292883        -7.9698
  67   0.0000       0.027277         0.7422
  68   0.0000       0.061912         1.6847
  69   0.0000       0.108816         2.9610
  70   0.0000       0.114520         3.1163
  71   0.0000       0.128592         3.4992

MULLIKEN ATOMIC CHARGES
-----------------------
   0 S :    0.097209
   1 C :   -0.107779
   2 C :   -0.096839
   3 C :    0.032120
   4 C :   -0.190633
   5 H :    0.021560
   6 C :    0.092061
   7 H :    0.024460
   8 H :    0.017032
   9 C :   -0.079553
  10 H :    0.023412
  11 H :    0.041726
  12 C :   -0.067888
  13 H :    0.042132
  14 H :    0.048652
  15 H :    0.041121
  16 S :    0.107515
  17 C :   -0.090519
  18 C :   -0.019089
  19 C :   -0.103256
  20 C :   -0.120969
  21 H :    0.032214
  22 C :    0.047509
  23 H :    0.011666
  24 H :    0.060823
  25 C :   -0.041592
  26 H :    0.022360
  27 H :    0.011045
  28 C :   -0.061782
  29 H :    0.035493
  30 H :    0.043820
  31 H :    0.034706
  32 H :    0.040191
  33 H :    0.051074
Sum of atomic charges:   -0.0000000

LOEWDIN ATOMIC CHARGES
----------------------
   0 S :    0.379954
   1 C :   -0.179876
   2 C :   -0.060853
   3 C :   -0.057460
   4 C :   -0.189207
   5 H :    0.028692
   6 C :   -0.023055
   7 H :    0.034819
   8 H :    0.022468
   9 C :   -0.040817
  10 H :    0.019498
  11 H :    0.026045
  12 C :   -0.068631
  13 H :    0.029762
  14 H :    0.033562
  15 H :    0.027054
  16 S :    0.421143
  17 C :   -0.178385
  18 C :   -0.070150
  19 C :   -0.055381
  20 C :   -0.224246
  21 H :    0.036105
  22 C :   -0.046644
  23 H :    0.028711
  24 H :    0.047233
  25 C :   -0.043758
  26 H :    0.022014
  27 H :    0.023044
  28 C :   -0.072751
  29 H :    0.032020
  30 H :    0.027915
  31 H :    0.027080
  32 H :    0.021766
  33 H :    0.022329

  Mayer bond orders larger than 0.100000
B(  0-S ,  1-C ) :   1.1566 B(  0-S ,  4-C ) :   1.1163 B(  1-C ,  2-C ) :   1.5935
B(  1-C ,  4-C ) :   0.1061 B(  1-C , 32-H ) :   0.9687 B(  2-C ,  3-C ) :   1.2359
B(  2-C ,  6-C ) :   1.0262 B(  3-C ,  4-C ) :   1.5885 B(  3-C ,  5-H ) :   0.9751
B(  4-C , 20-C ) :   1.0734 B(  6-C ,  7-H ) :   0.9392 B(  6-C ,  8-H ) :   0.9413
B(  6-C ,  9-C ) :   1.0346 B(  9-C , 10-H ) :   0.9573 B(  9-C , 11-H ) :   0.9669
B(  9-C , 12-C ) :   1.0758 B( 12-C , 13-H ) :   0.9750 B( 12-C , 14-H ) :   0.9736
B( 12-C , 15-H ) :   0.9776 B( 16-S , 17-C ) :   1.1762 B( 16-S , 20-C ) :   1.1348
B( 17-C , 18-C ) :   1.5837 B( 17-C , 33-H ) :   0.9716 B( 18-C , 19-C ) :   1.2422
B( 18-C , 21-H ) :   0.9893 B( 19-C , 20-C ) :   1.5549 B( 19-C , 22-C ) :   1.0615
B( 22-C , 23-H ) :   0.9247 B( 22-C , 24-H ) :   0.9351 B( 22-C , 25-C ) :   1.0594
B( 25-C , 26-H ) :   0.9536 B( 25-C , 27-H ) :   0.9451 B( 25-C , 28-C ) :   1.0827
B( 28-C , 29-H ) :   0.9701 B( 28-C , 30-H ) :   0.9614 B( 28-C , 31-H ) :   0.9736

Dispersion correction           -0.014829248
FINAL SINGLE POINT ENERGY     -1339.865671502173

DIPOLE MOMENT
-------------
                                X             Y             Z
Electronic contribution:    -21.17405      20.97631       2.15141
Nuclear contribution   :     21.61739     -21.38656      -2.28755
                        -----------------------------------------
Total Dipole Moment    :      0.44334      -0.41025      -0.13614
                        -----------------------------------------
Magnitude (a.u.)       :      0.61918
Magnitude (Debye)      :      1.57384

Rotational constants in cm-1:     0.018984     0.008814     0.006625
Rotational constants in MHz :   569.137952   264.231696   198.608063

                             ****ORCA TERMINATED NORMALLY****
TOTAL RUN TIME: 0 days 0 hours 0 minutes 36 seconds 731 msec
