                         Program Version 4.2.1 -  RELEASE  -
|  1> ! wB97X-D3 SP def2-SVP
|  2> %pal
|  3> nprocs 16
|  4> end
|  5>
|  6> * xyz 0 1
|  7> S 	 -40.83 	 65.5047 	 147.074
|  8> C 	 -40.7613 	 64.8303 	 145.505
|  9> C 	 -39.8721 	 65.527 	 144.728
| 10> C 	 -39.2283 	 66.5972 	 145.41
| 11> C 	 -39.6723 	 66.7941 	 146.735
| 12> H 	 -38.5684 	 67.3458 	 144.911
| 13> C 	 -39.4778 	 65.1427 	 143.293
| 14> H 	 -39.1991 	 65.9644 	 142.634
| 15> H 	 -40.3345 	 64.7196 	 142.725
| 16> C 	 -38.276 	 64.1961 	 143.259
| 17> H 	 -38.4818 	 63.3825 	 143.934
| 18> H 	 -38.2278 	 63.7434 	 142.262
| 19> C 	 -36.953 	 64.749 	 143.659
| 20> H 	 -36.2506 	 63.8653 	 143.787
| 21> H 	 -36.5843 	 65.4169 	 142.881
| 22> H 	 -36.9187 	 65.2889 	 144.625
| 23> S 	 -40.7063 	 68.7617 	 148.448
| 24> C 	 -39.6655 	 69.5357 	 149.638
| 25> C 	 -38.3415 	 69.0448 	 149.453
| 26> C 	 -38.211 	 68.11 	 148.397
| 27> C 	 -39.3945 	 67.789 	 147.78
| 28> H 	 -37.6454 	 69.3509 	 150.181
| 29> C 	 -36.9314 	 67.3959 	 148.13
| 30> H 	 -36.1071 	 67.9059 	 148.652
| 31> H 	 -36.623 	 67.4335 	 147.054
| 32> C 	 -36.9049 	 65.9478 	 148.679
| 33> H 	 -37.7395 	 65.5093 	 148.118
| 34> H 	 -37.3352 	 65.9478 	 149.671
| 35> C 	 -35.6754 	 65.1367 	 148.359
| 36> H 	 -34.7041 	 65.389 	 148.67
| 37> H 	 -35.6538 	 64.8872 	 147.363
| 38> H 	 -35.8304 	 64.1887 	 148.8
| 39> H 	 -41.326 	 64.0019 	 145.08
| 40> H 	 -39.983 	 70.1859 	 150.473
| 41> *
| 42>
| 43>                          ****END OF INPUT****

CARTESIAN COORDINATES (ANGSTROEM)
---------------------------------
  S    -40.830000   65.504700  147.074000
  C    -40.761300   64.830300  145.505000
  C    -39.872100   65.527000  144.728000
  C    -39.228300   66.597200  145.410000
  C    -39.672300   66.794100  146.735000
  H    -38.568400   67.345800  144.911000
  C    -39.477800   65.142700  143.293000
  H    -39.199100   65.964400  142.634000
  H    -40.334500   64.719600  142.725000
  C    -38.276000   64.196100  143.259000
  H    -38.481800   63.382500  143.934000
  H    -38.227800   63.743400  142.262000
  C    -36.953000   64.749000  143.659000
  H    -36.250600   63.865300  143.787000
  H    -36.584300   65.416900  142.881000
  H    -36.918700   65.288900  144.625000
  S    -40.706300   68.761700  148.448000
  C    -39.665500   69.535700  149.638000
  C    -38.341500   69.044800  149.453000
  C    -38.211000   68.110000  148.397000
  C    -39.394500   67.789000  147.780000
  H    -37.645400   69.350900  150.181000
  C    -36.931400   67.395900  148.130000
  H    -36.107100   67.905900  148.652000
  H    -36.623000   67.433500  147.054000
  C    -36.904900   65.947800  148.679000
  H    -37.739500   65.509300  148.118000
  H    -37.335200   65.947800  149.671000
  C    -35.675400   65.136700  148.359000
  H    -34.704100   65.389000  148.670000
  H    -35.653800   64.887200  147.363000
  H    -35.830400   64.188700  148.800000
  H    -41.326000   64.001900  145.080000
  H    -39.983000   70.185900  150.473000

 Total Charge           Charge          ....    0
 Multiplicity           Mult            ....    1
 Number of Electrons    NEL             ....  134
 Basis Dimension        Dim             ....  322

ORBITAL ENERGIES
----------------

  NO   OCC          E(Eh)            E(eV)
   0   2.0000     -88.967914     -2420.9400
   1   2.0000     -88.967879     -2420.9391
   2   2.0000     -10.337608      -281.3006
   3   2.0000     -10.328809      -281.0612
   4   2.0000     -10.326120      -280.9880
   5   2.0000     -10.313928      -280.6562
   6   2.0000     -10.302777      -280.3528
   7   2.0000     -10.301446      -280.3166
   8   2.0000     -10.301172      -280.3091
   9   2.0000     -10.295161      -280.1456
  10   2.0000     -10.294376      -280.1242
  11   2.0000     -10.287840      -279.9464
  12   2.0000     -10.280996      -279.7601
  13   2.0000     -10.280525      -279.7473
  14   2.0000     -10.279498      -279.7194
  15   2.0000     -10.261796      -279.2377
  16   2.0000      -8.082735      -219.9424
  17   2.0000      -8.081933      -219.9206
  18   2.0000      -6.041164      -164.3884
  19   2.0000      -6.040427      -164.3684
  20   2.0000      -6.037005      -164.2753
  21   2.0000      -6.036338      -164.2571
  22   2.0000      -6.033741      -164.1864
  23   2.0000      -6.032932      -164.1644
  24   2.0000      -1.007439       -27.4138
  25   2.0000      -0.986418       -26.8418
  26   2.0000      -0.914047       -24.8725
  27   2.0000      -0.908359       -24.7177
  28   2.0000      -0.869249       -23.6535
  29   2.0000      -0.854887       -23.2627
  30   2.0000      -0.844784       -22.9877
  31   2.0000      -0.815662       -22.1953
  32   2.0000      -0.785713       -21.3803
  33   2.0000      -0.775286       -21.0966
  34   2.0000      -0.709798       -19.3146
  35   2.0000      -0.694532       -18.8992
  36   2.0000      -0.692168       -18.8348
  37   2.0000      -0.665521       -18.1097
  38   2.0000      -0.641246       -17.4492
  39   2.0000      -0.617658       -16.8073
  40   2.0000      -0.594898       -16.1880
  41   2.0000      -0.580160       -15.7870
  42   2.0000      -0.561988       -15.2925
  43   2.0000      -0.544544       -14.8178
  44   2.0000      -0.544306       -14.8113
  45   2.0000      -0.524329       -14.2677
  46   2.0000      -0.517955       -14.0943
  47   2.0000      -0.510406       -13.8889
  48   2.0000      -0.506817       -13.7912
  49   2.0000      -0.504835       -13.7372
  50   2.0000      -0.492436       -13.3999
  51   2.0000      -0.481846       -13.1117
  52   2.0000      -0.479209       -13.0399
  53   2.0000      -0.470122       -12.7927
  54   2.0000      -0.461766       -12.5653
  55   2.0000      -0.448863       -12.2142
  56   2.0000      -0.436481       -11.8772
  57   2.0000      -0.433096       -11.7851
  58   2.0000      -0.428093       -11.6490
  59   2.0000      -0.423552       -11.5254
  60   2.0000      -0.419044       -11.4028
  61   2.0000      -0.414576       -11.2812
  62   2.0000      -0.401233       -10.9181
  63   2.0000      -0.342769        -9.3272
  64   2.0000      -0.333926        -9.0866
  65   2.0000      -0.329338        -8.9617
  66   2.0000      -0.298106        -8.1119
  67   0.0000       0.026491         0.7209
  68   0.0000       0.063454         1.7267
  69   0.0000       0.119344         3.2475
  70   0.0000       0.123217         3.3529
  71   0.0000       0.126347         3.4381

MULLIKEN ATOMIC CHARGES
-----------------------
   0 S :    0.120893
   1 C :   -0.100119
   2 C :   -0.111415
   3 C :    0.045051
   4 C :   -0.194794
   5 H :    0.034714
   6 C :    0.047270
   7 H :    0.018033
   8 H :    0.025918
   9 C :   -0.049636
  10 H :    0.013120
  11 H :    0.028332
  12 C :   -0.077639
  13 H :    0.042263
  14 H :    0.029361
  15 H :    0.047271
  16 S :    0.117546
  17 C :   -0.119700
  18 C :   -0.035578
  19 C :    0.007336
  20 C :   -0.166835
  21 H :    0.008165
  22 C :    0.056783
  23 H :    0.010340
  24 H :    0.027622
  25 C :   -0.084842
  26 H :    0.022763
  27 H :    0.022884
  28 C :    0.055792
  29 H :    0.019370
  30 H :    0.002826
  31 H :    0.009832
  32 H :    0.050566
  33 H :    0.076510
Sum of atomic charges:   -0.0000000

LOEWDIN ATOMIC CHARGES
----------------------
   0 S :    0.427462
   1 C :   -0.209598
   2 C :   -0.070604
   3 C :   -0.066454
   4 C :   -0.192625
   5 H :    0.039080
   6 C :   -0.035868
   7 H :    0.027127
   8 H :    0.032777
   9 C :   -0.045578
  10 H :    0.019139
  11 H :    0.026429
  12 C :   -0.071473
  13 H :    0.036550
  14 H :    0.022032
  15 H :    0.027085
  16 S :    0.406830
  17 C :   -0.189057
  18 C :   -0.065284
  19 C :   -0.057545
  20 C :   -0.206286
  21 H :    0.025221
  22 C :   -0.037140
  23 H :    0.025437
  24 H :    0.031917
  25 C :   -0.039307
  26 H :    0.027174
  27 H :    0.023407
  28 C :   -0.056394
  29 H :    0.018383
  30 H :    0.019856
  31 H :    0.030853
  32 H :    0.036550
  33 H :    0.039907

  Mayer bond orders larger than 0.100000
B(  0-S ,  1-C ) :   1.1537 B(  0-S ,  4-C ) :   1.1666 B(  1-C ,  2-C ) :   1.5960
B(  1-C ,  4-C ) :   0.1068 B(  1-C , 32-H ) :   0.9645 B(  2-C ,  3-C ) :   1.2730
B(  2-C ,  6-C ) :   1.0268 B(  3-C ,  4-C ) :   1.5445 B(  3-C ,  5-H ) :   0.9849
B(  4-C , 20-C ) :   1.0325 B(  6-C ,  7-H ) :   0.9452 B(  6-C ,  8-H ) :   0.9419
B(  6-C ,  9-C ) :   1.0678 B(  9-C , 10-H ) :   0.9527 B(  9-C , 11-H ) :   0.9509
B(  9-C , 12-C ) :   1.0911 B( 12-C , 13-H ) :   0.9708 B( 12-C , 14-H ) :   0.9722
B( 12-C , 15-H ) :   0.9669 B( 16-S , 17-C ) :   1.1692 B( 16-S , 20-C ) :   1.1473
B( 17-C , 18-C ) :   1.5768 B( 17-C , 20-C ) :   0.1080 B( 17-C , 33-H ) :   0.9644
B( 18-C , 19-C ) :   1.2586 B( 18-C , 21-H ) :   0.9986 B( 19-C , 20-C ) :   1.5611
B( 19-C , 22-C ) :   1.0629 B( 22-C , 23-H ) :   0.9294 B( 22-C , 24-H ) :   0.9292
B( 22-C , 25-C ) :   1.0587 B( 25-C , 26-H ) :   0.9492 B( 25-C , 27-H ) :   0.9558
B( 25-C , 28-C ) :   1.0813 B( 28-C , 29-H ) :   0.9759 B( 28-C , 30-H ) :   0.9643
B( 28-C , 31-H ) :   0.9589

Dispersion correction           -0.015600570
FINAL SINGLE POINT ENERGY     -1339.879689547170

DIPOLE MOMENT
-------------
                                X             Y             Z
Electronic contribution:    -23.24042      13.21790      11.44818
Nuclear contribution   :     23.68046     -13.45781     -11.64942
                        -----------------------------------------
Total Dipole Moment    :      0.44004      -0.23991      -0.20124
                        -----------------------------------------
Magnitude (a.u.)       :      0.54008
Magnitude (Debye)      :      1.37278

Rotational constants in cm-1:     0.019496     0.009672     0.007502
Rotational constants in MHz :   584.477007   289.946831   224.896286

                             ****ORCA TERMINATED NORMALLY****
TOTAL RUN TIME: 0 days 0 hours 0 minutes 36 seconds 872 msec
