                         Program Version 4.2.1 -  RELEASE  -
|  1> ! wB97X-D3 SP def2-SVP
|  2> %pal
|  3> nprocs 16
|  4> end
|  5>
|  6> * xyz 0 1
|  7> S 	 -29.797 	 61.3941 	 117.234
|  8> C 	 -29.2394 	 59.94 	 116.39
|  9> C 	 -30.2656 	 59.376 	 115.63
| 10> C 	 -31.4309 	 60.2222 	 115.588
| 11> C 	 -31.2654 	 61.3566 	 116.269
| 12> H 	 -32.2997 	 60.0618 	 115.008
| 13> C 	 -30.1865 	 58.0298 	 114.926
| 14> H 	 -29.6171 	 57.5142 	 115.608
| 15> H 	 -29.6986 	 58.0954 	 113.941
| 16> C 	 -31.5711 	 57.3121 	 114.686
| 17> H 	 -32.2152 	 57.2909 	 115.602
| 18> H 	 -32.0551 	 58.0338 	 114.075
| 19> C 	 -31.515 	 55.9056 	 114.056
| 20> H 	 -31.1274 	 55.0616 	 114.707
| 21> H 	 -32.5755 	 55.5726 	 113.895
| 22> H 	 -30.8942 	 55.9302 	 113.086
| 23> S 	 -31.8277 	 63.5155 	 117.722
| 24> C 	 -33.2633 	 64.4019 	 117.385
| 25> C 	 -34.0077 	 63.9079 	 116.306
| 26> C 	 -33.3831 	 62.8035 	 115.746
| 27> C 	 -32.1851 	 62.4317 	 116.368
| 28> H 	 -34.864 	 64.3824 	 115.935
| 29> C 	 -34.0348 	 62.0755 	 114.547
| 30> H 	 -33.2248 	 61.5975 	 113.891
| 31> H 	 -34.4789 	 62.918 	 113.996
| 32> C 	 -35.1777 	 61.0879 	 114.773
| 33> H 	 -36.0853 	 61.6924 	 115.127
| 34> H 	 -34.9143 	 60.4125 	 115.56
| 35> C 	 -35.8609 	 60.3377 	 113.583
| 36> H 	 -35.2419 	 59.7544 	 112.89
| 37> H 	 -36.447 	 61.0509 	 113.022
| 38> H 	 -36.6111 	 59.6264 	 113.942
| 39> H 	 -28.2723 	 59.4618 	 116.414
| 40> H 	 -33.5483 	 65.2201 	 118.051
| 41> *
| 42>
| 43>                          ****END OF INPUT****

CARTESIAN COORDINATES (ANGSTROEM)
---------------------------------
  S    -29.797000   61.394100  117.234000
  C    -29.239400   59.940000  116.390000
  C    -30.265600   59.376000  115.630000
  C    -31.430900   60.222200  115.588000
  C    -31.265400   61.356600  116.269000
  H    -32.299700   60.061800  115.008000
  C    -30.186500   58.029800  114.926000
  H    -29.617100   57.514200  115.608000
  H    -29.698600   58.095400  113.941000
  C    -31.571100   57.312100  114.686000
  H    -32.215200   57.290900  115.602000
  H    -32.055100   58.033800  114.075000
  C    -31.515000   55.905600  114.056000
  H    -31.127400   55.061600  114.707000
  H    -32.575500   55.572600  113.895000
  H    -30.894200   55.930200  113.086000
  S    -31.827700   63.515500  117.722000
  C    -33.263300   64.401900  117.385000
  C    -34.007700   63.907900  116.306000
  C    -33.383100   62.803500  115.746000
  C    -32.185100   62.431700  116.368000
  H    -34.864000   64.382400  115.935000
  C    -34.034800   62.075500  114.547000
  H    -33.224800   61.597500  113.891000
  H    -34.478900   62.918000  113.996000
  C    -35.177700   61.087900  114.773000
  H    -36.085300   61.692400  115.127000
  H    -34.914300   60.412500  115.560000
  C    -35.860900   60.337700  113.583000
  H    -35.241900   59.754400  112.890000
  H    -36.447000   61.050900  113.022000
  H    -36.611100   59.626400  113.942000
  H    -28.272300   59.461800  116.414000
  H    -33.548300   65.220100  118.051000

 Total Charge           Charge          ....    0
 Multiplicity           Mult            ....    1
 Number of Electrons    NEL             ....  134
 Basis Dimension        Dim             ....  322

ORBITAL ENERGIES
----------------

  NO   OCC          E(Eh)            E(eV)
   0   2.0000     -88.967544     -2420.9300
   1   2.0000     -88.965517     -2420.8748
   2   2.0000     -10.325096      -280.9602
   3   2.0000     -10.322305      -280.8842
   4   2.0000     -10.319506      -280.8080
   5   2.0000     -10.312698      -280.6228
   6   2.0000     -10.305937      -280.4388
   7   2.0000     -10.302455      -280.3440
   8   2.0000     -10.301698      -280.3235
   9   2.0000     -10.296870      -280.1921
  10   2.0000     -10.295449      -280.1534
  11   2.0000     -10.292795      -280.0812
  12   2.0000     -10.291948      -280.0582
  13   2.0000     -10.288335      -279.9598
  14   2.0000     -10.285146      -279.8731
  15   2.0000     -10.283688      -279.8334
  16   2.0000      -8.082863      -219.9459
  17   2.0000      -8.079984      -219.8675
  18   2.0000      -6.041123      -164.3873
  19   2.0000      -6.038734      -164.3223
  20   2.0000      -6.037372      -164.2853
  21   2.0000      -6.034864      -164.2170
  22   2.0000      -6.033789      -164.1877
  23   2.0000      -6.030172      -164.0893
  24   2.0000      -1.012954       -27.5639
  25   2.0000      -0.983957       -26.7748
  26   2.0000      -0.909991       -24.7621
  27   2.0000      -0.905070       -24.6282
  28   2.0000      -0.871855       -23.7244
  29   2.0000      -0.859116       -23.3777
  30   2.0000      -0.843644       -22.9567
  31   2.0000      -0.816150       -22.2086
  32   2.0000      -0.787053       -21.4168
  33   2.0000      -0.769745       -20.9458
  34   2.0000      -0.713701       -19.4208
  35   2.0000      -0.696730       -18.9590
  36   2.0000      -0.690230       -18.7821
  37   2.0000      -0.671042       -18.2600
  38   2.0000      -0.637560       -17.3489
  39   2.0000      -0.624951       -17.0058
  40   2.0000      -0.595315       -16.1993
  41   2.0000      -0.573566       -15.6075
  42   2.0000      -0.567774       -15.4499
  43   2.0000      -0.555880       -15.1263
  44   2.0000      -0.525383       -14.2964
  45   2.0000      -0.520409       -14.1611
  46   2.0000      -0.512090       -13.9347
  47   2.0000      -0.506591       -13.7850
  48   2.0000      -0.503320       -13.6960
  49   2.0000      -0.502507       -13.6739
  50   2.0000      -0.496625       -13.5139
  51   2.0000      -0.486749       -13.2451
  52   2.0000      -0.474667       -12.9163
  53   2.0000      -0.470959       -12.8154
  54   2.0000      -0.463382       -12.6093
  55   2.0000      -0.458947       -12.4886
  56   2.0000      -0.450136       -12.2488
  57   2.0000      -0.437802       -11.9132
  58   2.0000      -0.428726       -11.6662
  59   2.0000      -0.423012       -11.5107
  60   2.0000      -0.417089       -11.3496
  61   2.0000      -0.412469       -11.2238
  62   2.0000      -0.409466       -11.1421
  63   2.0000      -0.362378        -9.8608
  64   2.0000      -0.343028        -9.3343
  65   2.0000      -0.327391        -8.9088
  66   2.0000      -0.274469        -7.4687
  67   0.0000       0.016446         0.4475
  68   0.0000       0.073385         1.9969
  69   0.0000       0.091762         2.4970
  70   0.0000       0.120174         3.2701
  71   0.0000       0.124358         3.3840

MULLIKEN ATOMIC CHARGES
-----------------------
   0 S :    0.092637
   1 C :   -0.109998
   2 C :   -0.098249
   3 C :   -0.049378
   4 C :   -0.036593
   5 H :   -0.018287
   6 C :    0.113296
   7 H :    0.005570
   8 H :    0.045521
   9 C :   -0.120209
  10 H :    0.037693
  11 H :    0.030875
  12 C :   -0.074724
  13 H :    0.047801
  14 H :    0.042771
  15 H :    0.047389
  16 S :    0.087058
  17 C :   -0.088282
  18 C :   -0.006216
  19 C :   -0.046519
  20 C :   -0.121021
  21 H :   -0.002311
  22 C :    0.018803
  23 H :    0.045812
  24 H :    0.021402
  25 C :   -0.079051
  26 H :    0.031637
  27 H :    0.033706
  28 C :   -0.048787
  29 H :    0.032867
  30 H :    0.027191
  31 H :    0.035470
  32 H :    0.038847
  33 H :    0.063281
Sum of atomic charges:    0.0000000

LOEWDIN ATOMIC CHARGES
----------------------
   0 S :    0.375920
   1 C :   -0.195267
   2 C :   -0.049916
   3 C :   -0.070391
   4 C :   -0.175856
   5 H :    0.023159
   6 C :   -0.026889
   7 H :    0.017580
   8 H :    0.036447
   9 C :   -0.046376
  10 H :    0.029683
  11 H :    0.016893
  12 C :   -0.079011
  13 H :    0.032487
  14 H :    0.033521
  15 H :    0.033930
  16 S :    0.411169
  17 C :   -0.185106
  18 C :   -0.065002
  19 C :   -0.056462
  20 C :   -0.182124
  21 H :    0.025838
  22 C :   -0.041119
  23 H :    0.034634
  24 H :    0.031901
  25 C :   -0.048077
  26 H :    0.034901
  27 H :    0.018218
  28 C :   -0.067994
  29 H :    0.021281
  30 H :    0.023331
  31 H :    0.032437
  32 H :    0.028332
  33 H :    0.027926

  Mayer bond orders larger than 0.100000
B(  0-S ,  1-C ) :   1.1015 B(  0-S ,  4-C ) :   1.1071 B(  1-C ,  2-C ) :   1.6647
B(  1-C , 32-H ) :   0.9693 B(  2-C ,  3-C ) :   1.1907 B(  2-C ,  6-C ) :   1.0044
B(  3-C ,  4-C ) :   1.6129 B(  3-C ,  5-H ) :   1.0024 B(  4-C , 20-C ) :   1.1149
B(  6-C ,  7-H ) :   0.9367 B(  6-C ,  8-H ) :   0.9325 B(  6-C ,  9-C ) :   1.0706
B(  9-C , 10-H ) :   0.9594 B(  9-C , 11-H ) :   0.9469 B(  9-C , 12-C ) :   1.0820
B( 12-C , 13-H ) :   0.9748 B( 12-C , 14-H ) :   0.9714 B( 12-C , 15-H ) :   0.9710
B( 16-S , 17-C ) :   1.1877 B( 16-S , 20-C ) :   1.1304 B( 17-C , 18-C ) :   1.5535
B( 17-C , 20-C ) :   0.1069 B( 17-C , 33-H ) :   0.9666 B( 18-C , 19-C ) :   1.2860
B( 18-C , 21-H ) :   1.0018 B( 19-C , 20-C ) :   1.5586 B( 19-C , 22-C ) :   1.0288
B( 22-C , 23-H ) :   0.9392 B( 22-C , 24-H ) :   0.9303 B( 22-C , 25-C ) :   1.0609
B( 25-C , 26-H ) :   0.9536 B( 25-C , 27-H ) :   0.9599 B( 25-C , 28-C ) :   1.0716
B( 28-C , 29-H ) :   0.9767 B( 28-C , 30-H ) :   0.9784 B( 28-C , 31-H ) :   0.9728

Dispersion correction           -0.013837228
FINAL SINGLE POINT ENERGY     -1339.861523835638

DIPOLE MOMENT
-------------
                                X             Y             Z
Electronic contribution:     16.12337      23.29167      20.03134
Nuclear contribution   :    -16.65498     -23.64096     -20.43877
                        -----------------------------------------
Total Dipole Moment    :     -0.53161      -0.34928      -0.40743
                        -----------------------------------------
Magnitude (a.u.)       :      0.75539
Magnitude (Debye)      :      1.92004

Rotational constants in cm-1:     0.016133     0.010124     0.006389
Rotational constants in MHz :   483.669219   303.515576   191.529060

                             ****ORCA TERMINATED NORMALLY****
TOTAL RUN TIME: 0 days 0 hours 0 minutes 28 seconds 275 msec
