                         Program Version 4.2.1 -  RELEASE  -
|  1> ! wB97X-D3 SP def2-SVP
|  2> %pal
|  3> nprocs 16
|  4> end
|  5>
|  6> * xyz 0 1
|  7> S 	 -40.0186 	 53.9004 	 114.144
|  8> C 	 -40.8631 	 55.1948 	 114.917
|  9> C 	 -42.0603 	 55.4976 	 114.283
| 10> C 	 -42.2892 	 54.7046 	 113.109
| 11> C 	 -41.2035 	 53.8506 	 112.854
| 12> H 	 -43.1502 	 54.7342 	 112.541
| 13> C 	 -43.0885 	 56.5334 	 114.687
| 14> H 	 -42.6166 	 57.2694 	 115.338
| 15> H 	 -43.8651 	 56.1465 	 115.365
| 16> C 	 -43.7424 	 57.3706 	 113.518
| 17> H 	 -44.2447 	 56.6805 	 112.902
| 18> H 	 -44.4983 	 58.109 	 113.871
| 19> C 	 -42.6886 	 58.139 	 112.689
| 20> H 	 -41.9012 	 57.5255 	 112.243
| 21> H 	 -43.2879 	 58.622 	 111.922
| 22> H 	 -42.196 	 58.9042 	 113.303
| 23> S 	 -40.9592 	 51.0536 	 112.454
| 24> C 	 -41.3025 	 50.3964 	 110.833
| 25> C 	 -41.5024 	 51.4302 	 109.932
| 26> C 	 -41.5837 	 52.7265 	 110.576
| 27> C 	 -41.2841 	 52.7219 	 111.903
| 28> H 	 -41.6188 	 51.2458 	 108.939
| 29> C 	 -41.9144 	 54.0211 	 109.807
| 30> H 	 -41.2486 	 54.0653 	 108.983
| 31> H 	 -41.5999 	 55.0073 	 110.294
| 32> C 	 -43.3511 	 54.2524 	 109.542
| 33> H 	 -43.8614 	 54.0157 	 110.457
| 34> H 	 -43.7372 	 53.4306 	 108.922
| 35> C 	 -43.8562 	 55.5932 	 109.04
| 36> H 	 -43.3358 	 55.86 	 108.137
| 37> H 	 -43.6839 	 56.3343 	 109.759
| 38> H 	 -44.8978 	 55.575 	 108.845
| 39> H 	 -40.4428 	 55.8526 	 115.716
| 40> H 	 -41.3588 	 49.3117 	 110.545
| 41> *
| 42>
| 43>                          ****END OF INPUT****

CARTESIAN COORDINATES (ANGSTROEM)
---------------------------------
  S    -40.018600   53.900400  114.144000
  C    -40.863100   55.194800  114.917000
  C    -42.060300   55.497600  114.283000
  C    -42.289200   54.704600  113.109000
  C    -41.203500   53.850600  112.854000
  H    -43.150200   54.734200  112.541000
  C    -43.088500   56.533400  114.687000
  H    -42.616600   57.269400  115.338000
  H    -43.865100   56.146500  115.365000
  C    -43.742400   57.370600  113.518000
  H    -44.244700   56.680500  112.902000
  H    -44.498300   58.109000  113.871000
  C    -42.688600   58.139000  112.689000
  H    -41.901200   57.525500  112.243000
  H    -43.287900   58.622000  111.922000
  H    -42.196000   58.904200  113.303000
  S    -40.959200   51.053600  112.454000
  C    -41.302500   50.396400  110.833000
  C    -41.502400   51.430200  109.932000
  C    -41.583700   52.726500  110.576000
  C    -41.284100   52.721900  111.903000
  H    -41.618800   51.245800  108.939000
  C    -41.914400   54.021100  109.807000
  H    -41.248600   54.065300  108.983000
  H    -41.599900   55.007300  110.294000
  C    -43.351100   54.252400  109.542000
  H    -43.861400   54.015700  110.457000
  H    -43.737200   53.430600  108.922000
  C    -43.856200   55.593200  109.040000
  H    -43.335800   55.860000  108.137000
  H    -43.683900   56.334300  109.759000
  H    -44.897800   55.575000  108.845000
  H    -40.442800   55.852600  115.716000
  H    -41.358800   49.311700  110.545000

 Total Charge           Charge          ....    0
 Multiplicity           Mult            ....    1
 Number of Electrons    NEL             ....  134
 Basis Dimension        Dim             ....  322

ORBITAL ENERGIES
----------------

  NO   OCC          E(Eh)            E(eV)
   0   2.0000     -88.972600     -2421.0675
   1   2.0000     -88.964390     -2420.8441
   2   2.0000     -10.334518      -281.2165
   3   2.0000     -10.328576      -281.0548
   4   2.0000     -10.325119      -280.9608
   5   2.0000     -10.317797      -280.7615
   6   2.0000     -10.304013      -280.3865
   7   2.0000     -10.303134      -280.3625
   8   2.0000     -10.294206      -280.1196
   9   2.0000     -10.293664      -280.1048
  10   2.0000     -10.292354      -280.0692
  11   2.0000     -10.291298      -280.0405
  12   2.0000     -10.288745      -279.9710
  13   2.0000     -10.278732      -279.6985
  14   2.0000     -10.278163      -279.6830
  15   2.0000     -10.271118      -279.4913
  16   2.0000      -8.087232      -220.0648
  17   2.0000      -8.078076      -219.8156
  18   2.0000      -6.045747      -164.5131
  19   2.0000      -6.041690      -164.4028
  20   2.0000      -6.038073      -164.3043
  21   2.0000      -6.036860      -164.2713
  22   2.0000      -6.032760      -164.1597
  23   2.0000      -6.028575      -164.0459
  24   2.0000      -1.004571       -27.3358
  25   2.0000      -0.980975       -26.6937
  26   2.0000      -0.913573       -24.8596
  27   2.0000      -0.907643       -24.6982
  28   2.0000      -0.868100       -23.6222
  29   2.0000      -0.852013       -23.1844
  30   2.0000      -0.845458       -23.0061
  31   2.0000      -0.815610       -22.1939
  32   2.0000      -0.786101       -21.3909
  33   2.0000      -0.774563       -21.0769
  34   2.0000      -0.708377       -19.2759
  35   2.0000      -0.699516       -19.0348
  36   2.0000      -0.691533       -18.8176
  37   2.0000      -0.665262       -18.1027
  38   2.0000      -0.640972       -17.4417
  39   2.0000      -0.626936       -17.0598
  40   2.0000      -0.597634       -16.2625
  41   2.0000      -0.568814       -15.4782
  42   2.0000      -0.562360       -15.3026
  43   2.0000      -0.549058       -14.9406
  44   2.0000      -0.543180       -14.7807
  45   2.0000      -0.529275       -14.4023
  46   2.0000      -0.521959       -14.2032
  47   2.0000      -0.510308       -13.8862
  48   2.0000      -0.505093       -13.7443
  49   2.0000      -0.499431       -13.5902
  50   2.0000      -0.496356       -13.5065
  51   2.0000      -0.483719       -13.1627
  52   2.0000      -0.467593       -12.7239
  53   2.0000      -0.466170       -12.6851
  54   2.0000      -0.458265       -12.4700
  55   2.0000      -0.453236       -12.3332
  56   2.0000      -0.449981       -12.2446
  57   2.0000      -0.436039       -11.8652
  58   2.0000      -0.430983       -11.7276
  59   2.0000      -0.428131       -11.6500
  60   2.0000      -0.422492       -11.4966
  61   2.0000      -0.417035       -11.3481
  62   2.0000      -0.397826       -10.8254
  63   2.0000      -0.352469        -9.5912
  64   2.0000      -0.332009        -9.0344
  65   2.0000      -0.330728        -8.9996
  66   2.0000      -0.291261        -7.9256
  67   0.0000       0.029648         0.8068
  68   0.0000       0.065780         1.7900
  69   0.0000       0.111276         3.0280
  70   0.0000       0.118774         3.2320
  71   0.0000       0.122468         3.3325

MULLIKEN ATOMIC CHARGES
-----------------------
   0 S :    0.120959
   1 C :   -0.134378
   2 C :   -0.083239
   3 C :    0.050098
   4 C :   -0.123530
   5 H :   -0.026952
   6 C :    0.063433
   7 H :    0.006515
   8 H :    0.047722
   9 C :   -0.094873
  10 H :    0.019217
  11 H :    0.039822
  12 C :   -0.060218
  13 H :    0.050559
  14 H :    0.035037
  15 H :    0.031433
  16 S :    0.091196
  17 C :   -0.116693
  18 C :    0.022967
  19 C :   -0.060673
  20 C :   -0.131951
  21 H :   -0.016772
  22 C :    0.060968
  23 H :    0.012670
  24 H :    0.020325
  25 C :   -0.082366
  26 H :    0.010789
  27 H :    0.010693
  28 C :    0.025328
  29 H :    0.024472
  30 H :    0.012786
  31 H :    0.027978
  32 H :    0.065827
  33 H :    0.080850
Sum of atomic charges:   -0.0000000

LOEWDIN ATOMIC CHARGES
----------------------
   0 S :    0.422624
   1 C :   -0.214089
   2 C :   -0.061880
   3 C :   -0.042024
   4 C :   -0.185764
   5 H :    0.015757
   6 C :   -0.038784
   7 H :    0.025365
   8 H :    0.036400
   9 C :   -0.037512
  10 H :    0.010195
  11 H :    0.032410
  12 C :   -0.065385
  13 H :    0.026453
  14 H :    0.026263
  15 H :    0.025813
  16 S :    0.368060
  17 C :   -0.179767
  18 C :   -0.056235
  19 C :   -0.056775
  20 C :   -0.180793
  21 H :    0.014988
  22 C :   -0.037219
  23 H :    0.021958
  24 H :    0.035733
  25 C :   -0.049927
  26 H :    0.018886
  27 H :    0.020872
  28 C :   -0.050186
  29 H :    0.025146
  30 H :    0.017327
  31 H :    0.027320
  32 H :    0.040043
  33 H :    0.044729

  Mayer bond orders larger than 0.100000
B(  0-S ,  1-C ) :   1.1454 B(  0-S ,  4-C ) :   1.1620 B(  1-C ,  2-C ) :   1.6030
B(  1-C , 32-H ) :   0.9564 B(  2-C ,  3-C ) :   1.2630 B(  2-C ,  6-C ) :   1.0194
B(  3-C ,  4-C ) :   1.5274 B(  3-C ,  5-H ) :   1.0032 B(  4-C , 20-C ) :   1.0340
B(  6-C ,  7-H ) :   0.9412 B(  6-C ,  8-H ) :   0.9379 B(  6-C ,  9-C ) :   1.0655
B(  9-C , 10-H ) :   0.9564 B(  9-C , 11-H ) :   0.9560 B(  9-C , 12-C ) :   1.0754
B( 12-C , 13-H ) :   0.9735 B( 12-C , 14-H ) :   0.9739 B( 12-C , 15-H ) :   0.9753
B( 16-S , 17-C ) :   1.1364 B( 16-S , 20-C ) :   1.1086 B( 17-C , 18-C ) :   1.6279
B( 17-C , 33-H ) :   0.9608 B( 18-C , 19-C ) :   1.2154 B( 18-C , 21-H ) :   1.0059
B( 19-C , 20-C ) :   1.6546 B( 19-C , 22-C ) :   1.0398 B( 22-C , 23-H ) :   0.9303
B( 22-C , 24-H ) :   0.9352 B( 22-C , 25-C ) :   1.0557 B( 25-C , 26-H ) :   0.9446
B( 25-C , 27-H ) :   0.9450 B( 25-C , 28-C ) :   1.0941 B( 28-C , 29-H ) :   0.9720
B( 28-C , 30-H ) :   0.9690 B( 28-C , 31-H ) :   0.9693

Dispersion correction           -0.015759145
FINAL SINGLE POINT ENERGY     -1339.874474865649

DIPOLE MOMENT
-------------
                                X             Y             Z
Electronic contribution:     17.43775     -24.22192      12.02509
Nuclear contribution   :    -17.92633      24.69045     -12.31469
                        -----------------------------------------
Total Dipole Moment    :     -0.48857       0.46853      -0.28959
                        -----------------------------------------
Magnitude (a.u.)       :      0.73627
Magnitude (Debye)      :      1.87145

Rotational constants in cm-1:     0.017280     0.010896     0.007207
Rotational constants in MHz :   518.052019   326.663203   216.067886

                             ****ORCA TERMINATED NORMALLY****
TOTAL RUN TIME: 0 days 0 hours 0 minutes 30 seconds 711 msec
