                         Program Version 4.2.1 -  RELEASE  -
|  1> ! wB97X-D3 SP def2-SVP
|  2> %pal
|  3> nprocs 16
|  4> end
|  5>
|  6> * xyz 0 1
|  7> S 	 -31.2605 	 39.9959 	 100.044
|  8> C 	 -31.2914 	 38.5461 	 98.9727
|  9> C 	 -30.7378 	 38.7161 	 97.7023
| 10> C 	 -30.2193 	 40.0581 	 97.626
| 11> C 	 -30.3698 	 40.8951 	 98.7494
| 12> H 	 -29.621 	 40.4603 	 96.7976
| 13> C 	 -30.3861 	 37.6006 	 96.7811
| 14> H 	 -30.2423 	 36.7065 	 97.3979
| 15> H 	 -29.4061 	 37.6805 	 96.3237
| 16> C 	 -31.381 	 37.1626 	 95.6215
| 17> H 	 -32.349 	 37.0969 	 96.0846
| 18> H 	 -31.4977 	 37.9314 	 94.8784
| 19> C 	 -31.0436 	 35.8288 	 95.1146
| 20> H 	 -31.5587 	 35.6406 	 94.1683
| 21> H 	 -30.0197 	 35.8476 	 94.8325
| 22> H 	 -31.0868 	 35.0034 	 95.8448
| 23> S 	 -28.2645 	 42.5064 	 98.4976
| 24> C 	 -28.3881 	 44.1111 	 99.1542
| 25> C 	 -29.547 	 44.3069 	 99.8701
| 26> C 	 -30.4627 	 43.2204 	 99.8134
| 27> C 	 -29.8601 	 42.2173 	 99.0785
| 28> H 	 -29.8121 	 45.2053 	 100.401
| 29> C 	 -31.7448 	 43.1865 	 100.626
| 30> H 	 -31.6726 	 44.0985 	 101.233
| 31> H 	 -31.8577 	 42.3814 	 101.337
| 32> C 	 -33.0118 	 43.1577 	 99.7403
| 33> H 	 -33.8362 	 43.1925 	 100.437
| 34> H 	 -33.1272 	 42.2974 	 99.0922
| 35> C 	 -33.1175 	 44.3766 	 98.7658
| 36> H 	 -34.1242 	 44.427 	 98.3637
| 37> H 	 -32.5044 	 44.3018 	 97.9027
| 38> H 	 -32.9703 	 45.3715 	 99.1628
| 39> H 	 -31.6641 	 37.6716 	 99.4492
| 40> H 	 -27.674 	 44.8493 	 99.2147
| 41> *
| 42>
| 43>                          ****END OF INPUT****

CARTESIAN COORDINATES (ANGSTROEM)
---------------------------------
  S    -31.260500   39.995900  100.044000
  C    -31.291400   38.546100   98.972700
  C    -30.737800   38.716100   97.702300
  C    -30.219300   40.058100   97.626000
  C    -30.369800   40.895100   98.749400
  H    -29.621000   40.460300   96.797600
  C    -30.386100   37.600600   96.781100
  H    -30.242300   36.706500   97.397900
  H    -29.406100   37.680500   96.323700
  C    -31.381000   37.162600   95.621500
  H    -32.349000   37.096900   96.084600
  H    -31.497700   37.931400   94.878400
  C    -31.043600   35.828800   95.114600
  H    -31.558700   35.640600   94.168300
  H    -30.019700   35.847600   94.832500
  H    -31.086800   35.003400   95.844800
  S    -28.264500   42.506400   98.497600
  C    -28.388100   44.111100   99.154200
  C    -29.547000   44.306900   99.870100
  C    -30.462700   43.220400   99.813400
  C    -29.860100   42.217300   99.078500
  H    -29.812100   45.205300  100.401000
  C    -31.744800   43.186500  100.626000
  H    -31.672600   44.098500  101.233000
  H    -31.857700   42.381400  101.337000
  C    -33.011800   43.157700   99.740300
  H    -33.836200   43.192500  100.437000
  H    -33.127200   42.297400   99.092200
  C    -33.117500   44.376600   98.765800
  H    -34.124200   44.427000   98.363700
  H    -32.504400   44.301800   97.902700
  H    -32.970300   45.371500   99.162800
  H    -31.664100   37.671600   99.449200
  H    -27.674000   44.849300   99.214700

 Total Charge           Charge          ....    0
 Multiplicity           Mult            ....    1
 Number of Electrons    NEL             ....  134
 Basis Dimension        Dim             ....  322

ORBITAL ENERGIES
----------------

  NO   OCC          E(Eh)            E(eV)
   0   2.0000     -88.972153     -2421.0554
   1   2.0000     -88.963876     -2420.8301
   2   2.0000     -10.333624      -281.1922
   3   2.0000     -10.323347      -280.9125
   4   2.0000     -10.318571      -280.7826
   5   2.0000     -10.308544      -280.5097
   6   2.0000     -10.307352      -280.4773
   7   2.0000     -10.300148      -280.2813
   8   2.0000     -10.298802      -280.2446
   9   2.0000     -10.294442      -280.1260
  10   2.0000     -10.294193      -280.1192
  11   2.0000     -10.290161      -280.0095
  12   2.0000     -10.283927      -279.8399
  13   2.0000     -10.281273      -279.7676
  14   2.0000     -10.273940      -279.5681
  15   2.0000     -10.266185      -279.3571
  16   2.0000      -8.087162      -220.0629
  17   2.0000      -8.076762      -219.7799
  18   2.0000      -6.045554      -164.5079
  19   2.0000      -6.041806      -164.4059
  20   2.0000      -6.037861      -164.2986
  21   2.0000      -6.035291      -164.2286
  22   2.0000      -6.031646      -164.1294
  23   2.0000      -6.027532      -164.0175
  24   2.0000      -1.008123       -27.4324
  25   2.0000      -0.974486       -26.5171
  26   2.0000      -0.913305       -24.8523
  27   2.0000      -0.907182       -24.6857
  28   2.0000      -0.872310       -23.7368
  29   2.0000      -0.852989       -23.2110
  30   2.0000      -0.842304       -22.9202
  31   2.0000      -0.810587       -22.0572
  32   2.0000      -0.786684       -21.4068
  33   2.0000      -0.771032       -20.9809
  34   2.0000      -0.710554       -19.3351
  35   2.0000      -0.703390       -19.1402
  36   2.0000      -0.689403       -18.7596
  37   2.0000      -0.673126       -18.3167
  38   2.0000      -0.639937       -17.4136
  39   2.0000      -0.615213       -16.7408
  40   2.0000      -0.598792       -16.2940
  41   2.0000      -0.571992       -15.5647
  42   2.0000      -0.559080       -15.2133
  43   2.0000      -0.548629       -14.9289
  44   2.0000      -0.541311       -14.7298
  45   2.0000      -0.523592       -14.2477
  46   2.0000      -0.516503       -14.0548
  47   2.0000      -0.511674       -13.9234
  48   2.0000      -0.506452       -13.7812
  49   2.0000      -0.495085       -13.4720
  50   2.0000      -0.483094       -13.1456
  51   2.0000      -0.474515       -12.9122
  52   2.0000      -0.472497       -12.8573
  53   2.0000      -0.465205       -12.6589
  54   2.0000      -0.456136       -12.4121
  55   2.0000      -0.451151       -12.2764
  56   2.0000      -0.444937       -12.1074
  57   2.0000      -0.435800       -11.8587
  58   2.0000      -0.432637       -11.7726
  59   2.0000      -0.430592       -11.7170
  60   2.0000      -0.423089       -11.5128
  61   2.0000      -0.413517       -11.2524
  62   2.0000      -0.412012       -11.2114
  63   2.0000      -0.348233        -9.4759
  64   2.0000      -0.335780        -9.1370
  65   2.0000      -0.330376        -8.9900
  66   2.0000      -0.282265        -7.6808
  67   0.0000       0.023853         0.6491
  68   0.0000       0.071131         1.9356
  69   0.0000       0.102383         2.7860
  70   0.0000       0.106868         2.9080
  71   0.0000       0.121844         3.3156

MULLIKEN ATOMIC CHARGES
-----------------------
   0 S :    0.061840
   1 C :   -0.122561
   2 C :   -0.001977
   3 C :   -0.004750
   4 C :   -0.155162
   5 H :    0.016342
   6 C :    0.000672
   7 H :    0.020060
   8 H :    0.025505
   9 C :   -0.039782
  10 H :    0.017510
  11 H :    0.028084
  12 C :   -0.025063
  13 H :    0.035871
  14 H :    0.005560
  15 H :    0.036704
  16 S :    0.135607
  17 C :   -0.039768
  18 C :   -0.038561
  19 C :   -0.052658
  20 C :   -0.136171
  21 H :    0.008867
  22 C :    0.075418
  23 H :    0.015174
  24 H :    0.041652
  25 C :   -0.056464
  26 H :    0.024388
  27 H :    0.048084
  28 C :   -0.056832
  29 H :    0.021410
  30 H :    0.033969
  31 H :    0.017354
  32 H :    0.044249
  33 H :    0.015429
Sum of atomic charges:    0.0000000

LOEWDIN ATOMIC CHARGES
----------------------
   0 S :    0.363585
   1 C :   -0.160785
   2 C :   -0.063506
   3 C :   -0.070741
   4 C :   -0.171332
   5 H :    0.028867
   6 C :   -0.034278
   7 H :    0.034148
   8 H :    0.029804
   9 C :   -0.036942
  10 H :    0.020940
  11 H :    0.022371
  12 C :   -0.066251
  13 H :    0.032251
  14 H :    0.018548
  15 H :    0.029851
  16 S :    0.437380
  17 C :   -0.186756
  18 C :   -0.058474
  19 C :   -0.059969
  20 C :   -0.203238
  21 H :    0.027562
  22 C :   -0.032627
  23 H :    0.033000
  24 H :    0.024072
  25 C :   -0.031340
  26 H :    0.021927
  27 H :    0.026453
  28 C :   -0.069580
  29 H :    0.026280
  30 H :    0.021864
  31 H :    0.018937
  32 H :    0.015333
  33 H :    0.012646

  Mayer bond orders larger than 0.100000
B(  0-S ,  1-C ) :   1.1408 B(  0-S ,  4-C ) :   1.1206 B(  1-C ,  2-C ) :   1.6061
B(  1-C , 32-H ) :   0.9722 B(  2-C ,  3-C ) :   1.2144 B(  2-C ,  6-C ) :   1.0214
B(  3-C ,  4-C ) :   1.6033 B(  3-C ,  5-H ) :   0.9827 B(  4-C , 20-C ) :   1.0490
B(  6-C ,  7-H ) :   0.9493 B(  6-C ,  8-H ) :   0.9450 B(  6-C ,  9-C ) :   1.0446
B(  9-C , 10-H ) :   0.9539 B(  9-C , 11-H ) :   0.9547 B(  9-C , 12-C ) :   1.0942
B( 12-C , 13-H ) :   0.9674 B( 12-C , 14-H ) :   0.9681 B( 12-C , 15-H ) :   0.9710
B( 16-S , 17-C ) :   1.1386 B( 16-S , 20-C ) :   1.1613 B( 17-C , 18-C ) :   1.6161
B( 17-C , 33-H ) :   0.9716 B( 18-C , 19-C ) :   1.2639 B( 18-C , 21-H ) :   0.9790
B( 19-C , 20-C ) :   1.5594 B( 19-C , 22-C ) :   1.0288 B( 22-C , 23-H ) :   0.9313
B( 22-C , 24-H ) :   0.9404 B( 22-C , 25-C ) :   1.0627 B( 25-C , 26-H ) :   0.9589
B( 25-C , 27-H ) :   0.9575 B( 25-C , 28-C ) :   1.0707 B( 28-C , 29-H ) :   0.9739
B( 28-C , 30-H ) :   0.9746 B( 28-C , 31-H ) :   0.9786

Dispersion correction           -0.014236256
FINAL SINGLE POINT ENERGY     -1339.870035736501

DIPOLE MOMENT
-------------
                                X             Y             Z
Electronic contribution:     13.43802       7.31197      10.93100
Nuclear contribution   :    -13.48701      -7.42063     -11.02191
                        -----------------------------------------
Total Dipole Moment    :     -0.04899      -0.10866      -0.09091
                        -----------------------------------------
Magnitude (a.u.)       :      0.14991
Magnitude (Debye)      :      0.38103

Rotational constants in cm-1:     0.022880     0.007396     0.006484
Rotational constants in MHz :   685.936453   221.716050   194.372245

                             ****ORCA TERMINATED NORMALLY****
TOTAL RUN TIME: 0 days 0 hours 0 minutes 28 seconds 326 msec
