                         Program Version 4.2.1 -  RELEASE  -
|  1> ! wB97X-D3 SP def2-SVP
|  2> %pal
|  3> nprocs 16
|  4> end
|  5>
|  6> * xyz 0 1
|  7> S 	 -11.7161 	 61.2113 	 54.6731
|  8> C 	 -10.3558 	 60.9699 	 53.6998
|  9> C 	 -9.16888 	 61.4434 	 54.2205
| 10> C 	 -9.39717 	 62.2229 	 55.4191
| 11> C 	 -10.7073 	 62.2104 	 55.7048
| 12> H 	 -8.69294 	 62.6506 	 56.1873
| 13> C 	 -7.75262 	 60.9704 	 53.7444
| 14> H 	 -7.69782 	 59.914 	 53.5269
| 15> H 	 -7.14836 	 61.0466 	 54.6224
| 16> C 	 -7.20116 	 61.7523 	 52.588
| 17> H 	 -6.22337 	 61.1884 	 52.5359
| 18> H 	 -7.68193 	 61.4323 	 51.6918
| 19> C 	 -7.01516 	 63.2637 	 52.7656
| 20> H 	 -7.9981 	 63.6969 	 52.6979
| 21> H 	 -6.71499 	 63.4957 	 53.7623
| 22> H 	 -6.34537 	 63.7191 	 52.0771
| 23> S 	 -12.1203 	 61.8851 	 58.1378
| 24> C 	 -12.4197 	 63.2949 	 59.1513
| 25> C 	 -11.8855 	 64.4433 	 58.5334
| 26> C 	 -11.2853 	 64.2058 	 57.3025
| 27> C 	 -11.323 	 62.9125 	 56.8465
| 28> H 	 -11.9705 	 65.3523 	 58.978
| 29> C 	 -10.7178 	 65.3924 	 56.5093
| 30> H 	 -11.2316 	 66.311 	 56.7071
| 31> H 	 -10.8482 	 65.1507 	 55.4377
| 32> C 	 -9.19163 	 65.5935 	 56.7615
| 33> H 	 -8.58916 	 64.6991 	 56.4777
| 34> H 	 -9.01892 	 65.6156 	 57.8546
| 35> C 	 -8.51259 	 66.7973 	 56.1059
| 36> H 	 -7.45237 	 66.8219 	 56.3489
| 37> H 	 -9.046 	 67.7529 	 56.4563
| 38> H 	 -8.55169 	 66.7584 	 54.9991
| 39> H 	 -10.4587 	 60.3666 	 52.804
| 40> H 	 -12.8958 	 63.305 	 60.1181
| 41> *
| 42>
| 43>                          ****END OF INPUT****

CARTESIAN COORDINATES (ANGSTROEM)
---------------------------------
  S    -11.716100   61.211300   54.673100
  C    -10.355800   60.969900   53.699800
  C     -9.168880   61.443400   54.220500
  C     -9.397170   62.222900   55.419100
  C    -10.707300   62.210400   55.704800
  H     -8.692940   62.650600   56.187300
  C     -7.752620   60.970400   53.744400
  H     -7.697820   59.914000   53.526900
  H     -7.148360   61.046600   54.622400
  C     -7.201160   61.752300   52.588000
  H     -6.223370   61.188400   52.535900
  H     -7.681930   61.432300   51.691800
  C     -7.015160   63.263700   52.765600
  H     -7.998100   63.696900   52.697900
  H     -6.714990   63.495700   53.762300
  H     -6.345370   63.719100   52.077100
  S    -12.120300   61.885100   58.137800
  C    -12.419700   63.294900   59.151300
  C    -11.885500   64.443300   58.533400
  C    -11.285300   64.205800   57.302500
  C    -11.323000   62.912500   56.846500
  H    -11.970500   65.352300   58.978000
  C    -10.717800   65.392400   56.509300
  H    -11.231600   66.311000   56.707100
  H    -10.848200   65.150700   55.437700
  C     -9.191630   65.593500   56.761500
  H     -8.589160   64.699100   56.477700
  H     -9.018920   65.615600   57.854600
  C     -8.512590   66.797300   56.105900
  H     -7.452370   66.821900   56.348900
  H     -9.046000   67.752900   56.456300
  H     -8.551690   66.758400   54.999100
  H    -10.458700   60.366600   52.804000
  H    -12.895800   63.305000   60.118100

 Total Charge           Charge          ....    0
 Multiplicity           Mult            ....    1
 Number of Electrons    NEL             ....  134
 Basis Dimension        Dim             ....  322

ORBITAL ENERGIES
----------------

  NO   OCC          E(Eh)            E(eV)
   0   2.0000     -88.967276     -2420.9227
   1   2.0000     -88.962707     -2420.7983
   2   2.0000     -10.327929      -281.0372
   3   2.0000     -10.325692      -280.9764
   4   2.0000     -10.320073      -280.8235
   5   2.0000     -10.309676      -280.5406
   6   2.0000     -10.302807      -280.3536
   7   2.0000     -10.299149      -280.2541
   8   2.0000     -10.298817      -280.2451
   9   2.0000     -10.292205      -280.0651
  10   2.0000     -10.290306      -280.0135
  11   2.0000     -10.288945      -279.9764
  12   2.0000     -10.285398      -279.8799
  13   2.0000     -10.284370      -279.8519
  14   2.0000     -10.284317      -279.8505
  15   2.0000     -10.272655      -279.5332
  16   2.0000      -8.083464      -219.9622
  17   2.0000      -8.076091      -219.7616
  18   2.0000      -6.041688      -164.4027
  19   2.0000      -6.038014      -164.3027
  20   2.0000      -6.034642      -164.2110
  21   2.0000      -6.034182      -164.1984
  22   2.0000      -6.030729      -164.1045
  23   2.0000      -6.026956      -164.0018
  24   2.0000      -1.009767       -27.4772
  25   2.0000      -0.981484       -26.7075
  26   2.0000      -0.913212       -24.8498
  27   2.0000      -0.900564       -24.5056
  28   2.0000      -0.868767       -23.6403
  29   2.0000      -0.852239       -23.1906
  30   2.0000      -0.846958       -23.0469
  31   2.0000      -0.813362       -22.1327
  32   2.0000      -0.787063       -21.4171
  33   2.0000      -0.771834       -21.0027
  34   2.0000      -0.703408       -19.1407
  35   2.0000      -0.697411       -18.9775
  36   2.0000      -0.688751       -18.7419
  37   2.0000      -0.667499       -18.1636
  38   2.0000      -0.649423       -17.6717
  39   2.0000      -0.610968       -16.6253
  40   2.0000      -0.592718       -16.1287
  41   2.0000      -0.571518       -15.5518
  42   2.0000      -0.559358       -15.2209
  43   2.0000      -0.553469       -15.0607
  44   2.0000      -0.538941       -14.6653
  45   2.0000      -0.518996       -14.1226
  46   2.0000      -0.515280       -14.0215
  47   2.0000      -0.511873       -13.9288
  48   2.0000      -0.509292       -13.8586
  49   2.0000      -0.493922       -13.4403
  50   2.0000      -0.492091       -13.3905
  51   2.0000      -0.484446       -13.1824
  52   2.0000      -0.471762       -12.8373
  53   2.0000      -0.467020       -12.7083
  54   2.0000      -0.461173       -12.5492
  55   2.0000      -0.453363       -12.3366
  56   2.0000      -0.445306       -12.1174
  57   2.0000      -0.438357       -11.9283
  58   2.0000      -0.432519       -11.7694
  59   2.0000      -0.430515       -11.7149
  60   2.0000      -0.417014       -11.3475
  61   2.0000      -0.410209       -11.1623
  62   2.0000      -0.399354       -10.8670
  63   2.0000      -0.347409        -9.4535
  64   2.0000      -0.333083        -9.0636
  65   2.0000      -0.329395        -8.9633
  66   2.0000      -0.292175        -7.9505
  67   0.0000       0.033427         0.9096
  68   0.0000       0.062560         1.7023
  69   0.0000       0.107072         2.9136
  70   0.0000       0.119694         3.2570
  71   0.0000       0.125704         3.4206

MULLIKEN ATOMIC CHARGES
-----------------------
   0 S :    0.131411
   1 C :   -0.118227
   2 C :   -0.092418
   3 C :   -0.001808
   4 C :   -0.163616
   5 H :    0.062255
   6 C :    0.064082
   7 H :    0.028694
   8 H :    0.011447
   9 C :   -0.076087
  10 H :    0.021037
  11 H :    0.020748
  12 C :    0.008296
  13 H :    0.033775
  14 H :    0.009955
  15 H :    0.037085
  16 S :    0.080405
  17 C :   -0.089273
  18 C :   -0.004195
  19 C :   -0.015602
  20 C :   -0.162023
  21 H :   -0.024723
  22 C :    0.090159
  23 H :    0.016234
  24 H :    0.035811
  25 C :   -0.106823
  26 H :    0.013073
  27 H :    0.023570
  28 C :   -0.051794
  29 H :    0.037762
  30 H :    0.038908
  31 H :    0.036138
  32 H :    0.046537
  33 H :    0.059207
Sum of atomic charges:    0.0000000

LOEWDIN ATOMIC CHARGES
----------------------
   0 S :    0.427781
   1 C :   -0.208259
   2 C :   -0.066282
   3 C :   -0.064451
   4 C :   -0.193979
   5 H :    0.049327
   6 C :   -0.026055
   7 H :    0.032245
   8 H :    0.024417
   9 C :   -0.042889
  10 H :    0.028594
  11 H :    0.017945
  12 C :   -0.056068
  13 H :    0.028967
  14 H :    0.021154
  15 H :    0.025442
  16 S :    0.364416
  17 C :   -0.174950
  18 C :   -0.063526
  19 C :   -0.058712
  20 C :   -0.175174
  21 H :    0.013869
  22 C :   -0.022068
  23 H :    0.024761
  24 H :    0.034834
  25 C :   -0.051483
  26 H :    0.021033
  27 H :    0.022693
  28 C :   -0.071883
  29 H :    0.027439
  30 H :    0.030585
  31 H :    0.026108
  32 H :    0.024101
  33 H :    0.030068

  Mayer bond orders larger than 0.100000
B(  0-S ,  1-C ) :   1.1546 B(  0-S ,  4-C ) :   1.1491 B(  1-C ,  2-C ) :   1.6302
B(  1-C , 32-H ) :   0.9675 B(  2-C ,  3-C ) :   1.2041 B(  2-C ,  6-C ) :   0.9944
B(  3-C ,  4-C ) :   1.6334 B(  3-C ,  5-H ) :   0.9702 B(  4-C , 20-C ) :   0.9975
B(  6-C ,  7-H ) :   0.9488 B(  6-C ,  8-H ) :   0.9427 B(  6-C ,  9-C ) :   1.0793
B(  9-C , 10-H ) :   0.9523 B(  9-C , 11-H ) :   0.9592 B(  9-C , 12-C ) :   1.0659
B( 12-C , 13-H ) :   0.9690 B( 12-C , 14-H ) :   0.9739 B( 12-C , 15-H ) :   0.9754
B( 16-S , 17-C ) :   1.1629 B( 16-S , 20-C ) :   1.1197 B( 17-C , 18-C ) :   1.5750
B( 17-C , 20-C ) :   0.1122 B( 17-C , 33-H ) :   0.9689 B( 18-C , 19-C ) :   1.2573
B( 18-C , 21-H ) :   1.0077 B( 19-C , 20-C ) :   1.6213 B( 19-C , 22-C ) :   1.0342
B( 22-C , 23-H ) :   0.9425 B( 22-C , 24-H ) :   0.9347 B( 22-C , 25-C ) :   1.0536
B( 25-C , 26-H ) :   0.9463 B( 25-C , 27-H ) :   0.9558 B( 25-C , 28-C ) :   1.0889
B( 28-C , 29-H ) :   0.9721 B( 28-C , 30-H ) :   0.9733 B( 28-C , 31-H ) :   0.9735

Dispersion correction           -0.015037774
FINAL SINGLE POINT ENERGY     -1339.871139298085

DIPOLE MOMENT
-------------
                                X             Y             Z
Electronic contribution:    -24.01924     -16.61226      10.72021
Nuclear contribution   :     24.55877      16.83466     -10.82935
                        -----------------------------------------
Total Dipole Moment    :      0.53953       0.22240      -0.10915
                        -----------------------------------------
Magnitude (a.u.)       :      0.59369
Magnitude (Debye)      :      1.50905

Rotational constants in cm-1:     0.017610     0.009954     0.006927
Rotational constants in MHz :   527.934326   298.411663   207.677532

                             ****ORCA TERMINATED NORMALLY****
TOTAL RUN TIME: 0 days 0 hours 0 minutes 33 seconds 487 msec
