                         Program Version 4.2.1 -  RELEASE  -
|  1> ! wB97X-D3 SP def2-SVP
|  2> %pal
|  3> nprocs 16
|  4> end
|  5>
|  6> * xyz 0 1
|  7> S 	 -54.3811 	 25.7244 	 92.9649
|  8> C 	 -52.8317 	 24.8762 	 92.5801
|  9> C 	 -52.017 	 25.6033 	 91.7324
| 10> C 	 -52.5254 	 26.9352 	 91.5735
| 11> C 	 -53.8084 	 27.1874 	 92.104
| 12> H 	 -51.9555 	 27.6671 	 90.9929
| 13> C 	 -50.6747 	 25.2298 	 91.1767
| 14> H 	 -50.6356 	 25.6384 	 90.1531
| 15> H 	 -50.5721 	 24.1574 	 91.0462
| 16> C 	 -49.422 	 25.8019 	 91.9455
| 17> H 	 -49.483 	 26.8383 	 92.2326
| 18> H 	 -49.5196 	 25.2499 	 92.8941
| 19> C 	 -48.0778 	 25.5737 	 91.1686
| 20> H 	 -47.2025 	 25.6779 	 91.8674
| 21> H 	 -48.0628 	 24.5452 	 90.7522
| 22> H 	 -47.8051 	 26.3604 	 90.3766
| 23> S 	 -56.1615 	 28.3302 	 91.5448
| 24> C 	 -56.3472 	 30.0791 	 91.5715
| 25> C 	 -55.2208 	 30.7315 	 91.9369
| 26> C 	 -54.0931 	 29.8384 	 92.0754
| 27> C 	 -54.4872 	 28.494 	 91.9447
| 28> H 	 -55.0639 	 31.7653 	 91.896
| 29> C 	 -52.6462 	 30.217 	 92.3171
| 30> H 	 -52.218 	 29.9777 	 91.3443
| 31> H 	 -52.1717 	 29.4803 	 93.0078
| 32> C 	 -52.3964 	 31.7323 	 92.694
| 33> H 	 -52.9178 	 31.9783 	 93.5599
| 34> H 	 -52.7783 	 32.2789 	 91.8157
| 35> C 	 -50.8788 	 32.0148 	 92.818
| 36> H 	 -50.3276 	 31.4617 	 93.5757
| 37> H 	 -50.8202 	 33.0277 	 93.155
| 38> H 	 -50.4074 	 31.8647 	 91.8641
| 39> H 	 -52.5623 	 23.9698 	 93.0828
| 40> H 	 -57.2861 	 30.6099 	 91.282
| 41> *
| 42>
| 43>                          ****END OF INPUT****

CARTESIAN COORDINATES (ANGSTROEM)
---------------------------------
  S    -54.381100   25.724400   92.964900
  C    -52.831700   24.876200   92.580100
  C    -52.017000   25.603300   91.732400
  C    -52.525400   26.935200   91.573500
  C    -53.808400   27.187400   92.104000
  H    -51.955500   27.667100   90.992900
  C    -50.674700   25.229800   91.176700
  H    -50.635600   25.638400   90.153100
  H    -50.572100   24.157400   91.046200
  C    -49.422000   25.801900   91.945500
  H    -49.483000   26.838300   92.232600
  H    -49.519600   25.249900   92.894100
  C    -48.077800   25.573700   91.168600
  H    -47.202500   25.677900   91.867400
  H    -48.062800   24.545200   90.752200
  H    -47.805100   26.360400   90.376600
  S    -56.161500   28.330200   91.544800
  C    -56.347200   30.079100   91.571500
  C    -55.220800   30.731500   91.936900
  C    -54.093100   29.838400   92.075400
  C    -54.487200   28.494000   91.944700
  H    -55.063900   31.765300   91.896000
  C    -52.646200   30.217000   92.317100
  H    -52.218000   29.977700   91.344300
  H    -52.171700   29.480300   93.007800
  C    -52.396400   31.732300   92.694000
  H    -52.917800   31.978300   93.559900
  H    -52.778300   32.278900   91.815700
  C    -50.878800   32.014800   92.818000
  H    -50.327600   31.461700   93.575700
  H    -50.820200   33.027700   93.155000
  H    -50.407400   31.864700   91.864100
  H    -52.562300   23.969800   93.082800
  H    -57.286100   30.609900   91.282000

 Total Charge           Charge          ....    0
 Multiplicity           Mult            ....    1
 Number of Electrons    NEL             ....  134
 Basis Dimension        Dim             ....  322

ORBITAL ENERGIES
----------------

  NO   OCC          E(Eh)            E(eV)
   0   2.0000     -88.969673     -2420.9879
   1   2.0000     -88.962747     -2420.7994
   2   2.0000     -10.337491      -281.2974
   3   2.0000     -10.324473      -280.9432
   4   2.0000     -10.318619      -280.7839
   5   2.0000     -10.317018      -280.7403
   6   2.0000     -10.304562      -280.4014
   7   2.0000     -10.303387      -280.3694
   8   2.0000     -10.297047      -280.1969
   9   2.0000     -10.296225      -280.1745
  10   2.0000     -10.295876      -280.1650
  11   2.0000     -10.295491      -280.1545
  12   2.0000     -10.294697      -280.1329
  13   2.0000     -10.291476      -280.0453
  14   2.0000     -10.289758      -279.9985
  15   2.0000     -10.277695      -279.6703
  16   2.0000      -8.082579      -219.9381
  17   2.0000      -8.077925      -219.8115
  18   2.0000      -6.041390      -164.3946
  19   2.0000      -6.037387      -164.2857
  20   2.0000      -6.036444      -164.2600
  21   2.0000      -6.033081      -164.1685
  22   2.0000      -6.032390      -164.1497
  23   2.0000      -6.028643      -164.0477
  24   2.0000      -1.000719       -27.2310
  25   2.0000      -0.976602       -26.5747
  26   2.0000      -0.906851       -24.6767
  27   2.0000      -0.904568       -24.6146
  28   2.0000      -0.866288       -23.5729
  29   2.0000      -0.851497       -23.1704
  30   2.0000      -0.842365       -22.9219
  31   2.0000      -0.811504       -22.0821
  32   2.0000      -0.778470       -21.1833
  33   2.0000      -0.768055       -20.8999
  34   2.0000      -0.712716       -19.3940
  35   2.0000      -0.703530       -19.1440
  36   2.0000      -0.696340       -18.9484
  37   2.0000      -0.655555       -17.8386
  38   2.0000      -0.635706       -17.2984
  39   2.0000      -0.621080       -16.9004
  40   2.0000      -0.592885       -16.1332
  41   2.0000      -0.573495       -15.6056
  42   2.0000      -0.563543       -15.3348
  43   2.0000      -0.556416       -15.1408
  44   2.0000      -0.528899       -14.3921
  45   2.0000      -0.521837       -14.1999
  46   2.0000      -0.516801       -14.0629
  47   2.0000      -0.504485       -13.7277
  48   2.0000      -0.499437       -13.5904
  49   2.0000      -0.492252       -13.3949
  50   2.0000      -0.487577       -13.2677
  51   2.0000      -0.478442       -13.0191
  52   2.0000      -0.476342       -12.9619
  53   2.0000      -0.460090       -12.5197
  54   2.0000      -0.458250       -12.4696
  55   2.0000      -0.455320       -12.3899
  56   2.0000      -0.449391       -12.2286
  57   2.0000      -0.441439       -12.0122
  58   2.0000      -0.440353       -11.9826
  59   2.0000      -0.428556       -11.6616
  60   2.0000      -0.425688       -11.5836
  61   2.0000      -0.414860       -11.2889
  62   2.0000      -0.409322       -11.1382
  63   2.0000      -0.351164        -9.5557
  64   2.0000      -0.329924        -8.9777
  65   2.0000      -0.327071        -8.9001
  66   2.0000      -0.283831        -7.7234
  67   0.0000       0.029402         0.8001
  68   0.0000       0.067633         1.8404
  69   0.0000       0.105289         2.8651
  70   0.0000       0.123517         3.3611
  71   0.0000       0.130716         3.5570

MULLIKEN ATOMIC CHARGES
-----------------------
   0 S :    0.104730
   1 C :   -0.136419
   2 C :   -0.046522
   3 C :   -0.018290
   4 C :   -0.102646
   5 H :    0.012141
   6 C :    0.045087
   7 H :    0.028836
   8 H :    0.026814
   9 C :   -0.064702
  10 H :    0.030074
  11 H :    0.031699
  12 C :   -0.092846
  13 H :    0.041407
  14 H :    0.043501
  15 H :    0.052376
  16 S :    0.099201
  17 C :   -0.091872
  18 C :   -0.001581
  19 C :   -0.059103
  20 C :   -0.176814
  21 H :   -0.000620
  22 C :    0.006409
  23 H :    0.037683
  24 H :    0.048459
  25 C :   -0.078257
  26 H :    0.031897
  27 H :    0.039729
  28 C :   -0.012454
  29 H :    0.030947
  30 H :    0.026418
  31 H :    0.029862
  32 H :    0.046237
  33 H :    0.068620
Sum of atomic charges:    0.0000000

LOEWDIN ATOMIC CHARGES
----------------------
   0 S :    0.365745
   1 C :   -0.174629
   2 C :   -0.062749
   3 C :   -0.063150
   4 C :   -0.186182
   5 H :    0.028326
   6 C :   -0.034665
   7 H :    0.032554
   8 H :    0.029378
   9 C :   -0.039616
  10 H :    0.021562
  11 H :    0.027451
  12 C :   -0.080380
  13 H :    0.031757
  14 H :    0.027665
  15 H :    0.035917
  16 S :    0.408446
  17 C :   -0.184929
  18 C :   -0.071231
  19 C :   -0.053607
  20 C :   -0.203260
  21 H :    0.023419
  22 C :   -0.039288
  23 H :    0.031800
  24 H :    0.036065
  25 C :   -0.029453
  26 H :    0.016058
  27 H :    0.029446
  28 C :   -0.058459
  29 H :    0.025355
  30 H :    0.024893
  31 H :    0.024053
  32 H :    0.023762
  33 H :    0.037945

  Mayer bond orders larger than 0.100000
B(  0-S ,  1-C ) :   1.1199 B(  0-S ,  4-C ) :   1.1268 B(  1-C ,  2-C ) :   1.6112
B(  1-C , 32-H ) :   0.9704 B(  2-C ,  3-C ) :   1.2354 B(  2-C ,  6-C ) :   1.0432
B(  3-C ,  4-C ) :   1.5629 B(  3-C ,  5-H ) :   0.9873 B(  4-C , 20-C ) :   1.0570
B(  6-C ,  7-H ) :   0.9362 B(  6-C ,  8-H ) :   0.9409 B(  6-C ,  9-C ) :   1.0440
B(  9-C , 10-H ) :   0.9612 B(  9-C , 11-H ) :   0.9577 B(  9-C , 12-C ) :   1.0666
B( 12-C , 13-H ) :   0.9745 B( 12-C , 14-H ) :   0.9756 B( 12-C , 15-H ) :   0.9748
B( 16-S , 17-C ) :   1.1507 B( 16-S , 20-C ) :   1.1432 B( 17-C , 18-C ) :   1.6088
B( 17-C , 33-H ) :   0.9580 B( 18-C , 19-C ) :   1.2557 B( 18-C , 21-H ) :   0.9908
B( 19-C , 20-C ) :   1.5935 B( 19-C , 22-C ) :   1.0219 B( 22-C , 23-H ) :   0.9302
B( 22-C , 24-H ) :   0.9368 B( 22-C , 25-C ) :   1.0668 B( 25-C , 26-H ) :   0.9617
B( 25-C , 27-H ) :   0.9471 B( 25-C , 28-C ) :   1.0887 B( 28-C , 29-H ) :   0.9758
B( 28-C , 30-H ) :   0.9727 B( 28-C , 31-H ) :   0.9749

Dispersion correction           -0.013553995
FINAL SINGLE POINT ENERGY     -1339.874043123928

DIPOLE MOMENT
-------------
                                X             Y             Z
Electronic contribution:    -31.83349      -9.43941       1.66795
Nuclear contribution   :     32.65009       9.82076      -1.77993
                        -----------------------------------------
Total Dipole Moment    :      0.81660       0.38135      -0.11198
                        -----------------------------------------
Magnitude (a.u.)       :      0.90819
Magnitude (Debye)      :      2.30843

Rotational constants in cm-1:     0.015611     0.009053     0.006121
Rotational constants in MHz :   467.997983   271.397998   183.507665

                             ****ORCA TERMINATED NORMALLY****
TOTAL RUN TIME: 0 days 0 hours 0 minutes 30 seconds 310 msec
