                         Program Version 4.2.1 -  RELEASE  -
|  1> ! wB97X-D3 SP def2-SVP
|  2> %pal
|  3> nprocs 16
|  4> end
|  5>
|  6> * xyz 0 1
|  7> S 	 44.7507 	 11.3541 	 88.3762
|  8> C 	 45.6935 	 11.7141 	 89.7885
|  9> C 	 46.5173 	 12.7891 	 89.5882
| 10> C 	 46.2227 	 13.4949 	 88.4009
| 11> C 	 45.2946 	 12.8988 	 87.6771
| 12> H 	 46.7865 	 14.3567 	 88.1269
| 13> C 	 47.7571 	 13.1819 	 90.4499
| 14> H 	 48.6022 	 12.5311 	 90.2066
| 15> H 	 47.5441 	 13.077 	 91.4785
| 16> C 	 48.2663 	 14.6205 	 90.3721
| 17> H 	 49.1788 	 14.6452 	 91.0111
| 18> H 	 48.7429 	 14.886 	 89.407
| 19> C 	 47.2395 	 15.642 	 90.8603
| 20> H 	 46.3399 	 15.6754 	 90.1968
| 21> H 	 46.8229 	 15.5154 	 91.9242
| 22> H 	 47.6589 	 16.7059 	 90.8332
| 23> S 	 43.9524 	 12.3579 	 85.3879
| 24> C 	 43.7604 	 13.6364 	 84.2437
| 25> C 	 43.7745 	 14.8803 	 84.854
| 26> C 	 44.2753 	 14.8506 	 86.1786
| 27> C 	 44.617 	 13.503 	 86.5206
| 28> H 	 43.4335 	 15.7574 	 84.3472
| 29> C 	 44.3937 	 16.1504 	 86.9899
| 30> H 	 45.2119 	 16.8178 	 86.597
| 31> H 	 44.7044 	 15.8408 	 88.0277
| 32> C 	 43.2663 	 17.1649 	 87.0037
| 33> H 	 43.1743 	 17.5594 	 85.9935
| 34> H 	 43.5776 	 18.1594 	 87.442
| 35> C 	 41.969 	 16.5716 	 87.4963
| 36> H 	 41.1411 	 17.2394 	 87.3006
| 37> H 	 41.8942 	 16.2529 	 88.6122
| 38> H 	 41.7718 	 15.6359 	 87.1057
| 39> H 	 45.8714 	 11.0188 	 90.6287
| 40> H 	 43.4098 	 13.4863 	 83.2949
| 41> *
| 42>
| 43>                          ****END OF INPUT****

CARTESIAN COORDINATES (ANGSTROEM)
---------------------------------
  S     44.750700   11.354100   88.376200
  C     45.693500   11.714100   89.788500
  C     46.517300   12.789100   89.588200
  C     46.222700   13.494900   88.400900
  C     45.294600   12.898800   87.677100
  H     46.786500   14.356700   88.126900
  C     47.757100   13.181900   90.449900
  H     48.602200   12.531100   90.206600
  H     47.544100   13.077000   91.478500
  C     48.266300   14.620500   90.372100
  H     49.178800   14.645200   91.011100
  H     48.742900   14.886000   89.407000
  C     47.239500   15.642000   90.860300
  H     46.339900   15.675400   90.196800
  H     46.822900   15.515400   91.924200
  H     47.658900   16.705900   90.833200
  S     43.952400   12.357900   85.387900
  C     43.760400   13.636400   84.243700
  C     43.774500   14.880300   84.854000
  C     44.275300   14.850600   86.178600
  C     44.617000   13.503000   86.520600
  H     43.433500   15.757400   84.347200
  C     44.393700   16.150400   86.989900
  H     45.211900   16.817800   86.597000
  H     44.704400   15.840800   88.027700
  C     43.266300   17.164900   87.003700
  H     43.174300   17.559400   85.993500
  H     43.577600   18.159400   87.442000
  C     41.969000   16.571600   87.496300
  H     41.141100   17.239400   87.300600
  H     41.894200   16.252900   88.612200
  H     41.771800   15.635900   87.105700
  H     45.871400   11.018800   90.628700
  H     43.409800   13.486300   83.294900

 Total Charge           Charge          ....    0
 Multiplicity           Mult            ....    1
 Number of Electrons    NEL             ....  134
 Basis Dimension        Dim             ....  322

ORBITAL ENERGIES
----------------

  NO   OCC          E(Eh)            E(eV)
   0   2.0000     -88.965808     -2420.8827
   1   2.0000     -88.965707     -2420.8800
   2   2.0000     -10.330596      -281.1098
   3   2.0000     -10.324741      -280.9505
   4   2.0000     -10.311321      -280.5853
   5   2.0000     -10.310423      -280.5609
   6   2.0000     -10.308706      -280.5142
   7   2.0000     -10.299914      -280.2749
   8   2.0000     -10.296956      -280.1944
   9   2.0000     -10.294591      -280.1301
  10   2.0000     -10.292624      -280.0765
  11   2.0000     -10.292435      -280.0714
  12   2.0000     -10.291803      -280.0542
  13   2.0000     -10.291041      -280.0335
  14   2.0000     -10.281273      -279.7677
  15   2.0000     -10.272566      -279.5307
  16   2.0000      -8.081351      -219.9047
  17   2.0000      -8.080557      -219.8831
  18   2.0000      -6.039658      -164.3474
  19   2.0000      -6.039274      -164.3370
  20   2.0000      -6.036060      -164.2495
  21   2.0000      -6.035340      -164.2300
  22   2.0000      -6.031981      -164.1385
  23   2.0000      -6.030834      -164.1073
  24   2.0000      -1.010887       -27.5076
  25   2.0000      -0.988235       -26.8913
  26   2.0000      -0.912899       -24.8412
  27   2.0000      -0.909494       -24.7486
  28   2.0000      -0.869212       -23.6525
  29   2.0000      -0.853850       -23.2344
  30   2.0000      -0.842678       -22.9304
  31   2.0000      -0.813479       -22.1359
  32   2.0000      -0.784699       -21.3527
  33   2.0000      -0.773270       -21.0418
  34   2.0000      -0.710571       -19.3356
  35   2.0000      -0.697928       -18.9916
  36   2.0000      -0.693012       -18.8578
  37   2.0000      -0.659268       -17.9396
  38   2.0000      -0.635788       -17.3007
  39   2.0000      -0.632604       -17.2140
  40   2.0000      -0.597383       -16.2556
  41   2.0000      -0.562289       -15.3007
  42   2.0000      -0.553927       -15.0731
  43   2.0000      -0.553710       -15.0672
  44   2.0000      -0.537679       -14.6310
  45   2.0000      -0.528442       -14.3796
  46   2.0000      -0.513619       -13.9763
  47   2.0000      -0.508475       -13.8363
  48   2.0000      -0.502810       -13.6821
  49   2.0000      -0.498871       -13.5750
  50   2.0000      -0.494061       -13.4441
  51   2.0000      -0.482261       -13.1230
  52   2.0000      -0.469756       -12.7827
  53   2.0000      -0.463594       -12.6150
  54   2.0000      -0.459875       -12.5138
  55   2.0000      -0.447228       -12.1697
  56   2.0000      -0.445468       -12.1218
  57   2.0000      -0.443794       -12.0763
  58   2.0000      -0.436157       -11.8684
  59   2.0000      -0.425936       -11.5903
  60   2.0000      -0.423409       -11.5215
  61   2.0000      -0.408928       -11.1275
  62   2.0000      -0.399981       -10.8840
  63   2.0000      -0.357362        -9.7243
  64   2.0000      -0.335933        -9.1412
  65   2.0000      -0.326279        -8.8785
  66   2.0000      -0.279914        -7.6168
  67   0.0000       0.021337         0.5806
  68   0.0000       0.069243         1.8842
  69   0.0000       0.096155         2.6165
  70   0.0000       0.116743         3.1767
  71   0.0000       0.133297         3.6272

MULLIKEN ATOMIC CHARGES
-----------------------
   0 S :    0.097560
   1 C :   -0.130454
   2 C :   -0.094842
   3 C :   -0.032287
   4 C :   -0.042166
   5 H :    0.009935
   6 C :    0.092122
   7 H :    0.047398
   8 H :    0.013517
   9 C :   -0.101121
  10 H :    0.031110
  11 H :    0.033600
  12 C :   -0.104587
  13 H :    0.043250
  14 H :    0.047782
  15 H :    0.043702
  16 S :    0.101700
  17 C :   -0.041484
  18 C :   -0.040170
  19 C :   -0.023327
  20 C :   -0.178607
  21 H :    0.011925
  22 C :    0.024317
  23 H :    0.040689
  24 H :    0.039863
  25 C :   -0.065022
  26 H :    0.013700
  27 H :    0.032735
  28 C :   -0.029034
  29 H :    0.031196
  30 H :    0.034008
  31 H :    0.020910
  32 H :    0.052692
  33 H :    0.019389
Sum of atomic charges:    0.0000000

LOEWDIN ATOMIC CHARGES
----------------------
   0 S :    0.382512
   1 C :   -0.203644
   2 C :   -0.061993
   3 C :   -0.069001
   4 C :   -0.174036
   5 H :    0.032173
   6 C :   -0.027282
   7 H :    0.036929
   8 H :    0.024678
   9 C :   -0.055889
  10 H :    0.032180
  11 H :    0.024552
  12 C :   -0.083680
  13 H :    0.026350
  14 H :    0.035010
  15 H :    0.033174
  16 S :    0.415272
  17 C :   -0.175161
  18 C :   -0.062652
  19 C :   -0.057214
  20 C :   -0.188267
  21 H :    0.027581
  22 C :   -0.041254
  23 H :    0.039674
  24 H :    0.031492
  25 C :   -0.050106
  26 H :    0.022034
  27 H :    0.035566
  28 C :   -0.070295
  29 H :    0.024512
  30 H :    0.038606
  31 H :    0.017340
  32 H :    0.033647
  33 H :    0.007192

  Mayer bond orders larger than 0.100000
B(  0-S ,  1-C ) :   1.1211 B(  0-S ,  4-C ) :   1.1152 B(  1-C ,  2-C ) :   1.6626
B(  1-C , 32-H ) :   0.9621 B(  2-C ,  3-C ) :   1.2217 B(  2-C ,  6-C ) :   0.9976
B(  3-C ,  4-C ) :   1.6019 B(  3-C ,  5-H ) :   1.0090 B(  4-C , 20-C ) :   1.0470
B(  6-C ,  7-H ) :   0.9384 B(  6-C ,  8-H ) :   0.9403 B(  6-C ,  9-C ) :   1.0886
B(  9-C , 10-H ) :   0.9487 B(  9-C , 11-H ) :   0.9457 B(  9-C , 12-C ) :   1.0690
B( 12-C , 13-H ) :   0.9741 B( 12-C , 14-H ) :   0.9716 B( 12-C , 15-H ) :   0.9730
B( 16-S , 17-C ) :   1.1604 B( 16-S , 20-C ) :   1.1564 B( 17-C , 18-C ) :   1.5896
B( 17-C , 20-C ) :   0.1063 B( 17-C , 33-H ) :   0.9794 B( 18-C , 19-C ) :   1.2493
B( 18-C , 21-H ) :   0.9949 B( 19-C , 20-C ) :   1.5394 B( 19-C , 22-C ) :   1.0337
B( 22-C , 23-H ) :   0.9326 B( 22-C , 24-H ) :   0.9367 B( 22-C , 25-C ) :   1.0852
B( 25-C , 26-H ) :   0.9420 B( 25-C , 27-H ) :   0.9480 B( 25-C , 28-C ) :   1.0718
B( 28-C , 29-H ) :   0.9744 B( 28-C , 30-H ) :   0.9705 B( 28-C , 31-H ) :   0.9722

Dispersion correction           -0.014794737
FINAL SINGLE POINT ENERGY     -1339.852368438002

DIPOLE MOMENT
-------------
                                X             Y             Z
Electronic contribution:     -5.20719     -24.80435     -13.44567
Nuclear contribution   :      5.47828      25.40745      13.58257
                        -----------------------------------------
Total Dipole Moment    :      0.27109       0.60310       0.13690
                        -----------------------------------------
Magnitude (a.u.)       :      0.67525
Magnitude (Debye)      :      1.71635

Rotational constants in cm-1:     0.017407     0.009993     0.007293
Rotational constants in MHz :   521.836576   299.574059   218.645441

                             ****ORCA TERMINATED NORMALLY****
TOTAL RUN TIME: 0 days 0 hours 0 minutes 32 seconds 895 msec
