                         Program Version 4.2.1 -  RELEASE  -
|  1> ! wB97X-D3 SP def2-SVP
|  2> %pal
|  3> nprocs 16
|  4> end
|  5>
|  6> * xyz 0 1
|  7> S 	 4.63582 	 -10.4544 	 75.2678
|  8> C 	 3.07882 	 -9.77614 	 75.0673
|  9> C 	 2.56715 	 -10.0832 	 73.7754
| 10> C 	 3.47676 	 -10.7389 	 72.8851
| 11> C 	 4.65228 	 -11.0131 	 73.5584
| 12> H 	 3.24541 	 -11.1135 	 71.9155
| 13> C 	 1.1566 	 -9.6275 	 73.3585
| 14> H 	 0.391342 	 -10.2226 	 73.8203
| 15> H 	 1.03094 	 -9.98572 	 72.3209
| 16> C 	 0.726057 	 -8.16292 	 73.283
| 17> H 	 0.791639 	 -7.71872 	 74.2981
| 18> H 	 1.34152 	 -7.45975 	 72.6474
| 19> C 	 -0.74703 	 -7.99284 	 72.8289
| 20> H 	 -1.18267 	 -6.99833 	 72.8723
| 21> H 	 -0.797087 	 -8.46778 	 71.9008
| 22> H 	 -1.31274 	 -8.66449 	 73.4227
| 23> S 	 7.19081 	 -10.649 	 72.4439
| 24> C 	 7.86416 	 -12.0759 	 71.6752
| 25> C 	 7.06481 	 -13.2068 	 71.766
| 26> C 	 5.85574 	 -12.9556 	 72.5011
| 27> C 	 5.77414 	 -11.6323 	 72.8972
| 28> H 	 7.2654 	 -14.1559 	 71.2773
| 29> C 	 4.78178 	 -13.9402 	 72.6468
| 30> H 	 4.78892 	 -14.6065 	 71.8305
| 31> H 	 3.84242 	 -13.4604 	 72.5551
| 32> C 	 4.68599 	 -14.6019 	 74.0234
| 33> H 	 4.66384 	 -13.8653 	 74.8344
| 34> H 	 5.61633 	 -15.1617 	 74.0999
| 35> C 	 3.54676 	 -15.5812 	 74.3081
| 36> H 	 2.57863 	 -15.029 	 74.2202
| 37> H 	 3.74743 	 -15.9298 	 75.2757
| 38> H 	 3.50171 	 -16.5137 	 73.6102
| 39> H 	 2.45156 	 -9.34997 	 75.8306
| 40> H 	 8.83993 	 -12.0961 	 71.1823
| 41> *
| 42>
| 43>                          ****END OF INPUT****

CARTESIAN COORDINATES (ANGSTROEM)
---------------------------------
  S      4.635820  -10.454400   75.267800
  C      3.078820   -9.776140   75.067300
  C      2.567150  -10.083200   73.775400
  C      3.476760  -10.738900   72.885100
  C      4.652280  -11.013100   73.558400
  H      3.245410  -11.113500   71.915500
  C      1.156600   -9.627500   73.358500
  H      0.391342  -10.222600   73.820300
  H      1.030940   -9.985720   72.320900
  C      0.726057   -8.162920   73.283000
  H      0.791639   -7.718720   74.298100
  H      1.341520   -7.459750   72.647400
  C     -0.747030   -7.992840   72.828900
  H     -1.182670   -6.998330   72.872300
  H     -0.797087   -8.467780   71.900800
  H     -1.312740   -8.664490   73.422700
  S      7.190810  -10.649000   72.443900
  C      7.864160  -12.075900   71.675200
  C      7.064810  -13.206800   71.766000
  C      5.855740  -12.955600   72.501100
  C      5.774140  -11.632300   72.897200
  H      7.265400  -14.155900   71.277300
  C      4.781780  -13.940200   72.646800
  H      4.788920  -14.606500   71.830500
  H      3.842420  -13.460400   72.555100
  C      4.685990  -14.601900   74.023400
  H      4.663840  -13.865300   74.834400
  H      5.616330  -15.161700   74.099900
  C      3.546760  -15.581200   74.308100
  H      2.578630  -15.029000   74.220200
  H      3.747430  -15.929800   75.275700
  H      3.501710  -16.513700   73.610200
  H      2.451560   -9.349970   75.830600
  H      8.839930  -12.096100   71.182300

 Total Charge           Charge          ....    0
 Multiplicity           Mult            ....    1
 Number of Electrons    NEL             ....  134
 Basis Dimension        Dim             ....  322

ORBITAL ENERGIES
----------------

  NO   OCC          E(Eh)            E(eV)
   0   2.0000     -88.972269     -2421.0585
   1   2.0000     -88.967883     -2420.9392
   2   2.0000     -10.328858      -281.0625
   3   2.0000     -10.321227      -280.8549
   4   2.0000     -10.319776      -280.8154
   5   2.0000     -10.315094      -280.6880
   6   2.0000     -10.306322      -280.4493
   7   2.0000     -10.298404      -280.2338
   8   2.0000     -10.297396      -280.2064
   9   2.0000     -10.294844      -280.1370
  10   2.0000     -10.292302      -280.0678
  11   2.0000     -10.291821      -280.0547
  12   2.0000     -10.282037      -279.7885
  13   2.0000     -10.281563      -279.7755
  14   2.0000     -10.277777      -279.6725
  15   2.0000     -10.270953      -279.4868
  16   2.0000      -8.086301      -220.0394
  17   2.0000      -8.082015      -219.9228
  18   2.0000      -6.044713      -164.4850
  19   2.0000      -6.040853      -164.3800
  20   2.0000      -6.040505      -164.3705
  21   2.0000      -6.037266      -164.2824
  22   2.0000      -6.036742      -164.2681
  23   2.0000      -6.032707      -164.1583
  24   2.0000      -1.003240       -27.2995
  25   2.0000      -0.979899       -26.6644
  26   2.0000      -0.912580       -24.8326
  27   2.0000      -0.906981       -24.6802
  28   2.0000      -0.870337       -23.6831
  29   2.0000      -0.854141       -23.2424
  30   2.0000      -0.851827       -23.1794
  31   2.0000      -0.812200       -22.1011
  32   2.0000      -0.784900       -21.3582
  33   2.0000      -0.765475       -20.8296
  34   2.0000      -0.703742       -19.1498
  35   2.0000      -0.700093       -19.0505
  36   2.0000      -0.688021       -18.7220
  37   2.0000      -0.663073       -18.0431
  38   2.0000      -0.646828       -17.6011
  39   2.0000      -0.616078       -16.7643
  40   2.0000      -0.599880       -16.3236
  41   2.0000      -0.567611       -15.4455
  42   2.0000      -0.564821       -15.3696
  43   2.0000      -0.552798       -15.0424
  44   2.0000      -0.529818       -14.4171
  45   2.0000      -0.527819       -14.3627
  46   2.0000      -0.514765       -14.0075
  47   2.0000      -0.512756       -13.9528
  48   2.0000      -0.508035       -13.8243
  49   2.0000      -0.503112       -13.6904
  50   2.0000      -0.487406       -13.2630
  51   2.0000      -0.481893       -13.1130
  52   2.0000      -0.470740       -12.8095
  53   2.0000      -0.460834       -12.5399
  54   2.0000      -0.456002       -12.4085
  55   2.0000      -0.451217       -12.2782
  56   2.0000      -0.445873       -12.1328
  57   2.0000      -0.442519       -12.0416
  58   2.0000      -0.432122       -11.7586
  59   2.0000      -0.428448       -11.6587
  60   2.0000      -0.420948       -11.4546
  61   2.0000      -0.410307       -11.1650
  62   2.0000      -0.404682       -11.0119
  63   2.0000      -0.344484        -9.3739
  64   2.0000      -0.332385        -9.0446
  65   2.0000      -0.320401        -8.7186
  66   2.0000      -0.298268        -8.1163
  67   0.0000       0.036002         0.9797
  68   0.0000       0.054271         1.4768
  69   0.0000       0.109429         2.9777
  70   0.0000       0.115873         3.1531
  71   0.0000       0.128541         3.4978

MULLIKEN ATOMIC CHARGES
-----------------------
   0 S :    0.131922
   1 C :   -0.105870
   2 C :   -0.100774
   3 C :    0.070659
   4 C :   -0.185667
   5 H :    0.021058
   6 C :    0.046340
   7 H :    0.025594
   8 H :    0.001108
   9 C :   -0.083772
  10 H :    0.022714
  11 H :    0.041133
  12 C :   -0.011612
  13 H :    0.049071
  14 H :    0.008259
  15 H :    0.004223
  16 S :    0.122114
  17 C :   -0.095712
  18 C :   -0.031055
  19 C :   -0.034854
  20 C :   -0.187333
  21 H :    0.019030
  22 C :    0.160872
  23 H :    0.001015
  24 H :   -0.014257
  25 C :   -0.103772
  26 H :    0.032801
  27 H :    0.017797
  28 C :   -0.044028
  29 H :    0.040702
  30 H :    0.031226
  31 H :    0.037785
  32 H :    0.051772
  33 H :    0.061510
Sum of atomic charges:   -0.0000000

LOEWDIN ATOMIC CHARGES
----------------------
   0 S :    0.414021
   1 C :   -0.211371
   2 C :   -0.061231
   3 C :   -0.045021
   4 C :   -0.185234
   5 H :    0.033285
   6 C :   -0.043947
   7 H :    0.028940
   8 H :    0.028483
   9 C :   -0.043005
  10 H :    0.018299
  11 H :    0.029125
  12 C :   -0.059119
  13 H :    0.031115
  14 H :    0.016604
  15 H :    0.018298
  16 S :    0.394186
  17 C :   -0.182264
  18 C :   -0.070147
  19 C :   -0.046063
  20 C :   -0.196433
  21 H :    0.032500
  22 C :   -0.032182
  23 H :    0.024060
  24 H :    0.024403
  25 C :   -0.037084
  26 H :    0.025628
  27 H :    0.019950
  28 C :   -0.066322
  29 H :    0.028007
  30 H :    0.021166
  31 H :    0.031300
  32 H :    0.029102
  33 H :    0.030953

  Mayer bond orders larger than 0.100000
B(  0-S ,  1-C ) :   1.1513 B(  0-S ,  4-C ) :   1.1474 B(  1-C ,  2-C ) :   1.5805
B(  1-C , 32-H ) :   0.9711 B(  2-C ,  3-C ) :   1.2674 B(  2-C ,  6-C ) :   1.0192
B(  3-C ,  4-C ) :   1.5604 B(  3-C ,  5-H ) :   0.9875 B(  4-C , 20-C ) :   1.0430
B(  6-C ,  7-H ) :   0.9348 B(  6-C ,  8-H ) :   0.9410 B(  6-C ,  9-C ) :   1.0568
B(  9-C , 10-H ) :   0.9551 B(  9-C , 11-H ) :   0.9597 B(  9-C , 12-C ) :   1.0704
B( 12-C , 13-H ) :   0.9739 B( 12-C , 14-H ) :   0.9751 B( 12-C , 15-H ) :   0.9709
B( 16-S , 17-C ) :   1.1516 B( 16-S , 20-C ) :   1.1279 B( 17-C , 18-C ) :   1.6163
B( 17-C , 33-H ) :   0.9633 B( 18-C , 19-C ) :   1.2342 B( 18-C , 21-H ) :   0.9871
B( 19-C , 20-C ) :   1.6097 B( 19-C , 22-C ) :   1.0595 B( 22-C , 23-H ) :   0.9250
B( 22-C , 24-H ) :   0.9066 B( 22-C , 25-C ) :   1.0519 B( 25-C , 26-H ) :   0.9550
B( 25-C , 27-H ) :   0.9549 B( 25-C , 28-C ) :   1.0874 B( 28-C , 29-H ) :   0.9729
B( 28-C , 30-H ) :   0.9726 B( 28-C , 31-H ) :   0.9733

Dispersion correction           -0.014233201
FINAL SINGLE POINT ENERGY     -1339.869968849465

DIPOLE MOMENT
-------------
                                X             Y             Z
Electronic contribution:     25.09815       6.80895       2.17616
Nuclear contribution   :    -25.58114      -7.13470      -2.40855
                        -----------------------------------------
Total Dipole Moment    :     -0.48299      -0.32575      -0.23238
                        -----------------------------------------
Magnitude (a.u.)       :      0.62721
Magnitude (Debye)      :      1.59424

Rotational constants in cm-1:     0.018753     0.007836     0.006685
Rotational constants in MHz :   562.194662   234.906816   200.417070

                             ****ORCA TERMINATED NORMALLY****
TOTAL RUN TIME: 0 days 0 hours 0 minutes 29 seconds 327 msec
