                         Program Version 4.2.1 -  RELEASE  -
|  1> ! wB97X-D3 SP def2-SVP
|  2> %pal
|  3> nprocs 16
|  4> end
|  5>
|  6> * xyz 0 1
|  7> S 	 35.0443 	 4.53855 	 70.4976
|  8> C 	 34.4188 	 6.03782 	 69.8552
|  9> C 	 33.1779 	 5.9398 	 69.2906
| 10> C 	 32.6441 	 4.61562 	 69.4347
| 11> C 	 33.5152 	 3.73779 	 70.122
| 12> H 	 31.7006 	 4.40611 	 69.0644
| 13> C 	 32.4725 	 7.03163 	 68.5229
| 14> H 	 33.2015 	 7.82145 	 68.3238
| 15> H 	 31.68 	 7.39919 	 69.248
| 16> C 	 31.7977 	 6.84589 	 67.0625
| 17> H 	 30.9882 	 6.05344 	 67.0134
| 18> H 	 31.3338 	 7.82168 	 66.8929
| 19> C 	 32.7931 	 6.4449 	 65.9272
| 20> H 	 32.147 	 6.34372 	 64.9857
| 21> H 	 33.4105 	 7.31193 	 65.7498
| 22> H 	 33.2713 	 5.48629 	 66.072
| 23> S 	 32.2439 	 1.4314 	 69.2858
| 24> C 	 32.194 	 0.130316 	 70.3213
| 25> C 	 32.932 	 0.232794 	 71.4505
| 26> C 	 33.5707 	 1.54091 	 71.5514
| 27> C 	 33.2447 	 2.3376 	 70.4681
| 28> H 	 32.7894 	 -0.468322 	 72.2918
| 29> C 	 34.0716 	 2.03533 	 72.8721
| 30> H 	 35.0786 	 2.44702 	 72.7398
| 31> H 	 34.1018 	 1.2225 	 73.5938
| 32> C 	 33.2037 	 3.13115 	 73.496
| 33> H 	 32.9675 	 3.93237 	 72.7868
| 34> H 	 33.7572 	 3.62033 	 74.3424
| 35> C 	 31.8849 	 2.49758 	 74.0451
| 36> H 	 31.3753 	 3.0366 	 74.8617
| 37> H 	 32.0627 	 1.39662 	 74.3875
| 38> H 	 31.2043 	 2.50698 	 73.1627
| 39> H 	 35.1073 	 6.88916 	 69.7161
| 40> H 	 31.5274 	 -0.64077 	 70.0241
| 41> *
| 42>
| 43>                          ****END OF INPUT****

CARTESIAN COORDINATES (ANGSTROEM)
---------------------------------
  S     35.044300    4.538550   70.497600
  C     34.418800    6.037820   69.855200
  C     33.177900    5.939800   69.290600
  C     32.644100    4.615620   69.434700
  C     33.515200    3.737790   70.122000
  H     31.700600    4.406110   69.064400
  C     32.472500    7.031630   68.522900
  H     33.201500    7.821450   68.323800
  H     31.680000    7.399190   69.248000
  C     31.797700    6.845890   67.062500
  H     30.988200    6.053440   67.013400
  H     31.333800    7.821680   66.892900
  C     32.793100    6.444900   65.927200
  H     32.147000    6.343720   64.985700
  H     33.410500    7.311930   65.749800
  H     33.271300    5.486290   66.072000
  S     32.243900    1.431400   69.285800
  C     32.194000    0.130316   70.321300
  C     32.932000    0.232794   71.450500
  C     33.570700    1.540910   71.551400
  C     33.244700    2.337600   70.468100
  H     32.789400   -0.468322   72.291800
  C     34.071600    2.035330   72.872100
  H     35.078600    2.447020   72.739800
  H     34.101800    1.222500   73.593800
  C     33.203700    3.131150   73.496000
  H     32.967500    3.932370   72.786800
  H     33.757200    3.620330   74.342400
  C     31.884900    2.497580   74.045100
  H     31.375300    3.036600   74.861700
  H     32.062700    1.396620   74.387500
  H     31.204300    2.506980   73.162700
  H     35.107300    6.889160   69.716100
  H     31.527400   -0.640770   70.024100

 Total Charge           Charge          ....    0
 Multiplicity           Mult            ....    1
 Number of Electrons    NEL             ....  134
 Basis Dimension        Dim             ....  322

ORBITAL ENERGIES
----------------

  NO   OCC          E(Eh)            E(eV)
   0   2.0000     -88.969020     -2420.9701
   1   2.0000     -88.962481     -2420.7922
   2   2.0000     -10.337123      -281.2874
   3   2.0000     -10.327730      -281.0318
   4   2.0000     -10.313250      -280.6378
   5   2.0000     -10.307585      -280.4836
   6   2.0000     -10.304024      -280.3868
   7   2.0000     -10.303128      -280.3624
   8   2.0000     -10.302978      -280.3583
   9   2.0000     -10.300599      -280.2935
  10   2.0000     -10.293672      -280.1050
  11   2.0000     -10.293185      -280.0918
  12   2.0000     -10.288781      -279.9720
  13   2.0000     -10.285068      -279.8709
  14   2.0000     -10.284722      -279.8615
  15   2.0000     -10.283411      -279.8258
  16   2.0000      -8.083265      -219.9568
  17   2.0000      -8.078790      -219.8351
  18   2.0000      -6.041812      -164.4061
  19   2.0000      -6.037909      -164.2999
  20   2.0000      -6.037100      -164.2778
  21   2.0000      -6.033974      -164.1928
  22   2.0000      -6.033121      -164.1696
  23   2.0000      -6.029633      -164.0747
  24   2.0000      -1.007458       -27.4143
  25   2.0000      -0.986083       -26.8327
  26   2.0000      -0.911852       -24.8128
  27   2.0000      -0.899918       -24.4880
  28   2.0000      -0.866267       -23.5723
  29   2.0000      -0.849901       -23.1270
  30   2.0000      -0.843378       -22.9495
  31   2.0000      -0.809313       -22.0225
  32   2.0000      -0.780750       -21.2453
  33   2.0000      -0.769694       -20.9444
  34   2.0000      -0.707960       -19.2646
  35   2.0000      -0.692922       -18.8554
  36   2.0000      -0.683581       -18.6012
  37   2.0000      -0.666334       -18.1319
  38   2.0000      -0.638389       -17.3715
  39   2.0000      -0.615315       -16.7436
  40   2.0000      -0.596375       -16.2282
  41   2.0000      -0.561893       -15.2899
  42   2.0000      -0.553851       -15.0711
  43   2.0000      -0.547834       -14.9073
  44   2.0000      -0.542770       -14.7695
  45   2.0000      -0.540560       -14.7094
  46   2.0000      -0.510506       -13.8916
  47   2.0000      -0.506333       -13.7780
  48   2.0000      -0.498185       -13.5563
  49   2.0000      -0.496980       -13.5235
  50   2.0000      -0.481505       -13.1024
  51   2.0000      -0.473657       -12.8889
  52   2.0000      -0.470655       -12.8072
  53   2.0000      -0.466048       -12.6818
  54   2.0000      -0.460084       -12.5195
  55   2.0000      -0.449274       -12.2254
  56   2.0000      -0.439103       -11.9486
  57   2.0000      -0.435679       -11.8554
  58   2.0000      -0.432896       -11.7797
  59   2.0000      -0.426311       -11.6005
  60   2.0000      -0.422163       -11.4876
  61   2.0000      -0.414124       -11.2689
  62   2.0000      -0.406444       -11.0599
  63   2.0000      -0.354561        -9.6481
  64   2.0000      -0.331647        -9.0246
  65   2.0000      -0.329988        -8.9794
  66   2.0000      -0.284945        -7.7538
  67   0.0000       0.022334         0.6077
  68   0.0000       0.084563         2.3011
  69   0.0000       0.106779         2.9056
  70   0.0000       0.111351         3.0300
  71   0.0000       0.125700         3.4205

MULLIKEN ATOMIC CHARGES
-----------------------
   0 S :    0.112427
   1 C :   -0.146755
   2 C :   -0.066975
   3 C :    0.034357
   4 C :   -0.134228
   5 H :   -0.019197
   6 C :    0.028072
   7 H :    0.019481
   8 H :    0.058821
   9 C :   -0.106223
  10 H :    0.038846
  11 H :    0.040132
  12 C :   -0.063860
  13 H :    0.038725
  14 H :    0.034376
  15 H :    0.058700
  16 S :    0.101828
  17 C :   -0.081114
  18 C :   -0.028162
  19 C :   -0.046621
  20 C :   -0.151784
  21 H :    0.033247
  22 C :    0.055519
  23 H :    0.033506
  24 H :    0.020680
  25 C :   -0.075595
  26 H :    0.049502
  27 H :    0.033798
  28 C :   -0.102055
  29 H :    0.044166
  30 H :    0.034533
  31 H :    0.048551
  32 H :    0.055845
  33 H :    0.047454
Sum of atomic charges:    0.0000000

LOEWDIN ATOMIC CHARGES
----------------------
   0 S :    0.404956
   1 C :   -0.203195
   2 C :   -0.068684
   3 C :   -0.058326
   4 C :   -0.184461
   5 H :    0.014659
   6 C :   -0.040267
   7 H :    0.028817
   8 H :    0.044430
   9 C :   -0.042532
  10 H :    0.023901
  11 H :    0.027994
  12 C :   -0.068671
  13 H :    0.035677
  14 H :    0.022148
  15 H :    0.029503
  16 S :    0.422439
  17 C :   -0.196762
  18 C :   -0.079290
  19 C :   -0.055698
  20 C :   -0.185407
  21 H :    0.037395
  22 C :   -0.033970
  23 H :    0.029690
  24 H :    0.027704
  25 C :   -0.040902
  26 H :    0.025905
  27 H :    0.026016
  28 C :   -0.078508
  29 H :    0.025243
  30 H :    0.028419
  31 H :    0.031539
  32 H :    0.029912
  33 H :    0.020327

  Mayer bond orders larger than 0.100000
B(  0-S ,  1-C ) :   1.1319 B(  0-S ,  4-C ) :   1.1543 B(  1-C ,  2-C ) :   1.6219
B(  1-C , 32-H ) :   0.9568 B(  2-C ,  3-C ) :   1.2540 B(  2-C ,  6-C ) :   1.0207
B(  3-C ,  4-C ) :   1.5242 B(  3-C ,  5-H ) :   1.0033 B(  4-C , 20-C ) :   1.0663
B(  6-C ,  7-H ) :   0.9459 B(  6-C ,  8-H ) :   0.9341 B(  6-C ,  9-C ) :   1.0536
B(  9-C , 10-H ) :   0.9601 B(  9-C , 11-H ) :   0.9565 B(  9-C , 12-C ) :   1.0688
B( 12-C , 13-H ) :   0.9743 B( 12-C , 14-H ) :   0.9771 B( 12-C , 15-H ) :   0.9766
B( 16-S , 17-C ) :   1.1808 B( 16-S , 20-C ) :   1.1307 B( 17-C , 18-C ) :   1.6149
B( 17-C , 33-H ) :   0.9681 B( 18-C , 19-C ) :   1.2217 B( 18-C , 21-H ) :   0.9840
B( 19-C , 20-C ) :   1.5952 B( 19-C , 22-C ) :   1.0548 B( 22-C , 23-H ) :   0.9213
B( 22-C , 24-H ) :   0.9439 B( 22-C , 25-C ) :   1.0759 B( 25-C , 26-H ) :   0.9571
B( 25-C , 27-H ) :   0.9574 B( 25-C , 28-C ) :   1.0493 B( 28-C , 29-H ) :   0.9777
B( 28-C , 30-H ) :   0.9762 B( 28-C , 31-H ) :   0.9782

Dispersion correction           -0.015363514
FINAL SINGLE POINT ENERGY     -1339.878270760991

DIPOLE MOMENT
-------------
                                X             Y             Z
Electronic contribution:      7.87137     -10.91610      -1.52282
Nuclear contribution   :     -8.22888      11.20221       1.48108
                        -----------------------------------------
Total Dipole Moment    :     -0.35752       0.28611      -0.04174
                        -----------------------------------------
Magnitude (a.u.)       :      0.45980
Magnitude (Debye)      :      1.16872

Rotational constants in cm-1:     0.021892     0.008525     0.007192
Rotational constants in MHz :   656.299523   255.581895   215.604998

                             ****ORCA TERMINATED NORMALLY****
TOTAL RUN TIME: 0 days 0 hours 0 minutes 30 seconds 818 msec
