                         Program Version 4.2.1 -  RELEASE  -
|  1> ! wB97X-D3 SP def2-SVP
|  2> %pal
|  3> nprocs 16
|  4> end
|  5>
|  6> * xyz 0 1
|  7> S 	 30.4752 	 17.3065 	 68.8576
|  8> C 	 29.8418 	 15.7099 	 69.2242
|  9> C 	 30.5848 	 15.1332 	 70.238
| 10> C 	 31.5248 	 16.0316 	 70.7955
| 11> C 	 31.5664 	 17.2882 	 70.2846
| 12> H 	 32.0539 	 16.0349 	 71.7596
| 13> C 	 30.4638 	 13.6749 	 70.6975
| 14> H 	 31.0944 	 13.5842 	 71.5666
| 15> H 	 30.8044 	 13.049 	 69.887
| 16> C 	 28.9585 	 13.2963 	 71.0593
| 17> H 	 28.5779 	 14.0028 	 71.7712
| 18> H 	 28.3498 	 13.3402 	 70.1366
| 19> C 	 28.8346 	 11.8881 	 71.5798
| 20> H 	 29.1654 	 11.7971 	 72.6029
| 21> H 	 27.8176 	 11.4302 	 71.6455
| 22> H 	 29.481 	 11.2215 	 70.9616
| 23> S 	 31.7814 	 19.9943 	 70.7797
| 24> C 	 33.2274 	 20.7567 	 71.1974
| 25> C 	 34.297 	 19.8439 	 71.3113
| 26> C 	 33.8001 	 18.4936 	 71.1093
| 27> C 	 32.4716 	 18.3951 	 70.7525
| 28> H 	 35.3238 	 20.1682 	 71.3705
| 29> C 	 34.7981 	 17.3401 	 71.2409
| 30> H 	 34.2654 	 16.5458 	 71.8284
| 31> H 	 35.6333 	 17.7051 	 71.8638
| 32> C 	 35.4352 	 16.8083 	 69.9505
| 33> H 	 34.6086 	 16.4879 	 69.3182
| 34> H 	 35.9619 	 15.964 	 70.177
| 35> C 	 36.3318 	 17.8938 	 69.2624
| 36> H 	 36.8338 	 18.4949 	 70.105
| 37> H 	 35.7476 	 18.59 	 68.6563
| 38> H 	 36.9603 	 17.5023 	 68.4694
| 39> H 	 29.0642 	 15.1244 	 68.7179
| 40> H 	 33.3281 	 21.8007 	 71.3905
| 41> *
| 42>
| 43>                          ****END OF INPUT****

CARTESIAN COORDINATES (ANGSTROEM)
---------------------------------
  S     30.475200   17.306500   68.857600
  C     29.841800   15.709900   69.224200
  C     30.584800   15.133200   70.238000
  C     31.524800   16.031600   70.795500
  C     31.566400   17.288200   70.284600
  H     32.053900   16.034900   71.759600
  C     30.463800   13.674900   70.697500
  H     31.094400   13.584200   71.566600
  H     30.804400   13.049000   69.887000
  C     28.958500   13.296300   71.059300
  H     28.577900   14.002800   71.771200
  H     28.349800   13.340200   70.136600
  C     28.834600   11.888100   71.579800
  H     29.165400   11.797100   72.602900
  H     27.817600   11.430200   71.645500
  H     29.481000   11.221500   70.961600
  S     31.781400   19.994300   70.779700
  C     33.227400   20.756700   71.197400
  C     34.297000   19.843900   71.311300
  C     33.800100   18.493600   71.109300
  C     32.471600   18.395100   70.752500
  H     35.323800   20.168200   71.370500
  C     34.798100   17.340100   71.240900
  H     34.265400   16.545800   71.828400
  H     35.633300   17.705100   71.863800
  C     35.435200   16.808300   69.950500
  H     34.608600   16.487900   69.318200
  H     35.961900   15.964000   70.177000
  C     36.331800   17.893800   69.262400
  H     36.833800   18.494900   70.105000
  H     35.747600   18.590000   68.656300
  H     36.960300   17.502300   68.469400
  H     29.064200   15.124400   68.717900
  H     33.328100   21.800700   71.390500

 Total Charge           Charge          ....    0
 Multiplicity           Mult            ....    1
 Number of Electrons    NEL             ....  134
 Basis Dimension        Dim             ....  322

ORBITAL ENERGIES
----------------

  NO   OCC          E(Eh)            E(eV)
   0   2.0000     -88.967308     -2420.9235
   1   2.0000     -88.965607     -2420.8772
   2   2.0000     -10.335181      -281.2346
   3   2.0000     -10.331100      -281.1235
   4   2.0000     -10.316910      -280.7374
   5   2.0000     -10.316758      -280.7333
   6   2.0000     -10.307990      -280.4947
   7   2.0000     -10.301391      -280.3151
   8   2.0000     -10.298449      -280.2351
   9   2.0000     -10.295959      -280.1673
  10   2.0000     -10.294029      -280.1148
  11   2.0000     -10.290700      -280.0242
  12   2.0000     -10.289906      -280.0026
  13   2.0000     -10.283931      -279.8400
  14   2.0000     -10.280516      -279.7471
  15   2.0000     -10.278871      -279.7023
  16   2.0000      -8.081666      -219.9133
  17   2.0000      -8.080891      -219.8922
  18   2.0000      -6.040069      -164.3586
  19   2.0000      -6.039592      -164.3457
  20   2.0000      -6.035724      -164.2404
  21   2.0000      -6.035513      -164.2347
  22   2.0000      -6.032716      -164.1586
  23   2.0000      -6.031529      -164.1263
  24   2.0000      -1.007637       -27.4192
  25   2.0000      -0.987366       -26.8676
  26   2.0000      -0.907525       -24.6950
  27   2.0000      -0.907053       -24.6822
  28   2.0000      -0.868064       -23.6212
  29   2.0000      -0.849263       -23.1096
  30   2.0000      -0.843276       -22.9467
  31   2.0000      -0.817151       -22.2358
  32   2.0000      -0.779033       -21.1986
  33   2.0000      -0.769708       -20.9448
  34   2.0000      -0.710240       -19.3266
  35   2.0000      -0.703663       -19.1477
  36   2.0000      -0.687925       -18.7194
  37   2.0000      -0.668828       -18.1997
  38   2.0000      -0.640172       -17.4200
  39   2.0000      -0.613111       -16.6836
  40   2.0000      -0.587032       -15.9740
  41   2.0000      -0.569558       -15.4985
  42   2.0000      -0.567673       -15.4472
  43   2.0000      -0.556591       -15.1456
  44   2.0000      -0.544008       -14.8032
  45   2.0000      -0.526015       -14.3136
  46   2.0000      -0.515987       -14.0407
  47   2.0000      -0.512095       -13.9348
  48   2.0000      -0.508363       -13.8333
  49   2.0000      -0.498181       -13.5562
  50   2.0000      -0.482357       -13.1256
  51   2.0000      -0.477566       -12.9952
  52   2.0000      -0.471742       -12.8368
  53   2.0000      -0.466606       -12.6970
  54   2.0000      -0.462431       -12.5834
  55   2.0000      -0.446610       -12.1529
  56   2.0000      -0.437745       -11.9117
  57   2.0000      -0.435017       -11.8374
  58   2.0000      -0.433441       -11.7945
  59   2.0000      -0.423583       -11.5263
  60   2.0000      -0.419115       -11.4047
  61   2.0000      -0.415894       -11.3171
  62   2.0000      -0.412910       -11.2358
  63   2.0000      -0.353188        -9.6107
  64   2.0000      -0.331006        -9.0071
  65   2.0000      -0.328700        -8.9444
  66   2.0000      -0.294129        -8.0037
  67   0.0000       0.028113         0.7650
  68   0.0000       0.071989         1.9589
  69   0.0000       0.113271         3.0823
  70   0.0000       0.115809         3.1513
  71   0.0000       0.130694         3.5564

MULLIKEN ATOMIC CHARGES
-----------------------
   0 S :    0.106107
   1 C :   -0.123165
   2 C :   -0.093026
   3 C :   -0.005783
   4 C :   -0.117553
   5 H :    0.030470
   6 C :    0.089614
   7 H :    0.020002
   8 H :    0.041923
   9 C :   -0.092382
  10 H :    0.037177
  11 H :    0.032387
  12 C :   -0.054766
  13 H :    0.024194
  14 H :    0.040317
  15 H :    0.027525
  16 S :    0.118003
  17 C :   -0.084195
  18 C :   -0.042377
  19 C :   -0.053139
  20 C :   -0.177133
  21 H :    0.025636
  22 C :    0.006224
  23 H :    0.032668
  24 H :    0.021138
  25 C :    0.004568
  26 H :    0.032097
  27 H :    0.012311
  28 C :   -0.079044
  29 H :    0.038595
  30 H :    0.036566
  31 H :    0.036333
  32 H :    0.054716
  33 H :    0.053994
Sum of atomic charges:   -0.0000000

LOEWDIN ATOMIC CHARGES
----------------------
   0 S :    0.381821
   1 C :   -0.197663
   2 C :   -0.067036
   3 C :   -0.081654
   4 C :   -0.177823
   5 H :    0.038072
   6 C :   -0.019607
   7 H :    0.026634
   8 H :    0.032480
   9 C :   -0.038139
  10 H :    0.023675
  11 H :    0.024295
  12 C :   -0.075484
  13 H :    0.021340
  14 H :    0.031059
  15 H :    0.027067
  16 S :    0.443867
  17 C :   -0.197077
  18 C :   -0.074706
  19 C :   -0.053175
  20 C :   -0.209112
  21 H :    0.031474
  22 C :   -0.035364
  23 H :    0.032105
  24 H :    0.027331
  25 C :   -0.029314
  26 H :    0.028144
  27 H :    0.011355
  28 C :   -0.072837
  29 H :    0.030770
  30 H :    0.028199
  31 H :    0.027266
  32 H :    0.036101
  33 H :    0.025936

  Mayer bond orders larger than 0.100000
B(  0-S ,  1-C ) :   1.1304 B(  0-S ,  4-C ) :   1.1268 B(  1-C ,  2-C ) :   1.6152
B(  1-C , 32-H ) :   0.9674 B(  2-C ,  3-C ) :   1.2331 B(  2-C ,  6-C ) :   1.0148
B(  3-C ,  4-C ) :   1.6178 B(  3-C ,  5-H ) :   0.9814 B(  4-C , 20-C ) :   1.0291
B(  6-C ,  7-H ) :   0.9489 B(  6-C ,  8-H ) :   0.9332 B(  6-C ,  9-C ) :   1.0621
B(  9-C , 10-H ) :   0.9626 B(  9-C , 11-H ) :   0.9535 B(  9-C , 12-C ) :   1.0874
B( 12-C , 13-H ) :   0.9738 B( 12-C , 14-H ) :   0.9734 B( 12-C , 15-H ) :   0.9710
B( 16-S , 17-C ) :   1.2035 B( 16-S , 20-C ) :   1.1405 B( 17-C , 18-C ) :   1.5604
B( 17-C , 33-H ) :   0.9701 B( 18-C , 19-C ) :   1.2664 B( 18-C , 21-H ) :   0.9928
B( 19-C , 20-C ) :   1.5895 B( 19-C , 22-C ) :   1.0288 B( 22-C , 23-H ) :   0.9387
B( 22-C , 24-H ) :   0.9375 B( 22-C , 25-C ) :   1.0797 B( 25-C , 26-H ) :   0.9532
B( 25-C , 27-H ) :   0.9561 B( 25-C , 28-C ) :   1.0618 B( 28-C , 29-H ) :   0.9751
B( 28-C , 30-H ) :   0.9731 B( 28-C , 31-H ) :   0.9737

Dispersion correction           -0.014228975
FINAL SINGLE POINT ENERGY     -1339.870476661715

DIPOLE MOMENT
-------------
                                X             Y             Z
Electronic contribution:     -8.04845      22.53245      -4.22069
Nuclear contribution   :      8.36434     -22.96764       4.41045
                        -----------------------------------------
Total Dipole Moment    :      0.31590      -0.43519       0.18975
                        -----------------------------------------
Magnitude (a.u.)       :      0.57025
Magnitude (Debye)      :      1.44947

Rotational constants in cm-1:     0.022121     0.007253     0.006286
Rotational constants in MHz :   663.161467   217.441872   188.458083

                             ****ORCA TERMINATED NORMALLY****
TOTAL RUN TIME: 0 days 0 hours 0 minutes 29 seconds 479 msec
