                         Program Version 4.2.1 -  RELEASE  -
|  1> ! wB97X-D3 SP def2-SVP
|  2> %pal
|  3> nprocs 16
|  4> end
|  5>
|  6> * xyz 0 1
|  7> S 	 -54.9755 	 36.242 	 114.334
|  8> C 	 -54.1507 	 35.3038 	 113.074
|  9> C 	 -54.2019 	 35.9288 	 111.857
| 10> C 	 -55.1435 	 37.0385 	 111.782
| 11> C 	 -55.6135 	 37.3279 	 113.063
| 12> H 	 -55.4267 	 37.6472 	 110.906
| 13> C 	 -53.4706 	 35.5451 	 110.64
| 14> H 	 -54.0467 	 35.4511 	 109.781
| 15> H 	 -53.1191 	 34.493 	 110.897
| 16> C 	 -52.2948 	 36.4756 	 110.347
| 17> H 	 -51.8934 	 36.2914 	 109.391
| 18> H 	 -52.5384 	 37.5595 	 110.459
| 19> C 	 -51.2042 	 36.2504 	 111.346
| 20> H 	 -50.5974 	 35.4374 	 111.081
| 21> H 	 -50.7137 	 37.1268 	 111.491
| 22> H 	 -51.6168 	 36.0583 	 112.33
| 23> S 	 -58.1005 	 37.9287 	 114.24
| 24> C 	 -58.5736 	 39.5756 	 114.295
| 25> C 	 -57.5717 	 40.3959 	 113.817
| 26> C 	 -56.3991 	 39.6828 	 113.407
| 27> C 	 -56.5845 	 38.3585 	 113.415
| 28> H 	 -57.8099 	 41.4724 	 113.815
| 29> C 	 -55.1753 	 40.4179 	 113.168
| 30> H 	 -55.28 	 41.1081 	 112.347
| 31> H 	 -54.4 	 39.6881 	 112.973
| 32> C 	 -54.8108 	 41.372 	 114.257
| 33> H 	 -54.6943 	 40.7188 	 115.109
| 34> H 	 -55.4808 	 42.1763 	 114.588
| 35> C 	 -53.394 	 41.8489 	 114.107
| 36> H 	 -52.8064 	 40.9388 	 113.933
| 37> H 	 -53.1737 	 42.3042 	 115.062
| 38> H 	 -53.1814 	 42.5745 	 113.349
| 39> H 	 -53.3912 	 34.539 	 113.378
| 40> H 	 -59.5725 	 39.7896 	 114.564
| 41> *
| 42>
| 43>                          ****END OF INPUT****

CARTESIAN COORDINATES (ANGSTROEM)
---------------------------------
  S    -54.975500   36.242000  114.334000
  C    -54.150700   35.303800  113.074000
  C    -54.201900   35.928800  111.857000
  C    -55.143500   37.038500  111.782000
  C    -55.613500   37.327900  113.063000
  H    -55.426700   37.647200  110.906000
  C    -53.470600   35.545100  110.640000
  H    -54.046700   35.451100  109.781000
  H    -53.119100   34.493000  110.897000
  C    -52.294800   36.475600  110.347000
  H    -51.893400   36.291400  109.391000
  H    -52.538400   37.559500  110.459000
  C    -51.204200   36.250400  111.346000
  H    -50.597400   35.437400  111.081000
  H    -50.713700   37.126800  111.491000
  H    -51.616800   36.058300  112.330000
  S    -58.100500   37.928700  114.240000
  C    -58.573600   39.575600  114.295000
  C    -57.571700   40.395900  113.817000
  C    -56.399100   39.682800  113.407000
  C    -56.584500   38.358500  113.415000
  H    -57.809900   41.472400  113.815000
  C    -55.175300   40.417900  113.168000
  H    -55.280000   41.108100  112.347000
  H    -54.400000   39.688100  112.973000
  C    -54.810800   41.372000  114.257000
  H    -54.694300   40.718800  115.109000
  H    -55.480800   42.176300  114.588000
  C    -53.394000   41.848900  114.107000
  H    -52.806400   40.938800  113.933000
  H    -53.173700   42.304200  115.062000
  H    -53.181400   42.574500  113.349000
  H    -53.391200   34.539000  113.378000
  H    -59.572500   39.789600  114.564000

 Total Charge           Charge          ....    0
 Multiplicity           Mult            ....    1
 Number of Electrons    NEL             ....  134
 Basis Dimension        Dim             ....  322

ORBITAL ENERGIES
----------------

  NO   OCC          E(Eh)            E(eV)
   0   2.0000     -88.965738     -2420.8808
   1   2.0000     -88.958565     -2420.6856
   2   2.0000     -10.333360      -281.1850
   3   2.0000     -10.318469      -280.7798
   4   2.0000     -10.317718      -280.7594
   5   2.0000     -10.312077      -280.6059
   6   2.0000     -10.301698      -280.3235
   7   2.0000     -10.301486      -280.3177
   8   2.0000     -10.294083      -280.1162
   9   2.0000     -10.292579      -280.0753
  10   2.0000     -10.285655      -279.8869
  11   2.0000     -10.280242      -279.7396
  12   2.0000     -10.280046      -279.7343
  13   2.0000     -10.277817      -279.6736
  14   2.0000     -10.271448      -279.5003
  15   2.0000     -10.255919      -279.0777
  16   2.0000      -8.079690      -219.8595
  17   2.0000      -8.074146      -219.7087
  18   2.0000      -6.038240      -164.3089
  19   2.0000      -6.034522      -164.2077
  20   2.0000      -6.032635      -164.1564
  21   2.0000      -6.030239      -164.0911
  22   2.0000      -6.028613      -164.0469
  23   2.0000      -6.024801      -163.9432
  24   2.0000      -1.008330       -27.4381
  25   2.0000      -0.983540       -26.7635
  26   2.0000      -0.926921       -25.2228
  27   2.0000      -0.920824       -25.0569
  28   2.0000      -0.872562       -23.7436
  29   2.0000      -0.857226       -23.3263
  30   2.0000      -0.847434       -23.0598
  31   2.0000      -0.813127       -22.1263
  32   2.0000      -0.785437       -21.3728
  33   2.0000      -0.775797       -21.1105
  34   2.0000      -0.706364       -19.2211
  35   2.0000      -0.699598       -19.0370
  36   2.0000      -0.692770       -18.8512
  37   2.0000      -0.659072       -17.9343
  38   2.0000      -0.640032       -17.4162
  39   2.0000      -0.619469       -16.8566
  40   2.0000      -0.605752       -16.4834
  41   2.0000      -0.580563       -15.7979
  42   2.0000      -0.576354       -15.6834
  43   2.0000      -0.556912       -15.1543
  44   2.0000      -0.547843       -14.9076
  45   2.0000      -0.536621       -14.6022
  46   2.0000      -0.525931       -14.3113
  47   2.0000      -0.515434       -14.0257
  48   2.0000      -0.507775       -13.8173
  49   2.0000      -0.496151       -13.5010
  50   2.0000      -0.490742       -13.3538
  51   2.0000      -0.471880       -12.8405
  52   2.0000      -0.465829       -12.6759
  53   2.0000      -0.459109       -12.4930
  54   2.0000      -0.456023       -12.4090
  55   2.0000      -0.450019       -12.2456
  56   2.0000      -0.445787       -12.1305
  57   2.0000      -0.441635       -12.0175
  58   2.0000      -0.434311       -11.8182
  59   2.0000      -0.426654       -11.6098
  60   2.0000      -0.420649       -11.4464
  61   2.0000      -0.412647       -11.2287
  62   2.0000      -0.408390       -11.1128
  63   2.0000      -0.341475        -9.2920
  64   2.0000      -0.330845        -9.0027
  65   2.0000      -0.322958        -8.7881
  66   2.0000      -0.301168        -8.1952
  67   0.0000       0.037032         1.0077
  68   0.0000       0.064381         1.7519
  69   0.0000       0.107130         2.9151
  70   0.0000       0.125333         3.4105
  71   0.0000       0.126924         3.4538

MULLIKEN ATOMIC CHARGES
-----------------------
   0 S :    0.096708
   1 C :   -0.128498
   2 C :   -0.107546
   3 C :    0.037626
   4 C :   -0.183526
   5 H :    0.036850
   6 C :    0.076340
   7 H :    0.013532
   8 H :    0.022069
   9 C :   -0.063948
  10 H :    0.019584
  11 H :    0.033304
  12 C :    0.012939
  13 H :    0.020725
  14 H :    0.001024
  15 H :    0.007295
  16 S :    0.095355
  17 C :   -0.090680
  18 C :   -0.035822
  19 C :   -0.008670
  20 C :   -0.168201
  21 H :    0.028557
  22 C :    0.132415
  23 H :    0.014712
  24 H :    0.018851
  25 C :   -0.119719
  26 H :    0.017333
  27 H :    0.040753
  28 C :   -0.020877
  29 H :    0.026638
  30 H :    0.028071
  31 H :    0.025609
  32 H :    0.072690
  33 H :    0.048505
Sum of atomic charges:    0.0000000

LOEWDIN ATOMIC CHARGES
----------------------
   0 S :    0.371239
   1 C :   -0.200598
   2 C :   -0.061173
   3 C :   -0.055899
   4 C :   -0.171053
   5 H :    0.042682
   6 C :   -0.030620
   7 H :    0.020258
   8 H :    0.036635
   9 C :   -0.032718
  10 H :    0.017776
  11 H :    0.029113
  12 C :   -0.053006
  13 H :    0.018489
  14 H :    0.013005
  15 H :    0.023694
  16 S :    0.395420
  17 C :   -0.178545
  18 C :   -0.073489
  19 C :   -0.054714
  20 C :   -0.200951
  21 H :    0.035667
  22 C :   -0.032045
  23 H :    0.031474
  24 H :    0.030554
  25 C :   -0.044043
  26 H :    0.025466
  27 H :    0.026561
  28 C :   -0.056933
  29 H :    0.028353
  30 H :    0.027253
  31 H :    0.015898
  32 H :    0.036209
  33 H :    0.020044

  Mayer bond orders larger than 0.100000
B(  0-S ,  1-C ) :   1.1035 B(  0-S ,  4-C ) :   1.1469 B(  1-C ,  2-C ) :   1.6596
B(  1-C , 32-H ) :   0.9519 B(  2-C ,  3-C ) :   1.1802 B(  2-C ,  6-C ) :   1.0390
B(  3-C ,  4-C ) :   1.6112 B(  3-C ,  5-H ) :   0.9884 B(  4-C , 20-C ) :   1.0271
B(  6-C ,  7-H ) :   0.9383 B(  6-C ,  8-H ) :   0.9421 B(  6-C ,  9-C ) :   1.0608
B(  9-C , 10-H ) :   0.9563 B(  9-C , 11-H ) :   0.9630 B(  9-C , 12-C ) :   1.0765
B( 12-C , 13-H ) :   0.9736 B( 12-C , 14-H ) :   0.9678 B( 12-C , 15-H ) :   0.9720
B( 16-S , 17-C ) :   1.1648 B( 16-S , 20-C ) :   1.1117 B( 17-C , 18-C ) :   1.6189
B( 17-C , 33-H ) :   0.9738 B( 18-C , 19-C ) :   1.1851 B( 18-C , 21-H ) :   0.9915
B( 19-C , 20-C ) :   1.6407 B( 19-C , 22-C ) :   1.0772 B( 22-C , 23-H ) :   0.9088
B( 22-C , 24-H ) :   0.9204 B( 22-C , 25-C ) :   1.0702 B( 25-C , 26-H ) :   0.9524
B( 25-C , 27-H ) :   0.9493 B( 25-C , 28-C ) :   1.0877 B( 28-C , 29-H ) :   0.9731
B( 28-C , 30-H ) :   0.9737 B( 28-C , 31-H ) :   0.9747

Dispersion correction           -0.014567139
FINAL SINGLE POINT ENERGY     -1339.856089519471

DIPOLE MOMENT
-------------
                                X             Y             Z
Electronic contribution:    -22.85768     -10.58624       9.95516
Nuclear contribution   :     23.20985      11.05239     -10.29450
                        -----------------------------------------
Total Dipole Moment    :      0.35217       0.46614      -0.33933
                        -----------------------------------------
Magnitude (a.u.)       :      0.67562
Magnitude (Debye)      :      1.71729

Rotational constants in cm-1:     0.018946     0.009189     0.007151
Rotational constants in MHz :   567.981622   275.472447   214.366608

                             ****ORCA TERMINATED NORMALLY****
TOTAL RUN TIME: 0 days 0 hours 0 minutes 29 seconds 466 msec
