                         Program Version 4.2.1 -  RELEASE  -
|  1> ! wB97X-D3 SP def2-SVP
|  2> %pal
|  3> nprocs 16
|  4> end
|  5>
|  6> * xyz 0 1
|  7> S 	 -16.309 	 41.5619 	 33.376
|  8> C 	 -17.0935 	 41.2738 	 34.8499
|  9> C 	 -16.0917 	 40.8104 	 35.7219
| 10> C 	 -14.7802 	 40.737 	 35.1413
| 11> C 	 -14.713 	 41.2836 	 33.8807
| 12> H 	 -13.9174 	 40.3215 	 35.5895
| 13> C 	 -16.3489 	 40.4605 	 37.147
| 14> H 	 -17.0221 	 41.2166 	 37.5569
| 15> H 	 -15.4262 	 40.4494 	 37.7902
| 16> C 	 -17.1471 	 39.1655 	 37.4419
| 17> H 	 -17.295 	 39.172 	 38.4938
| 18> H 	 -18.0805 	 39.3395 	 36.9949
| 19> C 	 -16.5138 	 37.8406 	 36.906
| 20> H 	 -16.8514 	 36.9812 	 37.5582
| 21> H 	 -16.6764 	 37.7341 	 35.8153
| 22> H 	 -15.455 	 37.8933 	 37.0163
| 23> S 	 -13.1746 	 43.102 	 32.5637
| 24> C 	 -11.6427 	 42.6802 	 31.9457
| 25> C 	 -11.3429 	 41.389 	 32.0813
| 26> C 	 -12.3778 	 40.6823 	 32.8081
| 27> C 	 -13.4881 	 41.4675 	 33.1102
| 28> H 	 -10.442 	 40.9889 	 31.5429
| 29> C 	 -12.2395 	 39.1415 	 32.9384
| 30> H 	 -11.9669 	 38.8407 	 32.0042
| 31> H 	 -13.2844 	 38.8233 	 33.0686
| 32> C 	 -11.3213 	 38.7377 	 34.1425
| 33> H 	 -11.4247 	 37.6883 	 34.359
| 34> H 	 -11.5936 	 39.2183 	 35.1101
| 35> C 	 -9.81659 	 38.8064 	 33.8525
| 36> H 	 -9.49489 	 39.7992 	 33.4473
| 37> H 	 -9.63333 	 37.9724 	 33.2634
| 38> H 	 -9.26742 	 38.542 	 34.7961
| 39> H 	 -18.1319 	 41.1796 	 34.9628
| 40> H 	 -11.0103 	 43.274 	 31.3284
| 41> *
| 42>
| 43>                          ****END OF INPUT****

CARTESIAN COORDINATES (ANGSTROEM)
---------------------------------
  S    -16.309000   41.561900   33.376000
  C    -17.093500   41.273800   34.849900
  C    -16.091700   40.810400   35.721900
  C    -14.780200   40.737000   35.141300
  C    -14.713000   41.283600   33.880700
  H    -13.917400   40.321500   35.589500
  C    -16.348900   40.460500   37.147000
  H    -17.022100   41.216600   37.556900
  H    -15.426200   40.449400   37.790200
  C    -17.147100   39.165500   37.441900
  H    -17.295000   39.172000   38.493800
  H    -18.080500   39.339500   36.994900
  C    -16.513800   37.840600   36.906000
  H    -16.851400   36.981200   37.558200
  H    -16.676400   37.734100   35.815300
  H    -15.455000   37.893300   37.016300
  S    -13.174600   43.102000   32.563700
  C    -11.642700   42.680200   31.945700
  C    -11.342900   41.389000   32.081300
  C    -12.377800   40.682300   32.808100
  C    -13.488100   41.467500   33.110200
  H    -10.442000   40.988900   31.542900
  C    -12.239500   39.141500   32.938400
  H    -11.966900   38.840700   32.004200
  H    -13.284400   38.823300   33.068600
  C    -11.321300   38.737700   34.142500
  H    -11.424700   37.688300   34.359000
  H    -11.593600   39.218300   35.110100
  C     -9.816590   38.806400   33.852500
  H     -9.494890   39.799200   33.447300
  H     -9.633330   37.972400   33.263400
  H     -9.267420   38.542000   34.796100
  H    -18.131900   41.179600   34.962800
  H    -11.010300   43.274000   31.328400

 Total Charge           Charge          ....    0
 Multiplicity           Mult            ....    1
 Number of Electrons    NEL             ....  134
 Basis Dimension        Dim             ....  322

ORBITAL ENERGIES
----------------

  NO   OCC          E(Eh)            E(eV)
   0   2.0000     -88.964847     -2420.8566
   1   2.0000     -88.961692     -2420.7707
   2   2.0000     -10.329282      -281.0741
   3   2.0000     -10.326693      -281.0036
   4   2.0000     -10.311574      -280.5922
   5   2.0000     -10.306962      -280.4667
   6   2.0000     -10.306481      -280.4536
   7   2.0000     -10.302241      -280.3382
   8   2.0000     -10.291587      -280.0483
   9   2.0000     -10.290099      -280.0078
  10   2.0000     -10.289774      -279.9990
  11   2.0000     -10.289580      -279.9937
  12   2.0000     -10.288827      -279.9732
  13   2.0000     -10.280550      -279.7480
  14   2.0000     -10.279923      -279.7309
  15   2.0000     -10.278533      -279.6931
  16   2.0000      -8.081260      -219.9023
  17   2.0000      -8.077583      -219.8022
  18   2.0000      -6.039617      -164.3463
  19   2.0000      -6.036073      -164.2499
  20   2.0000      -6.035226      -164.2268
  21   2.0000      -6.032360      -164.1489
  22   2.0000      -6.031881      -164.1358
  23   2.0000      -6.028328      -164.0392
  24   2.0000      -1.016906       -27.6714
  25   2.0000      -0.995267       -27.0826
  26   2.0000      -0.910977       -24.7889
  27   2.0000      -0.905971       -24.6527
  28   2.0000      -0.876346       -23.8466
  29   2.0000      -0.850092       -23.1322
  30   2.0000      -0.844073       -22.9684
  31   2.0000      -0.822607       -22.3843
  32   2.0000      -0.783164       -21.3110
  33   2.0000      -0.773692       -21.0532
  34   2.0000      -0.708991       -19.2926
  35   2.0000      -0.704146       -19.1608
  36   2.0000      -0.693672       -18.8758
  37   2.0000      -0.659717       -17.9518
  38   2.0000      -0.646511       -17.5925
  39   2.0000      -0.615202       -16.7405
  40   2.0000      -0.591237       -16.0884
  41   2.0000      -0.581539       -15.8245
  42   2.0000      -0.552264       -15.0279
  43   2.0000      -0.550331       -14.9753
  44   2.0000      -0.543445       -14.7879
  45   2.0000      -0.539495       -14.6804
  46   2.0000      -0.522892       -14.2286
  47   2.0000      -0.518779       -14.1167
  48   2.0000      -0.512143       -13.9361
  49   2.0000      -0.500603       -13.6221
  50   2.0000      -0.492685       -13.4066
  51   2.0000      -0.478168       -13.0116
  52   2.0000      -0.473241       -12.8776
  53   2.0000      -0.469841       -12.7850
  54   2.0000      -0.465203       -12.6588
  55   2.0000      -0.443750       -12.0751
  56   2.0000      -0.441539       -12.0149
  57   2.0000      -0.434382       -11.8201
  58   2.0000      -0.426804       -11.6139
  59   2.0000      -0.424840       -11.5605
  60   2.0000      -0.422522       -11.4974
  61   2.0000      -0.411785       -11.2052
  62   2.0000      -0.406506       -11.0616
  63   2.0000      -0.351692        -9.5700
  64   2.0000      -0.329245        -8.9592
  65   2.0000      -0.324536        -8.8311
  66   2.0000      -0.298284        -8.1167
  67   0.0000       0.034026         0.9259
  68   0.0000       0.073427         1.9980
  69   0.0000       0.118952         3.2369
  70   0.0000       0.124200         3.3797
  71   0.0000       0.132381         3.6023

MULLIKEN ATOMIC CHARGES
-----------------------
   0 S :    0.122729
   1 C :   -0.098087
   2 C :   -0.092734
   3 C :    0.045436
   4 C :   -0.134919
   5 H :   -0.013661
   6 C :    0.016428
   7 H :    0.029181
   8 H :    0.031981
   9 C :   -0.048952
  10 H :    0.022014
  11 H :    0.007959
  12 C :   -0.055114
  13 H :    0.046627
  14 H :    0.050087
  15 H :    0.014744
  16 S :    0.108691
  17 C :   -0.053683
  18 C :   -0.075089
  19 C :   -0.063817
  20 C :   -0.163997
  21 H :    0.045290
  22 C :    0.110286
  23 H :    0.004368
  24 H :    0.026735
  25 C :   -0.075816
  26 H :    0.018679
  27 H :    0.037717
  28 C :   -0.048154
  29 H :    0.050072
  30 H :    0.016795
  31 H :    0.033860
  32 H :    0.046349
  33 H :    0.037995
Sum of atomic charges:   -0.0000000

LOEWDIN ATOMIC CHARGES
----------------------
   0 S :    0.460339
   1 C :   -0.213444
   2 C :   -0.064036
   3 C :   -0.059626
   4 C :   -0.221457
   5 H :    0.023329
   6 C :   -0.040566
   7 H :    0.035202
   8 H :    0.031133
   9 C :   -0.033389
  10 H :    0.019725
  11 H :    0.012046
  12 C :   -0.070793
  13 H :    0.035515
  14 H :    0.033175
  15 H :    0.016556
  16 S :    0.421293
  17 C :   -0.191422
  18 C :   -0.088576
  19 C :   -0.049011
  20 C :   -0.200357
  21 H :    0.043645
  22 C :   -0.017847
  23 H :    0.016851
  24 H :    0.033957
  25 C :   -0.040193
  26 H :    0.021727
  27 H :    0.024996
  28 C :   -0.065531
  29 H :    0.027282
  30 H :    0.015443
  31 H :    0.033952
  32 H :    0.023774
  33 H :    0.026306

  Mayer bond orders larger than 0.100000
B(  0-S ,  1-C ) :   1.1684 B(  0-S ,  4-C ) :   1.1953 B(  1-C ,  2-C ) :   1.5206
B(  1-C ,  4-C ) :   0.1046 B(  1-C , 32-H ) :   0.9843 B(  2-C ,  3-C ) :   1.2889
B(  2-C ,  6-C ) :   1.0356 B(  3-C ,  4-C ) :   1.5073 B(  3-C ,  5-H ) :   1.0124
B(  4-C , 20-C ) :   1.0131 B(  6-C ,  7-H ) :   0.9397 B(  6-C ,  8-H ) :   0.9468
B(  6-C ,  9-C ) :   1.0813 B(  9-C , 10-H ) :   0.9574 B(  9-C , 11-H ) :   0.9579
B(  9-C , 12-C ) :   1.0638 B( 12-C , 13-H ) :   0.9761 B( 12-C , 14-H ) :   0.9739
B( 12-C , 15-H ) :   0.9793 B( 16-S , 17-C ) :   1.1591 B( 16-S , 20-C ) :   1.1376
B( 17-C , 18-C ) :   1.6558 B( 17-C , 33-H ) :   0.9591 B( 18-C , 19-C ) :   1.2146
B( 18-C , 21-H ) :   0.9742 B( 19-C , 20-C ) :   1.6327 B( 19-C , 22-C ) :   1.0169
B( 22-C , 23-H ) :   0.9466 B( 22-C , 24-H ) :   0.9408 B( 22-C , 25-C ) :   1.0529
B( 25-C , 26-H ) :   0.9578 B( 25-C , 27-H ) :   0.9598 B( 25-C , 28-C ) :   1.0756
B( 28-C , 29-H ) :   0.9722 B( 28-C , 30-H ) :   0.9788 B( 28-C , 31-H ) :   0.9698

Dispersion correction           -0.014583573
FINAL SINGLE POINT ENERGY     -1339.858500090000

DIPOLE MOMENT
-------------
                                X             Y             Z
Electronic contribution:     -6.52639      22.41434     -15.72522
Nuclear contribution   :      6.74066     -22.99354      15.95716
                        -----------------------------------------
Total Dipole Moment    :      0.21427      -0.57920       0.23194
                        -----------------------------------------
Magnitude (a.u.)       :      0.65968
Magnitude (Debye)      :      1.67678

Rotational constants in cm-1:     0.019120     0.008937     0.006593
Rotational constants in MHz :   573.211290   267.933722   197.660548

                             ****ORCA TERMINATED NORMALLY****
TOTAL RUN TIME: 0 days 0 hours 0 minutes 34 seconds 518 msec
