                         Program Version 4.2.1 -  RELEASE  -
|  1> ! wB97X-D3 SP def2-SVP
|  2> %pal
|  3> nprocs 16
|  4> end
|  5>
|  6> * xyz 0 1
|  7> S 	 -11.4287 	 64.4852 	 53.3682
|  8> C 	 -11.9735 	 62.8141 	 53.1588
|  9> C 	 -11.0612 	 61.9298 	 53.6055
| 10> C 	 -9.92585 	 62.5369 	 54.1054
| 11> C 	 -9.86413 	 63.8936 	 53.9454
| 12> H 	 -8.99026 	 61.9896 	 54.3705
| 13> C 	 -11.1422 	 60.4139 	 53.5963
| 14> H 	 -12.2279 	 60.3337 	 53.5543
| 15> H 	 -10.7854 	 60.084 	 54.564
| 16> C 	 -10.3547 	 59.6497 	 52.4608
| 17> H 	 -10.893 	 59.7827 	 51.5102
| 18> H 	 -9.4009 	 60.1141 	 52.2885
| 19> C 	 -10.2272 	 58.1893 	 52.6928
| 20> H 	 -11.007 	 57.8379 	 53.3321
| 21> H 	 -10.0829 	 57.6262 	 51.7764
| 22> H 	 -9.31349 	 58.0624 	 53.3284
| 23> S 	 -7.43754 	 64.93 	 53.3763
| 24> C 	 -6.71677 	 66.2371 	 54.3971
| 25> C 	 -7.52966 	 66.4718 	 55.4715
| 26> C 	 -8.73535 	 65.6716 	 55.4812
| 27> C 	 -8.79761 	 64.7548 	 54.4594
| 28> H 	 -7.1773 	 67.0492 	 56.305
| 29> C 	 -9.67286 	 65.7457 	 56.6264
| 30> H 	 -9.96075 	 64.7071 	 56.843
| 31> H 	 -10.557 	 66.1283 	 56.2193
| 32> C 	 -9.30124 	 66.4083 	 57.9702
| 33> H 	 -8.96433 	 67.4311 	 57.7279
| 34> H 	 -8.45362 	 65.8846 	 58.3274
| 35> C 	 -10.5023 	 66.6124 	 58.9133
| 36> H 	 -10.2583 	 67.297 	 59.7047
| 37> H 	 -10.7156 	 65.7113 	 59.4
| 38> H 	 -11.3844 	 66.967 	 58.4324
| 39> H 	 -12.869 	 62.4898 	 52.7489
| 40> H 	 -5.70578 	 66.6659 	 54.2874
| 41> *
| 42>
| 43>                          ****END OF INPUT****

CARTESIAN COORDINATES (ANGSTROEM)
---------------------------------
  S    -11.428700   64.485200   53.368200
  C    -11.973500   62.814100   53.158800
  C    -11.061200   61.929800   53.605500
  C     -9.925850   62.536900   54.105400
  C     -9.864130   63.893600   53.945400
  H     -8.990260   61.989600   54.370500
  C    -11.142200   60.413900   53.596300
  H    -12.227900   60.333700   53.554300
  H    -10.785400   60.084000   54.564000
  C    -10.354700   59.649700   52.460800
  H    -10.893000   59.782700   51.510200
  H     -9.400900   60.114100   52.288500
  C    -10.227200   58.189300   52.692800
  H    -11.007000   57.837900   53.332100
  H    -10.082900   57.626200   51.776400
  H     -9.313490   58.062400   53.328400
  S     -7.437540   64.930000   53.376300
  C     -6.716770   66.237100   54.397100
  C     -7.529660   66.471800   55.471500
  C     -8.735350   65.671600   55.481200
  C     -8.797610   64.754800   54.459400
  H     -7.177300   67.049200   56.305000
  C     -9.672860   65.745700   56.626400
  H     -9.960750   64.707100   56.843000
  H    -10.557000   66.128300   56.219300
  C     -9.301240   66.408300   57.970200
  H     -8.964330   67.431100   57.727900
  H     -8.453620   65.884600   58.327400
  C    -10.502300   66.612400   58.913300
  H    -10.258300   67.297000   59.704700
  H    -10.715600   65.711300   59.400000
  H    -11.384400   66.967000   58.432400
  H    -12.869000   62.489800   52.748900
  H     -5.705780   66.665900   54.287400

 Total Charge           Charge          ....    0
 Multiplicity           Mult            ....    1
 Number of Electrons    NEL             ....  134
 Basis Dimension        Dim             ....  322

ORBITAL ENERGIES
----------------

  NO   OCC          E(Eh)            E(eV)
   0   2.0000     -88.967834     -2420.9378
   1   2.0000     -88.960632     -2420.7419
   2   2.0000     -10.327811      -281.0340
   3   2.0000     -10.321733      -280.8686
   4   2.0000     -10.321075      -280.8507
   5   2.0000     -10.308627      -280.5120
   6   2.0000     -10.300669      -280.2955
   7   2.0000     -10.294268      -280.1213
   8   2.0000     -10.291365      -280.0423
   9   2.0000     -10.289976      -280.0045
  10   2.0000     -10.287887      -279.9477
  11   2.0000     -10.287632      -279.9407
  12   2.0000     -10.285768      -279.8900
  13   2.0000     -10.279737      -279.7259
  14   2.0000     -10.275907      -279.6216
  15   2.0000     -10.272333      -279.5244
  16   2.0000      -8.081712      -219.9146
  17   2.0000      -8.074676      -219.7231
  18   2.0000      -6.040292      -164.3647
  19   2.0000      -6.036402      -164.2589
  20   2.0000      -6.033392      -164.1769
  21   2.0000      -6.032376      -164.1493
  22   2.0000      -6.029171      -164.0621
  23   2.0000      -6.025364      -163.9585
  24   2.0000      -1.007272       -27.4093
  25   2.0000      -0.983707       -26.7680
  26   2.0000      -0.911506       -24.8033
  27   2.0000      -0.908437       -24.7198
  28   2.0000      -0.874021       -23.7833
  29   2.0000      -0.853412       -23.2225
  30   2.0000      -0.849275       -23.1100
  31   2.0000      -0.819117       -22.2893
  32   2.0000      -0.782274       -21.2868
  33   2.0000      -0.771317       -20.9886
  34   2.0000      -0.714668       -19.4471
  35   2.0000      -0.703543       -19.1444
  36   2.0000      -0.700982       -19.0747
  37   2.0000      -0.656833       -17.8733
  38   2.0000      -0.637531       -17.3481
  39   2.0000      -0.617947       -16.8152
  40   2.0000      -0.594008       -16.1638
  41   2.0000      -0.574645       -15.6369
  42   2.0000      -0.570607       -15.5270
  43   2.0000      -0.558195       -15.1892
  44   2.0000      -0.534517       -14.5450
  45   2.0000      -0.526366       -14.3231
  46   2.0000      -0.518183       -14.1005
  47   2.0000      -0.514546       -14.0015
  48   2.0000      -0.507821       -13.8185
  49   2.0000      -0.503663       -13.7054
  50   2.0000      -0.489276       -13.3139
  51   2.0000      -0.477485       -12.9930
  52   2.0000      -0.475618       -12.9422
  53   2.0000      -0.463151       -12.6030
  54   2.0000      -0.460656       -12.5351
  55   2.0000      -0.452528       -12.3139
  56   2.0000      -0.444816       -12.1041
  57   2.0000      -0.437595       -11.9076
  58   2.0000      -0.435110       -11.8399
  59   2.0000      -0.424567       -11.5530
  60   2.0000      -0.418317       -11.3830
  61   2.0000      -0.412149       -11.2152
  62   2.0000      -0.409430       -11.1411
  63   2.0000      -0.338555        -9.2126
  64   2.0000      -0.335469        -9.1286
  65   2.0000      -0.319759        -8.7011
  66   2.0000      -0.305693        -8.3183
  67   0.0000       0.039438         1.0732
  68   0.0000       0.058583         1.5941
  69   0.0000       0.111549         3.0354
  70   0.0000       0.117151         3.1878
  71   0.0000       0.134137         3.6501

MULLIKEN ATOMIC CHARGES
-----------------------
   0 S :    0.115466
   1 C :   -0.098389
   2 C :   -0.080630
   3 C :    0.009492
   4 C :   -0.140051
   5 H :    0.030419
   6 C :    0.074089
   7 H :    0.017713
   8 H :    0.022539
   9 C :   -0.056452
  10 H :    0.024051
  11 H :    0.026327
  12 C :   -0.031530
  13 H :    0.028067
  14 H :    0.043958
  15 H :    0.026722
  16 S :    0.087110
  17 C :   -0.096372
  18 C :   -0.039003
  19 C :   -0.047871
  20 C :   -0.184643
  21 H :    0.021128
  22 C :    0.090742
  23 H :    0.025070
  24 H :    0.002359
  25 C :   -0.085405
  26 H :    0.029392
  27 H :    0.028139
  28 C :    0.011197
  29 H :    0.026228
  30 H :    0.017453
  31 H :    0.028351
  32 H :    0.007311
  33 H :    0.067024
Sum of atomic charges:    0.0000000

LOEWDIN ATOMIC CHARGES
----------------------
   0 S :    0.391376
   1 C :   -0.174575
   2 C :   -0.072903
   3 C :   -0.064042
   4 C :   -0.192157
   5 H :    0.039328
   6 C :   -0.024765
   7 H :    0.030149
   8 H :    0.028095
   9 C :   -0.040467
  10 H :    0.025537
  11 H :    0.021521
  12 C :   -0.065555
  13 H :    0.022988
  14 H :    0.029785
  15 H :    0.030510
  16 S :    0.383291
  17 C :   -0.169793
  18 C :   -0.074238
  19 C :   -0.053331
  20 C :   -0.204608
  21 H :    0.030101
  22 C :   -0.038037
  23 H :    0.036258
  24 H :    0.023571
  25 C :   -0.034211
  26 H :    0.022521
  27 H :    0.020195
  28 C :   -0.050355
  29 H :    0.027543
  30 H :    0.018802
  31 H :    0.025940
  32 H :    0.014525
  33 H :    0.037002

  Mayer bond orders larger than 0.100000
B(  0-S ,  1-C ) :   1.1292 B(  0-S ,  4-C ) :   1.1291 B(  1-C ,  2-C ) :   1.6389
B(  1-C , 32-H ) :   0.9695 B(  2-C ,  3-C ) :   1.2515 B(  2-C ,  6-C ) :   1.0029
B(  3-C ,  4-C ) :   1.6022 B(  3-C ,  5-H ) :   0.9809 B(  4-C , 20-C ) :   1.0046
B(  6-C ,  7-H ) :   0.9346 B(  6-C ,  8-H ) :   0.9434 B(  6-C ,  9-C ) :   1.0545
B(  9-C , 10-H ) :   0.9537 B(  9-C , 11-H ) :   0.9625 B(  9-C , 12-C ) :   1.0820
B( 12-C , 13-H ) :   0.9739 B( 12-C , 14-H ) :   0.9739 B( 12-C , 15-H ) :   0.9733
B( 16-S , 17-C ) :   1.1404 B( 16-S , 20-C ) :   1.1333 B( 17-C , 18-C ) :   1.6289
B( 17-C , 33-H ) :   0.9598 B( 18-C , 19-C ) :   1.2263 B( 18-C , 21-H ) :   0.9815
B( 19-C , 20-C ) :   1.6321 B( 19-C , 22-C ) :   1.0316 B( 22-C , 23-H ) :   0.9315
B( 22-C , 24-H ) :   0.9059 B( 22-C , 25-C ) :   1.0750 B( 25-C , 26-H ) :   0.9481
B( 25-C , 27-H ) :   0.9575 B( 25-C , 28-C ) :   1.0798 B( 28-C , 29-H ) :   0.9736
B( 28-C , 30-H ) :   0.9745 B( 28-C , 31-H ) :   0.9737

Dispersion correction           -0.013603080
FINAL SINGLE POINT ENERGY     -1339.865080375019

DIPOLE MOMENT
-------------
                                X             Y             Z
Electronic contribution:      4.73403      12.79547     -13.26296
Nuclear contribution   :     -4.77142     -13.10574      13.73243
                        -----------------------------------------
Total Dipole Moment    :     -0.03739      -0.31028       0.46947
                        -----------------------------------------
Magnitude (a.u.)       :      0.56398
Magnitude (Debye)      :      1.43351

Rotational constants in cm-1:     0.019747     0.007161     0.006272
Rotational constants in MHz :   591.986901   214.667749   188.034616

                             ****ORCA TERMINATED NORMALLY****
TOTAL RUN TIME: 0 days 0 hours 0 minutes 32 seconds 314 msec
