                         Program Version 4.2.1 -  RELEASE  -
|  1> ! wB97X-D3 SP def2-SVP
|  2> %pal
|  3> nprocs 16
|  4> end
|  5>
|  6> * xyz 0 1
|  7> S 	 32.4587 	 18.6396 	 68.798
|  8> C 	 31.3228 	 18.0953 	 69.9067
|  9> C 	 31.8927 	 17.6065 	 71.0903
| 10> C 	 33.311 	 17.6792 	 71.0725
| 11> C 	 33.811 	 18.1621 	 69.8644
| 12> H 	 33.8794 	 17.3054 	 71.9002
| 13> C 	 31.1 	 17.0624 	 72.2675
| 14> H 	 31.1853 	 16.0325 	 72.3508
| 15> H 	 29.9994 	 17.2416 	 72.0658
| 16> C 	 31.363 	 17.7324 	 73.589
| 17> H 	 31.3564 	 18.818 	 73.5307
| 18> H 	 30.5576 	 17.5416 	 74.1723
| 19> C 	 32.6209 	 17.1197 	 74.3942
| 20> H 	 33.4909 	 17.7243 	 74.3719
| 21> H 	 32.3593 	 17.0866 	 75.4331
| 22> H 	 32.7972 	 16.0989 	 73.9908
| 23> S 	 35.7076 	 20.0468 	 69.3076
| 24> C 	 37.4198 	 19.5758 	 69.1761
| 25> C 	 37.4478 	 18.1546 	 68.9477
| 26> C 	 36.2301 	 17.4845 	 69.1824
| 27> C 	 35.2267 	 18.3679 	 69.5309
| 28> H 	 38.3138 	 17.657 	 68.5896
| 29> C 	 36.0524 	 16.0239 	 68.9625
| 30> H 	 35.6238 	 15.6092 	 69.8619
| 31> H 	 37.0035 	 15.4978 	 68.8391
| 32> C 	 35.3097 	 15.7261 	 67.7119
| 33> H 	 34.3679 	 16.2024 	 67.9394
| 34> H 	 35.1729 	 14.6569 	 67.6707
| 35> C 	 35.8402 	 16.2756 	 66.3884
| 36> H 	 35.3592 	 15.7811 	 65.6013
| 37> H 	 36.9757 	 16.1549 	 66.3019
| 38> H 	 35.5538 	 17.3457 	 66.2491
| 39> H 	 30.2962 	 18.1116 	 69.7255
| 40> H 	 38.2237 	 20.197 	 69.167
| 41> *
| 42>
| 43>                          ****END OF INPUT****

CARTESIAN COORDINATES (ANGSTROEM)
---------------------------------
  S     32.458700   18.639600   68.798000
  C     31.322800   18.095300   69.906700
  C     31.892700   17.606500   71.090300
  C     33.311000   17.679200   71.072500
  C     33.811000   18.162100   69.864400
  H     33.879400   17.305400   71.900200
  C     31.100000   17.062400   72.267500
  H     31.185300   16.032500   72.350800
  H     29.999400   17.241600   72.065800
  C     31.363000   17.732400   73.589000
  H     31.356400   18.818000   73.530700
  H     30.557600   17.541600   74.172300
  C     32.620900   17.119700   74.394200
  H     33.490900   17.724300   74.371900
  H     32.359300   17.086600   75.433100
  H     32.797200   16.098900   73.990800
  S     35.707600   20.046800   69.307600
  C     37.419800   19.575800   69.176100
  C     37.447800   18.154600   68.947700
  C     36.230100   17.484500   69.182400
  C     35.226700   18.367900   69.530900
  H     38.313800   17.657000   68.589600
  C     36.052400   16.023900   68.962500
  H     35.623800   15.609200   69.861900
  H     37.003500   15.497800   68.839100
  C     35.309700   15.726100   67.711900
  H     34.367900   16.202400   67.939400
  H     35.172900   14.656900   67.670700
  C     35.840200   16.275600   66.388400
  H     35.359200   15.781100   65.601300
  H     36.975700   16.154900   66.301900
  H     35.553800   17.345700   66.249100
  H     30.296200   18.111600   69.725500
  H     38.223700   20.197000   69.167000

 Total Charge           Charge          ....    0
 Multiplicity           Mult            ....    1
 Number of Electrons    NEL             ....  134
 Basis Dimension        Dim             ....  322

ORBITAL ENERGIES
----------------

  NO   OCC          E(Eh)            E(eV)
   0   2.0000     -88.968743     -2420.9626
   1   2.0000     -88.965039     -2420.8618
   2   2.0000     -10.331508      -281.1346
   3   2.0000     -10.323834      -280.9258
   4   2.0000     -10.317869      -280.7635
   5   2.0000     -10.305764      -280.4341
   6   2.0000     -10.297310      -280.2040
   7   2.0000     -10.296918      -280.1934
   8   2.0000     -10.293796      -280.1084
   9   2.0000     -10.292935      -280.0850
  10   2.0000     -10.288747      -279.9710
  11   2.0000     -10.281582      -279.7761
  12   2.0000     -10.280141      -279.7369
  13   2.0000     -10.279391      -279.7165
  14   2.0000     -10.276607      -279.6407
  15   2.0000     -10.272885      -279.5394
  16   2.0000      -8.083813      -219.9717
  17   2.0000      -8.078955      -219.8395
  18   2.0000      -6.042212      -164.4169
  19   2.0000      -6.038156      -164.3066
  20   2.0000      -6.037475      -164.2880
  21   2.0000      -6.034794      -164.2151
  22   2.0000      -6.033635      -164.1836
  23   2.0000      -6.029699      -164.0765
  24   2.0000      -1.004150       -27.3243
  25   2.0000      -0.982510       -26.7355
  26   2.0000      -0.915716       -24.9179
  27   2.0000      -0.911222       -24.7956
  28   2.0000      -0.865004       -23.5380
  29   2.0000      -0.848126       -23.0787
  30   2.0000      -0.843782       -22.9605
  31   2.0000      -0.811038       -22.0695
  32   2.0000      -0.785988       -21.3878
  33   2.0000      -0.774100       -21.0643
  34   2.0000      -0.709577       -19.3086
  35   2.0000      -0.702884       -19.1265
  36   2.0000      -0.686405       -18.6780
  37   2.0000      -0.670100       -18.2343
  38   2.0000      -0.646256       -17.5855
  39   2.0000      -0.620898       -16.8955
  40   2.0000      -0.595969       -16.2171
  41   2.0000      -0.571541       -15.5524
  42   2.0000      -0.560839       -15.2612
  43   2.0000      -0.550455       -14.9786
  44   2.0000      -0.541574       -14.7370
  45   2.0000      -0.537376       -14.6227
  46   2.0000      -0.516322       -14.0498
  47   2.0000      -0.508840       -13.8462
  48   2.0000      -0.503578       -13.7030
  49   2.0000      -0.496303       -13.5051
  50   2.0000      -0.487125       -13.2553
  51   2.0000      -0.480473       -13.0743
  52   2.0000      -0.474319       -12.9069
  53   2.0000      -0.467440       -12.7197
  54   2.0000      -0.461324       -12.5533
  55   2.0000      -0.450749       -12.2655
  56   2.0000      -0.446197       -12.1416
  57   2.0000      -0.440755       -11.9935
  58   2.0000      -0.433349       -11.7920
  59   2.0000      -0.419914       -11.4264
  60   2.0000      -0.418280       -11.3820
  61   2.0000      -0.413703       -11.2574
  62   2.0000      -0.402369       -10.9490
  63   2.0000      -0.342603        -9.3227
  64   2.0000      -0.328165        -8.9298
  65   2.0000      -0.323182        -8.7942
  66   2.0000      -0.291811        -7.9406
  67   0.0000       0.033700         0.9170
  68   0.0000       0.052872         1.4387
  69   0.0000       0.110755         3.0138
  70   0.0000       0.124297         3.3823
  71   0.0000       0.127324         3.4647

MULLIKEN ATOMIC CHARGES
-----------------------
   0 S :    0.132016
   1 C :   -0.102006
   2 C :   -0.088062
   3 C :    0.063664
   4 C :   -0.178650
   5 H :    0.005440
   6 C :    0.058089
   7 H :    0.022563
   8 H :    0.019019
   9 C :   -0.037930
  10 H :    0.030980
  11 H :    0.001756
  12 C :   -0.066128
  13 H :    0.041203
  14 H :    0.029981
  15 H :    0.036432
  16 S :    0.106925
  17 C :   -0.059167
  18 C :   -0.035277
  19 C :   -0.018135
  20 C :   -0.196058
  21 H :    0.005043
  22 C :    0.113196
  23 H :    0.024092
  24 H :    0.002721
  25 C :   -0.067539
  26 H :    0.020151
  27 H :    0.025361
  28 C :   -0.039393
  29 H :    0.024031
  30 H :    0.034046
  31 H :    0.044852
  32 H :    0.024759
  33 H :    0.022026
Sum of atomic charges:    0.0000000

LOEWDIN ATOMIC CHARGES
----------------------
   0 S :    0.427285
   1 C :   -0.211833
   2 C :   -0.063127
   3 C :   -0.051533
   4 C :   -0.194871
   5 H :    0.031692
   6 C :   -0.028640
   7 H :    0.019740
   8 H :    0.037013
   9 C :   -0.031971
  10 H :    0.028400
  11 H :    0.011702
  12 C :   -0.064891
  13 H :    0.020109
  14 H :    0.025368
  15 H :    0.027666
  16 S :    0.398855
  17 C :   -0.162608
  18 C :   -0.057701
  19 C :   -0.054676
  20 C :   -0.198576
  21 H :    0.022536
  22 C :   -0.031130
  23 H :    0.033786
  24 H :    0.024715
  25 C :   -0.041836
  26 H :    0.021194
  27 H :    0.021837
  28 C :   -0.064427
  29 H :    0.020199
  30 H :    0.029263
  31 H :    0.034319
  32 H :    0.015426
  33 H :    0.006712

  Mayer bond orders larger than 0.100000
B(  0-S ,  1-C ) :   1.1659 B(  0-S ,  4-C ) :   1.1523 B(  1-C ,  2-C ) :   1.5801
B(  1-C , 32-H ) :   0.9721 B(  2-C ,  3-C ) :   1.2770 B(  2-C ,  6-C ) :   1.0276
B(  3-C ,  4-C ) :   1.5537 B(  3-C ,  5-H ) :   0.9932 B(  4-C , 20-C ) :   1.0237
B(  6-C ,  7-H ) :   0.9367 B(  6-C ,  8-H ) :   0.9400 B(  6-C ,  9-C ) :   1.0892
B(  9-C , 10-H ) :   0.9556 B(  9-C , 11-H ) :   0.9559 B(  9-C , 12-C ) :   1.0530
B( 12-C , 13-H ) :   0.9780 B( 12-C , 14-H ) :   0.9758 B( 12-C , 15-H ) :   0.9778
B( 16-S , 17-C ) :   1.1607 B( 16-S , 20-C ) :   1.1535 B( 17-C , 18-C ) :   1.5537
B( 17-C , 20-C ) :   0.1221 B( 17-C , 33-H ) :   0.9879 B( 18-C , 19-C ) :   1.2760
B( 18-C , 21-H ) :   0.9882 B( 19-C , 20-C ) :   1.5602 B( 19-C , 22-C ) :   1.0470
B( 22-C , 23-H ) :   0.9224 B( 22-C , 24-H ) :   0.9244 B( 22-C , 25-C ) :   1.0828
B( 25-C , 26-H ) :   0.9508 B( 25-C , 27-H ) :   0.9549 B( 25-C , 28-C ) :   1.0760
B( 28-C , 29-H ) :   0.9718 B( 28-C , 30-H ) :   0.9746 B( 28-C , 31-H ) :   0.9695

Dispersion correction           -0.015376305
FINAL SINGLE POINT ENERGY     -1339.857303418984

DIPOLE MOMENT
-------------
                                X             Y             Z
Electronic contribution:      2.16301      16.28682      -8.91117
Nuclear contribution   :     -2.29367     -16.75259       9.20941
                        -----------------------------------------
Total Dipole Moment    :     -0.13066      -0.46577       0.29824
                        -----------------------------------------
Magnitude (a.u.)       :      0.56830
Magnitude (Debye)      :      1.44449

Rotational constants in cm-1:     0.020532     0.008337     0.007930
Rotational constants in MHz :   615.521306   249.932805   237.725029

                             ****ORCA TERMINATED NORMALLY****
TOTAL RUN TIME: 0 days 0 hours 0 minutes 29 seconds 808 msec
