                         Program Version 4.2.1 -  RELEASE  -
|  1> ! wB97X-D3 SP def2-SVP
|  2> %pal
|  3> nprocs 16
|  4> end
|  5>
|  6> * xyz 0 1
|  7> S 	 -49.3282 	 56.9182 	 130.22
|  8> C 	 -49.0099 	 56.5997 	 128.62
|  9> C 	 -49.1896 	 57.7719 	 127.868
| 10> C 	 -49.698 	 58.8501 	 128.64
| 11> C 	 -49.8188 	 58.5415 	 129.984
| 12> H 	 -50.0097 	 59.817 	 128.313
| 13> C 	 -49.0891 	 57.8611 	 126.39
| 14> H 	 -50.0903 	 57.6668 	 125.899
| 15> H 	 -48.3876 	 57.1068 	 126.152
| 16> C 	 -48.539 	 59.2357 	 125.913
| 17> H 	 -49.1306 	 60.0216 	 126.341
| 18> H 	 -47.5306 	 59.2784 	 126.339
| 19> C 	 -48.4409 	 59.2778 	 124.362
| 20> H 	 -47.7073 	 58.4977 	 124.013
| 21> H 	 -49.4105 	 59.1335 	 123.928
| 22> H 	 -48.1768 	 60.3261 	 124.046
| 23> S 	 -51.5965 	 58.3678 	 132.005
| 24> C 	 -51.8807 	 59.8582 	 132.883
| 25> C 	 -51.4856 	 61.0032 	 132.248
| 26> C 	 -50.6652 	 60.7248 	 131.101
| 27> C 	 -50.4911 	 59.3264 	 131.003
| 28> H 	 -51.7177 	 61.9431 	 132.75
| 29> C 	 -50.0715 	 61.8723 	 130.256
| 30> H 	 -50.581 	 62.0279 	 129.383
| 31> H 	 -49.0957 	 61.5888 	 129.851
| 32> C 	 -49.9253 	 63.1813 	 130.959
| 33> H 	 -50.9258 	 63.4548 	 131.444
| 34> H 	 -49.5989 	 63.9683 	 130.331
| 35> C 	 -48.915 	 63.1798 	 132.191
| 36> H 	 -48.0732 	 62.5826 	 132.061
| 37> H 	 -49.4098 	 62.764 	 133.125
| 38> H 	 -48.7012 	 64.1846 	 132.487
| 39> H 	 -48.6696 	 55.6823 	 128.1
| 40> H 	 -52.5235 	 59.8534 	 133.724
| 41> *
| 42>
| 43>                          ****END OF INPUT****

CARTESIAN COORDINATES (ANGSTROEM)
---------------------------------
  S    -49.328200   56.918200  130.220000
  C    -49.009900   56.599700  128.620000
  C    -49.189600   57.771900  127.868000
  C    -49.698000   58.850100  128.640000
  C    -49.818800   58.541500  129.984000
  H    -50.009700   59.817000  128.313000
  C    -49.089100   57.861100  126.390000
  H    -50.090300   57.666800  125.899000
  H    -48.387600   57.106800  126.152000
  C    -48.539000   59.235700  125.913000
  H    -49.130600   60.021600  126.341000
  H    -47.530600   59.278400  126.339000
  C    -48.440900   59.277800  124.362000
  H    -47.707300   58.497700  124.013000
  H    -49.410500   59.133500  123.928000
  H    -48.176800   60.326100  124.046000
  S    -51.596500   58.367800  132.005000
  C    -51.880700   59.858200  132.883000
  C    -51.485600   61.003200  132.248000
  C    -50.665200   60.724800  131.101000
  C    -50.491100   59.326400  131.003000
  H    -51.717700   61.943100  132.750000
  C    -50.071500   61.872300  130.256000
  H    -50.581000   62.027900  129.383000
  H    -49.095700   61.588800  129.851000
  C    -49.925300   63.181300  130.959000
  H    -50.925800   63.454800  131.444000
  H    -49.598900   63.968300  130.331000
  C    -48.915000   63.179800  132.191000
  H    -48.073200   62.582600  132.061000
  H    -49.409800   62.764000  133.125000
  H    -48.701200   64.184600  132.487000
  H    -48.669600   55.682300  128.100000
  H    -52.523500   59.853400  133.724000

 Total Charge           Charge          ....    0
 Multiplicity           Mult            ....    1
 Number of Electrons    NEL             ....  134
 Basis Dimension        Dim             ....  322

ORBITAL ENERGIES
----------------

  NO   OCC          E(Eh)            E(eV)
   0   2.0000     -88.966847     -2420.9110
   1   2.0000     -88.965562     -2420.8760
   2   2.0000     -10.330745      -281.1139
   3   2.0000     -10.320865      -280.8450
   4   2.0000     -10.312309      -280.6122
   5   2.0000     -10.310219      -280.5553
   6   2.0000     -10.309800      -280.5439
   7   2.0000     -10.294896      -280.1384
   8   2.0000     -10.294301      -280.1222
   9   2.0000     -10.292261      -280.0667
  10   2.0000     -10.291236      -280.0388
  11   2.0000     -10.287037      -279.9245
  12   2.0000     -10.286545      -279.9111
  13   2.0000     -10.286454      -279.9086
  14   2.0000     -10.285797      -279.8908
  15   2.0000     -10.274106      -279.5726
  16   2.0000      -8.082193      -219.9276
  17   2.0000      -8.081451      -219.9075
  18   2.0000      -6.040479      -164.3698
  19   2.0000      -6.039790      -164.3510
  20   2.0000      -6.036392      -164.2586
  21   2.0000      -6.036174      -164.2526
  22   2.0000      -6.033324      -164.1751
  23   2.0000      -6.031965      -164.1381
  24   2.0000      -1.015334       -27.6286
  25   2.0000      -0.987320       -26.8664
  26   2.0000      -0.914860       -24.8946
  27   2.0000      -0.911059       -24.7912
  28   2.0000      -0.871721       -23.7207
  29   2.0000      -0.850994       -23.1567
  30   2.0000      -0.841768       -22.9057
  31   2.0000      -0.814834       -22.1728
  32   2.0000      -0.790077       -21.4991
  33   2.0000      -0.768392       -20.9090
  34   2.0000      -0.713041       -19.4028
  35   2.0000      -0.698642       -19.0110
  36   2.0000      -0.689323       -18.7574
  37   2.0000      -0.656225       -17.8568
  38   2.0000      -0.638730       -17.3807
  39   2.0000      -0.624365       -16.9898
  40   2.0000      -0.605840       -16.4858
  41   2.0000      -0.571751       -15.5581
  42   2.0000      -0.565802       -15.3963
  43   2.0000      -0.557173       -15.1615
  44   2.0000      -0.538071       -14.6416
  45   2.0000      -0.521573       -14.1927
  46   2.0000      -0.517702       -14.0874
  47   2.0000      -0.509365       -13.8605
  48   2.0000      -0.500306       -13.6140
  49   2.0000      -0.498499       -13.5648
  50   2.0000      -0.492107       -13.3909
  51   2.0000      -0.484551       -13.1853
  52   2.0000      -0.473299       -12.8791
  53   2.0000      -0.463102       -12.6016
  54   2.0000      -0.459959       -12.5161
  55   2.0000      -0.453127       -12.3302
  56   2.0000      -0.447227       -12.1697
  57   2.0000      -0.436755       -11.8847
  58   2.0000      -0.432420       -11.7667
  59   2.0000      -0.426779       -11.6132
  60   2.0000      -0.424036       -11.5386
  61   2.0000      -0.415943       -11.3184
  62   2.0000      -0.411790       -11.2054
  63   2.0000      -0.355366        -9.6700
  64   2.0000      -0.333572        -9.0770
  65   2.0000      -0.326112        -8.8740
  66   2.0000      -0.281800        -7.6682
  67   0.0000       0.023308         0.6342
  68   0.0000       0.079490         2.1630
  69   0.0000       0.099510         2.7078
  70   0.0000       0.123890         3.3712
  71   0.0000       0.134658         3.6642

MULLIKEN ATOMIC CHARGES
-----------------------
   0 S :    0.127782
   1 C :   -0.111464
   2 C :   -0.116446
   3 C :    0.018605
   4 C :   -0.150964
   5 H :   -0.010016
   6 C :    0.073036
   7 H :    0.052287
   8 H :    0.002386
   9 C :   -0.117909
  10 H :    0.031855
  11 H :    0.033866
  12 C :   -0.036030
  13 H :    0.046638
  14 H :    0.024130
  15 H :    0.037844
  16 S :    0.101094
  17 C :   -0.069334
  18 C :   -0.051461
  19 C :   -0.037117
  20 C :   -0.137270
  21 H :    0.028765
  22 C :    0.125346
  23 H :    0.021995
  24 H :    0.021325
  25 C :   -0.102030
  26 H :    0.036671
  27 H :    0.028746
  28 C :   -0.044159
  29 H :    0.026723
  30 H :    0.027201
  31 H :    0.027513
  32 H :    0.057016
  33 H :    0.033376
Sum of atomic charges:    0.0000000

LOEWDIN ATOMIC CHARGES
----------------------
   0 S :    0.461579
   1 C :   -0.239392
   2 C :   -0.070518
   3 C :   -0.064542
   4 C :   -0.214724
   5 H :    0.022901
   6 C :   -0.034696
   7 H :    0.038124
   8 H :    0.021207
   9 C :   -0.038913
  10 H :    0.016282
  11 H :    0.027262
  12 C :   -0.067188
  13 H :    0.033733
  14 H :    0.018935
  15 H :    0.031074
  16 S :    0.391891
  17 C :   -0.174646
  18 C :   -0.068939
  19 C :   -0.045499
  20 C :   -0.179832
  21 H :    0.035873
  22 C :   -0.031292
  23 H :    0.021983
  24 H :    0.034467
  25 C :   -0.037255
  26 H :    0.029518
  27 H :    0.021753
  28 C :   -0.062954
  29 H :    0.015054
  30 H :    0.030372
  31 H :    0.021826
  32 H :    0.041656
  33 H :    0.014897

  Mayer bond orders larger than 0.100000
B(  0-S ,  1-C ) :   1.1649 B(  0-S ,  4-C ) :   1.1815 B(  1-C ,  2-C ) :   1.5519
B(  1-C , 32-H ) :   0.9654 B(  2-C ,  3-C ) :   1.2814 B(  2-C ,  6-C ) :   1.0351
B(  3-C ,  4-C ) :   1.5222 B(  3-C ,  5-H ) :   0.9936 B(  4-C , 20-C ) :   1.0624
B(  6-C ,  7-H ) :   0.9359 B(  6-C ,  8-H ) :   0.9338 B(  6-C ,  9-C ) :   1.0637
B(  9-C , 10-H ) :   0.9558 B(  9-C , 11-H ) :   0.9585 B(  9-C , 12-C ) :   1.0842
B( 12-C , 13-H ) :   0.9738 B( 12-C , 14-H ) :   0.9745 B( 12-C , 15-H ) :   0.9737
B( 16-S , 17-C ) :   1.1333 B( 16-S , 20-C ) :   1.1469 B( 17-C , 18-C ) :   1.6525
B( 17-C , 33-H ) :   0.9677 B( 18-C , 19-C ) :   1.2079 B( 18-C , 21-H ) :   0.9817
B( 19-C , 20-C ) :   1.6096 B( 19-C , 22-C ) :   1.0194 B( 22-C , 23-H ) :   0.9199
B( 22-C , 24-H ) :   0.9265 B( 22-C , 25-C ) :   1.0890 B( 25-C , 26-H ) :   0.9482
B( 25-C , 27-H ) :   0.9546 B( 25-C , 28-C ) :   1.0705 B( 28-C , 29-H ) :   0.9786
B( 28-C , 30-H ) :   0.9733 B( 28-C , 31-H ) :   0.9772

Dispersion correction           -0.013872710
FINAL SINGLE POINT ENERGY     -1339.861427337809

DIPOLE MOMENT
-------------
                                X             Y             Z
Electronic contribution:     -8.75397     -20.59985      17.20251
Nuclear contribution   :      8.70569      21.10098     -17.63793
                        -----------------------------------------
Total Dipole Moment    :     -0.04828       0.50112      -0.43543
                        -----------------------------------------
Magnitude (a.u.)       :      0.66562
Magnitude (Debye)      :      1.69188

Rotational constants in cm-1:     0.018104     0.008755     0.006416
Rotational constants in MHz :   542.732442   262.483042   192.359851

                             ****ORCA TERMINATED NORMALLY****
TOTAL RUN TIME: 0 days 0 hours 0 minutes 35 seconds 391 msec
