                         Program Version 4.2.1 -  RELEASE  -
|  1> ! wB97X-D3 SP def2-SVP
|  2> %pal
|  3> nprocs 16
|  4> end
|  5>
|  6> * xyz 0 1
|  7> S 	 -14.6132 	 72.9836 	 51.258
|  8> C 	 -14.0428 	 71.9726 	 49.9131
|  9> C 	 -12.9159 	 71.2367 	 50.2909
| 10> C 	 -12.6135 	 71.3457 	 51.6895
| 11> C 	 -13.2536 	 72.4841 	 52.2962
| 12> H 	 -11.7944 	 70.8972 	 52.2285
| 13> C 	 -12.1968 	 70.2362 	 49.3925
| 14> H 	 -11.1161 	 70.0446 	 49.6884
| 15> H 	 -12.1161 	 70.7495 	 48.4835
| 16> C 	 -12.8808 	 68.8293 	 49.3466
| 17> H 	 -12.9747 	 68.3773 	 50.3229
| 18> H 	 -13.8828 	 68.9967 	 48.8449
| 19> C 	 -12.0499 	 67.9639 	 48.3074
| 20> H 	 -11.1856 	 67.4998 	 48.8261
| 21> H 	 -12.6771 	 67.1423 	 47.9484
| 22> H 	 -11.7226 	 68.4986 	 47.4555
| 23> S 	 -13.1987 	 74.8386 	 53.5676
| 24> C 	 -12.2149 	 75.008 	 55.0335
| 25> C 	 -11.5252 	 73.8659 	 55.3298
| 26> C 	 -11.9184 	 72.7448 	 54.5059
| 27> C 	 -12.8191 	 73.1157 	 53.5212
| 28> H 	 -10.7775 	 73.8572 	 56.1711
| 29> C 	 -11.4657 	 71.342 	 54.7755
| 30> H 	 -12.2934 	 70.7365 	 54.4214
| 31> H 	 -11.6008 	 71.2391 	 55.8508
| 32> C 	 -10.1236 	 70.9904 	 54.3307
| 33> H 	 -9.46018 	 71.5431 	 54.9633
| 34> H 	 -9.92998 	 71.1886 	 53.3091
| 35> C 	 -9.74258 	 69.5031 	 54.6985
| 36> H 	 -9.9387 	 69.3173 	 55.747
| 37> H 	 -8.75 	 69.2487 	 54.5387
| 38> H 	 -10.4145 	 68.7142 	 54.1755
| 39> H 	 -14.446 	 71.8006 	 48.9634
| 40> H 	 -12.0904 	 75.8604 	 55.6142
| 41> *
| 42>
| 43>                          ****END OF INPUT****

CARTESIAN COORDINATES (ANGSTROEM)
---------------------------------
  S    -14.613200   72.983600   51.258000
  C    -14.042800   71.972600   49.913100
  C    -12.915900   71.236700   50.290900
  C    -12.613500   71.345700   51.689500
  C    -13.253600   72.484100   52.296200
  H    -11.794400   70.897200   52.228500
  C    -12.196800   70.236200   49.392500
  H    -11.116100   70.044600   49.688400
  H    -12.116100   70.749500   48.483500
  C    -12.880800   68.829300   49.346600
  H    -12.974700   68.377300   50.322900
  H    -13.882800   68.996700   48.844900
  C    -12.049900   67.963900   48.307400
  H    -11.185600   67.499800   48.826100
  H    -12.677100   67.142300   47.948400
  H    -11.722600   68.498600   47.455500
  S    -13.198700   74.838600   53.567600
  C    -12.214900   75.008000   55.033500
  C    -11.525200   73.865900   55.329800
  C    -11.918400   72.744800   54.505900
  C    -12.819100   73.115700   53.521200
  H    -10.777500   73.857200   56.171100
  C    -11.465700   71.342000   54.775500
  H    -12.293400   70.736500   54.421400
  H    -11.600800   71.239100   55.850800
  C    -10.123600   70.990400   54.330700
  H     -9.460180   71.543100   54.963300
  H     -9.929980   71.188600   53.309100
  C     -9.742580   69.503100   54.698500
  H     -9.938700   69.317300   55.747000
  H     -8.750000   69.248700   54.538700
  H    -10.414500   68.714200   54.175500
  H    -14.446000   71.800600   48.963400
  H    -12.090400   75.860400   55.614200

 Total Charge           Charge          ....    0
 Multiplicity           Mult            ....    1
 Number of Electrons    NEL             ....  134
 Basis Dimension        Dim             ....  322

ORBITAL ENERGIES
----------------

  NO   OCC          E(Eh)            E(eV)
   0   2.0000     -88.971977     -2421.0506
   1   2.0000     -88.965082     -2420.8630
   2   2.0000     -10.337954      -281.3100
   3   2.0000     -10.329092      -281.0689
   4   2.0000     -10.313649      -280.6486
   5   2.0000     -10.312937      -280.6293
   6   2.0000     -10.303596      -280.3751
   7   2.0000     -10.303026      -280.3596
   8   2.0000     -10.299529      -280.2644
   9   2.0000     -10.297591      -280.2117
  10   2.0000     -10.296042      -280.1695
  11   2.0000     -10.293740      -280.1069
  12   2.0000     -10.287195      -279.9288
  13   2.0000     -10.286737      -279.9163
  14   2.0000     -10.283569      -279.8301
  15   2.0000     -10.280507      -279.7468
  16   2.0000      -8.084971      -220.0032
  17   2.0000      -8.079432      -219.8525
  18   2.0000      -6.043724      -164.4581
  19   2.0000      -6.039742      -164.3497
  20   2.0000      -6.038071      -164.3043
  21   2.0000      -6.035552      -164.2357
  22   2.0000      -6.034145      -164.1974
  23   2.0000      -6.029910      -164.0822
  24   2.0000      -1.002969       -27.2922
  25   2.0000      -0.976078       -26.5604
  26   2.0000      -0.922667       -25.1071
  27   2.0000      -0.905123       -24.6296
  28   2.0000      -0.868945       -23.6452
  29   2.0000      -0.852101       -23.1869
  30   2.0000      -0.840790       -22.8791
  31   2.0000      -0.812448       -22.1078
  32   2.0000      -0.782030       -21.2801
  33   2.0000      -0.770496       -20.9663
  34   2.0000      -0.715398       -19.4670
  35   2.0000      -0.703580       -19.1454
  36   2.0000      -0.702862       -19.1259
  37   2.0000      -0.666493       -18.1362
  38   2.0000      -0.635500       -17.2928
  39   2.0000      -0.614440       -16.7198
  40   2.0000      -0.596048       -16.2193
  41   2.0000      -0.576197       -15.6791
  42   2.0000      -0.566694       -15.4205
  43   2.0000      -0.557074       -15.1588
  44   2.0000      -0.536153       -14.5895
  45   2.0000      -0.524754       -14.2793
  46   2.0000      -0.519703       -14.1418
  47   2.0000      -0.512412       -13.9434
  48   2.0000      -0.500557       -13.6208
  49   2.0000      -0.499704       -13.5976
  50   2.0000      -0.486376       -13.2350
  51   2.0000      -0.481172       -13.0933
  52   2.0000      -0.470192       -12.7946
  53   2.0000      -0.466029       -12.6813
  54   2.0000      -0.460597       -12.5335
  55   2.0000      -0.453571       -12.3423
  56   2.0000      -0.449687       -12.2366
  57   2.0000      -0.446885       -12.1604
  58   2.0000      -0.436438       -11.8761
  59   2.0000      -0.420852       -11.4520
  60   2.0000      -0.416764       -11.3407
  61   2.0000      -0.414640       -11.2829
  62   2.0000      -0.411786       -11.2053
  63   2.0000      -0.359388        -9.7794
  64   2.0000      -0.333162        -9.0658
  65   2.0000      -0.327240        -8.9047
  66   2.0000      -0.276836        -7.5331
  67   0.0000       0.012872         0.3503
  68   0.0000       0.081024         2.2048
  69   0.0000       0.100256         2.7281
  70   0.0000       0.114534         3.1166
  71   0.0000       0.127752         3.4763

MULLIKEN ATOMIC CHARGES
-----------------------
   0 S :    0.116116
   1 C :   -0.080991
   2 C :   -0.095785
   3 C :    0.034646
   4 C :   -0.142815
   5 H :   -0.011718
   6 C :    0.032360
   7 H :    0.030119
   8 H :    0.017882
   9 C :   -0.080262
  10 H :    0.045089
  11 H :    0.036543
  12 C :   -0.046325
  13 H :    0.037643
  14 H :    0.033708
  15 H :    0.027416
  16 S :    0.086499
  17 C :   -0.056316
  18 C :   -0.042028
  19 C :   -0.085217
  20 C :   -0.098945
  21 H :    0.036858
  22 C :    0.035018
  23 H :    0.024831
  24 H :    0.021515
  25 C :   -0.018766
  26 H :    0.019133
  27 H :    0.035238
  28 C :   -0.042141
  29 H :    0.020029
  30 H :    0.025670
  31 H :    0.032926
  32 H :    0.023020
  33 H :    0.029052
Sum of atomic charges:   -0.0000000

LOEWDIN ATOMIC CHARGES
----------------------
   0 S :    0.387104
   1 C :   -0.193236
   2 C :   -0.055701
   3 C :   -0.064695
   4 C :   -0.180218
   5 H :    0.025496
   6 C :   -0.036486
   7 H :    0.034161
   8 H :    0.022063
   9 C :   -0.030874
  10 H :    0.025977
  11 H :    0.028363
  12 C :   -0.066208
  13 H :    0.027699
  14 H :    0.026160
  15 H :    0.018944
  16 S :    0.385905
  17 C :   -0.166883
  18 C :   -0.070306
  19 C :   -0.057122
  20 C :   -0.184426
  21 H :    0.040988
  22 C :   -0.041638
  23 H :    0.030557
  24 H :    0.035840
  25 C :   -0.032582
  26 H :    0.027799
  27 H :    0.019609
  28 C :   -0.060979
  29 H :    0.023060
  30 H :    0.014005
  31 H :    0.031118
  32 H :    0.019572
  33 H :    0.016933

  Mayer bond orders larger than 0.100000
B(  0-S ,  1-C ) :   1.1131 B(  0-S ,  4-C ) :   1.1437 B(  1-C ,  2-C ) :   1.6038
B(  1-C ,  4-C ) :   0.1027 B(  1-C , 32-H ) :   0.9731 B(  2-C ,  3-C ) :   1.2631
B(  2-C ,  6-C ) :   1.0271 B(  3-C ,  4-C ) :   1.5315 B(  3-C ,  5-H ) :   0.9792
B(  4-C , 20-C ) :   1.0991 B(  6-C ,  7-H ) :   0.9465 B(  6-C ,  8-H ) :   0.9404
B(  6-C ,  9-C ) :   1.0530 B(  9-C , 10-H ) :   0.9615 B(  9-C , 11-H ) :   0.9601
B(  9-C , 12-C ) :   1.0660 B( 12-C , 13-H ) :   0.9771 B( 12-C , 14-H ) :   0.9773
B( 12-C , 15-H ) :   0.9769 B( 16-S , 17-C ) :   1.1319 B( 16-S , 20-C ) :   1.1132
B( 17-C , 18-C ) :   1.6485 B( 17-C , 33-H ) :   0.9731 B( 18-C , 19-C ) :   1.2208
B( 18-C , 21-H ) :   0.9793 B( 19-C , 20-C ) :   1.6106 B( 19-C , 22-C ) :   1.0256
B( 22-C , 23-H ) :   0.9372 B( 22-C , 24-H ) :   0.9254 B( 22-C , 25-C ) :   1.0661
B( 25-C , 26-H ) :   0.9434 B( 25-C , 27-H ) :   0.9541 B( 25-C , 28-C ) :   1.0793
B( 28-C , 29-H ) :   0.9731 B( 28-C , 30-H ) :   0.9777 B( 28-C , 31-H ) :   0.9754

Dispersion correction           -0.013972908
FINAL SINGLE POINT ENERGY     -1339.852694044698

DIPOLE MOMENT
-------------
                                X             Y             Z
Electronic contribution:    -16.80560      28.23346       4.93679
Nuclear contribution   :     17.43150     -28.76761      -4.83533
                        -----------------------------------------
Total Dipole Moment    :      0.62590      -0.53415       0.10147
                        -----------------------------------------
Magnitude (a.u.)       :      0.82908
Magnitude (Debye)      :      2.10734

Rotational constants in cm-1:     0.017733     0.009096     0.006247
Rotational constants in MHz :   531.632484   272.684628   187.293389

                             ****ORCA TERMINATED NORMALLY****
TOTAL RUN TIME: 0 days 0 hours 0 minutes 33 seconds 635 msec
