                         Program Version 4.2.1 -  RELEASE  -
|  1> ! wB97X-D3 SP def2-SVP
|  2> %pal
|  3> nprocs 16
|  4> end
|  5>
|  6> * xyz 0 1
|  7> S 	 -53.3678 	 12.9794 	 91.1131
|  8> C 	 -53.2896 	 14.4535 	 92.0927
|  9> C 	 -52.0519 	 15.085 	 92.0589
| 10> C 	 -51.2121 	 14.4327 	 91.0955
| 11> C 	 -51.8751 	 13.4337 	 90.3184
| 12> H 	 -50.1841 	 14.6961 	 90.9086
| 13> C 	 -51.5952 	 16.2354 	 93.0163
| 14> H 	 -50.7268 	 15.8068 	 93.5443
| 15> H 	 -52.4113 	 16.3547 	 93.8155
| 16> C 	 -51.1779 	 17.4536 	 92.3336
| 17> H 	 -50.2794 	 17.1744 	 91.7908
| 18> H 	 -51.8286 	 17.6143 	 91.4474
| 19> C 	 -50.988 	 18.7845 	 93.0016
| 20> H 	 -51.901 	 19.2188 	 93.2052
| 21> H 	 -50.5435 	 18.7707 	 93.9913
| 22> H 	 -50.5124 	 19.4435 	 92.2872
| 23> S 	 -50.9484 	 11.0034 	 89.4432
| 24> C 	 -50.5366 	 10.7775 	 87.773
| 25> C 	 -50.5371 	 12.0096 	 87.0746
| 26> C 	 -50.9987 	 13.1193 	 87.8997
| 27> C 	 -51.382 	 12.6883 	 89.1271
| 28> H 	 -50.2457 	 12.087 	 85.9978
| 29> C 	 -51.1393 	 14.4751 	 87.3306
| 30> H 	 -50.3708 	 14.6231 	 86.5708
| 31> H 	 -50.817 	 15.162 	 88.1782
| 32> C 	 -52.5306 	 14.913 	 86.8457
| 33> H 	 -52.5122 	 15.9777 	 86.7158
| 34> H 	 -53.1697 	 14.7534 	 87.6796
| 35> C 	 -52.9065 	 14.2246 	 85.5598
| 36> H 	 -53.0623 	 13.2549 	 85.9057
| 37> H 	 -52.0943 	 14.4434 	 84.8349
| 38> H 	 -53.8095 	 14.6276 	 85.1569
| 39> H 	 -53.9903 	 14.5821 	 92.9251
| 40> H 	 -50.4054 	 9.78274 	 87.4612
| 41> *
| 42>
| 43>                          ****END OF INPUT****

CARTESIAN COORDINATES (ANGSTROEM)
---------------------------------
  S    -53.367800   12.979400   91.113100
  C    -53.289600   14.453500   92.092700
  C    -52.051900   15.085000   92.058900
  C    -51.212100   14.432700   91.095500
  C    -51.875100   13.433700   90.318400
  H    -50.184100   14.696100   90.908600
  C    -51.595200   16.235400   93.016300
  H    -50.726800   15.806800   93.544300
  H    -52.411300   16.354700   93.815500
  C    -51.177900   17.453600   92.333600
  H    -50.279400   17.174400   91.790800
  H    -51.828600   17.614300   91.447400
  C    -50.988000   18.784500   93.001600
  H    -51.901000   19.218800   93.205200
  H    -50.543500   18.770700   93.991300
  H    -50.512400   19.443500   92.287200
  S    -50.948400   11.003400   89.443200
  C    -50.536600   10.777500   87.773000
  C    -50.537100   12.009600   87.074600
  C    -50.998700   13.119300   87.899700
  C    -51.382000   12.688300   89.127100
  H    -50.245700   12.087000   85.997800
  C    -51.139300   14.475100   87.330600
  H    -50.370800   14.623100   86.570800
  H    -50.817000   15.162000   88.178200
  C    -52.530600   14.913000   86.845700
  H    -52.512200   15.977700   86.715800
  H    -53.169700   14.753400   87.679600
  C    -52.906500   14.224600   85.559800
  H    -53.062300   13.254900   85.905700
  H    -52.094300   14.443400   84.834900
  H    -53.809500   14.627600   85.156900
  H    -53.990300   14.582100   92.925100
  H    -50.405400    9.782740   87.461200

 Total Charge           Charge          ....    0
 Multiplicity           Mult            ....    1
 Number of Electrons    NEL             ....  134
 Basis Dimension        Dim             ....  322

ORBITAL ENERGIES
----------------

  NO   OCC          E(Eh)            E(eV)
   0   2.0000     -88.967699     -2420.9342
   1   2.0000     -88.962218     -2420.7850
   2   2.0000     -10.335391      -281.2403
   3   2.0000     -10.324993      -280.9574
   4   2.0000     -10.318707      -280.7863
   5   2.0000     -10.316320      -280.7213
   6   2.0000     -10.308306      -280.5033
   7   2.0000     -10.303740      -280.3790
   8   2.0000     -10.302476      -280.3446
   9   2.0000     -10.302092      -280.3342
  10   2.0000     -10.301038      -280.3055
  11   2.0000     -10.289123      -279.9813
  12   2.0000     -10.281371      -279.7703
  13   2.0000     -10.274923      -279.5949
  14   2.0000     -10.272553      -279.5304
  15   2.0000     -10.267801      -279.4011
  16   2.0000      -8.082010      -219.9227
  17   2.0000      -8.077475      -219.7993
  18   2.0000      -6.040381      -164.3671
  19   2.0000      -6.036744      -164.2681
  20   2.0000      -6.035876      -164.2445
  21   2.0000      -6.032775      -164.1601
  22   2.0000      -6.031977      -164.1385
  23   2.0000      -6.028258      -164.0372
  24   2.0000      -1.002139       -27.2696
  25   2.0000      -0.980142       -26.6710
  26   2.0000      -0.919110       -25.0103
  27   2.0000      -0.915047       -24.8997
  28   2.0000      -0.865614       -23.5546
  29   2.0000      -0.855225       -23.2719
  30   2.0000      -0.843367       -22.9492
  31   2.0000      -0.808841       -22.0097
  32   2.0000      -0.788802       -21.4644
  33   2.0000      -0.777462       -21.1558
  34   2.0000      -0.707489       -19.2518
  35   2.0000      -0.697839       -18.9892
  36   2.0000      -0.685445       -18.6519
  37   2.0000      -0.666439       -18.1347
  38   2.0000      -0.638901       -17.3854
  39   2.0000      -0.615081       -16.7372
  40   2.0000      -0.594998       -16.1907
  41   2.0000      -0.568838       -15.4789
  42   2.0000      -0.559711       -15.2305
  43   2.0000      -0.556834       -15.1522
  44   2.0000      -0.551034       -14.9944
  45   2.0000      -0.532791       -14.4980
  46   2.0000      -0.519264       -14.1299
  47   2.0000      -0.512365       -13.9422
  48   2.0000      -0.500434       -13.6175
  49   2.0000      -0.494318       -13.4511
  50   2.0000      -0.489113       -13.3094
  51   2.0000      -0.481876       -13.1125
  52   2.0000      -0.473787       -12.8924
  53   2.0000      -0.464869       -12.6497
  54   2.0000      -0.457875       -12.4594
  55   2.0000      -0.447136       -12.1672
  56   2.0000      -0.444025       -12.0825
  57   2.0000      -0.441847       -12.0233
  58   2.0000      -0.432880       -11.7793
  59   2.0000      -0.428309       -11.6549
  60   2.0000      -0.423917       -11.5354
  61   2.0000      -0.411845       -11.2069
  62   2.0000      -0.399006       -10.8575
  63   2.0000      -0.333072        -9.0634
  64   2.0000      -0.330054        -8.9812
  65   2.0000      -0.327637        -8.9154
  66   2.0000      -0.299676        -8.1546
  67   0.0000       0.028288         0.7698
  68   0.0000       0.059634         1.6227
  69   0.0000       0.103108         2.8057
  70   0.0000       0.110859         3.0166
  71   0.0000       0.132958         3.6180

MULLIKEN ATOMIC CHARGES
-----------------------
   0 S :    0.109627
   1 C :   -0.124674
   2 C :   -0.111080
   3 C :    0.052186
   4 C :   -0.190651
   5 H :    0.015032
   6 C :    0.082461
   7 H :    0.038996
   8 H :    0.027667
   9 C :   -0.112761
  10 H :    0.013437
  11 H :    0.027393
  12 C :    0.028309
  13 H :    0.007073
  14 H :    0.024773
  15 H :    0.034379
  16 S :    0.097300
  17 C :   -0.084222
  18 C :   -0.044956
  19 C :   -0.035069
  20 C :   -0.163793
  21 H :    0.039498
  22 C :    0.028144
  23 H :    0.016041
  24 H :    0.029089
  25 C :   -0.032395
  26 H :    0.016248
  27 H :    0.022215
  28 C :   -0.005333
  29 H :    0.033188
  30 H :    0.031306
  31 H :    0.026162
  32 H :    0.055298
  33 H :    0.049113
Sum of atomic charges:    0.0000000

LOEWDIN ATOMIC CHARGES
----------------------
   0 S :    0.401321
   1 C :   -0.196710
   2 C :   -0.058192
   3 C :   -0.058671
   4 C :   -0.198727
   5 H :    0.026890
   6 C :   -0.031119
   7 H :    0.036153
   8 H :    0.032750
   9 C :   -0.061088
  10 H :    0.022857
  11 H :    0.030678
  12 C :   -0.055660
  13 H :    0.016423
  14 H :    0.026519
  15 H :    0.034143
  16 S :    0.400166
  17 C :   -0.177150
  18 C :   -0.072466
  19 C :   -0.059159
  20 C :   -0.199547
  21 H :    0.038755
  22 C :   -0.037917
  23 H :    0.026226
  24 H :    0.039669
  25 C :   -0.029991
  26 H :    0.018709
  27 H :    0.021515
  28 C :   -0.055719
  29 H :    0.022884
  30 H :    0.030601
  31 H :    0.022816
  32 H :    0.026527
  33 H :    0.016512

  Mayer bond orders larger than 0.100000
B(  0-S ,  1-C ) :   1.1430 B(  0-S ,  4-C ) :   1.1645 B(  1-C ,  2-C ) :   1.6155
B(  1-C ,  4-C ) :   0.1085 B(  1-C , 32-H ) :   0.9593 B(  2-C ,  3-C ) :   1.2530
B(  2-C ,  6-C ) :   1.0121 B(  3-C ,  4-C ) :   1.5533 B(  3-C ,  5-H ) :   0.9931
B(  4-C , 20-C ) :   1.0014 B(  6-C ,  7-H ) :   0.9352 B(  6-C ,  8-H ) :   0.9455
B(  6-C ,  9-C ) :   1.0581 B(  9-C , 10-H ) :   0.9472 B(  9-C , 11-H ) :   0.9538
B(  9-C , 12-C ) :   1.0937 B( 12-C , 13-H ) :   0.9682 B( 12-C , 14-H ) :   0.9709
B( 12-C , 15-H ) :   0.9683 B( 16-S , 17-C ) :   1.1652 B( 16-S , 20-C ) :   1.1458
B( 17-C , 18-C ) :   1.5844 B( 17-C , 33-H ) :   0.9798 B( 18-C , 19-C ) :   1.2127
B( 18-C , 21-H ) :   0.9845 B( 19-C , 20-C ) :   1.6362 B( 19-C , 22-C ) :   1.0597
B( 22-C , 23-H ) :   0.9314 B( 22-C , 24-H ) :   0.9177 B( 22-C , 25-C ) :   1.0797
B( 25-C , 26-H ) :   0.9507 B( 25-C , 27-H ) :   0.9543 B( 25-C , 28-C ) :   1.0682
B( 28-C , 29-H ) :   0.9784 B( 28-C , 30-H ) :   0.9732 B( 28-C , 31-H ) :   0.9708

Dispersion correction           -0.014364549
FINAL SINGLE POINT ENERGY     -1339.858350773327

DIPOLE MOMENT
-------------
                                X             Y             Z
Electronic contribution:     -2.00738     -26.28211       4.16904
Nuclear contribution   :      2.23648      26.81542      -4.20563
                        -----------------------------------------
Total Dipole Moment    :      0.22910       0.53331      -0.03659
                        -----------------------------------------
Magnitude (a.u.)       :      0.58159
Magnitude (Debye)      :      1.47828

Rotational constants in cm-1:     0.019425     0.007989     0.006775
Rotational constants in MHz :   582.338532   239.493169   203.112366

                             ****ORCA TERMINATED NORMALLY****
TOTAL RUN TIME: 0 days 0 hours 0 minutes 29 seconds 917 msec
