                         Program Version 4.2.1 -  RELEASE  -
|  1> ! wB97X-D3 SP def2-SVP
|  2> %pal
|  3> nprocs 16
|  4> end
|  5>
|  6> * xyz 0 1
|  7> S 	 51.3813 	 14.9453 	 83.7703
|  8> C 	 50.6588 	 14.7648 	 85.3137
|  9> C 	 49.7801 	 15.7364 	 85.6306
| 10> C 	 49.6401 	 16.7056 	 84.6004
| 11> C 	 50.4179 	 16.4341 	 83.5137
| 12> H 	 48.9551 	 17.5684 	 84.6072
| 13> C 	 49.0803 	 15.7711 	 87.0177
| 14> H 	 48.6086 	 16.7383 	 87.1039
| 15> H 	 49.7939 	 15.8933 	 87.7362
| 16> C 	 47.9937 	 14.7538 	 87.2561
| 17> H 	 47.2027 	 14.7759 	 86.573
| 18> H 	 48.4773 	 13.8202 	 87.0899
| 19> C 	 47.4606 	 14.8492 	 88.7007
| 20> H 	 47.0324 	 15.812 	 88.7977
| 21> H 	 46.7919 	 14.0546 	 88.9983
| 22> H 	 48.2655 	 14.9997 	 89.4552
| 23> S 	 50.7622 	 16.099 	 80.7855
| 24> C 	 50.759 	 17.4686 	 79.7652
| 25> C 	 50.6358 	 18.6296 	 80.4591
| 26> C 	 50.4455 	 18.4591 	 81.8771
| 27> C 	 50.3932 	 17.1122 	 82.2024
| 28> H 	 50.6443 	 19.5977 	 79.9784
| 29> C 	 50.4748 	 19.5796 	 82.888
| 30> H 	 51.0745 	 20.3777 	 82.5208
| 31> H 	 51.0142 	 18.9912 	 83.6641
| 32> C 	 49.1161 	 20.2165 	 83.3636
| 33> H 	 48.5677 	 19.4774 	 83.9018
| 34> H 	 48.4948 	 20.6014 	 82.589
| 35> C 	 49.267 	 21.4667 	 84.216
| 36> H 	 49.623 	 22.3464 	 83.6235
| 37> H 	 50.0968 	 21.2667 	 84.9492
| 38> H 	 48.4208 	 21.8726 	 84.7398
| 39> H 	 50.7973 	 13.97 	 86.1025
| 40> H 	 50.7561 	 17.2392 	 78.6446
| 41> *
| 42>
| 43>                          ****END OF INPUT****

CARTESIAN COORDINATES (ANGSTROEM)
---------------------------------
  S     51.381300   14.945300   83.770300
  C     50.658800   14.764800   85.313700
  C     49.780100   15.736400   85.630600
  C     49.640100   16.705600   84.600400
  C     50.417900   16.434100   83.513700
  H     48.955100   17.568400   84.607200
  C     49.080300   15.771100   87.017700
  H     48.608600   16.738300   87.103900
  H     49.793900   15.893300   87.736200
  C     47.993700   14.753800   87.256100
  H     47.202700   14.775900   86.573000
  H     48.477300   13.820200   87.089900
  C     47.460600   14.849200   88.700700
  H     47.032400   15.812000   88.797700
  H     46.791900   14.054600   88.998300
  H     48.265500   14.999700   89.455200
  S     50.762200   16.099000   80.785500
  C     50.759000   17.468600   79.765200
  C     50.635800   18.629600   80.459100
  C     50.445500   18.459100   81.877100
  C     50.393200   17.112200   82.202400
  H     50.644300   19.597700   79.978400
  C     50.474800   19.579600   82.888000
  H     51.074500   20.377700   82.520800
  H     51.014200   18.991200   83.664100
  C     49.116100   20.216500   83.363600
  H     48.567700   19.477400   83.901800
  H     48.494800   20.601400   82.589000
  C     49.267000   21.466700   84.216000
  H     49.623000   22.346400   83.623500
  H     50.096800   21.266700   84.949200
  H     48.420800   21.872600   84.739800
  H     50.797300   13.970000   86.102500
  H     50.756100   17.239200   78.644600

 Total Charge           Charge          ....    0
 Multiplicity           Mult            ....    1
 Number of Electrons    NEL             ....  134
 Basis Dimension        Dim             ....  322

ORBITAL ENERGIES
----------------

  NO   OCC          E(Eh)            E(eV)
   0   2.0000     -88.968990     -2420.9693
   1   2.0000     -88.961685     -2420.7705
   2   2.0000     -10.331143      -281.1247
   3   2.0000     -10.327580      -281.0277
   4   2.0000     -10.319408      -280.8054
   5   2.0000     -10.309944      -280.5478
   6   2.0000     -10.304722      -280.4057
   7   2.0000     -10.296152      -280.1726
   8   2.0000     -10.295065      -280.1430
   9   2.0000     -10.294748      -280.1343
  10   2.0000     -10.293128      -280.0903
  11   2.0000     -10.287365      -279.9334
  12   2.0000     -10.283341      -279.8239
  13   2.0000     -10.282177      -279.7923
  14   2.0000     -10.279425      -279.7174
  15   2.0000     -10.277293      -279.6594
  16   2.0000      -8.083511      -219.9635
  17   2.0000      -8.077297      -219.7944
  18   2.0000      -6.042129      -164.4147
  19   2.0000      -6.038175      -164.3071
  20   2.0000      -6.035781      -164.2419
  21   2.0000      -6.034034      -164.1944
  22   2.0000      -6.031735      -164.1319
  23   2.0000      -6.027981      -164.0297
  24   2.0000      -1.009303       -27.4645
  25   2.0000      -0.988954       -26.9108
  26   2.0000      -0.915689       -24.9172
  27   2.0000      -0.909916       -24.7601
  28   2.0000      -0.870203       -23.6794
  29   2.0000      -0.858046       -23.3486
  30   2.0000      -0.848734       -23.0952
  31   2.0000      -0.816169       -22.2091
  32   2.0000      -0.784260       -21.3408
  33   2.0000      -0.771234       -20.9863
  34   2.0000      -0.714665       -19.4470
  35   2.0000      -0.707563       -19.2538
  36   2.0000      -0.693380       -18.8678
  37   2.0000      -0.665526       -18.1099
  38   2.0000      -0.633471       -17.2376
  39   2.0000      -0.618938       -16.8422
  40   2.0000      -0.596441       -16.2300
  41   2.0000      -0.571466       -15.5504
  42   2.0000      -0.570674       -15.5288
  43   2.0000      -0.554636       -15.0924
  44   2.0000      -0.536139       -14.5891
  45   2.0000      -0.535763       -14.5788
  46   2.0000      -0.516758       -14.0617
  47   2.0000      -0.513634       -13.9767
  48   2.0000      -0.505925       -13.7669
  49   2.0000      -0.491894       -13.3851
  50   2.0000      -0.491510       -13.3747
  51   2.0000      -0.480593       -13.0776
  52   2.0000      -0.470683       -12.8079
  53   2.0000      -0.464395       -12.6368
  54   2.0000      -0.461418       -12.5558
  55   2.0000      -0.454501       -12.3676
  56   2.0000      -0.447529       -12.1779
  57   2.0000      -0.441536       -12.0148
  58   2.0000      -0.432035       -11.7563
  59   2.0000      -0.425171       -11.5695
  60   2.0000      -0.422800       -11.5050
  61   2.0000      -0.414725       -11.2852
  62   2.0000      -0.410976       -11.1832
  63   2.0000      -0.359212        -9.7746
  64   2.0000      -0.335599        -9.1321
  65   2.0000      -0.330346        -8.9892
  66   2.0000      -0.288456        -7.8493
  67   0.0000       0.028587         0.7779
  68   0.0000       0.074239         2.0201
  69   0.0000       0.106816         2.9066
  70   0.0000       0.128662         3.5011
  71   0.0000       0.133005         3.6192

MULLIKEN ATOMIC CHARGES
-----------------------
   0 S :    0.116214
   1 C :   -0.119469
   2 C :   -0.104004
   3 C :    0.012733
   4 C :   -0.139044
   5 H :    0.006590
   6 C :    0.085217
   7 H :   -0.009514
   8 H :    0.008521
   9 C :   -0.007756
  10 H :    0.020331
  11 H :    0.006906
  12 C :   -0.032774
  13 H :    0.009883
  14 H :    0.046805
  15 H :    0.019208
  16 S :    0.084000
  17 C :   -0.117608
  18 C :   -0.008174
  19 C :   -0.058655
  20 C :   -0.144014
  21 H :    0.013864
  22 C :    0.053894
  23 H :    0.013101
  24 H :    0.051129
  25 C :   -0.014741
  26 H :    0.017397
  27 H :    0.025295
  28 C :   -0.083748
  29 H :    0.030201
  30 H :    0.030498
  31 H :    0.037689
  32 H :    0.059641
  33 H :    0.090384
Sum of atomic charges:   -0.0000000

LOEWDIN ATOMIC CHARGES
----------------------
   0 S :    0.398780
   1 C :   -0.212888
   2 C :   -0.068282
   3 C :   -0.066112
   4 C :   -0.178422
   5 H :    0.034796
   6 C :   -0.023680
   7 H :    0.025361
   8 H :    0.019007
   9 C :   -0.027798
  10 H :    0.020730
  11 H :    0.015597
  12 C :   -0.063990
  13 H :    0.019671
  14 H :    0.027118
  15 H :    0.028832
  16 S :    0.398625
  17 C :   -0.200990
  18 C :   -0.075464
  19 C :   -0.055380
  20 C :   -0.187769
  21 H :    0.030526
  22 C :   -0.028434
  23 H :    0.026640
  24 H :    0.045123
  25 C :   -0.034489
  26 H :    0.015123
  27 H :    0.024408
  28 C :   -0.073550
  29 H :    0.026736
  30 H :    0.027229
  31 H :    0.024696
  32 H :    0.042978
  33 H :    0.045273

  Mayer bond orders larger than 0.100000
B(  0-S ,  1-C ) :   1.1240 B(  0-S ,  4-C ) :   1.1294 B(  1-C ,  2-C ) :   1.6618
B(  1-C , 32-H ) :   0.9499 B(  2-C ,  3-C ) :   1.2456 B(  2-C ,  6-C ) :   0.9975
B(  3-C ,  4-C ) :   1.5825 B(  3-C ,  5-H ) :   0.9903 B(  4-C , 20-C ) :   1.0551
B(  6-C ,  7-H ) :   0.9331 B(  6-C ,  8-H ) :   0.9422 B(  6-C ,  9-C ) :   1.0593
B(  9-C , 10-H ) :   0.9536 B(  9-C , 11-H ) :   0.9573 B(  9-C , 12-C ) :   1.0767
B( 12-C , 13-H ) :   0.9713 B( 12-C , 14-H ) :   0.9749 B( 12-C , 15-H ) :   0.9721
B( 16-S , 17-C ) :   1.1635 B( 16-S , 20-C ) :   1.1313 B( 17-C , 18-C ) :   1.5936
B( 17-C , 33-H ) :   0.9578 B( 18-C , 19-C ) :   1.2424 B( 18-C , 21-H ) :   0.9965
B( 19-C , 20-C ) :   1.5929 B( 19-C , 22-C ) :   1.0321 B( 22-C , 23-H ) :   0.9380
B( 22-C , 24-H ) :   0.9260 B( 22-C , 25-C ) :   1.0587 B( 25-C , 26-H ) :   0.9521
B( 25-C , 27-H ) :   0.9545 B( 25-C , 28-C ) :   1.0802 B( 28-C , 29-H ) :   0.9747
B( 28-C , 30-H ) :   0.9743 B( 28-C , 31-H ) :   0.9747

Dispersion correction           -0.013639033
FINAL SINGLE POINT ENERGY     -1339.865139457382

DIPOLE MOMENT
-------------
                                X             Y             Z
Electronic contribution:     14.63253     -14.44926     -23.15462
Nuclear contribution   :    -14.94080      14.93379      23.47491
                        -----------------------------------------
Total Dipole Moment    :     -0.30827       0.48453       0.32029
                        -----------------------------------------
Magnitude (a.u.)       :      0.65756
Magnitude (Debye)      :      1.67140

Rotational constants in cm-1:     0.017891     0.008366     0.006100
Rotational constants in MHz :   536.352320   250.816490   182.880936

                             ****ORCA TERMINATED NORMALLY****
TOTAL RUN TIME: 0 days 0 hours 0 minutes 29 seconds 289 msec
