                         Program Version 4.2.1 -  RELEASE  -
|  1> ! wB97X-D3 SP def2-SVP
|  2> %pal
|  3> nprocs 16
|  4> end
|  5>
|  6> * xyz 0 1
|  7> S 	 -58.4582 	 45.0264 	 135.509
|  8> C 	 -56.9993 	 44.4718 	 136.219
|  9> C 	 -55.9488 	 45.3955 	 136.034
| 10> C 	 -56.3928 	 46.4675 	 135.201
| 11> C 	 -57.7275 	 46.3796 	 134.74
| 12> H 	 -55.8942 	 47.3483 	 134.748
| 13> C 	 -54.4743 	 45.167 	 136.499
| 14> H 	 -54.1557 	 44.5446 	 135.645
| 15> H 	 -54.5054 	 44.5743 	 137.39
| 16> C 	 -53.5786 	 46.3754 	 136.635
| 17> H 	 -53.648 	 47.0432 	 135.796
| 18> H 	 -54.0888 	 46.9511 	 137.419
| 19> C 	 -52.1235 	 45.9967 	 137.03
| 20> H 	 -51.4712 	 46.8084 	 137.224
| 21> H 	 -52.0539 	 45.4364 	 137.973
| 22> H 	 -51.8092 	 45.3885 	 136.227
| 23> S 	 -59.7658 	 48.1944 	 134.547
| 24> C 	 -59.8554 	 49.2168 	 133.132
| 25> C 	 -59.0628 	 48.779 	 132.08
| 26> C 	 -58.1414 	 47.7853 	 132.543
| 27> C 	 -58.4063 	 47.3358 	 133.873
| 28> H 	 -59.1172 	 49.4812 	 131.17
| 29> C 	 -56.9429 	 47.4763 	 131.598
| 30> H 	 -57.3314 	 47.5152 	 130.614
| 31> H 	 -56.643 	 46.4595 	 131.698
| 32> C 	 -55.7582 	 48.3592 	 131.695
| 33> H 	 -55.6648 	 48.7654 	 132.715
| 34> H 	 -55.8655 	 49.2684 	 131.133
| 35> C 	 -54.4369 	 47.7125 	 131.336
| 36> H 	 -54.7733 	 47.3033 	 130.314
| 37> H 	 -54.0692 	 46.9315 	 131.978
| 38> H 	 -53.7536 	 48.5266 	 131.196
| 39> H 	 -56.8409 	 43.4621 	 136.726
| 40> H 	 -60.3374 	 50.1966 	 133.145
| 41> *
| 42>
| 43>                          ****END OF INPUT****

CARTESIAN COORDINATES (ANGSTROEM)
---------------------------------
  S    -58.458200   45.026400  135.509000
  C    -56.999300   44.471800  136.219000
  C    -55.948800   45.395500  136.034000
  C    -56.392800   46.467500  135.201000
  C    -57.727500   46.379600  134.740000
  H    -55.894200   47.348300  134.748000
  C    -54.474300   45.167000  136.499000
  H    -54.155700   44.544600  135.645000
  H    -54.505400   44.574300  137.390000
  C    -53.578600   46.375400  136.635000
  H    -53.648000   47.043200  135.796000
  H    -54.088800   46.951100  137.419000
  C    -52.123500   45.996700  137.030000
  H    -51.471200   46.808400  137.224000
  H    -52.053900   45.436400  137.973000
  H    -51.809200   45.388500  136.227000
  S    -59.765800   48.194400  134.547000
  C    -59.855400   49.216800  133.132000
  C    -59.062800   48.779000  132.080000
  C    -58.141400   47.785300  132.543000
  C    -58.406300   47.335800  133.873000
  H    -59.117200   49.481200  131.170000
  C    -56.942900   47.476300  131.598000
  H    -57.331400   47.515200  130.614000
  H    -56.643000   46.459500  131.698000
  C    -55.758200   48.359200  131.695000
  H    -55.664800   48.765400  132.715000
  H    -55.865500   49.268400  131.133000
  C    -54.436900   47.712500  131.336000
  H    -54.773300   47.303300  130.314000
  H    -54.069200   46.931500  131.978000
  H    -53.753600   48.526600  131.196000
  H    -56.840900   43.462100  136.726000
  H    -60.337400   50.196600  133.145000

 Total Charge           Charge          ....    0
 Multiplicity           Mult            ....    1
 Number of Electrons    NEL             ....  134
 Basis Dimension        Dim             ....  322

ORBITAL ENERGIES
----------------

  NO   OCC          E(Eh)            E(eV)
   0   2.0000     -88.967000     -2420.9152
   1   2.0000     -88.966561     -2420.9032
   2   2.0000     -10.332140      -281.1518
   3   2.0000     -10.327100      -281.0147
   4   2.0000     -10.318538      -280.7817
   5   2.0000     -10.317585      -280.7558
   6   2.0000     -10.314925      -280.6834
   7   2.0000     -10.308251      -280.5018
   8   2.0000     -10.302796      -280.3533
   9   2.0000     -10.296158      -280.1727
  10   2.0000     -10.295111      -280.1442
  11   2.0000     -10.287142      -279.9274
  12   2.0000     -10.283964      -279.8409
  13   2.0000     -10.281226      -279.7664
  14   2.0000     -10.278998      -279.7057
  15   2.0000     -10.277439      -279.6633
  16   2.0000      -8.082024      -219.9231
  17   2.0000      -8.081993      -219.9222
  18   2.0000      -6.040411      -164.3679
  19   2.0000      -6.040340      -164.3660
  20   2.0000      -6.036426      -164.2595
  21   2.0000      -6.036191      -164.2531
  22   2.0000      -6.033114      -164.1694
  23   2.0000      -6.032935      -164.1645
  24   2.0000      -1.005884       -27.3715
  25   2.0000      -0.984092       -26.7785
  26   2.0000      -0.918104       -24.9829
  27   2.0000      -0.911988       -24.8165
  28   2.0000      -0.869314       -23.6552
  29   2.0000      -0.851416       -23.1682
  30   2.0000      -0.845615       -23.0103
  31   2.0000      -0.811302       -22.0767
  32   2.0000      -0.785272       -21.3683
  33   2.0000      -0.772669       -21.0254
  34   2.0000      -0.712496       -19.3880
  35   2.0000      -0.697351       -18.9759
  36   2.0000      -0.686437       -18.6789
  37   2.0000      -0.655188       -17.8286
  38   2.0000      -0.638895       -17.3852
  39   2.0000      -0.613050       -16.6819
  40   2.0000      -0.596406       -16.2290
  41   2.0000      -0.572698       -15.5839
  42   2.0000      -0.570097       -15.5131
  43   2.0000      -0.565100       -15.3771
  44   2.0000      -0.529180       -14.3997
  45   2.0000      -0.527943       -14.3661
  46   2.0000      -0.519745       -14.1430
  47   2.0000      -0.511222       -13.9111
  48   2.0000      -0.499632       -13.5957
  49   2.0000      -0.496867       -13.5204
  50   2.0000      -0.490127       -13.3370
  51   2.0000      -0.487776       -13.2731
  52   2.0000      -0.476373       -12.9628
  53   2.0000      -0.467162       -12.7121
  54   2.0000      -0.461166       -12.5490
  55   2.0000      -0.447646       -12.1811
  56   2.0000      -0.442618       -12.0443
  57   2.0000      -0.438892       -11.9429
  58   2.0000      -0.434258       -11.8168
  59   2.0000      -0.424956       -11.5636
  60   2.0000      -0.419158       -11.4059
  61   2.0000      -0.414953       -11.2915
  62   2.0000      -0.402305       -10.9473
  63   2.0000      -0.345504        -9.4016
  64   2.0000      -0.329894        -8.9769
  65   2.0000      -0.327773        -8.9192
  66   2.0000      -0.287940        -7.8352
  67   0.0000       0.035564         0.9678
  68   0.0000       0.055618         1.5134
  69   0.0000       0.114645         3.1197
  70   0.0000       0.121340         3.3018
  71   0.0000       0.127628         3.4729

MULLIKEN ATOMIC CHARGES
-----------------------
   0 S :    0.132990
   1 C :   -0.158763
   2 C :   -0.079420
   3 C :    0.005952
   4 C :   -0.177511
   5 H :    0.013914
   6 C :    0.059216
   7 H :    0.044847
   8 H :    0.024577
   9 C :   -0.083779
  10 H :    0.028898
  11 H :    0.026745
  12 C :   -0.007954
  13 H :    0.029536
  14 H :    0.028622
  15 H :    0.025190
  16 S :    0.117710
  17 C :   -0.124158
  18 C :   -0.057756
  19 C :   -0.048812
  20 C :   -0.170858
  21 H :    0.059374
  22 C :    0.114346
  23 H :    0.011891
  24 H :    0.015380
  25 C :   -0.067683
  26 H :    0.018996
  27 H :    0.014579
  28 C :   -0.055467
  29 H :    0.032776
  30 H :    0.048323
  31 H :    0.034295
  32 H :    0.075573
  33 H :    0.068431
Sum of atomic charges:   -0.0000000

LOEWDIN ATOMIC CHARGES
----------------------
   0 S :    0.440291
   1 C :   -0.232440
   2 C :   -0.062813
   3 C :   -0.077688
   4 C :   -0.218155
   5 H :    0.033924
   6 C :   -0.027999
   7 H :    0.037206
   8 H :    0.026753
   9 C :   -0.043283
  10 H :    0.020941
  11 H :    0.026405
  12 C :   -0.055645
  13 H :    0.023329
  14 H :    0.029746
  15 H :    0.021576
  16 S :    0.414042
  17 C :   -0.186661
  18 C :   -0.086541
  19 C :   -0.042636
  20 C :   -0.210870
  21 H :    0.052536
  22 C :   -0.030033
  23 H :    0.028241
  24 H :    0.027151
  25 C :   -0.048464
  26 H :    0.018046
  27 H :    0.021355
  28 C :   -0.059001
  29 H :    0.034772
  30 H :    0.023104
  31 H :    0.025529
  32 H :    0.045894
  33 H :    0.031391

  Mayer bond orders larger than 0.100000
B(  0-S ,  1-C ) :   1.1687 B(  0-S ,  4-C ) :   1.1768 B(  1-C ,  2-C ) :   1.5670
B(  1-C ,  4-C ) :   0.1102 B(  1-C , 32-H ) :   0.9609 B(  2-C ,  3-C ) :   1.2626
B(  2-C ,  6-C ) :   0.9969 B(  3-C ,  4-C ) :   1.5445 B(  3-C ,  5-H ) :   0.9885
B(  4-C , 20-C ) :   1.0401 B(  6-C ,  7-H ) :   0.9380 B(  6-C ,  8-H ) :   0.9450
B(  6-C ,  9-C ) :   1.0694 B(  9-C , 10-H ) :   0.9513 B(  9-C , 11-H ) :   0.9579
B(  9-C , 12-C ) :   1.0738 B( 12-C , 13-H ) :   0.9747 B( 12-C , 14-H ) :   0.9745
B( 12-C , 15-H ) :   0.9776 B( 16-S , 17-C ) :   1.1726 B( 16-S , 20-C ) :   1.1485
B( 17-C , 18-C ) :   1.6150 B( 17-C , 20-C ) :   0.1060 B( 17-C , 33-H ) :   0.9619
B( 18-C , 19-C ) :   1.2353 B( 18-C , 21-H ) :   0.9751 B( 19-C , 20-C ) :   1.5830
B( 19-C , 22-C ) :   1.0473 B( 22-C , 23-H ) :   0.9223 B( 22-C , 24-H ) :   0.9352
B( 22-C , 25-C ) :   1.0595 B( 25-C , 26-H ) :   0.9518 B( 25-C , 27-H ) :   0.9470
B( 25-C , 28-C ) :   1.0804 B( 28-C , 29-H ) :   0.9766 B( 28-C , 30-H ) :   0.9765
B( 28-C , 31-H ) :   0.9722

Dispersion correction           -0.014052247
FINAL SINGLE POINT ENERGY     -1339.849320990926

DIPOLE MOMENT
-------------
                                X             Y             Z
Electronic contribution:    -31.53108      -2.28632       5.40518
Nuclear contribution   :     32.21854       2.57848      -5.63311
                        -----------------------------------------
Total Dipole Moment    :      0.68747       0.29216      -0.22793
                        -----------------------------------------
Magnitude (a.u.)       :      0.78098
Magnitude (Debye)      :      1.98508

Rotational constants in cm-1:     0.016872     0.009046     0.006682
Rotational constants in MHz :   505.824001   271.188896   200.311154

                             ****ORCA TERMINATED NORMALLY****
TOTAL RUN TIME: 0 days 0 hours 0 minutes 35 seconds 146 msec
