                         Program Version 4.2.1 -  RELEASE  -
|  1> ! wB97X-D3 SP def2-SVP
|  2> %pal
|  3> nprocs 16
|  4> end
|  5>
|  6> * xyz 0 1
|  7> S 	 -38.6726 	 55.0375 	 112.395
|  8> C 	 -39.5735 	 56.5162 	 112.489
|  9> C 	 -40.9126 	 56.2885 	 112.156
| 10> C 	 -41.183 	 54.96 	 111.727
| 11> C 	 -40.0997 	 54.1608 	 111.866
| 12> H 	 -42.1122 	 54.5721 	 111.31
| 13> C 	 -41.993 	 57.2819 	 112.265
| 14> H 	 -41.4477 	 58.132 	 111.879
| 15> H 	 -41.9753 	 57.6173 	 113.31
| 16> C 	 -43.3978 	 57.0763 	 111.645
| 17> H 	 -43.6977 	 55.9809 	 111.662
| 18> H 	 -44.1042 	 57.62 	 112.247
| 19> C 	 -43.556 	 57.6122 	 110.242
| 20> H 	 -43.1595 	 56.8943 	 109.533
| 21> H 	 -44.5938 	 57.7558 	 109.828
| 22> H 	 -42.9582 	 58.5251 	 110.155
| 23> S 	 -39.8605 	 51.7317 	 113.139
| 24> C 	 -40.0049 	 50.2979 	 112.182
| 25> C 	 -39.8109 	 50.5584 	 110.841
| 26> C 	 -39.9486 	 51.952 	 110.497
| 27> C 	 -40.0458 	 52.7521 	 111.696
| 28> H 	 -39.5983 	 49.8316 	 110.102
| 29> C 	 -39.9353 	 52.4595 	 109.04
| 30> H 	 -39.2628 	 51.8625 	 108.454
| 31> H 	 -39.5885 	 53.4491 	 109.036
| 32> C 	 -41.3282 	 52.3412 	 108.356
| 33> H 	 -42.073 	 52.595 	 109.056
| 34> H 	 -41.4619 	 51.3093 	 108.005
| 35> C 	 -41.4247 	 53.1897 	 107.123
| 36> H 	 -40.5558 	 53.1326 	 106.478
| 37> H 	 -41.5107 	 54.2547 	 107.435
| 38> H 	 -42.3515 	 52.9383 	 106.568
| 39> H 	 -39.1703 	 57.5247 	 112.638
| 40> H 	 -39.6968 	 49.3312 	 112.605
| 41> *
| 42>
| 43>                          ****END OF INPUT****

CARTESIAN COORDINATES (ANGSTROEM)
---------------------------------
  S    -38.672600   55.037500  112.395000
  C    -39.573500   56.516200  112.489000
  C    -40.912600   56.288500  112.156000
  C    -41.183000   54.960000  111.727000
  C    -40.099700   54.160800  111.866000
  H    -42.112200   54.572100  111.310000
  C    -41.993000   57.281900  112.265000
  H    -41.447700   58.132000  111.879000
  H    -41.975300   57.617300  113.310000
  C    -43.397800   57.076300  111.645000
  H    -43.697700   55.980900  111.662000
  H    -44.104200   57.620000  112.247000
  C    -43.556000   57.612200  110.242000
  H    -43.159500   56.894300  109.533000
  H    -44.593800   57.755800  109.828000
  H    -42.958200   58.525100  110.155000
  S    -39.860500   51.731700  113.139000
  C    -40.004900   50.297900  112.182000
  C    -39.810900   50.558400  110.841000
  C    -39.948600   51.952000  110.497000
  C    -40.045800   52.752100  111.696000
  H    -39.598300   49.831600  110.102000
  C    -39.935300   52.459500  109.040000
  H    -39.262800   51.862500  108.454000
  H    -39.588500   53.449100  109.036000
  C    -41.328200   52.341200  108.356000
  H    -42.073000   52.595000  109.056000
  H    -41.461900   51.309300  108.005000
  C    -41.424700   53.189700  107.123000
  H    -40.555800   53.132600  106.478000
  H    -41.510700   54.254700  107.435000
  H    -42.351500   52.938300  106.568000
  H    -39.170300   57.524700  112.638000
  H    -39.696800   49.331200  112.605000

 Total Charge           Charge          ....    0
 Multiplicity           Mult            ....    1
 Number of Electrons    NEL             ....  134
 Basis Dimension        Dim             ....  322

ORBITAL ENERGIES
----------------

  NO   OCC          E(Eh)            E(eV)
   0   2.0000     -88.965043     -2420.8619
   1   2.0000     -88.964383     -2420.8439
   2   2.0000     -10.326518      -280.9988
   3   2.0000     -10.320697      -280.8404
   4   2.0000     -10.313636      -280.6483
   5   2.0000     -10.311048      -280.5779
   6   2.0000     -10.309504      -280.5359
   7   2.0000     -10.299110      -280.2530
   8   2.0000     -10.295685      -280.1598
   9   2.0000     -10.291912      -280.0572
  10   2.0000     -10.289357      -279.9876
  11   2.0000     -10.289213      -279.9837
  12   2.0000     -10.288365      -279.9606
  13   2.0000     -10.281116      -279.7634
  14   2.0000     -10.280688      -279.7517
  15   2.0000     -10.278227      -279.6848
  16   2.0000      -8.079829      -219.8633
  17   2.0000      -8.079068      -219.8426
  18   2.0000      -6.038367      -164.3123
  19   2.0000      -6.037530      -164.2895
  20   2.0000      -6.034304      -164.2018
  21   2.0000      -6.033706      -164.1855
  22   2.0000      -6.030584      -164.1005
  23   2.0000      -6.029753      -164.0779
  24   2.0000      -1.006389       -27.3852
  25   2.0000      -0.980794       -26.6888
  26   2.0000      -0.915892       -24.9227
  27   2.0000      -0.910217       -24.7683
  28   2.0000      -0.872456       -23.7407
  29   2.0000      -0.852211       -23.1898
  30   2.0000      -0.849085       -23.1048
  31   2.0000      -0.817480       -22.2448
  32   2.0000      -0.783632       -21.3237
  33   2.0000      -0.764690       -20.8083
  34   2.0000      -0.713221       -19.4077
  35   2.0000      -0.697516       -18.9804
  36   2.0000      -0.690319       -18.7845
  37   2.0000      -0.656914       -17.8755
  38   2.0000      -0.640523       -17.4295
  39   2.0000      -0.625276       -17.0146
  40   2.0000      -0.595221       -16.1968
  41   2.0000      -0.573019       -15.5927
  42   2.0000      -0.559897       -15.2356
  43   2.0000      -0.553218       -15.0538
  44   2.0000      -0.535874       -14.5819
  45   2.0000      -0.524230       -14.2650
  46   2.0000      -0.523463       -14.2442
  47   2.0000      -0.516042       -14.0422
  48   2.0000      -0.501482       -13.6460
  49   2.0000      -0.497277       -13.5316
  50   2.0000      -0.490909       -13.3583
  51   2.0000      -0.486981       -13.2514
  52   2.0000      -0.467612       -12.7244
  53   2.0000      -0.463231       -12.6052
  54   2.0000      -0.457328       -12.4445
  55   2.0000      -0.449771       -12.2389
  56   2.0000      -0.442467       -12.0401
  57   2.0000      -0.437325       -11.9002
  58   2.0000      -0.432173       -11.7600
  59   2.0000      -0.430216       -11.7068
  60   2.0000      -0.422490       -11.4965
  61   2.0000      -0.420161       -11.4332
  62   2.0000      -0.415190       -11.2979
  63   2.0000      -0.339969        -9.2510
  64   2.0000      -0.325736        -8.8637
  65   2.0000      -0.319283        -8.6881
  66   2.0000      -0.293588        -7.9889
  67   0.0000       0.036525         0.9939
  68   0.0000       0.051276         1.3953
  69   0.0000       0.106647         2.9020
  70   0.0000       0.120257         3.2723
  71   0.0000       0.131887         3.5888

MULLIKEN ATOMIC CHARGES
-----------------------
   0 S :    0.125103
   1 C :   -0.141604
   2 C :   -0.090489
   3 C :    0.026074
   4 C :   -0.166521
   5 H :    0.015391
   6 C :    0.052073
   7 H :    0.008728
   8 H :    0.038913
   9 C :   -0.041273
  10 H :    0.043774
  11 H :    0.027818
  12 C :   -0.058993
  13 H :    0.022155
  14 H :    0.045246
  15 H :    0.032531
  16 S :    0.114157
  17 C :   -0.079669
  18 C :   -0.030806
  19 C :   -0.045807
  20 C :   -0.195898
  21 H :    0.007535
  22 C :    0.106764
  23 H :    0.016063
  24 H :    0.014957
  25 C :   -0.059413
  26 H :    0.023371
  27 H :    0.026591
  28 C :   -0.057942
  29 H :    0.030051
  30 H :    0.031496
  31 H :    0.039722
  32 H :    0.052021
  33 H :    0.067882
Sum of atomic charges:   -0.0000000

LOEWDIN ATOMIC CHARGES
----------------------
   0 S :    0.412847
   1 C :   -0.222431
   2 C :   -0.057344
   3 C :   -0.063200
   4 C :   -0.198174
   5 H :    0.034676
   6 C :   -0.046623
   7 H :    0.035418
   8 H :    0.043366
   9 C :   -0.041781
  10 H :    0.032137
  11 H :    0.027125
  12 C :   -0.071684
  13 H :    0.021659
  14 H :    0.033264
  15 H :    0.025791
  16 S :    0.410449
  17 C :   -0.203972
  18 C :   -0.064400
  19 C :   -0.041151
  20 C :   -0.202938
  21 H :    0.024157
  22 C :   -0.020073
  23 H :    0.028865
  24 H :    0.022015
  25 C :   -0.034522
  26 H :    0.016625
  27 H :    0.024666
  28 C :   -0.067637
  29 H :    0.022497
  30 H :    0.026540
  31 H :    0.029961
  32 H :    0.032012
  33 H :    0.031856

  Mayer bond orders larger than 0.100000
B(  0-S ,  1-C ) :   1.1287 B(  0-S ,  4-C ) :   1.1577 B(  1-C ,  2-C ) :   1.5971
B(  1-C ,  4-C ) :   0.1002 B(  1-C , 32-H ) :   0.9701 B(  2-C ,  3-C ) :   1.2404
B(  2-C ,  6-C ) :   1.0022 B(  3-C ,  4-C ) :   1.5888 B(  3-C ,  5-H ) :   0.9908
B(  4-C , 20-C ) :   1.0480 B(  6-C ,  7-H ) :   0.9274 B(  6-C ,  8-H ) :   0.9307
B(  6-C ,  9-C ) :   1.0582 B(  9-C , 10-H ) :   0.9542 B(  9-C , 11-H ) :   0.9497
B(  9-C , 12-C ) :   1.0779 B( 12-C , 13-H ) :   0.9756 B( 12-C , 14-H ) :   0.9748
B( 12-C , 15-H ) :   0.9736 B( 16-S , 17-C ) :   1.1596 B( 16-S , 20-C ) :   1.1563
B( 17-C , 18-C ) :   1.5942 B( 17-C , 20-C ) :   0.1086 B( 17-C , 33-H ) :   0.9570
B( 18-C , 19-C ) :   1.2678 B( 18-C , 21-H ) :   0.9887 B( 19-C , 20-C ) :   1.5462
B( 19-C , 22-C ) :   1.0551 B( 22-C , 23-H ) :   0.9299 B( 22-C , 24-H ) :   0.9348
B( 22-C , 25-C ) :   1.0576 B( 25-C , 26-H ) :   0.9594 B( 25-C , 27-H ) :   0.9538
B( 25-C , 28-C ) :   1.0930 B( 28-C , 29-H ) :   0.9716 B( 28-C , 30-H ) :   0.9747
B( 28-C , 31-H ) :   0.9726

Dispersion correction           -0.014212142
FINAL SINGLE POINT ENERGY     -1339.864934994676

DIPOLE MOMENT
-------------
                                X             Y             Z
Electronic contribution:     17.78669     -11.13150      21.10723
Nuclear contribution   :    -18.05629      11.37869     -21.60893
                        -----------------------------------------
Total Dipole Moment    :     -0.26960       0.24720      -0.50170
                        -----------------------------------------
Magnitude (a.u.)       :      0.62088
Magnitude (Debye)      :      1.57815

Rotational constants in cm-1:     0.016206     0.009731     0.007235
Rotational constants in MHz :   485.832767   291.735998   216.893441

                             ****ORCA TERMINATED NORMALLY****
TOTAL RUN TIME: 0 days 0 hours 0 minutes 31 seconds 993 msec
