                         Program Version 4.2.1 -  RELEASE  -
|  1> ! wB97X-D3 SP def2-SVP
|  2> %pal
|  3> nprocs 16
|  4> end
|  5>
|  6> * xyz 0 1
|  7> S 	 -42.7192 	 27.2826 	 83.9312
|  8> C 	 -43.2654 	 28.2921 	 82.604
|  9> C 	 -42.4405 	 28.1763 	 81.5326
| 10> C 	 -41.3424 	 27.2101 	 81.7431
| 11> C 	 -41.2829 	 26.7842 	 83.0682
| 12> H 	 -40.5506 	 26.7281 	 81.0158
| 13> C 	 -42.7852 	 28.9025 	 80.2598
| 14> H 	 -42.2067 	 29.829 	 80.3523
| 15> H 	 -43.8132 	 29.3028 	 80.3059
| 16> C 	 -42.6209 	 28.2844 	 78.9095
| 17> H 	 -42.7168 	 29.0735 	 78.1774
| 18> H 	 -41.602 	 27.9299 	 78.9542
| 19> C 	 -43.4423 	 27.0303 	 78.6895
| 20> H 	 -43.1716 	 26.3102 	 79.4132
| 21> H 	 -44.4261 	 27.2932 	 78.6882
| 22> H 	 -43.2257 	 26.613 	 77.6887
| 23> S 	 -40.8387 	 24.6139 	 84.7384
| 24> C 	 -39.1937 	 24.2222 	 85.091
| 25> C 	 -38.3154 	 24.9963 	 84.4188
| 26> C 	 -38.9224 	 25.917 	 83.5681
| 27> C 	 -40.3398 	 25.8853 	 83.6399
| 28> H 	 -37.2263 	 24.9697 	 84.6297
| 29> C 	 -38.1124 	 26.8939 	 82.7327
| 30> H 	 -38.633 	 27.1107 	 81.7966
| 31> H 	 -37.2526 	 26.3628 	 82.4979
| 32> C 	 -37.7854 	 28.2527 	 83.4103
| 33> H 	 -38.7694 	 28.7718 	 83.5971
| 34> H 	 -37.199 	 28.7892 	 82.6062
| 35> C 	 -36.9819 	 28.2142 	 84.6872
| 36> H 	 -36.5098 	 29.19 	 84.9106
| 37> H 	 -36.1207 	 27.5264 	 84.5362
| 38> H 	 -37.5254 	 27.8644 	 85.5066
| 39> H 	 -44.135 	 28.8766 	 82.5077
| 40> H 	 -38.9471 	 23.6723 	 85.9793
| 41> *
| 42>
| 43>                          ****END OF INPUT****

CARTESIAN COORDINATES (ANGSTROEM)
---------------------------------
  S    -42.719200   27.282600   83.931200
  C    -43.265400   28.292100   82.604000
  C    -42.440500   28.176300   81.532600
  C    -41.342400   27.210100   81.743100
  C    -41.282900   26.784200   83.068200
  H    -40.550600   26.728100   81.015800
  C    -42.785200   28.902500   80.259800
  H    -42.206700   29.829000   80.352300
  H    -43.813200   29.302800   80.305900
  C    -42.620900   28.284400   78.909500
  H    -42.716800   29.073500   78.177400
  H    -41.602000   27.929900   78.954200
  C    -43.442300   27.030300   78.689500
  H    -43.171600   26.310200   79.413200
  H    -44.426100   27.293200   78.688200
  H    -43.225700   26.613000   77.688700
  S    -40.838700   24.613900   84.738400
  C    -39.193700   24.222200   85.091000
  C    -38.315400   24.996300   84.418800
  C    -38.922400   25.917000   83.568100
  C    -40.339800   25.885300   83.639900
  H    -37.226300   24.969700   84.629700
  C    -38.112400   26.893900   82.732700
  H    -38.633000   27.110700   81.796600
  H    -37.252600   26.362800   82.497900
  C    -37.785400   28.252700   83.410300
  H    -38.769400   28.771800   83.597100
  H    -37.199000   28.789200   82.606200
  C    -36.981900   28.214200   84.687200
  H    -36.509800   29.190000   84.910600
  H    -36.120700   27.526400   84.536200
  H    -37.525400   27.864400   85.506600
  H    -44.135000   28.876600   82.507700
  H    -38.947100   23.672300   85.979300

 Total Charge           Charge          ....    0
 Multiplicity           Mult            ....    1
 Number of Electrons    NEL             ....  134
 Basis Dimension        Dim             ....  322

ORBITAL ENERGIES
----------------

  NO   OCC          E(Eh)            E(eV)
   0   2.0000     -88.966867     -2420.9115
   1   2.0000     -88.965020     -2420.8613
   2   2.0000     -10.330081      -281.0958
   3   2.0000     -10.325778      -280.9787
   4   2.0000     -10.311723      -280.5963
   5   2.0000     -10.309070      -280.5241
   6   2.0000     -10.307454      -280.4801
   7   2.0000     -10.304523      -280.4003
   8   2.0000     -10.301468      -280.3172
   9   2.0000     -10.291506      -280.0461
  10   2.0000     -10.291415      -280.0436
  11   2.0000     -10.287555      -279.9386
  12   2.0000     -10.285570      -279.8846
  13   2.0000     -10.279617      -279.7226
  14   2.0000     -10.274334      -279.5788
  15   2.0000     -10.265502      -279.3385
  16   2.0000      -8.082085      -219.9247
  17   2.0000      -8.079746      -219.8611
  18   2.0000      -6.040402      -164.3677
  19   2.0000      -6.038369      -164.3124
  20   2.0000      -6.036523      -164.2621
  21   2.0000      -6.034336      -164.2026
  22   2.0000      -6.033019      -164.1668
  23   2.0000      -6.030288      -164.0925
  24   2.0000      -1.010732       -27.5034
  25   2.0000      -0.986999       -26.8576
  26   2.0000      -0.920634       -25.0517
  27   2.0000      -0.909164       -24.7396
  28   2.0000      -0.878746       -23.9119
  29   2.0000      -0.852356       -23.1938
  30   2.0000      -0.842317       -22.9206
  31   2.0000      -0.817458       -22.2442
  32   2.0000      -0.789881       -21.4937
  33   2.0000      -0.777755       -21.1638
  34   2.0000      -0.716251       -19.4902
  35   2.0000      -0.694895       -18.9091
  36   2.0000      -0.687790       -18.7157
  37   2.0000      -0.659343       -17.9416
  38   2.0000      -0.637838       -17.3564
  39   2.0000      -0.615354       -16.7446
  40   2.0000      -0.596910       -16.2427
  41   2.0000      -0.573801       -15.6139
  42   2.0000      -0.556786       -15.1509
  43   2.0000      -0.553781       -15.0691
  44   2.0000      -0.546099       -14.8601
  45   2.0000      -0.539282       -14.6746
  46   2.0000      -0.516615       -14.0578
  47   2.0000      -0.512173       -13.9369
  48   2.0000      -0.510238       -13.8843
  49   2.0000      -0.496142       -13.5007
  50   2.0000      -0.488883       -13.3032
  51   2.0000      -0.486051       -13.2261
  52   2.0000      -0.475851       -12.9486
  53   2.0000      -0.471851       -12.8397
  54   2.0000      -0.463036       -12.5998
  55   2.0000      -0.451042       -12.2735
  56   2.0000      -0.444105       -12.0847
  57   2.0000      -0.436852       -11.8873
  58   2.0000      -0.433802       -11.8044
  59   2.0000      -0.421825       -11.4784
  60   2.0000      -0.418415       -11.3856
  61   2.0000      -0.413279       -11.2459
  62   2.0000      -0.407256       -11.0820
  63   2.0000      -0.353824        -9.6280
  64   2.0000      -0.336046        -9.1443
  65   2.0000      -0.325375        -8.8539
  66   2.0000      -0.286220        -7.7884
  67   0.0000       0.019297         0.5251
  68   0.0000       0.079802         2.1715
  69   0.0000       0.110898         3.0177
  70   0.0000       0.123436         3.3589
  71   0.0000       0.131523         3.5789

MULLIKEN ATOMIC CHARGES
-----------------------
   0 S :    0.104542
   1 C :   -0.093046
   2 C :   -0.091914
   3 C :   -0.032180
   4 C :   -0.146247
   5 H :    0.074073
   6 C :    0.032036
   7 H :    0.039436
   8 H :    0.006765
   9 C :   -0.053519
  10 H :    0.029205
  11 H :    0.013238
  12 C :    0.005155
  13 H :    0.035465
  14 H :    0.007390
  15 H :    0.030414
  16 S :    0.110590
  17 C :   -0.083343
  18 C :   -0.049446
  19 C :   -0.061337
  20 C :   -0.167945
  21 H :    0.032220
  22 C :    0.117006
  23 H :    0.007597
  24 H :    0.001503
  25 C :   -0.099183
  26 H :    0.049468
  27 H :    0.038588
  28 C :   -0.032227
  29 H :    0.039487
  30 H :    0.015462
  31 H :    0.035498
  32 H :    0.027188
  33 H :    0.058062
Sum of atomic charges:   -0.0000000

LOEWDIN ATOMIC CHARGES
----------------------
   0 S :    0.396912
   1 C :   -0.192268
   2 C :   -0.060229
   3 C :   -0.084763
   4 C :   -0.192184
   5 H :    0.052687
   6 C :   -0.040444
   7 H :    0.037912
   8 H :    0.025487
   9 C :   -0.040394
  10 H :    0.026068
  11 H :    0.020501
  12 C :   -0.047892
  13 H :    0.025640
  14 H :    0.010022
  15 H :    0.031259
  16 S :    0.415872
  17 C :   -0.189785
  18 C :   -0.077792
  19 C :   -0.052213
  20 C :   -0.206603
  21 H :    0.040412
  22 C :   -0.028046
  23 H :    0.028763
  24 H :    0.018722
  25 C :   -0.040499
  26 H :    0.032823
  27 H :    0.030128
  28 C :   -0.066768
  29 H :    0.032929
  30 H :    0.023826
  31 H :    0.018394
  32 H :    0.023538
  33 H :    0.027984

  Mayer bond orders larger than 0.100000
B(  0-S ,  1-C ) :   1.1083 B(  0-S ,  4-C ) :   1.1373 B(  1-C ,  2-C ) :   1.6541
B(  1-C , 32-H ) :   0.9724 B(  2-C ,  3-C ) :   1.1886 B(  2-C ,  6-C ) :   1.0175
B(  3-C ,  4-C ) :   1.5887 B(  3-C ,  5-H ) :   0.9621 B(  4-C , 20-C ) :   1.1011
B(  6-C ,  7-H ) :   0.9270 B(  6-C ,  8-H ) :   0.9399 B(  6-C ,  9-C ) :   1.0847
B(  9-C , 10-H ) :   0.9495 B(  9-C , 11-H ) :   0.9492 B(  9-C , 12-C ) :   1.0804
B( 12-C , 13-H ) :   0.9723 B( 12-C , 14-H ) :   0.9766 B( 12-C , 15-H ) :   0.9722
B( 16-S , 17-C ) :   1.1651 B( 16-S , 20-C ) :   1.1484 B( 17-C , 18-C ) :   1.5871
B( 17-C , 20-C ) :   0.1000 B( 17-C , 33-H ) :   0.9627 B( 18-C , 19-C ) :   1.2954
B( 18-C , 21-H ) :   0.9823 B( 19-C , 20-C ) :   1.5337 B( 19-C , 22-C ) :   1.0377
B( 22-C , 23-H ) :   0.9272 B( 22-C , 24-H ) :   0.9247 B( 22-C , 25-C ) :   1.0740
B( 25-C , 26-H ) :   0.9543 B( 25-C , 27-H ) :   0.9548 B( 25-C , 28-C ) :   1.0843
B( 28-C , 29-H ) :   0.9712 B( 28-C , 30-H ) :   0.9711 B( 28-C , 31-H ) :   0.9725

Dispersion correction           -0.014833697
FINAL SINGLE POINT ENERGY     -1339.870177465205

DIPOLE MOMENT
-------------
                                X             Y             Z
Electronic contribution:     -9.39482     -12.31559      17.43880
Nuclear contribution   :      9.77371      12.62649     -17.79462
                        -----------------------------------------
Total Dipole Moment    :      0.37889       0.31090      -0.35581
                        -----------------------------------------
Magnitude (a.u.)       :      0.60565
Magnitude (Debye)      :      1.53945

Rotational constants in cm-1:     0.020215     0.008484     0.007320
Rotational constants in MHz :   606.019667   254.329561   219.438603

                             ****ORCA TERMINATED NORMALLY****
TOTAL RUN TIME: 0 days 0 hours 0 minutes 30 seconds 724 msec
