                         Program Version 4.2.1 -  RELEASE  -
|  1> ! wB97X-D3 SP def2-SVP
|  2> %pal
|  3> nprocs 16
|  4> end
|  5>
|  6> * xyz 0 1
|  7> S 	 40.3572 	 23.038 	 92.8669
|  8> C 	 41.5413 	 23.985 	 93.7705
|  9> C 	 40.9562 	 24.4312 	 94.9348
| 10> C 	 39.6013 	 24.0712 	 95.106
| 11> C 	 39.1172 	 23.2623 	 94.1141
| 12> H 	 38.9189 	 24.3055 	 95.9795
| 13> C 	 41.6278 	 25.365 	 95.8482
| 14> H 	 40.9866 	 26.078 	 96.3298
| 15> H 	 42.3627 	 25.8922 	 95.2836
| 16> C 	 42.4866 	 24.7111 	 96.9154
| 17> H 	 43.0787 	 23.9449 	 96.4653
| 18> H 	 43.2744 	 25.4192 	 97.1646
| 19> C 	 41.748 	 24.1149 	 98.0861
| 20> H 	 41.0649 	 24.7503 	 98.5915
| 21> H 	 41.2709 	 23.1507 	 97.7938
| 22> H 	 42.3392 	 23.8241 	 98.9481
| 23> S 	 36.3754 	 23.4224 	 94.5725
| 24> C 	 35.5165 	 21.9075 	 94.7196
| 25> C 	 36.2601 	 20.802 	 94.3992
| 26> C 	 37.6348 	 21.0794 	 94.0992
| 27> C 	 37.9127 	 22.4549 	 94.3318
| 28> H 	 35.7779 	 19.8189 	 94.4329
| 29> C 	 38.6994 	 20.0107 	 93.6528
| 30> H 	 39.399 	 20.4744 	 92.9347
| 31> H 	 38.1687 	 19.1668 	 93.1769
| 32> C 	 39.3848 	 19.5164 	 94.8777
| 33> H 	 39.7815 	 18.5243 	 94.574
| 34> H 	 38.7316 	 19.1954 	 95.7213
| 35> C 	 40.579 	 20.4346 	 95.3831
| 36> H 	 41.0298 	 19.9997 	 96.3282
| 37> H 	 40.2765 	 21.4077 	 95.6678
| 38> H 	 41.293 	 20.4438 	 94.5807
| 39> H 	 42.5848 	 24.1745 	 93.3659
| 40> H 	 34.4289 	 21.7759 	 95.0011
| 41> *
| 42>
| 43>                          ****END OF INPUT****

CARTESIAN COORDINATES (ANGSTROEM)
---------------------------------
  S     40.357200   23.038000   92.866900
  C     41.541300   23.985000   93.770500
  C     40.956200   24.431200   94.934800
  C     39.601300   24.071200   95.106000
  C     39.117200   23.262300   94.114100
  H     38.918900   24.305500   95.979500
  C     41.627800   25.365000   95.848200
  H     40.986600   26.078000   96.329800
  H     42.362700   25.892200   95.283600
  C     42.486600   24.711100   96.915400
  H     43.078700   23.944900   96.465300
  H     43.274400   25.419200   97.164600
  C     41.748000   24.114900   98.086100
  H     41.064900   24.750300   98.591500
  H     41.270900   23.150700   97.793800
  H     42.339200   23.824100   98.948100
  S     36.375400   23.422400   94.572500
  C     35.516500   21.907500   94.719600
  C     36.260100   20.802000   94.399200
  C     37.634800   21.079400   94.099200
  C     37.912700   22.454900   94.331800
  H     35.777900   19.818900   94.432900
  C     38.699400   20.010700   93.652800
  H     39.399000   20.474400   92.934700
  H     38.168700   19.166800   93.176900
  C     39.384800   19.516400   94.877700
  H     39.781500   18.524300   94.574000
  H     38.731600   19.195400   95.721300
  C     40.579000   20.434600   95.383100
  H     41.029800   19.999700   96.328200
  H     40.276500   21.407700   95.667800
  H     41.293000   20.443800   94.580700
  H     42.584800   24.174500   93.365900
  H     34.428900   21.775900   95.001100

 Total Charge           Charge          ....    0
 Multiplicity           Mult            ....    1
 Number of Electrons    NEL             ....  134
 Basis Dimension        Dim             ....  322

ORBITAL ENERGIES
----------------

  NO   OCC          E(Eh)            E(eV)
   0   2.0000     -88.968133     -2420.9460
   1   2.0000     -88.967112     -2420.9182
   2   2.0000     -10.333546      -281.1901
   3   2.0000     -10.328987      -281.0660
   4   2.0000     -10.323664      -280.9212
   5   2.0000     -10.318841      -280.7899
   6   2.0000     -10.311111      -280.5796
   7   2.0000     -10.298792      -280.2444
   8   2.0000     -10.297227      -280.2018
   9   2.0000     -10.295275      -280.1487
  10   2.0000     -10.294130      -280.1175
  11   2.0000     -10.285990      -279.8960
  12   2.0000     -10.280275      -279.7405
  13   2.0000     -10.278916      -279.7035
  14   2.0000     -10.272573      -279.5309
  15   2.0000     -10.272369      -279.5254
  16   2.0000      -8.081735      -219.9152
  17   2.0000      -8.080479      -219.8810
  18   2.0000      -6.040390      -164.3674
  19   2.0000      -6.039099      -164.3322
  20   2.0000      -6.036250      -164.2547
  21   2.0000      -6.035458      -164.2332
  22   2.0000      -6.032555      -164.1542
  23   2.0000      -6.030934      -164.1101
  24   2.0000      -1.002972       -27.2923
  25   2.0000      -0.978099       -26.6154
  26   2.0000      -0.918792       -25.0016
  27   2.0000      -0.905065       -24.6281
  28   2.0000      -0.867798       -23.6140
  29   2.0000      -0.848497       -23.0888
  30   2.0000      -0.836900       -22.7732
  31   2.0000      -0.811213       -22.0742
  32   2.0000      -0.784940       -21.3593
  33   2.0000      -0.771755       -21.0005
  34   2.0000      -0.706048       -19.2125
  35   2.0000      -0.701520       -19.0893
  36   2.0000      -0.685324       -18.6486
  37   2.0000      -0.656255       -17.8576
  38   2.0000      -0.634222       -17.2581
  39   2.0000      -0.614585       -16.7237
  40   2.0000      -0.591847       -16.1050
  41   2.0000      -0.574446       -15.6315
  42   2.0000      -0.553227       -15.0541
  43   2.0000      -0.546221       -14.8634
  44   2.0000      -0.537281       -14.6202
  45   2.0000      -0.528772       -14.3886
  46   2.0000      -0.517300       -14.0764
  47   2.0000      -0.511368       -13.9150
  48   2.0000      -0.504985       -13.7413
  49   2.0000      -0.493339       -13.4244
  50   2.0000      -0.484164       -13.1748
  51   2.0000      -0.481214       -13.0945
  52   2.0000      -0.468745       -12.7552
  53   2.0000      -0.461685       -12.5631
  54   2.0000      -0.458896       -12.4872
  55   2.0000      -0.447101       -12.1662
  56   2.0000      -0.441385       -12.0107
  57   2.0000      -0.436551       -11.8792
  58   2.0000      -0.428880       -11.6704
  59   2.0000      -0.423999       -11.5376
  60   2.0000      -0.418014       -11.3747
  61   2.0000      -0.411745       -11.2042
  62   2.0000      -0.403549       -10.9811
  63   2.0000      -0.347832        -9.4650
  64   2.0000      -0.331937        -9.0325
  65   2.0000      -0.327495        -8.9116
  66   2.0000      -0.287963        -7.8359
  67   0.0000       0.023830         0.6484
  68   0.0000       0.068766         1.8712
  69   0.0000       0.095678         2.6035
  70   0.0000       0.118329         3.2199
  71   0.0000       0.126548         3.4436

MULLIKEN ATOMIC CHARGES
-----------------------
   0 S :    0.092764
   1 C :   -0.155253
   2 C :   -0.064265
   3 C :    0.000326
   4 C :   -0.117045
   5 H :    0.045723
   6 C :    0.094666
   7 H :    0.021664
   8 H :    0.004856
   9 C :   -0.047902
  10 H :    0.006264
  11 H :    0.018159
  12 C :   -0.042985
  13 H :    0.015861
  14 H :    0.041131
  15 H :    0.020919
  16 S :    0.096171
  17 C :   -0.102830
  18 C :   -0.049197
  19 C :   -0.046316
  20 C :   -0.189166
  21 H :    0.022621
  22 C :    0.082823
  23 H :    0.038591
  24 H :    0.028746
  25 C :   -0.088041
  26 H :    0.018667
  27 H :    0.031726
  28 C :   -0.030472
  29 H :    0.033760
  30 H :    0.034866
  31 H :    0.029826
  32 H :    0.080142
  33 H :    0.073201
Sum of atomic charges:   -0.0000000

LOEWDIN ATOMIC CHARGES
----------------------
   0 S :    0.398407
   1 C :   -0.196871
   2 C :   -0.068622
   3 C :   -0.067336
   4 C :   -0.195330
   5 H :    0.044148
   6 C :   -0.026359
   7 H :    0.028365
   8 H :    0.029970
   9 C :   -0.039547
  10 H :    0.020645
  11 H :    0.022707
  12 C :   -0.073287
  13 H :    0.017955
  14 H :    0.033322
  15 H :    0.028181
  16 S :    0.374415
  17 C :   -0.196282
  18 C :   -0.079552
  19 C :   -0.045207
  20 C :   -0.173420
  21 H :    0.034775
  22 C :   -0.029739
  23 H :    0.024764
  24 H :    0.034848
  25 C :   -0.046445
  26 H :    0.021539
  27 H :    0.026656
  28 C :   -0.059759
  29 H :    0.031478
  30 H :    0.017522
  31 H :    0.019758
  32 H :    0.045690
  33 H :    0.042613

  Mayer bond orders larger than 0.100000
B(  0-S ,  1-C ) :   1.1299 B(  0-S ,  4-C ) :   1.1448 B(  1-C ,  2-C ) :   1.5920
B(  1-C , 32-H ) :   0.9620 B(  2-C ,  3-C ) :   1.2496 B(  2-C ,  6-C ) :   1.0384
B(  3-C ,  4-C ) :   1.5416 B(  3-C ,  5-H ) :   0.9857 B(  4-C , 20-C ) :   1.0378
B(  6-C ,  7-H ) :   0.9473 B(  6-C ,  8-H ) :   0.9285 B(  6-C ,  9-C ) :   1.0804
B(  9-C , 10-H ) :   0.9483 B(  9-C , 11-H ) :   0.9556 B(  9-C , 12-C ) :   1.0783
B( 12-C , 13-H ) :   0.9749 B( 12-C , 14-H ) :   0.9727 B( 12-C , 15-H ) :   0.9681
B( 16-S , 17-C ) :   1.1348 B( 16-S , 20-C ) :   1.1208 B( 17-C , 18-C ) :   1.6545
B( 17-C , 33-H ) :   0.9537 B( 18-C , 19-C ) :   1.2242 B( 18-C , 21-H ) :   0.9840
B( 19-C , 20-C ) :   1.5985 B( 19-C , 22-C ) :   1.0244 B( 22-C , 23-H ) :   0.9362
B( 22-C , 24-H ) :   0.9337 B( 22-C , 25-C ) :   1.0741 B( 25-C , 26-H ) :   0.9548
B( 25-C , 27-H ) :   0.9550 B( 25-C , 28-C ) :   1.0689 B( 28-C , 29-H ) :   0.9736
B( 28-C , 30-H ) :   0.9757 B( 28-C , 31-H ) :   0.9737

Dispersion correction           -0.016676907
FINAL SINGLE POINT ENERGY     -1339.868129563837

DIPOLE MOMENT
-------------
                                X             Y             Z
Electronic contribution:    -16.56300       6.21465     -15.82513
Nuclear contribution   :     16.88205      -6.42391      16.13953
                        -----------------------------------------
Total Dipole Moment    :      0.31905      -0.20926       0.31440
                        -----------------------------------------
Magnitude (a.u.)       :      0.49440
Magnitude (Debye)      :      1.25667

Rotational constants in cm-1:     0.019997     0.009365     0.008595
Rotational constants in MHz :   599.499279   280.758926   257.685791

                             ****ORCA TERMINATED NORMALLY****
TOTAL RUN TIME: 0 days 0 hours 0 minutes 33 seconds 45 msec
