                         Program Version 4.2.1 -  RELEASE  -
|  1> ! wB97X-D3 SP def2-SVP
|  2> %pal
|  3> nprocs 16
|  4> end
|  5>
|  6> * xyz 0 1
|  7> S 	 28.4892 	 28.7277 	 55.9008
|  8> C 	 30.0925 	 28.0491 	 56.2261
|  9> C 	 31.0881 	 28.9873 	 56.0252
| 10> C 	 30.5333 	 30.2368 	 55.6084
| 11> C 	 29.1809 	 30.3213 	 55.5508
| 12> H 	 31.0848 	 31.0409 	 55.2658
| 13> C 	 32.6106 	 28.6737 	 55.8914
| 14> H 	 32.854 	 29.1425 	 54.9327
| 15> H 	 32.7316 	 27.638 	 55.7545
| 16> C 	 33.4979 	 29.4091 	 56.9067
| 17> H 	 33.1501 	 30.4206 	 56.771
| 18> H 	 33.2611 	 28.9869 	 57.9139
| 19> C 	 34.9637 	 29.3602 	 56.6254
| 20> H 	 35.1469 	 29.3309 	 55.5398
| 21> H 	 35.467 	 30.216 	 57.0177
| 22> H 	 35.3605 	 28.5254 	 57.1815
| 23> S 	 27.3565 	 31.1283 	 53.6166
| 24> C 	 26.9945 	 32.8336 	 53.5663
| 25> C 	 27.6962 	 33.534 	 54.5055
| 26> C 	 28.6094 	 32.7547 	 55.2487
| 27> C 	 28.4003 	 31.4123 	 55.0463
| 28> H 	 27.6684 	 34.6586 	 54.525
| 29> C 	 29.4306 	 33.4145 	 56.365
| 30> H 	 29.8403 	 34.356 	 56.0106
| 31> H 	 30.3103 	 32.777 	 56.4542
| 32> C 	 28.7857 	 33.4819 	 57.7702
| 33> H 	 28.2172 	 32.5566 	 58.0648
| 34> H 	 27.9957 	 34.3302 	 57.7452
| 35> C 	 29.8511 	 33.8557 	 58.7793
| 36> H 	 29.6513 	 33.4466 	 59.7804
| 37> H 	 30.0296 	 34.8604 	 58.9688
| 38> H 	 30.7617 	 33.3357 	 58.5079
| 39> H 	 30.3129 	 26.9991 	 56.5143
| 40> H 	 26.4932 	 33.3577 	 52.7148
| 41> *
| 42>
| 43>                          ****END OF INPUT****

CARTESIAN COORDINATES (ANGSTROEM)
---------------------------------
  S     28.489200   28.727700   55.900800
  C     30.092500   28.049100   56.226100
  C     31.088100   28.987300   56.025200
  C     30.533300   30.236800   55.608400
  C     29.180900   30.321300   55.550800
  H     31.084800   31.040900   55.265800
  C     32.610600   28.673700   55.891400
  H     32.854000   29.142500   54.932700
  H     32.731600   27.638000   55.754500
  C     33.497900   29.409100   56.906700
  H     33.150100   30.420600   56.771000
  H     33.261100   28.986900   57.913900
  C     34.963700   29.360200   56.625400
  H     35.146900   29.330900   55.539800
  H     35.467000   30.216000   57.017700
  H     35.360500   28.525400   57.181500
  S     27.356500   31.128300   53.616600
  C     26.994500   32.833600   53.566300
  C     27.696200   33.534000   54.505500
  C     28.609400   32.754700   55.248700
  C     28.400300   31.412300   55.046300
  H     27.668400   34.658600   54.525000
  C     29.430600   33.414500   56.365000
  H     29.840300   34.356000   56.010600
  H     30.310300   32.777000   56.454200
  C     28.785700   33.481900   57.770200
  H     28.217200   32.556600   58.064800
  H     27.995700   34.330200   57.745200
  C     29.851100   33.855700   58.779300
  H     29.651300   33.446600   59.780400
  H     30.029600   34.860400   58.968800
  H     30.761700   33.335700   58.507900
  H     30.312900   26.999100   56.514300
  H     26.493200   33.357700   52.714800

 Total Charge           Charge          ....    0
 Multiplicity           Mult            ....    1
 Number of Electrons    NEL             ....  134
 Basis Dimension        Dim             ....  322

ORBITAL ENERGIES
----------------

  NO   OCC          E(Eh)            E(eV)
   0   2.0000     -88.967686     -2420.9338
   1   2.0000     -88.964366     -2420.8435
   2   2.0000     -10.326921      -281.0098
   3   2.0000     -10.325951      -280.9834
   4   2.0000     -10.317950      -280.7657
   5   2.0000     -10.317805      -280.7618
   6   2.0000     -10.301890      -280.3287
   7   2.0000     -10.300948      -280.3030
   8   2.0000     -10.296162      -280.1728
   9   2.0000     -10.293114      -280.0899
  10   2.0000     -10.292820      -280.0819
  11   2.0000     -10.291938      -280.0579
  12   2.0000     -10.285588      -279.8851
  13   2.0000     -10.285475      -279.8820
  14   2.0000     -10.274583      -279.5856
  15   2.0000     -10.269308      -279.4421
  16   2.0000      -8.081919      -219.9202
  17   2.0000      -8.078447      -219.8257
  18   2.0000      -6.040429      -164.3684
  19   2.0000      -6.037093      -164.2776
  20   2.0000      -6.036659      -164.2658
  21   2.0000      -6.033088      -164.1687
  22   2.0000      -6.032527      -164.1534
  23   2.0000      -6.029071      -164.0594
  24   2.0000      -1.007553       -27.4169
  25   2.0000      -0.982790       -26.7431
  26   2.0000      -0.914886       -24.8953
  27   2.0000      -0.907420       -24.6922
  28   2.0000      -0.873714       -23.7750
  29   2.0000      -0.854812       -23.2606
  30   2.0000      -0.846001       -23.0209
  31   2.0000      -0.813875       -22.1467
  32   2.0000      -0.784785       -21.3551
  33   2.0000      -0.772997       -21.0343
  34   2.0000      -0.707590       -19.2545
  35   2.0000      -0.695236       -18.9183
  36   2.0000      -0.691860       -18.8265
  37   2.0000      -0.658953       -17.9310
  38   2.0000      -0.640864       -17.4388
  39   2.0000      -0.623321       -16.9614
  40   2.0000      -0.595157       -16.1950
  41   2.0000      -0.578298       -15.7363
  42   2.0000      -0.562532       -15.3073
  43   2.0000      -0.557292       -15.1647
  44   2.0000      -0.526718       -14.3327
  45   2.0000      -0.520599       -14.1662
  46   2.0000      -0.516874       -14.0649
  47   2.0000      -0.512314       -13.9408
  48   2.0000      -0.507950       -13.8220
  49   2.0000      -0.497364       -13.5339
  50   2.0000      -0.490504       -13.3473
  51   2.0000      -0.488964       -13.3054
  52   2.0000      -0.467966       -12.7340
  53   2.0000      -0.466332       -12.6895
  54   2.0000      -0.461172       -12.5491
  55   2.0000      -0.449186       -12.2230
  56   2.0000      -0.441780       -12.0215
  57   2.0000      -0.432525       -11.7696
  58   2.0000      -0.428883       -11.6705
  59   2.0000      -0.423877       -11.5343
  60   2.0000      -0.423193       -11.5157
  61   2.0000      -0.417562       -11.3624
  62   2.0000      -0.411190       -11.1890
  63   2.0000      -0.352586        -9.5944
  64   2.0000      -0.334945        -9.1143
  65   2.0000      -0.328958        -8.9514
  66   2.0000      -0.289612        -7.8807
  67   0.0000       0.026865         0.7310
  68   0.0000       0.068767         1.8712
  69   0.0000       0.108136         2.9425
  70   0.0000       0.119224         3.2443
  71   0.0000       0.125504         3.4151

MULLIKEN ATOMIC CHARGES
-----------------------
   0 S :    0.094972
   1 C :   -0.144335
   2 C :   -0.070073
   3 C :    0.031564
   4 C :   -0.152067
   5 H :   -0.005230
   6 C :    0.065172
   7 H :    0.021283
   8 H :    0.010310
   9 C :   -0.089742
  10 H :    0.019567
  11 H :    0.039276
  12 C :   -0.004346
  13 H :    0.029714
  14 H :    0.026643
  15 H :    0.030882
  16 S :    0.105092
  17 C :   -0.100609
  18 C :   -0.041334
  19 C :   -0.061989
  20 C :   -0.125627
  21 H :    0.032997
  22 C :    0.072470
  23 H :    0.022732
  24 H :   -0.002561
  25 C :   -0.083228
  26 H :    0.055055
  27 H :    0.036082
  28 C :   -0.015638
  29 H :    0.023943
  30 H :    0.024645
  31 H :    0.019202
  32 H :    0.060627
  33 H :    0.074547
Sum of atomic charges:    0.0000000

LOEWDIN ATOMIC CHARGES
----------------------
   0 S :    0.380398
   1 C :   -0.195562
   2 C :   -0.061432
   3 C :   -0.058534
   4 C :   -0.184256
   5 H :    0.016991
   6 C :   -0.021888
   7 H :    0.031881
   8 H :    0.017679
   9 C :   -0.043303
  10 H :    0.021175
  11 H :    0.029068
  12 C :   -0.063253
  13 H :    0.027993
  14 H :    0.024846
  15 H :    0.027665
  16 S :    0.393271
  17 C :   -0.194550
  18 C :   -0.078773
  19 C :   -0.055945
  20 C :   -0.185051
  21 H :    0.039196
  22 C :   -0.031448
  23 H :    0.030143
  24 H :    0.023092
  25 C :   -0.041537
  26 H :    0.036559
  27 H :    0.030614
  28 C :   -0.065552
  29 H :    0.031159
  30 H :    0.016779
  31 H :    0.024132
  32 H :    0.036571
  33 H :    0.041871

  Mayer bond orders larger than 0.100000
B(  0-S ,  1-C ) :   1.1290 B(  0-S ,  4-C ) :   1.1234 B(  1-C ,  2-C ) :   1.6317
B(  1-C , 32-H ) :   0.9626 B(  2-C ,  3-C ) :   1.2284 B(  2-C ,  6-C ) :   1.0133
B(  3-C ,  4-C ) :   1.6086 B(  3-C ,  5-H ) :   0.9887 B(  4-C , 20-C ) :   1.0536
B(  6-C ,  7-H ) :   0.9411 B(  6-C ,  8-H ) :   0.9504 B(  6-C ,  9-C ) :   1.0512
B(  9-C , 10-H ) :   0.9584 B(  9-C , 11-H ) :   0.9581 B(  9-C , 12-C ) :   1.0873
B( 12-C , 13-H ) :   0.9713 B( 12-C , 14-H ) :   0.9729 B( 12-C , 15-H ) :   0.9740
B( 16-S , 17-C ) :   1.1469 B( 16-S , 20-C ) :   1.1288 B( 17-C , 18-C ) :   1.6228
B( 17-C , 33-H ) :   0.9571 B( 18-C , 19-C ) :   1.2454 B( 18-C , 21-H ) :   0.9787
B( 19-C , 20-C ) :   1.5981 B( 19-C , 22-C ) :   1.0524 B( 22-C , 23-H ) :   0.9312
B( 22-C , 24-H ) :   0.9287 B( 22-C , 25-C ) :   1.0561 B( 25-C , 26-H ) :   0.9596
B( 25-C , 27-H ) :   0.9552 B( 25-C , 28-C ) :   1.0700 B( 28-C , 29-H ) :   0.9710
B( 28-C , 30-H ) :   0.9766 B( 28-C , 31-H ) :   0.9755

Dispersion correction           -0.013839031
FINAL SINGLE POINT ENERGY     -1339.868754521806

DIPOLE MOMENT
-------------
                                X             Y             Z
Electronic contribution:    -24.65578      -9.34198     -15.42367
Nuclear contribution   :     25.37240       9.75069      15.47956
                        -----------------------------------------
Total Dipole Moment    :      0.71661       0.40871       0.05589
                        -----------------------------------------
Magnitude (a.u.)       :      0.82686
Magnitude (Debye)      :      2.10172

Rotational constants in cm-1:     0.016891     0.008841     0.006891
Rotational constants in MHz :   506.380127   265.038280   206.591566

                             ****ORCA TERMINATED NORMALLY****
TOTAL RUN TIME: 0 days 0 hours 0 minutes 32 seconds 944 msec
