                         Program Version 4.2.1 -  RELEASE  -
|  1> ! wB97X-D3 SP def2-SVP
|  2> %pal
|  3> nprocs 16
|  4> end
|  5>
|  6> * xyz 0 1
|  7> S 	 -72.5938 	 45.5285 	 123.982
|  8> C 	 -74.2302 	 45.0111 	 124.509
|  9> C 	 -74.7828 	 45.8827 	 125.457
| 10> C 	 -73.802 	 46.8973 	 125.808
| 11> C 	 -72.6118 	 46.8008 	 125.076
| 12> H 	 -74.0198 	 47.7254 	 126.55
| 13> C 	 -76.1164 	 45.821 	 126.173
| 14> H 	 -76.7945 	 45.69 	 125.344
| 15> H 	 -76.3916 	 46.8223 	 126.466
| 16> C 	 -76.3307 	 44.7536 	 127.226
| 17> H 	 -75.6221 	 44.8052 	 128.052
| 18> H 	 -77.3363 	 44.8817 	 127.738
| 19> C 	 -76.3593 	 43.3638 	 126.619
| 20> H 	 -75.444 	 42.9175 	 126.272
| 21> H 	 -76.7732 	 42.6928 	 127.383
| 22> H 	 -76.9973 	 43.2993 	 125.731
| 23> S 	 -70.0167 	 46.6094 	 125.954
| 24> C 	 -69.042 	 48.0969 	 126.2
| 25> C 	 -69.7819 	 49.2061 	 125.833
| 26> C 	 -71.0346 	 48.8838 	 125.189
| 27> C 	 -71.3793 	 47.5582 	 125.373
| 28> H 	 -69.4035 	 50.1994 	 126.023
| 29> C 	 -71.9615 	 49.9536 	 124.802
| 30> H 	 -72.3036 	 50.5867 	 125.585
| 31> H 	 -72.8879 	 49.539 	 124.392
| 32> C 	 -71.4532 	 50.8922 	 123.692
| 33> H 	 -71.4156 	 50.3452 	 122.771
| 34> H 	 -70.4418 	 51.2593 	 124.022
| 35> C 	 -72.3099 	 52.2124 	 123.637
| 36> H 	 -71.967 	 52.9448 	 122.884
| 37> H 	 -72.2804 	 52.7162 	 124.594
| 38> H 	 -73.4066 	 51.9305 	 123.413
| 39> H 	 -74.7162 	 44.1586 	 124.131
| 40> H 	 -68.0883 	 48.1273 	 126.63
| 41> *
| 42>
| 43>                          ****END OF INPUT****

CARTESIAN COORDINATES (ANGSTROEM)
---------------------------------
  S    -72.593800   45.528500  123.982000
  C    -74.230200   45.011100  124.509000
  C    -74.782800   45.882700  125.457000
  C    -73.802000   46.897300  125.808000
  C    -72.611800   46.800800  125.076000
  H    -74.019800   47.725400  126.550000
  C    -76.116400   45.821000  126.173000
  H    -76.794500   45.690000  125.344000
  H    -76.391600   46.822300  126.466000
  C    -76.330700   44.753600  127.226000
  H    -75.622100   44.805200  128.052000
  H    -77.336300   44.881700  127.738000
  C    -76.359300   43.363800  126.619000
  H    -75.444000   42.917500  126.272000
  H    -76.773200   42.692800  127.383000
  H    -76.997300   43.299300  125.731000
  S    -70.016700   46.609400  125.954000
  C    -69.042000   48.096900  126.200000
  C    -69.781900   49.206100  125.833000
  C    -71.034600   48.883800  125.189000
  C    -71.379300   47.558200  125.373000
  H    -69.403500   50.199400  126.023000
  C    -71.961500   49.953600  124.802000
  H    -72.303600   50.586700  125.585000
  H    -72.887900   49.539000  124.392000
  C    -71.453200   50.892200  123.692000
  H    -71.415600   50.345200  122.771000
  H    -70.441800   51.259300  124.022000
  C    -72.309900   52.212400  123.637000
  H    -71.967000   52.944800  122.884000
  H    -72.280400   52.716200  124.594000
  H    -73.406600   51.930500  123.413000
  H    -74.716200   44.158600  124.131000
  H    -68.088300   48.127300  126.630000

 Total Charge           Charge          ....    0
 Multiplicity           Mult            ....    1
 Number of Electrons    NEL             ....  134
 Basis Dimension        Dim             ....  322

ORBITAL ENERGIES
----------------

  NO   OCC          E(Eh)            E(eV)
   0   2.0000     -88.970146     -2421.0008
   1   2.0000     -88.962485     -2420.7923
   2   2.0000     -10.327881      -281.0359
   3   2.0000     -10.326793      -281.0063
   4   2.0000     -10.316790      -280.7341
   5   2.0000     -10.316144      -280.7165
   6   2.0000     -10.306949      -280.4663
   7   2.0000     -10.299913      -280.2749
   8   2.0000     -10.299902      -280.2746
   9   2.0000     -10.295288      -280.1490
  10   2.0000     -10.293833      -280.1094
  11   2.0000     -10.291136      -280.0360
  12   2.0000     -10.287706      -279.9427
  13   2.0000     -10.286720      -279.9159
  14   2.0000     -10.281050      -279.7616
  15   2.0000     -10.276477      -279.6371
  16   2.0000      -8.085269      -220.0114
  17   2.0000      -8.076626      -219.7762
  18   2.0000      -6.043676      -164.4568
  19   2.0000      -6.039628      -164.3466
  20   2.0000      -6.036208      -164.2536
  21   2.0000      -6.035275      -164.2282
  22   2.0000      -6.031237      -164.1183
  23   2.0000      -6.027239      -164.0095
  24   2.0000      -1.005485       -27.3606
  25   2.0000      -0.979586       -26.6559
  26   2.0000      -0.917873       -24.9766
  27   2.0000      -0.907681       -24.6993
  28   2.0000      -0.866410       -23.5762
  29   2.0000      -0.847774       -23.0691
  30   2.0000      -0.842255       -22.9189
  31   2.0000      -0.808969       -22.0132
  32   2.0000      -0.787865       -21.4389
  33   2.0000      -0.769416       -20.9369
  34   2.0000      -0.707596       -19.2547
  35   2.0000      -0.698766       -19.0144
  36   2.0000      -0.694679       -18.9032
  37   2.0000      -0.659934       -17.9577
  38   2.0000      -0.640007       -17.4155
  39   2.0000      -0.615836       -16.7578
  40   2.0000      -0.601237       -16.3605
  41   2.0000      -0.569611       -15.4999
  42   2.0000      -0.566074       -15.4037
  43   2.0000      -0.551368       -15.0035
  44   2.0000      -0.544015       -14.8034
  45   2.0000      -0.524028       -14.2595
  46   2.0000      -0.516175       -14.0458
  47   2.0000      -0.512819       -13.9545
  48   2.0000      -0.504151       -13.7186
  49   2.0000      -0.495412       -13.4808
  50   2.0000      -0.487033       -13.2528
  51   2.0000      -0.473671       -12.8893
  52   2.0000      -0.464990       -12.6530
  53   2.0000      -0.462216       -12.5775
  54   2.0000      -0.456925       -12.4335
  55   2.0000      -0.451469       -12.2851
  56   2.0000      -0.444804       -12.1037
  57   2.0000      -0.441713       -12.0196
  58   2.0000      -0.437160       -11.8957
  59   2.0000      -0.426186       -11.5971
  60   2.0000      -0.418390       -11.3850
  61   2.0000      -0.413542       -11.2530
  62   2.0000      -0.409742       -11.1496
  63   2.0000      -0.337068        -9.1721
  64   2.0000      -0.333098        -9.0641
  65   2.0000      -0.323860        -8.8127
  66   2.0000      -0.300126        -8.1668
  67   0.0000       0.036301         0.9878
  68   0.0000       0.062659         1.7050
  69   0.0000       0.108214         2.9447
  70   0.0000       0.116654         3.1743
  71   0.0000       0.125241         3.4080

MULLIKEN ATOMIC CHARGES
-----------------------
   0 S :    0.129086
   1 C :   -0.128914
   2 C :   -0.098889
   3 C :    0.009622
   4 C :   -0.161130
   5 H :    0.036781
   6 C :    0.095964
   7 H :    0.018386
   8 H :    0.010552
   9 C :   -0.039300
  10 H :    0.034492
  11 H :    0.037526
  12 C :   -0.067502
  13 H :    0.035951
  14 H :    0.034541
  15 H :    0.020213
  16 S :    0.095189
  17 C :   -0.078252
  18 C :   -0.024813
  19 C :    0.016135
  20 C :   -0.157608
  21 H :    0.023014
  22 C :    0.047299
  23 H :    0.018579
  24 H :    0.018833
  25 C :   -0.098776
  26 H :    0.038842
  27 H :    0.027756
  28 C :   -0.077950
  29 H :    0.045651
  30 H :    0.031349
  31 H :    0.038311
  32 H :    0.028315
  33 H :    0.040748
Sum of atomic charges:    0.0000000

LOEWDIN ATOMIC CHARGES
----------------------
   0 S :    0.429947
   1 C :   -0.184389
   2 C :   -0.053456
   3 C :   -0.067030
   4 C :   -0.226573
   5 H :    0.040852
   6 C :   -0.036318
   7 H :    0.033170
   8 H :    0.028663
   9 C :   -0.038315
  10 H :    0.026544
  11 H :    0.035078
  12 C :   -0.069301
  13 H :    0.021234
  14 H :    0.030330
  15 H :    0.022896
  16 S :    0.379747
  17 C :   -0.163278
  18 C :   -0.059579
  19 C :   -0.061790
  20 C :   -0.186782
  21 H :    0.029887
  22 C :   -0.037807
  23 H :    0.025831
  24 H :    0.030556
  25 C :   -0.034372
  26 H :    0.022206
  27 H :    0.022516
  28 C :   -0.073331
  29 H :    0.028276
  30 H :    0.021246
  31 H :    0.030202
  32 H :    0.013916
  33 H :    0.019224

  Mayer bond orders larger than 0.100000
B(  0-S ,  1-C ) :   1.1365 B(  0-S ,  4-C ) :   1.1821 B(  1-C ,  2-C ) :   1.5999
B(  1-C , 32-H ) :   0.9752 B(  2-C ,  3-C ) :   1.2567 B(  2-C ,  6-C ) :   1.0089
B(  3-C ,  4-C ) :   1.5586 B(  3-C ,  5-H ) :   0.9822 B(  4-C , 20-C ) :   1.0036
B(  6-C ,  7-H ) :   0.9338 B(  6-C ,  8-H ) :   0.9364 B(  6-C ,  9-C ) :   1.0732
B(  9-C , 10-H ) :   0.9543 B(  9-C , 11-H ) :   0.9522 B(  9-C , 12-C ) :   1.0774
B( 12-C , 13-H ) :   0.9724 B( 12-C , 14-H ) :   0.9720 B( 12-C , 15-H ) :   0.9746
B( 16-S , 17-C ) :   1.1296 B( 16-S , 20-C ) :   1.1376 B( 17-C , 18-C ) :   1.6443
B( 17-C , 33-H ) :   0.9755 B( 18-C , 19-C ) :   1.1918 B( 18-C , 21-H ) :   0.9857
B( 19-C , 20-C ) :   1.6181 B( 19-C , 22-C ) :   1.0711 B( 22-C , 23-H ) :   0.9439
B( 22-C , 24-H ) :   0.9260 B( 22-C , 25-C ) :   1.0436 B( 25-C , 26-H ) :   0.9597
B( 25-C , 27-H ) :   0.9624 B( 25-C , 28-C ) :   1.0713 B( 28-C , 29-H ) :   0.9759
B( 28-C , 30-H ) :   0.9745 B( 28-C , 31-H ) :   0.9743

Dispersion correction           -0.013790871
FINAL SINGLE POINT ENERGY     -1339.876765550521

DIPOLE MOMENT
-------------
                                X             Y             Z
Electronic contribution:     18.28366     -10.56319      -2.28986
Nuclear contribution   :    -18.74777      10.89058       2.57122
                        -----------------------------------------
Total Dipole Moment    :     -0.46411       0.32739       0.28136
                        -----------------------------------------
Magnitude (a.u.)       :      0.63384
Magnitude (Debye)      :      1.61109

Rotational constants in cm-1:     0.020719     0.007429     0.006304
Rotational constants in MHz :   621.147668   222.712928   188.999142

                             ****ORCA TERMINATED NORMALLY****
TOTAL RUN TIME: 0 days 0 hours 0 minutes 32 seconds 1 msec
