                         Program Version 4.2.1 -  RELEASE  -
|  1> ! wB97X-D3 SP def2-SVP
|  2> %pal
|  3> nprocs 16
|  4> end
|  5>
|  6> * xyz 0 1
|  7> S 	 -93.4149 	 54.8734 	 129.922
|  8> C 	 -92.1695 	 53.951 	 130.718
|  9> C 	 -91.0109 	 53.8026 	 129.982
| 10> C 	 -91.1073 	 54.5487 	 128.778
| 11> C 	 -92.3808 	 55.0735 	 128.581
| 12> H 	 -90.2381 	 54.7257 	 128.062
| 13> C 	 -89.7576 	 53.3075 	 130.611
| 14> H 	 -90.0691 	 52.6359 	 131.394
| 15> H 	 -89.4031 	 54.2791 	 130.983
| 16> C 	 -88.6962 	 52.6391 	 129.588
| 17> H 	 -89.1149 	 51.7185 	 129.078
| 18> H 	 -88.4485 	 53.4158 	 128.85
| 19> C 	 -87.472 	 52.1202 	 130.378
| 20> H 	 -87.5294 	 51.0358 	 130.561
| 21> H 	 -86.5893 	 52.2421 	 129.8
| 22> H 	 -87.2706 	 52.5446 	 131.286
| 23> S 	 -93.2615 	 57.499 	 127.908
| 24> C 	 -93.3704 	 57.9557 	 126.17
| 25> C 	 -93.0317 	 56.8726 	 125.347
| 26> C 	 -92.6471 	 55.7116 	 126.078
| 27> C 	 -92.7108 	 55.9432 	 127.456
| 28> H 	 -92.6999 	 57.0652 	 124.288
| 29> C 	 -92.2832 	 54.414 	 125.369
| 30> H 	 -92.9002 	 54.2987 	 124.472
| 31> H 	 -92.5999 	 53.6906 	 126.14
| 32> C 	 -90.7466 	 54.2048 	 125.086
| 33> H 	 -90.5663 	 53.2506 	 124.595
| 34> H 	 -90.1603 	 54.0987 	 126.043
| 35> C 	 -90.1235 	 55.3612 	 124.315
| 36> H 	 -89.1834 	 55.038 	 123.661
| 37> H 	 -89.8815 	 56.157 	 124.995
| 38> H 	 -90.8052 	 55.6777 	 123.54
| 39> H 	 -92.1636 	 53.6084 	 131.729
| 40> H 	 -93.6 	 58.9536 	 125.914
| 41> *
| 42>
| 43>                          ****END OF INPUT****

CARTESIAN COORDINATES (ANGSTROEM)
---------------------------------
  S    -93.414900   54.873400  129.922000
  C    -92.169500   53.951000  130.718000
  C    -91.010900   53.802600  129.982000
  C    -91.107300   54.548700  128.778000
  C    -92.380800   55.073500  128.581000
  H    -90.238100   54.725700  128.062000
  C    -89.757600   53.307500  130.611000
  H    -90.069100   52.635900  131.394000
  H    -89.403100   54.279100  130.983000
  C    -88.696200   52.639100  129.588000
  H    -89.114900   51.718500  129.078000
  H    -88.448500   53.415800  128.850000
  C    -87.472000   52.120200  130.378000
  H    -87.529400   51.035800  130.561000
  H    -86.589300   52.242100  129.800000
  H    -87.270600   52.544600  131.286000
  S    -93.261500   57.499000  127.908000
  C    -93.370400   57.955700  126.170000
  C    -93.031700   56.872600  125.347000
  C    -92.647100   55.711600  126.078000
  C    -92.710800   55.943200  127.456000
  H    -92.699900   57.065200  124.288000
  C    -92.283200   54.414000  125.369000
  H    -92.900200   54.298700  124.472000
  H    -92.599900   53.690600  126.140000
  C    -90.746600   54.204800  125.086000
  H    -90.566300   53.250600  124.595000
  H    -90.160300   54.098700  126.043000
  C    -90.123500   55.361200  124.315000
  H    -89.183400   55.038000  123.661000
  H    -89.881500   56.157000  124.995000
  H    -90.805200   55.677700  123.540000
  H    -92.163600   53.608400  131.729000
  H    -93.600000   58.953600  125.914000

 Total Charge           Charge          ....    0
 Multiplicity           Mult            ....    1
 Number of Electrons    NEL             ....  134
 Basis Dimension        Dim             ....  322

ORBITAL ENERGIES
----------------

  NO   OCC          E(Eh)            E(eV)
   0   2.0000     -88.970458     -2421.0092
   1   2.0000     -88.965341     -2420.8700
   2   2.0000     -10.323803      -280.9250
   3   2.0000     -10.322451      -280.8882
   4   2.0000     -10.318999      -280.7942
   5   2.0000     -10.304694      -280.4050
   6   2.0000     -10.302440      -280.3436
   7   2.0000     -10.301152      -280.3086
   8   2.0000     -10.298509      -280.2367
   9   2.0000     -10.296768      -280.1893
  10   2.0000     -10.296615      -280.1851
  11   2.0000     -10.294816      -280.1362
  12   2.0000     -10.294583      -280.1299
  13   2.0000     -10.290901      -280.0296
  14   2.0000     -10.282905      -279.8121
  15   2.0000     -10.270866      -279.4845
  16   2.0000      -8.085714      -220.0235
  17   2.0000      -8.080157      -219.8722
  18   2.0000      -6.044073      -164.4676
  19   2.0000      -6.040214      -164.3626
  20   2.0000      -6.038517      -164.3164
  21   2.0000      -6.036551      -164.2629
  22   2.0000      -6.034655      -164.2113
  23   2.0000      -6.031074      -164.1139
  24   2.0000      -1.011224       -27.5168
  25   2.0000      -0.983181       -26.7537
  26   2.0000      -0.910331       -24.7714
  27   2.0000      -0.902523       -24.5589
  28   2.0000      -0.867887       -23.6164
  29   2.0000      -0.850953       -23.1556
  30   2.0000      -0.846368       -23.0308
  31   2.0000      -0.813363       -22.1327
  32   2.0000      -0.780995       -21.2519
  33   2.0000      -0.768053       -20.8998
  34   2.0000      -0.713013       -19.4021
  35   2.0000      -0.698543       -19.0083
  36   2.0000      -0.687430       -18.7059
  37   2.0000      -0.662160       -18.0183
  38   2.0000      -0.633469       -17.2376
  39   2.0000      -0.615457       -16.7474
  40   2.0000      -0.586272       -15.9533
  41   2.0000      -0.567961       -15.4550
  42   2.0000      -0.559211       -15.2169
  43   2.0000      -0.554471       -15.0879
  44   2.0000      -0.538001       -14.6398
  45   2.0000      -0.527271       -14.3478
  46   2.0000      -0.520883       -14.1740
  47   2.0000      -0.508937       -13.8489
  48   2.0000      -0.500368       -13.6157
  49   2.0000      -0.491652       -13.3785
  50   2.0000      -0.489352       -13.3160
  51   2.0000      -0.482420       -13.1273
  52   2.0000      -0.470690       -12.8081
  53   2.0000      -0.469538       -12.7768
  54   2.0000      -0.458741       -12.4830
  55   2.0000      -0.450530       -12.2595
  56   2.0000      -0.440609       -11.9896
  57   2.0000      -0.435948       -11.8628
  58   2.0000      -0.432130       -11.7589
  59   2.0000      -0.424449       -11.5499
  60   2.0000      -0.422542       -11.4979
  61   2.0000      -0.419126       -11.4050
  62   2.0000      -0.413886       -11.2624
  63   2.0000      -0.342729        -9.3261
  64   2.0000      -0.329838        -8.9753
  65   2.0000      -0.327192        -8.9033
  66   2.0000      -0.290078        -7.8934
  67   0.0000       0.032719         0.8903
  68   0.0000       0.067972         1.8496
  69   0.0000       0.104657         2.8479
  70   0.0000       0.121670         3.3108
  71   0.0000       0.127999         3.4830

MULLIKEN ATOMIC CHARGES
-----------------------
   0 S :    0.137610
   1 C :   -0.117811
   2 C :   -0.075320
   3 C :   -0.016587
   4 C :   -0.160514
   5 H :    0.045817
   6 C :    0.030151
   7 H :    0.029665
   8 H :    0.058630
   9 C :   -0.117627
  10 H :    0.053285
  11 H :    0.042332
  12 C :    0.001689
  13 H :    0.030856
  14 H :    0.019021
  15 H :    0.009748
  16 S :    0.100215
  17 C :   -0.101800
  18 C :   -0.036883
  19 C :   -0.064742
  20 C :   -0.163127
  21 H :    0.051638
  22 C :    0.065408
  23 H :    0.038730
  24 H :    0.041100
  25 C :   -0.061877
  26 H :    0.030494
  27 H :    0.019038
  28 C :   -0.081720
  29 H :    0.044817
  30 H :    0.050918
  31 H :    0.023161
  32 H :    0.027843
  33 H :    0.045842
Sum of atomic charges:   -0.0000000

LOEWDIN ATOMIC CHARGES
----------------------
   0 S :    0.432281
   1 C :   -0.208585
   2 C :   -0.065768
   3 C :   -0.071454
   4 C :   -0.216267
   5 H :    0.039237
   6 C :   -0.029716
   7 H :    0.028505
   8 H :    0.045017
   9 C :   -0.037653
  10 H :    0.036369
  11 H :    0.022905
  12 C :   -0.063014
  13 H :    0.030995
  14 H :    0.024311
  15 H :    0.011513
  16 S :    0.403050
  17 C :   -0.165283
  18 C :   -0.077030
  19 C :   -0.065050
  20 C :   -0.208004
  21 H :    0.043031
  22 C :   -0.029831
  23 H :    0.033325
  24 H :    0.039719
  25 C :   -0.043807
  26 H :    0.023034
  27 H :    0.024114
  28 C :   -0.074637
  29 H :    0.039717
  30 H :    0.025489
  31 H :    0.017106
  32 H :    0.020209
  33 H :    0.016172

  Mayer bond orders larger than 0.100000
B(  0-S ,  1-C ) :   1.1321 B(  0-S ,  4-C ) :   1.1723 B(  1-C ,  2-C ) :   1.6131
B(  1-C , 32-H ) :   0.9654 B(  2-C ,  3-C ) :   1.2555 B(  2-C ,  6-C ) :   1.0188
B(  3-C ,  4-C ) :   1.5607 B(  3-C ,  5-H ) :   0.9716 B(  4-C , 20-C ) :   1.0170
B(  6-C ,  7-H ) :   0.9425 B(  6-C ,  8-H ) :   0.9397 B(  6-C ,  9-C ) :   1.0565
B(  9-C , 10-H ) :   0.9653 B(  9-C , 11-H ) :   0.9589 B(  9-C , 12-C ) :   1.0710
B( 12-C , 13-H ) :   0.9776 B( 12-C , 14-H ) :   0.9728 B( 12-C , 15-H ) :   0.9762
B( 16-S , 17-C ) :   1.1468 B( 16-S , 20-C ) :   1.1653 B( 17-C , 18-C ) :   1.6048
B( 17-C , 20-C ) :   0.1054 B( 17-C , 33-H ) :   0.9774 B( 18-C , 19-C ) :   1.2494
B( 18-C , 21-H ) :   0.9665 B( 19-C , 20-C ) :   1.5975 B( 19-C , 22-C ) :   1.0291
B( 22-C , 23-H ) :   0.9450 B( 22-C , 24-H ) :   0.9287 B( 22-C , 25-C ) :   1.0686
B( 25-C , 26-H ) :   0.9571 B( 25-C , 27-H ) :   0.9544 B( 25-C , 28-C ) :   1.0696
B( 28-C , 29-H ) :   0.9718 B( 28-C , 30-H ) :   0.9734 B( 28-C , 31-H ) :   0.9754

Dispersion correction           -0.014873382
FINAL SINGLE POINT ENERGY     -1339.860721489706

DIPOLE MOMENT
-------------
                                X             Y             Z
Electronic contribution:    -25.21309      15.22659       8.53613
Nuclear contribution   :     25.90454     -15.42275      -8.62954
                        -----------------------------------------
Total Dipole Moment    :      0.69145      -0.19616      -0.09341
                        -----------------------------------------
Magnitude (a.u.)       :      0.72478
Magnitude (Debye)      :      1.84224

Rotational constants in cm-1:     0.018177     0.009337     0.006796
Rotational constants in MHz :   544.947529   279.927692   203.748971

                             ****ORCA TERMINATED NORMALLY****
TOTAL RUN TIME: 0 days 0 hours 0 minutes 36 seconds 365 msec
