                         Program Version 4.2.1 -  RELEASE  -
|  1> ! wB97X-D3 SP def2-SVP
|  2> %pal
|  3> nprocs 16
|  4> end
|  5>
|  6> * xyz 0 1
|  7> S 	 -107.366 	 41.7861 	 132.664
|  8> C 	 -106.51 	 42.5609 	 133.871
|  9> C 	 -105.452 	 43.3348 	 133.418
| 10> C 	 -105.422 	 43.3372 	 131.995
| 11> C 	 -106.36 	 42.4752 	 131.435
| 12> H 	 -104.696 	 43.7833 	 131.368
| 13> C 	 -104.538 	 44.0869 	 134.404
| 14> H 	 -105.191 	 44.125 	 135.26
| 15> H 	 -104.327 	 45.0613 	 134.044
| 16> C 	 -103.335 	 43.2699 	 134.909
| 17> H 	 -102.966 	 44.0386 	 135.634
| 18> H 	 -103.677 	 42.4575 	 135.512
| 19> C 	 -102.277 	 42.891 	 133.826
| 20> H 	 -101.544 	 42.1806 	 134.138
| 21> H 	 -102.859 	 42.4357 	 133.018
| 22> H 	 -101.802 	 43.8174 	 133.42
| 23> S 	 -107.808 	 42.8178 	 129.032
| 24> C 	 -107.205 	 41.8837 	 127.637
| 25> C 	 -105.931 	 41.2464 	 127.901
| 26> C 	 -105.536 	 41.4621 	 129.262
| 27> C 	 -106.427 	 42.2281 	 130.011
| 28> H 	 -105.398 	 40.6441 	 127.155
| 29> C 	 -104.274 	 40.9148 	 129.927
| 30> H 	 -104.005 	 39.9557 	 129.46
| 31> H 	 -104.539 	 40.738 	 130.988
| 32> C 	 -103.009 	 41.7799 	 129.826
| 33> H 	 -102.202 	 41.4359 	 130.471
| 34> H 	 -103.138 	 42.7544 	 130.298
| 35> C 	 -102.443 	 41.8393 	 128.459
| 36> H 	 -102.303 	 40.8731 	 128.065
| 37> H 	 -101.466 	 42.2342 	 128.663
| 38> H 	 -102.933 	 42.4722 	 127.746
| 39> H 	 -106.813 	 42.419 	 134.858
| 40> H 	 -107.622 	 41.9398 	 126.678
| 41> *
| 42>
| 43>                          ****END OF INPUT****

CARTESIAN COORDINATES (ANGSTROEM)
---------------------------------
  S    -107.366000   41.786100  132.664000
  C    -106.510000   42.560900  133.871000
  C    -105.452000   43.334800  133.418000
  C    -105.422000   43.337200  131.995000
  C    -106.360000   42.475200  131.435000
  H    -104.696000   43.783300  131.368000
  C    -104.538000   44.086900  134.404000
  H    -105.191000   44.125000  135.260000
  H    -104.327000   45.061300  134.044000
  C    -103.335000   43.269900  134.909000
  H    -102.966000   44.038600  135.634000
  H    -103.677000   42.457500  135.512000
  C    -102.277000   42.891000  133.826000
  H    -101.544000   42.180600  134.138000
  H    -102.859000   42.435700  133.018000
  H    -101.802000   43.817400  133.420000
  S    -107.808000   42.817800  129.032000
  C    -107.205000   41.883700  127.637000
  C    -105.931000   41.246400  127.901000
  C    -105.536000   41.462100  129.262000
  C    -106.427000   42.228100  130.011000
  H    -105.398000   40.644100  127.155000
  C    -104.274000   40.914800  129.927000
  H    -104.005000   39.955700  129.460000
  H    -104.539000   40.738000  130.988000
  C    -103.009000   41.779900  129.826000
  H    -102.202000   41.435900  130.471000
  H    -103.138000   42.754400  130.298000
  C    -102.443000   41.839300  128.459000
  H    -102.303000   40.873100  128.065000
  H    -101.466000   42.234200  128.663000
  H    -102.933000   42.472200  127.746000
  H    -106.813000   42.419000  134.858000
  H    -107.622000   41.939800  126.678000

 Total Charge           Charge          ....    0
 Multiplicity           Mult            ....    1
 Number of Electrons    NEL             ....  134
 Basis Dimension        Dim             ....  322

ORBITAL ENERGIES
----------------

  NO   OCC          E(Eh)            E(eV)
   0   2.0000     -88.968323     -2420.9512
   1   2.0000     -88.967421     -2420.9266
   2   2.0000     -10.323605      -280.9196
   3   2.0000     -10.323499      -280.9167
   4   2.0000     -10.321480      -280.8618
   5   2.0000     -10.304576      -280.4018
   6   2.0000     -10.303925      -280.3841
   7   2.0000     -10.303718      -280.3784
   8   2.0000     -10.298476      -280.2358
   9   2.0000     -10.290315      -280.0137
  10   2.0000     -10.290285      -280.0129
  11   2.0000     -10.290249      -280.0119
  12   2.0000     -10.289293      -279.9859
  13   2.0000     -10.282033      -279.7883
  14   2.0000     -10.280392      -279.7437
  15   2.0000     -10.265084      -279.3271
  16   2.0000      -8.083809      -219.9716
  17   2.0000      -8.081548      -219.9101
  18   2.0000      -6.042029      -164.4120
  19   2.0000      -6.040034      -164.3577
  20   2.0000      -6.037926      -164.3003
  21   2.0000      -6.036271      -164.2553
  22   2.0000      -6.034952      -164.2194
  23   2.0000      -6.032439      -164.1510
  24   2.0000      -1.009551       -27.4713
  25   2.0000      -0.976345       -26.5677
  26   2.0000      -0.911259       -24.7966
  27   2.0000      -0.910326       -24.7712
  28   2.0000      -0.868580       -23.6353
  29   2.0000      -0.850573       -23.1453
  30   2.0000      -0.848306       -23.0836
  31   2.0000      -0.811513       -22.0824
  32   2.0000      -0.786377       -21.3984
  33   2.0000      -0.770346       -20.9622
  34   2.0000      -0.705205       -19.1896
  35   2.0000      -0.700785       -19.0693
  36   2.0000      -0.692211       -18.8360
  37   2.0000      -0.662572       -18.0295
  38   2.0000      -0.654086       -17.7986
  39   2.0000      -0.607697       -16.5363
  40   2.0000      -0.587400       -15.9840
  41   2.0000      -0.576128       -15.6772
  42   2.0000      -0.557060       -15.1584
  43   2.0000      -0.551944       -15.0192
  44   2.0000      -0.546007       -14.8576
  45   2.0000      -0.537458       -14.6250
  46   2.0000      -0.519473       -14.1356
  47   2.0000      -0.514156       -13.9909
  48   2.0000      -0.498598       -13.5675
  49   2.0000      -0.495338       -13.4788
  50   2.0000      -0.488520       -13.2933
  51   2.0000      -0.478511       -13.0209
  52   2.0000      -0.477093       -12.9824
  53   2.0000      -0.470672       -12.8076
  54   2.0000      -0.458456       -12.4752
  55   2.0000      -0.447920       -12.1885
  56   2.0000      -0.444420       -12.0933
  57   2.0000      -0.437690       -11.9102
  58   2.0000      -0.435519       -11.8511
  59   2.0000      -0.429305       -11.6820
  60   2.0000      -0.423428       -11.5221
  61   2.0000      -0.409667       -11.1476
  62   2.0000      -0.407095       -11.0776
  63   2.0000      -0.339060        -9.2263
  64   2.0000      -0.330617        -8.9965
  65   2.0000      -0.322061        -8.7637
  66   2.0000      -0.297996        -8.1089
  67   0.0000       0.034563         0.9405
  68   0.0000       0.058979         1.6049
  69   0.0000       0.114830         3.1247
  70   0.0000       0.121769         3.3135
  71   0.0000       0.124487         3.3875

MULLIKEN ATOMIC CHARGES
-----------------------
   0 S :    0.148315
   1 C :   -0.117654
   2 C :   -0.094295
   3 C :    0.047352
   4 C :   -0.196872
   5 H :   -0.002564
   6 C :    0.090546
   7 H :    0.013454
   8 H :    0.024298
   9 C :   -0.066515
  10 H :    0.032758
  11 H :    0.021994
  12 C :   -0.043584
  13 H :    0.039249
  14 H :    0.034387
  15 H :    0.035508
  16 S :    0.111722
  17 C :   -0.090719
  18 C :   -0.042001
  19 C :   -0.019202
  20 C :   -0.183267
  21 H :    0.031299
  22 C :    0.067764
  23 H :    0.015542
  24 H :    0.043156
  25 C :   -0.072201
  26 H :    0.021774
  27 H :    0.004556
  28 C :    0.009245
  29 H :    0.009443
  30 H :    0.016629
  31 H :    0.038740
  32 H :    0.025257
  33 H :    0.045887
Sum of atomic charges:   -0.0000000

LOEWDIN ATOMIC CHARGES
----------------------
   0 S :    0.457211
   1 C :   -0.213082
   2 C :   -0.066635
   3 C :   -0.052058
   4 C :   -0.215690
   5 H :    0.022346
   6 C :   -0.022995
   7 H :    0.033293
   8 H :    0.023751
   9 C :   -0.036858
  10 H :    0.028742
  11 H :    0.019291
  12 C :   -0.067607
  13 H :    0.023603
  14 H :    0.026895
  15 H :    0.031006
  16 S :    0.382807
  17 C :   -0.168412
  18 C :   -0.068716
  19 C :   -0.049397
  20 C :   -0.195853
  21 H :    0.035722
  22 C :   -0.032022
  23 H :    0.027345
  24 H :    0.035533
  25 C :   -0.044025
  26 H :    0.026210
  27 H :    0.018193
  28 C :   -0.056316
  29 H :    0.017534
  30 H :    0.028938
  31 H :    0.023373
  32 H :    0.012340
  33 H :    0.015535

  Mayer bond orders larger than 0.100000
B(  0-S ,  1-C ) :   1.1841 B(  0-S ,  4-C ) :   1.1675 B(  1-C ,  2-C ) :   1.5643
B(  1-C , 32-H ) :   0.9733 B(  2-C ,  3-C ) :   1.2682 B(  2-C ,  6-C ) :   1.0082
B(  3-C ,  4-C ) :   1.5340 B(  3-C ,  5-H ) :   1.0031 B(  4-C , 20-C ) :   1.0485
B(  6-C ,  7-H ) :   0.9347 B(  6-C ,  8-H ) :   0.9469 B(  6-C ,  9-C ) :   1.0712
B(  9-C , 10-H ) :   0.9579 B(  9-C , 11-H ) :   0.9565 B(  9-C , 12-C ) :   1.0647
B( 12-C , 13-H ) :   0.9751 B( 12-C , 14-H ) :   0.9756 B( 12-C , 15-H ) :   0.9739
B( 16-S , 17-C ) :   1.1667 B( 16-S , 20-C ) :   1.1262 B( 17-C , 18-C ) :   1.5776
B( 17-C , 20-C ) :   0.1103 B( 17-C , 33-H ) :   0.9732 B( 18-C , 19-C ) :   1.2549
B( 18-C , 21-H ) :   0.9853 B( 19-C , 20-C ) :   1.5970 B( 19-C , 22-C ) :   1.0423
B( 22-C , 23-H ) :   0.9369 B( 22-C , 24-H ) :   0.9207 B( 22-C , 25-C ) :   1.0849
B( 25-C , 26-H ) :   0.9500 B( 25-C , 27-H ) :   0.9431 B( 25-C , 28-C ) :   1.0844
B( 28-C , 29-H ) :   0.9691 B( 28-C , 30-H ) :   0.9677 B( 28-C , 31-H ) :   0.9731

Dispersion correction           -0.016318512
FINAL SINGLE POINT ENERGY     -1339.874321291008

DIPOLE MOMENT
-------------
                                X             Y             Z
Electronic contribution:    -29.22754      -0.81690      -5.78264
Nuclear contribution   :     29.86489       0.80643       5.97719
                        -----------------------------------------
Total Dipole Moment    :      0.63735      -0.01047       0.19455
                        -----------------------------------------
Magnitude (a.u.)       :      0.66646
Magnitude (Debye)      :      1.69401

Rotational constants in cm-1:     0.018913     0.010235     0.007308
Rotational constants in MHz :   566.991455   306.830951   219.084238

                             ****ORCA TERMINATED NORMALLY****
TOTAL RUN TIME: 0 days 0 hours 0 minutes 38 seconds 296 msec
