                         Program Version 4.2.1 -  RELEASE  -
|  1> ! wB97X-D3 SP def2-SVP
|  2> %pal
|  3> nprocs 16
|  4> end
|  5>
|  6> * xyz 0 1
|  7> S 	 68.5506 	 25.7835 	 74.3452
|  8> C 	 69.6537 	 24.5731 	 74.9984
|  9> C 	 70.5379 	 25.1075 	 75.9025
| 10> C 	 70.5473 	 26.5055 	 75.8361
| 11> C 	 69.6169 	 27.0661 	 74.9516
| 12> H 	 71.2944 	 27.0109 	 76.4057
| 13> C 	 71.4847 	 24.2105 	 76.6901
| 14> H 	 70.9759 	 23.217 	 76.8657
| 15> H 	 71.6255 	 24.6355 	 77.7205
| 16> C 	 72.829 	 23.9359 	 75.9923
| 17> H 	 72.4627 	 23.316 	 75.0852
| 18> H 	 73.3937 	 24.7523 	 75.7909
| 19> C 	 73.7848 	 23.0424 	 76.9551
| 20> H 	 73.3215 	 22.1598 	 77.304
| 21> H 	 74.6097 	 22.8511 	 76.3021
| 22> H 	 74.1611 	 23.6626 	 77.7703
| 23> S 	 69.9284 	 28.6441 	 72.7601
| 24> C 	 69.4001 	 30.2637 	 72.8853
| 25> C 	 68.9297 	 30.5976 	 74.1301
| 26> C 	 68.9979 	 29.5122 	 75.0477
| 27> C 	 69.5227 	 28.403 	 74.4185
| 28> H 	 68.5796 	 31.6378 	 74.3123
| 29> C 	 68.5632 	 29.661 	 76.5025
| 30> H 	 68.1581 	 28.7385 	 76.9434
| 31> H 	 67.7946 	 30.3886 	 76.5296
| 32> C 	 69.6906 	 30.0841 	 77.4653
| 33> H 	 70.2548 	 30.8608 	 77.0493
| 34> H 	 70.3835 	 29.2281 	 77.6674
| 35> C 	 69.2322 	 30.5342 	 78.8445
| 36> H 	 68.6001 	 31.4303 	 78.8505
| 37> H 	 70.0553 	 30.9064 	 79.4141
| 38> H 	 68.7751 	 29.7738 	 79.4103
| 39> H 	 69.4656 	 23.4929 	 74.8837
| 40> H 	 69.3339 	 30.9876 	 72.1028
| 41> *
| 42>
| 43>                          ****END OF INPUT****

CARTESIAN COORDINATES (ANGSTROEM)
---------------------------------
  S     68.550600   25.783500   74.345200
  C     69.653700   24.573100   74.998400
  C     70.537900   25.107500   75.902500
  C     70.547300   26.505500   75.836100
  C     69.616900   27.066100   74.951600
  H     71.294400   27.010900   76.405700
  C     71.484700   24.210500   76.690100
  H     70.975900   23.217000   76.865700
  H     71.625500   24.635500   77.720500
  C     72.829000   23.935900   75.992300
  H     72.462700   23.316000   75.085200
  H     73.393700   24.752300   75.790900
  C     73.784800   23.042400   76.955100
  H     73.321500   22.159800   77.304000
  H     74.609700   22.851100   76.302100
  H     74.161100   23.662600   77.770300
  S     69.928400   28.644100   72.760100
  C     69.400100   30.263700   72.885300
  C     68.929700   30.597600   74.130100
  C     68.997900   29.512200   75.047700
  C     69.522700   28.403000   74.418500
  H     68.579600   31.637800   74.312300
  C     68.563200   29.661000   76.502500
  H     68.158100   28.738500   76.943400
  H     67.794600   30.388600   76.529600
  C     69.690600   30.084100   77.465300
  H     70.254800   30.860800   77.049300
  H     70.383500   29.228100   77.667400
  C     69.232200   30.534200   78.844500
  H     68.600100   31.430300   78.850500
  H     70.055300   30.906400   79.414100
  H     68.775100   29.773800   79.410300
  H     69.465600   23.492900   74.883700
  H     69.333900   30.987600   72.102800

 Total Charge           Charge          ....    0
 Multiplicity           Mult            ....    1
 Number of Electrons    NEL             ....  134
 Basis Dimension        Dim             ....  322

ORBITAL ENERGIES
----------------

  NO   OCC          E(Eh)            E(eV)
   0   2.0000     -88.967386     -2420.9256
   1   2.0000     -88.962792     -2420.8006
   2   2.0000     -10.327414      -281.0232
   3   2.0000     -10.317370      -280.7499
   4   2.0000     -10.311021      -280.5771
   5   2.0000     -10.308923      -280.5200
   6   2.0000     -10.300610      -280.2938
   7   2.0000     -10.298906      -280.2475
   8   2.0000     -10.293704      -280.1059
   9   2.0000     -10.291956      -280.0584
  10   2.0000     -10.291905      -280.0570
  11   2.0000     -10.291337      -280.0415
  12   2.0000     -10.288737      -279.9708
  13   2.0000     -10.282072      -279.7894
  14   2.0000     -10.278167      -279.6831
  15   2.0000     -10.269653      -279.4515
  16   2.0000      -8.083226      -219.9558
  17   2.0000      -8.077133      -219.7900
  18   2.0000      -6.041516      -164.3980
  19   2.0000      -6.037668      -164.2933
  20   2.0000      -6.035599      -164.2370
  21   2.0000      -6.034047      -164.1948
  22   2.0000      -6.031811      -164.1339
  23   2.0000      -6.027858      -164.0263
  24   2.0000      -1.010279       -27.4911
  25   2.0000      -0.984968       -26.8023
  26   2.0000      -0.909199       -24.7406
  27   2.0000      -0.905266       -24.6335
  28   2.0000      -0.866082       -23.5673
  29   2.0000      -0.855571       -23.2813
  30   2.0000      -0.843679       -22.9577
  31   2.0000      -0.811784       -22.0898
  32   2.0000      -0.786179       -21.3930
  33   2.0000      -0.768885       -20.9224
  34   2.0000      -0.707184       -19.2434
  35   2.0000      -0.698507       -19.0073
  36   2.0000      -0.693586       -18.8734
  37   2.0000      -0.658765       -17.9259
  38   2.0000      -0.635077       -17.2813
  39   2.0000      -0.624817       -17.0021
  40   2.0000      -0.599341       -16.3089
  41   2.0000      -0.568324       -15.4649
  42   2.0000      -0.565769       -15.3954
  43   2.0000      -0.561209       -15.2713
  44   2.0000      -0.524138       -14.2625
  45   2.0000      -0.519728       -14.1425
  46   2.0000      -0.516024       -14.0417
  47   2.0000      -0.509424       -13.8621
  48   2.0000      -0.500901       -13.6302
  49   2.0000      -0.495972       -13.4961
  50   2.0000      -0.491683       -13.3794
  51   2.0000      -0.479206       -13.0399
  52   2.0000      -0.473048       -12.8723
  53   2.0000      -0.467426       -12.7193
  54   2.0000      -0.456700       -12.4274
  55   2.0000      -0.452029       -12.3003
  56   2.0000      -0.444097       -12.0845
  57   2.0000      -0.439703       -11.9649
  58   2.0000      -0.431358       -11.7378
  59   2.0000      -0.429047       -11.6750
  60   2.0000      -0.420248       -11.4355
  61   2.0000      -0.419983       -11.4283
  62   2.0000      -0.411541       -11.1986
  63   2.0000      -0.339672        -9.2430
  64   2.0000      -0.328746        -8.9456
  65   2.0000      -0.322290        -8.7700
  66   2.0000      -0.299854        -8.1594
  67   0.0000       0.035381         0.9628
  68   0.0000       0.062858         1.7105
  69   0.0000       0.108280         2.9465
  70   0.0000       0.127141         3.4597
  71   0.0000       0.133199         3.6245

MULLIKEN ATOMIC CHARGES
-----------------------
   0 S :    0.112873
   1 C :   -0.148810
   2 C :   -0.066003
   3 C :    0.064720
   4 C :   -0.177099
   5 H :   -0.005625
   6 C :    0.015578
   7 H :    0.030908
   8 H :    0.027505
   9 C :   -0.070907
  10 H :    0.045315
  11 H :    0.017922
  12 C :   -0.035505
  13 H :    0.029549
  14 H :    0.032846
  15 H :    0.034336
  16 S :    0.147450
  17 C :   -0.078102
  18 C :   -0.064987
  19 C :   -0.002968
  20 C :   -0.192437
  21 H :    0.028254
  22 C :    0.118460
  23 H :    0.027401
  24 H :    0.004285
  25 C :   -0.072546
  26 H :    0.012741
  27 H :    0.033137
  28 C :   -0.027285
  29 H :    0.020828
  30 H :    0.019865
  31 H :    0.024532
  32 H :    0.054035
  33 H :    0.039734
Sum of atomic charges:   -0.0000000

LOEWDIN ATOMIC CHARGES
----------------------
   0 S :    0.389216
   1 C :   -0.192011
   2 C :   -0.073914
   3 C :   -0.053152
   4 C :   -0.187454
   5 H :    0.025344
   6 C :   -0.040482
   7 H :    0.034312
   8 H :    0.028729
   9 C :   -0.025277
  10 H :    0.036726
  11 H :    0.007584
  12 C :   -0.056259
  13 H :    0.016802
  14 H :    0.024754
  15 H :    0.025834
  16 S :    0.444420
  17 C :   -0.196780
  18 C :   -0.077544
  19 C :   -0.046508
  20 C :   -0.221292
  21 H :    0.037252
  22 C :   -0.023527
  23 H :    0.034169
  24 H :    0.023008
  25 C :   -0.034197
  26 H :    0.014472
  27 H :    0.029007
  28 C :   -0.063711
  29 H :    0.024090
  30 H :    0.025909
  31 H :    0.018010
  32 H :    0.027887
  33 H :    0.024583

  Mayer bond orders larger than 0.100000
B(  0-S ,  1-C ) :   1.1455 B(  0-S ,  4-C ) :   1.1527 B(  1-C ,  2-C ) :   1.5944
B(  1-C ,  4-C ) :   0.1030 B(  1-C , 32-H ) :   0.9623 B(  2-C ,  3-C ) :   1.2713
B(  2-C ,  6-C ) :   1.0256 B(  3-C ,  4-C ) :   1.5513 B(  3-C ,  5-H ) :   0.9988
B(  4-C , 20-C ) :   1.0337 B(  6-C ,  7-H ) :   0.9456 B(  6-C ,  8-H ) :   0.9397
B(  6-C ,  9-C ) :   1.0560 B(  9-C , 10-H ) :   0.9571 B(  9-C , 11-H ) :   0.9627
B(  9-C , 12-C ) :   1.0707 B( 12-C , 13-H ) :   0.9794 B( 12-C , 14-H ) :   0.9782
B( 12-C , 15-H ) :   0.9772 B( 16-S , 17-C ) :   1.1639 B( 16-S , 20-C ) :   1.1564
B( 17-C , 18-C ) :   1.6221 B( 17-C , 33-H ) :   0.9657 B( 18-C , 19-C ) :   1.2457
B( 18-C , 21-H ) :   0.9828 B( 19-C , 20-C ) :   1.5940 B( 19-C , 22-C ) :   1.0527
B( 22-C , 23-H ) :   0.9240 B( 22-C , 24-H ) :   0.9324 B( 22-C , 25-C ) :   1.0690
B( 25-C , 26-H ) :   0.9563 B( 25-C , 27-H ) :   0.9503 B( 25-C , 28-C ) :   1.0965
B( 28-C , 29-H ) :   0.9712 B( 28-C , 30-H ) :   0.9693 B( 28-C , 31-H ) :   0.9747

Dispersion correction           -0.013820258
FINAL SINGLE POINT ENERGY     -1339.870732776749

DIPOLE MOMENT
-------------
                                X             Y             Z
Electronic contribution:    -12.32003       2.83619     -23.75067
Nuclear contribution   :     12.59750      -2.71585      24.21623
                        -----------------------------------------
Total Dipole Moment    :      0.27747       0.12034       0.46556
                        -----------------------------------------
Magnitude (a.u.)       :      0.55517
Magnitude (Debye)      :      1.41114

Rotational constants in cm-1:     0.017733     0.008012     0.006540
Rotational constants in MHz :   531.625875   240.188893   196.050857

                             ****ORCA TERMINATED NORMALLY****
TOTAL RUN TIME: 0 days 0 hours 0 minutes 29 seconds 94 msec
