                         Program Version 4.2.1 -  RELEASE  -
|  1> ! wB97X-D3 SP def2-SVP
|  2> %pal
|  3> nprocs 16
|  4> end
|  5>
|  6> * xyz 0 1
|  7> S 	 -5.04881 	 -6.84234 	 77.6844
|  8> C 	 -4.27929 	 -7.91202 	 78.8079
|  9> C 	 -5.22773 	 -8.55574 	 79.5451
| 10> C 	 -6.51012 	 -7.95939 	 79.3739
| 11> C 	 -6.69496 	 -7.00782 	 78.389
| 12> H 	 -7.40642 	 -8.26017 	 79.9104
| 13> C 	 -5.0864 	 -9.61711 	 80.6195
| 14> H 	 -4.96996 	 -9.10934 	 81.5898
| 15> H 	 -4.16708 	 -10.157 	 80.4774
| 16> C 	 -6.22864 	 -10.5971 	 80.8423
| 17> H 	 -7.0937 	 -10.1742 	 81.3057
| 18> H 	 -6.53773 	 -10.9878 	 79.8673
| 19> C 	 -5.76884 	 -11.7451 	 81.7707
| 20> H 	 -6.47436 	 -12.5637 	 81.7818
| 21> H 	 -4.84488 	 -12.2407 	 81.7194
| 22> H 	 -5.93004 	 -11.4426 	 82.7904
| 23> S 	 -7.84169 	 -4.47122 	 78.3742
| 24> C 	 -9.56117 	 -4.37207 	 78.077
| 25> C 	 -10.1114 	 -5.6231 	 77.8339
| 26> C 	 -9.16373 	 -6.72093 	 77.9597
| 27> C 	 -7.92863 	 -6.21564 	 78.2564
| 28> H 	 -11.1682 	 -5.77666 	 77.6532
| 29> C 	 -9.52545 	 -8.14946 	 77.7043
| 30> H 	 -8.75493 	 -8.76489 	 78.0362
| 31> H 	 -9.62562 	 -8.1946 	 76.6667
| 32> C 	 -10.8115 	 -8.51207 	 78.4883
| 33> H 	 -11.6199 	 -7.88147 	 78.2161
| 34> H 	 -10.7097 	 -8.18539 	 79.4726
| 35> C 	 -11.3854 	 -9.94371 	 78.4116
| 36> H 	 -10.8481 	 -10.6619 	 79.0264
| 37> H 	 -11.3683 	 -10.2929 	 77.3841
| 38> H 	 -12.449 	 -10.0087 	 78.6968
| 39> H 	 -3.20618 	 -7.98656 	 78.8507
| 40> H 	 -10.0742 	 -3.40139 	 78.0569
| 41> *
| 42>
| 43>                          ****END OF INPUT****

CARTESIAN COORDINATES (ANGSTROEM)
---------------------------------
  S     -5.048810   -6.842340   77.684400
  C     -4.279290   -7.912020   78.807900
  C     -5.227730   -8.555740   79.545100
  C     -6.510120   -7.959390   79.373900
  C     -6.694960   -7.007820   78.389000
  H     -7.406420   -8.260170   79.910400
  C     -5.086400   -9.617110   80.619500
  H     -4.969960   -9.109340   81.589800
  H     -4.167080  -10.157000   80.477400
  C     -6.228640  -10.597100   80.842300
  H     -7.093700  -10.174200   81.305700
  H     -6.537730  -10.987800   79.867300
  C     -5.768840  -11.745100   81.770700
  H     -6.474360  -12.563700   81.781800
  H     -4.844880  -12.240700   81.719400
  H     -5.930040  -11.442600   82.790400
  S     -7.841690   -4.471220   78.374200
  C     -9.561170   -4.372070   78.077000
  C    -10.111400   -5.623100   77.833900
  C     -9.163730   -6.720930   77.959700
  C     -7.928630   -6.215640   78.256400
  H    -11.168200   -5.776660   77.653200
  C     -9.525450   -8.149460   77.704300
  H     -8.754930   -8.764890   78.036200
  H     -9.625620   -8.194600   76.666700
  C    -10.811500   -8.512070   78.488300
  H    -11.619900   -7.881470   78.216100
  H    -10.709700   -8.185390   79.472600
  C    -11.385400   -9.943710   78.411600
  H    -10.848100  -10.661900   79.026400
  H    -11.368300  -10.292900   77.384100
  H    -12.449000  -10.008700   78.696800
  H     -3.206180   -7.986560   78.850700
  H    -10.074200   -3.401390   78.056900

 Total Charge           Charge          ....    0
 Multiplicity           Mult            ....    1
 Number of Electrons    NEL             ....  134
 Basis Dimension        Dim             ....  322

ORBITAL ENERGIES
----------------

  NO   OCC          E(Eh)            E(eV)
   0   2.0000     -88.966117     -2420.8911
   1   2.0000     -88.960535     -2420.7392
   2   2.0000     -10.328377      -281.0494
   3   2.0000     -10.326229      -280.9910
   4   2.0000     -10.322223      -280.8820
   5   2.0000     -10.313605      -280.6474
   6   2.0000     -10.302768      -280.3526
   7   2.0000     -10.297857      -280.2189
   8   2.0000     -10.297625      -280.2126
   9   2.0000     -10.289604      -279.9944
  10   2.0000     -10.289469      -279.9907
  11   2.0000     -10.287399      -279.9344
  12   2.0000     -10.284725      -279.8616
  13   2.0000     -10.280913      -279.7579
  14   2.0000     -10.280747      -279.7534
  15   2.0000     -10.272974      -279.5418
  16   2.0000      -8.081072      -219.8971
  17   2.0000      -8.074840      -219.7276
  18   2.0000      -6.039563      -164.3449
  19   2.0000      -6.035687      -164.2394
  20   2.0000      -6.033530      -164.1807
  21   2.0000      -6.031693      -164.1307
  22   2.0000      -6.029284      -164.0652
  23   2.0000      -6.025531      -163.9630
  24   2.0000      -1.005125       -27.3508
  25   2.0000      -0.985400       -26.8141
  26   2.0000      -0.914499       -24.8848
  27   2.0000      -0.911943       -24.8152
  28   2.0000      -0.872037       -23.7293
  29   2.0000      -0.852051       -23.1855
  30   2.0000      -0.843660       -22.9571
  31   2.0000      -0.813402       -22.1338
  32   2.0000      -0.786592       -21.4043
  33   2.0000      -0.776473       -21.1289
  34   2.0000      -0.715977       -19.4827
  35   2.0000      -0.709660       -19.3108
  36   2.0000      -0.694997       -18.9118
  37   2.0000      -0.659401       -17.9432
  38   2.0000      -0.642144       -17.4736
  39   2.0000      -0.619452       -16.8561
  40   2.0000      -0.600562       -16.3421
  41   2.0000      -0.574124       -15.6227
  42   2.0000      -0.571018       -15.5382
  43   2.0000      -0.563727       -15.3398
  44   2.0000      -0.528325       -14.3765
  45   2.0000      -0.526485       -14.3264
  46   2.0000      -0.515312       -14.0223
  47   2.0000      -0.509571       -13.8661
  48   2.0000      -0.505595       -13.7579
  49   2.0000      -0.497971       -13.5505
  50   2.0000      -0.493031       -13.4160
  51   2.0000      -0.484485       -13.1835
  52   2.0000      -0.474400       -12.9091
  53   2.0000      -0.469447       -12.7743
  54   2.0000      -0.461979       -12.5711
  55   2.0000      -0.452741       -12.3197
  56   2.0000      -0.441571       -12.0158
  57   2.0000      -0.440264       -11.9802
  58   2.0000      -0.436832       -11.8868
  59   2.0000      -0.429425       -11.6853
  60   2.0000      -0.420563       -11.4441
  61   2.0000      -0.418093       -11.3769
  62   2.0000      -0.408557       -11.1174
  63   2.0000      -0.343926        -9.3587
  64   2.0000      -0.332043        -9.0354
  65   2.0000      -0.322362        -8.7719
  66   2.0000      -0.297189        -8.0869
  67   0.0000       0.032324         0.8796
  68   0.0000       0.072633         1.9764
  69   0.0000       0.119101         3.2409
  70   0.0000       0.122934         3.3452
  71   0.0000       0.125069         3.4033

MULLIKEN ATOMIC CHARGES
-----------------------
   0 S :    0.090726
   1 C :   -0.141194
   2 C :   -0.033508
   3 C :   -0.007334
   4 C :   -0.148726
   5 H :    0.013105
   6 C :    0.073338
   7 H :    0.038716
   8 H :    0.013418
   9 C :   -0.075362
  10 H :    0.032193
  11 H :    0.032340
  12 C :   -0.029876
  13 H :    0.012578
  14 H :    0.027962
  15 H :    0.016050
  16 S :    0.120656
  17 C :   -0.103519
  18 C :   -0.029902
  19 C :   -0.097011
  20 C :   -0.172521
  21 H :    0.021085
  22 C :    0.214164
  23 H :    0.002667
  24 H :    0.026157
  25 C :   -0.096646
  26 H :    0.009377
  27 H :    0.010086
  28 C :   -0.030225
  29 H :    0.031689
  30 H :    0.024964
  31 H :    0.033898
  32 H :    0.051362
  33 H :    0.069294
Sum of atomic charges:   -0.0000000

LOEWDIN ATOMIC CHARGES
----------------------
   0 S :    0.385134
   1 C :   -0.190392
   2 C :   -0.073372
   3 C :   -0.063656
   4 C :   -0.188469
   5 H :    0.025813
   6 C :   -0.033002
   7 H :    0.037968
   8 H :    0.026256
   9 C :   -0.033811
  10 H :    0.022958
  11 H :    0.022669
  12 C :   -0.066518
  13 H :    0.027427
  14 H :    0.019319
  15 H :    0.025906
  16 S :    0.406966
  17 C :   -0.183285
  18 C :   -0.070217
  19 C :   -0.046112
  20 C :   -0.198356
  21 H :    0.028746
  22 C :   -0.010163
  23 H :    0.022217
  24 H :    0.031028
  25 C :   -0.038722
  26 H :    0.018682
  27 H :    0.018000
  28 C :   -0.064682
  29 H :    0.022134
  30 H :    0.025003
  31 H :    0.031038
  32 H :    0.029721
  33 H :    0.033773

  Mayer bond orders larger than 0.100000
B(  0-S ,  1-C ) :   1.1513 B(  0-S ,  4-C ) :   1.1226 B(  1-C ,  2-C ) :   1.5824
B(  1-C , 32-H ) :   0.9765 B(  2-C ,  3-C ) :   1.2510 B(  2-C ,  6-C ) :   1.0243
B(  3-C ,  4-C ) :   1.5800 B(  3-C ,  5-H ) :   0.9820 B(  4-C , 20-C ) :   1.0451
B(  6-C ,  7-H ) :   0.9340 B(  6-C ,  8-H ) :   0.9454 B(  6-C ,  9-C ) :   1.0688
B(  9-C , 10-H ) :   0.9439 B(  9-C , 11-H ) :   0.9651 B(  9-C , 12-C ) :   1.0824
B( 12-C , 13-H ) :   0.9682 B( 12-C , 14-H ) :   0.9799 B( 12-C , 15-H ) :   0.9727
B( 16-S , 17-C ) :   1.1509 B( 16-S , 20-C ) :   1.1324 B( 17-C , 18-C ) :   1.6167
B( 17-C , 33-H ) :   0.9671 B( 18-C , 19-C ) :   1.2168 B( 18-C , 21-H ) :   0.9882
B( 19-C , 20-C ) :   1.6260 B( 19-C , 22-C ) :   1.0422 B( 22-C , 23-H ) :   0.9173
B( 22-C , 24-H ) :   0.9174 B( 22-C , 25-C ) :   1.0546 B( 25-C , 26-H ) :   0.9517
B( 25-C , 27-H ) :   0.9571 B( 25-C , 28-C ) :   1.0848 B( 28-C , 29-H ) :   0.9769
B( 28-C , 30-H ) :   0.9725 B( 28-C , 31-H ) :   0.9748

Dispersion correction           -0.013861518
FINAL SINGLE POINT ENERGY     -1339.868020233528

DIPOLE MOMENT
-------------
                                X             Y             Z
Electronic contribution:     12.16425      28.18145     -12.07300
Nuclear contribution   :    -12.61727     -28.70915      12.44564
                        -----------------------------------------
Total Dipole Moment    :     -0.45302      -0.52770       0.37263
                        -----------------------------------------
Magnitude (a.u.)       :      0.78902
Magnitude (Debye)      :      2.00552

Rotational constants in cm-1:     0.015401     0.009683     0.006544
Rotational constants in MHz :   461.714928   290.295184   196.175574

                             ****ORCA TERMINATED NORMALLY****
TOTAL RUN TIME: 0 days 0 hours 0 minutes 33 seconds 710 msec
