                         Program Version 4.2.1 -  RELEASE  -
|  1> ! wB97X-D3 SP def2-SVP
|  2> %pal
|  3> nprocs 16
|  4> end
|  5>
|  6> * xyz 0 1
|  7> S 	 -24.0943 	 60.8018 	 105.62
|  8> C 	 -25.792 	 60.7042 	 105.38
|  9> C 	 -26.4494 	 60.0031 	 106.361
| 10> C 	 -25.5265 	 59.4579 	 107.318
| 11> C 	 -24.2231 	 59.8786 	 107.102
| 12> H 	 -25.7094 	 58.8646 	 108.184
| 13> C 	 -27.9365 	 59.6666 	 106.347
| 14> H 	 -28.0954 	 58.8842 	 107.048
| 15> H 	 -28.1687 	 59.216 	 105.373
| 16> C 	 -28.8906 	 60.8731 	 106.519
| 17> H 	 -29.8932 	 60.5038 	 106.238
| 18> H 	 -28.8641 	 61.1336 	 107.545
| 19> C 	 -28.6042 	 62.1113 	 105.571
| 20> H 	 -28.5372 	 61.7974 	 104.601
| 21> H 	 -29.3554 	 62.891 	 105.801
| 22> H 	 -27.5945 	 62.622 	 105.817
| 23> S 	 -22.48 	 60.7243 	 109
| 24> C 	 -21.4329 	 59.6149 	 109.848
| 25> C 	 -21.6374 	 58.2962 	 109.342
| 26> C 	 -22.6064 	 58.1831 	 108.224
| 27> C 	 -23.1611 	 59.4392 	 107.973
| 28> H 	 -21.0533 	 57.4337 	 109.738
| 29> C 	 -22.8239 	 56.8967 	 107.454
| 30> H 	 -22.2557 	 56.9767 	 106.505
| 31> H 	 -23.8666 	 56.8903 	 107.106
| 32> C 	 -22.4367 	 55.5369 	 108.139
| 33> H 	 -21.4615 	 55.5228 	 108.613
| 34> H 	 -22.3939 	 54.7339 	 107.398
| 35> C 	 -23.5639 	 55.1461 	 109.173
| 36> H 	 -23.3205 	 54.1202 	 109.523
| 37> H 	 -24.5688 	 55.0455 	 108.664
| 38> H 	 -23.703 	 55.8969 	 109.963
| 39> H 	 -26.2254 	 61.2409 	 104.499
| 40> H 	 -20.7256 	 59.8062 	 110.64
| 41> *
| 42>
| 43>                          ****END OF INPUT****

CARTESIAN COORDINATES (ANGSTROEM)
---------------------------------
  S    -24.094300   60.801800  105.620000
  C    -25.792000   60.704200  105.380000
  C    -26.449400   60.003100  106.361000
  C    -25.526500   59.457900  107.318000
  C    -24.223100   59.878600  107.102000
  H    -25.709400   58.864600  108.184000
  C    -27.936500   59.666600  106.347000
  H    -28.095400   58.884200  107.048000
  H    -28.168700   59.216000  105.373000
  C    -28.890600   60.873100  106.519000
  H    -29.893200   60.503800  106.238000
  H    -28.864100   61.133600  107.545000
  C    -28.604200   62.111300  105.571000
  H    -28.537200   61.797400  104.601000
  H    -29.355400   62.891000  105.801000
  H    -27.594500   62.622000  105.817000
  S    -22.480000   60.724300  109.000000
  C    -21.432900   59.614900  109.848000
  C    -21.637400   58.296200  109.342000
  C    -22.606400   58.183100  108.224000
  C    -23.161100   59.439200  107.973000
  H    -21.053300   57.433700  109.738000
  C    -22.823900   56.896700  107.454000
  H    -22.255700   56.976700  106.505000
  H    -23.866600   56.890300  107.106000
  C    -22.436700   55.536900  108.139000
  H    -21.461500   55.522800  108.613000
  H    -22.393900   54.733900  107.398000
  C    -23.563900   55.146100  109.173000
  H    -23.320500   54.120200  109.523000
  H    -24.568800   55.045500  108.664000
  H    -23.703000   55.896900  109.963000
  H    -26.225400   61.240900  104.499000
  H    -20.725600   59.806200  110.640000

 Total Charge           Charge          ....    0
 Multiplicity           Mult            ....    1
 Number of Electrons    NEL             ....  134
 Basis Dimension        Dim             ....  322

ORBITAL ENERGIES
----------------

  NO   OCC          E(Eh)            E(eV)
   0   2.0000     -88.966710     -2420.9072
   1   2.0000     -88.963559     -2420.8215
   2   2.0000     -10.325384      -280.9680
   3   2.0000     -10.322460      -280.8884
   4   2.0000     -10.321045      -280.8499
   5   2.0000     -10.313665      -280.6491
   6   2.0000     -10.311669      -280.5948
   7   2.0000     -10.302213      -280.3375
   8   2.0000     -10.300029      -280.2780
   9   2.0000     -10.298039      -280.2239
  10   2.0000     -10.295786      -280.1626
  11   2.0000     -10.291905      -280.0570
  12   2.0000     -10.289969      -280.0043
  13   2.0000     -10.288983      -279.9775
  14   2.0000     -10.286277      -279.9038
  15   2.0000     -10.282768      -279.8083
  16   2.0000      -8.081991      -219.9222
  17   2.0000      -8.077759      -219.8070
  18   2.0000      -6.040349      -164.3662
  19   2.0000      -6.036402      -164.2588
  20   2.0000      -6.036330      -164.2569
  21   2.0000      -6.032904      -164.1637
  22   2.0000      -6.032233      -164.1454
  23   2.0000      -6.028595      -164.0464
  24   2.0000      -1.003956       -27.3190
  25   2.0000      -0.976026       -26.5590
  26   2.0000      -0.906569       -24.6690
  27   2.0000      -0.901134       -24.5211
  28   2.0000      -0.866518       -23.5792
  29   2.0000      -0.846953       -23.0468
  30   2.0000      -0.839670       -22.8486
  31   2.0000      -0.804032       -21.8788
  32   2.0000      -0.783377       -21.3168
  33   2.0000      -0.770843       -20.9757
  34   2.0000      -0.707225       -19.2446
  35   2.0000      -0.699196       -19.0261
  36   2.0000      -0.692120       -18.8335
  37   2.0000      -0.653607       -17.7855
  38   2.0000      -0.645831       -17.5739
  39   2.0000      -0.610383       -16.6094
  40   2.0000      -0.592735       -16.1291
  41   2.0000      -0.564138       -15.3510
  42   2.0000      -0.555857       -15.1256
  43   2.0000      -0.545665       -14.8483
  44   2.0000      -0.532445       -14.4886
  45   2.0000      -0.531585       -14.4652
  46   2.0000      -0.520207       -14.1556
  47   2.0000      -0.513868       -13.9831
  48   2.0000      -0.499547       -13.5934
  49   2.0000      -0.492281       -13.3956
  50   2.0000      -0.488334       -13.2882
  51   2.0000      -0.477275       -12.9873
  52   2.0000      -0.470257       -12.7963
  53   2.0000      -0.458723       -12.4825
  54   2.0000      -0.456723       -12.4281
  55   2.0000      -0.448040       -12.1918
  56   2.0000      -0.443886       -12.0788
  57   2.0000      -0.437855       -11.9146
  58   2.0000      -0.435652       -11.8547
  59   2.0000      -0.427277       -11.6268
  60   2.0000      -0.419283       -11.4093
  61   2.0000      -0.417276       -11.3547
  62   2.0000      -0.413353       -11.2479
  63   2.0000      -0.336338        -9.1522
  64   2.0000      -0.325669        -8.8619
  65   2.0000      -0.323165        -8.7938
  66   2.0000      -0.299238        -8.1427
  67   0.0000       0.040214         1.0943
  68   0.0000       0.059391         1.6161
  69   0.0000       0.116994         3.1836
  70   0.0000       0.122725         3.3395
  71   0.0000       0.124500         3.3878

MULLIKEN ATOMIC CHARGES
-----------------------
   0 S :    0.130297
   1 C :   -0.165197
   2 C :   -0.065726
   3 C :    0.040808
   4 C :   -0.174567
   5 H :    0.007881
   6 C :    0.077307
   7 H :    0.010473
   8 H :    0.030638
   9 C :   -0.059780
  10 H :    0.031992
  11 H :    0.029159
  12 C :   -0.078265
  13 H :    0.020795
  14 H :    0.048884
  15 H :    0.054964
  16 S :    0.110284
  17 C :   -0.080654
  18 C :   -0.078764
  19 C :   -0.018326
  20 C :   -0.201802
  21 H :    0.033359
  22 C :    0.061478
  23 H :    0.049634
  24 H :    0.025811
  25 C :   -0.072536
  26 H :    0.035945
  27 H :    0.030662
  28 C :   -0.083352
  29 H :    0.039636
  30 H :    0.032520
  31 H :    0.049170
  32 H :    0.069144
  33 H :    0.058128
Sum of atomic charges:    0.0000000

LOEWDIN ATOMIC CHARGES
----------------------
   0 S :    0.421877
   1 C :   -0.208641
   2 C :   -0.067699
   3 C :   -0.049882
   4 C :   -0.213484
   5 H :    0.029611
   6 C :   -0.030952
   7 H :    0.024610
   8 H :    0.032058
   9 C :   -0.029746
  10 H :    0.026226
  11 H :    0.018354
  12 C :   -0.065984
  13 H :    0.006263
  14 H :    0.033129
  15 H :    0.036564
  16 S :    0.400427
  17 C :   -0.194986
  18 C :   -0.079762
  19 C :   -0.051766
  20 C :   -0.195216
  21 H :    0.032111
  22 C :   -0.036397
  23 H :    0.041820
  24 H :    0.034259
  25 C :   -0.037949
  26 H :    0.021672
  27 H :    0.027499
  28 C :   -0.071835
  29 H :    0.026930
  30 H :    0.028266
  31 H :    0.025897
  32 H :    0.035020
  33 H :    0.031709

  Mayer bond orders larger than 0.100000
B(  0-S ,  1-C ) :   1.1557 B(  0-S ,  4-C ) :   1.1506 B(  1-C ,  2-C ) :   1.5955
B(  1-C , 32-H ) :   0.9596 B(  2-C ,  3-C ) :   1.2435 B(  2-C ,  6-C ) :   1.0097
B(  3-C ,  4-C ) :   1.5734 B(  3-C ,  5-H ) :   0.9994 B(  4-C , 20-C ) :   1.0336
B(  6-C ,  7-H ) :   0.9430 B(  6-C ,  8-H ) :   0.9443 B(  6-C ,  9-C ) :   1.0669
B(  9-C , 10-H ) :   0.9573 B(  9-C , 11-H ) :   0.9593 B(  9-C , 12-C ) :   1.0798
B( 12-C , 13-H ) :   0.9757 B( 12-C , 14-H ) :   0.9725 B( 12-C , 15-H ) :   0.9672
B( 16-S , 17-C ) :   1.1499 B( 16-S , 20-C ) :   1.1424 B( 17-C , 18-C ) :   1.6152
B( 17-C , 20-C ) :   0.1001 B( 17-C , 33-H ) :   0.9683 B( 18-C , 19-C ) :   1.2203
B( 18-C , 21-H ) :   0.9741 B( 19-C , 20-C ) :   1.6068 B( 19-C , 22-C ) :   1.0378
B( 22-C , 23-H ) :   0.9293 B( 22-C , 24-H ) :   0.9317 B( 22-C , 25-C ) :   1.0709
B( 25-C , 26-H ) :   0.9553 B( 25-C , 27-H ) :   0.9549 B( 25-C , 28-C ) :   1.0679
B( 28-C , 29-H ) :   0.9765 B( 28-C , 30-H ) :   0.9753 B( 28-C , 31-H ) :   0.9791

Dispersion correction           -0.014432264
FINAL SINGLE POINT ENERGY     -1339.878800542664

DIPOLE MOMENT
-------------
                                X             Y             Z
Electronic contribution:     16.15923      14.34443       0.42232
Nuclear contribution   :    -16.48955     -14.87361      -0.48730
                        -----------------------------------------
Total Dipole Moment    :     -0.33032      -0.52918      -0.06498
                        -----------------------------------------
Magnitude (a.u.)       :      0.62719
Magnitude (Debye)      :      1.59419

Rotational constants in cm-1:     0.021220     0.007659     0.006509
Rotational constants in MHz :   636.148862   229.615298   195.145588

                             ****ORCA TERMINATED NORMALLY****
TOTAL RUN TIME: 0 days 0 hours 0 minutes 29 seconds 968 msec
