                         Program Version 4.2.1 -  RELEASE  -
|  1> ! wB97X-D3 SP def2-SVP
|  2> %pal
|  3> nprocs 16
|  4> end
|  5>
|  6> * xyz 0 1
|  7> S 	 -9.38958 	 43.1519 	 36.3535
|  8> C 	 -9.50295 	 41.6837 	 35.2981
|  9> C 	 -8.30239 	 41.0017 	 35.2605
| 10> C 	 -7.28838 	 41.7053 	 35.9595
| 11> C 	 -7.66489 	 42.8267 	 36.6253
| 12> H 	 -6.28558 	 41.3102 	 36.0463
| 13> C 	 -7.98871 	 39.7955 	 34.4885
| 14> H 	 -7.86832 	 40.055 	 33.4645
| 15> H 	 -8.9116 	 39.1787 	 34.5744
| 16> C 	 -6.84578 	 38.9325 	 34.9742
| 17> H 	 -5.89953 	 39.3406 	 34.548
| 18> H 	 -6.78218 	 38.7764 	 36.0589
| 19> C 	 -6.87453 	 37.4689 	 34.4703
| 20> H 	 -7.64301 	 36.9346 	 35.1339
| 21> H 	 -7.29157 	 37.3119 	 33.464
| 22> H 	 -5.90666 	 36.9734 	 34.5766
| 23> S 	 -7.60114 	 45.2848 	 37.7663
| 24> C 	 -6.14558 	 45.8513 	 38.6307
| 25> C 	 -5.2645 	 44.8018 	 38.7533
| 26> C 	 -5.58233 	 43.6489 	 37.9491
| 27> C 	 -6.85433 	 43.7178 	 37.4479
| 28> H 	 -4.3583 	 44.9706 	 39.2894
| 29> C 	 -4.61351 	 42.4566 	 38.0139
| 30> H 	 -5.11907 	 41.5124 	 38.1868
| 31> H 	 -4.07776 	 42.5439 	 38.9611
| 32> C 	 -3.57474 	 42.4754 	 36.861
| 33> H 	 -2.97408 	 43.4463 	 36.8152
| 34> H 	 -4.04909 	 42.4775 	 35.8824
| 35> C 	 -2.55901 	 41.3003 	 36.9464
| 36> H 	 -2.08422 	 41.2835 	 37.9102
| 37> H 	 -1.7399 	 41.2389 	 36.2832
| 38> H 	 -3.07965 	 40.3484 	 36.9528
| 39> H 	 -10.4583 	 41.3988 	 34.783
| 40> H 	 -6.13801 	 46.7868 	 39.1811
| 41> *
| 42>
| 43>                          ****END OF INPUT****

CARTESIAN COORDINATES (ANGSTROEM)
---------------------------------
  S     -9.389580   43.151900   36.353500
  C     -9.502950   41.683700   35.298100
  C     -8.302390   41.001700   35.260500
  C     -7.288380   41.705300   35.959500
  C     -7.664890   42.826700   36.625300
  H     -6.285580   41.310200   36.046300
  C     -7.988710   39.795500   34.488500
  H     -7.868320   40.055000   33.464500
  H     -8.911600   39.178700   34.574400
  C     -6.845780   38.932500   34.974200
  H     -5.899530   39.340600   34.548000
  H     -6.782180   38.776400   36.058900
  C     -6.874530   37.468900   34.470300
  H     -7.643010   36.934600   35.133900
  H     -7.291570   37.311900   33.464000
  H     -5.906660   36.973400   34.576600
  S     -7.601140   45.284800   37.766300
  C     -6.145580   45.851300   38.630700
  C     -5.264500   44.801800   38.753300
  C     -5.582330   43.648900   37.949100
  C     -6.854330   43.717800   37.447900
  H     -4.358300   44.970600   39.289400
  C     -4.613510   42.456600   38.013900
  H     -5.119070   41.512400   38.186800
  H     -4.077760   42.543900   38.961100
  C     -3.574740   42.475400   36.861000
  H     -2.974080   43.446300   36.815200
  H     -4.049090   42.477500   35.882400
  C     -2.559010   41.300300   36.946400
  H     -2.084220   41.283500   37.910200
  H     -1.739900   41.238900   36.283200
  H     -3.079650   40.348400   36.952800
  H    -10.458300   41.398800   34.783000
  H     -6.138010   46.786800   39.181100

 Total Charge           Charge          ....    0
 Multiplicity           Mult            ....    1
 Number of Electrons    NEL             ....  134
 Basis Dimension        Dim             ....  322

ORBITAL ENERGIES
----------------

  NO   OCC          E(Eh)            E(eV)
   0   2.0000     -88.964778     -2420.8547
   1   2.0000     -88.962142     -2420.7829
   2   2.0000     -10.330443      -281.1056
   3   2.0000     -10.329978      -281.0930
   4   2.0000     -10.320631      -280.8387
   5   2.0000     -10.319587      -280.8102
   6   2.0000     -10.305597      -280.4295
   7   2.0000     -10.299401      -280.2610
   8   2.0000     -10.298343      -280.2322
   9   2.0000     -10.297518      -280.2097
  10   2.0000     -10.294791      -280.1355
  11   2.0000     -10.293522      -280.1010
  12   2.0000     -10.290582      -280.0210
  13   2.0000     -10.287575      -279.9392
  14   2.0000     -10.286830      -279.9189
  15   2.0000     -10.274898      -279.5942
  16   2.0000      -8.078227      -219.8197
  17   2.0000      -8.076575      -219.7748
  18   2.0000      -6.036979      -164.2745
  19   2.0000      -6.035240      -164.2272
  20   2.0000      -6.033049      -164.1676
  21   2.0000      -6.031210      -164.1176
  22   2.0000      -6.028672      -164.0485
  23   2.0000      -6.027111      -164.0060
  24   2.0000      -1.004693       -27.3391
  25   2.0000      -0.980487       -26.6804
  26   2.0000      -0.918818       -25.0023
  27   2.0000      -0.904632       -24.6163
  28   2.0000      -0.870707       -23.6931
  29   2.0000      -0.851217       -23.1628
  30   2.0000      -0.842031       -22.9128
  31   2.0000      -0.817165       -22.2362
  32   2.0000      -0.782756       -21.2999
  33   2.0000      -0.774573       -21.0772
  34   2.0000      -0.712747       -19.3948
  35   2.0000      -0.703792       -19.1512
  36   2.0000      -0.689390       -18.7593
  37   2.0000      -0.666124       -18.1262
  38   2.0000      -0.637399       -17.3445
  39   2.0000      -0.622786       -16.9469
  40   2.0000      -0.598073       -16.2744
  41   2.0000      -0.581914       -15.8347
  42   2.0000      -0.561121       -15.2689
  43   2.0000      -0.554381       -15.0855
  44   2.0000      -0.531093       -14.4518
  45   2.0000      -0.527608       -14.3569
  46   2.0000      -0.519864       -14.1462
  47   2.0000      -0.510748       -13.8982
  48   2.0000      -0.505628       -13.7588
  49   2.0000      -0.495575       -13.4853
  50   2.0000      -0.490618       -13.3504
  51   2.0000      -0.489192       -13.3116
  52   2.0000      -0.466371       -12.6906
  53   2.0000      -0.464179       -12.6310
  54   2.0000      -0.457585       -12.4515
  55   2.0000      -0.447746       -12.1838
  56   2.0000      -0.445508       -12.1229
  57   2.0000      -0.443129       -12.0581
  58   2.0000      -0.436799       -11.8859
  59   2.0000      -0.426182       -11.5970
  60   2.0000      -0.415527       -11.3071
  61   2.0000      -0.412608       -11.2276
  62   2.0000      -0.410644       -11.1742
  63   2.0000      -0.360836        -9.8188
  64   2.0000      -0.336720        -9.1626
  65   2.0000      -0.326103        -8.8737
  66   2.0000      -0.284062        -7.7297
  67   0.0000       0.018772         0.5108
  68   0.0000       0.076914         2.0929
  69   0.0000       0.093910         2.5554
  70   0.0000       0.118975         3.2375
  71   0.0000       0.131018         3.5652

MULLIKEN ATOMIC CHARGES
-----------------------
   0 S :    0.083025
   1 C :   -0.159345
   2 C :   -0.060865
   3 C :   -0.040048
   4 C :   -0.059599
   5 H :    0.003477
   6 C :    0.085627
   7 H :    0.046018
   8 H :    0.024560
   9 C :   -0.118842
  10 H :    0.040680
  11 H :    0.046633
  12 C :   -0.076703
  13 H :    0.033803
  14 H :    0.033645
  15 H :    0.045274
  16 S :    0.068206
  17 C :   -0.090601
  18 C :   -0.013792
  19 C :   -0.074316
  20 C :   -0.083994
  21 H :    0.016149
  22 C :    0.037517
  23 H :    0.032527
  24 H :    0.016981
  25 C :   -0.087935
  26 H :    0.038754
  27 H :    0.035515
  28 C :   -0.011562
  29 H :    0.010635
  30 H :    0.030092
  31 H :    0.017025
  32 H :    0.065190
  33 H :    0.066267
Sum of atomic charges:    0.0000000

LOEWDIN ATOMIC CHARGES
----------------------
   0 S :    0.360024
   1 C :   -0.183993
   2 C :   -0.063576
   3 C :   -0.069205
   4 C :   -0.172850
   5 H :    0.029412
   6 C :   -0.034992
   7 H :    0.036522
   8 H :    0.037203
   9 C :   -0.049114
  10 H :    0.026711
  11 H :    0.030902
  12 C :   -0.070945
  13 H :    0.029831
  14 H :    0.023007
  15 H :    0.027819
  16 S :    0.373704
  17 C :   -0.172177
  18 C :   -0.062686
  19 C :   -0.060591
  20 C :   -0.175036
  21 H :    0.028105
  22 C :   -0.030222
  23 H :    0.029222
  24 H :    0.032394
  25 C :   -0.042201
  26 H :    0.033691
  27 H :    0.021253
  28 C :   -0.068122
  29 H :    0.022333
  30 H :    0.021256
  31 H :    0.023204
  32 H :    0.037566
  33 H :    0.031551

  Mayer bond orders larger than 0.100000
B(  0-S ,  1-C ) :   1.1124 B(  0-S ,  4-C ) :   1.1210 B(  1-C ,  2-C ) :   1.6230
B(  1-C , 32-H ) :   0.9662 B(  2-C ,  3-C ) :   1.2358 B(  2-C ,  6-C ) :   1.0176
B(  3-C ,  4-C ) :   1.5981 B(  3-C ,  5-H ) :   0.9859 B(  4-C , 20-C ) :   1.0710
B(  6-C ,  7-H ) :   0.9242 B(  6-C ,  8-H ) :   0.9402 B(  6-C ,  9-C ) :   1.0770
B(  9-C , 10-H ) :   0.9432 B(  9-C , 11-H ) :   0.9636 B(  9-C , 12-C ) :   1.0756
B( 12-C , 13-H ) :   0.9767 B( 12-C , 14-H ) :   0.9750 B( 12-C , 15-H ) :   0.9752
B( 16-S , 17-C ) :   1.1314 B( 16-S , 20-C ) :   1.1240 B( 17-C , 18-C ) :   1.6373
B( 17-C , 33-H ) :   0.9668 B( 18-C , 19-C ) :   1.2209 B( 18-C , 21-H ) :   0.9847
B( 19-C , 20-C ) :   1.6272 B( 19-C , 22-C ) :   1.0297 B( 22-C , 23-H ) :   0.9484
B( 22-C , 24-H ) :   0.9382 B( 22-C , 25-C ) :   1.0370 B( 25-C , 26-H ) :   0.9558
B( 25-C , 27-H ) :   0.9611 B( 25-C , 28-C ) :   1.0729 B( 28-C , 29-H ) :   0.9713
B( 28-C , 30-H ) :   0.9772 B( 28-C , 31-H ) :   0.9728

Dispersion correction           -0.013985927
FINAL SINGLE POINT ENERGY     -1339.879342956076

DIPOLE MOMENT
-------------
                                X             Y             Z
Electronic contribution:    -20.75795      26.33170       7.20500
Nuclear contribution   :     21.36617     -26.92466      -7.24782
                        -----------------------------------------
Total Dipole Moment    :      0.60823      -0.59296      -0.04282
                        -----------------------------------------
Magnitude (a.u.)       :      0.85051
Magnitude (Debye)      :      2.16183

Rotational constants in cm-1:     0.016519     0.009988     0.006378
Rotational constants in MHz :   495.230781   299.435647   191.218886

                             ****ORCA TERMINATED NORMALLY****
TOTAL RUN TIME: 0 days 0 hours 0 minutes 32 seconds 444 msec
