                         Program Version 4.2.1 -  RELEASE  -
|  1> ! wB97X-D3 SP def2-SVP
|  2> %pal
|  3> nprocs 16
|  4> end
|  5>
|  6> * xyz 0 1
|  7> S 	 3.70866 	 -11.7135 	 77.1281
|  8> C 	 4.18685 	 -12.5429 	 75.6726
|  9> C 	 3.22726 	 -12.3846 	 74.684
| 10> C 	 2.07876 	 -11.7127 	 75.1751
| 11> C 	 2.15765 	 -11.2209 	 76.5099
| 12> H 	 1.19414 	 -11.7311 	 74.5464
| 13> C 	 3.27995 	 -12.9174 	 73.2186
| 14> H 	 2.31001 	 -12.8348 	 72.7734
| 15> H 	 3.51435 	 -14.0056 	 73.3258
| 16> C 	 4.34301 	 -12.1129 	 72.3769
| 17> H 	 4.21187 	 -11.0438 	 72.5089
| 18> H 	 5.34388 	 -12.3623 	 72.7515
| 19> C 	 4.25136 	 -12.486 	 70.9303
| 20> H 	 3.37296 	 -12.0886 	 70.4946
| 21> H 	 5.04331 	 -12.1868 	 70.2227
| 22> H 	 4.17791 	 -13.5531 	 70.8223
| 23> S 	 -0.537685 	 -10.4292 	 76.467
| 24> C 	 -1.02406 	 -9.03403 	 77.4202
| 25> C 	 0.0990154 	 -8.59213 	 78.105
| 26> C 	 1.31702 	 -9.19972 	 77.8253
| 27> C 	 1.14316 	 -10.3564 	 77.0686
| 28> H 	 0.0393937 	 -7.67433 	 78.7455
| 29> C 	 2.60658 	 -8.76368 	 78.4996
| 30> H 	 2.76799 	 -7.72176 	 78.4284
| 31> H 	 3.44129 	 -8.99071 	 77.9391
| 32> C 	 2.83334 	 -9.14654 	 79.9607
| 33> H 	 2.68098 	 -10.2606 	 80.0719
| 34> H 	 2.05494 	 -8.60415 	 80.4937
| 35> C 	 4.16071 	 -8.70166 	 80.5912
| 36> H 	 4.40026 	 -7.65404 	 80.4291
| 37> H 	 4.98157 	 -9.3289 	 80.1868
| 38> H 	 4.39146 	 -8.86764 	 81.63
| 39> H 	 5.19997 	 -12.8995 	 75.4796
| 40> H 	 -2.00737 	 -8.58382 	 77.4671
| 41> *
| 42>
| 43>                          ****END OF INPUT****

CARTESIAN COORDINATES (ANGSTROEM)
---------------------------------
  S      3.708660  -11.713500   77.128100
  C      4.186850  -12.542900   75.672600
  C      3.227260  -12.384600   74.684000
  C      2.078760  -11.712700   75.175100
  C      2.157650  -11.220900   76.509900
  H      1.194140  -11.731100   74.546400
  C      3.279950  -12.917400   73.218600
  H      2.310010  -12.834800   72.773400
  H      3.514350  -14.005600   73.325800
  C      4.343010  -12.112900   72.376900
  H      4.211870  -11.043800   72.508900
  H      5.343880  -12.362300   72.751500
  C      4.251360  -12.486000   70.930300
  H      3.372960  -12.088600   70.494600
  H      5.043310  -12.186800   70.222700
  H      4.177910  -13.553100   70.822300
  S     -0.537685  -10.429200   76.467000
  C     -1.024060   -9.034030   77.420200
  C      0.099015   -8.592130   78.105000
  C      1.317020   -9.199720   77.825300
  C      1.143160  -10.356400   77.068600
  H      0.039394   -7.674330   78.745500
  C      2.606580   -8.763680   78.499600
  H      2.767990   -7.721760   78.428400
  H      3.441290   -8.990710   77.939100
  C      2.833340   -9.146540   79.960700
  H      2.680980  -10.260600   80.071900
  H      2.054940   -8.604150   80.493700
  C      4.160710   -8.701660   80.591200
  H      4.400260   -7.654040   80.429100
  H      4.981570   -9.328900   80.186800
  H      4.391460   -8.867640   81.630000
  H      5.199970  -12.899500   75.479600
  H     -2.007370   -8.583820   77.467100

 Total Charge           Charge          ....    0
 Multiplicity           Mult            ....    1
 Number of Electrons    NEL             ....  134
 Basis Dimension        Dim             ....  322

ORBITAL ENERGIES
----------------

  NO   OCC          E(Eh)            E(eV)
   0   2.0000     -88.973811     -2421.1005
   1   2.0000     -88.969103     -2420.9724
   2   2.0000     -10.335105      -281.2325
   3   2.0000     -10.333630      -281.1924
   4   2.0000     -10.320739      -280.8416
   5   2.0000     -10.314645      -280.6758
   6   2.0000     -10.301287      -280.3123
   7   2.0000     -10.300980      -280.3039
   8   2.0000     -10.300440      -280.2892
   9   2.0000     -10.294016      -280.1144
  10   2.0000     -10.292684      -280.0782
  11   2.0000     -10.289520      -279.9921
  12   2.0000     -10.289385      -279.9884
  13   2.0000     -10.280289      -279.7409
  14   2.0000     -10.277372      -279.6615
  15   2.0000     -10.271390      -279.4987
  16   2.0000      -8.087520      -220.0726
  17   2.0000      -8.082727      -219.9422
  18   2.0000      -6.046114      -164.5231
  19   2.0000      -6.041908      -164.4087
  20   2.0000      -6.041391      -164.3946
  21   2.0000      -6.038520      -164.3165
  22   2.0000      -6.037357      -164.2848
  23   2.0000      -6.033424      -164.1778
  24   2.0000      -1.006432       -27.3864
  25   2.0000      -0.984874       -26.7998
  26   2.0000      -0.910578       -24.7781
  27   2.0000      -0.908559       -24.7231
  28   2.0000      -0.871224       -23.7072
  29   2.0000      -0.853358       -23.2210
  30   2.0000      -0.847934       -23.0734
  31   2.0000      -0.805892       -21.9294
  32   2.0000      -0.786936       -21.4136
  33   2.0000      -0.774565       -21.0770
  34   2.0000      -0.709245       -19.2995
  35   2.0000      -0.703884       -19.1536
  36   2.0000      -0.700436       -19.0598
  37   2.0000      -0.663954       -18.0671
  38   2.0000      -0.635180       -17.2841
  39   2.0000      -0.612527       -16.6677
  40   2.0000      -0.601939       -16.3796
  41   2.0000      -0.570782       -15.5318
  42   2.0000      -0.563395       -15.3307
  43   2.0000      -0.562236       -15.2992
  44   2.0000      -0.525911       -14.3108
  45   2.0000      -0.521504       -14.1909
  46   2.0000      -0.516539       -14.0557
  47   2.0000      -0.510416       -13.8891
  48   2.0000      -0.507866       -13.8197
  49   2.0000      -0.504127       -13.7180
  50   2.0000      -0.497330       -13.5330
  51   2.0000      -0.475838       -12.9482
  52   2.0000      -0.471066       -12.8184
  53   2.0000      -0.465151       -12.6574
  54   2.0000      -0.462570       -12.5872
  55   2.0000      -0.452535       -12.3141
  56   2.0000      -0.443962       -12.0808
  57   2.0000      -0.435100       -11.8397
  58   2.0000      -0.429863       -11.6972
  59   2.0000      -0.424848       -11.5607
  60   2.0000      -0.418815       -11.3965
  61   2.0000      -0.417070       -11.3491
  62   2.0000      -0.406420       -11.0592
  63   2.0000      -0.356767        -9.7081
  64   2.0000      -0.336271        -9.1504
  65   2.0000      -0.331092        -9.0095
  66   2.0000      -0.281764        -7.6672
  67   0.0000       0.015741         0.4283
  68   0.0000       0.081359         2.2139
  69   0.0000       0.108914         2.9637
  70   0.0000       0.117884         3.2078
  71   0.0000       0.133866         3.6427

MULLIKEN ATOMIC CHARGES
-----------------------
   0 S :    0.119372
   1 C :   -0.132914
   2 C :   -0.104360
   3 C :   -0.014494
   4 C :   -0.117064
   5 H :    0.016327
   6 C :    0.050252
   7 H :    0.016045
   8 H :    0.049653
   9 C :   -0.065428
  10 H :    0.039912
  11 H :    0.026752
  12 C :   -0.026533
  13 H :    0.016291
  14 H :    0.035469
  15 H :    0.017234
  16 S :    0.094930
  17 C :   -0.093499
  18 C :   -0.036656
  19 C :   -0.048044
  20 C :   -0.116559
  21 H :    0.030946
  22 C :    0.101453
  23 H :   -0.003756
  24 H :   -0.014650
  25 C :   -0.055569
  26 H :    0.040916
  27 H :    0.023851
  28 C :   -0.055786
  29 H :    0.028918
  30 H :    0.025843
  31 H :    0.030137
  32 H :    0.056860
  33 H :    0.064154
Sum of atomic charges:   -0.0000000

LOEWDIN ATOMIC CHARGES
----------------------
   0 S :    0.435361
   1 C :   -0.212752
   2 C :   -0.063142
   3 C :   -0.073299
   4 C :   -0.197957
   5 H :    0.023986
   6 C :   -0.022011
   7 H :    0.023050
   8 H :    0.039052
   9 C :   -0.035996
  10 H :    0.027150
  11 H :    0.022995
  12 C :   -0.069714
  13 H :    0.019368
  14 H :    0.029772
  15 H :    0.022573
  16 S :    0.397936
  17 C :   -0.186999
  18 C :   -0.073370
  19 C :   -0.058586
  20 C :   -0.173187
  21 H :    0.036405
  22 C :   -0.037874
  23 H :    0.028750
  24 H :    0.012035
  25 C :   -0.037285
  26 H :    0.029910
  27 H :    0.021715
  28 C :   -0.075986
  29 H :    0.024035
  30 H :    0.029347
  31 H :    0.027901
  32 H :    0.031524
  33 H :    0.035293

  Mayer bond orders larger than 0.100000
B(  0-S ,  1-C ) :   1.1508 B(  0-S ,  4-C ) :   1.1647 B(  1-C ,  2-C ) :   1.5696
B(  1-C , 32-H ) :   0.9647 B(  2-C ,  3-C ) :   1.3372 B(  2-C ,  6-C ) :   1.0090
B(  3-C ,  4-C ) :   1.4825 B(  3-C ,  5-H ) :   0.9797 B(  4-C , 20-C ) :   1.0924
B(  6-C ,  7-H ) :   0.9505 B(  6-C ,  8-H ) :   0.9416 B(  6-C ,  9-C ) :   1.0485
B(  9-C , 10-H ) :   0.9619 B(  9-C , 11-H ) :   0.9566 B(  9-C , 12-C ) :   1.0863
B( 12-C , 13-H ) :   0.9731 B( 12-C , 14-H ) :   0.9731 B( 12-C , 15-H ) :   0.9692
B( 16-S , 17-C ) :   1.1448 B( 16-S , 20-C ) :   1.1445 B( 17-C , 18-C ) :   1.5821
B( 17-C , 20-C ) :   0.1031 B( 17-C , 33-H ) :   0.9718 B( 18-C , 19-C ) :   1.2838
B( 18-C , 21-H ) :   0.9774 B( 19-C , 20-C ) :   1.5377 B( 19-C , 22-C ) :   1.0608
B( 22-C , 23-H ) :   0.9132 B( 22-C , 24-H ) :   0.9172 B( 22-C , 25-C ) :   1.0543
B( 25-C , 26-H ) :   0.9564 B( 25-C , 27-H ) :   0.9552 B( 25-C , 28-C ) :   1.0761
B( 28-C , 29-H ) :   0.9746 B( 28-C , 30-H ) :   0.9719 B( 28-C , 31-H ) :   0.9743

Dispersion correction           -0.013826289
FINAL SINGLE POINT ENERGY     -1339.871627451183

DIPOLE MOMENT
-------------
                                X             Y             Z
Electronic contribution:    -14.56706      -2.78595       6.18554
Nuclear contribution   :     14.81641       3.03675      -6.46666
                        -----------------------------------------
Total Dipole Moment    :      0.24935       0.25080      -0.28112
                        -----------------------------------------
Magnitude (a.u.)       :      0.45178
Magnitude (Debye)      :      1.14834

Rotational constants in cm-1:     0.020011     0.007742     0.006065
Rotational constants in MHz :   599.901625   232.096842   181.811717

                             ****ORCA TERMINATED NORMALLY****
TOTAL RUN TIME: 0 days 0 hours 0 minutes 31 seconds 52 msec
