                         Program Version 4.2.1 -  RELEASE  -
|  1> ! wB97X-D3 SP def2-SVP
|  2> %pal
|  3> nprocs 16
|  4> end
|  5>
|  6> * xyz 0 1
|  7> S 	 -11.277 	 70.3244 	 48.2317
|  8> C 	 -11.413 	 69.8382 	 46.5257
|  9> C 	 -12.6002 	 70.3711 	 45.9739
| 10> C 	 -13.305 	 71.1725 	 46.9136
| 11> C 	 -12.7667 	 71.1919 	 48.1832
| 12> H 	 -14.302 	 71.4876 	 46.7328
| 13> C 	 -13.0882 	 70.1933 	 44.5246
| 14> H 	 -12.3753 	 70.5029 	 43.7218
| 15> H 	 -13.9506 	 70.8414 	 44.3447
| 16> C 	 -13.4971 	 68.7488 	 44.2972
| 17> H 	 -12.7514 	 68.086 	 43.9279
| 18> H 	 -13.8286 	 68.2169 	 45.1689
| 19> C 	 -14.61 	 68.7045 	 43.239
| 20> H 	 -15.0798 	 67.7374 	 43.1097
| 21> H 	 -15.4834 	 69.2156 	 43.5029
| 22> H 	 -14.159 	 69.0358 	 42.2672
| 23> S 	 -12.9214 	 71.1385 	 50.9012
| 24> C 	 -13.603 	 72.4277 	 51.7936
| 25> C 	 -14.117 	 73.3963 	 50.9502
| 26> C 	 -13.9798 	 73.0965 	 49.5471
| 27> C 	 -13.2613 	 71.9114 	 49.3935
| 28> H 	 -14.5088 	 74.3329 	 51.3582
| 29> C 	 -14.4568 	 74.0663 	 48.5275
| 30> H 	 -15.4153 	 73.7059 	 48.0948
| 31> H 	 -13.6887 	 74.0294 	 47.7874
| 32> C 	 -14.5991 	 75.6142 	 48.949
| 33> H 	 -13.6839 	 75.9875 	 49.4032
| 34> H 	 -15.4658 	 75.8078 	 49.6488
| 35> C 	 -14.9983 	 76.4207 	 47.7155
| 36> H 	 -15.3097 	 77.4388 	 47.8671
| 37> H 	 -15.7575 	 75.8902 	 47.1219
| 38> H 	 -14.1923 	 76.5715 	 47.0334
| 39> H 	 -10.6769 	 69.2678 	 46.0185
| 40> H 	 -13.6328 	 72.5114 	 52.8647
| 41> *
| 42>
| 43>                          ****END OF INPUT****

CARTESIAN COORDINATES (ANGSTROEM)
---------------------------------
  S    -11.277000   70.324400   48.231700
  C    -11.413000   69.838200   46.525700
  C    -12.600200   70.371100   45.973900
  C    -13.305000   71.172500   46.913600
  C    -12.766700   71.191900   48.183200
  H    -14.302000   71.487600   46.732800
  C    -13.088200   70.193300   44.524600
  H    -12.375300   70.502900   43.721800
  H    -13.950600   70.841400   44.344700
  C    -13.497100   68.748800   44.297200
  H    -12.751400   68.086000   43.927900
  H    -13.828600   68.216900   45.168900
  C    -14.610000   68.704500   43.239000
  H    -15.079800   67.737400   43.109700
  H    -15.483400   69.215600   43.502900
  H    -14.159000   69.035800   42.267200
  S    -12.921400   71.138500   50.901200
  C    -13.603000   72.427700   51.793600
  C    -14.117000   73.396300   50.950200
  C    -13.979800   73.096500   49.547100
  C    -13.261300   71.911400   49.393500
  H    -14.508800   74.332900   51.358200
  C    -14.456800   74.066300   48.527500
  H    -15.415300   73.705900   48.094800
  H    -13.688700   74.029400   47.787400
  C    -14.599100   75.614200   48.949000
  H    -13.683900   75.987500   49.403200
  H    -15.465800   75.807800   49.648800
  C    -14.998300   76.420700   47.715500
  H    -15.309700   77.438800   47.867100
  H    -15.757500   75.890200   47.121900
  H    -14.192300   76.571500   47.033400
  H    -10.676900   69.267800   46.018500
  H    -13.632800   72.511400   52.864700

 Total Charge           Charge          ....    0
 Multiplicity           Mult            ....    1
 Number of Electrons    NEL             ....  134
 Basis Dimension        Dim             ....  322

ORBITAL ENERGIES
----------------

  NO   OCC          E(Eh)            E(eV)
   0   2.0000     -88.966907     -2420.9126
   1   2.0000     -88.965758     -2420.8814
   2   2.0000     -10.330996      -281.1207
   3   2.0000     -10.328146      -281.0431
   4   2.0000     -10.315343      -280.6947
   5   2.0000     -10.311855      -280.5998
   6   2.0000     -10.305835      -280.4360
   7   2.0000     -10.303647      -280.3765
   8   2.0000     -10.299353      -280.2596
   9   2.0000     -10.297344      -280.2050
  10   2.0000     -10.297186      -280.2007
  11   2.0000     -10.291634      -280.0496
  12   2.0000     -10.288380      -279.9611
  13   2.0000     -10.278537      -279.6932
  14   2.0000     -10.275074      -279.5990
  15   2.0000     -10.273057      -279.5441
  16   2.0000      -8.081524      -219.9094
  17   2.0000      -8.081481      -219.9083
  18   2.0000      -6.039997      -164.3567
  19   2.0000      -6.039964      -164.3558
  20   2.0000      -6.035929      -164.2460
  21   2.0000      -6.035793      -164.2423
  22   2.0000      -6.032366      -164.1490
  23   2.0000      -6.032359      -164.1488
  24   2.0000      -1.008957       -27.4551
  25   2.0000      -0.984456       -26.7884
  26   2.0000      -0.913579       -24.8597
  27   2.0000      -0.907736       -24.7007
  28   2.0000      -0.864930       -23.5359
  29   2.0000      -0.857198       -23.3256
  30   2.0000      -0.844526       -22.9807
  31   2.0000      -0.812690       -22.1144
  32   2.0000      -0.780968       -21.2512
  33   2.0000      -0.770822       -20.9751
  34   2.0000      -0.709647       -19.3105
  35   2.0000      -0.707635       -19.2557
  36   2.0000      -0.693286       -18.8653
  37   2.0000      -0.657035       -17.8788
  38   2.0000      -0.641120       -17.4458
  39   2.0000      -0.622547       -16.9404
  40   2.0000      -0.598519       -16.2865
  41   2.0000      -0.571143       -15.5416
  42   2.0000      -0.568154       -15.4603
  43   2.0000      -0.559970       -15.2376
  44   2.0000      -0.528766       -14.3885
  45   2.0000      -0.525380       -14.2963
  46   2.0000      -0.520309       -14.1583
  47   2.0000      -0.514935       -14.0121
  48   2.0000      -0.500125       -13.6091
  49   2.0000      -0.496997       -13.5240
  50   2.0000      -0.487982       -13.2787
  51   2.0000      -0.479769       -13.0552
  52   2.0000      -0.468094       -12.7375
  53   2.0000      -0.463891       -12.6231
  54   2.0000      -0.461462       -12.5570
  55   2.0000      -0.454714       -12.3734
  56   2.0000      -0.444006       -12.0820
  57   2.0000      -0.437729       -11.9112
  58   2.0000      -0.434586       -11.8257
  59   2.0000      -0.427560       -11.6345
  60   2.0000      -0.419855       -11.4248
  61   2.0000      -0.417008       -11.3474
  62   2.0000      -0.415082       -11.2950
  63   2.0000      -0.351503        -9.5649
  64   2.0000      -0.332112        -9.0372
  65   2.0000      -0.329985        -8.9793
  66   2.0000      -0.285682        -7.7738
  67   0.0000       0.027118         0.7379
  68   0.0000       0.079299         2.1578
  69   0.0000       0.109219         2.9720
  70   0.0000       0.123009         3.3472
  71   0.0000       0.141639         3.8542

MULLIKEN ATOMIC CHARGES
-----------------------
   0 S :    0.103698
   1 C :   -0.118492
   2 C :   -0.083215
   3 C :    0.004918
   4 C :   -0.113374
   5 H :    0.003056
   6 C :    0.068436
   7 H :    0.045568
   8 H :    0.020610
   9 C :   -0.053426
  10 H :    0.022942
  11 H :    0.028793
  12 C :   -0.066375
  13 H :    0.019088
  14 H :    0.017593
  15 H :    0.037148
  16 S :    0.113906
  17 C :   -0.072324
  18 C :   -0.057346
  19 C :   -0.039883
  20 C :   -0.148032
  21 H :    0.023306
  22 C :    0.041737
  23 H :    0.049592
  24 H :    0.031262
  25 C :   -0.094023
  26 H :    0.043028
  27 H :    0.045491
  28 C :   -0.032202
  29 H :    0.028071
  30 H :    0.025365
  31 H :    0.016927
  32 H :    0.038383
  33 H :    0.049775
Sum of atomic charges:   -0.0000000

LOEWDIN ATOMIC CHARGES
----------------------
   0 S :    0.408241
   1 C :   -0.190792
   2 C :   -0.050798
   3 C :   -0.077919
   4 C :   -0.193845
   5 H :    0.025338
   6 C :   -0.029621
   7 H :    0.039445
   8 H :    0.029666
   9 C :   -0.041140
  10 H :    0.021593
  11 H :    0.023264
  12 C :   -0.066583
  13 H :    0.024211
  14 H :    0.014405
  15 H :    0.029608
  16 S :    0.431593
  17 C :   -0.199999
  18 C :   -0.072730
  19 C :   -0.059423
  20 C :   -0.204598
  21 H :    0.032148
  22 C :   -0.031191
  23 H :    0.038229
  24 H :    0.032070
  25 C :   -0.037934
  26 H :    0.025720
  27 H :    0.029853
  28 C :   -0.069112
  29 H :    0.024439
  30 H :    0.027149
  31 H :    0.019942
  32 H :    0.020488
  33 H :    0.028283

  Mayer bond orders larger than 0.100000
B(  0-S ,  1-C ) :   1.1352 B(  0-S ,  4-C ) :   1.1721 B(  1-C ,  2-C ) :   1.5734
B(  1-C ,  4-C ) :   0.1048 B(  1-C , 32-H ) :   0.9814 B(  2-C ,  3-C ) :   1.2799
B(  2-C ,  6-C ) :   1.0221 B(  3-C ,  4-C ) :   1.5520 B(  3-C ,  5-H ) :   0.9944
B(  4-C , 20-C ) :   1.0243 B(  6-C ,  7-H ) :   0.9368 B(  6-C ,  8-H ) :   0.9544
B(  6-C ,  9-C ) :   1.0399 B(  9-C , 10-H ) :   0.9524 B(  9-C , 11-H ) :   0.9632
B(  9-C , 12-C ) :   1.0886 B( 12-C , 13-H ) :   0.9716 B( 12-C , 14-H ) :   0.9765
B( 12-C , 15-H ) :   0.9748 B( 16-S , 17-C ) :   1.1600 B( 16-S , 20-C ) :   1.1594
B( 17-C , 18-C ) :   1.5940 B( 17-C , 33-H ) :   0.9680 B( 18-C , 19-C ) :   1.2590
B( 18-C , 21-H ) :   0.9838 B( 19-C , 20-C ) :   1.5765 B( 19-C , 22-C ) :   1.0393
B( 22-C , 23-H ) :   0.9213 B( 22-C , 24-H ) :   0.9369 B( 22-C , 25-C ) :   1.0708
B( 25-C , 26-H ) :   0.9581 B( 25-C , 27-H ) :   0.9508 B( 25-C , 28-C ) :   1.0789
B( 28-C , 29-H ) :   0.9735 B( 28-C , 30-H ) :   0.9719 B( 28-C , 31-H ) :   0.9727

Dispersion correction           -0.013218708
FINAL SINGLE POINT ENERGY     -1339.879202401405

DIPOLE MOMENT
-------------
                                X             Y             Z
Electronic contribution:     14.51509      -9.95347      22.93784
Nuclear contribution   :    -14.87432      10.28536     -23.34147
                        -----------------------------------------
Total Dipole Moment    :     -0.35922       0.33189      -0.40363
                        -----------------------------------------
Magnitude (a.u.)       :      0.63412
Magnitude (Debye)      :      1.61180

Rotational constants in cm-1:     0.017593     0.007870     0.005987
Rotational constants in MHz :   527.435552   235.943164   179.496353

                             ****ORCA TERMINATED NORMALLY****
TOTAL RUN TIME: 0 days 0 hours 0 minutes 32 seconds 603 msec
