                         Program Version 4.2.1 -  RELEASE  -
|  1> ! wB97X-D3 SP def2-SVP
|  2> %pal
|  3> nprocs 16
|  4> end
|  5>
|  6> * xyz 0 1
|  7> S 	 44.8534 	 11.0122 	 84.1979
|  8> C 	 45.4973 	 12.1128 	 83.0345
|  9> C 	 44.799 	 13.2991 	 82.8198
| 10> C 	 43.6195 	 13.2266 	 83.6181
| 11> C 	 43.5135 	 12.0919 	 84.4583
| 12> H 	 42.926 	 14.0057 	 83.6975
| 13> C 	 45.1196 	 14.3917 	 81.8661
| 14> H 	 46.0612 	 14.0675 	 81.2687
| 15> H 	 45.3053 	 15.2896 	 82.5353
| 16> C 	 44.0407 	 14.5444 	 80.7639
| 17> H 	 43.9015 	 13.7412 	 80.0757
| 18> H 	 43.1375 	 14.7575 	 81.2278
| 19> C 	 44.4279 	 15.7469 	 79.872
| 20> H 	 44.2829 	 16.5974 	 80.4584
| 21> H 	 45.442 	 15.6859 	 79.5497
| 22> H 	 43.7283 	 15.829 	 78.9776
| 23> S 	 43.0341 	 11.6948 	 87.1189
| 24> C 	 41.3301 	 11.3862 	 87.6983
| 25> C 	 40.4531 	 11.485 	 86.6578
| 26> C 	 41.119 	 11.8377 	 85.4108
| 27> C 	 42.4669 	 11.8652 	 85.4229
| 28> H 	 39.3968 	 11.5134 	 86.797
| 29> C 	 40.2906 	 11.9142 	 84.1316
| 30> H 	 39.5777 	 11.1518 	 83.9648
| 31> H 	 40.9741 	 11.8193 	 83.2295
| 32> C 	 39.6458 	 13.2793 	 83.9346
| 33> H 	 40.3932 	 14.0663 	 83.9629
| 34> H 	 38.9167 	 13.4625 	 84.7402
| 35> C 	 39.0599 	 13.5165 	 82.5321
| 36> H 	 38.6656 	 14.5022 	 82.3235
| 37> H 	 38.2157 	 12.8689 	 82.3167
| 38> H 	 39.8626 	 13.4273 	 81.823
| 39> H 	 46.4645 	 11.8614 	 82.5319
| 40> H 	 40.9336 	 11.4522 	 88.6635
| 41> *
| 42>
| 43>                          ****END OF INPUT****

CARTESIAN COORDINATES (ANGSTROEM)
---------------------------------
  S     44.853400   11.012200   84.197900
  C     45.497300   12.112800   83.034500
  C     44.799000   13.299100   82.819800
  C     43.619500   13.226600   83.618100
  C     43.513500   12.091900   84.458300
  H     42.926000   14.005700   83.697500
  C     45.119600   14.391700   81.866100
  H     46.061200   14.067500   81.268700
  H     45.305300   15.289600   82.535300
  C     44.040700   14.544400   80.763900
  H     43.901500   13.741200   80.075700
  H     43.137500   14.757500   81.227800
  C     44.427900   15.746900   79.872000
  H     44.282900   16.597400   80.458400
  H     45.442000   15.685900   79.549700
  H     43.728300   15.829000   78.977600
  S     43.034100   11.694800   87.118900
  C     41.330100   11.386200   87.698300
  C     40.453100   11.485000   86.657800
  C     41.119000   11.837700   85.410800
  C     42.466900   11.865200   85.422900
  H     39.396800   11.513400   86.797000
  C     40.290600   11.914200   84.131600
  H     39.577700   11.151800   83.964800
  H     40.974100   11.819300   83.229500
  C     39.645800   13.279300   83.934600
  H     40.393200   14.066300   83.962900
  H     38.916700   13.462500   84.740200
  C     39.059900   13.516500   82.532100
  H     38.665600   14.502200   82.323500
  H     38.215700   12.868900   82.316700
  H     39.862600   13.427300   81.823000
  H     46.464500   11.861400   82.531900
  H     40.933600   11.452200   88.663500

 Total Charge           Charge          ....    0
 Multiplicity           Mult            ....    1
 Number of Electrons    NEL             ....  134
 Basis Dimension        Dim             ....  322

ORBITAL ENERGIES
----------------

  NO   OCC          E(Eh)            E(eV)
   0   2.0000     -88.972442     -2421.0632
   1   2.0000     -88.960336     -2420.7338
   2   2.0000     -10.330873      -281.1174
   3   2.0000     -10.327772      -281.0330
   4   2.0000     -10.317664      -280.7579
   5   2.0000     -10.316657      -280.7305
   6   2.0000     -10.309191      -280.5273
   7   2.0000     -10.302497      -280.3452
   8   2.0000     -10.301984      -280.3312
   9   2.0000     -10.294912      -280.1388
  10   2.0000     -10.294354      -280.1236
  11   2.0000     -10.287643      -279.9410
  12   2.0000     -10.284731      -279.8618
  13   2.0000     -10.284566      -279.8573
  14   2.0000     -10.276577      -279.6399
  15   2.0000     -10.274574      -279.5854
  16   2.0000      -8.087435      -220.0703
  17   2.0000      -8.073675      -219.6959
  18   2.0000      -6.045767      -164.5137
  19   2.0000      -6.041917      -164.4089
  20   2.0000      -6.038361      -164.3122
  21   2.0000      -6.032602      -164.1554
  22   2.0000      -6.028479      -164.0433
  23   2.0000      -6.023942      -163.9198
  24   2.0000      -1.005862       -27.3709
  25   2.0000      -0.980189       -26.6723
  26   2.0000      -0.918557       -24.9952
  27   2.0000      -0.906315       -24.6621
  28   2.0000      -0.873943       -23.7812
  29   2.0000      -0.856691       -23.3117
  30   2.0000      -0.842006       -22.9121
  31   2.0000      -0.815473       -22.1902
  32   2.0000      -0.780024       -21.2255
  33   2.0000      -0.770526       -20.9671
  34   2.0000      -0.713306       -19.4100
  35   2.0000      -0.699323       -19.0295
  36   2.0000      -0.692136       -18.8340
  37   2.0000      -0.668036       -18.1782
  38   2.0000      -0.643410       -17.5081
  39   2.0000      -0.622528       -16.9398
  40   2.0000      -0.594738       -16.1837
  41   2.0000      -0.577431       -15.7127
  42   2.0000      -0.570293       -15.5185
  43   2.0000      -0.565916       -15.3994
  44   2.0000      -0.532316       -14.4851
  45   2.0000      -0.524297       -14.2668
  46   2.0000      -0.515121       -14.0171
  47   2.0000      -0.510794       -13.8994
  48   2.0000      -0.506641       -13.7864
  49   2.0000      -0.501537       -13.6475
  50   2.0000      -0.489614       -13.3231
  51   2.0000      -0.477820       -13.0021
  52   2.0000      -0.471966       -12.8428
  53   2.0000      -0.466185       -12.6855
  54   2.0000      -0.461563       -12.5598
  55   2.0000      -0.449159       -12.2222
  56   2.0000      -0.445183       -12.1140
  57   2.0000      -0.438663       -11.9366
  58   2.0000      -0.433245       -11.7892
  59   2.0000      -0.422549       -11.4981
  60   2.0000      -0.418603       -11.3908
  61   2.0000      -0.417676       -11.3656
  62   2.0000      -0.410920       -11.1817
  63   2.0000      -0.346511        -9.4290
  64   2.0000      -0.335451        -9.1281
  65   2.0000      -0.326809        -8.8929
  66   2.0000      -0.294992        -8.0272
  67   0.0000       0.032375         0.8810
  68   0.0000       0.062743         1.7073
  69   0.0000       0.107127         2.9151
  70   0.0000       0.119234         3.2445
  71   0.0000       0.124087         3.3766

MULLIKEN ATOMIC CHARGES
-----------------------
   0 S :    0.144210
   1 C :   -0.148031
   2 C :   -0.055064
   3 C :    0.043762
   4 C :   -0.162920
   5 H :   -0.014839
   6 C :    0.007230
   7 H :    0.037765
   8 H :    0.063598
   9 C :   -0.051864
  10 H :    0.034982
  11 H :    0.012813
  12 C :   -0.031350
  13 H :    0.013769
  14 H :    0.026358
  15 H :    0.040688
  16 S :    0.066817
  17 C :   -0.052935
  18 C :   -0.015963
  19 C :   -0.024167
  20 C :   -0.137754
  21 H :    0.017821
  22 C :    0.037533
  23 H :    0.020571
  24 H :    0.024793
  25 C :   -0.085487
  26 H :    0.020194
  27 H :    0.026693
  28 C :   -0.033712
  29 H :    0.024722
  30 H :    0.027061
  31 H :    0.022684
  32 H :    0.057659
  33 H :    0.042363
Sum of atomic charges:    0.0000000

LOEWDIN ATOMIC CHARGES
----------------------
   0 S :    0.433143
   1 C :   -0.207920
   2 C :   -0.070057
   3 C :   -0.047587
   4 C :   -0.208018
   5 H :    0.016377
   6 C :   -0.037076
   7 H :    0.041914
   8 H :    0.047067
   9 C :   -0.028080
  10 H :    0.025826
  11 H :    0.011606
  12 C :   -0.056731
  13 H :    0.014497
  14 H :    0.018920
  15 H :    0.032545
  16 S :    0.345058
  17 C :   -0.151748
  18 C :   -0.059571
  19 C :   -0.056102
  20 C :   -0.173778
  21 H :    0.029007
  22 C :   -0.032233
  23 H :    0.022248
  24 H :    0.034651
  25 C :   -0.041519
  26 H :    0.020351
  27 H :    0.019636
  28 C :   -0.064572
  29 H :    0.025129
  30 H :    0.021377
  31 H :    0.022203
  32 H :    0.030165
  33 H :    0.023270

  Mayer bond orders larger than 0.100000
B(  0-S ,  1-C ) :   1.1603 B(  0-S ,  4-C ) :   1.1610 B(  1-C ,  2-C ) :   1.5949
B(  1-C , 32-H ) :   0.9548 B(  2-C ,  3-C ) :   1.2595 B(  2-C ,  6-C ) :   1.0231
B(  3-C ,  4-C ) :   1.5433 B(  3-C ,  5-H ) :   0.9990 B(  4-C , 20-C ) :   1.0426
B(  6-C ,  7-H ) :   0.9411 B(  6-C ,  8-H ) :   0.9353 B(  6-C ,  9-C ) :   1.0622
B(  9-C , 10-H ) :   0.9604 B(  9-C , 11-H ) :   0.9564 B(  9-C , 12-C ) :   1.0821
B( 12-C , 13-H ) :   0.9777 B( 12-C , 14-H ) :   0.9741 B( 12-C , 15-H ) :   0.9757
B( 16-S , 17-C ) :   1.1140 B( 16-S , 20-C ) :   1.0949 B( 17-C , 18-C ) :   1.6697
B( 17-C , 33-H ) :   0.9670 B( 18-C , 19-C ) :   1.1899 B( 18-C , 21-H ) :   0.9858
B( 19-C , 20-C ) :   1.6832 B( 19-C , 22-C ) :   1.0384 B( 22-C , 23-H ) :   0.9490
B( 22-C , 24-H ) :   0.9383 B( 22-C , 25-C ) :   1.0519 B( 25-C , 26-H ) :   0.9558
B( 25-C , 27-H ) :   0.9564 B( 25-C , 28-C ) :   1.0836 B( 28-C , 29-H ) :   0.9741
B( 28-C , 30-H ) :   0.9743 B( 28-C , 31-H ) :   0.9732

Dispersion correction           -0.014201045
FINAL SINGLE POINT ENERGY     -1339.863661525366

DIPOLE MOMENT
-------------
                                X             Y             Z
Electronic contribution:     12.20488     -18.26904      24.44027
Nuclear contribution   :    -12.54586      18.77322     -24.95712
                        -----------------------------------------
Total Dipole Moment    :     -0.34099       0.50418      -0.51685
                        -----------------------------------------
Magnitude (a.u.)       :      0.79850
Magnitude (Debye)      :      2.02962

Rotational constants in cm-1:     0.017480     0.009259     0.006578
Rotational constants in MHz :   524.032194   277.589827   197.202389

                             ****ORCA TERMINATED NORMALLY****
TOTAL RUN TIME: 0 days 0 hours 0 minutes 30 seconds 118 msec
