                         Program Version 4.2.1 -  RELEASE  -
|  1> ! wB97X-D3 SP def2-SVP
|  2> %pal
|  3> nprocs 16
|  4> end
|  5>
|  6> * xyz 0 1
|  7> S 	 45.6074 	 8.01321 	 87.4519
|  8> C 	 45.788 	 7.486 	 89.1747
|  9> C 	 45.1788 	 8.42112 	 90.0229
| 10> C 	 44.3418 	 9.35245 	 89.2701
| 11> C 	 44.3692 	 9.18412 	 87.8851
| 12> H 	 43.7041 	 10.0321 	 89.7625
| 13> C 	 45.196 	 8.55233 	 91.5319
| 14> H 	 44.1881 	 8.2638 	 91.9278
| 15> H 	 45.3054 	 9.52015 	 91.9637
| 16> C 	 46.2025 	 7.70866 	 92.3024
| 17> H 	 46.0347 	 7.82368 	 93.3769
| 18> H 	 46.2736 	 6.68821 	 91.9367
| 19> C 	 47.6154 	 8.22632 	 92.0498
| 20> H 	 47.599 	 9.34554 	 92.173
| 21> H 	 48.4626 	 7.79412 	 92.6113
| 22> H 	 47.8965 	 7.92352 	 90.997
| 23> S 	 44.3627 	 11.2422 	 86.2047
| 24> C 	 42.9777 	 11.7194 	 85.3089
| 25> C 	 41.9706 	 10.79 	 85.4842
| 26> C 	 42.3615 	 9.68223 	 86.4075
| 27> C 	 43.6377 	 9.88407 	 86.8651
| 28> H 	 41.019 	 11.0215 	 85.0652
| 29> C 	 41.412 	 8.47453 	 86.714
| 30> H 	 41.7846 	 8.08112 	 87.6729
| 31> H 	 41.4524 	 7.71088 	 86.0018
| 32> C 	 39.891 	 8.73579 	 86.8508
| 33> H 	 39.5948 	 8.94116 	 85.7976
| 34> H 	 39.8975 	 9.71768 	 87.3594
| 35> C 	 39.1264 	 7.62374 	 87.6026
| 36> H 	 39.5817 	 7.5074 	 88.5834
| 37> H 	 39.3813 	 6.82661 	 86.8785
| 38> H 	 38.0036 	 7.72441 	 87.6193
| 39> H 	 46.4835 	 6.70006 	 89.5236
| 40> H 	 42.8596 	 12.5788 	 84.6124
| 41> *
| 42>
| 43>                          ****END OF INPUT****

CARTESIAN COORDINATES (ANGSTROEM)
---------------------------------
  S     45.607400    8.013210   87.451900
  C     45.788000    7.486000   89.174700
  C     45.178800    8.421120   90.022900
  C     44.341800    9.352450   89.270100
  C     44.369200    9.184120   87.885100
  H     43.704100   10.032100   89.762500
  C     45.196000    8.552330   91.531900
  H     44.188100    8.263800   91.927800
  H     45.305400    9.520150   91.963700
  C     46.202500    7.708660   92.302400
  H     46.034700    7.823680   93.376900
  H     46.273600    6.688210   91.936700
  C     47.615400    8.226320   92.049800
  H     47.599000    9.345540   92.173000
  H     48.462600    7.794120   92.611300
  H     47.896500    7.923520   90.997000
  S     44.362700   11.242200   86.204700
  C     42.977700   11.719400   85.308900
  C     41.970600   10.790000   85.484200
  C     42.361500    9.682230   86.407500
  C     43.637700    9.884070   86.865100
  H     41.019000   11.021500   85.065200
  C     41.412000    8.474530   86.714000
  H     41.784600    8.081120   87.672900
  H     41.452400    7.710880   86.001800
  C     39.891000    8.735790   86.850800
  H     39.594800    8.941160   85.797600
  H     39.897500    9.717680   87.359400
  C     39.126400    7.623740   87.602600
  H     39.581700    7.507400   88.583400
  H     39.381300    6.826610   86.878500
  H     38.003600    7.724410   87.619300
  H     46.483500    6.700060   89.523600
  H     42.859600   12.578800   84.612400

 Total Charge           Charge          ....    0
 Multiplicity           Mult            ....    1
 Number of Electrons    NEL             ....  134
 Basis Dimension        Dim             ....  322

ORBITAL ENERGIES
----------------

  NO   OCC          E(Eh)            E(eV)
   0   2.0000     -88.965881     -2420.8847
   1   2.0000     -88.963538     -2420.8209
   2   2.0000     -10.332073      -281.1500
   3   2.0000     -10.325928      -280.9828
   4   2.0000     -10.320079      -280.8236
   5   2.0000     -10.317408      -280.7509
   6   2.0000     -10.311955      -280.6026
   7   2.0000     -10.311915      -280.6015
   8   2.0000     -10.297262      -280.2028
   9   2.0000     -10.297145      -280.1996
  10   2.0000     -10.295569      -280.1567
  11   2.0000     -10.289063      -279.9797
  12   2.0000     -10.289003      -279.9780
  13   2.0000     -10.288296      -279.9588
  14   2.0000     -10.286907      -279.9210
  15   2.0000     -10.281246      -279.7669
  16   2.0000      -8.080440      -219.8799
  17   2.0000      -8.079637      -219.8581
  18   2.0000      -6.038890      -164.3265
  19   2.0000      -6.038304      -164.3106
  20   2.0000      -6.034462      -164.2060
  21   2.0000      -6.034424      -164.2050
  22   2.0000      -6.031280      -164.1195
  23   2.0000      -6.030121      -164.0879
  24   2.0000      -1.013100       -27.5679
  25   2.0000      -0.979515       -26.6540
  26   2.0000      -0.918044       -24.9812
  27   2.0000      -0.906262       -24.6606
  28   2.0000      -0.871584       -23.7170
  29   2.0000      -0.845775       -23.0147
  30   2.0000      -0.844125       -22.9698
  31   2.0000      -0.811181       -22.0734
  32   2.0000      -0.782691       -21.2981
  33   2.0000      -0.774368       -21.0716
  34   2.0000      -0.704758       -19.1775
  35   2.0000      -0.695773       -18.9330
  36   2.0000      -0.691434       -18.8149
  37   2.0000      -0.653391       -17.7797
  38   2.0000      -0.640229       -17.4215
  39   2.0000      -0.616773       -16.7832
  40   2.0000      -0.598250       -16.2792
  41   2.0000      -0.585914       -15.9435
  42   2.0000      -0.572359       -15.5747
  43   2.0000      -0.552347       -15.0301
  44   2.0000      -0.541815       -14.7435
  45   2.0000      -0.523096       -14.2342
  46   2.0000      -0.517080       -14.0705
  47   2.0000      -0.513173       -13.9641
  48   2.0000      -0.506818       -13.7912
  49   2.0000      -0.497528       -13.5384
  50   2.0000      -0.492632       -13.4052
  51   2.0000      -0.479251       -13.0411
  52   2.0000      -0.470193       -12.7946
  53   2.0000      -0.462101       -12.5744
  54   2.0000      -0.459316       -12.4986
  55   2.0000      -0.446657       -12.1542
  56   2.0000      -0.438527       -11.9329
  57   2.0000      -0.432962       -11.7815
  58   2.0000      -0.427165       -11.6238
  59   2.0000      -0.425394       -11.5756
  60   2.0000      -0.422697       -11.5022
  61   2.0000      -0.412295       -11.2191
  62   2.0000      -0.404782       -11.0147
  63   2.0000      -0.333583        -9.0773
  64   2.0000      -0.327528        -8.9125
  65   2.0000      -0.321959        -8.7609
  66   2.0000      -0.313756        -8.5377
  67   0.0000       0.043021         1.1707
  68   0.0000       0.057734         1.5710
  69   0.0000       0.098819         2.6890
  70   0.0000       0.119165         3.2426
  71   0.0000       0.127257         3.4628

MULLIKEN ATOMIC CHARGES
-----------------------
   0 S :    0.103122
   1 C :   -0.139234
   2 C :   -0.072568
   3 C :    0.071285
   4 C :   -0.172536
   5 H :   -0.003626
   6 C :    0.037998
   7 H :    0.042766
   8 H :    0.025424
   9 C :   -0.056976
  10 H :    0.036282
  11 H :    0.028464
  12 C :   -0.101253
  13 H :    0.034992
  14 H :    0.040264
  15 H :    0.029101
  16 S :    0.131830
  17 C :   -0.108576
  18 C :   -0.045266
  19 C :   -0.016837
  20 C :   -0.171544
  21 H :    0.014450
  22 C :    0.079536
  23 H :    0.024357
  24 H :    0.024788
  25 C :   -0.135430
  26 H :    0.036589
  27 H :    0.027190
  28 C :   -0.039982
  29 H :    0.047811
  30 H :    0.035398
  31 H :    0.056004
  32 H :    0.064207
  33 H :    0.071971
Sum of atomic charges:    0.0000000

LOEWDIN ATOMIC CHARGES
----------------------
   0 S :    0.380773
   1 C :   -0.188801
   2 C :   -0.053954
   3 C :   -0.046107
   4 C :   -0.191099
   5 H :    0.023757
   6 C :   -0.036480
   7 H :    0.041256
   8 H :    0.029905
   9 C :   -0.044756
  10 H :    0.028758
  11 H :    0.022333
  12 C :   -0.077716
  13 H :    0.025778
  14 H :    0.024953
  15 H :    0.025474
  16 S :    0.453852
  17 C :   -0.206286
  18 C :   -0.073646
  19 C :   -0.044827
  20 C :   -0.237099
  21 H :    0.024951
  22 C :   -0.027062
  23 H :    0.029286
  24 H :    0.020840
  25 C :   -0.051180
  26 H :    0.022852
  27 H :    0.017411
  28 C :   -0.066121
  29 H :    0.029586
  30 H :    0.033084
  31 H :    0.036009
  32 H :    0.032024
  33 H :    0.042251

  Mayer bond orders larger than 0.100000
B(  0-S ,  1-C ) :   1.1203 B(  0-S ,  4-C ) :   1.1379 B(  1-C ,  2-C ) :   1.6341
B(  1-C , 32-H ) :   0.9590 B(  2-C ,  3-C ) :   1.2161 B(  2-C ,  6-C ) :   1.0098
B(  3-C ,  4-C ) :   1.6044 B(  3-C ,  5-H ) :   1.0056 B(  4-C , 20-C ) :   0.9979
B(  6-C ,  7-H ) :   0.9339 B(  6-C ,  8-H ) :   0.9456 B(  6-C ,  9-C ) :   1.0881
B(  9-C , 10-H ) :   0.9530 B(  9-C , 11-H ) :   0.9535 B(  9-C , 12-C ) :   1.0697
B( 12-C , 13-H ) :   0.9736 B( 12-C , 14-H ) :   0.9754 B( 12-C , 15-H ) :   0.9753
B( 16-S , 17-C ) :   1.1588 B( 16-S , 20-C ) :   1.1727 B( 17-C , 18-C ) :   1.6302
B( 17-C , 33-H ) :   0.9616 B( 18-C , 19-C ) :   1.2093 B( 18-C , 21-H ) :   0.9919
B( 19-C , 20-C ) :   1.6249 B( 19-C , 22-C ) :   1.0326 B( 22-C , 23-H ) :   0.9336
B( 22-C , 24-H ) :   0.9394 B( 22-C , 25-C ) :   1.0467 B( 25-C , 26-H ) :   0.9559
B( 25-C , 27-H ) :   0.9648 B( 25-C , 28-C ) :   1.0573 B( 28-C , 29-H ) :   0.9744
B( 28-C , 30-H ) :   0.9758 B( 28-C , 31-H ) :   0.9740

Dispersion correction           -0.013672386
FINAL SINGLE POINT ENERGY     -1339.855181155020

DIPOLE MOMENT
-------------
                                X             Y             Z
Electronic contribution:      9.95980       9.41102     -17.57381
Nuclear contribution   :    -10.37525      -9.40143      17.99096
                        -----------------------------------------
Total Dipole Moment    :     -0.41545       0.00959       0.41715
                        -----------------------------------------
Magnitude (a.u.)       :      0.58882
Magnitude (Debye)      :      1.49665

Rotational constants in cm-1:     0.019764     0.007619     0.006243
Rotational constants in MHz :   592.498367   228.425586   187.148996

                             ****ORCA TERMINATED NORMALLY****
TOTAL RUN TIME: 0 days 0 hours 0 minutes 28 seconds 823 msec
