                         Program Version 4.2.1 -  RELEASE  -
|  1> ! wB97X-D3 SP def2-SVP
|  2> %pal
|  3> nprocs 16
|  4> end
|  5>
|  6> * xyz 0 1
|  7> S 	 19.8339 	 -8.35985 	 81.0534
|  8> C 	 18.9009 	 -6.91509 	 80.7009
|  9> C 	 17.8757 	 -7.1843 	 79.7381
| 10> C 	 17.7495 	 -8.61965 	 79.6035
| 11> C 	 18.6648 	 -9.42474 	 80.2964
| 12> H 	 16.946 	 -9.1607 	 79.097
| 13> C 	 16.9593 	 -6.1554 	 79.0513
| 14> H 	 17.247 	 -5.88265 	 78.0404
| 15> H 	 17.1043 	 -5.28212 	 79.6632
| 16> C 	 15.4828 	 -6.50923 	 78.9431
| 17> H 	 15.3501 	 -7.27608 	 78.2549
| 18> H 	 15.0557 	 -6.8488 	 79.8813
| 19> C 	 14.5038 	 -5.45624 	 78.4601
| 20> H 	 13.4423 	 -5.6855 	 78.4128
| 21> H 	 14.7679 	 -4.50066 	 78.9743
| 22> H 	 14.6138 	 -5.10039 	 77.4375
| 23> S 	 18.7618 	 -11.3633 	 82.228
| 24> C 	 19.2113 	 -12.9815 	 81.7557
| 25> C 	 19.0502 	 -13.1883 	 80.3834
| 26> C 	 18.9616 	 -11.9568 	 79.6884
| 27> C 	 18.7054 	 -10.848 	 80.4872
| 28> H 	 19.0626 	 -14.2288 	 79.9899
| 29> C 	 18.9421 	 -11.8221 	 78.199
| 30> H 	 19.7045 	 -12.4656 	 77.8394
| 31> H 	 19.1819 	 -10.7765 	 78.1737
| 32> C 	 17.5893 	 -11.9774 	 77.4412
| 33> H 	 17.8915 	 -11.9223 	 76.4183
| 34> H 	 16.9924 	 -11.1062 	 77.6126
| 35> C 	 16.933 	 -13.267 	 77.6556
| 36> H 	 16.4525 	 -13.5156 	 78.6393
| 37> H 	 17.604 	 -14.0848 	 77.3068
| 38> H 	 16.1217 	 -13.294 	 76.923
| 39> H 	 19.2046 	 -5.91487 	 81.0996
| 40> H 	 19.2388 	 -13.8487 	 82.4363
| 41> *
| 42>
| 43>                          ****END OF INPUT****

CARTESIAN COORDINATES (ANGSTROEM)
---------------------------------
  S     19.833900   -8.359850   81.053400
  C     18.900900   -6.915090   80.700900
  C     17.875700   -7.184300   79.738100
  C     17.749500   -8.619650   79.603500
  C     18.664800   -9.424740   80.296400
  H     16.946000   -9.160700   79.097000
  C     16.959300   -6.155400   79.051300
  H     17.247000   -5.882650   78.040400
  H     17.104300   -5.282120   79.663200
  C     15.482800   -6.509230   78.943100
  H     15.350100   -7.276080   78.254900
  H     15.055700   -6.848800   79.881300
  C     14.503800   -5.456240   78.460100
  H     13.442300   -5.685500   78.412800
  H     14.767900   -4.500660   78.974300
  H     14.613800   -5.100390   77.437500
  S     18.761800  -11.363300   82.228000
  C     19.211300  -12.981500   81.755700
  C     19.050200  -13.188300   80.383400
  C     18.961600  -11.956800   79.688400
  C     18.705400  -10.848000   80.487200
  H     19.062600  -14.228800   79.989900
  C     18.942100  -11.822100   78.199000
  H     19.704500  -12.465600   77.839400
  H     19.181900  -10.776500   78.173700
  C     17.589300  -11.977400   77.441200
  H     17.891500  -11.922300   76.418300
  H     16.992400  -11.106200   77.612600
  C     16.933000  -13.267000   77.655600
  H     16.452500  -13.515600   78.639300
  H     17.604000  -14.084800   77.306800
  H     16.121700  -13.294000   76.923000
  H     19.204600   -5.914870   81.099600
  H     19.238800  -13.848700   82.436300

 Total Charge           Charge          ....    0
 Multiplicity           Mult            ....    1
 Number of Electrons    NEL             ....  134
 Basis Dimension        Dim             ....  322

ORBITAL ENERGIES
----------------

  NO   OCC          E(Eh)            E(eV)
   0   2.0000     -88.966410     -2420.8991
   1   2.0000     -88.962600     -2420.7954
   2   2.0000     -10.329967      -281.0927
   3   2.0000     -10.327013      -281.0123
   4   2.0000     -10.326694      -281.0036
   5   2.0000     -10.320000      -280.8215
   6   2.0000     -10.315386      -280.6959
   7   2.0000     -10.302151      -280.3358
   8   2.0000     -10.300064      -280.2790
   9   2.0000     -10.298092      -280.2253
  10   2.0000     -10.296378      -280.1787
  11   2.0000     -10.281429      -279.7719
  12   2.0000     -10.281213      -279.7660
  13   2.0000     -10.279680      -279.7243
  14   2.0000     -10.279348      -279.7153
  15   2.0000     -10.278699      -279.6976
  16   2.0000      -8.080822      -219.8903
  17   2.0000      -8.076581      -219.7749
  18   2.0000      -6.039327      -164.3384
  19   2.0000      -6.035268      -164.2280
  20   2.0000      -6.035078      -164.2228
  21   2.0000      -6.031680      -164.1303
  22   2.0000      -6.031230      -164.1181
  23   2.0000      -6.027342      -164.0123
  24   2.0000      -1.001723       -27.2583
  25   2.0000      -0.977936       -26.6110
  26   2.0000      -0.915365       -24.9083
  27   2.0000      -0.914266       -24.8784
  28   2.0000      -0.870125       -23.6773
  29   2.0000      -0.855500       -23.2793
  30   2.0000      -0.844033       -22.9673
  31   2.0000      -0.812896       -22.1200
  32   2.0000      -0.785830       -21.3835
  33   2.0000      -0.770843       -20.9757
  34   2.0000      -0.713569       -19.4172
  35   2.0000      -0.701423       -19.0867
  36   2.0000      -0.688414       -18.7327
  37   2.0000      -0.658983       -17.9318
  38   2.0000      -0.645296       -17.5594
  39   2.0000      -0.613696       -16.6995
  40   2.0000      -0.584782       -15.9127
  41   2.0000      -0.576940       -15.6993
  42   2.0000      -0.567211       -15.4346
  43   2.0000      -0.557870       -15.1804
  44   2.0000      -0.543716       -14.7953
  45   2.0000      -0.534265       -14.5381
  46   2.0000      -0.515451       -14.0261
  47   2.0000      -0.509838       -13.8734
  48   2.0000      -0.499883       -13.6025
  49   2.0000      -0.499376       -13.5887
  50   2.0000      -0.492423       -13.3995
  51   2.0000      -0.483917       -13.1681
  52   2.0000      -0.478190       -13.0122
  53   2.0000      -0.463328       -12.6078
  54   2.0000      -0.454529       -12.3684
  55   2.0000      -0.450944       -12.2708
  56   2.0000      -0.439177       -11.9506
  57   2.0000      -0.433690       -11.8013
  58   2.0000      -0.429475       -11.6866
  59   2.0000      -0.423061       -11.5121
  60   2.0000      -0.418724       -11.3941
  61   2.0000      -0.412530       -11.2255
  62   2.0000      -0.411949       -11.2097
  63   2.0000      -0.337782        -9.1915
  64   2.0000      -0.331677        -9.0254
  65   2.0000      -0.321141        -8.7387
  66   2.0000      -0.295766        -8.0482
  67   0.0000       0.022662         0.6167
  68   0.0000       0.059673         1.6238
  69   0.0000       0.107700         2.9307
  70   0.0000       0.113941         3.1005
  71   0.0000       0.132596         3.6081

MULLIKEN ATOMIC CHARGES
-----------------------
   0 S :    0.127129
   1 C :   -0.152365
   2 C :   -0.083132
   3 C :    0.022379
   4 C :   -0.171134
   5 H :    0.017643
   6 C :    0.110163
   7 H :    0.038885
   8 H :    0.010504
   9 C :   -0.061595
  10 H :    0.017376
  11 H :    0.032755
  12 C :   -0.066957
  13 H :    0.043160
  14 H :    0.023542
  15 H :    0.009154
  16 S :    0.094897
  17 C :   -0.095970
  18 C :   -0.057932
  19 C :   -0.044042
  20 C :   -0.175160
  21 H :    0.038118
  22 C :    0.080229
  23 H :    0.015200
  24 H :    0.019380
  25 C :   -0.011687
  26 H :    0.022172
  27 H :    0.014049
  28 C :   -0.063245
  29 H :    0.056674
  30 H :    0.027152
  31 H :    0.023616
  32 H :    0.072167
  33 H :    0.066874
Sum of atomic charges:   -0.0000000

LOEWDIN ATOMIC CHARGES
----------------------
   0 S :    0.412725
   1 C :   -0.198971
   2 C :   -0.059924
   3 C :   -0.062817
   4 C :   -0.210054
   5 H :    0.029014
   6 C :   -0.025002
   7 H :    0.035472
   8 H :    0.028486
   9 C :   -0.041976
  10 H :    0.015382
  11 H :    0.027794
  12 C :   -0.075413
  13 H :    0.031679
  14 H :    0.027531
  15 H :    0.020319
  16 S :    0.383751
  17 C :   -0.184327
  18 C :   -0.081189
  19 C :   -0.047211
  20 C :   -0.191638
  21 H :    0.039977
  22 C :   -0.029478
  23 H :    0.023541
  24 H :    0.032772
  25 C :   -0.032596
  26 H :    0.028254
  27 H :    0.018929
  28 C :   -0.074646
  29 H :    0.033006
  30 H :    0.029410
  31 H :    0.027786
  32 H :    0.036258
  33 H :    0.033154

  Mayer bond orders larger than 0.100000
B(  0-S ,  1-C ) :   1.1669 B(  0-S ,  4-C ) :   1.1446 B(  1-C ,  2-C ) :   1.5691
B(  1-C ,  4-C ) :   0.1016 B(  1-C , 32-H ) :   0.9626 B(  2-C ,  3-C ) :   1.2485
B(  2-C ,  6-C ) :   1.0247 B(  3-C ,  4-C ) :   1.5599 B(  3-C ,  5-H ) :   0.9867
B(  4-C , 20-C ) :   1.0675 B(  6-C ,  7-H ) :   0.9337 B(  6-C ,  8-H ) :   0.9368
B(  6-C ,  9-C ) :   1.0707 B(  9-C , 10-H ) :   0.9459 B(  9-C , 11-H ) :   0.9584
B(  9-C , 12-C ) :   1.0868 B( 12-C , 13-H ) :   0.9740 B( 12-C , 14-H ) :   0.9732
B( 12-C , 15-H ) :   0.9685 B( 16-S , 17-C ) :   1.1734 B( 16-S , 20-C ) :   1.1115
B( 17-C , 18-C ) :   1.6039 B( 17-C , 20-C ) :   0.1050 B( 17-C , 33-H ) :   0.9567
B( 18-C , 19-C ) :   1.2271 B( 18-C , 21-H ) :   0.9838 B( 19-C , 20-C ) :   1.5850
B( 19-C , 22-C ) :   1.0432 B( 22-C , 23-H ) :   0.9292 B( 22-C , 24-H ) :   0.9211
B( 22-C , 25-C ) :   1.0847 B( 25-C , 26-H ) :   0.9438 B( 25-C , 27-H ) :   0.9489
B( 25-C , 28-C ) :   1.0969 B( 28-C , 29-H ) :   0.9699 B( 28-C , 30-H ) :   0.9680
B( 28-C , 31-H ) :   0.9665

Dispersion correction           -0.014194770
FINAL SINGLE POINT ENERGY     -1339.852189386897

DIPOLE MOMENT
-------------
                                X             Y             Z
Electronic contribution:     18.93917      -4.38654      21.13789
Nuclear contribution   :    -19.35761       4.33944     -21.74957
                        -----------------------------------------
Total Dipole Moment    :     -0.41844      -0.04710      -0.61168
                        -----------------------------------------
Magnitude (a.u.)       :      0.74261
Magnitude (Debye)      :      1.88756

Rotational constants in cm-1:     0.018415     0.008432     0.006528
Rotational constants in MHz :   552.065814   252.773080   195.718976

                             ****ORCA TERMINATED NORMALLY****
TOTAL RUN TIME: 0 days 0 hours 0 minutes 28 seconds 587 msec
