                         Program Version 4.2.1 -  RELEASE  -
|  1> ! wB97X-D3 SP def2-SVP
|  2> %pal
|  3> nprocs 16
|  4> end
|  5>
|  6> * xyz 0 1
|  7> S 	 5.48444 	 -12.2456 	 62.2787
|  8> C 	 5.8538 	 -12.0194 	 63.9136
|  9> C 	 4.97926 	 -11.2096 	 64.6024
| 10> C 	 3.9395 	 -10.7026 	 63.792
| 11> C 	 4.14813 	 -11.0955 	 62.4824
| 12> H 	 3.18751 	 -9.93907 	 64.0012
| 13> C 	 5.16462 	 -10.7845 	 66.1175
| 14> H 	 4.5238 	 -9.99088 	 66.3989
| 15> H 	 6.10278 	 -10.4043 	 66.321
| 16> C 	 4.80785 	 -11.8907 	 67.1441
| 17> H 	 5.40887 	 -12.6268 	 66.95
| 18> H 	 5.06048 	 -11.7125 	 68.2473
| 19> C 	 3.36111 	 -12.4017 	 66.9595
| 20> H 	 2.98045 	 -12.9917 	 67.821
| 21> H 	 2.62267 	 -11.6397 	 66.7764
| 22> H 	 3.36373 	 -13.0421 	 66.0576
| 23> S 	 4.06193 	 -10.2866 	 59.7617
| 24> C 	 2.60513 	 -10.0732 	 58.9866
| 25> C 	 1.54639 	 -10.0262 	 59.8888
| 26> C 	 1.93837 	 -10.5941 	 61.1588
| 27> C 	 3.2712 	 -10.8001 	 61.3114
| 28> H 	 0.514555 	 -9.82806 	 59.5838
| 29> C 	 0.906281 	 -10.9825 	 62.2113
| 30> H 	 0.0600208 	 -10.3004 	 62.1206
| 31> H 	 1.26478 	 -10.9417 	 63.2244
| 32> C 	 0.489609 	 -12.4412 	 62.2273
| 33> H 	 1.28546 	 -13.0724 	 62.7091
| 34> H 	 0.420386 	 -12.8266 	 61.169
| 35> C 	 -0.73128 	 -12.7421 	 63.0406
| 36> H 	 -0.983372 	 -13.7586 	 62.7398
| 37> H 	 -1.65577 	 -12.1517 	 62.7442
| 38> H 	 -0.650055 	 -12.5975 	 64.05
| 39> H 	 6.49622 	 -12.6284 	 64.5065
| 40> H 	 2.49958 	 -9.6458 	 58.0039
| 41> *
| 42>
| 43>                          ****END OF INPUT****

CARTESIAN COORDINATES (ANGSTROEM)
---------------------------------
  S      5.484440  -12.245600   62.278700
  C      5.853800  -12.019400   63.913600
  C      4.979260  -11.209600   64.602400
  C      3.939500  -10.702600   63.792000
  C      4.148130  -11.095500   62.482400
  H      3.187510   -9.939070   64.001200
  C      5.164620  -10.784500   66.117500
  H      4.523800   -9.990880   66.398900
  H      6.102780  -10.404300   66.321000
  C      4.807850  -11.890700   67.144100
  H      5.408870  -12.626800   66.950000
  H      5.060480  -11.712500   68.247300
  C      3.361110  -12.401700   66.959500
  H      2.980450  -12.991700   67.821000
  H      2.622670  -11.639700   66.776400
  H      3.363730  -13.042100   66.057600
  S      4.061930  -10.286600   59.761700
  C      2.605130  -10.073200   58.986600
  C      1.546390  -10.026200   59.888800
  C      1.938370  -10.594100   61.158800
  C      3.271200  -10.800100   61.311400
  H      0.514555   -9.828060   59.583800
  C      0.906281  -10.982500   62.211300
  H      0.060021  -10.300400   62.120600
  H      1.264780  -10.941700   63.224400
  C      0.489609  -12.441200   62.227300
  H      1.285460  -13.072400   62.709100
  H      0.420386  -12.826600   61.169000
  C     -0.731280  -12.742100   63.040600
  H     -0.983372  -13.758600   62.739800
  H     -1.655770  -12.151700   62.744200
  H     -0.650055  -12.597500   64.050000
  H      6.496220  -12.628400   64.506500
  H      2.499580   -9.645800   58.003900

 Total Charge           Charge          ....    0
 Multiplicity           Mult            ....    1
 Number of Electrons    NEL             ....  134
 Basis Dimension        Dim             ....  322

ORBITAL ENERGIES
----------------

  NO   OCC          E(Eh)            E(eV)
   0   2.0000     -88.973414     -2421.0897
   1   2.0000     -88.960851     -2420.7478
   2   2.0000     -10.335459      -281.2421
   3   2.0000     -10.326734      -281.0047
   4   2.0000     -10.313309      -280.6394
   5   2.0000     -10.308484      -280.5081
   6   2.0000     -10.305255      -280.4202
   7   2.0000     -10.302061      -280.3333
   8   2.0000     -10.298596      -280.2391
   9   2.0000     -10.295564      -280.1565
  10   2.0000     -10.288299      -279.9589
  11   2.0000     -10.285607      -279.8856
  12   2.0000     -10.285156      -279.8733
  13   2.0000     -10.279523      -279.7200
  14   2.0000     -10.277657      -279.6693
  15   2.0000     -10.272446      -279.5275
  16   2.0000      -8.088645      -220.1032
  17   2.0000      -8.076727      -219.7789
  18   2.0000      -6.046911      -164.5448
  19   2.0000      -6.043163      -164.4428
  20   2.0000      -6.039536      -164.3441
  21   2.0000      -6.035083      -164.2229
  22   2.0000      -6.031079      -164.1140
  23   2.0000      -6.027552      -164.0180
  24   2.0000      -1.010596       -27.4997
  25   2.0000      -0.992020       -26.9942
  26   2.0000      -0.913694       -24.8629
  27   2.0000      -0.908927       -24.7332
  28   2.0000      -0.869760       -23.6674
  29   2.0000      -0.854311       -23.2470
  30   2.0000      -0.850255       -23.1366
  31   2.0000      -0.810935       -22.0667
  32   2.0000      -0.786394       -21.3989
  33   2.0000      -0.776682       -21.1346
  34   2.0000      -0.709345       -19.3023
  35   2.0000      -0.700097       -19.0506
  36   2.0000      -0.686421       -18.6785
  37   2.0000      -0.664688       -18.0871
  38   2.0000      -0.643568       -17.5124
  39   2.0000      -0.618849       -16.8397
  40   2.0000      -0.600675       -16.3452
  41   2.0000      -0.572700       -15.5840
  42   2.0000      -0.562255       -15.2997
  43   2.0000      -0.552589       -15.0367
  44   2.0000      -0.538956       -14.6657
  45   2.0000      -0.526521       -14.3274
  46   2.0000      -0.517865       -14.0918
  47   2.0000      -0.505546       -13.7566
  48   2.0000      -0.504445       -13.7267
  49   2.0000      -0.499078       -13.5806
  50   2.0000      -0.491035       -13.3617
  51   2.0000      -0.483037       -13.1441
  52   2.0000      -0.472676       -12.8622
  53   2.0000      -0.471062       -12.8183
  54   2.0000      -0.460937       -12.5427
  55   2.0000      -0.451618       -12.2892
  56   2.0000      -0.446680       -12.1548
  57   2.0000      -0.436977       -11.8908
  58   2.0000      -0.431371       -11.7382
  59   2.0000      -0.425951       -11.5907
  60   2.0000      -0.415703       -11.3119
  61   2.0000      -0.413045       -11.2395
  62   2.0000      -0.404452       -11.0057
  63   2.0000      -0.355904        -9.6846
  64   2.0000      -0.339815        -9.2468
  65   2.0000      -0.326682        -8.8895
  66   2.0000      -0.289599        -7.8804
  67   0.0000       0.026166         0.7120
  68   0.0000       0.069099         1.8803
  69   0.0000       0.108079         2.9410
  70   0.0000       0.114160         3.1065
  71   0.0000       0.130294         3.5455

MULLIKEN ATOMIC CHARGES
-----------------------
   0 S :    0.135830
   1 C :   -0.076484
   2 C :   -0.121553
   3 C :    0.018192
   4 C :   -0.159146
   5 H :    0.039937
   6 C :    0.115331
   7 H :    0.008217
   8 H :    0.014488
   9 C :   -0.036357
  10 H :   -0.021422
  11 H :    0.034053
  12 C :   -0.080921
  13 H :    0.040167
  14 H :    0.021999
  15 H :    0.043485
  16 S :    0.094079
  17 C :   -0.074651
  18 C :   -0.044461
  19 C :   -0.072305
  20 C :   -0.122321
  21 H :    0.026367
  22 C :    0.080194
  23 H :    0.018647
  24 H :    0.000797
  25 C :   -0.109030
  26 H :    0.039422
  27 H :    0.033331
  28 C :   -0.021913
  29 H :    0.034883
  30 H :    0.022559
  31 H :    0.020286
  32 H :    0.035699
  33 H :    0.062601
Sum of atomic charges:   -0.0000000

LOEWDIN ATOMIC CHARGES
----------------------
   0 S :    0.432190
   1 C :   -0.214045
   2 C :   -0.058352
   3 C :   -0.060633
   4 C :   -0.178776
   5 H :    0.041028
   6 C :   -0.012938
   7 H :    0.023500
   8 H :    0.020822
   9 C :   -0.035339
  10 H :   -0.005954
  11 H :    0.032743
  12 C :   -0.068992
  13 H :    0.029756
  14 H :    0.017379
  15 H :    0.030400
  16 S :    0.408164
  17 C :   -0.204418
  18 C :   -0.077645
  19 C :   -0.058062
  20 C :   -0.186173
  21 H :    0.032144
  22 C :   -0.036306
  23 H :    0.026984
  24 H :    0.025778
  25 C :   -0.044854
  26 H :    0.031996
  27 H :    0.024654
  28 C :   -0.061604
  29 H :    0.033483
  30 H :    0.027386
  31 H :    0.011131
  32 H :    0.023489
  33 H :    0.031066

  Mayer bond orders larger than 0.100000
B(  0-S ,  1-C ) :   1.1503 B(  0-S ,  4-C ) :   1.1651 B(  1-C ,  2-C ) :   1.6243
B(  1-C , 32-H ) :   0.9597 B(  2-C ,  3-C ) :   1.2509 B(  2-C ,  6-C ) :   1.0003
B(  3-C ,  4-C ) :   1.5863 B(  3-C ,  5-H ) :   0.9825 B(  4-C , 20-C ) :   1.0136
B(  6-C ,  7-H ) :   0.9505 B(  6-C ,  8-H ) :   0.9484 B(  6-C ,  9-C ) :   1.0613
B(  9-C , 10-H ) :   0.9560 B(  9-C , 11-H ) :   0.9579 B(  9-C , 12-C ) :   1.0643
B( 12-C , 13-H ) :   0.9761 B( 12-C , 14-H ) :   0.9818 B( 12-C , 15-H ) :   0.9736
B( 16-S , 17-C ) :   1.1926 B( 16-S , 20-C ) :   1.1139 B( 17-C , 18-C ) :   1.5877
B( 17-C , 33-H ) :   0.9624 B( 18-C , 19-C ) :   1.2451 B( 18-C , 21-H ) :   0.9867
B( 19-C , 20-C ) :   1.6307 B( 19-C , 22-C ) :   1.0533 B( 22-C , 23-H ) :   0.9382
B( 22-C , 24-H ) :   0.9330 B( 22-C , 25-C ) :   1.0546 B( 25-C , 26-H ) :   0.9507
B( 25-C , 27-H ) :   0.9582 B( 25-C , 28-C ) :   1.0864 B( 28-C , 29-H ) :   0.9715
B( 28-C , 30-H ) :   0.9715 B( 28-C , 31-H ) :   0.9751

Dispersion correction           -0.014679390
FINAL SINGLE POINT ENERGY     -1339.845293212296

DIPOLE MOMENT
-------------
                                X             Y             Z
Electronic contribution:     17.60157       6.34995     -23.61211
Nuclear contribution   :    -17.97778      -6.33082      24.07158
                        -----------------------------------------
Total Dipole Moment    :     -0.37620       0.01914       0.45948
                        -----------------------------------------
Magnitude (a.u.)       :      0.59415
Magnitude (Debye)      :      1.51021

Rotational constants in cm-1:     0.018173     0.009456     0.006927
Rotational constants in MHz :   544.826986   283.484652   207.675037

                             ****ORCA TERMINATED NORMALLY****
TOTAL RUN TIME: 0 days 0 hours 0 minutes 31 seconds 598 msec
