                         Program Version 4.2.1 -  RELEASE  -
|  1> ! wB97X-D3 SP def2-SVP
|  2> %pal
|  3> nprocs 16
|  4> end
|  5>
|  6> * xyz 0 1
|  7> S 	 36.7266 	 11.1355 	 83.4542
|  8> C 	 36.5765 	 9.89851 	 82.1925
|  9> C 	 37.497 	 8.83205 	 82.47
| 10> C 	 38.4179 	 9.15799 	 83.5061
| 11> C 	 38.1131 	 10.3333 	 84.1951
| 12> H 	 39.1292 	 8.44758 	 83.8856
| 13> C 	 37.5359 	 7.57155 	 81.6424
| 14> H 	 38.5488 	 7.06048 	 81.8142
| 15> H 	 37.5663 	 7.85417 	 80.5589
| 16> C 	 36.3307 	 6.63281 	 81.8836
| 17> H 	 36.1757 	 6.47763 	 82.9901
| 18> H 	 35.4314 	 7.12721 	 81.6071
| 19> C 	 36.5715 	 5.25289 	 81.2717
| 20> H 	 35.7352 	 4.67366 	 81.5596
| 21> H 	 36.623 	 5.32795 	 80.2178
| 22> H 	 37.4954 	 4.78569 	 81.6013
| 23> S 	 39.4813 	 9.59612 	 86.4978
| 24> C 	 39.9794 	 10.7976 	 87.6276
| 25> C 	 39.5111 	 12.0504 	 87.2526
| 26> C 	 38.8916 	 12.0208 	 85.9431
| 27> C 	 38.8324 	 10.8021 	 85.3645
| 28> H 	 39.7044 	 12.9264 	 87.9149
| 29> C 	 38.4234 	 13.3067 	 85.3486
| 30> H 	 38.5088 	 13.114 	 84.2828
| 31> H 	 39.1932 	 14.0841 	 85.5711
| 32> C 	 37.0458 	 13.9363 	 85.6754
| 33> H 	 36.9973 	 14.6002 	 86.5657
| 34> H 	 36.207 	 13.2442 	 85.683
| 35> C 	 36.6307 	 15.0077 	 84.6719
| 36> H 	 37.4086 	 15.7409 	 84.7136
| 37> H 	 35.5901 	 15.3461 	 84.8804
| 38> H 	 36.7195 	 14.509 	 83.7361
| 39> H 	 35.8596 	 9.93852 	 81.3784
| 40> H 	 40.5862 	 10.6571 	 88.4847
| 41> *
| 42>
| 43>                          ****END OF INPUT****

CARTESIAN COORDINATES (ANGSTROEM)
---------------------------------
  S     36.726600   11.135500   83.454200
  C     36.576500    9.898510   82.192500
  C     37.497000    8.832050   82.470000
  C     38.417900    9.157990   83.506100
  C     38.113100   10.333300   84.195100
  H     39.129200    8.447580   83.885600
  C     37.535900    7.571550   81.642400
  H     38.548800    7.060480   81.814200
  H     37.566300    7.854170   80.558900
  C     36.330700    6.632810   81.883600
  H     36.175700    6.477630   82.990100
  H     35.431400    7.127210   81.607100
  C     36.571500    5.252890   81.271700
  H     35.735200    4.673660   81.559600
  H     36.623000    5.327950   80.217800
  H     37.495400    4.785690   81.601300
  S     39.481300    9.596120   86.497800
  C     39.979400   10.797600   87.627600
  C     39.511100   12.050400   87.252600
  C     38.891600   12.020800   85.943100
  C     38.832400   10.802100   85.364500
  H     39.704400   12.926400   87.914900
  C     38.423400   13.306700   85.348600
  H     38.508800   13.114000   84.282800
  H     39.193200   14.084100   85.571100
  C     37.045800   13.936300   85.675400
  H     36.997300   14.600200   86.565700
  H     36.207000   13.244200   85.683000
  C     36.630700   15.007700   84.671900
  H     37.408600   15.740900   84.713600
  H     35.590100   15.346100   84.880400
  H     36.719500   14.509000   83.736100
  H     35.859600    9.938520   81.378400
  H     40.586200   10.657100   88.484700

 Total Charge           Charge          ....    0
 Multiplicity           Mult            ....    1
 Number of Electrons    NEL             ....  134
 Basis Dimension        Dim             ....  322

ORBITAL ENERGIES
----------------

  NO   OCC          E(Eh)            E(eV)
   0   2.0000     -88.973928     -2421.1037
   1   2.0000     -88.964480     -2420.8466
   2   2.0000     -10.335499      -281.2432
   3   2.0000     -10.326005      -280.9849
   4   2.0000     -10.322256      -280.8829
   5   2.0000     -10.316539      -280.7273
   6   2.0000     -10.307526      -280.4820
   7   2.0000     -10.300514      -280.2912
   8   2.0000     -10.299658      -280.2679
   9   2.0000     -10.297283      -280.2033
  10   2.0000     -10.294935      -280.1394
  11   2.0000     -10.292021      -280.0601
  12   2.0000     -10.287924      -279.9486
  13   2.0000     -10.283546      -279.8295
  14   2.0000     -10.272196      -279.5207
  15   2.0000     -10.269661      -279.4517
  16   2.0000      -8.086904      -220.0559
  17   2.0000      -8.079357      -219.8505
  18   2.0000      -6.045480      -164.5059
  19   2.0000      -6.041485      -164.3972
  20   2.0000      -6.038030      -164.3031
  21   2.0000      -6.037884      -164.2992
  22   2.0000      -6.033891      -164.1905
  23   2.0000      -6.029885      -164.0815
  24   2.0000      -1.007066       -27.4037
  25   2.0000      -0.980939       -26.6927
  26   2.0000      -0.911839       -24.8124
  27   2.0000      -0.908205       -24.7135
  28   2.0000      -0.870893       -23.6982
  29   2.0000      -0.857454       -23.3325
  30   2.0000      -0.850279       -23.1373
  31   2.0000      -0.812496       -22.1091
  32   2.0000      -0.779948       -21.2235
  33   2.0000      -0.767690       -20.8899
  34   2.0000      -0.704667       -19.1750
  35   2.0000      -0.702040       -19.1035
  36   2.0000      -0.688944       -18.7471
  37   2.0000      -0.669052       -18.2058
  38   2.0000      -0.636432       -17.3182
  39   2.0000      -0.614616       -16.7246
  40   2.0000      -0.594793       -16.1851
  41   2.0000      -0.572107       -15.5678
  42   2.0000      -0.566680       -15.4201
  43   2.0000      -0.558356       -15.1936
  44   2.0000      -0.532768       -14.4974
  45   2.0000      -0.528682       -14.3862
  46   2.0000      -0.526650       -14.3309
  47   2.0000      -0.514736       -14.0067
  48   2.0000      -0.503448       -13.6995
  49   2.0000      -0.502913       -13.6850
  50   2.0000      -0.490670       -13.3518
  51   2.0000      -0.478037       -13.0081
  52   2.0000      -0.474566       -12.9136
  53   2.0000      -0.463216       -12.6048
  54   2.0000      -0.457741       -12.4558
  55   2.0000      -0.456041       -12.4095
  56   2.0000      -0.443259       -12.0617
  57   2.0000      -0.439051       -11.9472
  58   2.0000      -0.429058       -11.6753
  59   2.0000      -0.419114       -11.4047
  60   2.0000      -0.417076       -11.3492
  61   2.0000      -0.414898       -11.2899
  62   2.0000      -0.402349       -10.9485
  63   2.0000      -0.356872        -9.7110
  64   2.0000      -0.332332        -9.0432
  65   2.0000      -0.328347        -8.9348
  66   2.0000      -0.285578        -7.7710
  67   0.0000       0.017338         0.4718
  68   0.0000       0.078995         2.1496
  69   0.0000       0.106125         2.8878
  70   0.0000       0.110066         2.9950
  71   0.0000       0.128816         3.5053

MULLIKEN ATOMIC CHARGES
-----------------------
   0 S :    0.109612
   1 C :   -0.131369
   2 C :   -0.072231
   3 C :    0.006834
   4 C :   -0.123714
   5 H :    0.017150
   6 C :    0.007608
   7 H :    0.030838
   8 H :    0.041999
   9 C :   -0.087572
  10 H :    0.034575
  11 H :    0.019972
  12 C :    0.002805
  13 H :    0.029662
  14 H :    0.018972
  15 H :    0.030998
  16 S :    0.087259
  17 C :   -0.072704
  18 C :   -0.042068
  19 C :   -0.067057
  20 C :   -0.090918
  21 H :    0.035620
  22 C :    0.016844
  23 H :    0.021949
  24 H :    0.030912
  25 C :   -0.062141
  26 H :    0.028317
  27 H :    0.028482
  28 C :   -0.035336
  29 H :    0.018601
  30 H :    0.048871
  31 H :    0.011415
  32 H :    0.057594
  33 H :    0.048221
Sum of atomic charges:    0.0000000

LOEWDIN ATOMIC CHARGES
----------------------
   0 S :    0.414295
   1 C :   -0.200610
   2 C :   -0.054512
   3 C :   -0.069800
   4 C :   -0.182423
   5 H :    0.026909
   6 C :   -0.043450
   7 H :    0.034576
   8 H :    0.035907
   9 C :   -0.038958
  10 H :    0.030228
  11 H :    0.017864
  12 C :   -0.055125
  13 H :    0.024307
  14 H :    0.018824
  15 H :    0.027103
  16 S :    0.402036
  17 C :   -0.182032
  18 C :   -0.071867
  19 C :   -0.062165
  20 C :   -0.186821
  21 H :    0.039519
  22 C :   -0.044377
  23 H :    0.023537
  24 H :    0.038732
  25 C :   -0.045855
  26 H :    0.026901
  27 H :    0.016471
  28 C :   -0.056788
  29 H :    0.017520
  30 H :    0.033278
  31 H :    0.012689
  32 H :    0.028307
  33 H :    0.025783

  Mayer bond orders larger than 0.100000
B(  0-S ,  1-C ) :   1.1430 B(  0-S ,  4-C ) :   1.1503 B(  1-C ,  2-C ) :   1.5453
B(  1-C ,  4-C ) :   0.1045 B(  1-C , 32-H ) :   0.9727 B(  2-C ,  3-C ) :   1.2967
B(  2-C ,  6-C ) :   1.0270 B(  3-C ,  4-C ) :   1.5075 B(  3-C ,  5-H ) :   0.9863
B(  4-C , 20-C ) :   1.0950 B(  6-C ,  7-H ) :   0.9502 B(  6-C ,  8-H ) :   0.9402
B(  6-C ,  9-C ) :   1.0480 B(  9-C , 10-H ) :   0.9591 B(  9-C , 11-H ) :   0.9546
B(  9-C , 12-C ) :   1.0810 B( 12-C , 13-H ) :   0.9736 B( 12-C , 14-H ) :   0.9733
B( 12-C , 15-H ) :   0.9746 B( 16-S , 17-C ) :   1.1570 B( 16-S , 20-C ) :   1.1010
B( 17-C , 18-C ) :   1.6157 B( 17-C , 33-H ) :   0.9705 B( 18-C , 19-C ) :   1.2174
B( 18-C , 21-H ) :   0.9874 B( 19-C , 20-C ) :   1.6134 B( 19-C , 22-C ) :   1.0538
B( 22-C , 23-H ) :   0.9365 B( 22-C , 24-H ) :   0.9273 B( 22-C , 25-C ) :   1.0571
B( 25-C , 26-H ) :   0.9603 B( 25-C , 27-H ) :   0.9590 B( 25-C , 28-C ) :   1.0642
B( 28-C , 29-H ) :   0.9784 B( 28-C , 30-H ) :   0.9742 B( 28-C , 31-H ) :   0.9756

Dispersion correction           -0.013807613
FINAL SINGLE POINT ENERGY     -1339.875190084649

DIPOLE MOMENT
-------------
                                X             Y             Z
Electronic contribution:      8.22544       0.90695      10.59449
Nuclear contribution   :     -8.28496      -0.96986     -10.68482
                        -----------------------------------------
Total Dipole Moment    :     -0.05952      -0.06291      -0.09033
                        -----------------------------------------
Magnitude (a.u.)       :      0.12513
Magnitude (Debye)      :      0.31807

Rotational constants in cm-1:     0.021434     0.007902     0.005972
Rotational constants in MHz :   642.585571   236.881495   179.045286

                             ****ORCA TERMINATED NORMALLY****
TOTAL RUN TIME: 0 days 0 hours 0 minutes 31 seconds 412 msec
