                         Program Version 4.2.1 -  RELEASE  -
|  1> ! wB97X-D3 SP def2-SVP
|  2> %pal
|  3> nprocs 16
|  4> end
|  5>
|  6> * xyz 0 1
|  7> S 	 -34.2215 	 60.2858 	 108.661
|  8> C 	 -32.6897 	 60.978 	 109.197
|  9> C 	 -31.8544 	 60.0989 	 109.886
| 10> C 	 -32.4819 	 58.7682 	 109.904
| 11> C 	 -33.7503 	 58.6904 	 109.32
| 12> H 	 -32.0437 	 57.9234 	 110.336
| 13> C 	 -30.5851 	 60.3886 	 110.646
| 14> H 	 -30.2555 	 59.3941 	 111.03
| 15> H 	 -30.8055 	 61.0898 	 111.434
| 16> C 	 -29.4864 	 60.9011 	 109.733
| 17> H 	 -29.1935 	 60.0889 	 109.104
| 18> H 	 -29.8501 	 61.6759 	 109.076
| 19> C 	 -28.2366 	 61.4416 	 110.522
| 20> H 	 -28.3014 	 62.2279 	 111.265
| 21> H 	 -27.8669 	 60.4955 	 111.007
| 22> H 	 -27.4422 	 61.851 	 109.859
| 23> S 	 -36.3215 	 57.9653 	 109.754
| 24> C 	 -36.9052 	 56.4984 	 109.279
| 25> C 	 -35.8654 	 55.6004 	 109.062
| 26> C 	 -34.5779 	 56.233 	 108.864
| 27> C 	 -34.6655 	 57.6006 	 109.21
| 28> H 	 -36.1286 	 54.5521 	 108.933
| 29> C 	 -33.328 	 55.4444 	 108.524
| 30> H 	 -33.4523 	 54.495 	 108.984
| 31> H 	 -32.6936 	 56.0044 	 109.183
| 32> C 	 -32.8108 	 55.4839 	 107.068
| 33> H 	 -32.7889 	 56.4792 	 106.735
| 34> H 	 -33.5923 	 54.9985 	 106.435
| 35> C 	 -31.3935 	 54.8988 	 106.745
| 36> H 	 -31.2687 	 53.8885 	 107.022
| 37> H 	 -30.6548 	 55.409 	 107.321
| 38> H 	 -31.2521 	 54.9006 	 105.67
| 39> H 	 -32.3693 	 62.0535 	 108.955
| 40> H 	 -37.9624 	 56.1455 	 109.441
| 41> *
| 42>
| 43>                          ****END OF INPUT****

CARTESIAN COORDINATES (ANGSTROEM)
---------------------------------
  S    -34.221500   60.285800  108.661000
  C    -32.689700   60.978000  109.197000
  C    -31.854400   60.098900  109.886000
  C    -32.481900   58.768200  109.904000
  C    -33.750300   58.690400  109.320000
  H    -32.043700   57.923400  110.336000
  C    -30.585100   60.388600  110.646000
  H    -30.255500   59.394100  111.030000
  H    -30.805500   61.089800  111.434000
  C    -29.486400   60.901100  109.733000
  H    -29.193500   60.088900  109.104000
  H    -29.850100   61.675900  109.076000
  C    -28.236600   61.441600  110.522000
  H    -28.301400   62.227900  111.265000
  H    -27.866900   60.495500  111.007000
  H    -27.442200   61.851000  109.859000
  S    -36.321500   57.965300  109.754000
  C    -36.905200   56.498400  109.279000
  C    -35.865400   55.600400  109.062000
  C    -34.577900   56.233000  108.864000
  C    -34.665500   57.600600  109.210000
  H    -36.128600   54.552100  108.933000
  C    -33.328000   55.444400  108.524000
  H    -33.452300   54.495000  108.984000
  H    -32.693600   56.004400  109.183000
  C    -32.810800   55.483900  107.068000
  H    -32.788900   56.479200  106.735000
  H    -33.592300   54.998500  106.435000
  C    -31.393500   54.898800  106.745000
  H    -31.268700   53.888500  107.022000
  H    -30.654800   55.409000  107.321000
  H    -31.252100   54.900600  105.670000
  H    -32.369300   62.053500  108.955000
  H    -37.962400   56.145500  109.441000

 Total Charge           Charge          ....    0
 Multiplicity           Mult            ....    1
 Number of Electrons    NEL             ....  134
 Basis Dimension        Dim             ....  322

ORBITAL ENERGIES
----------------

  NO   OCC          E(Eh)            E(eV)
   0   2.0000     -88.967036     -2420.9161
   1   2.0000     -88.962302     -2420.7873
   2   2.0000     -10.332061      -281.1497
   3   2.0000     -10.326189      -280.9899
   4   2.0000     -10.322422      -280.8874
   5   2.0000     -10.312952      -280.6297
   6   2.0000     -10.309575      -280.5378
   7   2.0000     -10.305914      -280.4382
   8   2.0000     -10.296953      -280.1943
   9   2.0000     -10.296147      -280.1724
  10   2.0000     -10.291840      -280.0552
  11   2.0000     -10.288760      -279.9714
  12   2.0000     -10.287819      -279.9458
  13   2.0000     -10.287147      -279.9275
  14   2.0000     -10.286336      -279.9054
  15   2.0000     -10.274256      -279.5767
  16   2.0000      -8.080816      -219.8902
  17   2.0000      -8.078751      -219.8340
  18   2.0000      -6.039493      -164.3429
  19   2.0000      -6.037048      -164.2764
  20   2.0000      -6.035421      -164.2322
  21   2.0000      -6.032939      -164.1646
  22   2.0000      -6.031476      -164.1248
  23   2.0000      -6.029684      -164.0760
  24   2.0000      -1.006727       -27.3944
  25   2.0000      -0.978883       -26.6368
  26   2.0000      -0.914742       -24.8914
  27   2.0000      -0.908064       -24.7097
  28   2.0000      -0.867160       -23.5966
  29   2.0000      -0.853143       -23.2152
  30   2.0000      -0.842704       -22.9311
  31   2.0000      -0.808091       -21.9893
  32   2.0000      -0.787535       -21.4299
  33   2.0000      -0.770131       -20.9563
  34   2.0000      -0.712379       -19.3848
  35   2.0000      -0.706532       -19.2257
  36   2.0000      -0.692876       -18.8541
  37   2.0000      -0.658927       -17.9303
  38   2.0000      -0.633633       -17.2420
  39   2.0000      -0.618587       -16.8326
  40   2.0000      -0.587491       -15.9864
  41   2.0000      -0.575981       -15.6732
  42   2.0000      -0.564401       -15.3581
  43   2.0000      -0.552768       -15.0416
  44   2.0000      -0.530212       -14.4278
  45   2.0000      -0.522485       -14.2175
  46   2.0000      -0.517071       -14.0702
  47   2.0000      -0.512309       -13.9406
  48   2.0000      -0.507223       -13.8022
  49   2.0000      -0.498215       -13.5571
  50   2.0000      -0.491749       -13.3812
  51   2.0000      -0.479051       -13.0356
  52   2.0000      -0.475280       -12.9330
  53   2.0000      -0.463989       -12.6258
  54   2.0000      -0.454578       -12.3697
  55   2.0000      -0.445613       -12.1257
  56   2.0000      -0.445167       -12.1136
  57   2.0000      -0.440552       -11.9880
  58   2.0000      -0.436224       -11.8703
  59   2.0000      -0.429854       -11.6969
  60   2.0000      -0.419672       -11.4198
  61   2.0000      -0.416603       -11.3363
  62   2.0000      -0.414167       -11.2701
  63   2.0000      -0.346702        -9.4342
  64   2.0000      -0.330921        -9.0048
  65   2.0000      -0.323825        -8.8117
  66   2.0000      -0.285595        -7.7714
  67   0.0000       0.025404         0.6913
  68   0.0000       0.066533         1.8105
  69   0.0000       0.105284         2.8649
  70   0.0000       0.116530         3.1709
  71   0.0000       0.126007         3.4288

MULLIKEN ATOMIC CHARGES
-----------------------
   0 S :    0.113411
   1 C :   -0.153896
   2 C :   -0.101880
   3 C :    0.044703
   4 C :   -0.155394
   5 H :   -0.003205
   6 C :    0.093571
   7 H :    0.023673
   8 H :    0.045047
   9 C :   -0.080999
  10 H :    0.028757
  11 H :    0.026746
  12 C :   -0.073614
  13 H :    0.036404
  14 H :    0.032779
  15 H :    0.038488
  16 S :    0.116861
  17 C :   -0.099464
  18 C :   -0.069282
  19 C :   -0.061862
  20 C :   -0.171286
  21 H :    0.021171
  22 C :    0.128326
  23 H :    0.014544
  24 H :   -0.008573
  25 C :   -0.056391
  26 H :    0.025558
  27 H :    0.029598
  28 C :   -0.013651
  29 H :    0.012645
  30 H :    0.025762
  31 H :    0.038385
  32 H :    0.075194
  33 H :    0.077874
Sum of atomic charges:   -0.0000000

LOEWDIN ATOMIC CHARGES
----------------------
   0 S :    0.388208
   1 C :   -0.205092
   2 C :   -0.062747
   3 C :   -0.054014
   4 C :   -0.188812
   5 H :    0.017243
   6 C :   -0.027062
   7 H :    0.034545
   8 H :    0.034467
   9 C :   -0.035357
  10 H :    0.025600
  11 H :    0.017451
  12 C :   -0.076464
  13 H :    0.022374
  14 H :    0.030062
  15 H :    0.029762
  16 S :    0.438934
  17 C :   -0.227236
  18 C :   -0.082652
  19 C :   -0.045058
  20 C :   -0.202975
  21 H :    0.029029
  22 C :   -0.030313
  23 H :    0.027728
  24 H :    0.027916
  25 C :   -0.033044
  26 H :    0.022079
  27 H :    0.027668
  28 C :   -0.057141
  29 H :    0.017214
  30 H :    0.022463
  31 H :    0.031309
  32 H :    0.041107
  33 H :    0.042807

  Mayer bond orders larger than 0.100000
B(  0-S ,  1-C ) :   1.1368 B(  0-S ,  4-C ) :   1.1278 B(  1-C ,  2-C ) :   1.6267
B(  1-C , 32-H ) :   0.9520 B(  2-C ,  3-C ) :   1.2309 B(  2-C ,  6-C ) :   1.0140
B(  3-C ,  4-C ) :   1.5872 B(  3-C ,  5-H ) :   0.9899 B(  4-C , 20-C ) :   1.0739
B(  6-C ,  7-H ) :   0.9389 B(  6-C ,  8-H ) :   0.9415 B(  6-C ,  9-C ) :   1.0587
B(  9-C , 10-H ) :   0.9558 B(  9-C , 11-H ) :   0.9648 B(  9-C , 12-C ) :   1.0674
B( 12-C , 13-H ) :   0.9802 B( 12-C , 14-H ) :   0.9753 B( 12-C , 15-H ) :   0.9759
B( 16-S , 17-C ) :   1.1891 B( 16-S , 20-C ) :   1.1556 B( 17-C , 18-C ) :   1.5778
B( 17-C , 20-C ) :   0.1002 B( 17-C , 33-H ) :   0.9580 B( 18-C , 19-C ) :   1.2553
B( 18-C , 21-H ) :   0.9878 B( 19-C , 20-C ) :   1.5528 B( 19-C , 22-C ) :   1.0163
B( 22-C , 23-H ) :   0.9311 B( 22-C , 24-H ) :   0.9283 B( 22-C , 25-C ) :   1.0564
B( 25-C , 26-H ) :   0.9555 B( 25-C , 27-H ) :   0.9559 B( 25-C , 28-C ) :   1.0820
B( 28-C , 29-H ) :   0.9756 B( 28-C , 30-H ) :   0.9753 B( 28-C , 31-H ) :   0.9745

Dispersion correction           -0.013380489
FINAL SINGLE POINT ENERGY     -1339.860027988252

DIPOLE MOMENT
-------------
                                X             Y             Z
Electronic contribution:    -29.35679       5.71880       2.79523
Nuclear contribution   :     29.89946      -6.02858      -2.67106
                        -----------------------------------------
Total Dipole Moment    :      0.54266      -0.30978       0.12417
                        -----------------------------------------
Magnitude (a.u.)       :      0.63708
Magnitude (Debye)      :      1.61932

Rotational constants in cm-1:     0.018326     0.007983     0.006110
Rotational constants in MHz :   549.413787   239.338730   183.158403

                             ****ORCA TERMINATED NORMALLY****
TOTAL RUN TIME: 0 days 0 hours 0 minutes 29 seconds 264 msec
