                         Program Version 4.2.1 -  RELEASE  -
|  1> ! wB97X-D3 SP def2-SVP
|  2> %pal
|  3> nprocs 16
|  4> end
|  5>
|  6> * xyz 0 1
|  7> S 	 5.81364 	 28.2861 	 69.7548
|  8> C 	 4.76448 	 26.92 	 69.2382
|  9> C 	 4.83269 	 26.7166 	 67.8492
| 10> C 	 5.91016 	 27.49 	 67.3007
| 11> C 	 6.52817 	 28.3917 	 68.139
| 12> H 	 5.99911 	 27.5282 	 66.2747
| 13> C 	 4.11056 	 25.739 	 66.9755
| 14> H 	 3.26526 	 25.4874 	 67.5299
| 15> H 	 4.67084 	 24.7978 	 66.9194
| 16> C 	 3.70994 	 26.1892 	 65.5651
| 17> H 	 3.15689 	 27.1501 	 65.6374
| 18> H 	 4.50407 	 26.3531 	 64.8505
| 19> C 	 2.7796 	 25.1289 	 65.0122
| 20> H 	 2.6091 	 25.1559 	 63.9511
| 21> H 	 3.1627 	 24.1603 	 65.1595
| 22> H 	 1.84589 	 25.1827 	 65.5785
| 23> S 	 6.67463 	 31.1261 	 68.1286
| 24> C 	 7.8439 	 31.987 	 67.1793
| 25> C 	 8.67564 	 31.0778 	 66.5297
| 26> C 	 8.34367 	 29.7211 	 66.8188
| 27> C 	 7.34655 	 29.5552 	 67.748
| 28> H 	 9.46364 	 31.4973 	 65.8658
| 29> C 	 9.09595 	 28.487 	 66.2248
| 30> H 	 8.70195 	 27.5002 	 66.6464
| 31> H 	 10.1512 	 28.4751 	 66.5033
| 32> C 	 9.02579 	 28.3575 	 64.6944
| 33> H 	 9.44255 	 29.2004 	 64.1863
| 34> H 	 7.93728 	 28.2837 	 64.4177
| 35> C 	 9.85212 	 27.1292 	 64.2126
| 36> H 	 9.5506 	 26.2107 	 64.7445
| 37> H 	 10.9083 	 27.165 	 64.2918
| 38> H 	 9.80201 	 26.9253 	 63.1555
| 39> H 	 3.94959 	 26.5455 	 69.781
| 40> H 	 7.99597 	 33.0568 	 67.0991
| 41> *
| 42>
| 43>                          ****END OF INPUT****

CARTESIAN COORDINATES (ANGSTROEM)
---------------------------------
  S      5.813640   28.286100   69.754800
  C      4.764480   26.920000   69.238200
  C      4.832690   26.716600   67.849200
  C      5.910160   27.490000   67.300700
  C      6.528170   28.391700   68.139000
  H      5.999110   27.528200   66.274700
  C      4.110560   25.739000   66.975500
  H      3.265260   25.487400   67.529900
  H      4.670840   24.797800   66.919400
  C      3.709940   26.189200   65.565100
  H      3.156890   27.150100   65.637400
  H      4.504070   26.353100   64.850500
  C      2.779600   25.128900   65.012200
  H      2.609100   25.155900   63.951100
  H      3.162700   24.160300   65.159500
  H      1.845890   25.182700   65.578500
  S      6.674630   31.126100   68.128600
  C      7.843900   31.987000   67.179300
  C      8.675640   31.077800   66.529700
  C      8.343670   29.721100   66.818800
  C      7.346550   29.555200   67.748000
  H      9.463640   31.497300   65.865800
  C      9.095950   28.487000   66.224800
  H      8.701950   27.500200   66.646400
  H     10.151200   28.475100   66.503300
  C      9.025790   28.357500   64.694400
  H      9.442550   29.200400   64.186300
  H      7.937280   28.283700   64.417700
  C      9.852120   27.129200   64.212600
  H      9.550600   26.210700   64.744500
  H     10.908300   27.165000   64.291800
  H      9.802010   26.925300   63.155500
  H      3.949590   26.545500   69.781000
  H      7.995970   33.056800   67.099100

 Total Charge           Charge          ....    0
 Multiplicity           Mult            ....    1
 Number of Electrons    NEL             ....  134
 Basis Dimension        Dim             ....  322

ORBITAL ENERGIES
----------------

  NO   OCC          E(Eh)            E(eV)
   0   2.0000     -88.968755     -2420.9629
   1   2.0000     -88.963976     -2420.8329
   2   2.0000     -10.334580      -281.2182
   3   2.0000     -10.327587      -281.0279
   4   2.0000     -10.318768      -280.7880
   5   2.0000     -10.316948      -280.7384
   6   2.0000     -10.306000      -280.4405
   7   2.0000     -10.303198      -280.3643
   8   2.0000     -10.298814      -280.2450
   9   2.0000     -10.295812      -280.1633
  10   2.0000     -10.291654      -280.0502
  11   2.0000     -10.291479      -280.0454
  12   2.0000     -10.290296      -280.0132
  13   2.0000     -10.286318      -279.9050
  14   2.0000     -10.275467      -279.6097
  15   2.0000     -10.273940      -279.5681
  16   2.0000      -8.082198      -219.9278
  17   2.0000      -8.078987      -219.8404
  18   2.0000      -6.040841      -164.3796
  19   2.0000      -6.037502      -164.2888
  20   2.0000      -6.036944      -164.2736
  21   2.0000      -6.033320      -164.1750
  22   2.0000      -6.032828      -164.1616
  23   2.0000      -6.029820      -164.0797
  24   2.0000      -1.005789       -27.3689
  25   2.0000      -0.980672       -26.6855
  26   2.0000      -0.920472       -25.0473
  27   2.0000      -0.902122       -24.5480
  28   2.0000      -0.871196       -23.7064
  29   2.0000      -0.850920       -23.1547
  30   2.0000      -0.843212       -22.9450
  31   2.0000      -0.815892       -22.2015
  32   2.0000      -0.781582       -21.2679
  33   2.0000      -0.773416       -21.0457
  34   2.0000      -0.715399       -19.4670
  35   2.0000      -0.700153       -19.0521
  36   2.0000      -0.697106       -18.9692
  37   2.0000      -0.657040       -17.8790
  38   2.0000      -0.642214       -17.4755
  39   2.0000      -0.627404       -17.0725
  40   2.0000      -0.594974       -16.1901
  41   2.0000      -0.577911       -15.7258
  42   2.0000      -0.568838       -15.4789
  43   2.0000      -0.561090       -15.2680
  44   2.0000      -0.531713       -14.4687
  45   2.0000      -0.519317       -14.1313
  46   2.0000      -0.515341       -14.0231
  47   2.0000      -0.508442       -13.8354
  48   2.0000      -0.506698       -13.7880
  49   2.0000      -0.501485       -13.6461
  50   2.0000      -0.491980       -13.3874
  51   2.0000      -0.476366       -12.9626
  52   2.0000      -0.467885       -12.7318
  53   2.0000      -0.461391       -12.5551
  54   2.0000      -0.459480       -12.5031
  55   2.0000      -0.452259       -12.3066
  56   2.0000      -0.445769       -12.1300
  57   2.0000      -0.439078       -11.9479
  58   2.0000      -0.432499       -11.7689
  59   2.0000      -0.431169       -11.7327
  60   2.0000      -0.421636       -11.4733
  61   2.0000      -0.420105       -11.4316
  62   2.0000      -0.412172       -11.2158
  63   2.0000      -0.348862        -9.4930
  64   2.0000      -0.330605        -8.9962
  65   2.0000      -0.329364        -8.9624
  66   2.0000      -0.293981        -7.9996
  67   0.0000       0.026425         0.7191
  68   0.0000       0.067575         1.8388
  69   0.0000       0.109806         2.9880
  70   0.0000       0.119970         3.2646
  71   0.0000       0.125514         3.4154

MULLIKEN ATOMIC CHARGES
-----------------------
   0 S :    0.093440
   1 C :   -0.085901
   2 C :   -0.121961
   3 C :    0.061539
   4 C :   -0.126631
   5 H :   -0.022232
   6 C :    0.078181
   7 H :   -0.005861
   8 H :    0.048374
   9 C :   -0.097701
  10 H :    0.041919
  11 H :    0.038736
  12 C :   -0.016685
  13 H :    0.028599
  14 H :    0.009301
  15 H :    0.031235
  16 S :    0.101296
  17 C :   -0.097138
  18 C :   -0.049470
  19 C :   -0.022501
  20 C :   -0.118056
  21 H :    0.035118
  22 C :    0.020961
  23 H :    0.036545
  24 H :    0.031031
  25 C :   -0.072729
  26 H :    0.026187
  27 H :    0.039001
  28 C :   -0.046779
  29 H :    0.026283
  30 H :    0.019085
  31 H :    0.023749
  32 H :    0.032955
  33 H :    0.060112
Sum of atomic charges:    0.0000000

LOEWDIN ATOMIC CHARGES
----------------------
   0 S :    0.382541
   1 C :   -0.180874
   2 C :   -0.052270
   3 C :   -0.053603
   4 C :   -0.182335
   5 H :    0.014668
   6 C :   -0.030394
   7 H :    0.022730
   8 H :    0.040670
   9 C :   -0.039206
  10 H :    0.031528
  11 H :    0.021596
  12 C :   -0.058748
  13 H :    0.024366
  14 H :    0.017150
  15 H :    0.028633
  16 S :    0.414131
  17 C :   -0.191081
  18 C :   -0.077916
  19 C :   -0.061037
  20 C :   -0.198235
  21 H :    0.039455
  22 C :   -0.034175
  23 H :    0.035683
  24 H :    0.028525
  25 C :   -0.039013
  26 H :    0.018104
  27 H :    0.027956
  28 C :   -0.071029
  29 H :    0.025936
  30 H :    0.020878
  31 H :    0.025149
  32 H :    0.016573
  33 H :    0.033644

  Mayer bond orders larger than 0.100000
B(  0-S ,  1-C ) :   1.1254 B(  0-S ,  4-C ) :   1.1387 B(  1-C ,  2-C ) :   1.6209
B(  1-C , 32-H ) :   0.9654 B(  2-C ,  3-C ) :   1.2529 B(  2-C ,  6-C ) :   1.0266
B(  3-C ,  4-C ) :   1.5728 B(  3-C ,  5-H ) :   0.9943 B(  4-C , 20-C ) :   1.0216
B(  6-C ,  7-H ) :   0.9345 B(  6-C ,  8-H ) :   0.9320 B(  6-C ,  9-C ) :   1.0593
B(  9-C , 10-H ) :   0.9603 B(  9-C , 11-H ) :   0.9497 B(  9-C , 12-C ) :   1.0883
B( 12-C , 13-H ) :   0.9723 B( 12-C , 14-H ) :   0.9695 B( 12-C , 15-H ) :   0.9748
B( 16-S , 17-C ) :   1.1677 B( 16-S , 20-C ) :   1.1388 B( 17-C , 18-C ) :   1.5977
B( 17-C , 33-H ) :   0.9672 B( 18-C , 19-C ) :   1.2428 B( 18-C , 21-H ) :   0.9888
B( 19-C , 20-C ) :   1.6105 B( 19-C , 22-C ) :   1.0232 B( 22-C , 23-H ) :   0.9435
B( 22-C , 24-H ) :   0.9463 B( 22-C , 25-C ) :   1.0541 B( 25-C , 26-H ) :   0.9558
B( 25-C , 27-H ) :   0.9566 B( 25-C , 28-C ) :   1.0776 B( 28-C , 29-H ) :   0.9755
B( 28-C , 30-H ) :   0.9734 B( 28-C , 31-H ) :   0.9731

Dispersion correction           -0.013724880
FINAL SINGLE POINT ENERGY     -1339.871496565651

DIPOLE MOMENT
-------------
                                X             Y             Z
Electronic contribution:      0.16702      19.48418      24.44625
Nuclear contribution   :     -0.24929     -19.76732     -25.21183
                        -----------------------------------------
Total Dipole Moment    :     -0.08227      -0.28314      -0.76559
                        -----------------------------------------
Magnitude (a.u.)       :      0.82040
Magnitude (Debye)      :      2.08529

Rotational constants in cm-1:     0.015291     0.009431     0.006852
Rotational constants in MHz :   458.405386   282.729110   205.411673

                             ****ORCA TERMINATED NORMALLY****
TOTAL RUN TIME: 0 days 0 hours 0 minutes 34 seconds 61 msec
