                         Program Version 4.2.1 -  RELEASE  -
|  1> ! wB97X-D3 SP def2-SVP
|  2> %pal
|  3> nprocs 16
|  4> end
|  5>
|  6> * xyz 0 1
|  7> S 	 -40.8425 	 31.3365 	 84.1978
|  8> C 	 -39.7705 	 32.4786 	 83.5003
|  9> C 	 -40.1571 	 32.8731 	 82.2692
| 10> C 	 -41.309 	 32.1151 	 81.7887
| 11> C 	 -41.8745 	 31.2108 	 82.7391
| 12> H 	 -41.7632 	 32.2579 	 80.7551
| 13> C 	 -39.5398 	 33.9286 	 81.4666
| 14> H 	 -39.3381 	 33.5314 	 80.4259
| 15> H 	 -38.5267 	 34.1206 	 81.844
| 16> C 	 -40.2709 	 35.2841 	 81.4077
| 17> H 	 -41.1563 	 35.0033 	 80.8662
| 18> H 	 -40.4822 	 35.6359 	 82.4035
| 19> C 	 -39.4341 	 36.3996 	 80.7876
| 20> H 	 -38.5152 	 36.5673 	 81.3726
| 21> H 	 -39.1509 	 36.052 	 79.7773
| 22> H 	 -40.0058 	 37.3446 	 80.6847
| 23> S 	 -42.279 	 28.5436 	 82.2214
| 24> C 	 -43.9174 	 27.9748 	 81.8544
| 25> C 	 -44.8452 	 29.0262 	 81.7402
| 26> C 	 -44.2565 	 30.2439 	 82.1318
| 27> C 	 -42.8761 	 30.1868 	 82.4333
| 28> H 	 -45.9174 	 28.7335 	 81.4486
| 29> C 	 -45.0126 	 31.5542 	 82.4152
| 30> H 	 -44.4138 	 32.1403 	 83.1384
| 31> H 	 -45.8131 	 31.2282 	 83.1364
| 32> C 	 -45.5421 	 32.2229 	 81.1436
| 33> H 	 -46.1141 	 33.1618 	 81.3042
| 34> H 	 -46.2992 	 31.4336 	 80.9256
| 35> C 	 -44.5508 	 32.4893 	 79.993
| 36> H 	 -43.9601 	 33.3897 	 80.2925
| 37> H 	 -45.0355 	 32.7343 	 79.0833
| 38> H 	 -43.8939 	 31.6761 	 79.7414
| 39> H 	 -38.9215 	 32.7946 	 84.0538
| 40> H 	 -44.0989 	 26.98 	 81.5126
| 41> *
| 42>
| 43>                          ****END OF INPUT****

CARTESIAN COORDINATES (ANGSTROEM)
---------------------------------
  S    -40.842500   31.336500   84.197800
  C    -39.770500   32.478600   83.500300
  C    -40.157100   32.873100   82.269200
  C    -41.309000   32.115100   81.788700
  C    -41.874500   31.210800   82.739100
  H    -41.763200   32.257900   80.755100
  C    -39.539800   33.928600   81.466600
  H    -39.338100   33.531400   80.425900
  H    -38.526700   34.120600   81.844000
  C    -40.270900   35.284100   81.407700
  H    -41.156300   35.003300   80.866200
  H    -40.482200   35.635900   82.403500
  C    -39.434100   36.399600   80.787600
  H    -38.515200   36.567300   81.372600
  H    -39.150900   36.052000   79.777300
  H    -40.005800   37.344600   80.684700
  S    -42.279000   28.543600   82.221400
  C    -43.917400   27.974800   81.854400
  C    -44.845200   29.026200   81.740200
  C    -44.256500   30.243900   82.131800
  C    -42.876100   30.186800   82.433300
  H    -45.917400   28.733500   81.448600
  C    -45.012600   31.554200   82.415200
  H    -44.413800   32.140300   83.138400
  H    -45.813100   31.228200   83.136400
  C    -45.542100   32.222900   81.143600
  H    -46.114100   33.161800   81.304200
  H    -46.299200   31.433600   80.925600
  C    -44.550800   32.489300   79.993000
  H    -43.960100   33.389700   80.292500
  H    -45.035500   32.734300   79.083300
  H    -43.893900   31.676100   79.741400
  H    -38.921500   32.794600   84.053800
  H    -44.098900   26.980000   81.512600

 Total Charge           Charge          ....    0
 Multiplicity           Mult            ....    1
 Number of Electrons    NEL             ....  134
 Basis Dimension        Dim             ....  322

ORBITAL ENERGIES
----------------

  NO   OCC          E(Eh)            E(eV)
   0   2.0000     -88.966034     -2420.8889
   1   2.0000     -88.963886     -2420.8304
   2   2.0000     -10.336798      -281.2786
   3   2.0000     -10.329696      -281.0853
   4   2.0000     -10.320968      -280.8478
   5   2.0000     -10.310302      -280.5576
   6   2.0000     -10.307939      -280.4933
   7   2.0000     -10.305827      -280.4358
   8   2.0000     -10.305400      -280.4242
   9   2.0000     -10.297140      -280.1994
  10   2.0000     -10.293907      -280.1114
  11   2.0000     -10.292787      -280.0810
  12   2.0000     -10.291174      -280.0371
  13   2.0000     -10.284209      -279.8476
  14   2.0000     -10.283672      -279.8329
  15   2.0000     -10.276894      -279.6485
  16   2.0000      -8.080234      -219.8743
  17   2.0000      -8.078705      -219.8327
  18   2.0000      -6.038591      -164.3184
  19   2.0000      -6.037293      -164.2831
  20   2.0000      -6.034777      -164.2146
  21   2.0000      -6.033014      -164.1666
  22   2.0000      -6.031212      -164.1176
  23   2.0000      -6.029556      -164.0726
  24   2.0000      -1.000534       -27.2259
  25   2.0000      -0.982241       -26.7281
  26   2.0000      -0.914128       -24.8747
  27   2.0000      -0.903690       -24.5907
  28   2.0000      -0.870279       -23.6815
  29   2.0000      -0.847087       -23.0504
  30   2.0000      -0.844500       -22.9800
  31   2.0000      -0.812007       -22.0958
  32   2.0000      -0.780091       -21.2274
  33   2.0000      -0.770251       -20.9596
  34   2.0000      -0.707446       -19.2506
  35   2.0000      -0.696080       -18.9413
  36   2.0000      -0.694234       -18.8911
  37   2.0000      -0.652366       -17.7518
  38   2.0000      -0.643059       -17.4985
  39   2.0000      -0.615137       -16.7387
  40   2.0000      -0.589990       -16.0544
  41   2.0000      -0.574905       -15.6439
  42   2.0000      -0.563792       -15.3415
  43   2.0000      -0.549185       -14.9441
  44   2.0000      -0.544456       -14.8154
  45   2.0000      -0.520559       -14.1651
  46   2.0000      -0.518347       -14.1049
  47   2.0000      -0.508417       -13.8347
  48   2.0000      -0.505374       -13.7519
  49   2.0000      -0.498403       -13.5622
  50   2.0000      -0.483096       -13.1457
  51   2.0000      -0.478471       -13.0198
  52   2.0000      -0.468659       -12.7529
  53   2.0000      -0.467618       -12.7245
  54   2.0000      -0.458885       -12.4869
  55   2.0000      -0.446782       -12.1576
  56   2.0000      -0.443649       -12.0723
  57   2.0000      -0.440214       -11.9788
  58   2.0000      -0.429391       -11.6843
  59   2.0000      -0.424166       -11.5422
  60   2.0000      -0.416425       -11.3315
  61   2.0000      -0.414262       -11.2726
  62   2.0000      -0.400166       -10.8891
  63   2.0000      -0.339717        -9.2442
  64   2.0000      -0.328747        -8.9457
  65   2.0000      -0.322648        -8.7797
  66   2.0000      -0.301648        -8.2083
  67   0.0000       0.031586         0.8595
  68   0.0000       0.056906         1.5485
  69   0.0000       0.118139         3.2147
  70   0.0000       0.120319         3.2740
  71   0.0000       0.125134         3.4051

MULLIKEN ATOMIC CHARGES
-----------------------
   0 S :    0.103245
   1 C :   -0.114357
   2 C :   -0.059033
   3 C :    0.022468
   4 C :   -0.168646
   5 H :    0.034309
   6 C :    0.018969
   7 H :    0.035227
   8 H :    0.002711
   9 C :   -0.042508
  10 H :    0.025001
  11 H :    0.025718
  12 C :   -0.053932
  13 H :    0.037921
  14 H :    0.025046
  15 H :    0.047666
  16 S :    0.113057
  17 C :   -0.099239
  18 C :   -0.069373
  19 C :   -0.037880
  20 C :   -0.170005
  21 H :    0.058722
  22 C :    0.047367
  23 H :    0.029054
  24 H :    0.038328
  25 C :   -0.082526
  26 H :    0.040273
  27 H :    0.026530
  28 C :   -0.040936
  29 H :    0.039695
  30 H :    0.024984
  31 H :    0.046930
  32 H :    0.041805
  33 H :    0.053411
Sum of atomic charges:    0.0000000

LOEWDIN ATOMIC CHARGES
----------------------
   0 S :    0.401776
   1 C :   -0.189633
   2 C :   -0.076906
   3 C :   -0.053591
   4 C :   -0.201912
   5 H :    0.039919
   6 C :   -0.040701
   7 H :    0.035732
   8 H :    0.024211
   9 C :   -0.035516
  10 H :    0.020889
  11 H :    0.023055
  12 C :   -0.065861
  13 H :    0.027626
  14 H :    0.024112
  15 H :    0.031517
  16 S :    0.404015
  17 C :   -0.173160
  18 C :   -0.084631
  19 C :   -0.054032
  20 C :   -0.203479
  21 H :    0.051647
  22 C :   -0.038259
  23 H :    0.027075
  24 H :    0.038712
  25 C :   -0.046985
  26 H :    0.029463
  27 H :    0.026919
  28 C :   -0.064972
  29 H :    0.031348
  30 H :    0.023071
  31 H :    0.022611
  32 H :    0.024502
  33 H :    0.021438

  Mayer bond orders larger than 0.100000
B(  0-S ,  1-C ) :   1.1518 B(  0-S ,  4-C ) :   1.1374 B(  1-C ,  2-C ) :   1.6005
B(  1-C , 32-H ) :   0.9716 B(  2-C ,  3-C ) :   1.2396 B(  2-C ,  6-C ) :   1.0498
B(  3-C ,  4-C ) :   1.5632 B(  3-C ,  5-H ) :   0.9727 B(  4-C , 20-C ) :   1.0429
B(  6-C ,  7-H ) :   0.9334 B(  6-C ,  8-H ) :   0.9366 B(  6-C ,  9-C ) :   1.0520
B(  9-C , 10-H ) :   0.9555 B(  9-C , 11-H ) :   0.9553 B(  9-C , 12-C ) :   1.0867
B( 12-C , 13-H ) :   0.9732 B( 12-C , 14-H ) :   0.9734 B( 12-C , 15-H ) :   0.9740
B( 16-S , 17-C ) :   1.1754 B( 16-S , 20-C ) :   1.1496 B( 17-C , 18-C ) :   1.5926
B( 17-C , 20-C ) :   0.1113 B( 17-C , 33-H ) :   0.9669 B( 18-C , 19-C ) :   1.2555
B( 18-C , 21-H ) :   0.9783 B( 19-C , 20-C ) :   1.5761 B( 19-C , 22-C ) :   1.0196
B( 22-C , 23-H ) :   0.9410 B( 22-C , 24-H ) :   0.9495 B( 22-C , 25-C ) :   1.0318
B( 25-C , 26-H ) :   0.9582 B( 25-C , 27-H ) :   0.9604 B( 25-C , 28-C ) :   1.0803
B( 28-C , 29-H ) :   0.9715 B( 28-C , 30-H ) :   0.9685 B( 28-C , 31-H ) :   0.9673

Dispersion correction           -0.015018883
FINAL SINGLE POINT ENERGY     -1339.873235106150

DIPOLE MOMENT
-------------
                                X             Y             Z
Electronic contribution:      3.86747     -24.95237      14.50487
Nuclear contribution   :     -4.04075      25.35682     -14.92144
                        -----------------------------------------
Total Dipole Moment    :     -0.17329       0.40444      -0.41657
                        -----------------------------------------
Magnitude (a.u.)       :      0.60591
Magnitude (Debye)      :      1.54010

Rotational constants in cm-1:     0.019892     0.008669     0.006796
Rotational constants in MHz :   596.339721   259.889460   203.739604

                             ****ORCA TERMINATED NORMALLY****
TOTAL RUN TIME: 0 days 0 hours 0 minutes 30 seconds 444 msec
