                         Program Version 4.2.1 -  RELEASE  -
|  1> ! wB97X-D3 SP def2-SVP
|  2> %pal
|  3> nprocs 16
|  4> end
|  5>
|  6> * xyz 0 1
|  7> S 	 -65.2563 	 38.3186 	 130.323
|  8> C 	 -66.27 	 39.2468 	 131.426
|  9> C 	 -65.705 	 40.3628 	 131.894
| 10> C 	 -64.3996 	 40.5561 	 131.252
| 11> C 	 -64.0736 	 39.6386 	 130.256
| 12> H 	 -63.6786 	 41.3929 	 131.463
| 13> C 	 -66.4389 	 41.3852 	 132.814
| 14> H 	 -67.4589 	 41.5803 	 132.489
| 15> H 	 -65.9235 	 42.2884 	 132.741
| 16> C 	 -66.472 	 40.964 	 134.313
| 17> H 	 -67.0735 	 41.6367 	 134.941
| 18> H 	 -67.0019 	 39.9987 	 134.3
| 19> C 	 -65.0865 	 40.7158 	 134.95
| 20> H 	 -64.4128 	 41.5692 	 134.664
| 21> H 	 -65.1305 	 40.6693 	 136.005
| 22> H 	 -64.7081 	 39.7983 	 134.565
| 23> S 	 -62.3653 	 38.0581 	 128.716
| 24> C 	 -61.1643 	 38.8658 	 127.809
| 25> C 	 -61.1148 	 40.2125 	 128.011
| 26> C 	 -62.0645 	 40.6542 	 128.986
| 27> C 	 -62.8983 	 39.598 	 129.398
| 28> H 	 -60.3869 	 40.8403 	 127.634
| 29> C 	 -62.1302 	 42.1461 	 129.341
| 30> H 	 -61.5445 	 42.2254 	 130.28
| 31> H 	 -63.0774 	 42.4313 	 129.723
| 32> C 	 -61.7455 	 43.0814 	 128.198
| 33> H 	 -60.7329 	 42.976 	 127.702
| 34> H 	 -61.8145 	 44.0873 	 128.569
| 35> C 	 -62.7111 	 42.9296 	 126.981
| 36> H 	 -62.7101 	 41.9365 	 126.491
| 37> H 	 -62.496 	 43.7767 	 126.295
| 38> H 	 -63.7192 	 43.0839 	 127.433
| 39> H 	 -67.1846 	 38.9138 	 131.799
| 40> H 	 -60.2768 	 38.4561 	 127.283
| 41> *
| 42>
| 43>                          ****END OF INPUT****

CARTESIAN COORDINATES (ANGSTROEM)
---------------------------------
  S    -65.256300   38.318600  130.323000
  C    -66.270000   39.246800  131.426000
  C    -65.705000   40.362800  131.894000
  C    -64.399600   40.556100  131.252000
  C    -64.073600   39.638600  130.256000
  H    -63.678600   41.392900  131.463000
  C    -66.438900   41.385200  132.814000
  H    -67.458900   41.580300  132.489000
  H    -65.923500   42.288400  132.741000
  C    -66.472000   40.964000  134.313000
  H    -67.073500   41.636700  134.941000
  H    -67.001900   39.998700  134.300000
  C    -65.086500   40.715800  134.950000
  H    -64.412800   41.569200  134.664000
  H    -65.130500   40.669300  136.005000
  H    -64.708100   39.798300  134.565000
  S    -62.365300   38.058100  128.716000
  C    -61.164300   38.865800  127.809000
  C    -61.114800   40.212500  128.011000
  C    -62.064500   40.654200  128.986000
  C    -62.898300   39.598000  129.398000
  H    -60.386900   40.840300  127.634000
  C    -62.130200   42.146100  129.341000
  H    -61.544500   42.225400  130.280000
  H    -63.077400   42.431300  129.723000
  C    -61.745500   43.081400  128.198000
  H    -60.732900   42.976000  127.702000
  H    -61.814500   44.087300  128.569000
  C    -62.711100   42.929600  126.981000
  H    -62.710100   41.936500  126.491000
  H    -62.496000   43.776700  126.295000
  H    -63.719200   43.083900  127.433000
  H    -67.184600   38.913800  131.799000
  H    -60.276800   38.456100  127.283000

 Total Charge           Charge          ....    0
 Multiplicity           Mult            ....    1
 Number of Electrons    NEL             ....  134
 Basis Dimension        Dim             ....  322

ORBITAL ENERGIES
----------------

  NO   OCC          E(Eh)            E(eV)
   0   2.0000     -88.971066     -2421.0258
   1   2.0000     -88.963457     -2420.8187
   2   2.0000     -10.334143      -281.2063
   3   2.0000     -10.331271      -281.1282
   4   2.0000     -10.315638      -280.7028
   5   2.0000     -10.306841      -280.4634
   6   2.0000     -10.306198      -280.4459
   7   2.0000     -10.302904      -280.3563
   8   2.0000     -10.301289      -280.3123
   9   2.0000     -10.297329      -280.2046
  10   2.0000     -10.294465      -280.1266
  11   2.0000     -10.294328      -280.1229
  12   2.0000     -10.289045      -279.9792
  13   2.0000     -10.285602      -279.8855
  14   2.0000     -10.282560      -279.8027
  15   2.0000     -10.273884      -279.5666
  16   2.0000      -8.086019      -220.0318
  17   2.0000      -8.077924      -219.8115
  18   2.0000      -6.044581      -164.4814
  19   2.0000      -6.040557      -164.3719
  20   2.0000      -6.036670      -164.2661
  21   2.0000      -6.036659      -164.2658
  22   2.0000      -6.032637      -164.1564
  23   2.0000      -6.028308      -164.0386
  24   2.0000      -1.007086       -27.4042
  25   2.0000      -0.984886       -26.8001
  26   2.0000      -0.913384       -24.8545
  27   2.0000      -0.907746       -24.7010
  28   2.0000      -0.871225       -23.7072
  29   2.0000      -0.849648       -23.1201
  30   2.0000      -0.837726       -22.7957
  31   2.0000      -0.814050       -22.1514
  32   2.0000      -0.788324       -21.4514
  33   2.0000      -0.777382       -21.1536
  34   2.0000      -0.707487       -19.2517
  35   2.0000      -0.700522       -19.0622
  36   2.0000      -0.692971       -18.8567
  37   2.0000      -0.662014       -18.0143
  38   2.0000      -0.637840       -17.3565
  39   2.0000      -0.615744       -16.7552
  40   2.0000      -0.597231       -16.2515
  41   2.0000      -0.575749       -15.6669
  42   2.0000      -0.557627       -15.1738
  43   2.0000      -0.548641       -14.9293
  44   2.0000      -0.545098       -14.8329
  45   2.0000      -0.534962       -14.5571
  46   2.0000      -0.517175       -14.0730
  47   2.0000      -0.508821       -13.8457
  48   2.0000      -0.500733       -13.6256
  49   2.0000      -0.496721       -13.5165
  50   2.0000      -0.489018       -13.3068
  51   2.0000      -0.474579       -12.9139
  52   2.0000      -0.471898       -12.8410
  53   2.0000      -0.467505       -12.7215
  54   2.0000      -0.461722       -12.5641
  55   2.0000      -0.454902       -12.3785
  56   2.0000      -0.447659       -12.1814
  57   2.0000      -0.437949       -11.9172
  58   2.0000      -0.431248       -11.7349
  59   2.0000      -0.424534       -11.5522
  60   2.0000      -0.420932       -11.4541
  61   2.0000      -0.414803       -11.2874
  62   2.0000      -0.413101       -11.2410
  63   2.0000      -0.363989        -9.9046
  64   2.0000      -0.335004        -9.1159
  65   2.0000      -0.328165        -8.9298
  66   2.0000      -0.283070        -7.7027
  67   0.0000       0.022200         0.6041
  68   0.0000       0.082060         2.2330
  69   0.0000       0.098284         2.6745
  70   0.0000       0.120161         3.2697
  71   0.0000       0.139316         3.7910

MULLIKEN ATOMIC CHARGES
-----------------------
   0 S :    0.085454
   1 C :   -0.087256
   2 C :   -0.088338
   3 C :   -0.030348
   4 C :   -0.118073
   5 H :    0.022431
   6 C :    0.107363
   7 H :    0.037436
   8 H :    0.002069
   9 C :   -0.104466
  10 H :    0.033475
  11 H :    0.022866
  12 C :   -0.035161
  13 H :    0.028921
  14 H :    0.029599
  15 H :    0.040796
  16 S :    0.122867
  17 C :   -0.065495
  18 C :   -0.020871
  19 C :   -0.089603
  20 C :   -0.140386
  21 H :   -0.017324
  22 C :    0.088613
  23 H :    0.046684
  24 H :    0.010245
  25 C :   -0.091771
  26 H :    0.042363
  27 H :    0.029104
  28 C :   -0.083744
  29 H :    0.063859
  30 H :    0.044805
  31 H :    0.030543
  32 H :    0.018239
  33 H :    0.065105
Sum of atomic charges:   -0.0000000

LOEWDIN ATOMIC CHARGES
----------------------
   0 S :    0.372567
   1 C :   -0.174207
   2 C :   -0.062212
   3 C :   -0.077057
   4 C :   -0.176615
   5 H :    0.033207
   6 C :   -0.018091
   7 H :    0.035022
   8 H :    0.017179
   9 C :   -0.041796
  10 H :    0.022073
  11 H :    0.021310
  12 C :   -0.060318
  13 H :    0.027616
  14 H :    0.020992
  15 H :    0.024684
  16 S :    0.416892
  17 C :   -0.202687
  18 C :   -0.066001
  19 C :   -0.044245
  20 C :   -0.197583
  21 H :    0.017961
  22 C :   -0.035329
  23 H :    0.040527
  24 H :    0.022845
  25 C :   -0.045239
  26 H :    0.027105
  27 H :    0.024828
  28 C :   -0.069344
  29 H :    0.031589
  30 H :    0.029740
  31 H :    0.026563
  32 H :    0.015389
  33 H :    0.042634

  Mayer bond orders larger than 0.100000
B(  0-S ,  1-C ) :   1.1178 B(  0-S ,  4-C ) :   1.1174 B(  1-C ,  2-C ) :   1.6763
B(  1-C , 32-H ) :   0.9667 B(  2-C ,  3-C ) :   1.2004 B(  2-C ,  6-C ) :   1.0037
B(  3-C ,  4-C ) :   1.6013 B(  3-C ,  5-H ) :   0.9760 B(  4-C , 20-C ) :   1.1003
B(  6-C ,  7-H ) :   0.9503 B(  6-C ,  8-H ) :   0.9399 B(  6-C ,  9-C ) :   1.0667
B(  9-C , 10-H ) :   0.9609 B(  9-C , 11-H ) :   0.9605 B(  9-C , 12-C ) :   1.0699
B( 12-C , 13-H ) :   0.9784 B( 12-C , 14-H ) :   0.9753 B( 12-C , 15-H ) :   0.9741
B( 16-S , 17-C ) :   1.1551 B( 16-S , 20-C ) :   1.1276 B( 17-C , 18-C ) :   1.6099
B( 17-C , 33-H ) :   0.9517 B( 18-C , 19-C ) :   1.2699 B( 18-C , 21-H ) :   0.9927
B( 19-C , 20-C ) :   1.5783 B( 19-C , 22-C ) :   1.0276 B( 22-C , 23-H ) :   0.9235
B( 22-C , 24-H ) :   0.9259 B( 22-C , 25-C ) :   1.0695 B( 25-C , 26-H ) :   0.9530
B( 25-C , 27-H ) :   0.9524 B( 25-C , 28-C ) :   1.0674 B( 28-C , 29-H ) :   0.9722
B( 28-C , 30-H ) :   0.9747 B( 28-C , 31-H ) :   0.9755

Dispersion correction           -0.014390465
FINAL SINGLE POINT ENERGY     -1339.874562425988

DIPOLE MOMENT
-------------
                                X             Y             Z
Electronic contribution:      1.67344     -22.90911      -9.81660
Nuclear contribution   :     -1.51017      23.62871      10.06890
                        -----------------------------------------
Total Dipole Moment    :      0.16327       0.71959       0.25230
                        -----------------------------------------
Magnitude (a.u.)       :      0.77983
Magnitude (Debye)      :      1.98216

Rotational constants in cm-1:     0.020509     0.008150     0.006633
Rotational constants in MHz :   614.841142   244.325025   198.845452

                             ****ORCA TERMINATED NORMALLY****
TOTAL RUN TIME: 0 days 0 hours 0 minutes 35 seconds 704 msec
