                         Program Version 4.2.1 -  RELEASE  -
|  1> ! wB97X-D3 SP def2-SVP
|  2> %pal
|  3> nprocs 16
|  4> end
|  5>
|  6> * xyz 0 1
|  7> S 	 60.3626 	 -5.60124 	 87.2775
|  8> C 	 59.5883 	 -4.80133 	 88.6949
|  9> C 	 60.4313 	 -4.81345 	 89.7738
| 10> C 	 61.7532 	 -5.18647 	 89.3739
| 11> C 	 61.8706 	 -5.59969 	 88.1106
| 12> H 	 62.62 	 -5.22523 	 90.0322
| 13> C 	 60.0429 	 -4.41365 	 91.1676
| 14> H 	 59.4196 	 -3.57197 	 91.11
| 15> H 	 60.754 	 -4.15807 	 91.9273
| 16> C 	 59.1562 	 -5.43827 	 91.8951
| 17> H 	 58.7994 	 -4.95451 	 92.844
| 18> H 	 58.2368 	 -5.72077 	 91.3091
| 19> C 	 59.9494 	 -6.71635 	 92.4121
| 20> H 	 60.8041 	 -6.52909 	 93.0306
| 21> H 	 59.2801 	 -7.41823 	 92.9948
| 22> H 	 60.3529 	 -7.2536 	 91.5713
| 23> S 	 62.7801 	 -8.00152 	 87.1253
| 24> C 	 64.5222 	 -8.14899 	 86.6588
| 25> C 	 65.1673 	 -6.96676 	 86.904
| 26> C 	 64.3135 	 -5.92901 	 87.4164
| 27> C 	 62.9998 	 -6.34444 	 87.6217
| 28> H 	 66.2297 	 -6.79151 	 86.5894
| 29> C 	 64.8113 	 -4.51904 	 87.6983
| 30> H 	 63.9495 	 -3.89533 	 88.0038
| 31> H 	 65.3196 	 -4.0767 	 86.8486
| 32> C 	 65.822 	 -4.46638 	 88.8357
| 33> H 	 66.6235 	 -5.17603 	 88.6766
| 34> H 	 65.3512 	 -4.7406 	 89.8262
| 35> C 	 66.2717 	 -3.02143 	 89.1891
| 36> H 	 66.7791 	 -2.57055 	 88.3329
| 37> H 	 66.8824 	 -2.89417 	 90.0864
| 38> H 	 65.4411 	 -2.36492 	 89.4222
| 39> H 	 58.5764 	 -4.4321 	 88.8272
| 40> H 	 65.0529 	 -9.00716 	 86.2277
| 41> *
| 42>
| 43>                          ****END OF INPUT****

CARTESIAN COORDINATES (ANGSTROEM)
---------------------------------
  S     60.362600   -5.601240   87.277500
  C     59.588300   -4.801330   88.694900
  C     60.431300   -4.813450   89.773800
  C     61.753200   -5.186470   89.373900
  C     61.870600   -5.599690   88.110600
  H     62.620000   -5.225230   90.032200
  C     60.042900   -4.413650   91.167600
  H     59.419600   -3.571970   91.110000
  H     60.754000   -4.158070   91.927300
  C     59.156200   -5.438270   91.895100
  H     58.799400   -4.954510   92.844000
  H     58.236800   -5.720770   91.309100
  C     59.949400   -6.716350   92.412100
  H     60.804100   -6.529090   93.030600
  H     59.280100   -7.418230   92.994800
  H     60.352900   -7.253600   91.571300
  S     62.780100   -8.001520   87.125300
  C     64.522200   -8.148990   86.658800
  C     65.167300   -6.966760   86.904000
  C     64.313500   -5.929010   87.416400
  C     62.999800   -6.344440   87.621700
  H     66.229700   -6.791510   86.589400
  C     64.811300   -4.519040   87.698300
  H     63.949500   -3.895330   88.003800
  H     65.319600   -4.076700   86.848600
  C     65.822000   -4.466380   88.835700
  H     66.623500   -5.176030   88.676600
  H     65.351200   -4.740600   89.826200
  C     66.271700   -3.021430   89.189100
  H     66.779100   -2.570550   88.332900
  H     66.882400   -2.894170   90.086400
  H     65.441100   -2.364920   89.422200
  H     58.576400   -4.432100   88.827200
  H     65.052900   -9.007160   86.227700

 Total Charge           Charge          ....    0
 Multiplicity           Mult            ....    1
 Number of Electrons    NEL             ....  134
 Basis Dimension        Dim             ....  322

ORBITAL ENERGIES
----------------

  NO   OCC          E(Eh)            E(eV)
   0   2.0000     -88.969646     -2420.9872
   1   2.0000     -88.966917     -2420.9129
   2   2.0000     -10.325809      -280.9796
   3   2.0000     -10.322384      -280.8864
   4   2.0000     -10.321981      -280.8754
   5   2.0000     -10.318272      -280.7744
   6   2.0000     -10.303653      -280.3767
   7   2.0000     -10.302007      -280.3319
   8   2.0000     -10.298342      -280.2321
   9   2.0000     -10.297858      -280.2190
  10   2.0000     -10.290766      -280.0260
  11   2.0000     -10.290519      -280.0193
  12   2.0000     -10.289310      -279.9864
  13   2.0000     -10.288611      -279.9673
  14   2.0000     -10.278516      -279.6926
  15   2.0000     -10.277892      -279.6757
  16   2.0000      -8.084040      -219.9779
  17   2.0000      -8.080685      -219.8866
  18   2.0000      -6.042763      -164.4320
  19   2.0000      -6.039427      -164.3412
  20   2.0000      -6.038723      -164.3220
  21   2.0000      -6.035344      -164.2301
  22   2.0000      -6.034437      -164.2054
  23   2.0000      -6.031231      -164.1181
  24   2.0000      -1.012612       -27.5546
  25   2.0000      -0.982443       -26.7336
  26   2.0000      -0.915049       -24.8998
  27   2.0000      -0.906772       -24.6745
  28   2.0000      -0.870591       -23.6900
  29   2.0000      -0.847364       -23.0579
  30   2.0000      -0.841081       -22.8870
  31   2.0000      -0.818236       -22.2653
  32   2.0000      -0.786862       -21.4116
  33   2.0000      -0.771257       -20.9870
  34   2.0000      -0.706834       -19.2339
  35   2.0000      -0.699213       -19.0265
  36   2.0000      -0.693999       -18.8847
  37   2.0000      -0.658003       -17.9052
  38   2.0000      -0.642606       -17.4862
  39   2.0000      -0.617809       -16.8114
  40   2.0000      -0.595442       -16.2028
  41   2.0000      -0.579237       -15.7618
  42   2.0000      -0.566134       -15.4053
  43   2.0000      -0.546099       -14.8601
  44   2.0000      -0.541127       -14.7248
  45   2.0000      -0.519245       -14.1294
  46   2.0000      -0.514278       -13.9942
  47   2.0000      -0.511417       -13.9164
  48   2.0000      -0.504413       -13.7258
  49   2.0000      -0.497104       -13.5269
  50   2.0000      -0.492076       -13.3901
  51   2.0000      -0.478937       -13.0325
  52   2.0000      -0.474061       -12.8999
  53   2.0000      -0.464463       -12.6387
  54   2.0000      -0.457296       -12.4437
  55   2.0000      -0.450195       -12.2504
  56   2.0000      -0.442305       -12.0357
  57   2.0000      -0.433736       -11.8025
  58   2.0000      -0.432270       -11.7627
  59   2.0000      -0.430820       -11.7232
  60   2.0000      -0.424266       -11.5449
  61   2.0000      -0.414358       -11.2753
  62   2.0000      -0.407456       -11.0874
  63   2.0000      -0.349189        -9.5019
  64   2.0000      -0.333410        -9.0725
  65   2.0000      -0.329625        -8.9695
  66   2.0000      -0.296151        -8.0587
  67   0.0000       0.033753         0.9185
  68   0.0000       0.063751         1.7347
  69   0.0000       0.105179         2.8621
  70   0.0000       0.120609         3.2819
  71   0.0000       0.129396         3.5210

MULLIKEN ATOMIC CHARGES
-----------------------
   0 S :    0.111452
   1 C :   -0.115206
   2 C :   -0.064942
   3 C :    0.029975
   4 C :   -0.144518
   5 H :    0.011883
   6 C :    0.106067
   7 H :    0.013827
   8 H :    0.018680
   9 C :   -0.125593
  10 H :    0.033755
  11 H :    0.041233
  12 C :   -0.067115
  13 H :    0.022706
  14 H :    0.043777
  15 H :    0.035720
  16 S :    0.101464
  17 C :   -0.105366
  18 C :   -0.035773
  19 C :   -0.038698
  20 C :   -0.151089
  21 H :    0.040249
  22 C :    0.077408
  23 H :    0.031757
  24 H :    0.028195
  25 C :   -0.104990
  26 H :    0.030919
  27 H :    0.028072
  28 C :   -0.047091
  29 H :    0.025314
  30 H :    0.036297
  31 H :    0.023231
  32 H :    0.043021
  33 H :    0.065378
Sum of atomic charges:   -0.0000000

LOEWDIN ATOMIC CHARGES
----------------------
   0 S :    0.398996
   1 C :   -0.178666
   2 C :   -0.056050
   3 C :   -0.057771
   4 C :   -0.204385
   5 H :    0.033090
   6 C :   -0.033542
   7 H :    0.029066
   8 H :    0.031394
   9 C :   -0.037808
  10 H :    0.025862
  11 H :    0.025988
  12 C :   -0.074317
  13 H :    0.019182
  14 H :    0.032864
  15 H :    0.022781
  16 S :    0.383594
  17 C :   -0.176361
  18 C :   -0.074722
  19 C :   -0.059694
  20 C :   -0.195559
  21 H :    0.040758
  22 C :   -0.031159
  23 H :    0.034075
  24 H :    0.029886
  25 C :   -0.043628
  26 H :    0.018892
  27 H :    0.026797
  28 C :   -0.071007
  29 H :    0.020527
  30 H :    0.027715
  31 H :    0.024731
  32 H :    0.030505
  33 H :    0.037966

  Mayer bond orders larger than 0.100000
B(  0-S ,  1-C ) :   1.1154 B(  0-S ,  4-C ) :   1.1315 B(  1-C ,  2-C ) :   1.6417
B(  1-C , 32-H ) :   0.9646 B(  2-C ,  3-C ) :   1.2179 B(  2-C ,  6-C ) :   1.0230
B(  3-C ,  4-C ) :   1.5941 B(  3-C ,  5-H ) :   0.9972 B(  4-C , 20-C ) :   1.0308
B(  6-C ,  7-H ) :   0.9295 B(  6-C ,  8-H ) :   0.9479 B(  6-C ,  9-C ) :   1.0734
B(  9-C , 10-H ) :   0.9579 B(  9-C , 11-H ) :   0.9585 B(  9-C , 12-C ) :   1.0615
B( 12-C , 13-H ) :   0.9756 B( 12-C , 14-H ) :   0.9771 B( 12-C , 15-H ) :   0.9791
B( 16-S , 17-C ) :   1.1241 B( 16-S , 20-C ) :   1.1306 B( 17-C , 18-C ) :   1.6435
B( 17-C , 33-H ) :   0.9641 B( 18-C , 19-C ) :   1.2295 B( 18-C , 21-H ) :   0.9739
B( 19-C , 20-C ) :   1.6196 B( 19-C , 22-C ) :   1.0519 B( 22-C , 23-H ) :   0.9294
B( 22-C , 24-H ) :   0.9352 B( 22-C , 25-C ) :   1.0585 B( 25-C , 26-H ) :   0.9598
B( 25-C , 27-H ) :   0.9547 B( 25-C , 28-C ) :   1.0735 B( 28-C , 29-H ) :   0.9746
B( 28-C , 30-H ) :   0.9764 B( 28-C , 31-H ) :   0.9728

Dispersion correction           -0.014315596
FINAL SINGLE POINT ENERGY     -1339.876452354973

DIPOLE MOMENT
-------------
                                X             Y             Z
Electronic contribution:     -7.22286     -11.99557     -21.18227
Nuclear contribution   :      7.44676      12.32535      21.68605
                        -----------------------------------------
Total Dipole Moment    :      0.22390       0.32979       0.50378
                        -----------------------------------------
Magnitude (a.u.)       :      0.64241
Magnitude (Debye)      :      1.63287

Rotational constants in cm-1:     0.017120     0.008929     0.007265
Rotational constants in MHz :   513.232922   267.684109   217.806149

                             ****ORCA TERMINATED NORMALLY****
TOTAL RUN TIME: 0 days 0 hours 0 minutes 28 seconds 276 msec
