                         Program Version 4.2.1 -  RELEASE  -
|  1> ! wB97X-D3 SP def2-SVP
|  2> %pal
|  3> nprocs 16
|  4> end
|  5>
|  6> * xyz 0 1
|  7> S 	 35.0221 	 10.0958 	 88.1974
|  8> C 	 33.8875 	 10.8925 	 87.2155
|  9> C 	 33.8951 	 10.4219 	 85.9428
| 10> C 	 35.0039 	 9.60685 	 85.6548
| 11> C 	 35.7444 	 9.38029 	 86.7305
| 12> H 	 35.2907 	 9.19879 	 84.6524
| 13> C 	 33.0005 	 10.9824 	 84.8464
| 14> H 	 32.5603 	 11.8805 	 85.1895
| 15> H 	 32.285 	 10.2025 	 84.5124
| 16> C 	 33.7114 	 11.2534 	 83.4903
| 17> H 	 34.253 	 10.347 	 83.21
| 18> H 	 32.9956 	 11.3824 	 82.6379
| 19> C 	 34.8642 	 12.2785 	 83.5602
| 20> H 	 35.463 	 12.2284 	 82.5502
| 21> H 	 34.5894 	 13.3224 	 83.7558
| 22> H 	 35.6879 	 11.8423 	 84.2048
| 23> S 	 36.5966 	 7.03625 	 87.7173
| 24> C 	 38.2493 	 6.60055 	 87.525
| 25> C 	 38.9917 	 7.56617 	 86.8677
| 26> C 	 38.1892 	 8.66843 	 86.4481
| 27> C 	 36.8723 	 8.56473 	 86.9453
| 28> H 	 40.0579 	 7.41262 	 86.7289
| 29> C 	 38.8222 	 9.86941 	 85.7643
| 30> H 	 38.4117 	 10.1094 	 84.7776
| 31> H 	 39.877 	 9.70128 	 85.6723
| 32> C 	 38.6845 	 11.245 	 86.5209
| 33> H 	 39.0399 	 11.1114 	 87.5411
| 34> H 	 37.6658 	 11.473 	 86.6406
| 35> C 	 39.37 	 12.4314 	 85.9362
| 36> H 	 40.4437 	 12.1983 	 85.7292
| 37> H 	 39.3933 	 13.2135 	 86.6385
| 38> H 	 38.911 	 12.8291 	 85.0393
| 39> H 	 33.1317 	 11.6085 	 87.5002
| 40> H 	 38.7901 	 5.77137 	 88.0606
| 41> *
| 42>
| 43>                          ****END OF INPUT****

CARTESIAN COORDINATES (ANGSTROEM)
---------------------------------
  S     35.022100   10.095800   88.197400
  C     33.887500   10.892500   87.215500
  C     33.895100   10.421900   85.942800
  C     35.003900    9.606850   85.654800
  C     35.744400    9.380290   86.730500
  H     35.290700    9.198790   84.652400
  C     33.000500   10.982400   84.846400
  H     32.560300   11.880500   85.189500
  H     32.285000   10.202500   84.512400
  C     33.711400   11.253400   83.490300
  H     34.253000   10.347000   83.210000
  H     32.995600   11.382400   82.637900
  C     34.864200   12.278500   83.560200
  H     35.463000   12.228400   82.550200
  H     34.589400   13.322400   83.755800
  H     35.687900   11.842300   84.204800
  S     36.596600    7.036250   87.717300
  C     38.249300    6.600550   87.525000
  C     38.991700    7.566170   86.867700
  C     38.189200    8.668430   86.448100
  C     36.872300    8.564730   86.945300
  H     40.057900    7.412620   86.728900
  C     38.822200    9.869410   85.764300
  H     38.411700   10.109400   84.777600
  H     39.877000    9.701280   85.672300
  C     38.684500   11.245000   86.520900
  H     39.039900   11.111400   87.541100
  H     37.665800   11.473000   86.640600
  C     39.370000   12.431400   85.936200
  H     40.443700   12.198300   85.729200
  H     39.393300   13.213500   86.638500
  H     38.911000   12.829100   85.039300
  H     33.131700   11.608500   87.500200
  H     38.790100    5.771370   88.060600

 Total Charge           Charge          ....    0
 Multiplicity           Mult            ....    1
 Number of Electrons    NEL             ....  134
 Basis Dimension        Dim             ....  322

ORBITAL ENERGIES
----------------

  NO   OCC          E(Eh)            E(eV)
   0   2.0000     -88.967809     -2420.9372
   1   2.0000     -88.962951     -2420.8050
   2   2.0000     -10.320779      -280.8427
   3   2.0000     -10.320090      -280.8239
   4   2.0000     -10.315595      -280.7016
   5   2.0000     -10.306869      -280.4642
   6   2.0000     -10.306104      -280.4433
   7   2.0000     -10.293202      -280.0923
   8   2.0000     -10.292812      -280.0817
   9   2.0000     -10.292756      -280.0801
  10   2.0000     -10.292348      -280.0690
  11   2.0000     -10.291486      -280.0456
  12   2.0000     -10.290896      -280.0295
  13   2.0000     -10.289769      -279.9989
  14   2.0000     -10.273462      -279.5551
  15   2.0000     -10.270664      -279.4790
  16   2.0000      -8.083151      -219.9537
  17   2.0000      -8.078487      -219.8268
  18   2.0000      -6.041596      -164.4002
  19   2.0000      -6.037471      -164.2879
  20   2.0000      -6.036872      -164.2716
  21   2.0000      -6.034052      -164.1949
  22   2.0000      -6.033032      -164.1671
  23   2.0000      -6.029153      -164.0616
  24   2.0000      -1.017668       -27.6921
  25   2.0000      -0.990752       -26.9597
  26   2.0000      -0.910432       -24.7741
  27   2.0000      -0.906116       -24.6567
  28   2.0000      -0.876534       -23.8517
  29   2.0000      -0.855641       -23.2832
  30   2.0000      -0.846620       -23.0377
  31   2.0000      -0.817599       -22.2480
  32   2.0000      -0.784459       -21.3462
  33   2.0000      -0.768221       -20.9043
  34   2.0000      -0.712499       -19.3881
  35   2.0000      -0.692928       -18.8555
  36   2.0000      -0.685136       -18.6435
  37   2.0000      -0.658013       -17.9054
  38   2.0000      -0.643225       -17.5031
  39   2.0000      -0.628805       -17.1106
  40   2.0000      -0.596810       -16.2400
  41   2.0000      -0.567719       -15.4484
  42   2.0000      -0.562535       -15.3074
  43   2.0000      -0.549924       -14.9642
  44   2.0000      -0.535611       -14.5747
  45   2.0000      -0.519899       -14.1472
  46   2.0000      -0.518150       -14.0996
  47   2.0000      -0.509656       -13.8685
  48   2.0000      -0.508495       -13.8369
  49   2.0000      -0.500081       -13.6079
  50   2.0000      -0.492982       -13.4147
  51   2.0000      -0.482921       -13.1410
  52   2.0000      -0.476330       -12.9616
  53   2.0000      -0.467049       -12.7090
  54   2.0000      -0.459499       -12.5036
  55   2.0000      -0.448083       -12.1930
  56   2.0000      -0.444929       -12.1071
  57   2.0000      -0.435029       -11.8377
  58   2.0000      -0.429122       -11.6770
  59   2.0000      -0.418479       -11.3874
  60   2.0000      -0.417758       -11.3678
  61   2.0000      -0.415539       -11.3074
  62   2.0000      -0.412270       -11.2184
  63   2.0000      -0.347814        -9.4645
  64   2.0000      -0.331490        -9.0203
  65   2.0000      -0.324835        -8.8392
  66   2.0000      -0.298382        -8.1194
  67   0.0000       0.039213         1.0670
  68   0.0000       0.058355         1.5879
  69   0.0000       0.117433         3.1955
  70   0.0000       0.119578         3.2539
  71   0.0000       0.128153         3.4872

MULLIKEN ATOMIC CHARGES
-----------------------
   0 S :    0.112138
   1 C :   -0.100837
   2 C :   -0.104232
   3 C :    0.038380
   4 C :   -0.192773
   5 H :    0.032936
   6 C :    0.118482
   7 H :    0.012899
   8 H :    0.042914
   9 C :   -0.117211
  10 H :    0.016115
  11 H :    0.040599
  12 C :   -0.099057
  13 H :    0.033907
  14 H :    0.051283
  15 H :    0.047698
  16 S :    0.136104
  17 C :   -0.106815
  18 C :   -0.060656
  19 C :    0.007875
  20 C :   -0.177479
  21 H :    0.024009
  22 C :    0.090966
  23 H :    0.023183
  24 H :    0.007175
  25 C :   -0.084900
  26 H :    0.020900
  27 H :    0.023715
  28 C :   -0.020407
  29 H :    0.022712
  30 H :    0.021608
  31 H :    0.027523
  32 H :    0.038863
  33 H :    0.072385
Sum of atomic charges:   -0.0000000

LOEWDIN ATOMIC CHARGES
----------------------
   0 S :    0.406107
   1 C :   -0.203155
   2 C :   -0.071703
   3 C :   -0.059307
   4 C :   -0.184133
   5 H :    0.044719
   6 C :   -0.026104
   7 H :    0.021049
   8 H :    0.040737
   9 C :   -0.052158
  10 H :    0.020364
  11 H :    0.029007
  12 C :   -0.083902
  13 H :    0.035294
  14 H :    0.022978
  15 H :    0.033428
  16 S :    0.436106
  17 C :   -0.210658
  18 C :   -0.073758
  19 C :   -0.050142
  20 C :   -0.217340
  21 H :    0.033767
  22 C :   -0.027458
  23 H :    0.030133
  24 H :    0.024257
  25 C :   -0.039575
  26 H :    0.023519
  27 H :    0.015442
  28 C :   -0.060870
  29 H :    0.026907
  30 H :    0.023417
  31 H :    0.022556
  32 H :    0.029046
  33 H :    0.041433

  Mayer bond orders larger than 0.100000
B(  0-S ,  1-C ) :   1.1346 B(  0-S ,  4-C ) :   1.1269 B(  1-C ,  2-C ) :   1.6495
B(  1-C , 32-H ) :   0.9634 B(  2-C ,  3-C ) :   1.2000 B(  2-C ,  6-C ) :   1.0213
B(  3-C ,  4-C ) :   1.6495 B(  3-C ,  5-H ) :   0.9863 B(  4-C , 20-C ) :   1.0229
B(  6-C ,  7-H ) :   0.9498 B(  6-C ,  8-H ) :   0.9261 B(  6-C ,  9-C ) :   1.0733
B(  9-C , 10-H ) :   0.9467 B(  9-C , 11-H ) :   0.9573 B(  9-C , 12-C ) :   1.0722
B( 12-C , 13-H ) :   0.9714 B( 12-C , 14-H ) :   0.9779 B( 12-C , 15-H ) :   0.9659
B( 16-S , 17-C ) :   1.1652 B( 16-S , 20-C ) :   1.1672 B( 17-C , 18-C ) :   1.6089
B( 17-C , 20-C ) :   0.1077 B( 17-C , 33-H ) :   0.9547 B( 18-C , 19-C ) :   1.2544
B( 18-C , 21-H ) :   0.9866 B( 19-C , 20-C ) :   1.5574 B( 19-C , 22-C ) :   1.0600
B( 22-C , 23-H ) :   0.9260 B( 22-C , 24-H ) :   0.9365 B( 22-C , 25-C ) :   1.0628
B( 25-C , 26-H ) :   0.9523 B( 25-C , 27-H ) :   0.9491 B( 25-C , 28-C ) :   1.1052
B( 28-C , 29-H ) :   0.9709 B( 28-C , 30-H ) :   0.9691 B( 28-C , 31-H ) :   0.9715

Dispersion correction           -0.015519536
FINAL SINGLE POINT ENERGY     -1339.871417425792

DIPOLE MOMENT
-------------
                                X             Y             Z
Electronic contribution:     -5.88475     -19.98974      18.97860
Nuclear contribution   :      6.00718      20.23613     -19.38200
                        -----------------------------------------
Total Dipole Moment    :      0.12243       0.24639      -0.40340
                        -----------------------------------------
Magnitude (a.u.)       :      0.48829
Magnitude (Debye)      :      1.24113

Rotational constants in cm-1:     0.017565     0.010374     0.008109
Rotational constants in MHz :   526.571468   311.007966   243.115503

                             ****ORCA TERMINATED NORMALLY****
TOTAL RUN TIME: 0 days 0 hours 0 minutes 31 seconds 73 msec
