                         Program Version 4.2.1 -  RELEASE  -
|  1> ! wB97X-D3 SP def2-SVP
|  2> %pal
|  3> nprocs 16
|  4> end
|  5>
|  6> * xyz 0 1
|  7> S 	 37.8655 	 31.0302 	 91.4062
|  8> C 	 38.8158 	 30.728 	 90.0239
|  9> C 	 39.7805 	 29.7893 	 90.225
| 10> C 	 39.6827 	 29.2424 	 91.5839
| 11> C 	 38.6344 	 29.8107 	 92.3491
| 12> H 	 40.2403 	 28.3797 	 91.9174
| 13> C 	 40.7396 	 29.2569 	 89.1533
| 14> H 	 41.6536 	 28.8876 	 89.5489
| 15> H 	 40.8987 	 30.066 	 88.4041
| 16> C 	 40.02 	 28.1506 	 88.3819
| 17> H 	 38.9769 	 28.3943 	 88.174
| 18> H 	 40.4803 	 28.0147 	 87.3445
| 19> C 	 40.0546 	 26.714 	 88.9835
| 20> H 	 39.5676 	 26.6313 	 89.9887
| 21> H 	 39.4261 	 25.9848 	 88.403
| 22> H 	 41.0525 	 26.3554 	 89.188
| 23> S 	 36.9081 	 30.4283 	 94.4279
| 24> C 	 36.9709 	 29.6571 	 95.9599
| 25> C 	 37.9435 	 28.6704 	 95.9018
| 26> C 	 38.7503 	 28.6077 	 94.7142
| 27> C 	 38.304 	 29.5216 	 93.763
| 28> H 	 38.0479 	 28.0545 	 96.7921
| 29> C 	 39.8738 	 27.6285 	 94.5973
| 30> H 	 40.2494 	 27.4738 	 95.5878
| 31> H 	 40.7587 	 28.1411 	 94.0803
| 32> C 	 39.4651 	 26.2362 	 94.0047
| 33> H 	 38.8423 	 26.5059 	 93.1685
| 34> H 	 38.8641 	 25.6681 	 94.7835
| 35> C 	 40.5913 	 25.3788 	 93.5523
| 36> H 	 40.2877 	 24.4303 	 93.1047
| 37> H 	 41.3242 	 25.1964 	 94.3339
| 38> H 	 41.2993 	 25.878 	 92.9038
| 39> H 	 38.6372 	 31.2796 	 89.051
| 40> H 	 36.2108 	 29.8534 	 96.7361
| 41> *
| 42>
| 43>                          ****END OF INPUT****

CARTESIAN COORDINATES (ANGSTROEM)
---------------------------------
  S     37.865500   31.030200   91.406200
  C     38.815800   30.728000   90.023900
  C     39.780500   29.789300   90.225000
  C     39.682700   29.242400   91.583900
  C     38.634400   29.810700   92.349100
  H     40.240300   28.379700   91.917400
  C     40.739600   29.256900   89.153300
  H     41.653600   28.887600   89.548900
  H     40.898700   30.066000   88.404100
  C     40.020000   28.150600   88.381900
  H     38.976900   28.394300   88.174000
  H     40.480300   28.014700   87.344500
  C     40.054600   26.714000   88.983500
  H     39.567600   26.631300   89.988700
  H     39.426100   25.984800   88.403000
  H     41.052500   26.355400   89.188000
  S     36.908100   30.428300   94.427900
  C     36.970900   29.657100   95.959900
  C     37.943500   28.670400   95.901800
  C     38.750300   28.607700   94.714200
  C     38.304000   29.521600   93.763000
  H     38.047900   28.054500   96.792100
  C     39.873800   27.628500   94.597300
  H     40.249400   27.473800   95.587800
  H     40.758700   28.141100   94.080300
  C     39.465100   26.236200   94.004700
  H     38.842300   26.505900   93.168500
  H     38.864100   25.668100   94.783500
  C     40.591300   25.378800   93.552300
  H     40.287700   24.430300   93.104700
  H     41.324200   25.196400   94.333900
  H     41.299300   25.878000   92.903800
  H     38.637200   31.279600   89.051000
  H     36.210800   29.853400   96.736100

 Total Charge           Charge          ....    0
 Multiplicity           Mult            ....    1
 Number of Electrons    NEL             ....  134
 Basis Dimension        Dim             ....  322

ORBITAL ENERGIES
----------------

  NO   OCC          E(Eh)            E(eV)
   0   2.0000     -88.967429     -2420.9268
   1   2.0000     -88.961906     -2420.7765
   2   2.0000     -10.336337      -281.2660
   3   2.0000     -10.336007      -281.2571
   4   2.0000     -10.320136      -280.8252
   5   2.0000     -10.314111      -280.6612
   6   2.0000     -10.307362      -280.4776
   7   2.0000     -10.304197      -280.3915
   8   2.0000     -10.299294      -280.2580
   9   2.0000     -10.298060      -280.2244
  10   2.0000     -10.297763      -280.2164
  11   2.0000     -10.295920      -280.1662
  12   2.0000     -10.292707      -280.0788
  13   2.0000     -10.292638      -280.0769
  14   2.0000     -10.282986      -279.8143
  15   2.0000     -10.277242      -279.6580
  16   2.0000      -8.083266      -219.9569
  17   2.0000      -8.076997      -219.7863
  18   2.0000      -6.041852      -164.4072
  19   2.0000      -6.037487      -164.2884
  20   2.0000      -6.035548      -164.2356
  21   2.0000      -6.034015      -164.1939
  22   2.0000      -6.031385      -164.1223
  23   2.0000      -6.027774      -164.0241
  24   2.0000      -1.008536       -27.4437
  25   2.0000      -0.987472       -26.8705
  26   2.0000      -0.913233       -24.8503
  27   2.0000      -0.911340       -24.7988
  28   2.0000      -0.867677       -23.6107
  29   2.0000      -0.857152       -23.3243
  30   2.0000      -0.840133       -22.8612
  31   2.0000      -0.811538       -22.0831
  32   2.0000      -0.784601       -21.3501
  33   2.0000      -0.776737       -21.1361
  34   2.0000      -0.706785       -19.2326
  35   2.0000      -0.696878       -18.9630
  36   2.0000      -0.691991       -18.8300
  37   2.0000      -0.667584       -18.1659
  38   2.0000      -0.635888       -17.3034
  39   2.0000      -0.617193       -16.7947
  40   2.0000      -0.595898       -16.2152
  41   2.0000      -0.574274       -15.6268
  42   2.0000      -0.565655       -15.3923
  43   2.0000      -0.543010       -14.7761
  44   2.0000      -0.535716       -14.5776
  45   2.0000      -0.532448       -14.4887
  46   2.0000      -0.520451       -14.1622
  47   2.0000      -0.517000       -14.0683
  48   2.0000      -0.507229       -13.8024
  49   2.0000      -0.499579       -13.5942
  50   2.0000      -0.492823       -13.4104
  51   2.0000      -0.483603       -13.1595
  52   2.0000      -0.474086       -12.9005
  53   2.0000      -0.466282       -12.6882
  54   2.0000      -0.453391       -12.3374
  55   2.0000      -0.447116       -12.1666
  56   2.0000      -0.443643       -12.0721
  57   2.0000      -0.436379       -11.8745
  58   2.0000      -0.435009       -11.8372
  59   2.0000      -0.433484       -11.7957
  60   2.0000      -0.417089       -11.3496
  61   2.0000      -0.409427       -11.1411
  62   2.0000      -0.407580       -11.0908
  63   2.0000      -0.365726        -9.9519
  64   2.0000      -0.333014        -9.0618
  65   2.0000      -0.325681        -8.8622
  66   2.0000      -0.283238        -7.7073
  67   0.0000       0.019419         0.5284
  68   0.0000       0.094247         2.5646
  69   0.0000       0.099040         2.6950
  70   0.0000       0.116103         3.1593
  71   0.0000       0.124613         3.3909

MULLIKEN ATOMIC CHARGES
-----------------------
   0 S :    0.118862
   1 C :   -0.148469
   2 C :   -0.092574
   3 C :   -0.005329
   4 C :   -0.105319
   5 H :   -0.002179
   6 C :    0.113910
   7 H :    0.020942
   8 H :    0.033300
   9 C :   -0.096470
  10 H :    0.031112
  11 H :    0.036649
  12 C :   -0.077418
  13 H :    0.026640
  14 H :    0.043791
  15 H :    0.027546
  16 S :    0.071840
  17 C :   -0.095988
  18 C :   -0.044209
  19 C :   -0.062307
  20 C :   -0.107022
  21 H :    0.018842
  22 C :    0.017270
  23 H :    0.012456
  24 H :    0.044619
  25 C :   -0.057402
  26 H :    0.035076
  27 H :    0.042916
  28 C :   -0.017391
  29 H :    0.046163
  30 H :    0.012771
  31 H :    0.008794
  32 H :    0.070857
  33 H :    0.077721
Sum of atomic charges:   -0.0000000

LOEWDIN ATOMIC CHARGES
----------------------
   0 S :    0.434655
   1 C :   -0.221469
   2 C :   -0.061349
   3 C :   -0.070784
   4 C :   -0.201029
   5 H :    0.022840
   6 C :   -0.023561
   7 H :    0.025727
   8 H :    0.039517
   9 C :   -0.045192
  10 H :    0.024641
  11 H :    0.028528
  12 C :   -0.078216
  13 H :    0.024831
  14 H :    0.034027
  15 H :    0.018509
  16 S :    0.392224
  17 C :   -0.197868
  18 C :   -0.075020
  19 C :   -0.062141
  20 C :   -0.172667
  21 H :    0.030050
  22 C :   -0.038451
  23 H :    0.025837
  24 H :    0.039034
  25 C :   -0.039007
  26 H :    0.023139
  27 H :    0.035249
  28 C :   -0.072629
  29 H :    0.031148
  30 H :    0.025719
  31 H :    0.021376
  32 H :    0.042214
  33 H :    0.040119

  Mayer bond orders larger than 0.100000
B(  0-S ,  1-C ) :   1.1481 B(  0-S ,  4-C ) :   1.1663 B(  1-C ,  2-C ) :   1.6159
B(  1-C , 32-H ) :   0.9558 B(  2-C ,  3-C ) :   1.2542 B(  2-C ,  6-C ) :   1.0336
B(  3-C ,  4-C ) :   1.5366 B(  3-C ,  5-H ) :   0.9900 B(  4-C , 20-C ) :   1.0818
B(  6-C ,  7-H ) :   0.9443 B(  6-C ,  8-H ) :   0.9361 B(  6-C ,  9-C ) :   1.0602
B(  9-C , 10-H ) :   0.9560 B(  9-C , 11-H ) :   0.9565 B(  9-C , 12-C ) :   1.0779
B( 12-C , 13-H ) :   0.9715 B( 12-C , 14-H ) :   0.9723 B( 12-C , 15-H ) :   0.9762
B( 16-S , 17-C ) :   1.1615 B( 16-S , 20-C ) :   1.1392 B( 17-C , 18-C ) :   1.5915
B( 17-C , 33-H ) :   0.9668 B( 18-C , 19-C ) :   1.2539 B( 18-C , 21-H ) :   0.9886
B( 19-C , 20-C ) :   1.5731 B( 19-C , 22-C ) :   1.0515 B( 22-C , 23-H ) :   0.9204
B( 22-C , 24-H ) :   0.9404 B( 22-C , 25-C ) :   1.0467 B( 25-C , 26-H ) :   0.9601
B( 25-C , 27-H ) :   0.9492 B( 25-C , 28-C ) :   1.0946 B( 28-C , 29-H ) :   0.9711
B( 28-C , 30-H ) :   0.9631 B( 28-C , 31-H ) :   0.9673

Dispersion correction           -0.014968200
FINAL SINGLE POINT ENERGY     -1339.887157283327

DIPOLE MOMENT
-------------
                                X             Y             Z
Electronic contribution:    -16.67278      24.98671      10.28445
Nuclear contribution   :     17.01540     -25.55003     -10.36435
                        -----------------------------------------
Total Dipole Moment    :      0.34262      -0.56332      -0.07990
                        -----------------------------------------
Magnitude (a.u.)       :      0.66416
Magnitude (Debye)      :      1.68815

Rotational constants in cm-1:     0.017556     0.010273     0.006850
Rotational constants in MHz :   526.324347   307.962812   205.357836

                             ****ORCA TERMINATED NORMALLY****
TOTAL RUN TIME: 0 days 0 hours 0 minutes 30 seconds 773 msec
