                         Program Version 4.2.1 -  RELEASE  -
|  1> ! wB97X-D3 SP def2-SVP
|  2> %pal
|  3> nprocs 16
|  4> end
|  5>
|  6> * xyz 0 1
|  7> S 	 -113.079 	 55.8756 	 108.905
|  8> C 	 -111.394 	 55.3284 	 109.133
|  9> C 	 -110.822 	 55.863 	 110.339
| 10> C 	 -111.678 	 56.7298 	 110.99
| 11> C 	 -112.994 	 56.6644 	 110.469
| 12> H 	 -111.341 	 57.4162 	 111.757
| 13> C 	 -109.383 	 55.6489 	 110.75
| 14> H 	 -108.846 	 56.5455 	 110.431
| 15> H 	 -108.94 	 54.7534 	 110.179
| 16> C 	 -109.103 	 55.3768 	 112.233
| 17> H 	 -109.766 	 55.9117 	 112.932
| 18> H 	 -109.396 	 54.337 	 112.4
| 19> C 	 -107.656 	 55.6929 	 112.636
| 20> H 	 -107.628 	 55.3827 	 113.709
| 21> H 	 -106.849 	 55.1335 	 112.198
| 22> H 	 -107.341 	 56.7087 	 112.471
| 23> S 	 -114.836 	 58.7349 	 109.986
| 24> C 	 -115.868 	 59.2486 	 111.229
| 25> C 	 -115.663 	 58.5088 	 112.443
| 26> C 	 -114.649 	 57.521 	 112.246
| 27> C 	 -114.11 	 57.4864 	 110.972
| 28> H 	 -116.246 	 58.875 	 113.317
| 29> C 	 -114.205 	 56.685 	 113.459
| 30> H 	 -113.769 	 55.7498 	 113.065
| 31> H 	 -115.19 	 56.2333 	 113.831
| 32> C 	 -113.34 	 57.3009 	 114.515
| 33> H 	 -113.485 	 58.3847 	 114.453
| 34> H 	 -112.356 	 56.9913 	 114.236
| 35> C 	 -113.468 	 56.8074 	 115.94
| 36> H 	 -112.617 	 57.2229 	 116.521
| 37> H 	 -113.341 	 55.7326 	 115.901
| 38> H 	 -114.421 	 57.0466 	 116.427
| 39> H 	 -110.985 	 54.6276 	 108.407
| 40> H 	 -116.466 	 60.0935 	 111.195
| 41> *
| 42>
| 43>                          ****END OF INPUT****

CARTESIAN COORDINATES (ANGSTROEM)
---------------------------------
  S    -113.079000   55.875600  108.905000
  C    -111.394000   55.328400  109.133000
  C    -110.822000   55.863000  110.339000
  C    -111.678000   56.729800  110.990000
  C    -112.994000   56.664400  110.469000
  H    -111.341000   57.416200  111.757000
  C    -109.383000   55.648900  110.750000
  H    -108.846000   56.545500  110.431000
  H    -108.940000   54.753400  110.179000
  C    -109.103000   55.376800  112.233000
  H    -109.766000   55.911700  112.932000
  H    -109.396000   54.337000  112.400000
  C    -107.656000   55.692900  112.636000
  H    -107.628000   55.382700  113.709000
  H    -106.849000   55.133500  112.198000
  H    -107.341000   56.708700  112.471000
  S    -114.836000   58.734900  109.986000
  C    -115.868000   59.248600  111.229000
  C    -115.663000   58.508800  112.443000
  C    -114.649000   57.521000  112.246000
  C    -114.110000   57.486400  110.972000
  H    -116.246000   58.875000  113.317000
  C    -114.205000   56.685000  113.459000
  H    -113.769000   55.749800  113.065000
  H    -115.190000   56.233300  113.831000
  C    -113.340000   57.300900  114.515000
  H    -113.485000   58.384700  114.453000
  H    -112.356000   56.991300  114.236000
  C    -113.468000   56.807400  115.940000
  H    -112.617000   57.222900  116.521000
  H    -113.341000   55.732600  115.901000
  H    -114.421000   57.046600  116.427000
  H    -110.985000   54.627600  108.407000
  H    -116.466000   60.093500  111.195000

 Total Charge           Charge          ....    0
 Multiplicity           Mult            ....    1
 Number of Electrons    NEL             ....  134
 Basis Dimension        Dim             ....  322

ORBITAL ENERGIES
----------------

  NO   OCC          E(Eh)            E(eV)
   0   2.0000     -88.971995     -2421.0511
   1   2.0000     -88.966664     -2420.9060
   2   2.0000     -10.334128      -281.2059
   3   2.0000     -10.323189      -280.9082
   4   2.0000     -10.321107      -280.8516
   5   2.0000     -10.311721      -280.5962
   6   2.0000     -10.304738      -280.4062
   7   2.0000     -10.303443      -280.3709
   8   2.0000     -10.298577      -280.2385
   9   2.0000     -10.297780      -280.2168
  10   2.0000     -10.295441      -280.1532
  11   2.0000     -10.291472      -280.0452
  12   2.0000     -10.289265      -279.9851
  13   2.0000     -10.281047      -279.7615
  14   2.0000     -10.280595      -279.7492
  15   2.0000     -10.279421      -279.7173
  16   2.0000      -8.085820      -220.0263
  17   2.0000      -8.082104      -219.9252
  18   2.0000      -6.044087      -164.4680
  19   2.0000      -6.040560      -164.3720
  20   2.0000      -6.040400      -164.3676
  21   2.0000      -6.036805      -164.2698
  22   2.0000      -6.036364      -164.2578
  23   2.0000      -6.033206      -164.1719
  24   2.0000      -1.003683       -27.3116
  25   2.0000      -0.981044       -26.6956
  26   2.0000      -0.911501       -24.8032
  27   2.0000      -0.910790       -24.7839
  28   2.0000      -0.863413       -23.4947
  29   2.0000      -0.856256       -23.2999
  30   2.0000      -0.847736       -23.0681
  31   2.0000      -0.807939       -21.9851
  32   2.0000      -0.782372       -21.2894
  33   2.0000      -0.769490       -20.9389
  34   2.0000      -0.707842       -19.2614
  35   2.0000      -0.696331       -18.9481
  36   2.0000      -0.691272       -18.8105
  37   2.0000      -0.657052       -17.8793
  38   2.0000      -0.638740       -17.3810
  39   2.0000      -0.624630       -16.9971
  40   2.0000      -0.595413       -16.2020
  41   2.0000      -0.565627       -15.3915
  42   2.0000      -0.560442       -15.2504
  43   2.0000      -0.559731       -15.2311
  44   2.0000      -0.530489       -14.4353
  45   2.0000      -0.524357       -14.2685
  46   2.0000      -0.521494       -14.1906
  47   2.0000      -0.509639       -13.8680
  48   2.0000      -0.503726       -13.7071
  49   2.0000      -0.500836       -13.6284
  50   2.0000      -0.491403       -13.3718
  51   2.0000      -0.476770       -12.9736
  52   2.0000      -0.470235       -12.7958
  53   2.0000      -0.462675       -12.5900
  54   2.0000      -0.460050       -12.5186
  55   2.0000      -0.453369       -12.3368
  56   2.0000      -0.445491       -12.1224
  57   2.0000      -0.442370       -12.0375
  58   2.0000      -0.429979       -11.7003
  59   2.0000      -0.423030       -11.5112
  60   2.0000      -0.417612       -11.3638
  61   2.0000      -0.413685       -11.2569
  62   2.0000      -0.405290       -11.0285
  63   2.0000      -0.339136        -9.2284
  64   2.0000      -0.333052        -9.0628
  65   2.0000      -0.329224        -8.9586
  66   2.0000      -0.287440        -7.8216
  67   0.0000       0.027108         0.7376
  68   0.0000       0.062515         1.7011
  69   0.0000       0.107516         2.9257
  70   0.0000       0.121514         3.3066
  71   0.0000       0.125660         3.4194

MULLIKEN ATOMIC CHARGES
-----------------------
   0 S :    0.113090
   1 C :   -0.144033
   2 C :   -0.056686
   3 C :    0.011345
   4 C :   -0.162670
   5 H :    0.031265
   6 C :    0.039628
   7 H :    0.041418
   8 H :    0.039760
   9 C :   -0.088813
  10 H :    0.030656
  11 H :    0.030676
  12 C :   -0.050904
  13 H :    0.037812
  14 H :    0.025285
  15 H :    0.033466
  16 S :    0.125605
  17 C :   -0.087247
  18 C :   -0.062107
  19 C :   -0.049881
  20 C :   -0.142689
  21 H :    0.039199
  22 C :    0.029141
  23 H :    0.022843
  24 H :    0.028412
  25 C :   -0.029526
  26 H :    0.034475
  27 H :    0.016355
  28 C :   -0.055148
  29 H :    0.040034
  30 H :    0.027712
  31 H :    0.038754
  32 H :    0.057903
  33 H :    0.034871
Sum of atomic charges:   -0.0000000

LOEWDIN ATOMIC CHARGES
----------------------
   0 S :    0.403801
   1 C :   -0.194953
   2 C :   -0.061104
   3 C :   -0.057934
   4 C :   -0.188987
   5 H :    0.035999
   6 C :   -0.039402
   7 H :    0.033007
   8 H :    0.040800
   9 C :   -0.045868
  10 H :    0.022615
  11 H :    0.027894
  12 C :   -0.067532
  13 H :    0.035405
  14 H :    0.021857
  15 H :    0.023734
  16 S :    0.434895
  17 C :   -0.195739
  18 C :   -0.077952
  19 C :   -0.057696
  20 C :   -0.214932
  21 H :    0.040946
  22 C :   -0.044005
  23 H :    0.028821
  24 H :    0.035273
  25 C :   -0.046049
  26 H :    0.025583
  27 H :    0.023559
  28 C :   -0.061168
  29 H :    0.032629
  30 H :    0.024075
  31 H :    0.023712
  32 H :    0.024972
  33 H :    0.013743

  Mayer bond orders larger than 0.100000
B(  0-S ,  1-C ) :   1.1495 B(  0-S ,  4-C ) :   1.1798 B(  1-C ,  2-C ) :   1.5407
B(  1-C ,  4-C ) :   0.1194 B(  1-C , 32-H ) :   0.9717 B(  2-C ,  3-C ) :   1.2980
B(  2-C ,  6-C ) :   1.0224 B(  3-C ,  4-C ) :   1.5144 B(  3-C ,  5-H ) :   0.9875
B(  4-C , 20-C ) :   1.0307 B(  6-C ,  7-H ) :   0.9430 B(  6-C ,  8-H ) :   0.9449
B(  6-C ,  9-C ) :   1.0493 B(  9-C , 10-H ) :   0.9605 B(  9-C , 11-H ) :   0.9544
B(  9-C , 12-C ) :   1.0752 B( 12-C , 13-H ) :   0.9735 B( 12-C , 14-H ) :   0.9756
B( 12-C , 15-H ) :   0.9764 B( 16-S , 17-C ) :   1.1960 B( 16-S , 20-C ) :   1.1450
B( 17-C , 18-C ) :   1.5667 B( 17-C , 33-H ) :   0.9752 B( 18-C , 19-C ) :   1.2543
B( 18-C , 21-H ) :   0.9909 B( 19-C , 20-C ) :   1.5901 B( 19-C , 22-C ) :   1.0423
B( 22-C , 23-H ) :   0.9276 B( 22-C , 24-H ) :   0.9426 B( 22-C , 25-C ) :   1.0445
B( 25-C , 26-H ) :   0.9612 B( 25-C , 27-H ) :   0.9478 B( 25-C , 28-C ) :   1.0904
B( 28-C , 29-H ) :   0.9724 B( 28-C , 30-H ) :   0.9742 B( 28-C , 31-H ) :   0.9760

Dispersion correction           -0.014182653
FINAL SINGLE POINT ENERGY     -1339.866754182086

DIPOLE MOMENT
-------------
                                X             Y             Z
Electronic contribution:    -19.28078       6.54165     -26.35222
Nuclear contribution   :     19.76834      -6.50713      26.84879
                        -----------------------------------------
Total Dipole Moment    :      0.48757       0.03452       0.49656
                        -----------------------------------------
Magnitude (a.u.)       :      0.69677
Magnitude (Debye)      :      1.77105

Rotational constants in cm-1:     0.015785     0.009719     0.006575
Rotational constants in MHz :   473.216899   291.362494   197.113055

                             ****ORCA TERMINATED NORMALLY****
TOTAL RUN TIME: 0 days 0 hours 0 minutes 33 seconds 184 msec
