                         Program Version 4.2.1 -  RELEASE  -
|  1> ! wB97X-D3 SP def2-SVP
|  2> %pal
|  3> nprocs 16
|  4> end
|  5>
|  6> * xyz 0 1
|  7> S 	 50.4587 	 7.74935 	 95.2025
|  8> C 	 50.527 	 8.71602 	 93.7206
|  9> C 	 49.533 	 8.3375 	 92.8252
| 10> C 	 48.7401 	 7.25578 	 93.3404
| 11> C 	 49.1316 	 6.74389 	 94.5698
| 12> H 	 47.8463 	 6.86736 	 92.8514
| 13> C 	 49.2397 	 9.11646 	 91.5221
| 14> H 	 48.644 	 8.42669 	 90.9285
| 15> H 	 50.1175 	 9.29382 	 90.9096
| 16> C 	 48.4752 	 10.4847 	 91.7669
| 17> H 	 47.5084 	 10.3348 	 92.2468
| 18> H 	 49.0294 	 10.9874 	 92.4703
| 19> C 	 48.2551 	 11.3365 	 90.5117
| 20> H 	 47.3529 	 10.9937 	 90.0245
| 21> H 	 48.1118 	 12.3203 	 90.9289
| 22> H 	 49.0914 	 11.4559 	 89.8703
| 23> S 	 48.4701 	 4.18411 	 94.3261
| 24> C 	 47.7381 	 3.35263 	 95.6269
| 25> C 	 47.6535 	 4.07669 	 96.7898
| 26> C 	 48.1537 	 5.44302 	 96.6018
| 27> C 	 48.4846 	 5.66065 	 95.2532
| 28> H 	 47.1123 	 3.64241 	 97.5821
| 29> C 	 48.1051 	 6.50777 	 97.7786
| 30> H 	 47.3198 	 7.20191 	 97.5284
| 31> H 	 49.0385 	 7.11944 	 97.871
| 32> C 	 47.7387 	 6.01129 	 99.242
| 33> H 	 46.8165 	 5.58032 	 99.2454
| 34> H 	 47.5899 	 6.89254 	 99.8597
| 35> C 	 48.7981 	 5.12638 	 99.9466
| 36> H 	 48.4635 	 4.86521 	 100.96
| 37> H 	 49.7575 	 5.60752 	 100.03
| 38> H 	 48.9544 	 4.224 	 99.3942
| 39> H 	 51.0974 	 9.57267 	 93.7118
| 40> H 	 47.4022 	 2.29477 	 95.5301
| 41> *
| 42>
| 43>                          ****END OF INPUT****

CARTESIAN COORDINATES (ANGSTROEM)
---------------------------------
  S     50.458700    7.749350   95.202500
  C     50.527000    8.716020   93.720600
  C     49.533000    8.337500   92.825200
  C     48.740100    7.255780   93.340400
  C     49.131600    6.743890   94.569800
  H     47.846300    6.867360   92.851400
  C     49.239700    9.116460   91.522100
  H     48.644000    8.426690   90.928500
  H     50.117500    9.293820   90.909600
  C     48.475200   10.484700   91.766900
  H     47.508400   10.334800   92.246800
  H     49.029400   10.987400   92.470300
  C     48.255100   11.336500   90.511700
  H     47.352900   10.993700   90.024500
  H     48.111800   12.320300   90.928900
  H     49.091400   11.455900   89.870300
  S     48.470100    4.184110   94.326100
  C     47.738100    3.352630   95.626900
  C     47.653500    4.076690   96.789800
  C     48.153700    5.443020   96.601800
  C     48.484600    5.660650   95.253200
  H     47.112300    3.642410   97.582100
  C     48.105100    6.507770   97.778600
  H     47.319800    7.201910   97.528400
  H     49.038500    7.119440   97.871000
  C     47.738700    6.011290   99.242000
  H     46.816500    5.580320   99.245400
  H     47.589900    6.892540   99.859700
  C     48.798100    5.126380   99.946600
  H     48.463500    4.865210  100.960000
  H     49.757500    5.607520  100.030000
  H     48.954400    4.224000   99.394200
  H     51.097400    9.572670   93.711800
  H     47.402200    2.294770   95.530100

 Total Charge           Charge          ....    0
 Multiplicity           Mult            ....    1
 Number of Electrons    NEL             ....  134
 Basis Dimension        Dim             ....  322

ORBITAL ENERGIES
----------------

  NO   OCC          E(Eh)            E(eV)
   0   2.0000     -88.965498     -2420.8743
   1   2.0000     -88.963241     -2420.8129
   2   2.0000     -10.328638      -281.0565
   3   2.0000     -10.325197      -280.9629
   4   2.0000     -10.316640      -280.7300
   5   2.0000     -10.315378      -280.6957
   6   2.0000     -10.310412      -280.5606
   7   2.0000     -10.304192      -280.3913
   8   2.0000     -10.301498      -280.3180
   9   2.0000     -10.294404      -280.1250
  10   2.0000     -10.294149      -280.1180
  11   2.0000     -10.293623      -280.1037
  12   2.0000     -10.283761      -279.8354
  13   2.0000     -10.281892      -279.7845
  14   2.0000     -10.273617      -279.5593
  15   2.0000     -10.273423      -279.5541
  16   2.0000      -8.081201      -219.9007
  17   2.0000      -8.077029      -219.7871
  18   2.0000      -6.039629      -164.3467
  19   2.0000      -6.035605      -164.2372
  20   2.0000      -6.035578      -164.2364
  21   2.0000      -6.031960      -164.1380
  22   2.0000      -6.031629      -164.1290
  23   2.0000      -6.027829      -164.0256
  24   2.0000      -1.004940       -27.3458
  25   2.0000      -0.978521       -26.6269
  26   2.0000      -0.903784       -24.5932
  27   2.0000      -0.898076       -24.4379
  28   2.0000      -0.871966       -23.7274
  29   2.0000      -0.848800       -23.0970
  30   2.0000      -0.842085       -22.9143
  31   2.0000      -0.813027       -22.1236
  32   2.0000      -0.784058       -21.3353
  33   2.0000      -0.770315       -20.9613
  34   2.0000      -0.711007       -19.3475
  35   2.0000      -0.705106       -19.1869
  36   2.0000      -0.693027       -18.8582
  37   2.0000      -0.660741       -17.9797
  38   2.0000      -0.639480       -17.4011
  39   2.0000      -0.614867       -16.7314
  40   2.0000      -0.596254       -16.2249
  41   2.0000      -0.567507       -15.4427
  42   2.0000      -0.560663       -15.2564
  43   2.0000      -0.545147       -14.8342
  44   2.0000      -0.535855       -14.5813
  45   2.0000      -0.520986       -14.1768
  46   2.0000      -0.516682       -14.0596
  47   2.0000      -0.510031       -13.8787
  48   2.0000      -0.507673       -13.8145
  49   2.0000      -0.497541       -13.5388
  50   2.0000      -0.494140       -13.4462
  51   2.0000      -0.473307       -12.8793
  52   2.0000      -0.468821       -12.7573
  53   2.0000      -0.466574       -12.6961
  54   2.0000      -0.461011       -12.5448
  55   2.0000      -0.446835       -12.1590
  56   2.0000      -0.445838       -12.1319
  57   2.0000      -0.441107       -12.0031
  58   2.0000      -0.435391       -11.8476
  59   2.0000      -0.424036       -11.5386
  60   2.0000      -0.422642       -11.5007
  61   2.0000      -0.417591       -11.3632
  62   2.0000      -0.412352       -11.2207
  63   2.0000      -0.346462        -9.4277
  64   2.0000      -0.331356        -9.0167
  65   2.0000      -0.326622        -8.8878
  66   2.0000      -0.290312        -7.8998
  67   0.0000       0.026325         0.7163
  68   0.0000       0.075483         2.0540
  69   0.0000       0.110120         2.9965
  70   0.0000       0.112030         3.0485
  71   0.0000       0.129005         3.5104

MULLIKEN ATOMIC CHARGES
-----------------------
   0 S :    0.094069
   1 C :   -0.108340
   2 C :   -0.068162
   3 C :   -0.002778
   4 C :   -0.124098
   5 H :    0.017946
   6 C :    0.067302
   7 H :    0.014568
   8 H :    0.028656
   9 C :   -0.061081
  10 H :    0.027335
  11 H :    0.000824
  12 C :   -0.014178
  13 H :    0.040747
  14 H :    0.024283
  15 H :    0.024699
  16 S :    0.123110
  17 C :   -0.103921
  18 C :   -0.036616
  19 C :   -0.027224
  20 C :   -0.170704
  21 H :    0.013801
  22 C :    0.032913
  23 H :    0.043769
  24 H :    0.042202
  25 C :   -0.057652
  26 H :    0.006272
  27 H :    0.025311
  28 C :   -0.035972
  29 H :    0.032467
  30 H :    0.028063
  31 H :    0.026199
  32 H :    0.027797
  33 H :    0.068392
Sum of atomic charges:   -0.0000000

LOEWDIN ATOMIC CHARGES
----------------------
   0 S :    0.383893
   1 C :   -0.174972
   2 C :   -0.059451
   3 C :   -0.068351
   4 C :   -0.192895
   5 H :    0.030940
   6 C :   -0.028651
   7 H :    0.025298
   8 H :    0.029476
   9 C :   -0.029640
  10 H :    0.027936
  11 H :    0.007707
  12 C :   -0.058883
  13 H :    0.027573
  14 H :    0.030000
  15 H :    0.019373
  16 S :    0.436461
  17 C :   -0.200058
  18 C :   -0.074708
  19 C :   -0.045444
  20 C :   -0.205610
  21 H :    0.026738
  22 C :   -0.031640
  23 H :    0.035312
  24 H :    0.031310
  25 C :   -0.034245
  26 H :    0.007761
  27 H :    0.028937
  28 C :   -0.061145
  29 H :    0.027986
  30 H :    0.023832
  31 H :    0.020082
  32 H :    0.009568
  33 H :    0.035509

  Mayer bond orders larger than 0.100000
B(  0-S ,  1-C ) :   1.1431 B(  0-S ,  4-C ) :   1.1252 B(  1-C ,  2-C ) :   1.5906
B(  1-C , 32-H ) :   0.9813 B(  2-C ,  3-C ) :   1.2540 B(  2-C ,  6-C ) :   1.0222
B(  3-C ,  4-C ) :   1.5517 B(  3-C ,  5-H ) :   0.9919 B(  4-C , 20-C ) :   1.0759
B(  6-C ,  7-H ) :   0.9423 B(  6-C ,  8-H ) :   0.9456 B(  6-C ,  9-C ) :   1.0509
B(  9-C , 10-H ) :   0.9550 B(  9-C , 11-H ) :   0.9633 B(  9-C , 12-C ) :   1.0813
B( 12-C , 13-H ) :   0.9790 B( 12-C , 14-H ) :   0.9722 B( 12-C , 15-H ) :   0.9754
B( 16-S , 17-C ) :   1.1670 B( 16-S , 20-C ) :   1.1495 B( 17-C , 18-C ) :   1.6228
B( 17-C , 33-H ) :   0.9563 B( 18-C , 19-C ) :   1.2220 B( 18-C , 21-H ) :   0.9922
B( 19-C , 20-C ) :   1.5949 B( 19-C , 22-C ) :   1.0039 B( 22-C , 23-H ) :   0.9402
B( 22-C , 24-H ) :   0.9438 B( 22-C , 25-C ) :   1.0881 B( 25-C , 26-H ) :   0.9497
B( 25-C , 27-H ) :   0.9528 B( 25-C , 28-C ) :   1.0786 B( 28-C , 29-H ) :   0.9738
B( 28-C , 30-H ) :   0.9751 B( 28-C , 31-H ) :   0.9778

Dispersion correction           -0.013666042
FINAL SINGLE POINT ENERGY     -1339.871563639402

DIPOLE MOMENT
-------------
                                X             Y             Z
Electronic contribution:      6.58317     -14.23950      -3.03206
Nuclear contribution   :     -7.00176      14.54305       3.12772
                        -----------------------------------------
Total Dipole Moment    :     -0.41859       0.30355       0.09566
                        -----------------------------------------
Magnitude (a.u.)       :      0.52584
Magnitude (Debye)      :      1.33659

Rotational constants in cm-1:     0.024309     0.006581     0.005812
Rotational constants in MHz :   728.769481   197.300131   174.251891

                             ****ORCA TERMINATED NORMALLY****
TOTAL RUN TIME: 0 days 0 hours 0 minutes 28 seconds 230 msec
