                         Program Version 4.2.1 -  RELEASE  -
|  1> ! wB97X-D3 SP def2-SVP
|  2> %pal
|  3> nprocs 16
|  4> end
|  5>
|  6> * xyz 0 1
|  7> S 	 43.2106 	 18.9465 	 46.074
|  8> C 	 43.3241 	 17.3106 	 46.7339
|  9> C 	 44.6052 	 16.8199 	 46.4851
| 10> C 	 45.476 	 17.7222 	 45.7775
| 11> C 	 44.8977 	 18.948 	 45.5898
| 12> H 	 46.4294 	 17.551 	 45.417
| 13> C 	 44.9773 	 15.3784 	 46.8543
| 14> H 	 44.3529 	 15.0416 	 47.6436
| 15> H 	 46.0064 	 15.3206 	 47.2868
| 16> C 	 44.8011 	 14.4124 	 45.6636
| 17> H 	 44.9846 	 15.0264 	 44.7802
| 18> H 	 45.4262 	 13.5245 	 45.6906
| 19> C 	 43.3479 	 13.9593 	 45.5443
| 20> H 	 42.6799 	 14.7261 	 45.7376
| 21> H 	 43.0785 	 13.4046 	 44.6171
| 22> H 	 43.1352 	 13.2309 	 46.3334
| 23> S 	 46.6181 	 21.0457 	 46.016
| 24> C 	 47.2911 	 21.8722 	 44.6097
| 25> C 	 46.7062 	 21.4854 	 43.418
| 26> C 	 45.7607 	 20.3829 	 43.5818
| 27> C 	 45.5475 	 20.1126 	 44.9403
| 28> H 	 47.0397 	 21.9999 	 42.5898
| 29> C 	 45.0385 	 19.6353 	 42.4685
| 30> H 	 44.4295 	 20.3104 	 41.8982
| 31> H 	 44.3052 	 18.9742 	 42.9097
| 32> C 	 45.9316 	 18.7809 	 41.5874
| 33> H 	 46.5783 	 19.6177 	 41.1359
| 34> H 	 45.3665 	 18.2016 	 40.8841
| 35> C 	 46.7865 	 17.8023 	 42.3231
| 36> H 	 47.5419 	 18.3084 	 42.9499
| 37> H 	 47.4822 	 17.3813 	 41.6642
| 38> H 	 46.1931 	 16.9455 	 42.6535
| 39> H 	 42.4806 	 16.6902 	 47.0856
| 40> H 	 48.0246 	 22.6762 	 44.5885
| 41> *
| 42>
| 43>                          ****END OF INPUT****

CARTESIAN COORDINATES (ANGSTROEM)
---------------------------------
  S     43.210600   18.946500   46.074000
  C     43.324100   17.310600   46.733900
  C     44.605200   16.819900   46.485100
  C     45.476000   17.722200   45.777500
  C     44.897700   18.948000   45.589800
  H     46.429400   17.551000   45.417000
  C     44.977300   15.378400   46.854300
  H     44.352900   15.041600   47.643600
  H     46.006400   15.320600   47.286800
  C     44.801100   14.412400   45.663600
  H     44.984600   15.026400   44.780200
  H     45.426200   13.524500   45.690600
  C     43.347900   13.959300   45.544300
  H     42.679900   14.726100   45.737600
  H     43.078500   13.404600   44.617100
  H     43.135200   13.230900   46.333400
  S     46.618100   21.045700   46.016000
  C     47.291100   21.872200   44.609700
  C     46.706200   21.485400   43.418000
  C     45.760700   20.382900   43.581800
  C     45.547500   20.112600   44.940300
  H     47.039700   21.999900   42.589800
  C     45.038500   19.635300   42.468500
  H     44.429500   20.310400   41.898200
  H     44.305200   18.974200   42.909700
  C     45.931600   18.780900   41.587400
  H     46.578300   19.617700   41.135900
  H     45.366500   18.201600   40.884100
  C     46.786500   17.802300   42.323100
  H     47.541900   18.308400   42.949900
  H     47.482200   17.381300   41.664200
  H     46.193100   16.945500   42.653500
  H     42.480600   16.690200   47.085600
  H     48.024600   22.676200   44.588500

 Total Charge           Charge          ....    0
 Multiplicity           Mult            ....    1
 Number of Electrons    NEL             ....  134
 Basis Dimension        Dim             ....  322

ORBITAL ENERGIES
----------------

  NO   OCC          E(Eh)            E(eV)
   0   2.0000     -88.966924     -2420.9131
   1   2.0000     -88.964855     -2420.8568
   2   2.0000     -10.329348      -281.0759
   3   2.0000     -10.328644      -281.0567
   4   2.0000     -10.320358      -280.8312
   5   2.0000     -10.318861      -280.7905
   6   2.0000     -10.312733      -280.6237
   7   2.0000     -10.304839      -280.4089
   8   2.0000     -10.294042      -280.1151
   9   2.0000     -10.291170      -280.0370
  10   2.0000     -10.290035      -280.0061
  11   2.0000     -10.286731      -279.9162
  12   2.0000     -10.285454      -279.8814
  13   2.0000     -10.285095      -279.8717
  14   2.0000     -10.271843      -279.5111
  15   2.0000     -10.270553      -279.4760
  16   2.0000      -8.080892      -219.8923
  17   2.0000      -8.079044      -219.8420
  18   2.0000      -6.039441      -164.3415
  19   2.0000      -6.037577      -164.2908
  20   2.0000      -6.035540      -164.2354
  21   2.0000      -6.033584      -164.1822
  22   2.0000      -6.031601      -164.1282
  23   2.0000      -6.029852      -164.0806
  24   2.0000      -1.000692       -27.2302
  25   2.0000      -0.978219       -26.6187
  26   2.0000      -0.914834       -24.8939
  27   2.0000      -0.911349       -24.7991
  28   2.0000      -0.866407       -23.5761
  29   2.0000      -0.848575       -23.0909
  30   2.0000      -0.844570       -22.9819
  31   2.0000      -0.817896       -22.2561
  32   2.0000      -0.786389       -21.3987
  33   2.0000      -0.772748       -21.0275
  34   2.0000      -0.707952       -19.2643
  35   2.0000      -0.693268       -18.8648
  36   2.0000      -0.686969       -18.6934
  37   2.0000      -0.655764       -17.8442
  38   2.0000      -0.646589       -17.5946
  39   2.0000      -0.620812       -16.8931
  40   2.0000      -0.598080       -16.2746
  41   2.0000      -0.576731       -15.6936
  42   2.0000      -0.564779       -15.3684
  43   2.0000      -0.552323       -15.0295
  44   2.0000      -0.547002       -14.8847
  45   2.0000      -0.535943       -14.5837
  46   2.0000      -0.520608       -14.1665
  47   2.0000      -0.514363       -13.9965
  48   2.0000      -0.498206       -13.5569
  49   2.0000      -0.489053       -13.3078
  50   2.0000      -0.485762       -13.2182
  51   2.0000      -0.478132       -13.0106
  52   2.0000      -0.471412       -12.8278
  53   2.0000      -0.466267       -12.6878
  54   2.0000      -0.460388       -12.5278
  55   2.0000      -0.449635       -12.2352
  56   2.0000      -0.442786       -12.0488
  57   2.0000      -0.438150       -11.9227
  58   2.0000      -0.432619       -11.7722
  59   2.0000      -0.423951       -11.5363
  60   2.0000      -0.419591       -11.4176
  61   2.0000      -0.414075       -11.2676
  62   2.0000      -0.400253       -10.8914
  63   2.0000      -0.338083        -9.1997
  64   2.0000      -0.328161        -8.9297
  65   2.0000      -0.318589        -8.6693
  66   2.0000      -0.315123        -8.5749
  67   0.0000       0.046094         1.2543
  68   0.0000       0.050926         1.3858
  69   0.0000       0.114211         3.1078
  70   0.0000       0.116834         3.1792
  71   0.0000       0.127384         3.4663

MULLIKEN ATOMIC CHARGES
-----------------------
   0 S :    0.105538
   1 C :   -0.125962
   2 C :   -0.119499
   3 C :    0.101733
   4 C :   -0.181537
   5 H :   -0.016595
   6 C :    0.062229
   7 H :    0.006707
   8 H :    0.036329
   9 C :   -0.045238
  10 H :    0.033375
  11 H :    0.035146
  12 C :   -0.050528
  13 H :    0.003891
  14 H :    0.040123
  15 H :    0.016120
  16 S :    0.110798
  17 C :   -0.095214
  18 C :   -0.014632
  19 C :   -0.028989
  20 C :   -0.171269
  21 H :   -0.008521
  22 C :    0.119759
  23 H :    0.027901
  24 H :    0.007311
  25 C :   -0.101339
  26 H :    0.030051
  27 H :    0.029080
  28 C :   -0.019854
  29 H :    0.039024
  30 H :    0.005547
  31 H :    0.043164
  32 H :    0.070305
  33 H :    0.055049
Sum of atomic charges:    0.0000000

LOEWDIN ATOMIC CHARGES
----------------------
   0 S :    0.395905
   1 C :   -0.201950
   2 C :   -0.059021
   3 C :   -0.046839
   4 C :   -0.195458
   5 H :    0.021939
   6 C :   -0.030190
   7 H :    0.020667
   8 H :    0.035441
   9 C :   -0.037058
  10 H :    0.024438
  11 H :    0.023973
  12 C :   -0.064775
  13 H :    0.009368
  14 H :    0.030648
  15 H :    0.022482
  16 S :    0.391736
  17 C :   -0.176206
  18 C :   -0.067541
  19 C :   -0.039072
  20 C :   -0.193741
  21 H :    0.019013
  22 C :   -0.032823
  23 H :    0.030160
  24 H :    0.024613
  25 C :   -0.040032
  26 H :    0.029129
  27 H :    0.023310
  28 C :   -0.072379
  29 H :    0.034371
  30 H :    0.021499
  31 H :    0.030750
  32 H :    0.036483
  33 H :    0.031159

  Mayer bond orders larger than 0.100000
B(  0-S ,  1-C ) :   1.1315 B(  0-S ,  4-C ) :   1.1498 B(  1-C ,  2-C ) :   1.6149
B(  1-C , 32-H ) :   0.9603 B(  2-C ,  3-C ) :   1.2165 B(  2-C ,  6-C ) :   1.0382
B(  3-C ,  4-C ) :   1.5933 B(  3-C ,  5-H ) :   1.0096 B(  4-C , 20-C ) :   0.9833
B(  6-C ,  7-H ) :   0.9457 B(  6-C ,  8-H ) :   0.9420 B(  6-C ,  9-C ) :   1.0449
B(  9-C , 10-H ) :   0.9605 B(  9-C , 11-H ) :   0.9583 B(  9-C , 12-C ) :   1.0769
B( 12-C , 13-H ) :   0.9752 B( 12-C , 14-H ) :   0.9731 B( 12-C , 15-H ) :   0.9721
B( 16-S , 17-C ) :   1.1463 B( 16-S , 20-C ) :   1.1358 B( 17-C , 18-C ) :   1.6562
B( 17-C , 33-H ) :   0.9618 B( 18-C , 19-C ) :   1.1821 B( 18-C , 21-H ) :   1.0013
B( 19-C , 20-C ) :   1.6301 B( 19-C , 22-C ) :   1.0369 B( 22-C , 23-H ) :   0.9388
B( 22-C , 24-H ) :   0.9237 B( 22-C , 25-C ) :   1.0632 B( 25-C , 26-H ) :   0.9578
B( 25-C , 27-H ) :   0.9556 B( 25-C , 28-C ) :   1.1034 B( 28-C , 29-H ) :   0.9577
B( 28-C , 30-H ) :   0.9587 B( 28-C , 31-H ) :   0.9678

Dispersion correction           -0.016048606
FINAL SINGLE POINT ENERGY     -1339.867139333958

DIPOLE MOMENT
-------------
                                X             Y             Z
Electronic contribution:     -1.29426      23.49282      12.78840
Nuclear contribution   :      1.56619     -23.95038     -13.29657
                        -----------------------------------------
Total Dipole Moment    :      0.27193      -0.45755      -0.50817
                        -----------------------------------------
Magnitude (a.u.)       :      0.73589
Magnitude (Debye)      :      1.87049

Rotational constants in cm-1:     0.020964     0.008994     0.007567
Rotational constants in MHz :   628.495970   269.627565   226.841318

                             ****ORCA TERMINATED NORMALLY****
TOTAL RUN TIME: 0 days 0 hours 0 minutes 36 seconds 518 msec
