                         Program Version 4.2.1 -  RELEASE  -
|  1> ! wB97X-D3 SP def2-SVP
|  2> %pal
|  3> nprocs 16
|  4> end
|  5>
|  6> * xyz 0 1
|  7> S 	 45.5447 	 4.03575 	 85.9402
|  8> C 	 44.9613 	 4.382 	 84.32
|  9> C 	 44.716 	 5.74427 	 84.1682
| 10> C 	 45.1509 	 6.48949 	 85.291
| 11> C 	 45.6434 	 5.70865 	 86.3305
| 12> H 	 45.1306 	 7.59742 	 85.3812
| 13> C 	 44.1496 	 6.43193 	 82.9183
| 14> H 	 43.0982 	 6.08988 	 82.8392
| 15> H 	 44.6087 	 5.92429 	 82.0379
| 16> C 	 44.2566 	 7.98873 	 82.8381
| 17> H 	 43.6305 	 8.53271 	 83.5843
| 18> H 	 45.3525 	 8.24519 	 83.0011
| 19> C 	 43.8017 	 8.60216 	 81.5283
| 20> H 	 42.7996 	 8.28274 	 81.2567
| 21> H 	 43.5737 	 9.69356 	 81.6471
| 22> H 	 44.4657 	 8.54676 	 80.7212
| 23> S 	 45.5036 	 5.35407 	 89.1141
| 24> C 	 46.4178 	 6.386 	 90.1728
| 25> C 	 47.0282 	 7.37339 	 89.4597
| 26> C 	 46.9491 	 7.16604 	 88.0293
| 27> C 	 46.1683 	 6.12774 	 87.6759
| 28> H 	 47.6046 	 8.12344 	 89.9585
| 29> C 	 47.7453 	 8.10005 	 87.126
| 30> H 	 47.9792 	 9.05 	 87.7258
| 31> H 	 47.2078 	 8.45015 	 86.2781
| 32> C 	 49.1437 	 7.54841 	 86.6422
| 33> H 	 48.9498 	 6.48729 	 86.4502
| 34> H 	 49.8569 	 7.62676 	 87.5252
| 35> C 	 49.6708 	 8.12089 	 85.3453
| 36> H 	 49.778 	 9.18094 	 85.2645
| 37> H 	 49.0454 	 7.86589 	 84.4366
| 38> H 	 50.6121 	 7.64264 	 85.2496
| 39> H 	 44.8846 	 3.62105 	 83.5915
| 40> H 	 46.3844 	 6.42332 	 91.2767
| 41> *
| 42>
| 43>                          ****END OF INPUT****

CARTESIAN COORDINATES (ANGSTROEM)
---------------------------------
  S     45.544700    4.035750   85.940200
  C     44.961300    4.382000   84.320000
  C     44.716000    5.744270   84.168200
  C     45.150900    6.489490   85.291000
  C     45.643400    5.708650   86.330500
  H     45.130600    7.597420   85.381200
  C     44.149600    6.431930   82.918300
  H     43.098200    6.089880   82.839200
  H     44.608700    5.924290   82.037900
  C     44.256600    7.988730   82.838100
  H     43.630500    8.532710   83.584300
  H     45.352500    8.245190   83.001100
  C     43.801700    8.602160   81.528300
  H     42.799600    8.282740   81.256700
  H     43.573700    9.693560   81.647100
  H     44.465700    8.546760   80.721200
  S     45.503600    5.354070   89.114100
  C     46.417800    6.386000   90.172800
  C     47.028200    7.373390   89.459700
  C     46.949100    7.166040   88.029300
  C     46.168300    6.127740   87.675900
  H     47.604600    8.123440   89.958500
  C     47.745300    8.100050   87.126000
  H     47.979200    9.050000   87.725800
  H     47.207800    8.450150   86.278100
  C     49.143700    7.548410   86.642200
  H     48.949800    6.487290   86.450200
  H     49.856900    7.626760   87.525200
  C     49.670800    8.120890   85.345300
  H     49.778000    9.180940   85.264500
  H     49.045400    7.865890   84.436600
  H     50.612100    7.642640   85.249600
  H     44.884600    3.621050   83.591500
  H     46.384400    6.423320   91.276700

 Total Charge           Charge          ....    0
 Multiplicity           Mult            ....    1
 Number of Electrons    NEL             ....  134
 Basis Dimension        Dim             ....  322

ORBITAL ENERGIES
----------------

  NO   OCC          E(Eh)            E(eV)
   0   2.0000     -88.966598     -2420.9042
   1   2.0000     -88.962270     -2420.7864
   2   2.0000     -10.331371      -281.1309
   3   2.0000     -10.326885      -281.0088
   4   2.0000     -10.316363      -280.7225
   5   2.0000     -10.312773      -280.6248
   6   2.0000     -10.305370      -280.4234
   7   2.0000     -10.302039      -280.3327
   8   2.0000     -10.301259      -280.3115
   9   2.0000     -10.299254      -280.2569
  10   2.0000     -10.295916      -280.1661
  11   2.0000     -10.292117      -280.0628
  12   2.0000     -10.289514      -279.9919
  13   2.0000     -10.289408      -279.9890
  14   2.0000     -10.278592      -279.6947
  15   2.0000     -10.275156      -279.6012
  16   2.0000      -8.081660      -219.9131
  17   2.0000      -8.077313      -219.7949
  18   2.0000      -6.040050      -164.3581
  19   2.0000      -6.036010      -164.2482
  20   2.0000      -6.035998      -164.2479
  21   2.0000      -6.032656      -164.1569
  22   2.0000      -6.031760      -164.1325
  23   2.0000      -6.027865      -164.0265
  24   2.0000      -1.007612       -27.4185
  25   2.0000      -0.987163       -26.8621
  26   2.0000      -0.908215       -24.7138
  27   2.0000      -0.901178       -24.5223
  28   2.0000      -0.868574       -23.6351
  29   2.0000      -0.852602       -23.2005
  30   2.0000      -0.845398       -23.0044
  31   2.0000      -0.816451       -22.2167
  32   2.0000      -0.782317       -21.2879
  33   2.0000      -0.773562       -21.0497
  34   2.0000      -0.708832       -19.2883
  35   2.0000      -0.693209       -18.8632
  36   2.0000      -0.685898       -18.6642
  37   2.0000      -0.660150       -17.9636
  38   2.0000      -0.641119       -17.4457
  39   2.0000      -0.620866       -16.8946
  40   2.0000      -0.593610       -16.1530
  41   2.0000      -0.572275       -15.5724
  42   2.0000      -0.565322       -15.3832
  43   2.0000      -0.553774       -15.0690
  44   2.0000      -0.528634       -14.3849
  45   2.0000      -0.523974       -14.2581
  46   2.0000      -0.513072       -13.9614
  47   2.0000      -0.507786       -13.8176
  48   2.0000      -0.502908       -13.6848
  49   2.0000      -0.499913       -13.6033
  50   2.0000      -0.493397       -13.4260
  51   2.0000      -0.482103       -13.1187
  52   2.0000      -0.476022       -12.9532
  53   2.0000      -0.466634       -12.6978
  54   2.0000      -0.463416       -12.6102
  55   2.0000      -0.451380       -12.2827
  56   2.0000      -0.439500       -11.9594
  57   2.0000      -0.431075       -11.7301
  58   2.0000      -0.427996       -11.6463
  59   2.0000      -0.423604       -11.5269
  60   2.0000      -0.420737       -11.4488
  61   2.0000      -0.418250       -11.3812
  62   2.0000      -0.407430       -11.0867
  63   2.0000      -0.348798        -9.4913
  64   2.0000      -0.332866        -9.0577
  65   2.0000      -0.327913        -8.9230
  66   2.0000      -0.293402        -7.9839
  67   0.0000       0.032314         0.8793
  68   0.0000       0.073021         1.9870
  69   0.0000       0.110428         3.0049
  70   0.0000       0.121625         3.3096
  71   0.0000       0.135634         3.6908

MULLIKEN ATOMIC CHARGES
-----------------------
   0 S :    0.112678
   1 C :   -0.126474
   2 C :   -0.074531
   3 C :   -0.002612
   4 C :   -0.147956
   5 H :    0.030775
   6 C :    0.058407
   7 H :    0.040327
   8 H :    0.033482
   9 C :   -0.117587
  10 H :    0.048180
  11 H :    0.044915
  12 C :   -0.024103
  13 H :    0.021753
  14 H :    0.027030
  15 H :    0.029334
  16 S :    0.095789
  17 C :   -0.089712
  18 C :   -0.031939
  19 C :   -0.051615
  20 C :   -0.120606
  21 H :    0.011744
  22 C :    0.058065
  23 H :    0.025909
  24 H :    0.003789
  25 C :   -0.097942
  26 H :    0.040015
  27 H :    0.040064
  28 C :   -0.031167
  29 H :    0.025023
  30 H :    0.038094
  31 H :    0.030940
  32 H :    0.033172
  33 H :    0.066760
Sum of atomic charges:   -0.0000000

LOEWDIN ATOMIC CHARGES
----------------------
   0 S :    0.422753
   1 C :   -0.194053
   2 C :   -0.060515
   3 C :   -0.074005
   4 C :   -0.199597
   5 H :    0.037339
   6 C :   -0.038919
   7 H :    0.037080
   8 H :    0.036651
   9 C :   -0.050401
  10 H :    0.032574
  11 H :    0.032025
  12 C :   -0.066678
  13 H :    0.025258
  14 H :    0.034152
  15 H :    0.015785
  16 S :    0.395555
  17 C :   -0.189515
  18 C :   -0.069058
  19 C :   -0.063622
  20 C :   -0.193068
  21 H :    0.027388
  22 C :   -0.035168
  23 H :    0.034695
  24 H :    0.017115
  25 C :   -0.042269
  26 H :    0.028960
  27 H :    0.029898
  28 C :   -0.067006
  29 H :    0.017933
  30 H :    0.033954
  31 H :    0.027091
  32 H :    0.018122
  33 H :    0.039545

  Mayer bond orders larger than 0.100000
B(  0-S ,  1-C ) :   1.1481 B(  0-S ,  4-C ) :   1.1834 B(  1-C ,  2-C ) :   1.5783
B(  1-C ,  4-C ) :   0.1094 B(  1-C , 32-H ) :   0.9840 B(  2-C ,  3-C ) :   1.2821
B(  2-C ,  6-C ) :   0.9990 B(  3-C ,  4-C ) :   1.5449 B(  3-C ,  5-H ) :   0.9820
B(  4-C , 20-C ) :   0.9921 B(  6-C ,  7-H ) :   0.9304 B(  6-C ,  8-H ) :   0.9447
B(  6-C ,  9-C ) :   1.0727 B(  9-C , 10-H ) :   0.9492 B(  9-C , 11-H ) :   0.9530
B(  9-C , 12-C ) :   1.0888 B( 12-C , 13-H ) :   0.9690 B( 12-C , 14-H ) :   0.9722
B( 12-C , 15-H ) :   0.9768 B( 16-S , 17-C ) :   1.1432 B( 16-S , 20-C ) :   1.1244
B( 17-C , 18-C ) :   1.6421 B( 17-C , 33-H ) :   0.9604 B( 18-C , 19-C ) :   1.2229
B( 18-C , 21-H ) :   0.9902 B( 19-C , 20-C ) :   1.6572 B( 19-C , 22-C ) :   1.0464
B( 22-C , 23-H ) :   0.9355 B( 22-C , 24-H ) :   0.9384 B( 22-C , 25-C ) :   1.0495
B( 25-C , 26-H ) :   0.9605 B( 25-C , 27-H ) :   0.9567 B( 25-C , 28-C ) :   1.0820
B( 28-C , 29-H ) :   0.9761 B( 28-C , 30-H ) :   0.9711 B( 28-C , 31-H ) :   0.9707

Dispersion correction           -0.013866430
FINAL SINGLE POINT ENERGY     -1339.882423935353

DIPOLE MOMENT
-------------
                                X             Y             Z
Electronic contribution:     -6.59225     -20.85200      21.69235
Nuclear contribution   :      6.68316      21.45290     -22.14263
                        -----------------------------------------
Total Dipole Moment    :      0.09091       0.60090      -0.45028
                        -----------------------------------------
Magnitude (a.u.)       :      0.75637
Magnitude (Debye)      :      1.92255

Rotational constants in cm-1:     0.017065     0.008732     0.006961
Rotational constants in MHz :   511.590295   261.774522   208.693605

                             ****ORCA TERMINATED NORMALLY****
TOTAL RUN TIME: 0 days 0 hours 0 minutes 29 seconds 938 msec
