                         Program Version 4.2.1 -  RELEASE  -
|  1> ! wB97X-D3 SP def2-SVP
|  2> %pal
|  3> nprocs 16
|  4> end
|  5>
|  6> * xyz 0 1
|  7> S 	 59.0433 	 -4.49612 	 89.1892
|  8> C 	 57.3954 	 -5.12294 	 89.0509
|  9> C 	 56.7564 	 -4.68119 	 87.8835
| 10> C 	 57.5735 	 -3.79243 	 87.1211
| 11> C 	 58.8505 	 -3.61909 	 87.6531
| 12> H 	 57.2717 	 -3.30082 	 86.2053
| 13> C 	 55.3368 	 -4.66864 	 87.5248
| 14> H 	 55.1016 	 -5.68378 	 87.7302
| 15> H 	 55.3213 	 -4.49196 	 86.4045
| 16> C 	 54.3475 	 -3.67969 	 88.2204
| 17> H 	 53.4283 	 -3.78171 	 87.6304
| 18> H 	 54.0125 	 -4.00533 	 89.2504
| 19> C 	 54.831 	 -2.22223 	 88.1545
| 20> H 	 54.2371 	 -1.50959 	 88.6456
| 21> H 	 55.8731 	 -2.16656 	 88.4559
| 22> H 	 54.8023 	 -1.94702 	 87.0819
| 23> S 	 60.5497 	 -2.73565 	 85.4756
| 24> C 	 61.5303 	 -1.29907 	 85.713
| 25> C 	 61.3813 	 -0.83789 	 87.0043
| 26> C 	 60.4825 	 -1.63133 	 87.8252
| 27> C 	 59.9018 	 -2.69424 	 87.1704
| 28> H 	 62.025 	 -0.0760932 	 87.2971
| 29> C 	 60.0688 	 -1.12509 	 89.2082
| 30> H 	 60.9672 	 -0.658196 	 89.5587
| 31> H 	 60.0459 	 -1.98053 	 89.9096
| 32> C 	 58.8237 	 -0.201459 	 89.2797
| 33> H 	 57.9458 	 -0.674535 	 88.8491
| 34> H 	 58.9755 	 0.596891 	 88.5011
| 35> C 	 58.5469 	 0.445962 	 90.6432
| 36> H 	 57.519 	 0.790659 	 90.507
| 37> H 	 59.1249 	 1.27113 	 91.035
| 38> H 	 58.6727 	 -0.241041 	 91.5017
| 39> H 	 56.9679 	 -5.70718 	 89.8513
| 40> H 	 62.2776 	 -0.982209 	 85.0524
| 41> *
| 42>
| 43>                          ****END OF INPUT****

CARTESIAN COORDINATES (ANGSTROEM)
---------------------------------
  S     59.043300   -4.496120   89.189200
  C     57.395400   -5.122940   89.050900
  C     56.756400   -4.681190   87.883500
  C     57.573500   -3.792430   87.121100
  C     58.850500   -3.619090   87.653100
  H     57.271700   -3.300820   86.205300
  C     55.336800   -4.668640   87.524800
  H     55.101600   -5.683780   87.730200
  H     55.321300   -4.491960   86.404500
  C     54.347500   -3.679690   88.220400
  H     53.428300   -3.781710   87.630400
  H     54.012500   -4.005330   89.250400
  C     54.831000   -2.222230   88.154500
  H     54.237100   -1.509590   88.645600
  H     55.873100   -2.166560   88.455900
  H     54.802300   -1.947020   87.081900
  S     60.549700   -2.735650   85.475600
  C     61.530300   -1.299070   85.713000
  C     61.381300   -0.837890   87.004300
  C     60.482500   -1.631330   87.825200
  C     59.901800   -2.694240   87.170400
  H     62.025000   -0.076093   87.297100
  C     60.068800   -1.125090   89.208200
  H     60.967200   -0.658196   89.558700
  H     60.045900   -1.980530   89.909600
  C     58.823700   -0.201459   89.279700
  H     57.945800   -0.674535   88.849100
  H     58.975500    0.596891   88.501100
  C     58.546900    0.445962   90.643200
  H     57.519000    0.790659   90.507000
  H     59.124900    1.271130   91.035000
  H     58.672700   -0.241041   91.501700
  H     56.967900   -5.707180   89.851300
  H     62.277600   -0.982209   85.052400

 Total Charge           Charge          ....    0
 Multiplicity           Mult            ....    1
 Number of Electrons    NEL             ....  134
 Basis Dimension        Dim             ....  322

ORBITAL ENERGIES
----------------

  NO   OCC          E(Eh)            E(eV)
   0   2.0000     -88.971303     -2421.0322
   1   2.0000     -88.963283     -2420.8140
   2   2.0000     -10.335623      -281.2466
   3   2.0000     -10.331903      -281.1454
   4   2.0000     -10.320245      -280.8281
   5   2.0000     -10.316482      -280.7258
   6   2.0000     -10.304302      -280.3943
   7   2.0000     -10.299456      -280.2624
   8   2.0000     -10.295895      -280.1655
   9   2.0000     -10.295060      -280.1428
  10   2.0000     -10.291706      -280.0516
  11   2.0000     -10.291380      -280.0427
  12   2.0000     -10.291262      -280.0395
  13   2.0000     -10.288080      -279.9529
  14   2.0000     -10.278774      -279.6997
  15   2.0000     -10.274741      -279.5899
  16   2.0000      -8.084775      -219.9979
  17   2.0000      -8.076973      -219.7856
  18   2.0000      -6.043307      -164.4467
  19   2.0000      -6.039464      -164.3422
  20   2.0000      -6.035600      -164.2370
  21   2.0000      -6.035589      -164.2367
  22   2.0000      -6.031596      -164.1281
  23   2.0000      -6.027695      -164.0219
  24   2.0000      -0.998197       -27.1623
  25   2.0000      -0.978555       -26.6278
  26   2.0000      -0.912785       -24.8382
  27   2.0000      -0.900011       -24.4905
  28   2.0000      -0.865316       -23.5465
  29   2.0000      -0.850336       -23.1388
  30   2.0000      -0.845222       -22.9997
  31   2.0000      -0.814537       -22.1647
  32   2.0000      -0.782936       -21.3048
  33   2.0000      -0.771103       -20.9828
  34   2.0000      -0.708556       -19.2808
  35   2.0000      -0.706738       -19.2313
  36   2.0000      -0.695628       -18.9290
  37   2.0000      -0.663144       -18.0451
  38   2.0000      -0.642471       -17.4825
  39   2.0000      -0.611107       -16.6291
  40   2.0000      -0.589723       -16.0472
  41   2.0000      -0.567911       -15.4536
  42   2.0000      -0.557883       -15.1808
  43   2.0000      -0.550119       -14.9695
  44   2.0000      -0.544752       -14.8235
  45   2.0000      -0.531886       -14.4734
  46   2.0000      -0.516170       -14.0457
  47   2.0000      -0.512461       -13.9448
  48   2.0000      -0.506725       -13.7887
  49   2.0000      -0.491391       -13.3714
  50   2.0000      -0.490471       -13.3464
  51   2.0000      -0.475167       -12.9300
  52   2.0000      -0.468417       -12.7463
  53   2.0000      -0.464544       -12.6409
  54   2.0000      -0.454300       -12.3621
  55   2.0000      -0.450609       -12.2617
  56   2.0000      -0.444347       -12.0913
  57   2.0000      -0.440116       -11.9762
  58   2.0000      -0.436338       -11.8733
  59   2.0000      -0.422475       -11.4961
  60   2.0000      -0.415011       -11.2930
  61   2.0000      -0.410869       -11.1803
  62   2.0000      -0.401501       -10.9254
  63   2.0000      -0.345559        -9.4031
  64   2.0000      -0.330716        -8.9992
  65   2.0000      -0.328319        -8.9340
  66   2.0000      -0.294588        -8.0162
  67   0.0000       0.026383         0.7179
  68   0.0000       0.064794         1.7631
  69   0.0000       0.105685         2.8758
  70   0.0000       0.109717         2.9856
  71   0.0000       0.127107         3.4588

MULLIKEN ATOMIC CHARGES
-----------------------
   0 S :    0.113486
   1 C :   -0.140679
   2 C :   -0.071592
   3 C :    0.008070
   4 C :   -0.156036
   5 H :    0.017296
   6 C :    0.038540
   7 H :    0.021523
   8 H :    0.036126
   9 C :   -0.055601
  10 H :    0.031778
  11 H :    0.033783
  12 C :   -0.050857
  13 H :    0.029009
  14 H :    0.062754
  15 H :    0.020277
  16 S :    0.086590
  17 C :   -0.079114
  18 C :   -0.011937
  19 C :   -0.072330
  20 C :   -0.134756
  21 H :    0.000491
  22 C :    0.095651
  23 H :    0.002869
  24 H :    0.014066
  25 C :   -0.047624
  26 H :    0.029177
  27 H :    0.024152
  28 C :   -0.043338
  29 H :    0.037528
  30 H :    0.030448
  31 H :    0.030674
  32 H :    0.051495
  33 H :    0.048082
Sum of atomic charges:    0.0000000

LOEWDIN ATOMIC CHARGES
----------------------
   0 S :    0.405503
   1 C :   -0.190223
   2 C :   -0.070825
   3 C :   -0.057679
   4 C :   -0.179570
   5 H :    0.032160
   6 C :   -0.038260
   7 H :    0.029635
   8 H :    0.039079
   9 C :   -0.036665
  10 H :    0.026455
  11 H :    0.025939
  12 C :   -0.063971
  13 H :    0.019287
  14 H :    0.027651
  15 H :    0.028564
  16 S :    0.370860
  17 C :   -0.168632
  18 C :   -0.065638
  19 C :   -0.057498
  20 C :   -0.182769
  21 H :    0.021499
  22 C :   -0.039675
  23 H :    0.025068
  24 H :    0.019985
  25 C :   -0.040011
  26 H :    0.026406
  27 H :    0.031501
  28 C :   -0.071704
  29 H :    0.033053
  30 H :    0.024219
  31 H :    0.028196
  32 H :    0.025597
  33 H :    0.022463

  Mayer bond orders larger than 0.100000
B(  0-S ,  1-C ) :   1.1430 B(  0-S ,  4-C ) :   1.1540 B(  1-C ,  2-C ) :   1.5805
B(  1-C , 32-H ) :   0.9742 B(  2-C ,  3-C ) :   1.2357 B(  2-C ,  6-C ) :   1.0332
B(  3-C ,  4-C ) :   1.5742 B(  3-C ,  5-H ) :   0.9908 B(  4-C , 20-C ) :   1.0347
B(  6-C ,  7-H ) :   0.9286 B(  6-C ,  8-H ) :   0.9416 B(  6-C ,  9-C ) :   1.0631
B(  9-C , 10-H ) :   0.9557 B(  9-C , 11-H ) :   0.9572 B(  9-C , 12-C ) :   1.0725
B( 12-C , 13-H ) :   0.9723 B( 12-C , 14-H ) :   0.9723 B( 12-C , 15-H ) :   0.9711
B( 16-S , 17-C ) :   1.1505 B( 16-S , 20-C ) :   1.1131 B( 17-C , 18-C ) :   1.6255
B( 17-C , 33-H ) :   0.9710 B( 18-C , 19-C ) :   1.2238 B( 18-C , 21-H ) :   0.9981
B( 19-C , 20-C ) :   1.6096 B( 19-C , 22-C ) :   1.0484 B( 22-C , 23-H ) :   0.9266
B( 22-C , 24-H ) :   0.9222 B( 22-C , 25-C ) :   1.0534 B( 25-C , 26-H ) :   0.9589
B( 25-C , 27-H ) :   0.9461 B( 25-C , 28-C ) :   1.0671 B( 28-C , 29-H ) :   0.9746
B( 28-C , 30-H ) :   0.9767 B( 28-C , 31-H ) :   0.9760

Dispersion correction           -0.015733660
FINAL SINGLE POINT ENERGY     -1339.868568999634

DIPOLE MOMENT
-------------
                                X             Y             Z
Electronic contribution:     18.77470     -13.66058     -10.54716
Nuclear contribution   :    -19.14281      14.07542      10.79093
                        -----------------------------------------
Total Dipole Moment    :     -0.36811       0.41484       0.24377
                        -----------------------------------------
Magnitude (a.u.)       :      0.60583
Magnitude (Debye)      :      1.53989

Rotational constants in cm-1:     0.017308     0.009751     0.008129
Rotational constants in MHz :   518.875882   292.338632   243.702932

                             ****ORCA TERMINATED NORMALLY****
TOTAL RUN TIME: 0 days 0 hours 0 minutes 31 seconds 604 msec
