                         Program Version 4.2.1 -  RELEASE  -
|  1> ! wB97X-D3 SP def2-SVP
|  2> %pal
|  3> nprocs 16
|  4> end
|  5>
|  6> * xyz 0 1
|  7> S 	 -55.1132 	 38.7945 	 85.9594
|  8> C 	 -56.7167 	 39.5856 	 85.7886
|  9> C 	 -56.9436 	 40.4417 	 86.8787
| 10> C 	 -55.9013 	 40.3144 	 87.9383
| 11> C 	 -54.8629 	 39.4716 	 87.5671
| 12> H 	 -55.9562 	 40.7271 	 88.9367
| 13> C 	 -58.1867 	 41.2845 	 87.0125
| 14> H 	 -58.3655 	 41.3404 	 88.0756
| 15> H 	 -58.9698 	 40.8102 	 86.4985
| 16> C 	 -57.9419 	 42.7039 	 86.4524
| 17> H 	 -57.7102 	 42.4714 	 85.4598
| 18> H 	 -58.8296 	 43.4447 	 86.4092
| 19> C 	 -56.8025 	 43.5154 	 87.0195
| 20> H 	 -55.913 	 42.9445 	 87.0771
| 21> H 	 -56.6359 	 44.3589 	 86.4007
| 22> H 	 -56.9204 	 43.8509 	 88.0382
| 23> S 	 -52.8629 	 40.7268 	 89.1023
| 24> C 	 -51.3775 	 39.8511 	 89.4091
| 25> C 	 -51.5555 	 38.4898 	 89.1503
| 26> C 	 -52.752 	 38.1514 	 88.4401
| 27> C 	 -53.5879 	 39.3359 	 88.2724
| 28> H 	 -50.746 	 37.8692 	 89.3645
| 29> C 	 -52.9625 	 36.7824 	 87.8955
| 30> H 	 -52.6158 	 36.6696 	 86.8751
| 31> H 	 -54.0149 	 36.6131 	 87.7291
| 32> C 	 -52.5354 	 35.6251 	 88.7952
| 33> H 	 -53.0062 	 35.4369 	 89.8087
| 34> H 	 -51.5689 	 35.8209 	 89.1129
| 35> C 	 -52.5337 	 34.3216 	 88.0241
| 36> H 	 -51.6693 	 33.6173 	 88.2334
| 37> H 	 -52.5551 	 34.4687 	 86.9641
| 38> H 	 -53.4288 	 33.7986 	 88.2796
| 39> H 	 -57.43 	 39.1435 	 84.9986
| 40> H 	 -50.4563 	 40.2827 	 89.8031
| 41> *
| 42>
| 43>                          ****END OF INPUT****

CARTESIAN COORDINATES (ANGSTROEM)
---------------------------------
  S    -55.113200   38.794500   85.959400
  C    -56.716700   39.585600   85.788600
  C    -56.943600   40.441700   86.878700
  C    -55.901300   40.314400   87.938300
  C    -54.862900   39.471600   87.567100
  H    -55.956200   40.727100   88.936700
  C    -58.186700   41.284500   87.012500
  H    -58.365500   41.340400   88.075600
  H    -58.969800   40.810200   86.498500
  C    -57.941900   42.703900   86.452400
  H    -57.710200   42.471400   85.459800
  H    -58.829600   43.444700   86.409200
  C    -56.802500   43.515400   87.019500
  H    -55.913000   42.944500   87.077100
  H    -56.635900   44.358900   86.400700
  H    -56.920400   43.850900   88.038200
  S    -52.862900   40.726800   89.102300
  C    -51.377500   39.851100   89.409100
  C    -51.555500   38.489800   89.150300
  C    -52.752000   38.151400   88.440100
  C    -53.587900   39.335900   88.272400
  H    -50.746000   37.869200   89.364500
  C    -52.962500   36.782400   87.895500
  H    -52.615800   36.669600   86.875100
  H    -54.014900   36.613100   87.729100
  C    -52.535400   35.625100   88.795200
  H    -53.006200   35.436900   89.808700
  H    -51.568900   35.820900   89.112900
  C    -52.533700   34.321600   88.024100
  H    -51.669300   33.617300   88.233400
  H    -52.555100   34.468700   86.964100
  H    -53.428800   33.798600   88.279600
  H    -57.430000   39.143500   84.998600
  H    -50.456300   40.282700   89.803100

 Total Charge           Charge          ....    0
 Multiplicity           Mult            ....    1
 Number of Electrons    NEL             ....  134
 Basis Dimension        Dim             ....  322

ORBITAL ENERGIES
----------------

  NO   OCC          E(Eh)            E(eV)
   0   2.0000     -88.971780     -2421.0452
   1   2.0000     -88.963905     -2420.8309
   2   2.0000     -10.335854      -281.2529
   3   2.0000     -10.334463      -281.2150
   4   2.0000     -10.326243      -280.9914
   5   2.0000     -10.322481      -280.8890
   6   2.0000     -10.313472      -280.6438
   7   2.0000     -10.313241      -280.6376
   8   2.0000     -10.300510      -280.2911
   9   2.0000     -10.293217      -280.0927
  10   2.0000     -10.289478      -279.9909
  11   2.0000     -10.287634      -279.9408
  12   2.0000     -10.283344      -279.8240
  13   2.0000     -10.282335      -279.7966
  14   2.0000     -10.274395      -279.5805
  15   2.0000     -10.261859      -279.2394
  16   2.0000      -8.085519      -220.0182
  17   2.0000      -8.077738      -219.8064
  18   2.0000      -6.044052      -164.4670
  19   2.0000      -6.040102      -164.3595
  20   2.0000      -6.036454      -164.2603
  21   2.0000      -6.036392      -164.2586
  22   2.0000      -6.032357      -164.1488
  23   2.0000      -6.028356      -164.0399
  24   2.0000      -0.996805       -27.1244
  25   2.0000      -0.974256       -26.5108
  26   2.0000      -0.916122       -24.9290
  27   2.0000      -0.913203       -24.8495
  28   2.0000      -0.864955       -23.5366
  29   2.0000      -0.853328       -23.2202
  30   2.0000      -0.839963       -22.8565
  31   2.0000      -0.813586       -22.1388
  32   2.0000      -0.785820       -21.3832
  33   2.0000      -0.768028       -20.8991
  34   2.0000      -0.710947       -19.3458
  35   2.0000      -0.699057       -19.0223
  36   2.0000      -0.695351       -18.9215
  37   2.0000      -0.656306       -17.8590
  38   2.0000      -0.636149       -17.3105
  39   2.0000      -0.615734       -16.7550
  40   2.0000      -0.601330       -16.3630
  41   2.0000      -0.568284       -15.4638
  42   2.0000      -0.562861       -15.3162
  43   2.0000      -0.551860       -15.0169
  44   2.0000      -0.545041       -14.8313
  45   2.0000      -0.528575       -14.3833
  46   2.0000      -0.515810       -14.0359
  47   2.0000      -0.514501       -14.0003
  48   2.0000      -0.511424       -13.9166
  49   2.0000      -0.490597       -13.3498
  50   2.0000      -0.488014       -13.2795
  51   2.0000      -0.472107       -12.8467
  52   2.0000      -0.468583       -12.7508
  53   2.0000      -0.465773       -12.6743
  54   2.0000      -0.456577       -12.4241
  55   2.0000      -0.452559       -12.3148
  56   2.0000      -0.447957       -12.1895
  57   2.0000      -0.447316       -12.1721
  58   2.0000      -0.430250       -11.7077
  59   2.0000      -0.424055       -11.5391
  60   2.0000      -0.421030       -11.4568
  61   2.0000      -0.406950       -11.0737
  62   2.0000      -0.402656       -10.9568
  63   2.0000      -0.348223        -9.4756
  64   2.0000      -0.331812        -9.0291
  65   2.0000      -0.325411        -8.8549
  66   2.0000      -0.285566        -7.7706
  67   0.0000       0.016751         0.4558
  68   0.0000       0.069671         1.8958
  69   0.0000       0.098204         2.6723
  70   0.0000       0.113127         3.0784
  71   0.0000       0.126596         3.4448

MULLIKEN ATOMIC CHARGES
-----------------------
   0 S :    0.079681
   1 C :   -0.161751
   2 C :   -0.136762
   3 C :   -0.005813
   4 C :   -0.119906
   5 H :    0.023699
   6 C :    0.136388
   7 H :    0.017541
   8 H :    0.015585
   9 C :   -0.085025
  10 H :    0.009265
  11 H :    0.041097
  12 C :   -0.020652
  13 H :    0.023702
  14 H :    0.026725
  15 H :    0.018215
  16 S :    0.117621
  17 C :   -0.109460
  18 C :   -0.020927
  19 C :   -0.023249
  20 C :   -0.138310
  21 H :    0.003553
  22 C :    0.073605
  23 H :    0.043465
  24 H :    0.017894
  25 C :   -0.067354
  26 H :    0.041127
  27 H :   -0.000423
  28 C :   -0.056333
  29 H :    0.041539
  30 H :    0.022503
  31 H :    0.030516
  32 H :    0.096467
  33 H :    0.065779
Sum of atomic charges:   -0.0000000

LOEWDIN ATOMIC CHARGES
----------------------
   0 S :    0.376947
   1 C :   -0.207308
   2 C :   -0.048706
   3 C :   -0.076607
   4 C :   -0.181593
   5 H :    0.030836
   6 C :   -0.022299
   7 H :    0.026543
   8 H :    0.026290
   9 C :   -0.040888
  10 H :    0.015463
  11 H :    0.032098
  12 C :   -0.061144
  13 H :    0.020209
  14 H :    0.025373
  15 H :    0.021274
  16 S :    0.408509
  17 C :   -0.184368
  18 C :   -0.065294
  19 C :   -0.042490
  20 C :   -0.198634
  21 H :    0.020359
  22 C :   -0.040457
  23 H :    0.037701
  24 H :    0.028641
  25 C :   -0.042096
  26 H :    0.037519
  27 H :    0.007375
  28 C :   -0.065299
  29 H :    0.034700
  30 H :    0.020276
  31 H :    0.023539
  32 H :    0.049328
  33 H :    0.034201

  Mayer bond orders larger than 0.100000
B(  0-S ,  1-C ) :   1.1122 B(  0-S ,  4-C ) :   1.1413 B(  1-C ,  2-C ) :   1.6238
B(  1-C , 32-H ) :   0.9564 B(  2-C ,  3-C ) :   1.2051 B(  2-C ,  6-C ) :   1.0268
B(  3-C ,  4-C ) :   1.5736 B(  3-C ,  5-H ) :   0.9939 B(  4-C , 20-C ) :   1.0781
B(  6-C ,  7-H ) :   0.9405 B(  6-C ,  8-H ) :   0.9424 B(  6-C ,  9-C ) :   1.0518
B(  9-C , 10-H ) :   0.9517 B(  9-C , 11-H ) :   0.9585 B(  9-C , 12-C ) :   1.0929
B( 12-C , 13-H ) :   0.9669 B( 12-C , 14-H ) :   0.9697 B( 12-C , 15-H ) :   0.9727
B( 16-S , 17-C ) :   1.1651 B( 16-S , 20-C ) :   1.1451 B( 17-C , 18-C ) :   1.5856
B( 17-C , 20-C ) :   0.1011 B( 17-C , 33-H ) :   0.9660 B( 18-C , 19-C ) :   1.2643
B( 18-C , 21-H ) :   0.9953 B( 19-C , 20-C ) :   1.5051 B( 19-C , 22-C ) :   1.0560
B( 22-C , 23-H ) :   0.9278 B( 22-C , 24-H ) :   0.9186 B( 22-C , 25-C ) :   1.0548
B( 25-C , 26-H ) :   0.9564 B( 25-C , 27-H ) :   0.9574 B( 25-C , 28-C ) :   1.0729
B( 28-C , 29-H ) :   0.9755 B( 28-C , 30-H ) :   0.9752 B( 28-C , 31-H ) :   0.9775

Dispersion correction           -0.014073127
FINAL SINGLE POINT ENERGY     -1339.854039448854

DIPOLE MOMENT
-------------
                                X             Y             Z
Electronic contribution:      5.94976       4.77403       0.51973
Nuclear contribution   :     -5.93716      -4.99680      -0.40819
                        -----------------------------------------
Total Dipole Moment    :      0.01260      -0.22278       0.11154
                        -----------------------------------------
Magnitude (a.u.)       :      0.24946
Magnitude (Debye)      :      0.63408

Rotational constants in cm-1:     0.022832     0.007822     0.006161
Rotational constants in MHz :   684.480521   234.505312   184.714048

                             ****ORCA TERMINATED NORMALLY****
TOTAL RUN TIME: 0 days 0 hours 0 minutes 28 seconds 244 msec
