                         Program Version 4.2.1 -  RELEASE  -
|  1> ! wB97X-D3 SP def2-SVP
|  2> %pal
|  3> nprocs 16
|  4> end
|  5>
|  6> * xyz 0 1
|  7> S 	 -57.2091 	 43.146 	 135.378
|  8> C 	 -56.0587 	 42.1246 	 136.228
|  9> C 	 -56.6654 	 41.1281 	 136.929
| 10> C 	 -58.0713 	 41.149 	 136.727
| 11> C 	 -58.5473 	 42.2176 	 135.911
| 12> H 	 -58.796 	 40.5094 	 137.239
| 13> C 	 -55.9356 	 39.9724 	 137.554
| 14> H 	 -55.1232 	 39.6595 	 136.866
| 15> H 	 -56.6526 	 39.1699 	 137.461
| 16> C 	 -55.3795 	 40.3078 	 138.964
| 17> H 	 -54.5609 	 41.0679 	 138.789
| 18> H 	 -56.1938 	 40.7896 	 139.516
| 19> C 	 -54.8074 	 39.1532 	 139.81
| 20> H 	 -53.8379 	 39.0041 	 139.318
| 21> H 	 -54.8356 	 39.3283 	 140.882
| 22> H 	 -55.4016 	 38.2792 	 139.605
| 23> S 	 -60.189 	 44.3046 	 136.035
| 24> C 	 -61.9328 	 44.0885 	 135.813
| 25> C 	 -62.1968 	 42.7401 	 135.752
| 26> C 	 -61.117 	 41.8532 	 135.82
| 27> C 	 -59.9023 	 42.5971 	 135.787
| 28> H 	 -63.1855 	 42.4574 	 135.753
| 29> C 	 -61.2224 	 40.3391 	 135.903
| 30> H 	 -61.4714 	 40.1728 	 136.951
| 31> H 	 -60.2861 	 39.7341 	 135.705
| 32> C 	 -62.3623 	 39.6427 	 135.075
| 33> H 	 -62.3142 	 39.6581 	 133.972
| 34> H 	 -63.2478 	 40.1404 	 135.405
| 35> C 	 -62.5208 	 38.2374 	 135.573
| 36> H 	 -63.1359 	 37.7283 	 134.898
| 37> H 	 -62.958 	 38.2649 	 136.628
| 38> H 	 -61.5488 	 37.6314 	 135.591
| 39> H 	 -55.0099 	 42.1412 	 135.889
| 40> H 	 -62.7072 	 44.8416 	 135.926
| 41> *
| 42>
| 43>                          ****END OF INPUT****

CARTESIAN COORDINATES (ANGSTROEM)
---------------------------------
  S    -57.209100   43.146000  135.378000
  C    -56.058700   42.124600  136.228000
  C    -56.665400   41.128100  136.929000
  C    -58.071300   41.149000  136.727000
  C    -58.547300   42.217600  135.911000
  H    -58.796000   40.509400  137.239000
  C    -55.935600   39.972400  137.554000
  H    -55.123200   39.659500  136.866000
  H    -56.652600   39.169900  137.461000
  C    -55.379500   40.307800  138.964000
  H    -54.560900   41.067900  138.789000
  H    -56.193800   40.789600  139.516000
  C    -54.807400   39.153200  139.810000
  H    -53.837900   39.004100  139.318000
  H    -54.835600   39.328300  140.882000
  H    -55.401600   38.279200  139.605000
  S    -60.189000   44.304600  136.035000
  C    -61.932800   44.088500  135.813000
  C    -62.196800   42.740100  135.752000
  C    -61.117000   41.853200  135.820000
  C    -59.902300   42.597100  135.787000
  H    -63.185500   42.457400  135.753000
  C    -61.222400   40.339100  135.903000
  H    -61.471400   40.172800  136.951000
  H    -60.286100   39.734100  135.705000
  C    -62.362300   39.642700  135.075000
  H    -62.314200   39.658100  133.972000
  H    -63.247800   40.140400  135.405000
  C    -62.520800   38.237400  135.573000
  H    -63.135900   37.728300  134.898000
  H    -62.958000   38.264900  136.628000
  H    -61.548800   37.631400  135.591000
  H    -55.009900   42.141200  135.889000
  H    -62.707200   44.841600  135.926000

 Total Charge           Charge          ....    0
 Multiplicity           Mult            ....    1
 Number of Electrons    NEL             ....  134
 Basis Dimension        Dim             ....  322

ORBITAL ENERGIES
----------------

  NO   OCC          E(Eh)            E(eV)
   0   2.0000     -88.966152     -2420.8921
   1   2.0000     -88.964595     -2420.8497
   2   2.0000     -10.327087      -281.0143
   3   2.0000     -10.326208      -280.9904
   4   2.0000     -10.315597      -280.7017
   5   2.0000     -10.311668      -280.5947
   6   2.0000     -10.305687      -280.4320
   7   2.0000     -10.301819      -280.3267
   8   2.0000     -10.298316      -280.2314
   9   2.0000     -10.294808      -280.1360
  10   2.0000     -10.293902      -280.1113
  11   2.0000     -10.291608      -280.0489
  12   2.0000     -10.287681      -279.9420
  13   2.0000     -10.285957      -279.8951
  14   2.0000     -10.283641      -279.8321
  15   2.0000     -10.278566      -279.6940
  16   2.0000      -8.081384      -219.9056
  17   2.0000      -8.079007      -219.8409
  18   2.0000      -6.039845      -164.3525
  19   2.0000      -6.037525      -164.2894
  20   2.0000      -6.035643      -164.2382
  21   2.0000      -6.033580      -164.1821
  22   2.0000      -6.032340      -164.1483
  23   2.0000      -6.029727      -164.0772
  24   2.0000      -1.010388       -27.4940
  25   2.0000      -0.984261       -26.7831
  26   2.0000      -0.914730       -24.8911
  27   2.0000      -0.910695       -24.7813
  28   2.0000      -0.873990       -23.7825
  29   2.0000      -0.855944       -23.2914
  30   2.0000      -0.848106       -23.0781
  31   2.0000      -0.810202       -22.0467
  32   2.0000      -0.783376       -21.3167
  33   2.0000      -0.769893       -20.9499
  34   2.0000      -0.706513       -19.2252
  35   2.0000      -0.700109       -19.0509
  36   2.0000      -0.695700       -18.9310
  37   2.0000      -0.661036       -17.9877
  38   2.0000      -0.636709       -17.3257
  39   2.0000      -0.618427       -16.8283
  40   2.0000      -0.599189       -16.3048
  41   2.0000      -0.574262       -15.6265
  42   2.0000      -0.564044       -15.3484
  43   2.0000      -0.562362       -15.3027
  44   2.0000      -0.531091       -14.4517
  45   2.0000      -0.527616       -14.3572
  46   2.0000      -0.522760       -14.2250
  47   2.0000      -0.515560       -14.0291
  48   2.0000      -0.501800       -13.6547
  49   2.0000      -0.498640       -13.5687
  50   2.0000      -0.493344       -13.4246
  51   2.0000      -0.477556       -12.9950
  52   2.0000      -0.474851       -12.9214
  53   2.0000      -0.462513       -12.5856
  54   2.0000      -0.457631       -12.4528
  55   2.0000      -0.449954       -12.2439
  56   2.0000      -0.445238       -12.1156
  57   2.0000      -0.439122       -11.9491
  58   2.0000      -0.431812       -11.7502
  59   2.0000      -0.427278       -11.6268
  60   2.0000      -0.417937       -11.3726
  61   2.0000      -0.416684       -11.3386
  62   2.0000      -0.409043       -11.1306
  63   2.0000      -0.355482        -9.6732
  64   2.0000      -0.333579        -9.0771
  65   2.0000      -0.329400        -8.9634
  66   2.0000      -0.278416        -7.5761
  67   0.0000       0.019500         0.5306
  68   0.0000       0.075617         2.0576
  69   0.0000       0.109434         2.9778
  70   0.0000       0.112829         3.0702
  71   0.0000       0.138359         3.7649

MULLIKEN ATOMIC CHARGES
-----------------------
   0 S :    0.110884
   1 C :   -0.137533
   2 C :   -0.071337
   3 C :   -0.006729
   4 C :   -0.148303
   5 H :    0.016601
   6 C :    0.057808
   7 H :    0.029381
   8 H :    0.013112
   9 C :   -0.115402
  10 H :    0.039856
  11 H :    0.033722
  12 C :   -0.010751
  13 H :    0.032952
  14 H :    0.049852
  15 H :    0.020344
  16 S :    0.094208
  17 C :   -0.084305
  18 C :   -0.025685
  19 C :    0.018255
  20 C :   -0.147538
  21 H :   -0.018832
  22 C :   -0.005337
  23 H :    0.037452
  24 H :    0.049112
  25 C :   -0.055586
  26 H :    0.049132
  27 H :    0.019255
  28 C :   -0.067727
  29 H :    0.023061
  30 H :    0.043092
  31 H :    0.034478
  32 H :    0.064973
  33 H :    0.057536
Sum of atomic charges:   -0.0000000

LOEWDIN ATOMIC CHARGES
----------------------
   0 S :    0.421426
   1 C :   -0.199008
   2 C :   -0.065758
   3 C :   -0.068039
   4 C :   -0.210677
   5 H :    0.028468
   6 C :   -0.032404
   7 H :    0.032573
   8 H :    0.025498
   9 C :   -0.043209
  10 H :    0.029373
  11 H :    0.022860
  12 C :   -0.066018
  13 H :    0.030557
  14 H :    0.030783
  15 H :    0.021691
  16 S :    0.402553
  17 C :   -0.185920
  18 C :   -0.063754
  19 C :   -0.057147
  20 C :   -0.190995
  21 H :    0.015882
  22 C :   -0.036802
  23 H :    0.035640
  24 H :    0.037089
  25 C :   -0.040467
  26 H :    0.029607
  27 H :    0.019747
  28 C :   -0.067371
  29 H :    0.016951
  30 H :    0.033175
  31 H :    0.028575
  32 H :    0.032409
  33 H :    0.032711

  Mayer bond orders larger than 0.100000
B(  0-S ,  1-C ) :   1.1401 B(  0-S ,  4-C ) :   1.1718 B(  1-C ,  2-C ) :   1.5861
B(  1-C , 32-H ) :   0.9606 B(  2-C ,  3-C ) :   1.2925 B(  2-C ,  6-C ) :   1.0111
B(  3-C ,  4-C ) :   1.4975 B(  3-C ,  5-H ) :   0.9829 B(  4-C , 20-C ) :   1.0976
B(  6-C ,  7-H ) :   0.9444 B(  6-C ,  8-H ) :   0.9440 B(  6-C ,  9-C ) :   1.0425
B(  9-C , 10-H ) :   0.9621 B(  9-C , 11-H ) :   0.9611 B(  9-C , 12-C ) :   1.0685
B( 12-C , 13-H ) :   0.9755 B( 12-C , 14-H ) :   0.9766 B( 12-C , 15-H ) :   0.9759
B( 16-S , 17-C ) :   1.1376 B( 16-S , 20-C ) :   1.1617 B( 17-C , 18-C ) :   1.5925
B( 17-C , 20-C ) :   0.1077 B( 17-C , 33-H ) :   0.9680 B( 18-C , 19-C ) :   1.2718
B( 18-C , 21-H ) :   0.9993 B( 19-C , 20-C ) :   1.5303 B( 19-C , 22-C ) :   1.0261
B( 22-C , 23-H ) :   0.9299 B( 22-C , 24-H ) :   0.9419 B( 22-C , 25-C ) :   1.0588
B( 25-C , 26-H ) :   0.9608 B( 25-C , 27-H ) :   0.9460 B( 25-C , 28-C ) :   1.0893
B( 28-C , 29-H ) :   0.9716 B( 28-C , 30-H ) :   0.9743 B( 28-C , 31-H ) :   0.9720

Dispersion correction           -0.013157818
FINAL SINGLE POINT ENERGY     -1339.864176525131

DIPOLE MOMENT
-------------
                                X             Y             Z
Electronic contribution:     -0.13941      27.60939     -10.68559
Nuclear contribution   :     -0.09486     -28.31798      10.95924
                        -----------------------------------------
Total Dipole Moment    :     -0.23427      -0.70859       0.27364
                        -----------------------------------------
Magnitude (a.u.)       :      0.79490
Magnitude (Debye)      :      2.02048

Rotational constants in cm-1:     0.016961     0.008113     0.006077
Rotational constants in MHz :   508.480311   243.210363   182.198196

                             ****ORCA TERMINATED NORMALLY****
TOTAL RUN TIME: 0 days 0 hours 0 minutes 33 seconds 68 msec
