                         Program Version 4.2.1 -  RELEASE  -
|  1> ! wB97X-D3 SP def2-SVP
|  2> %pal
|  3> nprocs 16
|  4> end
|  5>
|  6> * xyz 0 1
|  7> S 	 -5.16923 	 77.6249 	 48.1187
|  8> C 	 -4.49699 	 78.5631 	 49.3939
|  9> C 	 -3.0847 	 78.5964 	 49.365
| 10> C 	 -2.54844 	 77.8139 	 48.3206
| 11> C 	 -3.54817 	 77.1348 	 47.5539
| 12> H 	 -1.43928 	 77.7514 	 48.0682
| 13> C 	 -2.20871 	 79.3111 	 50.3587
| 14> H 	 -1.25249 	 79.5822 	 50.0376
| 15> H 	 -1.85925 	 78.7174 	 51.2118
| 16> C 	 -2.73734 	 80.677 	 50.82
| 17> H 	 -2.53706 	 81.4048 	 49.9406
| 18> H 	 -3.80484 	 80.7528 	 51.0662
| 19> C 	 -2.10936 	 81.0845 	 52.1607
| 20> H 	 -1.02779 	 81.335 	 52.0721
| 21> H 	 -2.56531 	 82.0048 	 52.4478
| 22> H 	 -2.22782 	 80.3408 	 52.9792
| 23> S 	 -1.70873 	 76.2832 	 45.6557
| 24> C 	 -2.2601 	 75.4715 	 44.254
| 25> C 	 -3.61209 	 75.5387 	 44.1395
| 26> C 	 -4.23832 	 76.1091 	 45.3115
| 27> C 	 -3.34089 	 76.4476 	 46.3177
| 28> H 	 -4.07878 	 75.1822 	 43.2598
| 29> C 	 -5.77404 	 76.0031 	 45.3907
| 30> H 	 -6.07271 	 76.0133 	 46.4579
| 31> H 	 -6.08064 	 75.0676 	 44.974
| 32> C 	 -6.52826 	 77.1825 	 44.746
| 33> H 	 -6.32944 	 77.2407 	 43.6264
| 34> H 	 -6.13147 	 78.0743 	 45.2098
| 35> C 	 -8.01833 	 77.0091 	 44.8694
| 36> H 	 -8.45682 	 77.8809 	 44.3086
| 37> H 	 -8.46586 	 77.1243 	 45.8395
| 38> H 	 -8.40036 	 76.1233 	 44.3742
| 39> H 	 -5.03963 	 79.1561 	 50.2183
| 40> H 	 -1.54051 	 75.1225 	 43.4891
| 41> *
| 42>
| 43>                          ****END OF INPUT****

CARTESIAN COORDINATES (ANGSTROEM)
---------------------------------
  S     -5.169230   77.624900   48.118700
  C     -4.496990   78.563100   49.393900
  C     -3.084700   78.596400   49.365000
  C     -2.548440   77.813900   48.320600
  C     -3.548170   77.134800   47.553900
  H     -1.439280   77.751400   48.068200
  C     -2.208710   79.311100   50.358700
  H     -1.252490   79.582200   50.037600
  H     -1.859250   78.717400   51.211800
  C     -2.737340   80.677000   50.820000
  H     -2.537060   81.404800   49.940600
  H     -3.804840   80.752800   51.066200
  C     -2.109360   81.084500   52.160700
  H     -1.027790   81.335000   52.072100
  H     -2.565310   82.004800   52.447800
  H     -2.227820   80.340800   52.979200
  S     -1.708730   76.283200   45.655700
  C     -2.260100   75.471500   44.254000
  C     -3.612090   75.538700   44.139500
  C     -4.238320   76.109100   45.311500
  C     -3.340890   76.447600   46.317700
  H     -4.078780   75.182200   43.259800
  C     -5.774040   76.003100   45.390700
  H     -6.072710   76.013300   46.457900
  H     -6.080640   75.067600   44.974000
  C     -6.528260   77.182500   44.746000
  H     -6.329440   77.240700   43.626400
  H     -6.131470   78.074300   45.209800
  C     -8.018330   77.009100   44.869400
  H     -8.456820   77.880900   44.308600
  H     -8.465860   77.124300   45.839500
  H     -8.400360   76.123300   44.374200
  H     -5.039630   79.156100   50.218300
  H     -1.540510   75.122500   43.489100

 Total Charge           Charge          ....    0
 Multiplicity           Mult            ....    1
 Number of Electrons    NEL             ....  134
 Basis Dimension        Dim             ....  322

ORBITAL ENERGIES
----------------

  NO   OCC          E(Eh)            E(eV)
   0   2.0000     -88.976776     -2421.1812
   1   2.0000     -88.961484     -2420.7651
   2   2.0000     -10.337088      -281.2865
   3   2.0000     -10.328191      -281.0444
   4   2.0000     -10.320688      -280.8402
   5   2.0000     -10.315281      -280.6931
   6   2.0000     -10.303545      -280.3737
   7   2.0000     -10.303531      -280.3733
   8   2.0000     -10.303032      -280.3598
   9   2.0000     -10.294400      -280.1249
  10   2.0000     -10.289612      -279.9946
  11   2.0000     -10.289129      -279.9814
  12   2.0000     -10.286717      -279.9158
  13   2.0000     -10.286573      -279.9119
  14   2.0000     -10.281167      -279.7648
  15   2.0000     -10.275329      -279.6059
  16   2.0000      -8.089942      -220.1385
  17   2.0000      -8.076927      -219.7844
  18   2.0000      -6.048552      -164.5895
  19   2.0000      -6.044561      -164.4809
  20   2.0000      -6.040806      -164.3787
  21   2.0000      -6.035542      -164.2354
  22   2.0000      -6.031438      -164.1238
  23   2.0000      -6.027448      -164.0152
  24   2.0000      -1.007192       -27.4071
  25   2.0000      -0.983972       -26.7752
  26   2.0000      -0.914342       -24.8805
  27   2.0000      -0.907951       -24.7066
  28   2.0000      -0.872321       -23.7371
  29   2.0000      -0.855690       -23.2845
  30   2.0000      -0.846893       -23.0451
  31   2.0000      -0.808262       -21.9939
  32   2.0000      -0.783362       -21.3164
  33   2.0000      -0.770663       -20.9708
  34   2.0000      -0.707464       -19.2511
  35   2.0000      -0.695483       -18.9250
  36   2.0000      -0.688578       -18.7372
  37   2.0000      -0.666598       -18.1390
  38   2.0000      -0.626415       -17.0456
  39   2.0000      -0.617670       -16.8077
  40   2.0000      -0.597652       -16.2629
  41   2.0000      -0.575894       -15.6709
  42   2.0000      -0.569944       -15.5090
  43   2.0000      -0.557608       -15.1733
  44   2.0000      -0.523930       -14.2569
  45   2.0000      -0.520447       -14.1621
  46   2.0000      -0.517893       -14.0926
  47   2.0000      -0.511182       -13.9100
  48   2.0000      -0.504145       -13.7185
  49   2.0000      -0.500068       -13.6075
  50   2.0000      -0.488638       -13.2965
  51   2.0000      -0.481240       -13.0952
  52   2.0000      -0.473145       -12.8749
  53   2.0000      -0.471311       -12.8250
  54   2.0000      -0.462934       -12.5971
  55   2.0000      -0.450510       -12.2590
  56   2.0000      -0.443194       -12.0599
  57   2.0000      -0.435096       -11.8396
  58   2.0000      -0.429438       -11.6856
  59   2.0000      -0.420974       -11.4553
  60   2.0000      -0.417015       -11.3476
  61   2.0000      -0.411660       -11.2018
  62   2.0000      -0.406177       -11.0526
  63   2.0000      -0.368146       -10.0178
  64   2.0000      -0.335471        -9.1286
  65   2.0000      -0.326838        -8.8937
  66   2.0000      -0.274530        -7.4703
  67   0.0000       0.013876         0.3776
  68   0.0000       0.086709         2.3595
  69   0.0000       0.109219         2.9720
  70   0.0000       0.117687         3.2024
  71   0.0000       0.127360         3.4656

MULLIKEN ATOMIC CHARGES
-----------------------
   0 S :    0.101626
   1 C :   -0.130948
   2 C :   -0.057799
   3 C :   -0.043049
   4 C :   -0.116090
   5 H :    0.051925
   6 C :    0.090892
   7 H :   -0.002826
   8 H :    0.033870
   9 C :   -0.142895
  10 H :    0.053545
  11 H :    0.031501
  12 C :   -0.060480
  13 H :    0.030226
  14 H :    0.024166
  15 H :    0.045390
  16 S :    0.074001
  17 C :   -0.089153
  18 C :   -0.008061
  19 C :   -0.068736
  20 C :   -0.083958
  21 H :    0.005085
  22 C :    0.022655
  23 H :    0.031505
  24 H :    0.020533
  25 C :   -0.078226
  26 H :    0.033295
  27 H :    0.029596
  28 C :   -0.037114
  29 H :    0.030534
  30 H :    0.030648
  31 H :    0.031389
  32 H :    0.076367
  33 H :    0.070587
Sum of atomic charges:    0.0000000

LOEWDIN ATOMIC CHARGES
----------------------
   0 S :    0.435259
   1 C :   -0.226687
   2 C :   -0.065365
   3 C :   -0.072318
   4 C :   -0.178619
   5 H :    0.041510
   6 C :   -0.039526
   7 H :    0.025403
   8 H :    0.035390
   9 C :   -0.045653
  10 H :    0.037309
  11 H :    0.018659
  12 C :   -0.069186
  13 H :    0.024816
  14 H :    0.021445
  15 H :    0.030402
  16 S :    0.404087
  17 C :   -0.191706
  18 C :   -0.069213
  19 C :   -0.058128
  20 C :   -0.190732
  21 H :    0.026383
  22 C :   -0.036417
  23 H :    0.015795
  24 H :    0.024726
  25 C :   -0.042305
  26 H :    0.029418
  27 H :    0.019907
  28 C :   -0.069352
  29 H :    0.033934
  30 H :    0.021449
  31 H :    0.024659
  32 H :    0.047520
  33 H :    0.037136

  Mayer bond orders larger than 0.100000
B(  0-S ,  1-C ) :   1.1499 B(  0-S ,  4-C ) :   1.1459 B(  1-C ,  2-C ) :   1.5744
B(  1-C , 32-H ) :   0.9490 B(  2-C ,  3-C ) :   1.3146 B(  2-C ,  6-C ) :   1.0163
B(  3-C ,  4-C ) :   1.4990 B(  3-C ,  5-H ) :   0.9698 B(  4-C , 20-C ) :   1.1513
B(  6-C ,  7-H ) :   0.9379 B(  6-C ,  8-H ) :   0.9396 B(  6-C ,  9-C ) :   1.0402
B(  9-C , 10-H ) :   0.9588 B(  9-C , 11-H ) :   0.9627 B(  9-C , 12-C ) :   1.0755
B( 12-C , 13-H ) :   0.9731 B( 12-C , 14-H ) :   0.9740 B( 12-C , 15-H ) :   0.9750
B( 16-S , 17-C ) :   1.1562 B( 16-S , 20-C ) :   1.1171 B( 17-C , 18-C ) :   1.6113
B( 17-C , 33-H ) :   0.9633 B( 18-C , 19-C ) :   1.2311 B( 18-C , 21-H ) :   1.0022
B( 19-C , 20-C ) :   1.5656 B( 19-C , 22-C ) :   1.0294 B( 22-C , 23-H ) :   0.9398
B( 22-C , 24-H ) :   0.9416 B( 22-C , 25-C ) :   1.0549 B( 25-C , 26-H ) :   0.9558
B( 25-C , 27-H ) :   0.9517 B( 25-C , 28-C ) :   1.0887 B( 28-C , 29-H ) :   0.9715
B( 28-C , 30-H ) :   0.9729 B( 28-C , 31-H ) :   0.9719

Dispersion correction           -0.013589204
FINAL SINGLE POINT ENERGY     -1339.871785057964

DIPOLE MOMENT
-------------
                                X             Y             Z
Electronic contribution:      8.23686     -12.64135      -8.31055
Nuclear contribution   :     -8.27823      12.89305       8.27678
                        -----------------------------------------
Total Dipole Moment    :     -0.04137       0.25170      -0.03377
                        -----------------------------------------
Magnitude (a.u.)       :      0.25730
Magnitude (Debye)      :      0.65401

Rotational constants in cm-1:     0.021744     0.007603     0.005843
Rotational constants in MHz :   651.870900   227.945243   175.169872

                             ****ORCA TERMINATED NORMALLY****
TOTAL RUN TIME: 0 days 0 hours 0 minutes 35 seconds 997 msec
