                         Program Version 4.2.1 -  RELEASE  -
|  1> ! wB97X-D3 SP def2-SVP
|  2> %pal
|  3> nprocs 16
|  4> end
|  5>
|  6> * xyz 0 1
|  7> S 	 -107.651 	 51.8101 	 115.134
|  8> C 	 -109.013 	 52.3121 	 116.212
|  9> C 	 -108.623 	 53.3347 	 117.04
| 10> C 	 -107.332 	 53.7661 	 116.709
| 11> C 	 -106.872 	 53.304 	 115.528
| 12> H 	 -106.87 	 54.5845 	 117.167
| 13> C 	 -109.539 	 53.9532 	 118.075
| 14> H 	 -108.907 	 54.1003 	 118.997
| 15> H 	 -110.393 	 53.2617 	 118.312
| 16> C 	 -110.124 	 55.2987 	 117.666
| 17> H 	 -110.546 	 55.2436 	 116.62
| 18> H 	 -111.044 	 55.4196 	 118.276
| 19> C 	 -109.318 	 56.6526 	 117.623
| 20> H 	 -110.071 	 57.4569 	 117.588
| 21> H 	 -108.948 	 56.8257 	 118.663
| 22> H 	 -108.507 	 56.7384 	 116.887
| 23> S 	 -104.273 	 52.6693 	 114.583
| 24> C 	 -103.384 	 54.0054 	 113.837
| 25> C 	 -104.052 	 55.2366 	 113.939
| 26> C 	 -105.318 	 55.1457 	 114.568
| 27> C 	 -105.677 	 53.7944 	 114.903
| 28> H 	 -103.435 	 56.0186 	 113.495
| 29> C 	 -106.163 	 56.3085 	 114.674
| 30> H 	 -105.543 	 57.2609 	 114.836
| 31> H 	 -106.631 	 56.2488 	 115.618
| 32> C 	 -107.208 	 56.4228 	 113.535
| 33> H 	 -106.68 	 56.601 	 112.598
| 34> H 	 -107.662 	 57.4495 	 113.791
| 35> C 	 -108.306 	 55.3802 	 113.446
| 36> H 	 -108.602 	 55.0271 	 114.44
| 37> H 	 -107.874 	 54.5354 	 112.936
| 38> H 	 -109.106 	 55.7288 	 112.832
| 39> H 	 -110.041 	 51.9346 	 116.239
| 40> H 	 -102.272 	 53.9855 	 113.652
| 41> *
| 42>
| 43>                          ****END OF INPUT****

CARTESIAN COORDINATES (ANGSTROEM)
---------------------------------
  S    -107.651000   51.810100  115.134000
  C    -109.013000   52.312100  116.212000
  C    -108.623000   53.334700  117.040000
  C    -107.332000   53.766100  116.709000
  C    -106.872000   53.304000  115.528000
  H    -106.870000   54.584500  117.167000
  C    -109.539000   53.953200  118.075000
  H    -108.907000   54.100300  118.997000
  H    -110.393000   53.261700  118.312000
  C    -110.124000   55.298700  117.666000
  H    -110.546000   55.243600  116.620000
  H    -111.044000   55.419600  118.276000
  C    -109.318000   56.652600  117.623000
  H    -110.071000   57.456900  117.588000
  H    -108.948000   56.825700  118.663000
  H    -108.507000   56.738400  116.887000
  S    -104.273000   52.669300  114.583000
  C    -103.384000   54.005400  113.837000
  C    -104.052000   55.236600  113.939000
  C    -105.318000   55.145700  114.568000
  C    -105.677000   53.794400  114.903000
  H    -103.435000   56.018600  113.495000
  C    -106.163000   56.308500  114.674000
  H    -105.543000   57.260900  114.836000
  H    -106.631000   56.248800  115.618000
  C    -107.208000   56.422800  113.535000
  H    -106.680000   56.601000  112.598000
  H    -107.662000   57.449500  113.791000
  C    -108.306000   55.380200  113.446000
  H    -108.602000   55.027100  114.440000
  H    -107.874000   54.535400  112.936000
  H    -109.106000   55.728800  112.832000
  H    -110.041000   51.934600  116.239000
  H    -102.272000   53.985500  113.652000

 Total Charge           Charge          ....    0
 Multiplicity           Mult            ....    1
 Number of Electrons    NEL             ....  134
 Basis Dimension        Dim             ....  322

ORBITAL ENERGIES
----------------

  NO   OCC          E(Eh)            E(eV)
   0   2.0000     -88.968224     -2420.9485
   1   2.0000     -88.965732     -2420.8806
   2   2.0000     -10.334121      -281.2057
   3   2.0000     -10.324822      -280.9527
   4   2.0000     -10.322398      -280.8867
   5   2.0000     -10.314872      -280.6819
   6   2.0000     -10.307335      -280.4768
   7   2.0000     -10.304547      -280.4010
   8   2.0000     -10.297439      -280.2076
   9   2.0000     -10.296689      -280.1871
  10   2.0000     -10.295892      -280.1655
  11   2.0000     -10.291635      -280.0496
  12   2.0000     -10.290109      -280.0081
  13   2.0000     -10.288769      -279.9716
  14   2.0000     -10.283159      -279.8190
  15   2.0000     -10.268755      -279.4270
  16   2.0000      -8.081289      -219.9031
  17   2.0000      -8.080088      -219.8704
  18   2.0000      -6.039835      -164.3523
  19   2.0000      -6.038712      -164.3217
  20   2.0000      -6.036064      -164.2497
  21   2.0000      -6.035047      -164.2220
  22   2.0000      -6.032090      -164.1415
  23   2.0000      -6.030335      -164.0938
  24   2.0000      -1.009099       -27.4590
  25   2.0000      -0.978119       -26.6160
  26   2.0000      -0.912163       -24.8212
  27   2.0000      -0.909985       -24.7619
  28   2.0000      -0.867167       -23.5968
  29   2.0000      -0.850658       -23.1476
  30   2.0000      -0.844296       -22.9745
  31   2.0000      -0.814565       -22.1654
  32   2.0000      -0.790520       -21.5111
  33   2.0000      -0.772195       -21.0125
  34   2.0000      -0.709704       -19.3120
  35   2.0000      -0.696993       -18.9661
  36   2.0000      -0.691476       -18.8160
  37   2.0000      -0.652171       -17.7465
  38   2.0000      -0.636312       -17.3149
  39   2.0000      -0.623194       -16.9580
  40   2.0000      -0.594288       -16.1714
  41   2.0000      -0.571867       -15.5613
  42   2.0000      -0.555724       -15.1220
  43   2.0000      -0.545645       -14.8478
  44   2.0000      -0.543537       -14.7904
  45   2.0000      -0.528013       -14.3680
  46   2.0000      -0.513946       -13.9852
  47   2.0000      -0.509450       -13.8628
  48   2.0000      -0.505231       -13.7480
  49   2.0000      -0.497950       -13.5499
  50   2.0000      -0.495638       -13.4870
  51   2.0000      -0.481699       -13.1077
  52   2.0000      -0.478082       -13.0093
  53   2.0000      -0.461032       -12.5453
  54   2.0000      -0.456741       -12.4286
  55   2.0000      -0.444564       -12.0972
  56   2.0000      -0.443067       -12.0565
  57   2.0000      -0.437276       -11.8989
  58   2.0000      -0.431322       -11.7369
  59   2.0000      -0.427317       -11.6279
  60   2.0000      -0.418452       -11.3867
  61   2.0000      -0.407074       -11.0770
  62   2.0000      -0.405687       -11.0393
  63   2.0000      -0.343455        -9.3459
  64   2.0000      -0.332060        -9.0358
  65   2.0000      -0.330831        -9.0024
  66   2.0000      -0.282948        -7.6994
  67   0.0000       0.018358         0.4995
  68   0.0000       0.058279         1.5858
  69   0.0000       0.095913         2.6099
  70   0.0000       0.113364         3.0848
  71   0.0000       0.126208         3.4343

MULLIKEN ATOMIC CHARGES
-----------------------
   0 S :    0.108022
   1 C :   -0.126270
   2 C :   -0.077890
   3 C :    0.049730
   4 C :   -0.175722
   5 H :   -0.004751
   6 C :    0.068318
   7 H :    0.040505
   8 H :    0.035460
   9 C :   -0.117737
  10 H :    0.033174
  11 H :    0.032298
  12 C :   -0.053114
  13 H :    0.037058
  14 H :    0.024030
  15 H :    0.055360
  16 S :    0.097779
  17 C :   -0.124697
  18 C :   -0.061173
  19 C :   -0.026303
  20 C :   -0.144417
  21 H :    0.027746
  22 C :    0.096786
  23 H :    0.033404
  24 H :   -0.028620
  25 C :   -0.091754
  26 H :    0.026306
  27 H :    0.027316
  28 C :    0.006413
  29 H :    0.040879
  30 H :    0.031766
  31 H :    0.034652
  32 H :    0.045943
  33 H :    0.079503
Sum of atomic charges:    0.0000000

LOEWDIN ATOMIC CHARGES
----------------------
   0 S :    0.382436
   1 C :   -0.182079
   2 C :   -0.063912
   3 C :   -0.058218
   4 C :   -0.192092
   5 H :    0.019367
   6 C :   -0.035066
   7 H :    0.038902
   8 H :    0.039825
   9 C :   -0.055254
  10 H :    0.028101
  11 H :    0.028602
  12 C :   -0.072814
  13 H :    0.034503
  14 H :    0.025901
  15 H :    0.023727
  16 S :    0.367987
  17 C :   -0.192793
  18 C :   -0.075741
  19 C :   -0.051008
  20 C :   -0.176776
  21 H :    0.039070
  22 C :   -0.045471
  23 H :    0.044392
  24 H :    0.017196
  25 C :   -0.034293
  26 H :    0.022369
  27 H :    0.026570
  28 C :   -0.059824
  29 H :    0.029630
  30 H :    0.027528
  31 H :    0.027091
  32 H :    0.031004
  33 H :    0.041140

  Mayer bond orders larger than 0.100000
B(  0-S ,  1-C ) :   1.1075 B(  0-S ,  4-C ) :   1.1304 B(  1-C ,  2-C ) :   1.6396
B(  1-C , 32-H ) :   0.9645 B(  2-C ,  3-C ) :   1.2184 B(  2-C ,  6-C ) :   1.0302
B(  3-C ,  4-C ) :   1.5784 B(  3-C ,  5-H ) :   1.0001 B(  4-C , 20-C ) :   1.0845
B(  6-C ,  7-H ) :   0.9369 B(  6-C ,  8-H ) :   0.9371 B(  6-C ,  9-C ) :   1.0655
B(  9-C , 10-H ) :   0.9511 B(  9-C , 11-H ) :   0.9561 B(  9-C , 12-C ) :   1.0742
B( 12-C , 13-H ) :   0.9677 B( 12-C , 14-H ) :   0.9718 B( 12-C , 15-H ) :   0.9732
B( 16-S , 17-C ) :   1.1501 B( 16-S , 20-C ) :   1.1290 B( 17-C , 18-C ) :   1.6197
B( 17-C , 20-C ) :   0.1119 B( 17-C , 33-H ) :   0.9528 B( 18-C , 19-C ) :   1.2332
B( 18-C , 21-H ) :   0.9923 B( 19-C , 20-C ) :   1.5485 B( 19-C , 22-C ) :   1.0633
B( 22-C , 23-H ) :   0.9240 B( 22-C , 24-H ) :   0.9052 B( 22-C , 25-C ) :   1.0663
B( 25-C , 26-H ) :   0.9558 B( 25-C , 27-H ) :   0.9540 B( 25-C , 28-C ) :   1.0779
B( 28-C , 29-H ) :   0.9670 B( 28-C , 30-H ) :   0.9650 B( 28-C , 31-H ) :   0.9686

Dispersion correction           -0.017629708
FINAL SINGLE POINT ENERGY     -1339.846523984374

DIPOLE MOMENT
-------------
                                X             Y             Z
Electronic contribution:     16.80069     -22.73853      -5.31903
Nuclear contribution   :    -17.08101      23.48884       5.62764
                        -----------------------------------------
Total Dipole Moment    :     -0.28032       0.75032       0.30862
                        -----------------------------------------
Magnitude (a.u.)       :      0.85837
Magnitude (Debye)      :      2.18181

Rotational constants in cm-1:     0.020211     0.010620     0.008344
Rotational constants in MHz :   605.914945   318.391546   250.140550

                             ****ORCA TERMINATED NORMALLY****
TOTAL RUN TIME: 0 days 0 hours 0 minutes 38 seconds 765 msec
