                         Program Version 4.2.1 -  RELEASE  -
|  1> ! wB97X-D3 SP def2-SVP
|  2> %pal
|  3> nprocs 16
|  4> end
|  5>
|  6> * xyz 0 1
|  7> S 	 41.4912 	 10.4676 	 80.6891
|  8> C 	 40.062 	 10.242 	 81.5521
|  9> C 	 40.1923 	 10.5425 	 82.9093
| 10> C 	 41.5285 	 10.9588 	 83.1109
| 11> C 	 42.3986 	 11.0108 	 82.0512
| 12> H 	 41.9343 	 11.2531 	 84.0503
| 13> C 	 39.2602 	 10.2841 	 83.9723
| 14> H 	 38.2499 	 10.4624 	 83.5013
| 15> H 	 39.3839 	 10.9697 	 84.7599
| 16> C 	 39.2274 	 8.80508 	 84.5103
| 17> H 	 38.941 	 7.98033 	 83.8686
| 18> H 	 40.2546 	 8.52144 	 84.7804
| 19> C 	 38.4621 	 8.72553 	 85.768
| 20> H 	 38.7733 	 9.46188 	 86.4841
| 21> H 	 37.3795 	 8.85632 	 85.5406
| 22> H 	 38.5644 	 7.79141 	 86.2825
| 23> S 	 45.0363 	 10.2618 	 81.7304
| 24> C 	 46.1781 	 11.4662 	 81.8556
| 25> C 	 45.6864 	 12.7429 	 82.1759
| 26> C 	 44.2695 	 12.6642 	 82.3111
| 27> C 	 43.747 	 11.4062 	 81.926
| 28> H 	 46.4471 	 13.5329 	 82.2536
| 29> C 	 43.4196 	 13.8459 	 82.8009
| 30> H 	 43.7493 	 14.0787 	 83.8017
| 31> H 	 42.3758 	 13.5269 	 82.951
| 32> C 	 43.5079 	 15.1973 	 81.9824
| 33> H 	 44.4901 	 15.5966 	 81.8617
| 34> H 	 42.9002 	 15.9465 	 82.5404
| 35> C 	 42.8314 	 15.0955 	 80.6352
| 36> H 	 43.2758 	 15.9375 	 80.0735
| 37> H 	 41.7326 	 15.2214 	 80.9126
| 38> H 	 43.1707 	 14.1892 	 80.1801
| 39> H 	 39.1281 	 9.96171 	 81.136
| 40> H 	 47.2246 	 11.2107 	 81.7263
| 41> *
| 42>
| 43>                          ****END OF INPUT****

CARTESIAN COORDINATES (ANGSTROEM)
---------------------------------
  S     41.491200   10.467600   80.689100
  C     40.062000   10.242000   81.552100
  C     40.192300   10.542500   82.909300
  C     41.528500   10.958800   83.110900
  C     42.398600   11.010800   82.051200
  H     41.934300   11.253100   84.050300
  C     39.260200   10.284100   83.972300
  H     38.249900   10.462400   83.501300
  H     39.383900   10.969700   84.759900
  C     39.227400    8.805080   84.510300
  H     38.941000    7.980330   83.868600
  H     40.254600    8.521440   84.780400
  C     38.462100    8.725530   85.768000
  H     38.773300    9.461880   86.484100
  H     37.379500    8.856320   85.540600
  H     38.564400    7.791410   86.282500
  S     45.036300   10.261800   81.730400
  C     46.178100   11.466200   81.855600
  C     45.686400   12.742900   82.175900
  C     44.269500   12.664200   82.311100
  C     43.747000   11.406200   81.926000
  H     46.447100   13.532900   82.253600
  C     43.419600   13.845900   82.800900
  H     43.749300   14.078700   83.801700
  H     42.375800   13.526900   82.951000
  C     43.507900   15.197300   81.982400
  H     44.490100   15.596600   81.861700
  H     42.900200   15.946500   82.540400
  C     42.831400   15.095500   80.635200
  H     43.275800   15.937500   80.073500
  H     41.732600   15.221400   80.912600
  H     43.170700   14.189200   80.180100
  H     39.128100    9.961710   81.136000
  H     47.224600   11.210700   81.726300

 Total Charge           Charge          ....    0
 Multiplicity           Mult            ....    1
 Number of Electrons    NEL             ....  134
 Basis Dimension        Dim             ....  322

ORBITAL ENERGIES
----------------

  NO   OCC          E(Eh)            E(eV)
   0   2.0000     -88.967652     -2420.9329
   1   2.0000     -88.960372     -2420.7348
   2   2.0000     -10.319881      -280.8182
   3   2.0000     -10.316426      -280.7242
   4   2.0000     -10.314142      -280.6621
   5   2.0000     -10.309609      -280.5387
   6   2.0000     -10.305745      -280.4336
   7   2.0000     -10.298032      -280.2237
   8   2.0000     -10.292236      -280.0660
   9   2.0000     -10.291635      -280.0496
  10   2.0000     -10.290336      -280.0143
  11   2.0000     -10.284301      -279.8501
  12   2.0000     -10.284219      -279.8478
  13   2.0000     -10.282042      -279.7886
  14   2.0000     -10.271668      -279.5063
  15   2.0000     -10.271518      -279.5022
  16   2.0000      -8.084327      -219.9857
  17   2.0000      -8.076832      -219.7818
  18   2.0000      -6.042461      -164.4237
  19   2.0000      -6.038483      -164.3155
  20   2.0000      -6.035456      -164.2331
  21   2.0000      -6.035077      -164.2228
  22   2.0000      -6.030850      -164.1078
  23   2.0000      -6.028011      -164.0305
  24   2.0000      -1.016479       -27.6598
  25   2.0000      -0.994873       -27.0719
  26   2.0000      -0.920441       -25.0465
  27   2.0000      -0.904802       -24.6209
  28   2.0000      -0.877099       -23.8671
  29   2.0000      -0.857695       -23.3391
  30   2.0000      -0.852500       -23.1977
  31   2.0000      -0.813842       -22.1458
  32   2.0000      -0.784895       -21.3581
  33   2.0000      -0.768380       -20.9087
  34   2.0000      -0.704384       -19.1673
  35   2.0000      -0.700896       -19.0724
  36   2.0000      -0.687814       -18.7164
  37   2.0000      -0.653958       -17.7951
  38   2.0000      -0.646344       -17.5879
  39   2.0000      -0.622942       -16.9511
  40   2.0000      -0.599312       -16.3081
  41   2.0000      -0.579294       -15.7634
  42   2.0000      -0.561603       -15.2820
  43   2.0000      -0.550045       -14.9675
  44   2.0000      -0.544708       -14.8223
  45   2.0000      -0.532151       -14.4806
  46   2.0000      -0.527849       -14.3635
  47   2.0000      -0.518783       -14.1168
  48   2.0000      -0.504220       -13.7205
  49   2.0000      -0.498166       -13.5558
  50   2.0000      -0.485896       -13.2219
  51   2.0000      -0.480272       -13.0689
  52   2.0000      -0.465249       -12.6601
  53   2.0000      -0.462128       -12.5751
  54   2.0000      -0.456024       -12.4090
  55   2.0000      -0.450762       -12.2659
  56   2.0000      -0.446341       -12.1456
  57   2.0000      -0.441491       -12.0136
  58   2.0000      -0.425597       -11.5811
  59   2.0000      -0.421598       -11.4723
  60   2.0000      -0.419872       -11.4253
  61   2.0000      -0.415764       -11.3135
  62   2.0000      -0.409313       -11.1380
  63   2.0000      -0.339900        -9.2491
  64   2.0000      -0.330308        -8.9881
  65   2.0000      -0.325218        -8.8496
  66   2.0000      -0.294385        -8.0106
  67   0.0000       0.040239         1.0950
  68   0.0000       0.065093         1.7713
  69   0.0000       0.113742         3.0951
  70   0.0000       0.126267         3.4359
  71   0.0000       0.140168         3.8142

MULLIKEN ATOMIC CHARGES
-----------------------
   0 S :    0.125933
   1 C :   -0.098008
   2 C :   -0.087088
   3 C :    0.044534
   4 C :   -0.199485
   5 H :   -0.015922
   6 C :    0.083514
   7 H :    0.026110
   8 H :    0.010981
   9 C :   -0.058684
  10 H :    0.029268
  11 H :    0.017854
  12 C :   -0.035007
  13 H :    0.020795
  14 H :    0.027710
  15 H :    0.027020
  16 S :    0.144205
  17 C :   -0.108297
  18 C :   -0.044050
  19 C :   -0.032478
  20 C :   -0.149335
  21 H :    0.031693
  22 C :    0.075753
  23 H :    0.025968
  24 H :    0.023347
  25 C :   -0.098869
  26 H :    0.023143
  27 H :    0.025890
  28 C :   -0.042664
  29 H :    0.032184
  30 H :    0.050662
  31 H :    0.038346
  32 H :    0.027602
  33 H :    0.057376
Sum of atomic charges:    0.0000000

LOEWDIN ATOMIC CHARGES
----------------------
   0 S :    0.450556
   1 C :   -0.206455
   2 C :   -0.074782
   3 C :   -0.058999
   4 C :   -0.217604
   5 H :    0.019957
   6 C :   -0.028074
   7 H :    0.039519
   8 H :    0.026088
   9 C :   -0.038912
  10 H :    0.026549
  11 H :    0.023855
  12 C :   -0.065466
  13 H :    0.020692
  14 H :    0.026383
  15 H :    0.023996
  16 S :    0.460161
  17 C :   -0.205324
  18 C :   -0.080746
  19 C :   -0.039807
  20 C :   -0.232965
  21 H :    0.039262
  22 C :   -0.033725
  23 H :    0.030371
  24 H :    0.031257
  25 C :   -0.040917
  26 H :    0.013415
  27 H :    0.025725
  28 C :   -0.067344
  29 H :    0.028736
  30 H :    0.038346
  31 H :    0.020897
  32 H :    0.019884
  33 H :    0.025471

  Mayer bond orders larger than 0.100000
B(  0-S ,  1-C ) :   1.1911 B(  0-S ,  4-C ) :   1.1630 B(  1-C ,  2-C ) :   1.5370
B(  1-C ,  4-C ) :   0.1053 B(  1-C , 32-H ) :   0.9725 B(  2-C ,  3-C ) :   1.2777
B(  2-C ,  6-C ) :   1.0597 B(  3-C ,  4-C ) :   1.5541 B(  3-C ,  5-H ) :   1.0044
B(  4-C , 20-C ) :   1.0407 B(  6-C ,  7-H ) :   0.9244 B(  6-C ,  8-H ) :   0.9353
B(  6-C ,  9-C ) :   1.0519 B(  9-C , 10-H ) :   0.9538 B(  9-C , 11-H ) :   0.9536
B(  9-C , 12-C ) :   1.0996 B( 12-C , 13-H ) :   0.9718 B( 12-C , 14-H ) :   0.9716
B( 12-C , 15-H ) :   0.9697 B( 16-S , 17-C ) :   1.2164 B( 16-S , 20-C ) :   1.1592
B( 17-C , 18-C ) :   1.5572 B( 17-C , 20-C ) :   0.1034 B( 17-C , 33-H ) :   0.9654
B( 18-C , 19-C ) :   1.2513 B( 18-C , 21-H ) :   0.9975 B( 19-C , 20-C ) :   1.5384
B( 19-C , 22-C ) :   1.0471 B( 22-C , 23-H ) :   0.9296 B( 22-C , 24-H ) :   0.9313
B( 22-C , 25-C ) :   1.0683 B( 25-C , 26-H ) :   0.9630 B( 25-C , 27-H ) :   0.9601
B( 25-C , 28-C ) :   1.0626 B( 28-C , 29-H ) :   0.9749 B( 28-C , 30-H ) :   0.9795
B( 28-C , 31-H ) :   0.9788

Dispersion correction           -0.014329835
FINAL SINGLE POINT ENERGY     -1339.867650850333

DIPOLE MOMENT
-------------
                                X             Y             Z
Electronic contribution:     14.71727      -9.69170     -13.23222
Nuclear contribution   :    -14.74068       9.88114      13.75530
                        -----------------------------------------
Total Dipole Moment    :     -0.02341       0.18944       0.52308
                        -----------------------------------------
Magnitude (a.u.)       :      0.55681
Magnitude (Debye)      :      1.41531

Rotational constants in cm-1:     0.020464     0.007765     0.006987
Rotational constants in MHz :   613.492571   232.777030   209.452191

                             ****ORCA TERMINATED NORMALLY****
TOTAL RUN TIME: 0 days 0 hours 0 minutes 30 seconds 510 msec
