                         Program Version 4.2.1 -  RELEASE  -
|  1> ! wB97X-D3 SP def2-SVP
|  2> %pal
|  3> nprocs 16
|  4> end
|  5>
|  6> * xyz 0 1
|  7> S 	 -0.801715 	 77.2369 	 50.296
|  8> C 	 -0.520602 	 78.8981 	 50.8501
|  9> C 	 0.437833 	 79.4911 	 50.0756
| 10> C 	 0.814463 	 78.7265 	 48.9296
| 11> C 	 0.48228 	 77.4036 	 49.0703
| 12> H 	 1.51041 	 78.9668 	 48.1244
| 13> C 	 0.79052 	 80.9113 	 50.2147
| 14> H 	 0.262949 	 81.2954 	 51.1111
| 15> H 	 0.137031 	 81.4441 	 49.5033
| 16> C 	 2.27273 	 81.3304 	 50.1006
| 17> H 	 2.96892 	 80.7628 	 50.7555
| 18> H 	 2.67617 	 81.0563 	 49.1135
| 19> C 	 2.54684 	 82.8423 	 50.2647
| 20> H 	 2.14643 	 83.0803 	 51.2645
| 21> H 	 3.65004 	 83.0636 	 50.2941
| 22> H 	 2.10586 	 83.4792 	 49.5735
| 23> S 	 2.55895 	 76.24 	 47.6898
| 24> C 	 2.06362 	 75.1381 	 46.3471
| 25> C 	 0.707424 	 74.7479 	 46.3707
| 26> C 	 -0.0149517 	 75.4926 	 47.3488
| 27> C 	 0.823093 	 76.3422 	 48.0906
| 28> H 	 0.310882 	 74.0789 	 45.6406
| 29> C 	 -1.50579 	 75.4412 	 47.3176
| 30> H 	 -1.89805 	 75.6314 	 46.3424
| 31> H 	 -1.95599 	 76.2518 	 47.9138
| 32> C 	 -2.20618 	 74.1578 	 47.7221
| 33> H 	 -1.90209 	 73.9565 	 48.7325
| 34> H 	 -1.99515 	 73.3173 	 47.0521
| 35> C 	 -3.75697 	 74.359 	 47.6756
| 36> H 	 -3.95654 	 75.3178 	 48.0875
| 37> H 	 -4.43207 	 73.6134 	 48.1798
| 38> H 	 -4.2089 	 74.3968 	 46.6558
| 39> H 	 -1.13526 	 79.3406 	 51.6477
| 40> H 	 2.70823 	 74.8126 	 45.5612
| 41> *
| 42>
| 43>                          ****END OF INPUT****

CARTESIAN COORDINATES (ANGSTROEM)
---------------------------------
  S     -0.801715   77.236900   50.296000
  C     -0.520602   78.898100   50.850100
  C      0.437833   79.491100   50.075600
  C      0.814463   78.726500   48.929600
  C      0.482280   77.403600   49.070300
  H      1.510410   78.966800   48.124400
  C      0.790520   80.911300   50.214700
  H      0.262949   81.295400   51.111100
  H      0.137031   81.444100   49.503300
  C      2.272730   81.330400   50.100600
  H      2.968920   80.762800   50.755500
  H      2.676170   81.056300   49.113500
  C      2.546840   82.842300   50.264700
  H      2.146430   83.080300   51.264500
  H      3.650040   83.063600   50.294100
  H      2.105860   83.479200   49.573500
  S      2.558950   76.240000   47.689800
  C      2.063620   75.138100   46.347100
  C      0.707424   74.747900   46.370700
  C     -0.014952   75.492600   47.348800
  C      0.823093   76.342200   48.090600
  H      0.310882   74.078900   45.640600
  C     -1.505790   75.441200   47.317600
  H     -1.898050   75.631400   46.342400
  H     -1.955990   76.251800   47.913800
  C     -2.206180   74.157800   47.722100
  H     -1.902090   73.956500   48.732500
  H     -1.995150   73.317300   47.052100
  C     -3.756970   74.359000   47.675600
  H     -3.956540   75.317800   48.087500
  H     -4.432070   73.613400   48.179800
  H     -4.208900   74.396800   46.655800
  H     -1.135260   79.340600   51.647700
  H      2.708230   74.812600   45.561200

 Total Charge           Charge          ....    0
 Multiplicity           Mult            ....    1
 Number of Electrons    NEL             ....  134
 Basis Dimension        Dim             ....  322

ORBITAL ENERGIES
----------------

  NO   OCC          E(Eh)            E(eV)
   0   2.0000     -88.974511     -2421.1195
   1   2.0000     -88.962855     -2420.8024
   2   2.0000     -10.333552      -281.1902
   3   2.0000     -10.330994      -281.1206
   4   2.0000     -10.323829      -280.9257
   5   2.0000     -10.316147      -280.7166
   6   2.0000     -10.306651      -280.4582
   7   2.0000     -10.299283      -280.2577
   8   2.0000     -10.298526      -280.2371
   9   2.0000     -10.292997      -280.0867
  10   2.0000     -10.292920      -280.0846
  11   2.0000     -10.292484      -280.0727
  12   2.0000     -10.286236      -279.9027
  13   2.0000     -10.285749      -279.8894
  14   2.0000     -10.280254      -279.7399
  15   2.0000     -10.279069      -279.7077
  16   2.0000      -8.087394      -220.0692
  17   2.0000      -8.076649      -219.7768
  18   2.0000      -6.045862      -164.5163
  19   2.0000      -6.042454      -164.4235
  20   2.0000      -6.038014      -164.3027
  21   2.0000      -6.035245      -164.2274
  22   2.0000      -6.031372      -164.1220
  23   2.0000      -6.027302      -164.0112
  24   2.0000      -1.001409       -27.2497
  25   2.0000      -0.978715       -26.6322
  26   2.0000      -0.911727       -24.8093
  27   2.0000      -0.908240       -24.7145
  28   2.0000      -0.867152       -23.5964
  29   2.0000      -0.852294       -23.1921
  30   2.0000      -0.843933       -22.9646
  31   2.0000      -0.814428       -22.1617
  32   2.0000      -0.780126       -21.2283
  33   2.0000      -0.766204       -20.8495
  34   2.0000      -0.710297       -19.3282
  35   2.0000      -0.700599       -19.0643
  36   2.0000      -0.688784       -18.7428
  37   2.0000      -0.669994       -18.2315
  38   2.0000      -0.639035       -17.3890
  39   2.0000      -0.617083       -16.7917
  40   2.0000      -0.600712       -16.3462
  41   2.0000      -0.570875       -15.5343
  42   2.0000      -0.563905       -15.3446
  43   2.0000      -0.552611       -15.0373
  44   2.0000      -0.530748       -14.4424
  45   2.0000      -0.521344       -14.1865
  46   2.0000      -0.515252       -14.0207
  47   2.0000      -0.511509       -13.9189
  48   2.0000      -0.506638       -13.7863
  49   2.0000      -0.501360       -13.6427
  50   2.0000      -0.482742       -13.1361
  51   2.0000      -0.471420       -12.8280
  52   2.0000      -0.464977       -12.6527
  53   2.0000      -0.459480       -12.5031
  54   2.0000      -0.455993       -12.4082
  55   2.0000      -0.452987       -12.3264
  56   2.0000      -0.447169       -12.1681
  57   2.0000      -0.441454       -12.0126
  58   2.0000      -0.436079       -11.8663
  59   2.0000      -0.426537       -11.6067
  60   2.0000      -0.421001       -11.4560
  61   2.0000      -0.416523       -11.3342
  62   2.0000      -0.408686       -11.1209
  63   2.0000      -0.343403        -9.3445
  64   2.0000      -0.337534        -9.1848
  65   2.0000      -0.324284        -8.8242
  66   2.0000      -0.289915        -7.8890
  67   0.0000       0.022879         0.6226
  68   0.0000       0.071028         1.9328
  69   0.0000       0.096967         2.6386
  70   0.0000       0.103611         2.8194
  71   0.0000       0.131649         3.5823

MULLIKEN ATOMIC CHARGES
-----------------------
   0 S :    0.082802
   1 C :   -0.136555
   2 C :   -0.056137
   3 C :    0.013499
   4 C :   -0.141107
   5 H :    0.030164
   6 C :    0.060478
   7 H :    0.002813
   8 H :    0.034592
   9 C :   -0.078054
  10 H :    0.036599
  11 H :    0.023697
  12 C :   -0.042030
  13 H :    0.025888
  14 H :    0.041639
  15 H :    0.024653
  16 S :    0.109493
  17 C :   -0.096346
  18 C :   -0.018086
  19 C :    0.019889
  20 C :   -0.164088
  21 H :    0.018719
  22 C :    0.024558
  23 H :    0.017746
  24 H :    0.018922
  25 C :   -0.048353
  26 H :    0.029932
  27 H :    0.034003
  28 C :   -0.073343
  29 H :    0.016689
  30 H :    0.043974
  31 H :    0.029537
  32 H :    0.064350
  33 H :    0.049461
Sum of atomic charges:   -0.0000000

LOEWDIN ATOMIC CHARGES
----------------------
   0 S :    0.375318
   1 C :   -0.188912
   2 C :   -0.067098
   3 C :   -0.062974
   4 C :   -0.177608
   5 H :    0.031846
   6 C :   -0.044010
   7 H :    0.029833
   8 H :    0.040753
   9 C :   -0.044436
  10 H :    0.030559
  11 H :    0.021964
  12 C :   -0.061817
  13 H :    0.025755
  14 H :    0.034606
  15 H :    0.013332
  16 S :    0.380602
  17 C :   -0.162905
  18 C :   -0.053884
  19 C :   -0.052595
  20 C :   -0.182529
  21 H :    0.030720
  22 C :   -0.040560
  23 H :    0.028730
  24 H :    0.023215
  25 C :   -0.031393
  26 H :    0.022481
  27 H :    0.022880
  28 C :   -0.073791
  29 H :    0.017314
  30 H :    0.032353
  31 H :    0.026979
  32 H :    0.034313
  33 H :    0.020958

  Mayer bond orders larger than 0.100000
B(  0-S ,  1-C ) :   1.1183 B(  0-S ,  4-C ) :   1.1300 B(  1-C ,  2-C ) :   1.6200
B(  1-C , 32-H ) :   0.9677 B(  2-C ,  3-C ) :   1.2027 B(  2-C ,  6-C ) :   1.0529
B(  3-C ,  4-C ) :   1.6069 B(  3-C ,  5-H ) :   0.9789 B(  4-C , 20-C ) :   1.0283
B(  6-C ,  7-H ) :   0.9354 B(  6-C ,  8-H ) :   0.9269 B(  6-C ,  9-C ) :   1.0398
B(  9-C , 10-H ) :   0.9592 B(  9-C , 11-H ) :   0.9529 B(  9-C , 12-C ) :   1.0839
B( 12-C , 13-H ) :   0.9758 B( 12-C , 14-H ) :   0.9751 B( 12-C , 15-H ) :   0.9780
B( 16-S , 17-C ) :   1.1346 B( 16-S , 20-C ) :   1.1306 B( 17-C , 18-C ) :   1.6328
B( 17-C , 33-H ) :   0.9686 B( 18-C , 19-C ) :   1.2147 B( 18-C , 21-H ) :   0.9905
B( 19-C , 20-C ) :   1.5990 B( 19-C , 22-C ) :   1.0501 B( 22-C , 23-H ) :   0.9352
B( 22-C , 24-H ) :   0.9274 B( 22-C , 25-C ) :   1.0599 B( 25-C , 26-H ) :   0.9543
B( 25-C , 27-H ) :   0.9572 B( 25-C , 28-C ) :   1.0725 B( 28-C , 29-H ) :   0.9745
B( 28-C , 30-H ) :   0.9765 B( 28-C , 31-H ) :   0.9746

Dispersion correction           -0.013700395
FINAL SINGLE POINT ENERGY     -1339.864290095868

DIPOLE MOMENT
-------------
                                X             Y             Z
Electronic contribution:      8.62121     -10.46480       0.66212
Nuclear contribution   :     -8.82305      10.81495      -1.04244
                        -----------------------------------------
Total Dipole Moment    :     -0.20184       0.35015      -0.38033
                        -----------------------------------------
Magnitude (a.u.)       :      0.55497
Magnitude (Debye)      :      1.41063

Rotational constants in cm-1:     0.021060     0.007671     0.005975
Rotational constants in MHz :   631.350427   229.967352   179.134128

                             ****ORCA TERMINATED NORMALLY****
TOTAL RUN TIME: 0 days 0 hours 0 minutes 32 seconds 438 msec
