                         Program Version 4.2.1 -  RELEASE  -
|  1> ! wB97X-D3 SP def2-SVP
|  2> %pal
|  3> nprocs 16
|  4> end
|  5>
|  6> * xyz 0 1
|  7> S 	 38.3952 	 13.8382 	 82.0739
|  8> C 	 37.7603 	 13.2973 	 80.5844
|  9> C 	 38.3328 	 13.924 	 79.5237
| 10> C 	 39.2305 	 14.9421 	 79.9506
| 11> C 	 39.4872 	 14.9888 	 81.3351
| 12> H 	 39.7212 	 15.6538 	 79.3574
| 13> C 	 37.9612 	 13.8408 	 78.0879
| 14> H 	 37.751 	 14.8433 	 77.686
| 15> H 	 37.0177 	 13.2392 	 77.9834
| 16> C 	 39.0465 	 13.0689 	 77.2238
| 17> H 	 40.0648 	 13.3787 	 77.5731
| 18> H 	 38.8561 	 12.0259 	 77.4558
| 19> C 	 38.9384 	 13.209 	 75.7259
| 20> H 	 39.1609 	 14.2472 	 75.5176
| 21> H 	 39.6417 	 12.5473 	 75.3417
| 22> H 	 37.9507 	 12.987 	 75.3435
| 23> S 	 39.0229 	 16.7948 	 83.3349
| 24> C 	 40.1908 	 18.0055 	 83.7401
| 25> C 	 41.3399 	 17.7568 	 83.0368
| 26> C 	 41.3289 	 16.6374 	 82.1381
| 27> C 	 40.0884 	 16.1089 	 82.045
| 28> H 	 42.2497 	 18.3035 	 83.355
| 29> C 	 42.4782 	 16.3308 	 81.2931
| 30> H 	 43.2623 	 16.9757 	 81.6231
| 31> H 	 42.1675 	 16.5708 	 80.2543
| 32> C 	 42.938 	 14.896 	 81.1743
| 33> H 	 42.3675 	 14.248 	 80.5532
| 34> H 	 42.8359 	 14.3295 	 82.1709
| 35> C 	 44.4257 	 14.8395 	 80.6413
| 36> H 	 44.6745 	 13.8328 	 80.8492
| 37> H 	 45.196 	 15.532 	 81.0786
| 38> H 	 44.3831 	 14.8011 	 79.603
| 39> H 	 37.033 	 12.4985 	 80.5536
| 40> H 	 40.1396 	 18.6276 	 84.5542
| 41> *
| 42>
| 43>                          ****END OF INPUT****

CARTESIAN COORDINATES (ANGSTROEM)
---------------------------------
  S     38.395200   13.838200   82.073900
  C     37.760300   13.297300   80.584400
  C     38.332800   13.924000   79.523700
  C     39.230500   14.942100   79.950600
  C     39.487200   14.988800   81.335100
  H     39.721200   15.653800   79.357400
  C     37.961200   13.840800   78.087900
  H     37.751000   14.843300   77.686000
  H     37.017700   13.239200   77.983400
  C     39.046500   13.068900   77.223800
  H     40.064800   13.378700   77.573100
  H     38.856100   12.025900   77.455800
  C     38.938400   13.209000   75.725900
  H     39.160900   14.247200   75.517600
  H     39.641700   12.547300   75.341700
  H     37.950700   12.987000   75.343500
  S     39.022900   16.794800   83.334900
  C     40.190800   18.005500   83.740100
  C     41.339900   17.756800   83.036800
  C     41.328900   16.637400   82.138100
  C     40.088400   16.108900   82.045000
  H     42.249700   18.303500   83.355000
  C     42.478200   16.330800   81.293100
  H     43.262300   16.975700   81.623100
  H     42.167500   16.570800   80.254300
  C     42.938000   14.896000   81.174300
  H     42.367500   14.248000   80.553200
  H     42.835900   14.329500   82.170900
  C     44.425700   14.839500   80.641300
  H     44.674500   13.832800   80.849200
  H     45.196000   15.532000   81.078600
  H     44.383100   14.801100   79.603000
  H     37.033000   12.498500   80.553600
  H     40.139600   18.627600   84.554200

 Total Charge           Charge          ....    0
 Multiplicity           Mult            ....    1
 Number of Electrons    NEL             ....  134
 Basis Dimension        Dim             ....  322

ORBITAL ENERGIES
----------------

  NO   OCC          E(Eh)            E(eV)
   0   2.0000     -88.964629     -2420.8506
   1   2.0000     -88.957544     -2420.6578
   2   2.0000     -10.329138      -281.0701
   3   2.0000     -10.325312      -280.9660
   4   2.0000     -10.312646      -280.6214
   5   2.0000     -10.308589      -280.5110
   6   2.0000     -10.297516      -280.2097
   7   2.0000     -10.296790      -280.1899
   8   2.0000     -10.296190      -280.1736
   9   2.0000     -10.291892      -280.0566
  10   2.0000     -10.291704      -280.0515
  11   2.0000     -10.289061      -279.9796
  12   2.0000     -10.287422      -279.9350
  13   2.0000     -10.286137      -279.9000
  14   2.0000     -10.273884      -279.5666
  15   2.0000     -10.271797      -279.5098
  16   2.0000      -8.080228      -219.8742
  17   2.0000      -8.072280      -219.6579
  18   2.0000      -6.038685      -164.3210
  19   2.0000      -6.034427      -164.2051
  20   2.0000      -6.031167      -164.1164
  21   2.0000      -6.030901      -164.1092
  22   2.0000      -6.026825      -163.9983
  23   2.0000      -6.022854      -163.8902
  24   2.0000      -1.010445       -27.4956
  25   2.0000      -0.988887       -26.9090
  26   2.0000      -0.913347       -24.8534
  27   2.0000      -0.911269       -24.7969
  28   2.0000      -0.873738       -23.7756
  29   2.0000      -0.856604       -23.3094
  30   2.0000      -0.849484       -23.1156
  31   2.0000      -0.814344       -22.1594
  32   2.0000      -0.783304       -21.3148
  33   2.0000      -0.775549       -21.1038
  34   2.0000      -0.712976       -19.4011
  35   2.0000      -0.695172       -18.9166
  36   2.0000      -0.692327       -18.8392
  37   2.0000      -0.666159       -18.1271
  38   2.0000      -0.649396       -17.6710
  39   2.0000      -0.618746       -16.8369
  40   2.0000      -0.597765       -16.2660
  41   2.0000      -0.570089       -15.5129
  42   2.0000      -0.567494       -15.4423
  43   2.0000      -0.561697       -15.2845
  44   2.0000      -0.532548       -14.4914
  45   2.0000      -0.527212       -14.3462
  46   2.0000      -0.522523       -14.2186
  47   2.0000      -0.515111       -14.0169
  48   2.0000      -0.508967       -13.8497
  49   2.0000      -0.502882       -13.6841
  50   2.0000      -0.494328       -13.4514
  51   2.0000      -0.486940       -13.2503
  52   2.0000      -0.473462       -12.8836
  53   2.0000      -0.466219       -12.6865
  54   2.0000      -0.462636       -12.5890
  55   2.0000      -0.449630       -12.2350
  56   2.0000      -0.442092       -12.0299
  57   2.0000      -0.435792       -11.8585
  58   2.0000      -0.427685       -11.6379
  59   2.0000      -0.424338       -11.5468
  60   2.0000      -0.419751       -11.4220
  61   2.0000      -0.411393       -11.1946
  62   2.0000      -0.408657       -11.1201
  63   2.0000      -0.348559        -9.4848
  64   2.0000      -0.327963        -8.9243
  65   2.0000      -0.324671        -8.8347
  66   2.0000      -0.293858        -7.9963
  67   0.0000       0.028078         0.7641
  68   0.0000       0.068080         1.8526
  69   0.0000       0.117158         3.1880
  70   0.0000       0.122923         3.3449
  71   0.0000       0.125240         3.4080

MULLIKEN ATOMIC CHARGES
-----------------------
   0 S :    0.105749
   1 C :   -0.124522
   2 C :   -0.037694
   3 C :    0.024658
   4 C :   -0.139109
   5 H :   -0.006409
   6 C :    0.036647
   7 H :    0.035616
   8 H :    0.021295
   9 C :   -0.121220
  10 H :    0.035871
  11 H :    0.025818
  12 C :    0.017935
  13 H :    0.024825
  14 H :    0.027609
  15 H :    0.024735
  16 S :    0.076788
  17 C :   -0.043232
  18 C :   -0.058365
  19 C :   -0.028244
  20 C :   -0.156428
  21 H :    0.026200
  22 C :    0.108856
  23 H :    0.006053
  24 H :    0.041694
  25 C :   -0.130303
  26 H :    0.026339
  27 H :    0.036500
  28 C :   -0.014308
  29 H :    0.012580
  30 H :    0.052827
  31 H :    0.015914
  32 H :    0.047070
  33 H :    0.028255
Sum of atomic charges:    0.0000000

LOEWDIN ATOMIC CHARGES
----------------------
   0 S :    0.424024
   1 C :   -0.197741
   2 C :   -0.074217
   3 C :   -0.047226
   4 C :   -0.204238
   5 H :    0.019460
   6 C :   -0.034538
   7 H :    0.030379
   8 H :    0.031680
   9 C :   -0.038775
  10 H :    0.024250
  11 H :    0.021470
  12 C :   -0.054827
  13 H :    0.024208
  14 H :    0.021721
  15 H :    0.023893
  16 S :    0.380053
  17 C :   -0.174419
  18 C :   -0.076618
  19 C :   -0.061374
  20 C :   -0.171820
  21 H :    0.033113
  22 C :   -0.035040
  23 H :    0.027844
  24 H :    0.044256
  25 C :   -0.039009
  26 H :    0.019684
  27 H :    0.027849
  28 C :   -0.062080
  29 H :    0.024494
  30 H :    0.033102
  31 H :    0.017088
  32 H :    0.028290
  33 H :    0.015063

  Mayer bond orders larger than 0.100000
B(  0-S ,  1-C ) :   1.1606 B(  0-S ,  4-C ) :   1.1557 B(  1-C ,  2-C ) :   1.5811
B(  1-C , 32-H ) :   0.9688 B(  2-C ,  3-C ) :   1.2574 B(  2-C ,  6-C ) :   1.0345
B(  3-C ,  4-C ) :   1.5414 B(  3-C ,  5-H ) :   0.9993 B(  4-C , 20-C ) :   1.0541
B(  6-C ,  7-H ) :   0.9488 B(  6-C ,  8-H ) :   0.9418 B(  6-C ,  9-C ) :   1.0412
B(  9-C , 10-H ) :   0.9643 B(  9-C , 11-H ) :   0.9567 B(  9-C , 12-C ) :   1.0848
B( 12-C , 13-H ) :   0.9752 B( 12-C , 14-H ) :   0.9715 B( 12-C , 15-H ) :   0.9715
B( 16-S , 17-C ) :   1.1481 B( 16-S , 20-C ) :   1.1115 B( 17-C , 18-C ) :   1.6306
B( 17-C , 33-H ) :   0.9751 B( 18-C , 19-C ) :   1.2269 B( 18-C , 21-H ) :   0.9770
B( 19-C , 20-C ) :   1.6165 B( 19-C , 22-C ) :   1.0611 B( 22-C , 23-H ) :   0.9307
B( 22-C , 24-H ) :   0.9241 B( 22-C , 25-C ) :   1.0488 B( 25-C , 26-H ) :   0.9470
B( 25-C , 27-H ) :   0.9691 B( 25-C , 28-C ) :   1.0771 B( 28-C , 29-H ) :   0.9699
B( 28-C , 30-H ) :   0.9772 B( 28-C , 31-H ) :   0.9733

Dispersion correction           -0.013848572
FINAL SINGLE POINT ENERGY     -1339.860161286755

DIPOLE MOMENT
-------------
                                X             Y             Z
Electronic contribution:    -15.06888       7.42953      24.48293
Nuclear contribution   :     15.37267      -7.53597     -25.01849
                        -----------------------------------------
Total Dipole Moment    :      0.30379      -0.10644      -0.53556
                        -----------------------------------------
Magnitude (a.u.)       :      0.62486
Magnitude (Debye)      :      1.58826

Rotational constants in cm-1:     0.017577     0.008800     0.006681
Rotational constants in MHz :   526.959469   263.808689   200.279488

                             ****ORCA TERMINATED NORMALLY****
TOTAL RUN TIME: 0 days 0 hours 0 minutes 29 seconds 866 msec
