                         Program Version 4.2.1 -  RELEASE  -
|  1> ! wB97X-D3 SP def2-SVP
|  2> %pal
|  3> nprocs 16
|  4> end
|  5>
|  6> * xyz 0 1
|  7> S 	 -1.99354 	 -14.2414 	 54.2956
|  8> C 	 -2.02221 	 -13.2828 	 52.797
|  9> C 	 -2.94122 	 -12.2147 	 52.8586
| 10> C 	 -3.79763 	 -12.3369 	 53.9894
| 11> C 	 -3.50534 	 -13.4259 	 54.8579
| 12> H 	 -4.73467 	 -11.746 	 54.2108
| 13> C 	 -3.064 	 -11.0373 	 51.8999
| 14> H 	 -1.99041 	 -10.8351 	 51.4967
| 15> H 	 -3.30552 	 -10.2076 	 52.5379
| 16> C 	 -3.98824 	 -11.095 	 50.7115
| 17> H 	 -3.65844 	 -10.4931 	 49.8161
| 18> H 	 -4.07982 	 -12.0741 	 50.1975
| 19> C 	 -5.4153 	 -10.6962 	 51.0666
| 20> H 	 -5.88081 	 -11.3896 	 51.7403
| 21> H 	 -5.43302 	 -9.72557 	 51.4363
| 22> H 	 -6.23008 	 -10.6752 	 50.323
| 23> S 	 -3.95276 	 -15.5625 	 56.3073
| 24> C 	 -5.04477 	 -15.6382 	 57.6647
| 25> C 	 -5.42993 	 -14.3569 	 57.9497
| 26> C 	 -5.08936 	 -13.3873 	 56.9397
| 27> C 	 -4.17872 	 -13.9326 	 56.0694
| 28> H 	 -6.1096 	 -14.2487 	 58.7573
| 29> C 	 -5.55812 	 -11.9288 	 56.9695
| 30> H 	 -6.21488 	 -11.8344 	 57.797
| 31> H 	 -6.14724 	 -11.5784 	 56.1979
| 32> C 	 -4.51607 	 -10.9348 	 57.298
| 33> H 	 -3.74837 	 -10.8113 	 56.5672
| 34> H 	 -3.85299 	 -11.3021 	 58.1314
| 35> C 	 -5.06348 	 -9.58682 	 57.6932
| 36> H 	 -4.19526 	 -8.90803 	 57.8826
| 37> H 	 -5.78189 	 -9.69354 	 58.5461
| 38> H 	 -5.61633 	 -9.14916 	 56.7919
| 39> H 	 -1.27901 	 -13.3244 	 51.9947
| 40> H 	 -5.18695 	 -16.4767 	 58.3918
| 41> *
| 42>
| 43>                          ****END OF INPUT****

CARTESIAN COORDINATES (ANGSTROEM)
---------------------------------
  S     -1.993540  -14.241400   54.295600
  C     -2.022210  -13.282800   52.797000
  C     -2.941220  -12.214700   52.858600
  C     -3.797630  -12.336900   53.989400
  C     -3.505340  -13.425900   54.857900
  H     -4.734670  -11.746000   54.210800
  C     -3.064000  -11.037300   51.899900
  H     -1.990410  -10.835100   51.496700
  H     -3.305520  -10.207600   52.537900
  C     -3.988240  -11.095000   50.711500
  H     -3.658440  -10.493100   49.816100
  H     -4.079820  -12.074100   50.197500
  C     -5.415300  -10.696200   51.066600
  H     -5.880810  -11.389600   51.740300
  H     -5.433020   -9.725570   51.436300
  H     -6.230080  -10.675200   50.323000
  S     -3.952760  -15.562500   56.307300
  C     -5.044770  -15.638200   57.664700
  C     -5.429930  -14.356900   57.949700
  C     -5.089360  -13.387300   56.939700
  C     -4.178720  -13.932600   56.069400
  H     -6.109600  -14.248700   58.757300
  C     -5.558120  -11.928800   56.969500
  H     -6.214880  -11.834400   57.797000
  H     -6.147240  -11.578400   56.197900
  C     -4.516070  -10.934800   57.298000
  H     -3.748370  -10.811300   56.567200
  H     -3.852990  -11.302100   58.131400
  C     -5.063480   -9.586820   57.693200
  H     -4.195260   -8.908030   57.882600
  H     -5.781890   -9.693540   58.546100
  H     -5.616330   -9.149160   56.791900
  H     -1.279010  -13.324400   51.994700
  H     -5.186950  -16.476700   58.391800

 Total Charge           Charge          ....    0
 Multiplicity           Mult            ....    1
 Number of Electrons    NEL             ....  134
 Basis Dimension        Dim             ....  322

ORBITAL ENERGIES
----------------

  NO   OCC          E(Eh)            E(eV)
   0   2.0000     -88.971418     -2421.0354
   1   2.0000     -88.963033     -2420.8072
   2   2.0000     -10.340838      -281.3885
   3   2.0000     -10.324212      -280.9361
   4   2.0000     -10.321547      -280.8636
   5   2.0000     -10.316619      -280.7295
   6   2.0000     -10.308394      -280.5057
   7   2.0000     -10.304952      -280.4120
   8   2.0000     -10.303919      -280.3839
   9   2.0000     -10.302194      -280.3370
  10   2.0000     -10.292804      -280.0814
  11   2.0000     -10.292719      -280.0791
  12   2.0000     -10.287788      -279.9449
  13   2.0000     -10.283078      -279.8168
  14   2.0000     -10.276079      -279.6263
  15   2.0000     -10.270460      -279.4734
  16   2.0000      -8.084414      -219.9881
  17   2.0000      -8.079873      -219.8645
  18   2.0000      -6.043034      -164.4393
  19   2.0000      -6.039263      -164.3367
  20   2.0000      -6.038308      -164.3107
  21   2.0000      -6.035048      -164.2220
  22   2.0000      -6.033910      -164.1910
  23   2.0000      -6.030698      -164.1036
  24   2.0000      -1.016908       -27.6715
  25   2.0000      -0.978598       -26.6290
  26   2.0000      -0.921868       -25.0853
  27   2.0000      -0.913007       -24.8442
  28   2.0000      -0.872949       -23.7542
  29   2.0000      -0.851672       -23.1752
  30   2.0000      -0.844402       -22.9773
  31   2.0000      -0.814749       -22.1705
  32   2.0000      -0.783787       -21.3279
  33   2.0000      -0.775580       -21.1046
  34   2.0000      -0.708092       -19.2682
  35   2.0000      -0.703108       -19.1325
  36   2.0000      -0.692856       -18.8536
  37   2.0000      -0.667545       -18.1648
  38   2.0000      -0.631947       -17.1962
  39   2.0000      -0.616756       -16.7828
  40   2.0000      -0.602188       -16.3864
  41   2.0000      -0.572195       -15.5702
  42   2.0000      -0.569895       -15.5076
  43   2.0000      -0.548224       -14.9179
  44   2.0000      -0.538744       -14.6600
  45   2.0000      -0.526002       -14.3132
  46   2.0000      -0.518340       -14.1047
  47   2.0000      -0.512344       -13.9416
  48   2.0000      -0.509476       -13.8635
  49   2.0000      -0.497816       -13.5463
  50   2.0000      -0.491950       -13.3866
  51   2.0000      -0.482872       -13.1396
  52   2.0000      -0.476765       -12.9734
  53   2.0000      -0.463807       -12.6208
  54   2.0000      -0.461919       -12.5695
  55   2.0000      -0.445848       -12.1321
  56   2.0000      -0.439097       -11.9484
  57   2.0000      -0.437222       -11.8974
  58   2.0000      -0.434112       -11.8128
  59   2.0000      -0.427624       -11.6362
  60   2.0000      -0.416285       -11.3277
  61   2.0000      -0.410577       -11.1724
  62   2.0000      -0.405288       -11.0284
  63   2.0000      -0.359390        -9.7795
  64   2.0000      -0.335313        -9.1243
  65   2.0000      -0.328539        -8.9400
  66   2.0000      -0.284941        -7.7536
  67   0.0000       0.017932         0.4880
  68   0.0000       0.078512         2.1364
  69   0.0000       0.093509         2.5445
  70   0.0000       0.118590         3.2270
  71   0.0000       0.133115         3.6222

MULLIKEN ATOMIC CHARGES
-----------------------
   0 S :    0.097745
   1 C :   -0.108369
   2 C :   -0.097963
   3 C :   -0.003138
   4 C :   -0.137751
   5 H :    0.035227
   6 C :    0.052802
   7 H :    0.041007
   8 H :    0.027718
   9 C :   -0.050276
  10 H :    0.035401
  11 H :    0.032024
  12 C :   -0.054777
  13 H :    0.027169
  14 H :    0.012535
  15 H :    0.023418
  16 S :    0.099204
  17 C :   -0.106038
  18 C :   -0.022893
  19 C :   -0.075164
  20 C :   -0.091963
  21 H :    0.008680
  22 C :    0.137108
  23 H :   -0.016731
  24 H :    0.009169
  25 C :   -0.087396
  26 H :    0.017612
  27 H :    0.024534
  28 C :   -0.079348
  29 H :    0.048009
  30 H :    0.043351
  31 H :    0.031775
  32 H :    0.051001
  33 H :    0.076318
Sum of atomic charges:    0.0000000

LOEWDIN ATOMIC CHARGES
----------------------
   0 S :    0.373582
   1 C :   -0.191069
   2 C :   -0.062692
   3 C :   -0.074240
   4 C :   -0.169459
   5 H :    0.040625
   6 C :   -0.033548
   7 H :    0.044604
   8 H :    0.031912
   9 C :   -0.050449
  10 H :    0.031729
  11 H :    0.030904
  12 C :   -0.072206
  13 H :    0.023585
  14 H :    0.013013
  15 H :    0.029995
  16 S :    0.446123
  17 C :   -0.203616
  18 C :   -0.063818
  19 C :   -0.057587
  20 C :   -0.218592
  21 H :    0.025257
  22 C :   -0.028015
  23 H :    0.028456
  24 H :    0.019072
  25 C :   -0.052714
  26 H :    0.016137
  27 H :    0.029657
  28 C :   -0.069714
  29 H :    0.034383
  30 H :    0.026896
  31 H :    0.027778
  32 H :    0.029986
  33 H :    0.044025

  Mayer bond orders larger than 0.100000
B(  0-S ,  1-C ) :   1.1317 B(  0-S ,  4-C ) :   1.1416 B(  1-C ,  2-C ) :   1.6100
B(  1-C ,  4-C ) :   0.1094 B(  1-C , 32-H ) :   0.9636 B(  2-C ,  3-C ) :   1.2508
B(  2-C ,  6-C ) :   1.0220 B(  3-C ,  4-C ) :   1.5774 B(  3-C ,  5-H ) :   0.9714
B(  4-C , 20-C ) :   1.0414 B(  6-C ,  7-H ) :   0.9395 B(  6-C ,  8-H ) :   0.9435
B(  6-C ,  9-C ) :   1.0542 B(  9-C , 10-H ) :   0.9567 B(  9-C , 11-H ) :   0.9558
B(  9-C , 12-C ) :   1.0754 B( 12-C , 13-H ) :   0.9744 B( 12-C , 14-H ) :   0.9770
B( 12-C , 15-H ) :   0.9700 B( 16-S , 17-C ) :   1.1499 B( 16-S , 20-C ) :   1.1738
B( 17-C , 18-C ) :   1.6190 B( 17-C , 33-H ) :   0.9591 B( 18-C , 19-C ) :   1.2565
B( 18-C , 21-H ) :   0.9854 B( 19-C , 20-C ) :   1.5635 B( 19-C , 22-C ) :   1.0426
B( 22-C , 23-H ) :   0.9176 B( 22-C , 24-H ) :   0.9270 B( 22-C , 25-C ) :   1.0646
B( 25-C , 26-H ) :   0.9462 B( 25-C , 27-H ) :   0.9457 B( 25-C , 28-C ) :   1.0928
B( 28-C , 29-H ) :   0.9712 B( 28-C , 30-H ) :   0.9734 B( 28-C , 31-H ) :   0.9707

Dispersion correction           -0.014202043
FINAL SINGLE POINT ENERGY     -1339.854128137819

DIPOLE MOMENT
-------------
                                X             Y             Z
Electronic contribution:     11.21990     -26.89697       6.55382
Nuclear contribution   :    -11.52917      27.43201      -6.57241
                        -----------------------------------------
Total Dipole Moment    :     -0.30927       0.53503      -0.01859
                        -----------------------------------------
Magnitude (a.u.)       :      0.61826
Magnitude (Debye)      :      1.57150

Rotational constants in cm-1:     0.017023     0.009427     0.007015
Rotational constants in MHz :   510.347105   282.613975   210.291461

                             ****ORCA TERMINATED NORMALLY****
TOTAL RUN TIME: 0 days 0 hours 0 minutes 30 seconds 178 msec
