                         Program Version 4.2.1 -  RELEASE  -
|  1> ! wB97X-D3 SP def2-SVP
|  2> %pal
|  3> nprocs 16
|  4> end
|  5>
|  6> * xyz 0 1
|  7> S 	 -43.1708 	 26.8708 	 77.3907
|  8> C 	 -44.461 	 26.1657 	 78.3342
|  9> C 	 -44.3133 	 24.8061 	 78.5775
| 10> C 	 -43.0658 	 24.348 	 77.9503
| 11> C 	 -42.264 	 25.3725 	 77.3733
| 12> H 	 -42.6655 	 23.3271 	 78.0034
| 13> C 	 -45.3547 	 23.9447 	 79.3202
| 14> H 	 -45.5818 	 24.4332 	 80.3502
| 15> H 	 -44.8916 	 23.0432 	 79.6552
| 16> C 	 -46.647 	 23.6123 	 78.6359
| 17> H 	 -47.2571 	 23.1497 	 79.4069
| 18> H 	 -47.0518 	 24.5307 	 78.2877
| 19> C 	 -46.5385 	 22.6564 	 77.4986
| 20> H 	 -45.9884 	 21.7908 	 77.8767
| 21> H 	 -47.5088 	 22.4413 	 77.1602
| 22> H 	 -46.0741 	 23.1522 	 76.6652
| 23> S 	 -40.5597 	 23.8585 	 75.8452
| 24> C 	 -39.0871 	 24.5706 	 75.3517
| 25> C 	 -38.7255 	 25.6108 	 76.1582
| 26> C 	 -39.8313 	 26.0748 	 76.8763
| 27> C 	 -40.9387 	 25.253 	 76.8379
| 28> H 	 -37.7501 	 26.0335 	 76.1103
| 29> C 	 -39.8934 	 27.4275 	 77.5892
| 30> H 	 -38.9297 	 27.4794 	 78.0908
| 31> H 	 -40.6865 	 27.3565 	 78.2566
| 32> C 	 -40.0342 	 28.6684 	 76.7399
| 33> H 	 -40.9744 	 28.6419 	 76.2779
| 34> H 	 -39.2807 	 28.627 	 76.0457
| 35> C 	 -40.0597 	 29.9773 	 77.4689
| 36> H 	 -40.8464 	 30.0143 	 78.1951
| 37> H 	 -40.3744 	 30.8454 	 76.8631
| 38> H 	 -39.1265 	 30.2191 	 78.0415
| 39> H 	 -45.347 	 26.6963 	 78.424
| 40> H 	 -38.522 	 23.9837 	 74.6453
| 41> *
| 42>
| 43>                          ****END OF INPUT****

CARTESIAN COORDINATES (ANGSTROEM)
---------------------------------
  S    -43.170800   26.870800   77.390700
  C    -44.461000   26.165700   78.334200
  C    -44.313300   24.806100   78.577500
  C    -43.065800   24.348000   77.950300
  C    -42.264000   25.372500   77.373300
  H    -42.665500   23.327100   78.003400
  C    -45.354700   23.944700   79.320200
  H    -45.581800   24.433200   80.350200
  H    -44.891600   23.043200   79.655200
  C    -46.647000   23.612300   78.635900
  H    -47.257100   23.149700   79.406900
  H    -47.051800   24.530700   78.287700
  C    -46.538500   22.656400   77.498600
  H    -45.988400   21.790800   77.876700
  H    -47.508800   22.441300   77.160200
  H    -46.074100   23.152200   76.665200
  S    -40.559700   23.858500   75.845200
  C    -39.087100   24.570600   75.351700
  C    -38.725500   25.610800   76.158200
  C    -39.831300   26.074800   76.876300
  C    -40.938700   25.253000   76.837900
  H    -37.750100   26.033500   76.110300
  C    -39.893400   27.427500   77.589200
  H    -38.929700   27.479400   78.090800
  H    -40.686500   27.356500   78.256600
  C    -40.034200   28.668400   76.739900
  H    -40.974400   28.641900   76.277900
  H    -39.280700   28.627000   76.045700
  C    -40.059700   29.977300   77.468900
  H    -40.846400   30.014300   78.195100
  H    -40.374400   30.845400   76.863100
  H    -39.126500   30.219100   78.041500
  H    -45.347000   26.696300   78.424000
  H    -38.522000   23.983700   74.645300

 Total Charge           Charge          ....    0
 Multiplicity           Mult            ....    1
 Number of Electrons    NEL             ....  134
 Basis Dimension        Dim             ....  322

ORBITAL ENERGIES
----------------

  NO   OCC          E(Eh)            E(eV)
   0   2.0000     -88.969206     -2420.9752
   1   2.0000     -88.961523     -2420.7661
   2   2.0000     -10.334206      -281.2080
   3   2.0000     -10.321807      -280.8707
   4   2.0000     -10.315597      -280.7017
   5   2.0000     -10.310402      -280.5603
   6   2.0000     -10.309466      -280.5348
   7   2.0000     -10.302642      -280.3491
   8   2.0000     -10.299537      -280.2646
   9   2.0000     -10.296334      -280.1775
  10   2.0000     -10.291990      -280.0593
  11   2.0000     -10.278456      -279.6910
  12   2.0000     -10.277661      -279.6694
  13   2.0000     -10.274029      -279.5705
  14   2.0000     -10.267945      -279.4050
  15   2.0000     -10.267119      -279.3825
  16   2.0000      -8.083333      -219.9587
  17   2.0000      -8.077571      -219.8019
  18   2.0000      -6.041847      -164.4070
  19   2.0000      -6.037841      -164.2980
  20   2.0000      -6.035851      -164.2439
  21   2.0000      -6.034229      -164.1997
  22   2.0000      -6.032022      -164.1397
  23   2.0000      -6.028366      -164.0402
  24   2.0000      -1.012711       -27.5573
  25   2.0000      -0.984524       -26.7903
  26   2.0000      -0.920119       -25.0377
  27   2.0000      -0.915285       -24.9062
  28   2.0000      -0.875743       -23.8302
  29   2.0000      -0.857176       -23.3249
  30   2.0000      -0.845705       -23.0128
  31   2.0000      -0.812708       -22.1149
  32   2.0000      -0.787269       -21.4227
  33   2.0000      -0.776338       -21.1252
  34   2.0000      -0.706412       -19.2225
  35   2.0000      -0.699738       -19.0409
  36   2.0000      -0.697848       -18.9894
  37   2.0000      -0.668957       -18.2033
  38   2.0000      -0.640994       -17.4423
  39   2.0000      -0.610916       -16.6239
  40   2.0000      -0.599856       -16.3229
  41   2.0000      -0.585585       -15.9346
  42   2.0000      -0.577225       -15.7071
  43   2.0000      -0.552545       -15.0355
  44   2.0000      -0.548164       -14.9163
  45   2.0000      -0.523301       -14.2397
  46   2.0000      -0.517701       -14.0874
  47   2.0000      -0.516827       -14.0636
  48   2.0000      -0.512320       -13.9409
  49   2.0000      -0.499378       -13.5888
  50   2.0000      -0.490084       -13.3359
  51   2.0000      -0.477512       -12.9938
  52   2.0000      -0.470520       -12.8035
  53   2.0000      -0.469391       -12.7728
  54   2.0000      -0.462651       -12.5894
  55   2.0000      -0.453724       -12.3465
  56   2.0000      -0.442861       -12.0509
  57   2.0000      -0.439339       -11.9550
  58   2.0000      -0.428525       -11.6608
  59   2.0000      -0.424249       -11.5444
  60   2.0000      -0.419927       -11.4268
  61   2.0000      -0.415199       -11.2981
  62   2.0000      -0.409435       -11.1413
  63   2.0000      -0.356821        -9.7096
  64   2.0000      -0.331362        -9.0168
  65   2.0000      -0.329782        -8.9738
  66   2.0000      -0.283502        -7.7145
  67   0.0000       0.025256         0.6873
  68   0.0000       0.069956         1.9036
  69   0.0000       0.103792         2.8243
  70   0.0000       0.112472         3.0605
  71   0.0000       0.135414         3.6848

MULLIKEN ATOMIC CHARGES
-----------------------
   0 S :    0.100231
   1 C :   -0.100244
   2 C :   -0.086279
   3 C :    0.008528
   4 C :   -0.153315
   5 H :    0.018336
   6 C :    0.034505
   7 H :    0.046526
   8 H :    0.003871
   9 C :   -0.047218
  10 H :    0.026777
  11 H :    0.011826
  12 C :   -0.000350
  13 H :    0.026237
  14 H :    0.019016
  15 H :    0.032055
  16 S :    0.098147
  17 C :   -0.093399
  18 C :   -0.004016
  19 C :   -0.069613
  20 C :   -0.125933
  21 H :    0.012132
  22 C :    0.080366
  23 H :    0.013797
  24 H :    0.003704
  25 C :    0.025082
  26 H :    0.004902
  27 H :   -0.000013
  28 C :   -0.051294
  29 H :    0.011208
  30 H :    0.033655
  31 H :    0.031346
  32 H :    0.032308
  33 H :    0.057119
Sum of atomic charges:   -0.0000000

LOEWDIN ATOMIC CHARGES
----------------------
   0 S :    0.422826
   1 C :   -0.190691
   2 C :   -0.057266
   3 C :   -0.070335
   4 C :   -0.190950
   5 H :    0.028434
   6 C :   -0.037345
   7 H :    0.045321
   8 H :    0.021235
   9 C :   -0.038652
  10 H :    0.026472
  11 H :    0.016867
  12 C :   -0.053547
  13 H :    0.026233
  14 H :    0.020719
  15 H :    0.026890
  16 S :    0.418914
  17 C :   -0.177270
  18 C :   -0.069534
  19 C :   -0.050984
  20 C :   -0.203592
  21 H :    0.030913
  22 C :   -0.023746
  23 H :    0.030196
  24 H :    0.007431
  25 C :   -0.031385
  26 H :    0.015671
  27 H :    0.011589
  28 C :   -0.067127
  29 H :    0.020896
  30 H :    0.031668
  31 H :    0.025903
  32 H :    0.011169
  33 H :    0.023078

  Mayer bond orders larger than 0.100000
B(  0-S ,  1-C ) :   1.1454 B(  0-S ,  4-C ) :   1.1506 B(  1-C ,  2-C ) :   1.6005
B(  1-C , 32-H ) :   0.9736 B(  2-C ,  3-C ) :   1.2559 B(  2-C ,  6-C ) :   1.0163
B(  3-C ,  4-C ) :   1.5438 B(  3-C ,  5-H ) :   0.9861 B(  4-C , 20-C ) :   1.0735
B(  6-C ,  7-H ) :   0.9419 B(  6-C ,  8-H ) :   0.9356 B(  6-C ,  9-C ) :   1.0814
B(  9-C , 10-H ) :   0.9483 B(  9-C , 11-H ) :   0.9525 B(  9-C , 12-C ) :   1.0925
B( 12-C , 13-H ) :   0.9730 B( 12-C , 14-H ) :   0.9689 B( 12-C , 15-H ) :   0.9725
B( 16-S , 17-C ) :   1.1893 B( 16-S , 20-C ) :   1.1308 B( 17-C , 18-C ) :   1.5643
B( 17-C , 33-H ) :   0.9699 B( 18-C , 19-C ) :   1.2461 B( 18-C , 21-H ) :   1.0036
B( 19-C , 20-C ) :   1.5768 B( 19-C , 22-C ) :   1.0495 B( 22-C , 23-H ) :   0.9232
B( 22-C , 24-H ) :   0.9253 B( 22-C , 25-C ) :   1.0811 B( 25-C , 26-H ) :   0.9414
B( 25-C , 27-H ) :   0.9508 B( 25-C , 28-C ) :   1.0947 B( 28-C , 29-H ) :   0.9684
B( 28-C , 30-H ) :   0.9716 B( 28-C , 31-H ) :   0.9738

Dispersion correction           -0.014225579
FINAL SINGLE POINT ENERGY     -1339.866665541301

DIPOLE MOMENT
-------------
                                X             Y             Z
Electronic contribution:      9.09083      -5.32773      -6.90423
Nuclear contribution   :     -9.18497       5.27864       7.00537
                        -----------------------------------------
Total Dipole Moment    :     -0.09414      -0.04909       0.10114
                        -----------------------------------------
Magnitude (a.u.)       :      0.14663
Magnitude (Debye)      :      0.37270

Rotational constants in cm-1:     0.021618     0.008245     0.006287
Rotational constants in MHz :   648.076847   247.179873   188.467188

                             ****ORCA TERMINATED NORMALLY****
TOTAL RUN TIME: 0 days 0 hours 0 minutes 31 seconds 341 msec
