                         Program Version 4.2.1 -  RELEASE  -
|  1> ! wB97X-D3 SP def2-SVP
|  2> %pal
|  3> nprocs 16
|  4> end
|  5>
|  6> * xyz 0 1
|  7> S 	 -44.491 	 23.7331 	 92.1745
|  8> C 	 -44.779 	 22.0333 	 92.0751
|  9> C 	 -43.9852 	 21.351 	 91.1603
| 10> C 	 -43.1948 	 22.3648 	 90.4239
| 11> C 	 -43.2854 	 23.6545 	 90.9027
| 12> H 	 -42.5667 	 22.2053 	 89.6354
| 13> C 	 -43.7208 	 19.8731 	 91.0895
| 14> H 	 -44.1084 	 19.304 	 91.9991
| 15> H 	 -42.5987 	 19.8396 	 91.1533
| 16> C 	 -44.2775 	 19.0855 	 89.9191
| 17> H 	 -43.9287 	 18.0924 	 89.9529
| 18> H 	 -45.3883 	 19.1164 	 90.0534
| 19> C 	 -43.9492 	 19.753 	 88.5787
| 20> H 	 -44.4264 	 20.7267 	 88.5553
| 21> H 	 -42.8353 	 19.9206 	 88.5819
| 22> H 	 -44.2249 	 19.1796 	 87.7135
| 23> S 	 -43.0475 	 25.4932 	 88.8309
| 24> C 	 -41.9346 	 26.7641 	 88.966
| 25> C 	 -41.2119 	 26.7284 	 90.0998
| 26> C 	 -41.6777 	 25.7151 	 90.9884
| 27> C 	 -42.6269 	 24.8311 	 90.4008
| 28> H 	 -40.4341 	 27.494 	 90.3526
| 29> C 	 -41.1983 	 25.597 	 92.384
| 30> H 	 -42.0494 	 25.235 	 92.9818
| 31> H 	 -40.9003 	 26.5296 	 92.854
| 32> C 	 -40.0041 	 24.6299 	 92.5661
| 33> H 	 -39.5196 	 24.8603 	 93.5361
| 34> H 	 -39.235 	 24.7716 	 91.8152
| 35> C 	 -40.3792 	 23.1272 	 92.5455
| 36> H 	 -41.3196 	 22.9156 	 93.0961
| 37> H 	 -39.6007 	 22.5258 	 93.0505
| 38> H 	 -40.637 	 22.717 	 91.6015
| 39> H 	 -45.2507 	 21.4393 	 92.8408
| 40> H 	 -41.5745 	 27.4496 	 88.1893
| 41> *
| 42>
| 43>                          ****END OF INPUT****

CARTESIAN COORDINATES (ANGSTROEM)
---------------------------------
  S    -44.491000   23.733100   92.174500
  C    -44.779000   22.033300   92.075100
  C    -43.985200   21.351000   91.160300
  C    -43.194800   22.364800   90.423900
  C    -43.285400   23.654500   90.902700
  H    -42.566700   22.205300   89.635400
  C    -43.720800   19.873100   91.089500
  H    -44.108400   19.304000   91.999100
  H    -42.598700   19.839600   91.153300
  C    -44.277500   19.085500   89.919100
  H    -43.928700   18.092400   89.952900
  H    -45.388300   19.116400   90.053400
  C    -43.949200   19.753000   88.578700
  H    -44.426400   20.726700   88.555300
  H    -42.835300   19.920600   88.581900
  H    -44.224900   19.179600   87.713500
  S    -43.047500   25.493200   88.830900
  C    -41.934600   26.764100   88.966000
  C    -41.211900   26.728400   90.099800
  C    -41.677700   25.715100   90.988400
  C    -42.626900   24.831100   90.400800
  H    -40.434100   27.494000   90.352600
  C    -41.198300   25.597000   92.384000
  H    -42.049400   25.235000   92.981800
  H    -40.900300   26.529600   92.854000
  C    -40.004100   24.629900   92.566100
  H    -39.519600   24.860300   93.536100
  H    -39.235000   24.771600   91.815200
  C    -40.379200   23.127200   92.545500
  H    -41.319600   22.915600   93.096100
  H    -39.600700   22.525800   93.050500
  H    -40.637000   22.717000   91.601500
  H    -45.250700   21.439300   92.840800
  H    -41.574500   27.449600   88.189300

 Total Charge           Charge          ....    0
 Multiplicity           Mult            ....    1
 Number of Electrons    NEL             ....  134
 Basis Dimension        Dim             ....  322

ORBITAL ENERGIES
----------------

  NO   OCC          E(Eh)            E(eV)
   0   2.0000     -88.966997     -2420.9151
   1   2.0000     -88.966317     -2420.8966
   2   2.0000     -10.329239      -281.0729
   3   2.0000     -10.326258      -280.9918
   4   2.0000     -10.313658      -280.6489
   5   2.0000     -10.311373      -280.5867
   6   2.0000     -10.308875      -280.5187
   7   2.0000     -10.304158      -280.3904
   8   2.0000     -10.302513      -280.3456
   9   2.0000     -10.293625      -280.1038
  10   2.0000     -10.291358      -280.0421
  11   2.0000     -10.286041      -279.8974
  12   2.0000     -10.285853      -279.8923
  13   2.0000     -10.285294      -279.8771
  14   2.0000     -10.276572      -279.6397
  15   2.0000     -10.268867      -279.4301
  16   2.0000      -8.081772      -219.9162
  17   2.0000      -8.081756      -219.9158
  18   2.0000      -6.040341      -164.3660
  19   2.0000      -6.040220      -164.3627
  20   2.0000      -6.036214      -164.2537
  21   2.0000      -6.035982      -164.2474
  22   2.0000      -6.032703      -164.1582
  23   2.0000      -6.032516      -164.1531
  24   2.0000      -1.010023       -27.4841
  25   2.0000      -0.988061       -26.8865
  26   2.0000      -0.917394       -24.9636
  27   2.0000      -0.906693       -24.6724
  28   2.0000      -0.874728       -23.8026
  29   2.0000      -0.847159       -23.0524
  30   2.0000      -0.842490       -22.9253
  31   2.0000      -0.818543       -22.2737
  32   2.0000      -0.784451       -21.3460
  33   2.0000      -0.770172       -20.9574
  34   2.0000      -0.707842       -19.2614
  35   2.0000      -0.702303       -19.1106
  36   2.0000      -0.692449       -18.8425
  37   2.0000      -0.654467       -17.8089
  38   2.0000      -0.644904       -17.5487
  39   2.0000      -0.614376       -16.7180
  40   2.0000      -0.596900       -16.2425
  41   2.0000      -0.578153       -15.7324
  42   2.0000      -0.556175       -15.1343
  43   2.0000      -0.545973       -14.8567
  44   2.0000      -0.541955       -14.7473
  45   2.0000      -0.534801       -14.5527
  46   2.0000      -0.521082       -14.1793
  47   2.0000      -0.510180       -13.8827
  48   2.0000      -0.500783       -13.6270
  49   2.0000      -0.500128       -13.6092
  50   2.0000      -0.490242       -13.3402
  51   2.0000      -0.475333       -12.9345
  52   2.0000      -0.470713       -12.8087
  53   2.0000      -0.463964       -12.6251
  54   2.0000      -0.460748       -12.5376
  55   2.0000      -0.446591       -12.1524
  56   2.0000      -0.443862       -12.0781
  57   2.0000      -0.434477       -11.8227
  58   2.0000      -0.428808       -11.6685
  59   2.0000      -0.427140       -11.6231
  60   2.0000      -0.418996       -11.4015
  61   2.0000      -0.414731       -11.2854
  62   2.0000      -0.413191       -11.2435
  63   2.0000      -0.337368        -9.1802
  64   2.0000      -0.332548        -9.0491
  65   2.0000      -0.324676        -8.8349
  66   2.0000      -0.303334        -8.2541
  67   0.0000       0.035568         0.9678
  68   0.0000       0.064259         1.7486
  69   0.0000       0.097868         2.6631
  70   0.0000       0.116887         3.1807
  71   0.0000       0.131343         3.5740

MULLIKEN ATOMIC CHARGES
-----------------------
   0 S :    0.121250
   1 C :   -0.096000
   2 C :   -0.099452
   3 C :    0.066247
   4 C :   -0.180791
   5 H :   -0.028551
   6 C :   -0.000183
   7 H :    0.035288
   8 H :    0.049044
   9 C :   -0.041046
  10 H :    0.027143
  11 H :    0.034478
  12 C :   -0.071111
  13 H :    0.047878
  14 H :    0.030767
  15 H :    0.038726
  16 S :    0.131326
  17 C :   -0.074294
  18 C :   -0.061188
  19 C :   -0.031852
  20 C :   -0.168842
  21 H :    0.036183
  22 C :    0.068180
  23 H :    0.020625
  24 H :    0.019502
  25 C :   -0.063917
  26 H :    0.028406
  27 H :    0.025126
  28 C :   -0.046387
  29 H :    0.021331
  30 H :    0.035316
  31 H :    0.022032
  32 H :    0.043793
  33 H :    0.060971
Sum of atomic charges:   -0.0000000

LOEWDIN ATOMIC CHARGES
----------------------
   0 S :    0.413938
   1 C :   -0.202026
   2 C :   -0.060931
   3 C :   -0.043017
   4 C :   -0.196176
   5 H :    0.011301
   6 C :   -0.041060
   7 H :    0.038883
   8 H :    0.038519
   9 C :   -0.038317
  10 H :    0.018583
  11 H :    0.029722
  12 C :   -0.066667
  13 H :    0.027613
  14 H :    0.026393
  15 H :    0.022941
  16 S :    0.434644
  17 C :   -0.205926
  18 C :   -0.083000
  19 C :   -0.046111
  20 C :   -0.216185
  21 H :    0.041928
  22 C :   -0.038529
  23 H :    0.027897
  24 H :    0.030400
  25 C :   -0.034908
  26 H :    0.025248
  27 H :    0.021950
  28 C :   -0.071735
  29 H :    0.025658
  30 H :    0.028127
  31 H :    0.015944
  32 H :    0.025969
  33 H :    0.038930

  Mayer bond orders larger than 0.100000
B(  0-S ,  1-C ) :   1.1463 B(  0-S ,  4-C ) :   1.1241 B(  1-C ,  2-C ) :   1.6482
B(  1-C , 32-H ) :   0.9553 B(  2-C ,  3-C ) :   1.1875 B(  2-C ,  6-C ) :   1.0136
B(  3-C ,  4-C ) :   1.6245 B(  3-C ,  5-H ) :   1.0029 B(  4-C , 20-C ) :   1.0497
B(  6-C ,  7-H ) :   0.9436 B(  6-C ,  8-H ) :   0.9424 B(  6-C ,  9-C ) :   1.0747
B(  9-C , 10-H ) :   0.9537 B(  9-C , 11-H ) :   0.9515 B(  9-C , 12-C ) :   1.0886
B( 12-C , 13-H ) :   0.9665 B( 12-C , 14-H ) :   0.9734 B( 12-C , 15-H ) :   0.9731
B( 16-S , 17-C ) :   1.1750 B( 16-S , 20-C ) :   1.1427 B( 17-C , 18-C ) :   1.6099
B( 17-C , 33-H ) :   0.9537 B( 18-C , 19-C ) :   1.2724 B( 18-C , 21-H ) :   0.9803
B( 19-C , 20-C ) :   1.5458 B( 19-C , 22-C ) :   1.0575 B( 22-C , 23-H ) :   0.9299
B( 22-C , 24-H ) :   0.9344 B( 22-C , 25-C ) :   1.0720 B( 25-C , 26-H ) :   0.9580
B( 25-C , 27-H ) :   0.9555 B( 25-C , 28-C ) :   1.0779 B( 28-C , 29-H ) :   0.9716
B( 28-C , 30-H ) :   0.9736 B( 28-C , 31-H ) :   0.9715

Dispersion correction           -0.016361629
FINAL SINGLE POINT ENERGY     -1339.881658154621

DIPOLE MOMENT
-------------
                                X             Y             Z
Electronic contribution:     -9.94002      18.00960      -3.56248
Nuclear contribution   :     10.36278     -18.30009       3.67303
                        -----------------------------------------
Total Dipole Moment    :      0.42276      -0.29049       0.11055
                        -----------------------------------------
Magnitude (a.u.)       :      0.52472
Magnitude (Debye)      :      1.33373

Rotational constants in cm-1:     0.020631     0.009063     0.007980
Rotational constants in MHz :   618.499200   271.714898   239.223243

                             ****ORCA TERMINATED NORMALLY****
TOTAL RUN TIME: 0 days 0 hours 0 minutes 32 seconds 734 msec
