                         Program Version 4.2.1 -  RELEASE  -
|  1> ! wB97X-D3 SP def2-SVP
|  2> %pal
|  3> nprocs 16
|  4> end
|  5>
|  6> * xyz 0 1
|  7> S 	 -81.9038 	 33.2366 	 133.997
|  8> C 	 -80.3227 	 32.5481 	 134.234
|  9> C 	 -79.3202 	 33.4945 	 133.977
| 10> C 	 -79.8372 	 34.7702 	 133.621
| 11> C 	 -81.1795 	 34.7414 	 133.494
| 12> H 	 -79.2652 	 35.6814 	 133.256
| 13> C 	 -77.8771 	 33.1606 	 134.047
| 14> H 	 -77.4705 	 33.3212 	 132.974
| 15> H 	 -77.8462 	 32.1256 	 134.119
| 16> C 	 -77.1392 	 33.9067 	 135.132
| 17> H 	 -77.5592 	 34.0258 	 136.112
| 18> H 	 -76.2322 	 33.4543 	 135.397
| 19> C 	 -76.8006 	 35.3646 	 134.671
| 20> H 	 -76.0452 	 35.2809 	 133.887
| 21> H 	 -77.6503 	 36.0248 	 134.456
| 22> H 	 -76.121 	 35.7905 	 135.461
| 23> S 	 -82.95 	 35.3623 	 131.584
| 24> C 	 -83.7575 	 37.0092 	 131.669
| 25> C 	 -83.1887 	 37.8538 	 132.592
| 26> C 	 -82.2151 	 37.1279 	 133.362
| 27> C 	 -82.0166 	 35.7892 	 132.971
| 28> H 	 -83.4248 	 38.9305 	 132.589
| 29> C 	 -81.5683 	 37.6651 	 134.645
| 30> H 	 -81.0461 	 36.7998 	 135.174
| 31> H 	 -82.4039 	 37.8381 	 135.219
| 32> C 	 -80.6737 	 38.943 	 134.4
| 33> H 	 -81.2028 	 39.72 	 134.05
| 34> H 	 -80.0567 	 38.7728 	 133.546
| 35> C 	 -79.8312 	 39.3922 	 135.598
| 36> H 	 -79.1377 	 38.6163 	 135.947
| 37> H 	 -80.5677 	 39.5228 	 136.447
| 38> H 	 -79.1717 	 40.2061 	 135.377
| 39> H 	 -80.1712 	 31.5329 	 134.441
| 40> H 	 -84.4654 	 37.391 	 130.919
| 41> *
| 42>
| 43>                          ****END OF INPUT****

CARTESIAN COORDINATES (ANGSTROEM)
---------------------------------
  S    -81.903800   33.236600  133.997000
  C    -80.322700   32.548100  134.234000
  C    -79.320200   33.494500  133.977000
  C    -79.837200   34.770200  133.621000
  C    -81.179500   34.741400  133.494000
  H    -79.265200   35.681400  133.256000
  C    -77.877100   33.160600  134.047000
  H    -77.470500   33.321200  132.974000
  H    -77.846200   32.125600  134.119000
  C    -77.139200   33.906700  135.132000
  H    -77.559200   34.025800  136.112000
  H    -76.232200   33.454300  135.397000
  C    -76.800600   35.364600  134.671000
  H    -76.045200   35.280900  133.887000
  H    -77.650300   36.024800  134.456000
  H    -76.121000   35.790500  135.461000
  S    -82.950000   35.362300  131.584000
  C    -83.757500   37.009200  131.669000
  C    -83.188700   37.853800  132.592000
  C    -82.215100   37.127900  133.362000
  C    -82.016600   35.789200  132.971000
  H    -83.424800   38.930500  132.589000
  C    -81.568300   37.665100  134.645000
  H    -81.046100   36.799800  135.174000
  H    -82.403900   37.838100  135.219000
  C    -80.673700   38.943000  134.400000
  H    -81.202800   39.720000  134.050000
  H    -80.056700   38.772800  133.546000
  C    -79.831200   39.392200  135.598000
  H    -79.137700   38.616300  135.947000
  H    -80.567700   39.522800  136.447000
  H    -79.171700   40.206100  135.377000
  H    -80.171200   31.532900  134.441000
  H    -84.465400   37.391000  130.919000

 Total Charge           Charge          ....    0
 Multiplicity           Mult            ....    1
 Number of Electrons    NEL             ....  134
 Basis Dimension        Dim             ....  322

ORBITAL ENERGIES
----------------

  NO   OCC          E(Eh)            E(eV)
   0   2.0000     -88.965503     -2420.8744
   1   2.0000     -88.964383     -2420.8439
   2   2.0000     -10.322730      -280.8958
   3   2.0000     -10.321908      -280.8734
   4   2.0000     -10.320785      -280.8428
   5   2.0000     -10.308172      -280.4996
   6   2.0000     -10.304808      -280.4081
   7   2.0000     -10.300269      -280.2846
   8   2.0000     -10.298922      -280.2479
   9   2.0000     -10.293360      -280.0966
  10   2.0000     -10.289527      -279.9923
  11   2.0000     -10.288788      -279.9722
  12   2.0000     -10.282519      -279.8016
  13   2.0000     -10.282253      -279.7943
  14   2.0000     -10.280258      -279.7400
  15   2.0000     -10.277408      -279.6625
  16   2.0000      -8.079494      -219.8542
  17   2.0000      -8.079387      -219.8513
  18   2.0000      -6.037950      -164.3010
  19   2.0000      -6.037856      -164.2984
  20   2.0000      -6.034166      -164.1980
  21   2.0000      -6.033999      -164.1934
  22   2.0000      -6.030332      -164.0937
  23   2.0000      -6.029983      -164.0842
  24   2.0000      -1.008564       -27.4444
  25   2.0000      -0.979503       -26.6536
  26   2.0000      -0.916505       -24.9394
  27   2.0000      -0.901387       -24.5280
  28   2.0000      -0.872139       -23.7321
  29   2.0000      -0.850076       -23.1317
  30   2.0000      -0.844948       -22.9922
  31   2.0000      -0.821428       -22.3522
  32   2.0000      -0.780143       -21.2288
  33   2.0000      -0.761372       -20.7180
  34   2.0000      -0.712311       -19.3830
  35   2.0000      -0.707316       -19.2470
  36   2.0000      -0.697803       -18.9882
  37   2.0000      -0.658198       -17.9105
  38   2.0000      -0.645092       -17.5538
  39   2.0000      -0.619913       -16.8687
  40   2.0000      -0.585613       -15.9353
  41   2.0000      -0.569811       -15.5054
  42   2.0000      -0.559285       -15.2189
  43   2.0000      -0.550988       -14.9931
  44   2.0000      -0.541180       -14.7262
  45   2.0000      -0.532198       -14.4818
  46   2.0000      -0.520326       -14.1588
  47   2.0000      -0.511839       -13.9278
  48   2.0000      -0.503230       -13.6936
  49   2.0000      -0.496435       -13.5087
  50   2.0000      -0.484216       -13.1762
  51   2.0000      -0.480645       -13.0790
  52   2.0000      -0.470190       -12.7945
  53   2.0000      -0.464396       -12.6368
  54   2.0000      -0.456691       -12.4272
  55   2.0000      -0.446975       -12.1628
  56   2.0000      -0.440723       -11.9927
  57   2.0000      -0.437499       -11.9049
  58   2.0000      -0.434105       -11.8126
  59   2.0000      -0.426878       -11.6159
  60   2.0000      -0.424844       -11.5606
  61   2.0000      -0.410244       -11.1633
  62   2.0000      -0.408899       -11.1267
  63   2.0000      -0.347595        -9.4586
  64   2.0000      -0.330728        -8.9996
  65   2.0000      -0.325924        -8.8688
  66   2.0000      -0.290908        -7.9160
  67   0.0000       0.034007         0.9254
  68   0.0000       0.068027         1.8511
  69   0.0000       0.102672         2.7939
  70   0.0000       0.119617         3.2550
  71   0.0000       0.128541         3.4978

MULLIKEN ATOMIC CHARGES
-----------------------
   0 S :    0.120327
   1 C :   -0.107051
   2 C :   -0.112183
   3 C :    0.012559
   4 C :   -0.170359
   5 H :    0.051898
   6 C :    0.100775
   7 H :    0.047282
   8 H :   -0.011612
   9 C :   -0.016816
  10 H :    0.027393
  11 H :    0.007550
  12 C :   -0.095704
  13 H :    0.024428
  14 H :    0.058619
  15 H :    0.027257
  16 S :    0.103102
  17 C :   -0.102572
  18 C :   -0.039812
  19 C :   -0.042955
  20 C :   -0.167819
  21 H :    0.042586
  22 C :    0.062225
  23 H :    0.043417
  24 H :    0.016328
  25 C :   -0.024963
  26 H :   -0.004816
  27 H :    0.009689
  28 C :   -0.049595
  29 H :    0.026642
  30 H :    0.038774
  31 H :    0.035538
  32 H :    0.028877
  33 H :    0.060989
Sum of atomic charges:    0.0000000

LOEWDIN ATOMIC CHARGES
----------------------
   0 S :    0.411263
   1 C :   -0.198453
   2 C :   -0.054830
   3 C :   -0.072998
   4 C :   -0.197893
   5 H :    0.049023
   6 C :   -0.033561
   7 H :    0.046100
   8 H :    0.018241
   9 C :   -0.035299
  10 H :    0.027403
  11 H :    0.018956
  12 C :   -0.070963
  13 H :    0.023035
  14 H :    0.023960
  15 H :    0.030736
  16 S :    0.384412
  17 C :   -0.161598
  18 C :   -0.072585
  19 C :   -0.053209
  20 C :   -0.212677
  21 H :    0.043056
  22 C :   -0.026536
  23 H :    0.039748
  24 H :    0.019309
  25 C :   -0.033965
  26 H :    0.007225
  27 H :    0.020414
  28 C :   -0.066466
  29 H :    0.024417
  30 H :    0.033436
  31 H :    0.024424
  32 H :    0.015524
  33 H :    0.030355

  Mayer bond orders larger than 0.100000
B(  0-S ,  1-C ) :   1.1311 B(  0-S ,  4-C ) :   1.1603 B(  1-C ,  2-C ) :   1.6097
B(  1-C , 32-H ) :   0.9754 B(  2-C ,  3-C ) :   1.2276 B(  2-C ,  6-C ) :   1.0351
B(  3-C ,  4-C ) :   1.5965 B(  3-C ,  5-H ) :   0.9743 B(  4-C , 20-C ) :   1.0222
B(  6-C ,  7-H ) :   0.9378 B(  6-C ,  8-H ) :   0.9273 B(  6-C ,  9-C ) :   1.0502
B(  9-C , 10-H ) :   0.9581 B(  9-C , 11-H ) :   0.9517 B(  9-C , 12-C ) :   1.0798
B( 12-C , 13-H ) :   0.9759 B( 12-C , 14-H ) :   0.9698 B( 12-C , 15-H ) :   0.9705
B( 16-S , 17-C ) :   1.1300 B( 16-S , 20-C ) :   1.1403 B( 17-C , 18-C ) :   1.6513
B( 17-C , 33-H ) :   0.9612 B( 18-C , 19-C ) :   1.2136 B( 18-C , 21-H ) :   0.9828
B( 19-C , 20-C ) :   1.6064 B( 19-C , 22-C ) :   1.0319 B( 22-C , 23-H ) :   0.9435
B( 22-C , 24-H ) :   0.9334 B( 22-C , 25-C ) :   1.0363 B( 25-C , 26-H ) :   0.9514
B( 25-C , 27-H ) :   0.9557 B( 25-C , 28-C ) :   1.0907 B( 28-C , 29-H ) :   0.9761
B( 28-C , 30-H ) :   0.9731 B( 28-C , 31-H ) :   0.9732

Dispersion correction           -0.014804170
FINAL SINGLE POINT ENERGY     -1339.849894458348

DIPOLE MOMENT
-------------
                                X             Y             Z
Electronic contribution:    -23.53814     -15.01219     -12.85266
Nuclear contribution   :     24.06726      15.35262      12.97896
                        -----------------------------------------
Total Dipole Moment    :      0.52911       0.34043       0.12629
                        -----------------------------------------
Magnitude (a.u.)       :      0.64172
Magnitude (Debye)      :      1.63112

Rotational constants in cm-1:     0.016173     0.010671     0.007129
Rotational constants in MHz :   484.863630   319.893821   213.715224

                             ****ORCA TERMINATED NORMALLY****
TOTAL RUN TIME: 0 days 0 hours 0 minutes 34 seconds 522 msec
