                         Program Version 4.2.1 -  RELEASE  -
|  1> ! wB97X-D3 SP def2-SVP
|  2> %pal
|  3> nprocs 16
|  4> end
|  5>
|  6> * xyz 0 1
|  7> S 	 -4.4101 	 72.0793 	 47.1631
|  8> C 	 -4.12521 	 73.6434 	 47.9499
|  9> C 	 -5.31181 	 74.3859 	 48.1233
| 10> C 	 -6.45258 	 73.6616 	 47.5978
| 11> C 	 -6.10981 	 72.4729 	 46.9677
| 12> H 	 -7.43382 	 74.0486 	 47.6456
| 13> C 	 -5.48108 	 75.6852 	 48.9256
| 14> H 	 -5.71685 	 76.464 	 48.2105
| 15> H 	 -4.49146 	 76.0586 	 49.1931
| 16> C 	 -6.40053 	 75.7402 	 50.1603
| 17> H 	 -7.44415 	 75.6088 	 49.9295
| 18> H 	 -6.35862 	 74.99 	 50.9353
| 19> C 	 -6.30939 	 77.1102 	 50.9197
| 20> H 	 -5.23439 	 77.2709 	 51.1719
| 21> H 	 -6.70631 	 77.9125 	 50.3986
| 22> H 	 -6.78051 	 77.0693 	 51.8931
| 23> S 	 -6.8513 	 69.8258 	 46.7548
| 24> C 	 -8.29443 	 69.4151 	 45.8063
| 25> C 	 -8.74652 	 70.5653 	 45.1981
| 26> C 	 -8.03412 	 71.7683 	 45.4452
| 27> C 	 -7.04289 	 71.5364 	 46.3804
| 28> H 	 -9.60968 	 70.4358 	 44.5442
| 29> C 	 -8.35899 	 73.0153 	 44.7894
| 30> H 	 -8.37602 	 72.8813 	 43.6623
| 31> H 	 -7.64193 	 73.8953 	 45.0739
| 32> C 	 -9.79487 	 73.5181 	 45.0228
| 33> H 	 -10.0002 	 73.5839 	 46.0409
| 34> H 	 -10.5046 	 72.7831 	 44.6106
| 35> C 	 -10.0176 	 74.9717 	 44.5337
| 36> H 	 -9.20505 	 75.6486 	 44.8514
| 37> H 	 -10.9908 	 75.292 	 44.8535
| 38> H 	 -10.0243 	 75.0187 	 43.449
| 39> H 	 -3.21019 	 73.9804 	 48.486
| 40> H 	 -8.57177 	 68.381 	 45.5989
| 41> *
| 42>
| 43>                          ****END OF INPUT****

CARTESIAN COORDINATES (ANGSTROEM)
---------------------------------
  S     -4.410100   72.079300   47.163100
  C     -4.125210   73.643400   47.949900
  C     -5.311810   74.385900   48.123300
  C     -6.452580   73.661600   47.597800
  C     -6.109810   72.472900   46.967700
  H     -7.433820   74.048600   47.645600
  C     -5.481080   75.685200   48.925600
  H     -5.716850   76.464000   48.210500
  H     -4.491460   76.058600   49.193100
  C     -6.400530   75.740200   50.160300
  H     -7.444150   75.608800   49.929500
  H     -6.358620   74.990000   50.935300
  C     -6.309390   77.110200   50.919700
  H     -5.234390   77.270900   51.171900
  H     -6.706310   77.912500   50.398600
  H     -6.780510   77.069300   51.893100
  S     -6.851300   69.825800   46.754800
  C     -8.294430   69.415100   45.806300
  C     -8.746520   70.565300   45.198100
  C     -8.034120   71.768300   45.445200
  C     -7.042890   71.536400   46.380400
  H     -9.609680   70.435800   44.544200
  C     -8.358990   73.015300   44.789400
  H     -8.376020   72.881300   43.662300
  H     -7.641930   73.895300   45.073900
  C     -9.794870   73.518100   45.022800
  H    -10.000200   73.583900   46.040900
  H    -10.504600   72.783100   44.610600
  C    -10.017600   74.971700   44.533700
  H     -9.205050   75.648600   44.851400
  H    -10.990800   75.292000   44.853500
  H    -10.024300   75.018700   43.449000
  H     -3.210190   73.980400   48.486000
  H     -8.571770   68.381000   45.598900

 Total Charge           Charge          ....    0
 Multiplicity           Mult            ....    1
 Number of Electrons    NEL             ....  134
 Basis Dimension        Dim             ....  322

ORBITAL ENERGIES
----------------

  NO   OCC          E(Eh)            E(eV)
   0   2.0000     -88.970594     -2421.0129
   1   2.0000     -88.962784     -2420.8004
   2   2.0000     -10.329976      -281.0930
   3   2.0000     -10.326040      -280.9858
   4   2.0000     -10.320327      -280.8304
   5   2.0000     -10.320114      -280.8246
   6   2.0000     -10.307382      -280.4781
   7   2.0000     -10.300369      -280.2873
   8   2.0000     -10.298963      -280.2490
   9   2.0000     -10.298245      -280.2295
  10   2.0000     -10.294781      -280.1352
  11   2.0000     -10.293641      -280.1042
  12   2.0000     -10.290202      -280.0106
  13   2.0000     -10.283025      -279.8153
  14   2.0000     -10.279850      -279.7289
  15   2.0000     -10.277727      -279.6712
  16   2.0000      -8.084467      -219.9895
  17   2.0000      -8.077288      -219.7942
  18   2.0000      -6.043079      -164.4405
  19   2.0000      -6.039197      -164.3349
  20   2.0000      -6.035862      -164.2442
  21   2.0000      -6.035064      -164.2224
  22   2.0000      -6.031873      -164.1356
  23   2.0000      -6.027955      -164.0290
  24   2.0000      -1.005485       -27.3606
  25   2.0000      -0.978822       -26.6351
  26   2.0000      -0.913495       -24.8575
  27   2.0000      -0.907028       -24.6815
  28   2.0000      -0.868494       -23.6329
  29   2.0000      -0.854808       -23.2605
  30   2.0000      -0.845535       -23.0082
  31   2.0000      -0.812966       -22.1219
  32   2.0000      -0.781972       -21.2785
  33   2.0000      -0.771402       -20.9909
  34   2.0000      -0.714367       -19.4389
  35   2.0000      -0.702535       -19.1170
  36   2.0000      -0.696605       -18.9556
  37   2.0000      -0.660783       -17.9808
  38   2.0000      -0.636556       -17.3216
  39   2.0000      -0.623098       -16.9554
  40   2.0000      -0.601934       -16.3795
  41   2.0000      -0.568965       -15.4823
  42   2.0000      -0.563650       -15.3377
  43   2.0000      -0.554302       -15.0833
  44   2.0000      -0.531144       -14.4532
  45   2.0000      -0.528848       -14.3907
  46   2.0000      -0.516405       -14.0521
  47   2.0000      -0.509259       -13.8576
  48   2.0000      -0.505185       -13.7468
  49   2.0000      -0.500501       -13.6193
  50   2.0000      -0.490864       -13.3571
  51   2.0000      -0.477451       -12.9921
  52   2.0000      -0.467650       -12.7254
  53   2.0000      -0.462084       -12.5740
  54   2.0000      -0.458869       -12.4865
  55   2.0000      -0.452831       -12.3221
  56   2.0000      -0.445099       -12.1117
  57   2.0000      -0.440404       -11.9840
  58   2.0000      -0.433495       -11.7960
  59   2.0000      -0.427906       -11.6439
  60   2.0000      -0.424322       -11.5464
  61   2.0000      -0.417365       -11.3571
  62   2.0000      -0.413707       -11.2575
  63   2.0000      -0.347675        -9.4607
  64   2.0000      -0.331715        -9.0264
  65   2.0000      -0.327853        -8.9213
  66   2.0000      -0.289141        -7.8679
  67   0.0000       0.025204         0.6858
  68   0.0000       0.072188         1.9643
  69   0.0000       0.104098         2.8326
  70   0.0000       0.120900         3.2899
  71   0.0000       0.124860         3.3976

MULLIKEN ATOMIC CHARGES
-----------------------
   0 S :    0.115555
   1 C :   -0.123424
   2 C :   -0.102198
   3 C :    0.033656
   4 C :   -0.142087
   5 H :   -0.000880
   6 C :    0.092142
   7 H :    0.029406
   8 H :   -0.001053
   9 C :   -0.050884
  10 H :    0.016787
  11 H :    0.026537
  12 C :   -0.059758
  13 H :    0.030392
  14 H :    0.027240
  15 H :    0.029823
  16 S :    0.086894
  17 C :   -0.101615
  18 C :   -0.045923
  19 C :    0.040294
  20 C :   -0.153358
  21 H :    0.021252
  22 C :   -0.005641
  23 H :    0.043082
  24 H :    0.047881
  25 C :   -0.086377
  26 H :    0.013417
  27 H :    0.032169
  28 C :   -0.031776
  29 H :    0.035745
  30 H :    0.032119
  31 H :    0.022237
  32 H :    0.060072
  33 H :    0.068271
Sum of atomic charges:    0.0000000

LOEWDIN ATOMIC CHARGES
----------------------
   0 S :    0.397913
   1 C :   -0.204329
   2 C :   -0.058095
   3 C :   -0.055319
   4 C :   -0.187466
   5 H :    0.023492
   6 C :   -0.035262
   7 H :    0.036228
   8 H :    0.027845
   9 C :   -0.041479
  10 H :    0.020622
  11 H :    0.027086
  12 C :   -0.057786
  13 H :    0.028096
  14 H :    0.012997
  15 H :    0.027384
  16 S :    0.381359
  17 C :   -0.177590
  18 C :   -0.068137
  19 C :   -0.062373
  20 C :   -0.188145
  21 H :    0.030917
  22 C :   -0.045283
  23 H :    0.042340
  24 H :    0.042017
  25 C :   -0.037960
  26 H :    0.011680
  27 H :    0.024150
  28 C :   -0.060469
  29 H :    0.028777
  30 H :    0.024481
  31 H :    0.021457
  32 H :    0.036779
  33 H :    0.034074

  Mayer bond orders larger than 0.100000
B(  0-S ,  1-C ) :   1.1250 B(  0-S ,  4-C ) :   1.1407 B(  1-C ,  2-C ) :   1.6305
B(  1-C , 32-H ) :   0.9559 B(  2-C ,  3-C ) :   1.2339 B(  2-C ,  6-C ) :   1.0283
B(  3-C ,  4-C ) :   1.5610 B(  3-C ,  5-H ) :   1.0013 B(  4-C , 20-C ) :   1.0642
B(  6-C ,  7-H ) :   0.9313 B(  6-C ,  8-H ) :   0.9386 B(  6-C ,  9-C ) :   1.0456
B(  9-C , 10-H ) :   0.9506 B(  9-C , 11-H ) :   0.9615 B(  9-C , 12-C ) :   1.0844
B( 12-C , 13-H ) :   0.9770 B( 12-C , 14-H ) :   0.9805 B( 12-C , 15-H ) :   0.9749
B( 16-S , 17-C ) :   1.1357 B( 16-S , 20-C ) :   1.1337 B( 17-C , 18-C ) :   1.6203
B( 17-C , 33-H ) :   0.9690 B( 18-C , 19-C ) :   1.2139 B( 18-C , 21-H ) :   0.9873
B( 19-C , 20-C ) :   1.5767 B( 19-C , 22-C ) :   1.0777 B( 22-C , 23-H ) :   0.9234
B( 22-C , 24-H ) :   0.9293 B( 22-C , 25-C ) :   1.0541 B( 25-C , 26-H ) :   0.9578
B( 25-C , 27-H ) :   0.9508 B( 25-C , 28-C ) :   1.0856 B( 28-C , 29-H ) :   0.9727
B( 28-C , 30-H ) :   0.9753 B( 28-C , 31-H ) :   0.9746

Dispersion correction           -0.013621540
FINAL SINGLE POINT ENERGY     -1339.874528899365

DIPOLE MOMENT
-------------
                                X             Y             Z
Electronic contribution:     14.18064     -27.76979      -4.26082
Nuclear contribution   :    -14.68502      28.29286       4.28340
                        -----------------------------------------
Total Dipole Moment    :     -0.50438       0.52307       0.02257
                        -----------------------------------------
Magnitude (a.u.)       :      0.72699
Magnitude (Debye)      :      1.84785

Rotational constants in cm-1:     0.016472     0.008730     0.006443
Rotational constants in MHz :   493.807476   261.721665   193.148728

                             ****ORCA TERMINATED NORMALLY****
TOTAL RUN TIME: 0 days 0 hours 0 minutes 31 seconds 403 msec
