                         Program Version 4.2.1 -  RELEASE  -
|  1> ! wB97X-D3 SP def2-SVP
|  2> %pal
|  3> nprocs 16
|  4> end
|  5>
|  6> * xyz 0 1
|  7> S 	 54.2544 	 13.2709 	 50.1461
|  8> C 	 55.4995 	 13.9858 	 51.2475
|  9> C 	 55.062 	 15.084 	 51.9943
| 10> C 	 53.6413 	 15.2586 	 51.7338
| 11> C 	 53.1518 	 14.5152 	 50.6625
| 12> H 	 53.0276 	 16.0176 	 52.0976
| 13> C 	 55.885 	 15.8862 	 53.0582
| 14> H 	 56.818 	 16.1995 	 52.6023
| 15> H 	 56.0747 	 15.1985 	 53.8571
| 16> C 	 55.0951 	 17.073 	 53.6997
| 17> H 	 54.0485 	 16.7517 	 53.8535
| 18> H 	 55.4863 	 17.4058 	 54.7075
| 19> C 	 54.9116 	 18.2829 	 52.796
| 20> H 	 54.431 	 18.0556 	 51.8371
| 21> H 	 54.3807 	 19.0764 	 53.4477
| 22> H 	 55.9236 	 18.6523 	 52.5722
| 23> S 	 51.8547 	 15.1535 	 48.3896
| 24> C 	 50.0713 	 15.2615 	 48.3851
| 25> C 	 49.5921 	 14.9072 	 49.6031
| 26> C 	 50.6088 	 14.4517 	 50.4751
| 27> C 	 51.8838 	 14.5726 	 50.0043
| 28> H 	 48.4837 	 14.8593 	 49.7691
| 29> C 	 50.2291 	 13.883 	 51.8695
| 30> H 	 51.1722 	 13.4493 	 52.294
| 31> H 	 49.5458 	 13.0491 	 51.7168
| 32> C 	 49.6922 	 14.8395 	 52.9387
| 33> H 	 49.2043 	 15.7121 	 52.5413
| 34> H 	 50.4914 	 15.345 	 53.533
| 35> C 	 48.6783 	 14.0792 	 53.837
| 36> H 	 48.8958 	 13.0198 	 53.8971
| 37> H 	 47.8121 	 13.9412 	 53.1717
| 38> H 	 48.5571 	 14.4663 	 54.8171
| 39> H 	 56.487 	 13.6494 	 51.3229
| 40> H 	 49.5095 	 15.5198 	 47.5413
| 41> *
| 42>
| 43>                          ****END OF INPUT****

CARTESIAN COORDINATES (ANGSTROEM)
---------------------------------
  S     54.254400   13.270900   50.146100
  C     55.499500   13.985800   51.247500
  C     55.062000   15.084000   51.994300
  C     53.641300   15.258600   51.733800
  C     53.151800   14.515200   50.662500
  H     53.027600   16.017600   52.097600
  C     55.885000   15.886200   53.058200
  H     56.818000   16.199500   52.602300
  H     56.074700   15.198500   53.857100
  C     55.095100   17.073000   53.699700
  H     54.048500   16.751700   53.853500
  H     55.486300   17.405800   54.707500
  C     54.911600   18.282900   52.796000
  H     54.431000   18.055600   51.837100
  H     54.380700   19.076400   53.447700
  H     55.923600   18.652300   52.572200
  S     51.854700   15.153500   48.389600
  C     50.071300   15.261500   48.385100
  C     49.592100   14.907200   49.603100
  C     50.608800   14.451700   50.475100
  C     51.883800   14.572600   50.004300
  H     48.483700   14.859300   49.769100
  C     50.229100   13.883000   51.869500
  H     51.172200   13.449300   52.294000
  H     49.545800   13.049100   51.716800
  C     49.692200   14.839500   52.938700
  H     49.204300   15.712100   52.541300
  H     50.491400   15.345000   53.533000
  C     48.678300   14.079200   53.837000
  H     48.895800   13.019800   53.897100
  H     47.812100   13.941200   53.171700
  H     48.557100   14.466300   54.817100
  H     56.487000   13.649400   51.322900
  H     49.509500   15.519800   47.541300

 Total Charge           Charge          ....    0
 Multiplicity           Mult            ....    1
 Number of Electrons    NEL             ....  134
 Basis Dimension        Dim             ....  322

ORBITAL ENERGIES
----------------

  NO   OCC          E(Eh)            E(eV)
   0   2.0000     -88.968335     -2420.9515
   1   2.0000     -88.961149     -2420.7559
   2   2.0000     -10.327821      -281.0343
   3   2.0000     -10.318538      -280.7817
   4   2.0000     -10.315489      -280.6987
   5   2.0000     -10.314958      -280.6843
   6   2.0000     -10.312054      -280.6053
   7   2.0000     -10.301907      -280.3291
   8   2.0000     -10.299208      -280.2557
   9   2.0000     -10.295681      -280.1597
  10   2.0000     -10.295294      -280.1492
  11   2.0000     -10.295053      -280.1426
  12   2.0000     -10.292459      -280.0721
  13   2.0000     -10.286165      -279.9008
  14   2.0000     -10.284431      -279.8536
  15   2.0000     -10.275882      -279.6210
  16   2.0000      -8.082306      -219.9307
  17   2.0000      -8.076422      -219.7706
  18   2.0000      -6.040822      -164.3791
  19   2.0000      -6.037044      -164.2763
  20   2.0000      -6.034947      -164.2193
  21   2.0000      -6.032989      -164.1660
  22   2.0000      -6.030837      -164.1074
  23   2.0000      -6.027121      -164.0063
  24   2.0000      -1.010070       -27.4854
  25   2.0000      -0.979454       -26.6523
  26   2.0000      -0.910308       -24.7707
  27   2.0000      -0.903670       -24.5901
  28   2.0000      -0.873642       -23.7730
  29   2.0000      -0.846457       -23.0333
  30   2.0000      -0.842100       -22.9147
  31   2.0000      -0.817330       -22.2407
  32   2.0000      -0.784025       -21.3344
  33   2.0000      -0.769113       -20.9286
  34   2.0000      -0.709941       -19.3185
  35   2.0000      -0.700711       -19.0673
  36   2.0000      -0.688156       -18.7257
  37   2.0000      -0.662827       -18.0364
  38   2.0000      -0.645217       -17.5573
  39   2.0000      -0.623231       -16.9590
  40   2.0000      -0.597449       -16.2574
  41   2.0000      -0.566042       -15.4028
  42   2.0000      -0.561160       -15.2699
  43   2.0000      -0.550363       -14.9761
  44   2.0000      -0.539092       -14.6694
  45   2.0000      -0.524128       -14.2623
  46   2.0000      -0.517704       -14.0874
  47   2.0000      -0.516641       -14.0585
  48   2.0000      -0.512543       -13.9470
  49   2.0000      -0.493120       -13.4185
  50   2.0000      -0.492032       -13.3889
  51   2.0000      -0.476847       -12.9757
  52   2.0000      -0.465974       -12.6798
  53   2.0000      -0.464702       -12.6452
  54   2.0000      -0.455573       -12.3968
  55   2.0000      -0.450556       -12.2602
  56   2.0000      -0.446785       -12.1576
  57   2.0000      -0.443052       -12.0560
  58   2.0000      -0.432777       -11.7764
  59   2.0000      -0.425153       -11.5690
  60   2.0000      -0.416437       -11.3318
  61   2.0000      -0.412380       -11.2214
  62   2.0000      -0.400705       -10.9037
  63   2.0000      -0.343513        -9.3475
  64   2.0000      -0.333933        -9.0868
  65   2.0000      -0.324019        -8.8170
  66   2.0000      -0.300944        -8.1891
  67   0.0000       0.034530         0.9396
  68   0.0000       0.063894         1.7386
  69   0.0000       0.107762         2.9324
  70   0.0000       0.116519         3.1706
  71   0.0000       0.130974         3.5640

MULLIKEN ATOMIC CHARGES
-----------------------
   0 S :    0.114801
   1 C :   -0.096610
   2 C :   -0.117487
   3 C :    0.061558
   4 C :   -0.187719
   5 H :   -0.009449
   6 C :    0.112042
   7 H :    0.037719
   8 H :    0.044349
   9 C :   -0.124338
  10 H :    0.030947
  11 H :    0.043454
  12 C :   -0.077913
  13 H :    0.052289
  14 H :    0.050830
  15 H :    0.025046
  16 S :    0.099053
  17 C :   -0.080980
  18 C :   -0.032583
  19 C :   -0.034031
  20 C :   -0.149828
  21 H :    0.039093
  22 C :    0.038961
  23 H :    0.040791
  24 H :    0.031387
  25 C :   -0.060168
  26 H :    0.021736
  27 H :    0.026457
  28 C :   -0.046458
  29 H :    0.020809
  30 H :    0.025732
  31 H :    0.040353
  32 H :    0.020484
  33 H :    0.039673
Sum of atomic charges:    0.0000000

LOEWDIN ATOMIC CHARGES
----------------------
   0 S :    0.392890
   1 C :   -0.173780
   2 C :   -0.050943
   3 C :   -0.056377
   4 C :   -0.193099
   5 H :    0.017891
   6 C :   -0.023426
   7 H :    0.031735
   8 H :    0.035768
   9 C :   -0.051564
  10 H :    0.023566
  11 H :    0.032286
  12 C :   -0.073174
  13 H :    0.026725
  14 H :    0.038445
  15 H :    0.021068
  16 S :    0.403657
  17 C :   -0.159299
  18 C :   -0.075125
  19 C :   -0.062157
  20 C :   -0.222035
  21 H :    0.042762
  22 C :   -0.031397
  23 H :    0.038945
  24 H :    0.028712
  25 C :   -0.044727
  26 H :    0.017052
  27 H :    0.023811
  28 C :   -0.065544
  29 H :    0.023364
  30 H :    0.030630
  31 H :    0.021951
  32 H :    0.012305
  33 H :    0.019084

  Mayer bond orders larger than 0.100000
B(  0-S ,  1-C ) :   1.1272 B(  0-S ,  4-C ) :   1.1481 B(  1-C ,  2-C ) :   1.6548
B(  1-C ,  4-C ) :   0.1040 B(  1-C , 32-H ) :   0.9741 B(  2-C ,  3-C ) :   1.2163
B(  2-C ,  6-C ) :   0.9875 B(  3-C ,  4-C ) :   1.6131 B(  3-C ,  5-H ) :   0.9879
B(  4-C , 20-C ) :   1.0079 B(  6-C ,  7-H ) :   0.9447 B(  6-C ,  8-H ) :   0.9386
B(  6-C ,  9-C ) :   1.0754 B(  9-C , 10-H ) :   0.9505 B(  9-C , 11-H ) :   0.9572
B(  9-C , 12-C ) :   1.0733 B( 12-C , 13-H ) :   0.9737 B( 12-C , 14-H ) :   0.9730
B( 12-C , 15-H ) :   0.9740 B( 16-S , 17-C ) :   1.1464 B( 16-S , 20-C ) :   1.1392
B( 17-C , 18-C ) :   1.6153 B( 17-C , 33-H ) :   0.9775 B( 18-C , 19-C ) :   1.2334
B( 18-C , 21-H ) :   0.9833 B( 19-C , 20-C ) :   1.6219 B( 19-C , 22-C ) :   1.0290
B( 22-C , 23-H ) :   0.9292 B( 22-C , 24-H ) :   0.9536 B( 22-C , 25-C ) :   1.0421
B( 25-C , 26-H ) :   0.9691 B( 25-C , 27-H ) :   0.9561 B( 25-C , 28-C ) :   1.0599
B( 28-C , 29-H ) :   0.9762 B( 28-C , 30-H ) :   0.9750 B( 28-C , 31-H ) :   0.9749

Dispersion correction           -0.014345302
FINAL SINGLE POINT ENERGY     -1339.862275774945

DIPOLE MOMENT
-------------
                                X             Y             Z
Electronic contribution:      5.51356     -10.56102     -24.31508
Nuclear contribution   :     -5.66422      10.78635      24.86677
                        -----------------------------------------
Total Dipole Moment    :     -0.15066       0.22534       0.55169
                        -----------------------------------------
Magnitude (a.u.)       :      0.61468
Magnitude (Debye)      :      1.56240

Rotational constants in cm-1:     0.015700     0.009421     0.007571
Rotational constants in MHz :   470.665594   282.435869   226.969201

                             ****ORCA TERMINATED NORMALLY****
TOTAL RUN TIME: 0 days 0 hours 0 minutes 30 seconds 539 msec
