                         Program Version 4.2.1 -  RELEASE  -
|  1> ! wB97X-D3 SP def2-SVP
|  2> %pal
|  3> nprocs 16
|  4> end
|  5>
|  6> * xyz 0 1
|  7> S 	 -12.4671 	 34.3145 	 35.1834
|  8> C 	 -12.845 	 35.8644 	 34.4795
|  9> C 	 -14.1833 	 35.9699 	 34.2129
| 10> C 	 -14.9343 	 34.9009 	 34.6931
| 11> C 	 -14.0797 	 33.8243 	 34.9821
| 12> H 	 -15.9637 	 34.8212 	 34.7553
| 13> C 	 -14.9046 	 37.2242 	 33.6228
| 14> H 	 -15.6058 	 37.596 	 34.3459
| 15> H 	 -15.5054 	 36.8269 	 32.7379
| 16> C 	 -13.962 	 38.3324 	 33.1977
| 17> H 	 -13.4614 	 38.698 	 34.0892
| 18> H 	 -13.2178 	 37.8684 	 32.448
| 19> C 	 -14.6569 	 39.5558 	 32.6802
| 20> H 	 -13.9718 	 40.0357 	 31.9798
| 21> H 	 -15.6238 	 39.3665 	 32.1617
| 22> H 	 -14.7838 	 40.2784 	 33.4293
| 23> S 	 -13.8073 	 31.9035 	 37.0194
| 24> C 	 -14.891 	 30.4786 	 36.9768
| 25> C 	 -15.7993 	 30.5643 	 35.9844
| 26> C 	 -15.7211 	 31.8278 	 35.2462
| 27> C 	 -14.5729 	 32.5464 	 35.5283
| 28> H 	 -16.5437 	 29.8077 	 35.8299
| 29> C 	 -16.6477 	 32.1417 	 34.0793
| 30> H 	 -16.4468 	 31.4646 	 33.2569
| 31> H 	 -16.2957 	 33.0282 	 33.6775
| 32> C 	 -18.1751 	 32.3562 	 34.4034
| 33> H 	 -18.7176 	 31.4486 	 34.6233
| 34> H 	 -18.5102 	 32.7487 	 33.4719
| 35> C 	 -18.3584 	 33.4253 	 35.5121
| 36> H 	 -19.4408 	 33.5314 	 35.6415
| 37> H 	 -18.0672 	 34.4191 	 35.2456
| 38> H 	 -17.8483 	 33.1775 	 36.4871
| 39> H 	 -12.1129 	 36.6353 	 34.388
| 40> H 	 -14.7913 	 29.6401 	 37.6201
| 41> *
| 42>
| 43>                          ****END OF INPUT****

CARTESIAN COORDINATES (ANGSTROEM)
---------------------------------
  S    -12.467100   34.314500   35.183400
  C    -12.845000   35.864400   34.479500
  C    -14.183300   35.969900   34.212900
  C    -14.934300   34.900900   34.693100
  C    -14.079700   33.824300   34.982100
  H    -15.963700   34.821200   34.755300
  C    -14.904600   37.224200   33.622800
  H    -15.605800   37.596000   34.345900
  H    -15.505400   36.826900   32.737900
  C    -13.962000   38.332400   33.197700
  H    -13.461400   38.698000   34.089200
  H    -13.217800   37.868400   32.448000
  C    -14.656900   39.555800   32.680200
  H    -13.971800   40.035700   31.979800
  H    -15.623800   39.366500   32.161700
  H    -14.783800   40.278400   33.429300
  S    -13.807300   31.903500   37.019400
  C    -14.891000   30.478600   36.976800
  C    -15.799300   30.564300   35.984400
  C    -15.721100   31.827800   35.246200
  C    -14.572900   32.546400   35.528300
  H    -16.543700   29.807700   35.829900
  C    -16.647700   32.141700   34.079300
  H    -16.446800   31.464600   33.256900
  H    -16.295700   33.028200   33.677500
  C    -18.175100   32.356200   34.403400
  H    -18.717600   31.448600   34.623300
  H    -18.510200   32.748700   33.471900
  C    -18.358400   33.425300   35.512100
  H    -19.440800   33.531400   35.641500
  H    -18.067200   34.419100   35.245600
  H    -17.848300   33.177500   36.487100
  H    -12.112900   36.635300   34.388000
  H    -14.791300   29.640100   37.620100

 Total Charge           Charge          ....    0
 Multiplicity           Mult            ....    1
 Number of Electrons    NEL             ....  134
 Basis Dimension        Dim             ....  322

ORBITAL ENERGIES
----------------

  NO   OCC          E(Eh)            E(eV)
   0   2.0000     -88.968033     -2420.9433
   1   2.0000     -88.959189     -2420.7026
   2   2.0000     -10.327636      -281.0293
   3   2.0000     -10.326729      -281.0046
   4   2.0000     -10.313848      -280.6541
   5   2.0000     -10.309025      -280.5228
   6   2.0000     -10.301657      -280.3223
   7   2.0000     -10.298342      -280.2321
   8   2.0000     -10.296886      -280.1925
   9   2.0000     -10.291612      -280.0490
  10   2.0000     -10.290164      -280.0096
  11   2.0000     -10.289324      -279.9867
  12   2.0000     -10.286632      -279.9135
  13   2.0000     -10.282646      -279.8050
  14   2.0000     -10.281642      -279.7777
  15   2.0000     -10.275045      -279.5982
  16   2.0000      -8.083767      -219.9705
  17   2.0000      -8.073005      -219.6776
  18   2.0000      -6.042121      -164.4145
  19   2.0000      -6.038207      -164.3080
  20   2.0000      -6.034573      -164.2091
  21   2.0000      -6.031774      -164.1329
  22   2.0000      -6.027834      -164.0257
  23   2.0000      -6.023356      -163.9038
  24   2.0000      -1.011266       -27.5180
  25   2.0000      -0.979422       -26.6514
  26   2.0000      -0.915395       -24.9092
  27   2.0000      -0.903772       -24.5929
  28   2.0000      -0.869912       -23.6715
  29   2.0000      -0.857928       -23.3454
  30   2.0000      -0.839456       -22.8428
  31   2.0000      -0.814439       -22.1620
  32   2.0000      -0.784139       -21.3375
  33   2.0000      -0.773668       -21.0526
  34   2.0000      -0.710215       -19.3259
  35   2.0000      -0.704040       -19.1579
  36   2.0000      -0.686435       -18.6788
  37   2.0000      -0.660066       -17.9613
  38   2.0000      -0.643509       -17.5108
  39   2.0000      -0.614092       -16.7103
  40   2.0000      -0.595281       -16.1984
  41   2.0000      -0.578103       -15.7310
  42   2.0000      -0.566990       -15.4286
  43   2.0000      -0.550092       -14.9688
  44   2.0000      -0.542418       -14.7600
  45   2.0000      -0.526375       -14.3234
  46   2.0000      -0.521726       -14.1969
  47   2.0000      -0.508917       -13.8483
  48   2.0000      -0.505973       -13.7682
  49   2.0000      -0.500041       -13.6068
  50   2.0000      -0.488708       -13.2984
  51   2.0000      -0.485826       -13.2200
  52   2.0000      -0.471698       -12.8356
  53   2.0000      -0.465625       -12.6703
  54   2.0000      -0.460353       -12.5268
  55   2.0000      -0.453215       -12.3326
  56   2.0000      -0.442952       -12.0533
  57   2.0000      -0.431971       -11.7545
  58   2.0000      -0.430015       -11.7013
  59   2.0000      -0.425994       -11.5919
  60   2.0000      -0.425418       -11.5762
  61   2.0000      -0.414774       -11.2866
  62   2.0000      -0.410605       -11.1731
  63   2.0000      -0.350707        -9.5432
  64   2.0000      -0.333487        -9.0746
  65   2.0000      -0.325269        -8.8510
  66   2.0000      -0.286730        -7.8023
  67   0.0000       0.025078         0.6824
  68   0.0000       0.081433         2.2159
  69   0.0000       0.104619         2.8468
  70   0.0000       0.121838         3.3154
  71   0.0000       0.132216         3.5978

MULLIKEN ATOMIC CHARGES
-----------------------
   0 S :    0.119895
   1 C :   -0.131175
   2 C :   -0.070068
   3 C :    0.058356
   4 C :   -0.137778
   5 H :   -0.048012
   6 C :    0.053593
   7 H :    0.031312
   8 H :    0.042195
   9 C :   -0.129521
  10 H :    0.032063
  11 H :    0.051358
  12 C :   -0.004276
  13 H :    0.026809
  14 H :    0.034332
  15 H :    0.020731
  16 S :    0.068243
  17 C :   -0.073167
  18 C :    0.001325
  19 C :   -0.092937
  20 C :   -0.109400
  21 H :    0.014051
  22 C :    0.074338
  23 H :    0.033461
  24 H :   -0.021923
  25 C :   -0.033640
  26 H :    0.036924
  27 H :    0.021752
  28 C :   -0.085344
  29 H :    0.030736
  30 H :    0.034443
  31 H :    0.065770
  32 H :    0.040226
  33 H :    0.045328
Sum of atomic charges:    0.0000000

LOEWDIN ATOMIC CHARGES
----------------------
   0 S :    0.436863
   1 C :   -0.202237
   2 C :   -0.060945
   3 C :   -0.048138
   4 C :   -0.203021
   5 H :    0.014797
   6 C :   -0.031312
   7 H :    0.027744
   8 H :    0.037266
   9 C :   -0.055053
  10 H :    0.026661
  11 H :    0.033576
  12 C :   -0.063774
  13 H :    0.031428
  14 H :    0.028145
  15 H :    0.019060
  16 S :    0.346763
  17 C :   -0.160573
  18 C :   -0.064334
  19 C :   -0.058724
  20 C :   -0.177260
  21 H :    0.030129
  22 C :   -0.032475
  23 H :    0.033163
  24 H :    0.015372
  25 C :   -0.027354
  26 H :    0.021190
  27 H :    0.024098
  28 C :   -0.070205
  29 H :    0.029126
  30 H :    0.017548
  31 H :    0.037790
  32 H :    0.021175
  33 H :    0.023512

  Mayer bond orders larger than 0.100000
B(  0-S ,  1-C ) :   1.1336 B(  0-S ,  4-C ) :   1.1867 B(  1-C ,  2-C ) :   1.5947
B(  1-C , 32-H ) :   0.9683 B(  2-C ,  3-C ) :   1.2832 B(  2-C ,  6-C ) :   0.9963
B(  3-C ,  4-C ) :   1.5039 B(  3-C ,  5-H ) :   0.9976 B(  4-C , 20-C ) :   1.0535
B(  6-C ,  7-H ) :   0.9407 B(  6-C ,  8-H ) :   0.9350 B(  6-C ,  9-C ) :   1.1009
B(  9-C , 10-H ) :   0.9473 B(  9-C , 11-H ) :   0.9546 B(  9-C , 12-C ) :   1.0790
B( 12-C , 13-H ) :   0.9688 B( 12-C , 14-H ) :   0.9744 B( 12-C , 15-H ) :   0.9746
B( 16-S , 17-C ) :   1.1153 B( 16-S , 20-C ) :   1.1067 B( 17-C , 18-C ) :   1.6699
B( 17-C , 33-H ) :   0.9701 B( 18-C , 19-C ) :   1.1780 B( 18-C , 21-H ) :   0.9930
B( 19-C , 20-C ) :   1.6462 B( 19-C , 22-C ) :   1.0501 B( 22-C , 23-H ) :   0.9358
B( 22-C , 24-H ) :   0.9270 B( 22-C , 25-C ) :   1.0593 B( 25-C , 26-H ) :   0.9628
B( 25-C , 27-H ) :   0.9548 B( 25-C , 28-C ) :   1.0772 B( 28-C , 29-H ) :   0.9690
B( 28-C , 30-H ) :   0.9672 B( 28-C , 31-H ) :   0.9725

Dispersion correction           -0.014567076
FINAL SINGLE POINT ENERGY     -1339.866890206669

DIPOLE MOMENT
-------------
                                X             Y             Z
Electronic contribution:     19.20711     -17.97162      12.98816
Nuclear contribution   :    -19.84038      18.33934     -13.27891
                        -----------------------------------------
Total Dipole Moment    :     -0.63327       0.36772      -0.29074
                        -----------------------------------------
Magnitude (a.u.)       :      0.78789
Magnitude (Debye)      :      2.00267

Rotational constants in cm-1:     0.021564     0.008213     0.006278
Rotational constants in MHz :   646.479297   246.224146   188.215653

                             ****ORCA TERMINATED NORMALLY****
TOTAL RUN TIME: 0 days 0 hours 0 minutes 35 seconds 630 msec
