                         Program Version 4.2.1 -  RELEASE  -
|  1> ! wB97X-D3 SP def2-SVP
|  2> %pal
|  3> nprocs 16
|  4> end
|  5>
|  6> * xyz 0 1
|  7> S 	 -1.52936 	 -14.0416 	 55.7723
|  8> C 	 -0.655483 	 -13.1581 	 54.5643
|  9> C 	 -1.53225 	 -12.6362 	 53.5895
| 10> C 	 -2.90768 	 -12.9976 	 53.8471
| 11> C 	 -3.07697 	 -13.7379 	 54.9741
| 12> H 	 -3.72603 	 -12.6419 	 53.2463
| 13> C 	 -1.00443 	 -11.8174 	 52.3916
| 14> H 	 -0.0594034 	 -11.3584 	 52.7055
| 15> H 	 -1.63686 	 -10.8834 	 52.3665
| 16> C 	 -0.768333 	 -12.53 	 51.0262
| 17> H 	 -0.0497999 	 -11.8597 	 50.4801
| 18> H 	 -0.329679 	 -13.4663 	 51.1926
| 19> C 	 -1.98898 	 -12.7066 	 50.1954
| 20> H 	 -2.69475 	 -13.4571 	 50.4837
| 21> H 	 -2.50091 	 -11.8347 	 50.1102
| 22> H 	 -1.73202 	 -12.9574 	 49.2051
| 23> S 	 -4.3941 	 -15.9588 	 55.9969
| 24> C 	 -6.17003 	 -15.8044 	 56.2209
| 25> C 	 -6.63578 	 -14.5432 	 56.0145
| 26> C 	 -5.62941 	 -13.68 	 55.5144
| 27> C 	 -4.34627 	 -14.3042 	 55.4352
| 28> H 	 -7.66392 	 -14.2446 	 56.2569
| 29> C 	 -5.91029 	 -12.2726 	 55.1957
| 30> H 	 -7.03032 	 -12.1937 	 55.4259
| 31> H 	 -5.81316 	 -12.1144 	 54.1309
| 32> C 	 -5.24723 	 -11.1628 	 56.0292
| 33> H 	 -4.28978 	 -10.9312 	 55.5817
| 34> H 	 -5.14295 	 -11.4545 	 57.0507
| 35> C 	 -6.08139 	 -9.89275 	 55.9362
| 36> H 	 -5.79124 	 -9.11525 	 56.5777
| 37> H 	 -7.1632 	 -10.1379 	 56.1715
| 38> H 	 -6.09438 	 -9.43967 	 54.9404
| 39> H 	 0.370854 	 -12.9706 	 54.6745
| 40> H 	 -6.80971 	 -16.5665 	 56.6343
| 41> *
| 42>
| 43>                          ****END OF INPUT****

CARTESIAN COORDINATES (ANGSTROEM)
---------------------------------
  S     -1.529360  -14.041600   55.772300
  C     -0.655483  -13.158100   54.564300
  C     -1.532250  -12.636200   53.589500
  C     -2.907680  -12.997600   53.847100
  C     -3.076970  -13.737900   54.974100
  H     -3.726030  -12.641900   53.246300
  C     -1.004430  -11.817400   52.391600
  H     -0.059403  -11.358400   52.705500
  H     -1.636860  -10.883400   52.366500
  C     -0.768333  -12.530000   51.026200
  H     -0.049800  -11.859700   50.480100
  H     -0.329679  -13.466300   51.192600
  C     -1.988980  -12.706600   50.195400
  H     -2.694750  -13.457100   50.483700
  H     -2.500910  -11.834700   50.110200
  H     -1.732020  -12.957400   49.205100
  S     -4.394100  -15.958800   55.996900
  C     -6.170030  -15.804400   56.220900
  C     -6.635780  -14.543200   56.014500
  C     -5.629410  -13.680000   55.514400
  C     -4.346270  -14.304200   55.435200
  H     -7.663920  -14.244600   56.256900
  C     -5.910290  -12.272600   55.195700
  H     -7.030320  -12.193700   55.425900
  H     -5.813160  -12.114400   54.130900
  C     -5.247230  -11.162800   56.029200
  H     -4.289780  -10.931200   55.581700
  H     -5.142950  -11.454500   57.050700
  C     -6.081390   -9.892750   55.936200
  H     -5.791240   -9.115250   56.577700
  H     -7.163200  -10.137900   56.171500
  H     -6.094380   -9.439670   54.940400
  H      0.370854  -12.970600   54.674500
  H     -6.809710  -16.566500   56.634300

 Total Charge           Charge          ....    0
 Multiplicity           Mult            ....    1
 Number of Electrons    NEL             ....  134
 Basis Dimension        Dim             ....  322

ORBITAL ENERGIES
----------------

  NO   OCC          E(Eh)            E(eV)
   0   2.0000     -88.969333     -2420.9786
   1   2.0000     -88.965739     -2420.8808
   2   2.0000     -10.329178      -281.0712
   3   2.0000     -10.328567      -281.0546
   4   2.0000     -10.316286      -280.7204
   5   2.0000     -10.312732      -280.6237
   6   2.0000     -10.306433      -280.4523
   7   2.0000     -10.300475      -280.2902
   8   2.0000     -10.297683      -280.2142
   9   2.0000     -10.293833      -280.1094
  10   2.0000     -10.293086      -280.0891
  11   2.0000     -10.290481      -280.0182
  12   2.0000     -10.286268      -279.9036
  13   2.0000     -10.280473      -279.7459
  14   2.0000     -10.274929      -279.5950
  15   2.0000     -10.259050      -279.1629
  16   2.0000      -8.083129      -219.9531
  17   2.0000      -8.080525      -219.8823
  18   2.0000      -6.041672      -164.4022
  19   2.0000      -6.039027      -164.3303
  20   2.0000      -6.037866      -164.2987
  21   2.0000      -6.034974      -164.2200
  22   2.0000      -6.033820      -164.1886
  23   2.0000      -6.031363      -164.1217
  24   2.0000      -1.003186       -27.2981
  25   2.0000      -0.980422       -26.6786
  26   2.0000      -0.911309       -24.7980
  27   2.0000      -0.908670       -24.7262
  28   2.0000      -0.871771       -23.7221
  29   2.0000      -0.854351       -23.2481
  30   2.0000      -0.848434       -23.0871
  31   2.0000      -0.819422       -22.2976
  32   2.0000      -0.782542       -21.2941
  33   2.0000      -0.764304       -20.7978
  34   2.0000      -0.710442       -19.3321
  35   2.0000      -0.704226       -19.1630
  36   2.0000      -0.689894       -18.7730
  37   2.0000      -0.661913       -18.0116
  38   2.0000      -0.644263       -17.5313
  39   2.0000      -0.619947       -16.8696
  40   2.0000      -0.595658       -16.2087
  41   2.0000      -0.571268       -15.5450
  42   2.0000      -0.567953       -15.4548
  43   2.0000      -0.544495       -14.8165
  44   2.0000      -0.541399       -14.7322
  45   2.0000      -0.526201       -14.3187
  46   2.0000      -0.517367       -14.0783
  47   2.0000      -0.513963       -13.9856
  48   2.0000      -0.505554       -13.7568
  49   2.0000      -0.496247       -13.5036
  50   2.0000      -0.491595       -13.3770
  51   2.0000      -0.479112       -13.0373
  52   2.0000      -0.472534       -12.8583
  53   2.0000      -0.463158       -12.6032
  54   2.0000      -0.454046       -12.3552
  55   2.0000      -0.451575       -12.2880
  56   2.0000      -0.441469       -12.0130
  57   2.0000      -0.438929       -11.9439
  58   2.0000      -0.435698       -11.8559
  59   2.0000      -0.429242       -11.6803
  60   2.0000      -0.424202       -11.5431
  61   2.0000      -0.414217       -11.2714
  62   2.0000      -0.410133       -11.1603
  63   2.0000      -0.354952        -9.6587
  64   2.0000      -0.335268        -9.1231
  65   2.0000      -0.326628        -8.8880
  66   2.0000      -0.283897        -7.7252
  67   0.0000       0.025594         0.6965
  68   0.0000       0.071053         1.9335
  69   0.0000       0.105166         2.8617
  70   0.0000       0.118571         3.2265
  71   0.0000       0.135318         3.6822

MULLIKEN ATOMIC CHARGES
-----------------------
   0 S :    0.105237
   1 C :   -0.108814
   2 C :   -0.100741
   3 C :    0.031254
   4 C :   -0.132964
   5 H :    0.003312
   6 C :    0.026703
   7 H :    0.012780
   8 H :    0.030362
   9 C :   -0.029685
  10 H :    0.034383
  11 H :    0.021865
  12 C :    0.016678
  13 H :    0.029480
  14 H :   -0.007310
  15 H :    0.011360
  16 S :    0.110123
  17 C :   -0.086943
  18 C :   -0.029819
  19 C :   -0.040321
  20 C :   -0.142707
  21 H :    0.029467
  22 C :    0.006816
  23 H :    0.012146
  24 H :    0.036661
  25 C :   -0.006082
  26 H :    0.034328
  27 H :    0.029807
  28 C :   -0.058981
  29 H :    0.024726
  30 H :    0.025060
  31 H :    0.025329
  32 H :    0.037288
  33 H :    0.049201
Sum of atomic charges:   -0.0000000

LOEWDIN ATOMIC CHARGES
----------------------
   0 S :    0.400786
   1 C :   -0.194391
   2 C :   -0.060645
   3 C :   -0.063627
   4 C :   -0.187288
   5 H :    0.029997
   6 C :   -0.040444
   7 H :    0.029361
   8 H :    0.033634
   9 C :   -0.029235
  10 H :    0.033205
  11 H :    0.020376
  12 C :   -0.057662
  13 H :    0.026050
  14 H :    0.010673
  15 H :    0.024005
  16 S :    0.394216
  17 C :   -0.171993
  18 C :   -0.069553
  19 C :   -0.060521
  20 C :   -0.197855
  21 H :    0.038803
  22 C :   -0.039557
  23 H :    0.034750
  24 H :    0.028994
  25 C :   -0.030649
  26 H :    0.026470
  27 H :    0.024842
  28 C :   -0.065211
  29 H :    0.017422
  30 H :    0.025949
  31 H :    0.024665
  32 H :    0.017605
  33 H :    0.026827

  Mayer bond orders larger than 0.100000
B(  0-S ,  1-C ) :   1.1447 B(  0-S ,  4-C ) :   1.1451 B(  1-C ,  2-C ) :   1.5911
B(  1-C , 32-H ) :   0.9774 B(  2-C ,  3-C ) :   1.2451 B(  2-C ,  6-C ) :   1.0238
B(  3-C ,  4-C ) :   1.5683 B(  3-C ,  5-H ) :   0.9977 B(  4-C , 20-C ) :   1.0582
B(  6-C ,  7-H ) :   0.9406 B(  6-C ,  8-H ) :   0.9428 B(  6-C ,  9-C ) :   1.0584
B(  9-C , 10-H ) :   0.9535 B(  9-C , 11-H ) :   0.9534 B(  9-C , 12-C ) :   1.0955
B( 12-C , 13-H ) :   0.9712 B( 12-C , 14-H ) :   0.9688 B( 12-C , 15-H ) :   0.9648
B( 16-S , 17-C ) :   1.1406 B( 16-S , 20-C ) :   1.1422 B( 17-C , 18-C ) :   1.6199
B( 17-C , 33-H ) :   0.9624 B( 18-C , 19-C ) :   1.2713 B( 18-C , 21-H ) :   0.9790
B( 19-C , 20-C ) :   1.5520 B( 19-C , 22-C ) :   1.0513 B( 22-C , 23-H ) :   0.9370
B( 22-C , 24-H ) :   0.9204 B( 22-C , 25-C ) :   1.0606 B( 25-C , 26-H ) :   0.9446
B( 25-C , 27-H ) :   0.9576 B( 25-C , 28-C ) :   1.0913 B( 28-C , 29-H ) :   0.9743
B( 28-C , 30-H ) :   0.9737 B( 28-C , 31-H ) :   0.9737

Dispersion correction           -0.014415096
FINAL SINGLE POINT ENERGY     -1339.878101353048

DIPOLE MOMENT
-------------
                                X             Y             Z
Electronic contribution:      4.28715     -21.82924      16.04223
Nuclear contribution   :     -4.45483      22.37599     -16.36117
                        -----------------------------------------
Total Dipole Moment    :     -0.16769       0.54674      -0.31895
                        -----------------------------------------
Magnitude (a.u.)       :      0.65481
Magnitude (Debye)      :      1.66439

Rotational constants in cm-1:     0.016976     0.008895     0.007400
Rotational constants in MHz :   508.917497   266.675371   221.831580

                             ****ORCA TERMINATED NORMALLY****
TOTAL RUN TIME: 0 days 0 hours 0 minutes 32 seconds 56 msec
