                         Program Version 4.2.1 -  RELEASE  -
|  1> ! wB97X-D3 SP def2-SVP
|  2> %pal
|  3> nprocs 16
|  4> end
|  5>
|  6> * xyz 0 1
|  7> S 	 -37.9841 	 38.2187 	 94.3582
|  8> C 	 -37.2333 	 36.6627 	 94.5989
|  9> C 	 -36.1466 	 36.7433 	 95.3832
| 10> C 	 -35.9524 	 38.0996 	 95.9137
| 11> C 	 -36.8082 	 39.0742 	 95.3937
| 12> H 	 -35.0782 	 38.4012 	 96.4418
| 13> C 	 -35.3189 	 35.5642 	 95.7804
| 14> H 	 -34.8934 	 35.0089 	 94.8818
| 15> H 	 -35.9401 	 34.8051 	 96.2813
| 16> C 	 -34.2015 	 35.7559 	 96.8219
| 17> H 	 -33.4204 	 36.4106 	 96.428
| 18> H 	 -34.6379 	 36.302 	 97.6208
| 19> C 	 -33.7605 	 34.4175 	 97.4012
| 20> H 	 -33.4157 	 33.7555 	 96.5847
| 21> H 	 -32.916 	 34.6605 	 98.0333
| 22> H 	 -34.5389 	 33.9228 	 97.9718
| 23> S 	 -37.1544 	 41.4778 	 94.1982
| 24> C 	 -36.839 	 42.9523 	 95.0436
| 25> C 	 -36.5219 	 42.731 	 96.3624
| 26> C 	 -36.4617 	 41.3313 	 96.6766
| 27> C 	 -36.7926 	 40.5525 	 95.6035
| 28> H 	 -36.4835 	 43.5854 	 97.0409
| 29> C 	 -36.1801 	 40.7831 	 98.0156
| 30> H 	 -35.936 	 41.5846 	 98.709
| 31> H 	 -35.2868 	 40.3027 	 97.7089
| 32> C 	 -37.2286 	 39.8724 	 98.6745
| 33> H 	 -37.7464 	 39.2305 	 98.0152
| 34> H 	 -38.0225 	 40.5433 	 99.1359
| 35> C 	 -36.7593 	 39.1192 	 99.9015
| 36> H 	 -36.3003 	 38.1633 	 99.6705
| 37> H 	 -37.5411 	 38.9239 	 100.678
| 38> H 	 -36.0328 	 39.6986 	 100.537
| 39> H 	 -37.6248 	 35.8281 	 94.0808
| 40> H 	 -37.1307 	 43.9477 	 94.6955
| 41> *
| 42>
| 43>                          ****END OF INPUT****

CARTESIAN COORDINATES (ANGSTROEM)
---------------------------------
  S    -37.984100   38.218700   94.358200
  C    -37.233300   36.662700   94.598900
  C    -36.146600   36.743300   95.383200
  C    -35.952400   38.099600   95.913700
  C    -36.808200   39.074200   95.393700
  H    -35.078200   38.401200   96.441800
  C    -35.318900   35.564200   95.780400
  H    -34.893400   35.008900   94.881800
  H    -35.940100   34.805100   96.281300
  C    -34.201500   35.755900   96.821900
  H    -33.420400   36.410600   96.428000
  H    -34.637900   36.302000   97.620800
  C    -33.760500   34.417500   97.401200
  H    -33.415700   33.755500   96.584700
  H    -32.916000   34.660500   98.033300
  H    -34.538900   33.922800   97.971800
  S    -37.154400   41.477800   94.198200
  C    -36.839000   42.952300   95.043600
  C    -36.521900   42.731000   96.362400
  C    -36.461700   41.331300   96.676600
  C    -36.792600   40.552500   95.603500
  H    -36.483500   43.585400   97.040900
  C    -36.180100   40.783100   98.015600
  H    -35.936000   41.584600   98.709000
  H    -35.286800   40.302700   97.708900
  C    -37.228600   39.872400   98.674500
  H    -37.746400   39.230500   98.015200
  H    -38.022500   40.543300   99.135900
  C    -36.759300   39.119200   99.901500
  H    -36.300300   38.163300   99.670500
  H    -37.541100   38.923900  100.678000
  H    -36.032800   39.698600  100.537000
  H    -37.624800   35.828100   94.080800
  H    -37.130700   43.947700   94.695500

 Total Charge           Charge          ....    0
 Multiplicity           Mult            ....    1
 Number of Electrons    NEL             ....  134
 Basis Dimension        Dim             ....  322

ORBITAL ENERGIES
----------------

  NO   OCC          E(Eh)            E(eV)
   0   2.0000     -88.964925     -2420.8587
   1   2.0000     -88.962774     -2420.8002
   2   2.0000     -10.338509      -281.3251
   3   2.0000     -10.324330      -280.9393
   4   2.0000     -10.314767      -280.6791
   5   2.0000     -10.308400      -280.5058
   6   2.0000     -10.301667      -280.3226
   7   2.0000     -10.301423      -280.3160
   8   2.0000     -10.296926      -280.1936
   9   2.0000     -10.295088      -280.1436
  10   2.0000     -10.294516      -280.1280
  11   2.0000     -10.286807      -279.9182
  12   2.0000     -10.285203      -279.8746
  13   2.0000     -10.283825      -279.8371
  14   2.0000     -10.281417      -279.7716
  15   2.0000     -10.280191      -279.7382
  16   2.0000      -8.080622      -219.8849
  17   2.0000      -8.077282      -219.7940
  18   2.0000      -6.039096      -164.3322
  19   2.0000      -6.035939      -164.2462
  20   2.0000      -6.034988      -164.2204
  21   2.0000      -6.031731      -164.1317
  22   2.0000      -6.031366      -164.1218
  23   2.0000      -6.027998      -164.0302
  24   2.0000      -1.010544       -27.4983
  25   2.0000      -0.986434       -26.8422
  26   2.0000      -0.914521       -24.8854
  27   2.0000      -0.914168       -24.8758
  28   2.0000      -0.872816       -23.7505
  29   2.0000      -0.856152       -23.2971
  30   2.0000      -0.843652       -22.9569
  31   2.0000      -0.820444       -22.3254
  32   2.0000      -0.780592       -21.2410
  33   2.0000      -0.771587       -20.9959
  34   2.0000      -0.713251       -19.4086
  35   2.0000      -0.700845       -19.0710
  36   2.0000      -0.687140       -18.6980
  37   2.0000      -0.666271       -18.1302
  38   2.0000      -0.644534       -17.5387
  39   2.0000      -0.621084       -16.9006
  40   2.0000      -0.592642       -16.1266
  41   2.0000      -0.574379       -15.6296
  42   2.0000      -0.571561       -15.5530
  43   2.0000      -0.565665       -15.3925
  44   2.0000      -0.528979       -14.3943
  45   2.0000      -0.525060       -14.2876
  46   2.0000      -0.512151       -13.9363
  47   2.0000      -0.510607       -13.8943
  48   2.0000      -0.504409       -13.7257
  49   2.0000      -0.503027       -13.6881
  50   2.0000      -0.498932       -13.5766
  51   2.0000      -0.483240       -13.1496
  52   2.0000      -0.475826       -12.9479
  53   2.0000      -0.469379       -12.7725
  54   2.0000      -0.458603       -12.4792
  55   2.0000      -0.449078       -12.2200
  56   2.0000      -0.448505       -12.2044
  57   2.0000      -0.430153       -11.7051
  58   2.0000      -0.428978       -11.6731
  59   2.0000      -0.426849       -11.6152
  60   2.0000      -0.423183       -11.5154
  61   2.0000      -0.412418       -11.2225
  62   2.0000      -0.409781       -11.1507
  63   2.0000      -0.355036        -9.6610
  64   2.0000      -0.330614        -8.9965
  65   2.0000      -0.326207        -8.8765
  66   2.0000      -0.291390        -7.9291
  67   0.0000       0.027477         0.7477
  68   0.0000       0.077509         2.1091
  69   0.0000       0.113713         3.0943
  70   0.0000       0.119535         3.2527
  71   0.0000       0.135529         3.6879

MULLIKEN ATOMIC CHARGES
-----------------------
   0 S :    0.086473
   1 C :   -0.117671
   2 C :   -0.035059
   3 C :   -0.001043
   4 C :   -0.118753
   5 H :    0.011008
   6 C :   -0.003062
   7 H :    0.043740
   8 H :    0.031025
   9 C :   -0.092682
  10 H :    0.036802
  11 H :    0.021635
  12 C :   -0.031247
  13 H :    0.034152
  14 H :    0.034644
  15 H :    0.040391
  16 S :    0.112780
  17 C :   -0.089698
  18 C :   -0.047588
  19 C :   -0.057286
  20 C :   -0.156728
  21 H :    0.023238
  22 C :    0.095792
  23 H :    0.014107
  24 H :    0.025948
  25 C :   -0.042187
  26 H :    0.040349
  27 H :    0.031825
  28 C :   -0.081949
  29 H :    0.033244
  30 H :    0.034848
  31 H :    0.024657
  32 H :    0.037726
  33 H :    0.060571
Sum of atomic charges:   -0.0000000

LOEWDIN ATOMIC CHARGES
----------------------
   0 S :    0.383095
   1 C :   -0.181702
   2 C :   -0.066303
   3 C :   -0.069972
   4 C :   -0.177599
   5 H :    0.022542
   6 C :   -0.043578
   7 H :    0.037676
   8 H :    0.034188
   9 C :   -0.044353
  10 H :    0.022787
  11 H :    0.018607
  12 C :   -0.058991
  13 H :    0.027414
  14 H :    0.028970
  15 H :    0.026562
  16 S :    0.428369
  17 C :   -0.194315
  18 C :   -0.072564
  19 C :   -0.055134
  20 C :   -0.209053
  21 H :    0.035188
  22 C :   -0.032646
  23 H :    0.032016
  24 H :    0.032061
  25 C :   -0.038092
  26 H :    0.021392
  27 H :    0.035384
  28 C :   -0.074275
  29 H :    0.019250
  30 H :    0.030643
  31 H :    0.027093
  32 H :    0.022706
  33 H :    0.032636

  Mayer bond orders larger than 0.100000
B(  0-S ,  1-C ) :   1.1293 B(  0-S ,  4-C ) :   1.1414 B(  1-C ,  2-C ) :   1.6301
B(  1-C , 32-H ) :   0.9810 B(  2-C ,  3-C ) :   1.2348 B(  2-C ,  6-C ) :   1.0157
B(  3-C ,  4-C ) :   1.5805 B(  3-C ,  5-H ) :   0.9873 B(  4-C , 20-C ) :   1.0246
B(  6-C ,  7-H ) :   0.9334 B(  6-C ,  8-H ) :   0.9469 B(  6-C ,  9-C ) :   1.0845
B(  9-C , 10-H ) :   0.9512 B(  9-C , 11-H ) :   0.9441 B(  9-C , 12-C ) :   1.0875
B( 12-C , 13-H ) :   0.9749 B( 12-C , 14-H ) :   0.9706 B( 12-C , 15-H ) :   0.9721
B( 16-S , 17-C ) :   1.1646 B( 16-S , 20-C ) :   1.1454 B( 17-C , 18-C ) :   1.6131
B( 17-C , 33-H ) :   0.9610 B( 18-C , 19-C ) :   1.2441 B( 18-C , 21-H ) :   0.9896
B( 19-C , 20-C ) :   1.6014 B( 19-C , 22-C ) :   1.0130 B( 22-C , 23-H ) :   0.9247
B( 22-C , 24-H ) :   0.9293 B( 22-C , 25-C ) :   1.0631 B( 25-C , 26-H ) :   0.9603
B( 25-C , 27-H ) :   0.9544 B( 25-C , 28-C ) :   1.0772 B( 28-C , 29-H ) :   0.9760
B( 28-C , 30-H ) :   0.9758 B( 28-C , 31-H ) :   0.9717

Dispersion correction           -0.014453167
FINAL SINGLE POINT ENERGY     -1339.878434130479

DIPOLE MOMENT
-------------
                                X             Y             Z
Electronic contribution:    -12.74888      16.37880     -23.92863
Nuclear contribution   :     13.03217     -16.54724      24.48791
                        -----------------------------------------
Total Dipole Moment    :      0.28330      -0.16844       0.55927
                        -----------------------------------------
Magnitude (a.u.)       :      0.64917
Magnitude (Debye)      :      1.65005

Rotational constants in cm-1:     0.018874     0.009041     0.007001
Rotational constants in MHz :   565.825947   271.053500   209.882948

                             ****ORCA TERMINATED NORMALLY****
TOTAL RUN TIME: 0 days 0 hours 0 minutes 30 seconds 953 msec
