                         Program Version 4.2.1 -  RELEASE  -
|  1> ! wB97X-D3 SP def2-SVP
|  2> %pal
|  3> nprocs 16
|  4> end
|  5>
|  6> * xyz 0 1
|  7> S 	 -9.31463 	 64.3841 	 53.1509
|  8> C 	 -8.88811 	 62.7356 	 53.0546
|  9> C 	 -9.7811 	 61.8669 	 53.6546
| 10> C 	 -10.8547 	 62.6305 	 54.2456
| 11> C 	 -10.7049 	 63.9948 	 54.1593
| 12> H 	 -11.7721 	 62.2191 	 54.6906
| 13> C 	 -9.71518 	 60.3825 	 53.7883
| 14> H 	 -10.5003 	 59.873 	 54.3627
| 15> H 	 -8.8063 	 60.1813 	 54.2856
| 16> C 	 -9.63988 	 59.5954 	 52.4509
| 17> H 	 -10.5477 	 59.7004 	 51.9437
| 18> H 	 -8.88029 	 60.0862 	 51.8741
| 19> C 	 -9.22777 	 58.1077 	 52.5534
| 20> H 	 -10.0692 	 57.5176 	 53.0151
| 21> H 	 -9.06589 	 57.6952 	 51.569
| 22> H 	 -8.23334 	 58.0343 	 53.028
| 23> S 	 -12.461 	 66.0712 	 53.4571
| 24> C 	 -13.4797 	 66.6698 	 54.7255
| 25> C 	 -13.2696 	 66.1617 	 55.9683
| 26> C 	 -12.1155 	 65.2445 	 55.9707
| 27> C 	 -11.6478 	 65.0305 	 54.6474
| 28> H 	 -14.0121 	 66.4497 	 56.7685
| 29> C 	 -11.6032 	 64.5236 	 57.2089
| 30> H 	 -11.1179 	 63.6542 	 56.8783
| 31> H 	 -12.4763 	 64.3225 	 57.8445
| 32> C 	 -10.6386 	 65.3795 	 58.0244
| 33> H 	 -10.492 	 64.831 	 58.8969
| 34> H 	 -11.1725 	 66.2896 	 58.1853
| 35> C 	 -9.23264 	 65.5394 	 57.4187
| 36> H 	 -9.02595 	 64.7191 	 56.6659
| 37> H 	 -8.53888 	 65.5778 	 58.2606
| 38> H 	 -9.20655 	 66.4827 	 56.9454
| 39> H 	 -7.98462 	 62.3426 	 52.5754
| 40> H 	 -14.3501 	 67.2224 	 54.5297
| 41> *
| 42>
| 43>                          ****END OF INPUT****

CARTESIAN COORDINATES (ANGSTROEM)
---------------------------------
  S     -9.314630   64.384100   53.150900
  C     -8.888110   62.735600   53.054600
  C     -9.781100   61.866900   53.654600
  C    -10.854700   62.630500   54.245600
  C    -10.704900   63.994800   54.159300
  H    -11.772100   62.219100   54.690600
  C     -9.715180   60.382500   53.788300
  H    -10.500300   59.873000   54.362700
  H     -8.806300   60.181300   54.285600
  C     -9.639880   59.595400   52.450900
  H    -10.547700   59.700400   51.943700
  H     -8.880290   60.086200   51.874100
  C     -9.227770   58.107700   52.553400
  H    -10.069200   57.517600   53.015100
  H     -9.065890   57.695200   51.569000
  H     -8.233340   58.034300   53.028000
  S    -12.461000   66.071200   53.457100
  C    -13.479700   66.669800   54.725500
  C    -13.269600   66.161700   55.968300
  C    -12.115500   65.244500   55.970700
  C    -11.647800   65.030500   54.647400
  H    -14.012100   66.449700   56.768500
  C    -11.603200   64.523600   57.208900
  H    -11.117900   63.654200   56.878300
  H    -12.476300   64.322500   57.844500
  C    -10.638600   65.379500   58.024400
  H    -10.492000   64.831000   58.896900
  H    -11.172500   66.289600   58.185300
  C     -9.232640   65.539400   57.418700
  H     -9.025950   64.719100   56.665900
  H     -8.538880   65.577800   58.260600
  H     -9.206550   66.482700   56.945400
  H     -7.984620   62.342600   52.575400
  H    -14.350100   67.222400   54.529700

 Total Charge           Charge          ....    0
 Multiplicity           Mult            ....    1
 Number of Electrons    NEL             ....  134
 Basis Dimension        Dim             ....  322

ORBITAL ENERGIES
----------------

  NO   OCC          E(Eh)            E(eV)
   0   2.0000     -88.968006     -2420.9425
   1   2.0000     -88.965462     -2420.8733
   2   2.0000     -10.330344      -281.1030
   3   2.0000     -10.328419      -281.0506
   4   2.0000     -10.312806      -280.6257
   5   2.0000     -10.310729      -280.5692
   6   2.0000     -10.309234      -280.5285
   7   2.0000     -10.301705      -280.3237
   8   2.0000     -10.299711      -280.2694
   9   2.0000     -10.294506      -280.1277
  10   2.0000     -10.288994      -279.9778
  11   2.0000     -10.284926      -279.8671
  12   2.0000     -10.283032      -279.8155
  13   2.0000     -10.279998      -279.7330
  14   2.0000     -10.271045      -279.4893
  15   2.0000     -10.269716      -279.4532
  16   2.0000      -8.083172      -219.9543
  17   2.0000      -8.080208      -219.8736
  18   2.0000      -6.041587      -164.3999
  19   2.0000      -6.038625      -164.3193
  20   2.0000      -6.037650      -164.2928
  21   2.0000      -6.034905      -164.2181
  22   2.0000      -6.033974      -164.1928
  23   2.0000      -6.030879      -164.1086
  24   2.0000      -1.004102       -27.3230
  25   2.0000      -0.982234       -26.7280
  26   2.0000      -0.912318       -24.8254
  27   2.0000      -0.910625       -24.7794
  28   2.0000      -0.865817       -23.5601
  29   2.0000      -0.851732       -23.1768
  30   2.0000      -0.843161       -22.9436
  31   2.0000      -0.813888       -22.1470
  32   2.0000      -0.783854       -21.3297
  33   2.0000      -0.770757       -20.9734
  34   2.0000      -0.703718       -19.1491
  35   2.0000      -0.699671       -19.0390
  36   2.0000      -0.689464       -18.7613
  37   2.0000      -0.650875       -17.7112
  38   2.0000      -0.639934       -17.4135
  39   2.0000      -0.617783       -16.8107
  40   2.0000      -0.596683       -16.2366
  41   2.0000      -0.579265       -15.7626
  42   2.0000      -0.561269       -15.2729
  43   2.0000      -0.550958       -14.9923
  44   2.0000      -0.547980       -14.9113
  45   2.0000      -0.517073       -14.0703
  46   2.0000      -0.511993       -13.9320
  47   2.0000      -0.508897       -13.8478
  48   2.0000      -0.503198       -13.6927
  49   2.0000      -0.492356       -13.3977
  50   2.0000      -0.491090       -13.3632
  51   2.0000      -0.477970       -13.0062
  52   2.0000      -0.475880       -12.9494
  53   2.0000      -0.461052       -12.5459
  54   2.0000      -0.458518       -12.4769
  55   2.0000      -0.448239       -12.1972
  56   2.0000      -0.444697       -12.1008
  57   2.0000      -0.433460       -11.7950
  58   2.0000      -0.431670       -11.7463
  59   2.0000      -0.428930       -11.6718
  60   2.0000      -0.427611       -11.6359
  61   2.0000      -0.417159       -11.3515
  62   2.0000      -0.410703       -11.1758
  63   2.0000      -0.345666        -9.4061
  64   2.0000      -0.329435        -8.9644
  65   2.0000      -0.327211        -8.9039
  66   2.0000      -0.293099        -7.9756
  67   0.0000       0.037716         1.0263
  68   0.0000       0.064074         1.7435
  69   0.0000       0.111781         3.0417
  70   0.0000       0.120319         3.2740
  71   0.0000       0.130380         3.5478

MULLIKEN ATOMIC CHARGES
-----------------------
   0 S :    0.126518
   1 C :   -0.122844
   2 C :   -0.078516
   3 C :    0.033892
   4 C :   -0.196332
   5 H :    0.024418
   6 C :    0.092636
   7 H :    0.023858
   8 H :    0.015512
   9 C :   -0.084732
  10 H :    0.021670
  11 H :    0.012684
  12 C :   -0.056819
  13 H :    0.045864
  14 H :    0.031796
  15 H :    0.035178
  16 S :    0.110073
  17 C :   -0.069411
  18 C :   -0.061930
  19 C :   -0.060697
  20 C :   -0.154296
  21 H :    0.046014
  22 C :    0.090277
  23 H :    0.004947
  24 H :    0.024064
  25 C :   -0.042519
  26 H :    0.013381
  27 H :    0.019975
  28 C :   -0.041931
  29 H :    0.050575
  30 H :    0.032041
  31 H :    0.028755
  32 H :    0.048721
  33 H :    0.037178
Sum of atomic charges:   -0.0000000

LOEWDIN ATOMIC CHARGES
----------------------
   0 S :    0.420868
   1 C :   -0.211843
   2 C :   -0.063511
   3 C :   -0.059828
   4 C :   -0.201024
   5 H :    0.036148
   6 C :   -0.031256
   7 H :    0.031777
   8 H :    0.028018
   9 C :   -0.033433
  10 H :    0.015809
  11 H :    0.016510
  12 C :   -0.068536
  13 H :    0.031357
  14 H :    0.025825
  15 H :    0.028143
  16 S :    0.394093
  17 C :   -0.182036
  18 C :   -0.081531
  19 C :   -0.042691
  20 C :   -0.198865
  21 H :    0.045948
  22 C :   -0.024956
  23 H :    0.018574
  24 H :    0.033215
  25 C :   -0.031208
  26 H :    0.014742
  27 H :    0.019962
  28 C :   -0.062142
  29 H :    0.035399
  30 H :    0.027049
  31 H :    0.021604
  32 H :    0.029657
  33 H :    0.018164

  Mayer bond orders larger than 0.100000
B(  0-S ,  1-C ) :   1.1510 B(  0-S ,  4-C ) :   1.1472 B(  1-C ,  2-C ) :   1.6112
B(  1-C , 32-H ) :   0.9595 B(  2-C ,  3-C ) :   1.2410 B(  2-C ,  6-C ) :   1.0221
B(  3-C ,  4-C ) :   1.5909 B(  3-C ,  5-H ) :   0.9888 B(  4-C , 20-C ) :   1.0176
B(  6-C ,  7-H ) :   0.9494 B(  6-C ,  8-H ) :   0.9291 B(  6-C ,  9-C ) :   1.0564
B(  9-C , 10-H ) :   0.9590 B(  9-C , 11-H ) :   0.9581 B(  9-C , 12-C ) :   1.0888
B( 12-C , 13-H ) :   0.9749 B( 12-C , 14-H ) :   0.9733 B( 12-C , 15-H ) :   0.9728
B( 16-S , 17-C ) :   1.1447 B( 16-S , 20-C ) :   1.1305 B( 17-C , 18-C ) :   1.6753
B( 17-C , 33-H ) :   0.9637 B( 18-C , 19-C ) :   1.1900 B( 18-C , 21-H ) :   0.9774
B( 19-C , 20-C ) :   1.6196 B( 19-C , 22-C ) :   1.0431 B( 22-C , 23-H ) :   0.9274
B( 22-C , 24-H ) :   0.9330 B( 22-C , 25-C ) :   1.0924 B( 25-C , 26-H ) :   0.9582
B( 25-C , 27-H ) :   0.9568 B( 25-C , 28-C ) :   1.0610 B( 28-C , 29-H ) :   0.9760
B( 28-C , 30-H ) :   0.9786 B( 28-C , 31-H ) :   0.9764

Dispersion correction           -0.014510099
FINAL SINGLE POINT ENERGY     -1339.875174865890

DIPOLE MOMENT
-------------
                                X             Y             Z
Electronic contribution:     -7.31045      19.86208     -10.81184
Nuclear contribution   :      7.15183     -20.38049      11.14419
                        -----------------------------------------
Total Dipole Moment    :     -0.15862      -0.51840       0.33235
                        -----------------------------------------
Magnitude (a.u.)       :      0.63589
Magnitude (Debye)      :      1.61630

Rotational constants in cm-1:     0.021774     0.007384     0.006692
Rotational constants in MHz :   652.758228   221.353599   200.614200

                             ****ORCA TERMINATED NORMALLY****
TOTAL RUN TIME: 0 days 0 hours 0 minutes 33 seconds 882 msec
