                         Program Version 4.2.1 -  RELEASE  -
|  1> ! wB97X-D3 SP def2-SVP
|  2> %pal
|  3> nprocs 16
|  4> end
|  5>
|  6> * xyz 0 1
|  7> S 	 1.85507 	 77.6667 	 45.7388
|  8> C 	 2.0979 	 79.051 	 46.7679
|  9> C 	 2.04133 	 78.6751 	 48.1042
| 10> C 	 1.6764 	 77.2374 	 48.2292
| 11> C 	 1.7711 	 76.5511 	 47.0864
| 12> H 	 1.51587 	 76.5945 	 49.0848
| 13> C 	 2.08181 	 79.6784 	 49.2295
| 14> H 	 1.1874 	 80.1856 	 49.2828
| 15> H 	 2.82974 	 80.4217 	 48.9304
| 16> C 	 2.439 	 79.1357 	 50.6362
| 17> H 	 2.34235 	 79.9535 	 51.3832
| 18> H 	 1.6914 	 78.3611 	 50.8686
| 19> C 	 3.78273 	 78.4415 	 50.7622
| 20> H 	 3.71997 	 77.4786 	 50.2808
| 21> H 	 4.56721 	 79.0031 	 50.2277
| 22> H 	 3.92653 	 78.3339 	 51.8266
| 23> S 	 2.46459 	 74.2313 	 45.7405
| 24> C 	 1.47179 	 72.8514 	 46.075
| 25> C 	 0.273288 	 73.1687 	 46.728
| 26> C 	 0.17948 	 74.526 	 46.966
| 27> C 	 1.37863 	 75.1949 	 46.7321
| 28> H 	 -0.348945 	 72.3542 	 46.9947
| 29> C 	 -0.926866 	 75.2144 	 47.7331
| 30> H 	 -1.74468 	 75.3317 	 46.9828
| 31> H 	 -0.606242 	 76.194 	 48.1952
| 32> C 	 -1.68857 	 74.4339 	 48.8229
| 33> H 	 -2.07279 	 73.5043 	 48.4751
| 34> H 	 -2.59887 	 74.9305 	 49.0538
| 35> C 	 -0.919369 	 74.203 	 50.1564
| 36> H 	 -1.44762 	 73.4751 	 50.8223
| 37> H 	 -0.698702 	 75.1708 	 50.6497
| 38> H 	 -0.00646405 	 73.701 	 49.9569
| 39> H 	 2.47648 	 80.0238 	 46.4918
| 40> H 	 1.79437 	 71.9282 	 45.6301
| 41> *
| 42>
| 43>                          ****END OF INPUT****

CARTESIAN COORDINATES (ANGSTROEM)
---------------------------------
  S      1.855070   77.666700   45.738800
  C      2.097900   79.051000   46.767900
  C      2.041330   78.675100   48.104200
  C      1.676400   77.237400   48.229200
  C      1.771100   76.551100   47.086400
  H      1.515870   76.594500   49.084800
  C      2.081810   79.678400   49.229500
  H      1.187400   80.185600   49.282800
  H      2.829740   80.421700   48.930400
  C      2.439000   79.135700   50.636200
  H      2.342350   79.953500   51.383200
  H      1.691400   78.361100   50.868600
  C      3.782730   78.441500   50.762200
  H      3.719970   77.478600   50.280800
  H      4.567210   79.003100   50.227700
  H      3.926530   78.333900   51.826600
  S      2.464590   74.231300   45.740500
  C      1.471790   72.851400   46.075000
  C      0.273288   73.168700   46.728000
  C      0.179480   74.526000   46.966000
  C      1.378630   75.194900   46.732100
  H     -0.348945   72.354200   46.994700
  C     -0.926866   75.214400   47.733100
  H     -1.744680   75.331700   46.982800
  H     -0.606242   76.194000   48.195200
  C     -1.688570   74.433900   48.822900
  H     -2.072790   73.504300   48.475100
  H     -2.598870   74.930500   49.053800
  C     -0.919369   74.203000   50.156400
  H     -1.447620   73.475100   50.822300
  H     -0.698702   75.170800   50.649700
  H     -0.006464   73.701000   49.956900
  H      2.476480   80.023800   46.491800
  H      1.794370   71.928200   45.630100

 Total Charge           Charge          ....    0
 Multiplicity           Mult            ....    1
 Number of Electrons    NEL             ....  134
 Basis Dimension        Dim             ....  322

ORBITAL ENERGIES
----------------

  NO   OCC          E(Eh)            E(eV)
   0   2.0000     -88.967114     -2420.9182
   1   2.0000     -88.957362     -2420.6529
   2   2.0000     -10.323756      -280.9237
   3   2.0000     -10.322451      -280.8882
   4   2.0000     -10.318313      -280.7756
   5   2.0000     -10.311677      -280.5950
   6   2.0000     -10.307632      -280.4849
   7   2.0000     -10.304351      -280.3957
   8   2.0000     -10.296370      -280.1785
   9   2.0000     -10.296023      -280.1690
  10   2.0000     -10.294992      -280.1410
  11   2.0000     -10.287581      -279.9393
  12   2.0000     -10.286420      -279.9077
  13   2.0000     -10.282442      -279.7995
  14   2.0000     -10.279178      -279.7106
  15   2.0000     -10.272476      -279.5283
  16   2.0000      -8.082284      -219.9301
  17   2.0000      -8.072680      -219.6688
  18   2.0000      -6.040406      -164.3678
  19   2.0000      -6.036803      -164.2698
  20   2.0000      -6.033358      -164.1760
  21   2.0000      -6.031393      -164.1225
  22   2.0000      -6.027051      -164.0044
  23   2.0000      -6.023226      -163.9003
  24   2.0000      -1.011356       -27.5204
  25   2.0000      -0.986334       -26.8395
  26   2.0000      -0.912434       -24.8286
  27   2.0000      -0.908198       -24.7133
  28   2.0000      -0.872216       -23.7342
  29   2.0000      -0.854424       -23.2500
  30   2.0000      -0.839966       -22.8566
  31   2.0000      -0.821624       -22.3575
  32   2.0000      -0.786553       -21.4032
  33   2.0000      -0.772497       -21.0207
  34   2.0000      -0.709974       -19.3194
  35   2.0000      -0.699507       -19.0346
  36   2.0000      -0.686228       -18.6732
  37   2.0000      -0.658493       -17.9185
  38   2.0000      -0.646846       -17.6016
  39   2.0000      -0.619183       -16.8488
  40   2.0000      -0.600910       -16.3516
  41   2.0000      -0.567543       -15.4436
  42   2.0000      -0.558310       -15.1924
  43   2.0000      -0.550754       -14.9868
  44   2.0000      -0.541081       -14.7236
  45   2.0000      -0.539744       -14.6872
  46   2.0000      -0.526991       -14.3402
  47   2.0000      -0.511525       -13.9193
  48   2.0000      -0.506410       -13.7801
  49   2.0000      -0.495733       -13.4896
  50   2.0000      -0.489981       -13.3330
  51   2.0000      -0.479840       -13.0571
  52   2.0000      -0.473641       -12.8884
  53   2.0000      -0.466699       -12.6995
  54   2.0000      -0.458189       -12.4680
  55   2.0000      -0.448792       -12.2122
  56   2.0000      -0.440763       -11.9938
  57   2.0000      -0.435234       -11.8433
  58   2.0000      -0.430660       -11.7188
  59   2.0000      -0.427623       -11.6362
  60   2.0000      -0.418318       -11.3830
  61   2.0000      -0.415421       -11.3042
  62   2.0000      -0.412667       -11.2292
  63   2.0000      -0.339974        -9.2512
  64   2.0000      -0.336024        -9.1437
  65   2.0000      -0.323636        -8.8066
  66   2.0000      -0.296459        -8.0671
  67   0.0000       0.031612         0.8602
  68   0.0000       0.062075         1.6891
  69   0.0000       0.110521         3.0074
  70   0.0000       0.118352         3.2205
  71   0.0000       0.127851         3.4790

MULLIKEN ATOMIC CHARGES
-----------------------
   0 S :    0.088954
   1 C :   -0.100803
   2 C :   -0.117362
   3 C :   -0.011595
   4 C :   -0.108612
   5 H :    0.022934
   6 C :    0.097097
   7 H :    0.028527
   8 H :    0.019412
   9 C :   -0.116597
  10 H :    0.034894
  11 H :    0.027059
  12 C :   -0.030890
  13 H :    0.032192
  14 H :    0.033724
  15 H :    0.037876
  16 S :    0.117847
  17 C :   -0.094377
  18 C :   -0.035747
  19 C :    0.038564
  20 C :   -0.211641
  21 H :    0.013653
  22 C :    0.032212
  23 H :    0.041927
  24 H :    0.048922
  25 C :   -0.050344
  26 H :    0.005241
  27 H :    0.016328
  28 C :   -0.062244
  29 H :    0.038903
  30 H :    0.036968
  31 H :    0.025319
  32 H :    0.047864
  33 H :    0.053795
Sum of atomic charges:   -0.0000000

LOEWDIN ATOMIC CHARGES
----------------------
   0 S :    0.396339
   1 C :   -0.199168
   2 C :   -0.056657
   3 C :   -0.074003
   4 C :   -0.187554
   5 H :    0.031767
   6 C :   -0.031297
   7 H :    0.024953
   8 H :    0.031917
   9 C :   -0.045177
  10 H :    0.026369
  11 H :    0.022625
  12 C :   -0.062494
  13 H :    0.024164
  14 H :    0.026847
  15 H :    0.028388
  16 S :    0.416388
  17 C :   -0.176420
  18 C :   -0.068906
  19 C :   -0.051035
  20 C :   -0.208991
  21 H :    0.030376
  22 C :   -0.034495
  23 H :    0.044737
  24 H :    0.040254
  25 C :   -0.041165
  26 H :    0.015084
  27 H :    0.021655
  28 C :   -0.070050
  29 H :    0.031976
  30 H :    0.025672
  31 H :    0.018025
  32 H :    0.029120
  33 H :    0.020751

  Mayer bond orders larger than 0.100000
B(  0-S ,  1-C ) :   1.1319 B(  0-S ,  4-C ) :   1.1414 B(  1-C ,  2-C ) :   1.6469
B(  1-C , 32-H ) :   0.9667 B(  2-C ,  3-C ) :   1.1677 B(  2-C ,  6-C ) :   1.0167
B(  3-C ,  4-C ) :   1.6608 B(  3-C ,  5-H ) :   0.9869 B(  4-C , 20-C ) :   1.0130
B(  6-C ,  7-H ) :   0.9385 B(  6-C ,  8-H ) :   0.9341 B(  6-C ,  9-C ) :   1.0850
B(  9-C , 10-H ) :   0.9586 B(  9-C , 11-H ) :   0.9489 B(  9-C , 12-C ) :   1.0787
B( 12-C , 13-H ) :   0.9709 B( 12-C , 14-H ) :   0.9769 B( 12-C , 15-H ) :   0.9736
B( 16-S , 17-C ) :   1.1873 B( 16-S , 20-C ) :   1.1506 B( 17-C , 18-C ) :   1.5622
B( 17-C , 20-C ) :   0.1157 B( 17-C , 33-H ) :   0.9711 B( 18-C , 19-C ) :   1.2467
B( 18-C , 21-H ) :   1.0059 B( 19-C , 20-C ) :   1.5450 B( 19-C , 22-C ) :   1.0412
B( 22-C , 23-H ) :   0.9116 B( 22-C , 24-H ) :   0.9445 B( 22-C , 25-C ) :   1.0889
B( 25-C , 26-H ) :   0.9445 B( 25-C , 27-H ) :   0.9508 B( 25-C , 28-C ) :   1.0734
B( 28-C , 29-H ) :   0.9739 B( 28-C , 30-H ) :   0.9744 B( 28-C , 31-H ) :   0.9776

Dispersion correction           -0.014981996
FINAL SINGLE POINT ENERGY     -1339.865329869307

DIPOLE MOMENT
-------------
                                X             Y             Z
Electronic contribution:      7.31985      -4.53898     -26.11409
Nuclear contribution   :     -7.68606       4.48788      26.63184
                        -----------------------------------------
Total Dipole Moment    :     -0.36621      -0.05110       0.51775
                        -----------------------------------------
Magnitude (a.u.)       :      0.63623
Magnitude (Debye)      :      1.61716

Rotational constants in cm-1:     0.017738     0.009584     0.007540
Rotational constants in MHz :   531.763622   287.324759   226.045692

                             ****ORCA TERMINATED NORMALLY****
TOTAL RUN TIME: 0 days 0 hours 0 minutes 33 seconds 306 msec
