                         Program Version 4.2.1 -  RELEASE  -
|  1> ! wB97X-D3 SP def2-SVP
|  2> %pal
|  3> nprocs 16
|  4> end
|  5>
|  6> * xyz 0 1
|  7> S 	 -46.2864 	 61.5535 	 135.635
|  8> C 	 -45.4837 	 60.08 	 136.148
|  9> C 	 -46.276 	 59.5333 	 137.134
| 10> C 	 -47.4081 	 60.2888 	 137.52
| 11> C 	 -47.6542 	 61.3205 	 136.677
| 12> H 	 -48.1365 	 60.0688 	 138.267
| 13> C 	 -45.8327 	 58.2915 	 137.916
| 14> H 	 -45.9342 	 58.6694 	 138.915
| 15> H 	 -44.7441 	 58.1667 	 137.747
| 16> C 	 -46.719 	 57.0196 	 137.669
| 17> H 	 -47.6492 	 57.307 	 138.18
| 18> H 	 -46.8687 	 56.8632 	 136.581
| 19> C 	 -46.184 	 55.8162 	 138.458
| 20> H 	 -45.1275 	 55.6415 	 138.379
| 21> H 	 -46.4618 	 55.9229 	 139.49
| 22> H 	 -46.7041 	 54.9401 	 138.062
| 23> S 	 -48.5038 	 63.2131 	 138.315
| 24> C 	 -49.568 	 64.4073 	 137.818
| 25> C 	 -50.2637 	 64.0359 	 136.735
| 26> C 	 -49.6026 	 62.9677 	 136.038
| 27> C 	 -48.5974 	 62.4418 	 136.818
| 28> H 	 -51.1705 	 64.5435 	 136.361
| 29> C 	 -50.0227 	 62.5004 	 134.679
| 30> H 	 -49.38 	 61.7537 	 134.264
| 31> H 	 -49.9984 	 63.372 	 134.019
| 32> C 	 -51.4651 	 61.9443 	 134.709
| 33> H 	 -52.1235 	 62.5821 	 135.245
| 34> H 	 -51.4678 	 61.065 	 135.387
| 35> C 	 -52.0584 	 61.6349 	 133.302
| 36> H 	 -51.2734 	 61.3319 	 132.613
| 37> H 	 -52.7008 	 62.4301 	 132.935
| 38> H 	 -52.6547 	 60.6771 	 133.375
| 39> H 	 -44.5993 	 59.6292 	 135.784
| 40> H 	 -49.9577 	 65.156 	 138.479
| 41> *
| 42>
| 43>                          ****END OF INPUT****

CARTESIAN COORDINATES (ANGSTROEM)
---------------------------------
  S    -46.286400   61.553500  135.635000
  C    -45.483700   60.080000  136.148000
  C    -46.276000   59.533300  137.134000
  C    -47.408100   60.288800  137.520000
  C    -47.654200   61.320500  136.677000
  H    -48.136500   60.068800  138.267000
  C    -45.832700   58.291500  137.916000
  H    -45.934200   58.669400  138.915000
  H    -44.744100   58.166700  137.747000
  C    -46.719000   57.019600  137.669000
  H    -47.649200   57.307000  138.180000
  H    -46.868700   56.863200  136.581000
  C    -46.184000   55.816200  138.458000
  H    -45.127500   55.641500  138.379000
  H    -46.461800   55.922900  139.490000
  H    -46.704100   54.940100  138.062000
  S    -48.503800   63.213100  138.315000
  C    -49.568000   64.407300  137.818000
  C    -50.263700   64.035900  136.735000
  C    -49.602600   62.967700  136.038000
  C    -48.597400   62.441800  136.818000
  H    -51.170500   64.543500  136.361000
  C    -50.022700   62.500400  134.679000
  H    -49.380000   61.753700  134.264000
  H    -49.998400   63.372000  134.019000
  C    -51.465100   61.944300  134.709000
  H    -52.123500   62.582100  135.245000
  H    -51.467800   61.065000  135.387000
  C    -52.058400   61.634900  133.302000
  H    -51.273400   61.331900  132.613000
  H    -52.700800   62.430100  132.935000
  H    -52.654700   60.677100  133.375000
  H    -44.599300   59.629200  135.784000
  H    -49.957700   65.156000  138.479000

 Total Charge           Charge          ....    0
 Multiplicity           Mult            ....    1
 Number of Electrons    NEL             ....  134
 Basis Dimension        Dim             ....  322

ORBITAL ENERGIES
----------------

  NO   OCC          E(Eh)            E(eV)
   0   2.0000     -88.960315     -2420.7333
   1   2.0000     -88.958864     -2420.6938
   2   2.0000     -10.325014      -280.9579
   3   2.0000     -10.317787      -280.7612
   4   2.0000     -10.308185      -280.5000
   5   2.0000     -10.304335      -280.3952
   6   2.0000     -10.299758      -280.2707
   7   2.0000     -10.295682      -280.1598
   8   2.0000     -10.291331      -280.0414
   9   2.0000     -10.290788      -280.0266
  10   2.0000     -10.288495      -279.9642
  11   2.0000     -10.287371      -279.9336
  12   2.0000     -10.287115      -279.9266
  13   2.0000     -10.284797      -279.8636
  14   2.0000     -10.282024      -279.7881
  15   2.0000     -10.275006      -279.5971
  16   2.0000      -8.078082      -219.8158
  17   2.0000      -8.073865      -219.7010
  18   2.0000      -6.036327      -164.2568
  19   2.0000      -6.032458      -164.1515
  20   2.0000      -6.032387      -164.1496
  21   2.0000      -6.028679      -164.0487
  22   2.0000      -6.028162      -164.0346
  23   2.0000      -6.024666      -163.9395
  24   2.0000      -1.022793       -27.8316
  25   2.0000      -0.994505       -27.0618
  26   2.0000      -0.910087       -24.7647
  27   2.0000      -0.906329       -24.6625
  28   2.0000      -0.873979       -23.7822
  29   2.0000      -0.850373       -23.1398
  30   2.0000      -0.844833       -22.9891
  31   2.0000      -0.821045       -22.3418
  32   2.0000      -0.781672       -21.2704
  33   2.0000      -0.768646       -20.9159
  34   2.0000      -0.706156       -19.2155
  35   2.0000      -0.700948       -19.0738
  36   2.0000      -0.692699       -18.8493
  37   2.0000      -0.663986       -18.0680
  38   2.0000      -0.641740       -17.4626
  39   2.0000      -0.617974       -16.8159
  40   2.0000      -0.603929       -16.4337
  41   2.0000      -0.570321       -15.5192
  42   2.0000      -0.564190       -15.3524
  43   2.0000      -0.557334       -15.1658
  44   2.0000      -0.525086       -14.2883
  45   2.0000      -0.520101       -14.1527
  46   2.0000      -0.518197       -14.1009
  47   2.0000      -0.516543       -14.0559
  48   2.0000      -0.509168       -13.8552
  49   2.0000      -0.499283       -13.5862
  50   2.0000      -0.494041       -13.4435
  51   2.0000      -0.478309       -13.0155
  52   2.0000      -0.475431       -12.9371
  53   2.0000      -0.464638       -12.6434
  54   2.0000      -0.462524       -12.5859
  55   2.0000      -0.457001       -12.4356
  56   2.0000      -0.443985       -12.0814
  57   2.0000      -0.436511       -11.8781
  58   2.0000      -0.432466       -11.7680
  59   2.0000      -0.424564       -11.5530
  60   2.0000      -0.420638       -11.4462
  61   2.0000      -0.416251       -11.3268
  62   2.0000      -0.402662       -10.9570
  63   2.0000      -0.342280        -9.3139
  64   2.0000      -0.330729        -8.9996
  65   2.0000      -0.322655        -8.7799
  66   2.0000      -0.302197        -8.2232
  67   0.0000       0.045262         1.2316
  68   0.0000       0.068479         1.8634
  69   0.0000       0.110935         3.0187
  70   0.0000       0.123253         3.3539
  71   0.0000       0.136224         3.7068

MULLIKEN ATOMIC CHARGES
-----------------------
   0 S :    0.096819
   1 C :   -0.098180
   2 C :   -0.103392
   3 C :    0.006749
   4 C :   -0.107699
   5 H :    0.007963
   6 C :    0.042819
   7 H :    0.024060
   8 H :    0.018702
   9 C :   -0.089618
  10 H :    0.030092
  11 H :    0.048429
  12 C :   -0.016897
  13 H :    0.029851
  14 H :    0.028019
  15 H :    0.032144
  16 S :    0.128963
  17 C :   -0.064391
  18 C :   -0.054886
  19 C :   -0.062703
  20 C :   -0.176023
  21 H :    0.030319
  22 C :    0.119473
  23 H :    0.018581
  24 H :    0.028397
  25 C :   -0.111461
  26 H :    0.011762
  27 H :    0.029903
  28 C :   -0.043542
  29 H :    0.032309
  30 H :    0.047882
  31 H :    0.035208
  32 H :    0.031600
  33 H :    0.048750
Sum of atomic charges:    0.0000000

LOEWDIN ATOMIC CHARGES
----------------------
   0 S :    0.408111
   1 C :   -0.196307
   2 C :   -0.062615
   3 C :   -0.076930
   4 C :   -0.190704
   5 H :    0.028223
   6 C :   -0.033618
   7 H :    0.028099
   8 H :    0.025370
   9 C :   -0.039192
  10 H :    0.028226
  11 H :    0.028295
  12 C :   -0.062406
  13 H :    0.020443
  14 H :    0.024952
  15 H :    0.029086
  16 S :    0.462991
  17 C :   -0.204710
  18 C :   -0.071122
  19 C :   -0.054234
  20 C :   -0.226539
  21 H :    0.035222
  22 C :   -0.026902
  23 H :    0.025180
  24 H :    0.032409
  25 C :   -0.041264
  26 H :    0.014240
  27 H :    0.027842
  28 C :   -0.070678
  29 H :    0.025619
  30 H :    0.027155
  31 H :    0.035463
  32 H :    0.024267
  33 H :    0.026025

  Mayer bond orders larger than 0.100000
B(  0-S ,  1-C ) :   1.1253 B(  0-S ,  4-C ) :   1.1725 B(  1-C ,  2-C ) :   1.6088
B(  1-C , 32-H ) :   0.9793 B(  2-C ,  3-C ) :   1.2309 B(  2-C ,  6-C ) :   1.0112
B(  3-C ,  4-C ) :   1.5839 B(  3-C ,  5-H ) :   1.0032 B(  4-C , 20-C ) :   0.9835
B(  6-C ,  7-H ) :   0.9432 B(  6-C ,  8-H ) :   0.9497 B(  6-C ,  9-C ) :   1.0470
B(  9-C , 10-H ) :   0.9552 B(  9-C , 11-H ) :   0.9645 B(  9-C , 12-C ) :   1.0788
B( 12-C , 13-H ) :   0.9781 B( 12-C , 14-H ) :   0.9753 B( 12-C , 15-H ) :   0.9744
B( 16-S , 17-C ) :   1.1758 B( 16-S , 20-C ) :   1.1672 B( 17-C , 18-C ) :   1.6130
B( 17-C , 33-H ) :   0.9638 B( 18-C , 19-C ) :   1.2432 B( 18-C , 21-H ) :   0.9834
B( 19-C , 20-C ) :   1.5980 B( 19-C , 22-C ) :   1.0567 B( 22-C , 23-H ) :   0.9274
B( 22-C , 24-H ) :   0.9295 B( 22-C , 25-C ) :   1.0586 B( 25-C , 26-H ) :   0.9621
B( 25-C , 27-H ) :   0.9570 B( 25-C , 28-C ) :   1.0655 B( 28-C , 29-H ) :   0.9752
B( 28-C , 30-H ) :   0.9781 B( 28-C , 31-H ) :   0.9760

Dispersion correction           -0.013450241
FINAL SINGLE POINT ENERGY     -1339.872556289870

DIPOLE MOMENT
-------------
                                X             Y             Z
Electronic contribution:      9.38469      19.89766       5.21991
Nuclear contribution   :     -9.77024     -20.21755      -5.11468
                        -----------------------------------------
Total Dipole Moment    :     -0.38554      -0.31989       0.10523
                        -----------------------------------------
Magnitude (a.u.)       :      0.51191
Magnitude (Debye)      :      1.30117

Rotational constants in cm-1:     0.019114     0.007368     0.006508
Rotational constants in MHz :   573.027551   220.898775   195.104942

                             ****ORCA TERMINATED NORMALLY****
TOTAL RUN TIME: 0 days 0 hours 0 minutes 33 seconds 694 msec
