                         Program Version 4.2.1 -  RELEASE  -
|  1> ! wB97X-D3 SP def2-SVP
|  2> %pal
|  3> nprocs 16
|  4> end
|  5>
|  6> * xyz 0 1
|  7> S 	 40.0757 	 22.4059 	 82.174
|  8> C 	 39.0238 	 23.233 	 83.3176
|  9> C 	 39.6949 	 23.8012 	 84.4014
| 10> C 	 41.089 	 23.4705 	 84.3914
| 11> C 	 41.4379 	 22.7343 	 83.2912
| 12> H 	 41.8024 	 23.604 	 85.2223
| 13> C 	 38.9552 	 24.3838 	 85.583
| 14> H 	 39.2246 	 23.6946 	 86.3997
| 15> H 	 37.9401 	 24.3976 	 85.3897
| 16> C 	 39.5654 	 25.7253 	 86.0008
| 17> H 	 40.5709 	 25.6166 	 86.3773
| 18> H 	 39.7574 	 26.3509 	 85.1092
| 19> C 	 38.5469 	 26.4133 	 86.8799
| 20> H 	 38.8811 	 27.3496 	 87.2596
| 21> H 	 37.701 	 26.5198 	 86.2622
| 22> H 	 38.2609 	 25.7797 	 87.7244
| 23> S 	 43.3225 	 22.9258 	 81.3415
| 24> C 	 44.7643 	 21.9947 	 81.3322
| 25> C 	 44.9405 	 21.3301 	 82.5906
| 26> C 	 43.8379 	 21.5339 	 83.4884
| 27> C 	 42.7771 	 22.2843 	 82.8823
| 28> H 	 45.8519 	 20.7733 	 82.6415
| 29> C 	 43.7408 	 20.7188 	 84.7276
| 30> H 	 44.2613 	 19.7345 	 84.6271
| 31> H 	 42.6898 	 20.5386 	 84.9208
| 32> C 	 44.374 	 21.3353 	 85.9862
| 33> H 	 44.1286 	 22.3814 	 86.1476
| 34> H 	 45.4514 	 21.2001 	 85.8956
| 35> C 	 43.9756 	 20.3739 	 87.1413
| 36> H 	 44.2417 	 20.8428 	 88.1061
| 37> H 	 44.3084 	 19.3612 	 86.9778
| 38> H 	 42.8986 	 20.3846 	 87.2939
| 39> H 	 37.8915 	 23.2168 	 83.3517
| 40> H 	 45.536 	 21.9553 	 80.6157
| 41> *
| 42>
| 43>                          ****END OF INPUT****

CARTESIAN COORDINATES (ANGSTROEM)
---------------------------------
  S     40.075700   22.405900   82.174000
  C     39.023800   23.233000   83.317600
  C     39.694900   23.801200   84.401400
  C     41.089000   23.470500   84.391400
  C     41.437900   22.734300   83.291200
  H     41.802400   23.604000   85.222300
  C     38.955200   24.383800   85.583000
  H     39.224600   23.694600   86.399700
  H     37.940100   24.397600   85.389700
  C     39.565400   25.725300   86.000800
  H     40.570900   25.616600   86.377300
  H     39.757400   26.350900   85.109200
  C     38.546900   26.413300   86.879900
  H     38.881100   27.349600   87.259600
  H     37.701000   26.519800   86.262200
  H     38.260900   25.779700   87.724400
  S     43.322500   22.925800   81.341500
  C     44.764300   21.994700   81.332200
  C     44.940500   21.330100   82.590600
  C     43.837900   21.533900   83.488400
  C     42.777100   22.284300   82.882300
  H     45.851900   20.773300   82.641500
  C     43.740800   20.718800   84.727600
  H     44.261300   19.734500   84.627100
  H     42.689800   20.538600   84.920800
  C     44.374000   21.335300   85.986200
  H     44.128600   22.381400   86.147600
  H     45.451400   21.200100   85.895600
  C     43.975600   20.373900   87.141300
  H     44.241700   20.842800   88.106100
  H     44.308400   19.361200   86.977800
  H     42.898600   20.384600   87.293900
  H     37.891500   23.216800   83.351700
  H     45.536000   21.955300   80.615700

 Total Charge           Charge          ....    0
 Multiplicity           Mult            ....    1
 Number of Electrons    NEL             ....  134
 Basis Dimension        Dim             ....  322

ORBITAL ENERGIES
----------------

  NO   OCC          E(Eh)            E(eV)
   0   2.0000     -88.969492     -2420.9830
   1   2.0000     -88.965752     -2420.8812
   2   2.0000     -10.334146      -281.2064
   3   2.0000     -10.330257      -281.1006
   4   2.0000     -10.318419      -280.7785
   5   2.0000     -10.312907      -280.6285
   6   2.0000     -10.307437      -280.4796
   7   2.0000     -10.301190      -280.3096
   8   2.0000     -10.299785      -280.2714
   9   2.0000     -10.294447      -280.1261
  10   2.0000     -10.288936      -279.9762
  11   2.0000     -10.287685      -279.9421
  12   2.0000     -10.286575      -279.9119
  13   2.0000     -10.284373      -279.8520
  14   2.0000     -10.278613      -279.6953
  15   2.0000     -10.272125      -279.5187
  16   2.0000      -8.083253      -219.9565
  17   2.0000      -8.080530      -219.8824
  18   2.0000      -6.041865      -164.4075
  19   2.0000      -6.038892      -164.3266
  20   2.0000      -6.038021      -164.3029
  21   2.0000      -6.034788      -164.2149
  22   2.0000      -6.033816      -164.1885
  23   2.0000      -6.031677      -164.1303
  24   2.0000      -1.001416       -27.2499
  25   2.0000      -0.978743       -26.6330
  26   2.0000      -0.919930       -25.0326
  27   2.0000      -0.911933       -24.8150
  28   2.0000      -0.866168       -23.5696
  29   2.0000      -0.852025       -23.1848
  30   2.0000      -0.847600       -23.0644
  31   2.0000      -0.814297       -22.1582
  32   2.0000      -0.778424       -21.1820
  33   2.0000      -0.764886       -20.8136
  34   2.0000      -0.712785       -19.3959
  35   2.0000      -0.699352       -19.0303
  36   2.0000      -0.689313       -18.7572
  37   2.0000      -0.659093       -17.9348
  38   2.0000      -0.639769       -17.4090
  39   2.0000      -0.621006       -16.8984
  40   2.0000      -0.593080       -16.1385
  41   2.0000      -0.576368       -15.6838
  42   2.0000      -0.574324       -15.6282
  43   2.0000      -0.563675       -15.3384
  44   2.0000      -0.530981       -14.4487
  45   2.0000      -0.518714       -14.1149
  46   2.0000      -0.514712       -14.0060
  47   2.0000      -0.510222       -13.8838
  48   2.0000      -0.503804       -13.7092
  49   2.0000      -0.496366       -13.5068
  50   2.0000      -0.490058       -13.3351
  51   2.0000      -0.476507       -12.9664
  52   2.0000      -0.473679       -12.8895
  53   2.0000      -0.468563       -12.7503
  54   2.0000      -0.457667       -12.4538
  55   2.0000      -0.455000       -12.3812
  56   2.0000      -0.450344       -12.2545
  57   2.0000      -0.445624       -12.1261
  58   2.0000      -0.430184       -11.7059
  59   2.0000      -0.423138       -11.5142
  60   2.0000      -0.419086       -11.4039
  61   2.0000      -0.415000       -11.2927
  62   2.0000      -0.413038       -11.2393
  63   2.0000      -0.344231        -9.3670
  64   2.0000      -0.329392        -8.9632
  65   2.0000      -0.324458        -8.8290
  66   2.0000      -0.289219        -7.8701
  67   0.0000       0.030543         0.8311
  68   0.0000       0.061463         1.6725
  69   0.0000       0.108127         2.9423
  70   0.0000       0.116242         3.1631
  71   0.0000       0.122054         3.3213

MULLIKEN ATOMIC CHARGES
-----------------------
   0 S :    0.117038
   1 C :   -0.135061
   2 C :   -0.103725
   3 C :    0.035191
   4 C :   -0.161379
   5 H :    0.026919
   6 C :    0.093636
   7 H :    0.042596
   8 H :   -0.001130
   9 C :   -0.116881
  10 H :    0.025237
  11 H :    0.032789
  12 C :    0.016573
  13 H :    0.025897
  14 H :    0.019214
  15 H :    0.022460
  16 S :    0.120173
  17 C :   -0.084561
  18 C :   -0.061942
  19 C :    0.043056
  20 C :   -0.169716
  21 H :    0.014711
  22 C :    0.001061
  23 H :    0.031113
  24 H :    0.026570
  25 C :   -0.074595
  26 H :    0.035179
  27 H :    0.030621
  28 C :   -0.041269
  29 H :    0.028509
  30 H :    0.038406
  31 H :    0.019507
  32 H :    0.064444
  33 H :    0.039358
Sum of atomic charges:    0.0000000

LOEWDIN ATOMIC CHARGES
----------------------
   0 S :    0.386894
   1 C :   -0.209084
   2 C :   -0.060842
   3 C :   -0.060850
   4 C :   -0.181095
   5 H :    0.038341
   6 C :   -0.019716
   7 H :    0.040537
   8 H :    0.016656
   9 C :   -0.042257
  10 H :    0.018463
  11 H :    0.026014
  12 C :   -0.052858
  13 H :    0.020383
  14 H :    0.021519
  15 H :    0.025399
  16 S :    0.429860
  17 C :   -0.199276
  18 C :   -0.069450
  19 C :   -0.057287
  20 C :   -0.204958
  21 H :    0.028250
  22 C :   -0.037182
  23 H :    0.036966
  24 H :    0.027951
  25 C :   -0.034872
  26 H :    0.020140
  27 H :    0.024322
  28 C :   -0.066710
  29 H :    0.027891
  30 H :    0.025121
  31 H :    0.021824
  32 H :    0.039376
  33 H :    0.020531

  Mayer bond orders larger than 0.100000
B(  0-S ,  1-C ) :   1.1205 B(  0-S ,  4-C ) :   1.1365 B(  1-C ,  2-C ) :   1.6476
B(  1-C , 32-H ) :   0.9539 B(  2-C ,  3-C ) :   1.2005 B(  2-C ,  6-C ) :   1.0332
B(  3-C ,  4-C ) :   1.6211 B(  3-C ,  5-H ) :   0.9856 B(  4-C , 20-C ) :   1.0187
B(  6-C ,  7-H ) :   0.9321 B(  6-C ,  8-H ) :   0.9478 B(  6-C ,  9-C ) :   1.0444
B(  9-C , 10-H ) :   0.9532 B(  9-C , 11-H ) :   0.9630 B(  9-C , 12-C ) :   1.0819
B( 12-C , 13-H ) :   0.9722 B( 12-C , 14-H ) :   0.9760 B( 12-C , 15-H ) :   0.9695
B( 16-S , 17-C ) :   1.1742 B( 16-S , 20-C ) :   1.1685 B( 17-C , 18-C ) :   1.5815
B( 17-C , 20-C ) :   0.1111 B( 17-C , 33-H ) :   0.9724 B( 18-C , 19-C ) :   1.2509
B( 18-C , 21-H ) :   0.9962 B( 19-C , 20-C ) :   1.5330 B( 19-C , 22-C ) :   1.0518
B( 22-C , 23-H ) :   0.9435 B( 22-C , 24-H ) :   0.9477 B( 22-C , 25-C ) :   1.0528
B( 25-C , 26-H ) :   0.9587 B( 25-C , 27-H ) :   0.9543 B( 25-C , 28-C ) :   1.0816
B( 28-C , 29-H ) :   0.9715 B( 28-C , 30-H ) :   0.9719 B( 28-C , 31-H ) :   0.9752

Dispersion correction           -0.013515478
FINAL SINGLE POINT ENERGY     -1339.863332728606

DIPOLE MOMENT
-------------
                                X             Y             Z
Electronic contribution:      1.69775      -3.38618     -28.90995
Nuclear contribution   :     -1.66149       3.35262      29.59026
                        -----------------------------------------
Total Dipole Moment    :      0.03626      -0.03356       0.68031
                        -----------------------------------------
Magnitude (a.u.)       :      0.68210
Magnitude (Debye)      :      1.73377

Rotational constants in cm-1:     0.017032     0.008492     0.006509
Rotational constants in MHz :   510.593484   254.595829   195.130164

                             ****ORCA TERMINATED NORMALLY****
TOTAL RUN TIME: 0 days 0 hours 0 minutes 29 seconds 188 msec
