                         Program Version 4.2.1 -  RELEASE  -
|  1> ! wB97X-D3 SP def2-SVP
|  2> %pal
|  3> nprocs 16
|  4> end
|  5>
|  6> * xyz 0 1
|  7> S 	 -61.0882 	 27.1642 	 94.6981
|  8> C 	 -59.4844 	 27.6688 	 95.0933
|  9> C 	 -58.634 	 26.6072 	 95.2004
| 10> C 	 -59.1109 	 25.4099 	 94.6044
| 11> C 	 -60.4529 	 25.536 	 94.2483
| 12> H 	 -58.5218 	 24.5123 	 94.3899
| 13> C 	 -57.2033 	 26.6427 	 95.8033
| 14> H 	 -56.6895 	 27.5467 	 95.4737
| 15> H 	 -56.6973 	 25.8449 	 95.1914
| 16> C 	 -57.1225 	 26.5494 	 97.3619
| 17> H 	 -57.4405 	 27.5562 	 97.7519
| 18> H 	 -57.7521 	 25.7013 	 97.6894
| 19> C 	 -55.6466 	 26.5203 	 97.7551
| 20> H 	 -55.1008 	 25.6483 	 97.3142
| 21> H 	 -55.1558 	 27.461 	 97.4254
| 22> H 	 -55.5643 	 26.5199 	 98.8498
| 23> S 	 -62.589 	 24.0761 	 94.9159
| 24> C 	 -63.1115 	 22.7264 	 94.0033
| 25> C 	 -62.2089 	 22.4452 	 93.0201
| 26> C 	 -61.0831 	 23.3757 	 92.9972
| 27> C 	 -61.2935 	 24.3952 	 93.8528
| 28> H 	 -62.411 	 21.5976 	 92.4419
| 29> C 	 -59.8223 	 23.1776 	 92.1759
| 30> H 	 -59.1926 	 22.3889 	 92.6842
| 31> H 	 -59.2716 	 24.0266 	 92.1758
| 32> C 	 -60.0131 	 22.8715 	 90.6706
| 33> H 	 -60.6584 	 22.0128 	 90.574
| 34> H 	 -59.0929 	 22.8222 	 90.1004
| 35> C 	 -60.781 	 23.9776 	 89.8955
| 36> H 	 -61.7515 	 24.1455 	 90.3845
| 37> H 	 -60.9241 	 23.6261 	 88.9161
| 38> H 	 -60.2672 	 24.8975 	 89.9937
| 39> H 	 -59.3121 	 28.7271 	 95.2673
| 40> H 	 -63.9395 	 21.977 	 94.2387
| 41> *
| 42>
| 43>                          ****END OF INPUT****

CARTESIAN COORDINATES (ANGSTROEM)
---------------------------------
  S    -61.088200   27.164200   94.698100
  C    -59.484400   27.668800   95.093300
  C    -58.634000   26.607200   95.200400
  C    -59.110900   25.409900   94.604400
  C    -60.452900   25.536000   94.248300
  H    -58.521800   24.512300   94.389900
  C    -57.203300   26.642700   95.803300
  H    -56.689500   27.546700   95.473700
  H    -56.697300   25.844900   95.191400
  C    -57.122500   26.549400   97.361900
  H    -57.440500   27.556200   97.751900
  H    -57.752100   25.701300   97.689400
  C    -55.646600   26.520300   97.755100
  H    -55.100800   25.648300   97.314200
  H    -55.155800   27.461000   97.425400
  H    -55.564300   26.519900   98.849800
  S    -62.589000   24.076100   94.915900
  C    -63.111500   22.726400   94.003300
  C    -62.208900   22.445200   93.020100
  C    -61.083100   23.375700   92.997200
  C    -61.293500   24.395200   93.852800
  H    -62.411000   21.597600   92.441900
  C    -59.822300   23.177600   92.175900
  H    -59.192600   22.388900   92.684200
  H    -59.271600   24.026600   92.175800
  C    -60.013100   22.871500   90.670600
  H    -60.658400   22.012800   90.574000
  H    -59.092900   22.822200   90.100400
  C    -60.781000   23.977600   89.895500
  H    -61.751500   24.145500   90.384500
  H    -60.924100   23.626100   88.916100
  H    -60.267200   24.897500   89.993700
  H    -59.312100   28.727100   95.267300
  H    -63.939500   21.977000   94.238700

 Total Charge           Charge          ....    0
 Multiplicity           Mult            ....    1
 Number of Electrons    NEL             ....  134
 Basis Dimension        Dim             ....  322

ORBITAL ENERGIES
----------------

  NO   OCC          E(Eh)            E(eV)
   0   2.0000     -88.967582     -2420.9310
   1   2.0000     -88.959268     -2420.7048
   2   2.0000     -10.333675      -281.1936
   3   2.0000     -10.318567      -280.7825
   4   2.0000     -10.313395      -280.6418
   5   2.0000     -10.313128      -280.6345
   6   2.0000     -10.300773      -280.2983
   7   2.0000     -10.300285      -280.2850
   8   2.0000     -10.298065      -280.2246
   9   2.0000     -10.296923      -280.1935
  10   2.0000     -10.296564      -280.1838
  11   2.0000     -10.287819      -279.9458
  12   2.0000     -10.287725      -279.9432
  13   2.0000     -10.285306      -279.8774
  14   2.0000     -10.281684      -279.7788
  15   2.0000     -10.264110      -279.3006
  16   2.0000      -8.081929      -219.9205
  17   2.0000      -8.075881      -219.7559
  18   2.0000      -6.040441      -164.3688
  19   2.0000      -6.036595      -164.2641
  20   2.0000      -6.034401      -164.2044
  21   2.0000      -6.032608      -164.1556
  22   2.0000      -6.030166      -164.0892
  23   2.0000      -6.026443      -163.9878
  24   2.0000      -1.013638       -27.5825
  25   2.0000      -0.988360       -26.8947
  26   2.0000      -0.908707       -24.7272
  27   2.0000      -0.905227       -24.6325
  28   2.0000      -0.872528       -23.7427
  29   2.0000      -0.853462       -23.2239
  30   2.0000      -0.844781       -22.9876
  31   2.0000      -0.814716       -22.1696
  32   2.0000      -0.782132       -21.2829
  33   2.0000      -0.767724       -20.8908
  34   2.0000      -0.701872       -19.0989
  35   2.0000      -0.696182       -18.9441
  36   2.0000      -0.690792       -18.7974
  37   2.0000      -0.658311       -17.9136
  38   2.0000      -0.642017       -17.4702
  39   2.0000      -0.620740       -16.8912
  40   2.0000      -0.597859       -16.2686
  41   2.0000      -0.564889       -15.3714
  42   2.0000      -0.561881       -15.2896
  43   2.0000      -0.553317       -15.0565
  44   2.0000      -0.545478       -14.8432
  45   2.0000      -0.522124       -14.2077
  46   2.0000      -0.521055       -14.1786
  47   2.0000      -0.515467       -14.0266
  48   2.0000      -0.507738       -13.8163
  49   2.0000      -0.495222       -13.4757
  50   2.0000      -0.490489       -13.3469
  51   2.0000      -0.481018       -13.0892
  52   2.0000      -0.467567       -12.7232
  53   2.0000      -0.463950       -12.6247
  54   2.0000      -0.460704       -12.5364
  55   2.0000      -0.445243       -12.1157
  56   2.0000      -0.440211       -11.9787
  57   2.0000      -0.435883       -11.8610
  58   2.0000      -0.431404       -11.7391
  59   2.0000      -0.428380       -11.6568
  60   2.0000      -0.421551       -11.4710
  61   2.0000      -0.410491       -11.1700
  62   2.0000      -0.409108       -11.1324
  63   2.0000      -0.353619        -9.6225
  64   2.0000      -0.331002        -9.0070
  65   2.0000      -0.325085        -8.8460
  66   2.0000      -0.291237        -7.9250
  67   0.0000       0.033741         0.9182
  68   0.0000       0.070403         1.9158
  69   0.0000       0.110728         3.0131
  70   0.0000       0.120346         3.2748
  71   0.0000       0.130704         3.5566

MULLIKEN ATOMIC CHARGES
-----------------------
   0 S :    0.108102
   1 C :   -0.126862
   2 C :   -0.064550
   3 C :    0.019124
   4 C :   -0.154876
   5 H :    0.031911
   6 C :    0.015122
   7 H :    0.018137
   8 H :    0.024259
   9 C :   -0.059816
  10 H :    0.037939
  11 H :    0.051010
  12 C :   -0.061726
  13 H :    0.040560
  14 H :    0.032568
  15 H :    0.039362
  16 S :    0.105805
  17 C :   -0.107606
  18 C :   -0.031896
  19 C :   -0.073585
  20 C :   -0.139495
  21 H :   -0.003252
  22 C :    0.105014
  23 H :    0.051704
  24 H :   -0.009285
  25 C :   -0.082586
  26 H :    0.024949
  27 H :    0.033291
  28 C :   -0.044937
  29 H :    0.035321
  30 H :    0.030186
  31 H :    0.023301
  32 H :    0.055021
  33 H :    0.077788
Sum of atomic charges:   -0.0000000

LOEWDIN ATOMIC CHARGES
----------------------
   0 S :    0.392569
   1 C :   -0.197247
   2 C :   -0.068234
   3 C :   -0.058853
   4 C :   -0.178999
   5 H :    0.037574
   6 C :   -0.038004
   7 H :    0.025715
   8 H :    0.029796
   9 C :   -0.039340
  10 H :    0.033987
  11 H :    0.029918
  12 C :   -0.070883
  13 H :    0.026932
  14 H :    0.028174
  15 H :    0.026204
  16 S :    0.429299
  17 C :   -0.211210
  18 C :   -0.070161
  19 C :   -0.061135
  20 C :   -0.206215
  21 H :    0.021034
  22 C :   -0.027695
  23 H :    0.041022
  24 H :    0.011600
  25 C :   -0.034885
  26 H :    0.017442
  27 H :    0.025267
  28 C :   -0.056068
  29 H :    0.026924
  30 H :    0.019748
  31 H :    0.017880
  32 H :    0.028990
  33 H :    0.048856

  Mayer bond orders larger than 0.100000
B(  0-S ,  1-C ) :   1.1371 B(  0-S ,  4-C ) :   1.1504 B(  1-C ,  2-C ) :   1.6045
B(  1-C , 32-H ) :   0.9752 B(  2-C ,  3-C ) :   1.2514 B(  2-C ,  6-C ) :   1.0053
B(  3-C ,  4-C ) :   1.5570 B(  3-C ,  5-H ) :   0.9859 B(  4-C , 20-C ) :   1.0220
B(  6-C ,  7-H ) :   0.9440 B(  6-C ,  8-H ) :   0.9515 B(  6-C ,  9-C ) :   1.0502
B(  9-C , 10-H ) :   0.9527 B(  9-C , 11-H ) :   0.9597 B(  9-C , 12-C ) :   1.0760
B( 12-C , 13-H ) :   0.9760 B( 12-C , 14-H ) :   0.9724 B( 12-C , 15-H ) :   0.9747
B( 16-S , 17-C ) :   1.1435 B( 16-S , 20-C ) :   1.1559 B( 17-C , 18-C ) :   1.6467
B( 17-C , 33-H ) :   0.9561 B( 18-C , 19-C ) :   1.1874 B( 18-C , 21-H ) :   1.0028
B( 19-C , 20-C ) :   1.6383 B( 19-C , 22-C ) :   1.0484 B( 22-C , 23-H ) :   0.9325
B( 22-C , 24-H ) :   0.9222 B( 22-C , 25-C ) :   1.0667 B( 25-C , 26-H ) :   0.9600
B( 25-C , 27-H ) :   0.9599 B( 25-C , 28-C ) :   1.0764 B( 28-C , 29-H ) :   0.9730
B( 28-C , 30-H ) :   0.9756 B( 28-C , 31-H ) :   0.9775

Dispersion correction           -0.013954954
FINAL SINGLE POINT ENERGY     -1339.862299803020

DIPOLE MOMENT
-------------
                                X             Y             Z
Electronic contribution:    -21.78298       3.41203       5.08621
Nuclear contribution   :     22.40706      -3.61689      -5.06510
                        -----------------------------------------
Total Dipole Moment    :      0.62407      -0.20486       0.02110
                        -----------------------------------------
Magnitude (a.u.)       :      0.65718
Magnitude (Debye)      :      1.67041

Rotational constants in cm-1:     0.020317     0.007519     0.006754
Rotational constants in MHz :   609.089129   225.424261   202.470525

                             ****ORCA TERMINATED NORMALLY****
TOTAL RUN TIME: 0 days 0 hours 0 minutes 29 seconds 635 msec
