                         Program Version 4.2.1 -  RELEASE  -
|  1> ! wB97X-D3 SP def2-SVP
|  2> %pal
|  3> nprocs 16
|  4> end
|  5>
|  6> * xyz 0 1
|  7> S 	 6.75014 	 -10.8771 	 61.9763
|  8> C 	 7.00595 	 -9.55761 	 63.1235
|  9> C 	 6.26398 	 -9.7955 	 64.2762
| 10> C 	 5.35054 	 -10.896 	 64.184
| 11> C 	 5.53821 	 -11.6455 	 63.091
| 12> H 	 4.74582 	 -11.277 	 65.0325
| 13> C 	 6.45619 	 -8.96408 	 65.5635
| 14> H 	 5.55176 	 -8.91844 	 66.1775
| 15> H 	 6.67396 	 -7.91679 	 65.3961
| 16> C 	 7.52233 	 -9.43305 	 66.4712
| 17> H 	 8.42569 	 -9.44645 	 65.9113
| 18> H 	 7.57899 	 -8.66256 	 67.2446
| 19> C 	 7.22051 	 -10.8554 	 67.0723
| 20> H 	 6.18516 	 -11.0145 	 67.3409
| 21> H 	 7.47819 	 -11.5502 	 66.2599
| 22> H 	 7.85509 	 -10.984 	 67.9328
| 23> S 	 6.34278 	 -14.333 	 63.1024
| 24> C 	 5.27167 	 -15.5777 	 62.6957
| 25> C 	 3.96469 	 -15.0953 	 62.6572
| 26> C 	 3.8402 	 -13.6437 	 62.7932
| 27> C 	 5.10282 	 -13.0728 	 62.9011
| 28> H 	 3.13786 	 -15.7372 	 62.5482
| 29> C 	 2.60018 	 -12.811 	 62.9253
| 30> H 	 2.91782 	 -11.8893 	 62.4616
| 31> H 	 2.547 	 -12.5386 	 63.954
| 32> C 	 1.37934 	 -13.4088 	 62.2511
| 33> H 	 1.24288 	 -14.4528 	 62.4662
| 34> H 	 1.50614 	 -13.3244 	 61.2064
| 35> C 	 0.0648971 	 -12.7863 	 62.5599
| 36> H 	 -0.0258854 	 -12.5954 	 63.6099
| 37> H 	 -0.815783 	 -13.3567 	 62.2636
| 38> H 	 -0.0269372 	 -11.7962 	 62.1268
| 39> H 	 7.77125 	 -8.79923 	 63.0557
| 40> H 	 5.5964 	 -16.5672 	 62.5158
| 41> *
| 42>
| 43>                          ****END OF INPUT****

CARTESIAN COORDINATES (ANGSTROEM)
---------------------------------
  S      6.750140  -10.877100   61.976300
  C      7.005950   -9.557610   63.123500
  C      6.263980   -9.795500   64.276200
  C      5.350540  -10.896000   64.184000
  C      5.538210  -11.645500   63.091000
  H      4.745820  -11.277000   65.032500
  C      6.456190   -8.964080   65.563500
  H      5.551760   -8.918440   66.177500
  H      6.673960   -7.916790   65.396100
  C      7.522330   -9.433050   66.471200
  H      8.425690   -9.446450   65.911300
  H      7.578990   -8.662560   67.244600
  C      7.220510  -10.855400   67.072300
  H      6.185160  -11.014500   67.340900
  H      7.478190  -11.550200   66.259900
  H      7.855090  -10.984000   67.932800
  S      6.342780  -14.333000   63.102400
  C      5.271670  -15.577700   62.695700
  C      3.964690  -15.095300   62.657200
  C      3.840200  -13.643700   62.793200
  C      5.102820  -13.072800   62.901100
  H      3.137860  -15.737200   62.548200
  C      2.600180  -12.811000   62.925300
  H      2.917820  -11.889300   62.461600
  H      2.547000  -12.538600   63.954000
  C      1.379340  -13.408800   62.251100
  H      1.242880  -14.452800   62.466200
  H      1.506140  -13.324400   61.206400
  C      0.064897  -12.786300   62.559900
  H     -0.025885  -12.595400   63.609900
  H     -0.815783  -13.356700   62.263600
  H     -0.026937  -11.796200   62.126800
  H      7.771250   -8.799230   63.055700
  H      5.596400  -16.567200   62.515800

 Total Charge           Charge          ....    0
 Multiplicity           Mult            ....    1
 Number of Electrons    NEL             ....  134
 Basis Dimension        Dim             ....  322

ORBITAL ENERGIES
----------------

  NO   OCC          E(Eh)            E(eV)
   0   2.0000     -88.965819     -2420.8830
   1   2.0000     -88.961362     -2420.7617
   2   2.0000     -10.334621      -281.2193
   3   2.0000     -10.326076      -280.9868
   4   2.0000     -10.319356      -280.8039
   5   2.0000     -10.313359      -280.6408
   6   2.0000     -10.305610      -280.4299
   7   2.0000     -10.305233      -280.4196
   8   2.0000     -10.298656      -280.2407
   9   2.0000     -10.292814      -280.0817
  10   2.0000     -10.287982      -279.9502
  11   2.0000     -10.286566      -279.9117
  12   2.0000     -10.279971      -279.7322
  13   2.0000     -10.278251      -279.6854
  14   2.0000     -10.275514      -279.6110
  15   2.0000     -10.270202      -279.4664
  16   2.0000      -8.079383      -219.8512
  17   2.0000      -8.076901      -219.7837
  18   2.0000      -6.038028      -164.3031
  19   2.0000      -6.035400      -164.2316
  20   2.0000      -6.034097      -164.1961
  21   2.0000      -6.031230      -164.1181
  22   2.0000      -6.029997      -164.0846
  23   2.0000      -6.027686      -164.0217
  24   2.0000      -1.002357       -27.2755
  25   2.0000      -0.982612       -26.7382
  26   2.0000      -0.919257       -25.0142
  27   2.0000      -0.914721       -24.8908
  28   2.0000      -0.869707       -23.6659
  29   2.0000      -0.852466       -23.1968
  30   2.0000      -0.841045       -22.8860
  31   2.0000      -0.813691       -22.1417
  32   2.0000      -0.786695       -21.4070
  33   2.0000      -0.774660       -21.0796
  34   2.0000      -0.711802       -19.3691
  35   2.0000      -0.698175       -18.9983
  36   2.0000      -0.692856       -18.8536
  37   2.0000      -0.652903       -17.7664
  38   2.0000      -0.642907       -17.4944
  39   2.0000      -0.616806       -16.7841
  40   2.0000      -0.600340       -16.3361
  41   2.0000      -0.577767       -15.7218
  42   2.0000      -0.573242       -15.5987
  43   2.0000      -0.546979       -14.8840
  44   2.0000      -0.543976       -14.8023
  45   2.0000      -0.536985       -14.6121
  46   2.0000      -0.514363       -13.9965
  47   2.0000      -0.513012       -13.9598
  48   2.0000      -0.509064       -13.8523
  49   2.0000      -0.501851       -13.6561
  50   2.0000      -0.487623       -13.2689
  51   2.0000      -0.481390       -13.0993
  52   2.0000      -0.473689       -12.8897
  53   2.0000      -0.465337       -12.6625
  54   2.0000      -0.458863       -12.4863
  55   2.0000      -0.452859       -12.3229
  56   2.0000      -0.442242       -12.0340
  57   2.0000      -0.436422       -11.8757
  58   2.0000      -0.432687       -11.7740
  59   2.0000      -0.422911       -11.5080
  60   2.0000      -0.419123       -11.4049
  61   2.0000      -0.414427       -11.2771
  62   2.0000      -0.412783       -11.2324
  63   2.0000      -0.345680        -9.4064
  64   2.0000      -0.326420        -8.8824
  65   2.0000      -0.321189        -8.7400
  66   2.0000      -0.303637        -8.2624
  67   0.0000       0.031030         0.8444
  68   0.0000       0.062631         1.7043
  69   0.0000       0.113365         3.0848
  70   0.0000       0.117462         3.1963
  71   0.0000       0.126570         3.4441

MULLIKEN ATOMIC CHARGES
-----------------------
   0 S :    0.098311
   1 C :   -0.101838
   2 C :   -0.108692
   3 C :    0.053774
   4 C :   -0.172460
   5 H :    0.034911
   6 C :    0.044623
   7 H :    0.015705
   8 H :    0.018539
   9 C :   -0.056678
  10 H :    0.016752
  11 H :    0.026364
  12 C :   -0.057152
  13 H :    0.025223
  14 H :    0.050456
  15 H :    0.037223
  16 S :    0.111773
  17 C :   -0.073453
  18 C :   -0.027890
  19 C :   -0.063051
  20 C :   -0.180904
  21 H :   -0.001703
  22 C :    0.122943
  23 H :    0.029389
  24 H :    0.026616
  25 C :   -0.064734
  26 H :    0.026405
  27 H :    0.026370
  28 C :   -0.023105
  29 H :    0.012177
  30 H :    0.033557
  31 H :    0.019307
  32 H :    0.052136
  33 H :    0.049108
Sum of atomic charges:   -0.0000000

LOEWDIN ATOMIC CHARGES
----------------------
   0 S :    0.370267
   1 C :   -0.186215
   2 C :   -0.061022
   3 C :   -0.062102
   4 C :   -0.175685
   5 H :    0.041760
   6 C :   -0.037475
   7 H :    0.026329
   8 H :    0.028710
   9 C :   -0.034954
  10 H :    0.017274
  11 H :    0.022562
  12 C :   -0.063156
  13 H :    0.019039
  14 H :    0.032726
  15 H :    0.025020
  16 S :    0.417660
  17 C :   -0.192524
  18 C :   -0.072734
  19 C :   -0.046239
  20 C :   -0.200814
  21 H :    0.018374
  22 C :   -0.026805
  23 H :    0.038496
  24 H :    0.030632
  25 C :   -0.039972
  26 H :    0.022662
  27 H :    0.026370
  28 C :   -0.062500
  29 H :    0.019475
  30 H :    0.028306
  31 H :    0.023177
  32 H :    0.029692
  33 H :    0.023665

  Mayer bond orders larger than 0.100000
B(  0-S ,  1-C ) :   1.1250 B(  0-S ,  4-C ) :   1.1303 B(  1-C ,  2-C ) :   1.6414
B(  1-C , 32-H ) :   0.9682 B(  2-C ,  3-C ) :   1.2235 B(  2-C ,  6-C ) :   1.0172
B(  3-C ,  4-C ) :   1.6181 B(  3-C ,  5-H ) :   0.9785 B(  4-C , 20-C ) :   1.0059
B(  6-C ,  7-H ) :   0.9440 B(  6-C ,  8-H ) :   0.9422 B(  6-C ,  9-C ) :   1.0867
B(  9-C , 10-H ) :   0.9539 B(  9-C , 11-H ) :   0.9549 B(  9-C , 12-C ) :   1.0698
B( 12-C , 13-H ) :   0.9782 B( 12-C , 14-H ) :   0.9735 B( 12-C , 15-H ) :   0.9761
B( 16-S , 17-C ) :   1.1762 B( 16-S , 20-C ) :   1.1507 B( 17-C , 18-C ) :   1.5719
B( 17-C , 33-H ) :   0.9753 B( 18-C , 19-C ) :   1.2408 B( 18-C , 21-H ) :   0.9990
B( 19-C , 20-C ) :   1.5932 B( 19-C , 22-C ) :   1.0370 B( 22-C , 23-H ) :   0.9167
B( 22-C , 24-H ) :   0.9251 B( 22-C , 25-C ) :   1.0638 B( 25-C , 26-H ) :   0.9557
B( 25-C , 27-H ) :   0.9533 B( 25-C , 28-C ) :   1.0992 B( 28-C , 29-H ) :   0.9724
B( 28-C , 30-H ) :   0.9726 B( 28-C , 31-H ) :   0.9695

Dispersion correction           -0.014430196
FINAL SINGLE POINT ENERGY     -1339.871214370518

DIPOLE MOMENT
-------------
                                X             Y             Z
Electronic contribution:     14.64495      -6.67971     -13.44799
Nuclear contribution   :    -14.94585       6.77598      13.94201
                        -----------------------------------------
Total Dipole Moment    :     -0.30091       0.09626       0.49402
                        -----------------------------------------
Magnitude (a.u.)       :      0.58640
Magnitude (Debye)      :      1.49052

Rotational constants in cm-1:     0.018450     0.008089     0.007184
Rotational constants in MHz :   553.130259   242.517020   215.376855

                             ****ORCA TERMINATED NORMALLY****
TOTAL RUN TIME: 0 days 0 hours 0 minutes 29 seconds 910 msec
