                         Program Version 4.2.1 -  RELEASE  -
|  1> ! wB97X-D3 SP def2-SVP
|  2> %pal
|  3> nprocs 16
|  4> end
|  5>
|  6> * xyz 0 1
|  7> S 	 8.96494 	 -18.3393 	 82.8451
|  8> C 	 8.46797 	 -19.3282 	 84.1548
|  9> C 	 7.78071 	 -18.6762 	 85.198
| 10> C 	 7.63046 	 -17.3351 	 84.8659
| 11> C 	 8.2006 	 -16.9814 	 83.6502
| 12> H 	 7.06154 	 -16.6956 	 85.4734
| 13> C 	 7.10898 	 -19.3449 	 86.347
| 14> H 	 7.08728 	 -20.4486 	 86.1421
| 15> H 	 6.11406 	 -18.9853 	 86.2242
| 16> C 	 7.64917 	 -19.1159 	 87.7826
| 17> H 	 8.67981 	 -19.3711 	 87.8107
| 18> H 	 7.67447 	 -18.081 	 87.9742
| 19> C 	 6.92972 	 -19.8755 	 88.8859
| 20> H 	 7.15642 	 -20.9261 	 88.923
| 21> H 	 7.28509 	 -19.4092 	 89.8031
| 22> H 	 5.85041 	 -19.7447 	 88.9451
| 23> S 	 6.75875 	 -14.7996 	 82.7598
| 24> C 	 7.60823 	 -13.3072 	 82.566
| 25> C 	 8.95048 	 -13.5542 	 82.5537
| 26> C 	 9.36368 	 -14.856 	 82.98
| 27> C 	 8.23663 	 -15.6497 	 83.1474
| 28> H 	 9.6494 	 -12.6643 	 82.3698
| 29> C 	 10.8023 	 -15.2141 	 83.3493
| 30> H 	 10.98 	 -16.1972 	 83.7458
| 31> H 	 11.1708 	 -14.4721 	 83.9886
| 32> C 	 11.7421 	 -15.0178 	 82.1684
| 33> H 	 11.7412 	 -13.9619 	 81.789
| 34> H 	 11.3624 	 -15.6997 	 81.3167
| 35> C 	 13.207 	 -15.5042 	 82.3078
| 36> H 	 13.7069 	 -15.0242 	 83.1878
| 37> H 	 13.82 	 -15.4804 	 81.4234
| 38> H 	 13.0715 	 -16.6004 	 82.4789
| 39> H 	 8.66365 	 -20.3933 	 84.2213
| 40> H 	 7.19053 	 -12.3713 	 82.3295
| 41> *
| 42>
| 43>                          ****END OF INPUT****

CARTESIAN COORDINATES (ANGSTROEM)
---------------------------------
  S      8.964940  -18.339300   82.845100
  C      8.467970  -19.328200   84.154800
  C      7.780710  -18.676200   85.198000
  C      7.630460  -17.335100   84.865900
  C      8.200600  -16.981400   83.650200
  H      7.061540  -16.695600   85.473400
  C      7.108980  -19.344900   86.347000
  H      7.087280  -20.448600   86.142100
  H      6.114060  -18.985300   86.224200
  C      7.649170  -19.115900   87.782600
  H      8.679810  -19.371100   87.810700
  H      7.674470  -18.081000   87.974200
  C      6.929720  -19.875500   88.885900
  H      7.156420  -20.926100   88.923000
  H      7.285090  -19.409200   89.803100
  H      5.850410  -19.744700   88.945100
  S      6.758750  -14.799600   82.759800
  C      7.608230  -13.307200   82.566000
  C      8.950480  -13.554200   82.553700
  C      9.363680  -14.856000   82.980000
  C      8.236630  -15.649700   83.147400
  H      9.649400  -12.664300   82.369800
  C     10.802300  -15.214100   83.349300
  H     10.980000  -16.197200   83.745800
  H     11.170800  -14.472100   83.988600
  C     11.742100  -15.017800   82.168400
  H     11.741200  -13.961900   81.789000
  H     11.362400  -15.699700   81.316700
  C     13.207000  -15.504200   82.307800
  H     13.706900  -15.024200   83.187800
  H     13.820000  -15.480400   81.423400
  H     13.071500  -16.600400   82.478900
  H      8.663650  -20.393300   84.221300
  H      7.190530  -12.371300   82.329500

 Total Charge           Charge          ....    0
 Multiplicity           Mult            ....    1
 Number of Electrons    NEL             ....  134
 Basis Dimension        Dim             ....  322

ORBITAL ENERGIES
----------------

  NO   OCC          E(Eh)            E(eV)
   0   2.0000     -88.973260     -2421.0855
   1   2.0000     -88.963079     -2420.8084
   2   2.0000     -10.322380      -280.8863
   3   2.0000     -10.319144      -280.7982
   4   2.0000     -10.310510      -280.5633
   5   2.0000     -10.309217      -280.5281
   6   2.0000     -10.302434      -280.3435
   7   2.0000     -10.295101      -280.1439
   8   2.0000     -10.294495      -280.1275
   9   2.0000     -10.290954      -280.0311
  10   2.0000     -10.290642      -280.0226
  11   2.0000     -10.287103      -279.9263
  12   2.0000     -10.286067      -279.8981
  13   2.0000     -10.281952      -279.7861
  14   2.0000     -10.281550      -279.7752
  15   2.0000     -10.277260      -279.6585
  16   2.0000      -8.087880      -220.0824
  17   2.0000      -8.078223      -219.8196
  18   2.0000      -6.046101      -164.5228
  19   2.0000      -6.042509      -164.4250
  20   2.0000      -6.038871      -164.3260
  21   2.0000      -6.036729      -164.2677
  22   2.0000      -6.032714      -164.1585
  23   2.0000      -6.028931      -164.0556
  24   2.0000      -1.010349       -27.4930
  25   2.0000      -0.987634       -26.8749
  26   2.0000      -0.913891       -24.8682
  27   2.0000      -0.909480       -24.7482
  28   2.0000      -0.871469       -23.7139
  29   2.0000      -0.860676       -23.4202
  30   2.0000      -0.845213       -22.9994
  31   2.0000      -0.811810       -22.0905
  32   2.0000      -0.786574       -21.4038
  33   2.0000      -0.771448       -20.9922
  34   2.0000      -0.711991       -19.3743
  35   2.0000      -0.700900       -19.0725
  36   2.0000      -0.685043       -18.6410
  37   2.0000      -0.655335       -17.8326
  38   2.0000      -0.640343       -17.4246
  39   2.0000      -0.620171       -16.8757
  40   2.0000      -0.601701       -16.3731
  41   2.0000      -0.570268       -15.5178
  42   2.0000      -0.567762       -15.4496
  43   2.0000      -0.559743       -15.2314
  44   2.0000      -0.527523       -14.3546
  45   2.0000      -0.521605       -14.1936
  46   2.0000      -0.516444       -14.0531
  47   2.0000      -0.512171       -13.9369
  48   2.0000      -0.506545       -13.7838
  49   2.0000      -0.498569       -13.5667
  50   2.0000      -0.492649       -13.4057
  51   2.0000      -0.477847       -13.0029
  52   2.0000      -0.472426       -12.8554
  53   2.0000      -0.466692       -12.6993
  54   2.0000      -0.463085       -12.6012
  55   2.0000      -0.454212       -12.3597
  56   2.0000      -0.448717       -12.2102
  57   2.0000      -0.439339       -11.9550
  58   2.0000      -0.433603       -11.7990
  59   2.0000      -0.425889       -11.5890
  60   2.0000      -0.419429       -11.4132
  61   2.0000      -0.416163       -11.3244
  62   2.0000      -0.405334       -11.0297
  63   2.0000      -0.343009        -9.3338
  64   2.0000      -0.330274        -8.9872
  65   2.0000      -0.326361        -8.8807
  66   2.0000      -0.292703        -7.9649
  67   0.0000       0.035816         0.9746
  68   0.0000       0.069185         1.8826
  69   0.0000       0.108330         2.9478
  70   0.0000       0.117913         3.2086
  71   0.0000       0.130389         3.5481

MULLIKEN ATOMIC CHARGES
-----------------------
   0 S :    0.143735
   1 C :   -0.130983
   2 C :   -0.075847
   3 C :    0.050560
   4 C :   -0.184609
   5 H :   -0.011582
   6 C :    0.053727
   7 H :    0.020840
   8 H :    0.025783
   9 C :   -0.037015
  10 H :    0.017038
  11 H :    0.011905
  12 C :   -0.031955
  13 H :    0.035263
  14 H :    0.026084
  15 H :    0.028842
  16 S :    0.117792
  17 C :   -0.080798
  18 C :   -0.063085
  19 C :   -0.013354
  20 C :   -0.178932
  21 H :    0.040165
  22 C :    0.174886
  23 H :    0.020162
  24 H :    0.012066
  25 C :   -0.182671
  26 H :    0.039334
  27 H :    0.032725
  28 C :   -0.046938
  29 H :    0.037784
  30 H :    0.041371
  31 H :    0.028354
  32 H :    0.039991
  33 H :    0.039362
Sum of atomic charges:    0.0000000

LOEWDIN ATOMIC CHARGES
----------------------
   0 S :    0.433570
   1 C :   -0.210314
   2 C :   -0.065812
   3 C :   -0.046010
   4 C :   -0.200120
   5 H :    0.022894
   6 C :   -0.032255
   7 H :    0.033924
   8 H :    0.030496
   9 C :   -0.034657
  10 H :    0.024032
  11 H :    0.017732
  12 C :   -0.062227
  13 H :    0.023977
  14 H :    0.030911
  15 H :    0.024994
  16 S :    0.412279
  17 C :   -0.189973
  18 C :   -0.077361
  19 C :   -0.051491
  20 C :   -0.204125
  21 H :    0.039310
  22 C :   -0.022341
  23 H :    0.025694
  24 H :    0.027822
  25 C :   -0.051109
  26 H :    0.020730
  27 H :    0.027285
  28 C :   -0.073707
  29 H :    0.025288
  30 H :    0.026171
  31 H :    0.029367
  32 H :    0.022576
  33 H :    0.022450

  Mayer bond orders larger than 0.100000
B(  0-S ,  1-C ) :   1.1636 B(  0-S ,  4-C ) :   1.1539 B(  1-C ,  2-C ) :   1.5725
B(  1-C ,  4-C ) :   0.1008 B(  1-C , 32-H ) :   0.9600 B(  2-C ,  3-C ) :   1.2907
B(  2-C ,  6-C ) :   1.0198 B(  3-C ,  4-C ) :   1.5343 B(  3-C ,  5-H ) :   1.0011
B(  4-C , 20-C ) :   1.0506 B(  6-C ,  7-H ) :   0.9421 B(  6-C ,  8-H ) :   0.9361
B(  6-C ,  9-C ) :   1.0590 B(  9-C , 10-H ) :   0.9498 B(  9-C , 11-H ) :   0.9562
B(  9-C , 12-C ) :   1.0900 B( 12-C , 13-H ) :   0.9759 B( 12-C , 14-H ) :   0.9714
B( 12-C , 15-H ) :   0.9751 B( 16-S , 17-C ) :   1.1434 B( 16-S , 20-C ) :   1.1468
B( 17-C , 18-C ) :   1.6340 B( 17-C , 33-H ) :   0.9730 B( 18-C , 19-C ) :   1.2309
B( 18-C , 21-H ) :   0.9704 B( 19-C , 20-C ) :   1.5888 B( 19-C , 22-C ) :   1.0543
B( 22-C , 23-H ) :   0.9325 B( 22-C , 24-H ) :   0.9206 B( 22-C , 25-C ) :   1.0416
B( 25-C , 26-H ) :   0.9566 B( 25-C , 27-H ) :   0.9591 B( 25-C , 28-C ) :   1.0785
B( 28-C , 29-H ) :   0.9728 B( 28-C , 30-H ) :   0.9751 B( 28-C , 31-H ) :   0.9742

Dispersion correction           -0.013795208
FINAL SINGLE POINT ENERGY     -1339.875134809363

DIPOLE MOMENT
-------------
                                X             Y             Z
Electronic contribution:    -12.10470       5.74351     -15.61968
Nuclear contribution   :     12.29835      -5.76063      16.09026
                        -----------------------------------------
Total Dipole Moment    :      0.19365      -0.01712       0.47058
                        -----------------------------------------
Magnitude (a.u.)       :      0.50915
Magnitude (Debye)      :      1.29416

Rotational constants in cm-1:     0.018874     0.007604     0.006413
Rotational constants in MHz :   565.824485   227.968326   192.255937

                             ****ORCA TERMINATED NORMALLY****
TOTAL RUN TIME: 0 days 0 hours 0 minutes 30 seconds 996 msec
