                         Program Version 4.2.1 -  RELEASE  -
|  1> ! wB97X-D3 SP def2-SVP
|  2> %pal
|  3> nprocs 16
|  4> end
|  5>
|  6> * xyz 0 1
|  7> S 	 -48.3479 	 34.3661 	 95.2229
|  8> C 	 -49.9433 	 34.8883 	 94.6453
|  9> C 	 -50.612 	 35.6694 	 95.5605
| 10> C 	 -49.9134 	 35.729 	 96.7437
| 11> C 	 -48.7262 	 35.0199 	 96.8183
| 12> H 	 -50.1588 	 36.3255 	 97.5645
| 13> C 	 -52.0289 	 36.1293 	 95.4026
| 14> H 	 -52.1968 	 36.4418 	 94.3538
| 15> H 	 -52.2829 	 37.0733 	 95.9327
| 16> C 	 -53.0501 	 35.0615 	 95.7308
| 17> H 	 -54.0231 	 35.4268 	 95.3559
| 18> H 	 -52.7491 	 34.1583 	 95.2188
| 19> C 	 -53.0587 	 34.7786 	 97.1751
| 20> H 	 -52.1427 	 34.2812 	 97.5069
| 21> H 	 -53.1785 	 35.7162 	 97.7473
| 22> H 	 -53.9338 	 34.2777 	 97.4448
| 23> S 	 -46.2874 	 36.0344 	 97.69
| 24> C 	 -45.7439 	 35.6136 	 99.2865
| 25> C 	 -46.4159 	 34.6104 	 99.8673
| 26> C 	 -47.6693 	 34.4141 	 99.1536
| 27> C 	 -47.7455 	 35.0865 	 97.9048
| 28> H 	 -46.0454 	 34.0082 	 100.749
| 29> C 	 -48.7258 	 33.433 	 99.7343
| 30> H 	 -48.1794 	 32.5305 	 100.017
| 31> H 	 -49.3639 	 33.2084 	 98.9382
| 32> C 	 -49.5551 	 33.9798 	 100.939
| 33> H 	 -48.9648 	 34.0216 	 101.872
| 34> H 	 -50.3339 	 33.2963 	 101.331
| 35> C 	 -50.2233 	 35.2614 	 100.699
| 36> H 	 -51.2118 	 35.1505 	 100.162
| 37> H 	 -49.6639 	 36.0039 	 100.121
| 38> H 	 -50.5679 	 35.7387 	 101.626
| 39> H 	 -50.3444 	 34.6993 	 93.6384
| 40> H 	 -44.8318 	 35.9306 	 99.6524
| 41> *
| 42>
| 43>                          ****END OF INPUT****

CARTESIAN COORDINATES (ANGSTROEM)
---------------------------------
  S    -48.347900   34.366100   95.222900
  C    -49.943300   34.888300   94.645300
  C    -50.612000   35.669400   95.560500
  C    -49.913400   35.729000   96.743700
  C    -48.726200   35.019900   96.818300
  H    -50.158800   36.325500   97.564500
  C    -52.028900   36.129300   95.402600
  H    -52.196800   36.441800   94.353800
  H    -52.282900   37.073300   95.932700
  C    -53.050100   35.061500   95.730800
  H    -54.023100   35.426800   95.355900
  H    -52.749100   34.158300   95.218800
  C    -53.058700   34.778600   97.175100
  H    -52.142700   34.281200   97.506900
  H    -53.178500   35.716200   97.747300
  H    -53.933800   34.277700   97.444800
  S    -46.287400   36.034400   97.690000
  C    -45.743900   35.613600   99.286500
  C    -46.415900   34.610400   99.867300
  C    -47.669300   34.414100   99.153600
  C    -47.745500   35.086500   97.904800
  H    -46.045400   34.008200  100.749000
  C    -48.725800   33.433000   99.734300
  H    -48.179400   32.530500  100.017000
  H    -49.363900   33.208400   98.938200
  C    -49.555100   33.979800  100.939000
  H    -48.964800   34.021600  101.872000
  H    -50.333900   33.296300  101.331000
  C    -50.223300   35.261400  100.699000
  H    -51.211800   35.150500  100.162000
  H    -49.663900   36.003900  100.121000
  H    -50.567900   35.738700  101.626000
  H    -50.344400   34.699300   93.638400
  H    -44.831800   35.930600   99.652400

 Total Charge           Charge          ....    0
 Multiplicity           Mult            ....    1
 Number of Electrons    NEL             ....  134
 Basis Dimension        Dim             ....  322

ORBITAL ENERGIES
----------------

  NO   OCC          E(Eh)            E(eV)
   0   2.0000     -88.969757     -2420.9902
   1   2.0000     -88.963550     -2420.8213
   2   2.0000     -10.328993      -281.0662
   3   2.0000     -10.328818      -281.0614
   4   2.0000     -10.317932      -280.7652
   5   2.0000     -10.309776      -280.5433
   6   2.0000     -10.308156      -280.4992
   7   2.0000     -10.296923      -280.1935
   8   2.0000     -10.294689      -280.1327
   9   2.0000     -10.290871      -280.0288
  10   2.0000     -10.289250      -279.9847
  11   2.0000     -10.285409      -279.8802
  12   2.0000     -10.284938      -279.8674
  13   2.0000     -10.280572      -279.7486
  14   2.0000     -10.272678      -279.5338
  15   2.0000     -10.266771      -279.3730
  16   2.0000      -8.083610      -219.9662
  17   2.0000      -8.078730      -219.8334
  18   2.0000      -6.042095      -164.4138
  19   2.0000      -6.038263      -164.3095
  20   2.0000      -6.037261      -164.2822
  21   2.0000      -6.034432      -164.2052
  22   2.0000      -6.033273      -164.1737
  23   2.0000      -6.029339      -164.0667
  24   2.0000      -1.006233       -27.3810
  25   2.0000      -0.986974       -26.8569
  26   2.0000      -0.922568       -25.1043
  27   2.0000      -0.905812       -24.6484
  28   2.0000      -0.872128       -23.7318
  29   2.0000      -0.850229       -23.1359
  30   2.0000      -0.846263       -23.0280
  31   2.0000      -0.818355       -22.2686
  32   2.0000      -0.785520       -21.3751
  33   2.0000      -0.770665       -20.9709
  34   2.0000      -0.705362       -19.1939
  35   2.0000      -0.697484       -18.9795
  36   2.0000      -0.693008       -18.8577
  37   2.0000      -0.653889       -17.7932
  38   2.0000      -0.643929       -17.5222
  39   2.0000      -0.618927       -16.8419
  40   2.0000      -0.593209       -16.1420
  41   2.0000      -0.583501       -15.8779
  42   2.0000      -0.556975       -15.1561
  43   2.0000      -0.555299       -15.1105
  44   2.0000      -0.546460       -14.8699
  45   2.0000      -0.537754       -14.6330
  46   2.0000      -0.510221       -13.8838
  47   2.0000      -0.507472       -13.8090
  48   2.0000      -0.499149       -13.5825
  49   2.0000      -0.496434       -13.5087
  50   2.0000      -0.493933       -13.4406
  51   2.0000      -0.483494       -13.1565
  52   2.0000      -0.471362       -12.8264
  53   2.0000      -0.461592       -12.5606
  54   2.0000      -0.456867       -12.4320
  55   2.0000      -0.449376       -12.2281
  56   2.0000      -0.441895       -12.0246
  57   2.0000      -0.436779       -11.8854
  58   2.0000      -0.429337       -11.6829
  59   2.0000      -0.425535       -11.5794
  60   2.0000      -0.423130       -11.5140
  61   2.0000      -0.420946       -11.4545
  62   2.0000      -0.397489       -10.8162
  63   2.0000      -0.342044        -9.3075
  64   2.0000      -0.332996        -9.0613
  65   2.0000      -0.323645        -8.8068
  66   2.0000      -0.300178        -8.1683
  67   0.0000       0.037265         1.0140
  68   0.0000       0.053994         1.4692
  69   0.0000       0.108225         2.9450
  70   0.0000       0.116803         3.1784
  71   0.0000       0.132520         3.6060

MULLIKEN ATOMIC CHARGES
-----------------------
   0 S :    0.115581
   1 C :   -0.135907
   2 C :   -0.050205
   3 C :    0.049359
   4 C :   -0.165848
   5 H :   -0.014732
   6 C :    0.031994
   7 H :    0.018075
   8 H :    0.026820
   9 C :   -0.032186
  10 H :    0.028654
  11 H :    0.020352
  12 C :   -0.033303
  13 H :    0.057080
  14 H :    0.010645
  15 H :    0.016156
  16 S :    0.108497
  17 C :   -0.049780
  18 C :   -0.037184
  19 C :   -0.096090
  20 C :   -0.166341
  21 H :    0.050774
  22 C :    0.121756
  23 H :    0.028741
  24 H :    0.012575
  25 C :   -0.059820
  26 H :    0.018798
  27 H :    0.026475
  28 C :   -0.080126
  29 H :    0.027271
  30 H :    0.049408
  31 H :    0.026024
  32 H :    0.052334
  33 H :    0.024153
Sum of atomic charges:    0.0000000

LOEWDIN ATOMIC CHARGES
----------------------
   0 S :    0.396492
   1 C :   -0.181897
   2 C :   -0.071425
   3 C :   -0.048706
   4 C :   -0.198025
   5 H :    0.022525
   6 C :   -0.034796
   7 H :    0.029857
   8 H :    0.031171
   9 C :   -0.036640
  10 H :    0.026489
  11 H :    0.023766
  12 C :   -0.064122
  13 H :    0.030451
  14 H :    0.024013
  15 H :    0.018801
  16 S :    0.405724
  17 C :   -0.170504
  18 C :   -0.074773
  19 C :   -0.044902
  20 C :   -0.212574
  21 H :    0.047708
  22 C :   -0.021052
  23 H :    0.033750
  24 H :    0.020426
  25 C :   -0.052504
  26 H :    0.022955
  27 H :    0.031054
  28 C :   -0.076815
  29 H :    0.028453
  30 H :    0.023590
  31 H :    0.028637
  32 H :    0.031435
  33 H :    0.011438

  Mayer bond orders larger than 0.100000
B(  0-S ,  1-C ) :   1.1544 B(  0-S ,  4-C ) :   1.1428 B(  1-C ,  2-C ) :   1.5846
B(  1-C ,  4-C ) :   0.1071 B(  1-C , 32-H ) :   0.9604 B(  2-C ,  3-C ) :   1.2708
B(  2-C ,  6-C ) :   1.0357 B(  3-C ,  4-C ) :   1.5638 B(  3-C ,  5-H ) :   1.0022
B(  4-C , 20-C ) :   1.0337 B(  6-C ,  7-H ) :   0.9317 B(  6-C ,  8-H ) :   0.9422
B(  6-C ,  9-C ) :   1.0776 B(  9-C , 10-H ) :   0.9502 B(  9-C , 11-H ) :   0.9464
B(  9-C , 12-C ) :   1.1001 B( 12-C , 13-H ) :   0.9664 B( 12-C , 14-H ) :   0.9669
B( 12-C , 15-H ) :   0.9651 B( 16-S , 17-C ) :   1.1559 B( 16-S , 20-C ) :   1.1324
B( 17-C , 18-C ) :   1.6392 B( 17-C , 33-H ) :   0.9687 B( 18-C , 19-C ) :   1.2191
B( 18-C , 21-H ) :   0.9803 B( 19-C , 20-C ) :   1.6073 B( 19-C , 22-C ) :   1.0423
B( 22-C , 23-H ) :   0.9385 B( 22-C , 24-H ) :   0.9348 B( 22-C , 25-C ) :   1.0600
B( 25-C , 26-H ) :   0.9556 B( 25-C , 27-H ) :   0.9509 B( 25-C , 28-C ) :   1.0885
B( 28-C , 29-H ) :   0.9710 B( 28-C , 30-H ) :   0.9713 B( 28-C , 31-H ) :   0.9650

Dispersion correction           -0.016060295
FINAL SINGLE POINT ENERGY     -1339.870139042747

DIPOLE MOMENT
-------------
                                X             Y             Z
Electronic contribution:     25.43694       2.01023     -12.85806
Nuclear contribution   :    -25.88713      -2.10149      13.18283
                        -----------------------------------------
Total Dipole Moment    :     -0.45019      -0.09126       0.32477
                        -----------------------------------------
Magnitude (a.u.)       :      0.56256
Magnitude (Debye)      :      1.42991

Rotational constants in cm-1:     0.019168     0.010195     0.007487
Rotational constants in MHz :   574.641721   305.635255   224.450621

                             ****ORCA TERMINATED NORMALLY****
TOTAL RUN TIME: 0 days 0 hours 0 minutes 32 seconds 732 msec
