                         Program Version 4.2.1 -  RELEASE  -
|  1> ! wB97X-D3 SP def2-SVP
|  2> %pal
|  3> nprocs 16
|  4> end
|  5>
|  6> * xyz 0 1
|  7> S 	 -17.3629 	 30.7787 	 39.6153
|  8> C 	 -17.9685 	 32.2799 	 40.234
|  9> C 	 -18.5013 	 33.0949 	 39.2152
| 10> C 	 -18.3843 	 32.4434 	 37.9311
| 11> C 	 -17.5701 	 31.2802 	 37.9064
| 12> H 	 -18.7584 	 32.8301 	 36.9275
| 13> C 	 -19.3208 	 34.373 	 39.3953
| 14> H 	 -19.5386 	 34.4142 	 40.4866
| 15> H 	 -20.1779 	 34.2913 	 38.7769
| 16> C 	 -18.5421 	 35.6988 	 39.0608
| 17> H 	 -17.5254 	 35.6572 	 39.5481
| 18> H 	 -18.324 	 35.6471 	 38.0119
| 19> C 	 -19.2716 	 36.9311 	 39.5037
| 20> H 	 -18.9058 	 37.94 	 39.3131
| 21> H 	 -20.2283 	 36.9726 	 39.0438
| 22> H 	 -19.4611 	 36.9609 	 40.6047
| 23> S 	 -17.7347 	 28.7887 	 36.8737
| 24> C 	 -17.2113 	 28.4198 	 35.2045
| 25> C 	 -16.7063 	 29.5704 	 34.5617
| 26> C 	 -16.8682 	 30.7349 	 35.4287
| 27> C 	 -17.2633 	 30.4884 	 36.6909
| 28> H 	 -16.1857 	 29.461 	 33.6063
| 29> C 	 -16.2979 	 32.0651 	 35.0291
| 30> H 	 -15.3098 	 31.7663 	 34.5632
| 31> H 	 -16.0804 	 32.5765 	 35.9143
| 32> C 	 -17.1508 	 32.8704 	 33.9418
| 33> H 	 -18.1349 	 33.2191 	 34.3203
| 34> H 	 -17.3402 	 32.2774 	 33.0139
| 35> C 	 -16.5021 	 34.1519 	 33.4525
| 36> H 	 -16.5497 	 34.9802 	 34.1624
| 37> H 	 -16.7978 	 34.41 	 32.404
| 38> H 	 -15.4387 	 33.9305 	 33.1892
| 39> H 	 -18.1062 	 32.4727 	 41.2907
| 40> H 	 -17.1511 	 27.3896 	 34.8933
| 41> *
| 42>
| 43>                          ****END OF INPUT****

CARTESIAN COORDINATES (ANGSTROEM)
---------------------------------
  S    -17.362900   30.778700   39.615300
  C    -17.968500   32.279900   40.234000
  C    -18.501300   33.094900   39.215200
  C    -18.384300   32.443400   37.931100
  C    -17.570100   31.280200   37.906400
  H    -18.758400   32.830100   36.927500
  C    -19.320800   34.373000   39.395300
  H    -19.538600   34.414200   40.486600
  H    -20.177900   34.291300   38.776900
  C    -18.542100   35.698800   39.060800
  H    -17.525400   35.657200   39.548100
  H    -18.324000   35.647100   38.011900
  C    -19.271600   36.931100   39.503700
  H    -18.905800   37.940000   39.313100
  H    -20.228300   36.972600   39.043800
  H    -19.461100   36.960900   40.604700
  S    -17.734700   28.788700   36.873700
  C    -17.211300   28.419800   35.204500
  C    -16.706300   29.570400   34.561700
  C    -16.868200   30.734900   35.428700
  C    -17.263300   30.488400   36.690900
  H    -16.185700   29.461000   33.606300
  C    -16.297900   32.065100   35.029100
  H    -15.309800   31.766300   34.563200
  H    -16.080400   32.576500   35.914300
  C    -17.150800   32.870400   33.941800
  H    -18.134900   33.219100   34.320300
  H    -17.340200   32.277400   33.013900
  C    -16.502100   34.151900   33.452500
  H    -16.549700   34.980200   34.162400
  H    -16.797800   34.410000   32.404000
  H    -15.438700   33.930500   33.189200
  H    -18.106200   32.472700   41.290700
  H    -17.151100   27.389600   34.893300

 Total Charge           Charge          ....    0
 Multiplicity           Mult            ....    1
 Number of Electrons    NEL             ....  134
 Basis Dimension        Dim             ....  322

ORBITAL ENERGIES
----------------

  NO   OCC          E(Eh)            E(eV)
   0   2.0000     -88.971781     -2421.0452
   1   2.0000     -88.959390     -2420.7081
   2   2.0000     -10.340109      -281.3687
   3   2.0000     -10.329043      -281.0675
   4   2.0000     -10.325237      -280.9640
   5   2.0000     -10.321370      -280.8588
   6   2.0000     -10.309116      -280.5253
   7   2.0000     -10.306142      -280.4444
   8   2.0000     -10.305657      -280.4312
   9   2.0000     -10.304852      -280.4093
  10   2.0000     -10.297849      -280.2187
  11   2.0000     -10.296268      -280.1757
  12   2.0000     -10.294106      -280.1169
  13   2.0000     -10.290772      -280.0261
  14   2.0000     -10.281771      -279.7812
  15   2.0000     -10.278000      -279.6786
  16   2.0000      -8.085622      -220.0210
  17   2.0000      -8.073874      -219.7013
  18   2.0000      -6.044268      -164.4729
  19   2.0000      -6.040212      -164.3625
  20   2.0000      -6.036321      -164.2566
  21   2.0000      -6.032513      -164.1530
  22   2.0000      -6.028459      -164.0427
  23   2.0000      -6.024462      -163.9340
  24   2.0000      -1.000720       -27.2310
  25   2.0000      -0.978907       -26.6374
  26   2.0000      -0.909216       -24.7410
  27   2.0000      -0.901679       -24.5359
  28   2.0000      -0.867655       -23.6101
  29   2.0000      -0.853799       -23.2331
  30   2.0000      -0.846699       -23.0398
  31   2.0000      -0.812574       -22.1113
  32   2.0000      -0.777689       -21.1620
  33   2.0000      -0.769256       -20.9325
  34   2.0000      -0.704487       -19.1701
  35   2.0000      -0.698686       -19.0122
  36   2.0000      -0.694062       -18.8864
  37   2.0000      -0.668575       -18.1929
  38   2.0000      -0.638983       -17.3876
  39   2.0000      -0.613591       -16.6966
  40   2.0000      -0.589192       -16.0327
  41   2.0000      -0.571969       -15.5641
  42   2.0000      -0.566159       -15.4060
  43   2.0000      -0.558417       -15.1953
  44   2.0000      -0.530749       -14.4424
  45   2.0000      -0.521579       -14.1929
  46   2.0000      -0.515079       -14.0160
  47   2.0000      -0.512338       -13.9414
  48   2.0000      -0.508814       -13.8455
  49   2.0000      -0.500712       -13.6251
  50   2.0000      -0.492477       -13.4010
  51   2.0000      -0.474690       -12.9170
  52   2.0000      -0.472819       -12.8661
  53   2.0000      -0.465955       -12.6793
  54   2.0000      -0.456665       -12.4265
  55   2.0000      -0.448452       -12.2030
  56   2.0000      -0.440085       -11.9753
  57   2.0000      -0.431165       -11.7326
  58   2.0000      -0.429885       -11.6978
  59   2.0000      -0.424960       -11.5638
  60   2.0000      -0.421106       -11.4589
  61   2.0000      -0.416967       -11.3462
  62   2.0000      -0.411845       -11.2069
  63   2.0000      -0.348751        -9.4900
  64   2.0000      -0.328926        -8.9505
  65   2.0000      -0.326517        -8.8850
  66   2.0000      -0.293689        -7.9917
  67   0.0000       0.022929         0.6239
  68   0.0000       0.066612         1.8126
  69   0.0000       0.103007         2.8030
  70   0.0000       0.115226         3.1355
  71   0.0000       0.124980         3.4009

MULLIKEN ATOMIC CHARGES
-----------------------
   0 S :    0.115459
   1 C :   -0.110160
   2 C :   -0.101003
   3 C :    0.007394
   4 C :   -0.149860
   5 H :    0.040411
   6 C :    0.062981
   7 H :    0.022499
   8 H :    0.032388
   9 C :   -0.069001
  10 H :    0.036614
  11 H :    0.021615
  12 C :   -0.032424
  13 H :    0.032423
  14 H :    0.014210
  15 H :    0.029972
  16 S :    0.066259
  17 C :   -0.097965
  18 C :   -0.027331
  19 C :   -0.049816
  20 C :   -0.123342
  21 H :    0.038668
  22 C :    0.045532
  23 H :    0.034300
  24 H :    0.020054
  25 C :   -0.083545
  26 H :    0.034617
  27 H :    0.035551
  28 C :   -0.062509
  29 H :    0.046022
  30 H :    0.033580
  31 H :    0.016359
  32 H :    0.056383
  33 H :    0.063666
Sum of atomic charges:   -0.0000000

LOEWDIN ATOMIC CHARGES
----------------------
   0 S :    0.403682
   1 C :   -0.200190
   2 C :   -0.066235
   3 C :   -0.064610
   4 C :   -0.195913
   5 H :    0.039642
   6 C :   -0.021921
   7 H :    0.032391
   8 H :    0.027708
   9 C :   -0.042297
  10 H :    0.030606
  11 H :    0.018686
  12 C :   -0.074853
  13 H :    0.028494
  14 H :    0.020586
  15 H :    0.030491
  16 S :    0.367575
  17 C :   -0.162191
  18 C :   -0.068893
  19 C :   -0.062257
  20 C :   -0.182900
  21 H :    0.038718
  22 C :   -0.025556
  23 H :    0.039681
  24 H :    0.021807
  25 C :   -0.045383
  26 H :    0.023992
  27 H :    0.030399
  28 C :   -0.078733
  29 H :    0.024304
  30 H :    0.032323
  31 H :    0.025078
  32 H :    0.030433
  33 H :    0.025335

  Mayer bond orders larger than 0.100000
B(  0-S ,  1-C ) :   1.1541 B(  0-S ,  4-C ) :   1.1443 B(  1-C ,  2-C ) :   1.5828
B(  1-C ,  4-C ) :   0.1037 B(  1-C , 32-H ) :   0.9651 B(  2-C ,  3-C ) :   1.2616
B(  2-C ,  6-C ) :   1.0288 B(  3-C ,  4-C ) :   1.5485 B(  3-C ,  5-H ) :   0.9758
B(  4-C , 20-C ) :   1.0382 B(  6-C ,  7-H ) :   0.9443 B(  6-C ,  8-H ) :   0.9425
B(  6-C ,  9-C ) :   1.0509 B(  9-C , 10-H ) :   0.9577 B(  9-C , 11-H ) :   0.9567
B(  9-C , 12-C ) :   1.0808 B( 12-C , 13-H ) :   0.9740 B( 12-C , 14-H ) :   0.9696
B( 12-C , 15-H ) :   0.9727 B( 16-S , 17-C ) :   1.1506 B( 16-S , 20-C ) :   1.1052
B( 17-C , 18-C ) :   1.6292 B( 17-C , 33-H ) :   0.9692 B( 18-C , 19-C ) :   1.1809
B( 18-C , 21-H ) :   0.9889 B( 19-C , 20-C ) :   1.6727 B( 19-C , 22-C ) :   1.0462
B( 22-C , 23-H ) :   0.9394 B( 22-C , 24-H ) :   0.9464 B( 22-C , 25-C ) :   1.0415
B( 25-C , 26-H ) :   0.9574 B( 25-C , 27-H ) :   0.9583 B( 25-C , 28-C ) :   1.0862
B( 28-C , 29-H ) :   0.9772 B( 28-C , 30-H ) :   0.9729 B( 28-C , 31-H ) :   0.9682

Dispersion correction           -0.013584299
FINAL SINGLE POINT ENERGY     -1339.862432825525

DIPOLE MOMENT
-------------
                                X             Y             Z
Electronic contribution:      2.03341     -31.13400       9.90249
Nuclear contribution   :     -2.08595      31.66557     -10.23768
                        -----------------------------------------
Total Dipole Moment    :     -0.05254       0.53156      -0.33519
                        -----------------------------------------
Magnitude (a.u.)       :      0.63061
Magnitude (Debye)      :      1.60289

Rotational constants in cm-1:     0.016624     0.008899     0.006100
Rotational constants in MHz :   498.380026   266.794555   182.863717

                             ****ORCA TERMINATED NORMALLY****
TOTAL RUN TIME: 0 days 0 hours 0 minutes 32 seconds 845 msec
