                         Program Version 4.2.1 -  RELEASE  -
|  1> ! wB97X-D3 SP def2-SVP
|  2> %pal
|  3> nprocs 16
|  4> end
|  5>
|  6> * xyz 0 1
|  7> S 	 -18.9182 	 33.1708 	 35.1742
|  8> C 	 -18.2025 	 34.6326 	 35.7128
|  9> C 	 -17.552 	 35.255 	 34.6232
| 10> C 	 -17.579 	 34.3865 	 33.4681
| 11> C 	 -18.1585 	 33.1514 	 33.6686
| 12> H 	 -17.0337 	 34.5464 	 32.6103
| 13> C 	 -16.9594 	 36.7015 	 34.5847
| 14> H 	 -16.7558 	 36.9448 	 33.5549
| 15> H 	 -16.0045 	 36.7267 	 35.1531
| 16> C 	 -17.8396 	 37.7797 	 35.166
| 17> H 	 -18.7693 	 37.9522 	 34.5533
| 18> H 	 -18.0976 	 37.4082 	 36.143
| 19> C 	 -17.1635 	 39.1216 	 35.2857
| 20> H 	 -16.1654 	 38.9561 	 35.7043
| 21> H 	 -17.0987 	 39.6521 	 34.345
| 22> H 	 -17.6406 	 39.7472 	 36.0901
| 23> S 	 -19.6501 	 30.8922 	 33.0687
| 24> C 	 -18.9673 	 29.8012 	 31.7794
| 25> C 	 -17.834 	 30.2736 	 31.2202
| 26> C 	 -17.4421 	 31.5773 	 31.7321
| 27> C 	 -18.2727 	 32.0043 	 32.7736
| 28> H 	 -17.4458 	 29.6469 	 30.375
| 29> C 	 -16.1792 	 32.2347 	 31.2447
| 30> H 	 -15.3524 	 31.4489 	 31.2078
| 31> H 	 -15.8069 	 33.0114 	 31.9476
| 32> C 	 -16.179 	 32.9853 	 29.9139
| 33> H 	 -16.1257 	 32.3034 	 29.0896
| 34> H 	 -15.1457 	 33.4112 	 29.8964
| 35> C 	 -17.3325 	 33.9689 	 29.7858
| 36> H 	 -17.4004 	 34.4526 	 28.8041
| 37> H 	 -17.329 	 34.7845 	 30.4992
| 38> H 	 -18.1951 	 33.3694 	 29.9104
| 39> H 	 -18.4645 	 35.226 	 36.615
| 40> H 	 -19.2709 	 28.8811 	 31.4389
| 41> *
| 42>
| 43>                          ****END OF INPUT****

CARTESIAN COORDINATES (ANGSTROEM)
---------------------------------
  S    -18.918200   33.170800   35.174200
  C    -18.202500   34.632600   35.712800
  C    -17.552000   35.255000   34.623200
  C    -17.579000   34.386500   33.468100
  C    -18.158500   33.151400   33.668600
  H    -17.033700   34.546400   32.610300
  C    -16.959400   36.701500   34.584700
  H    -16.755800   36.944800   33.554900
  H    -16.004500   36.726700   35.153100
  C    -17.839600   37.779700   35.166000
  H    -18.769300   37.952200   34.553300
  H    -18.097600   37.408200   36.143000
  C    -17.163500   39.121600   35.285700
  H    -16.165400   38.956100   35.704300
  H    -17.098700   39.652100   34.345000
  H    -17.640600   39.747200   36.090100
  S    -19.650100   30.892200   33.068700
  C    -18.967300   29.801200   31.779400
  C    -17.834000   30.273600   31.220200
  C    -17.442100   31.577300   31.732100
  C    -18.272700   32.004300   32.773600
  H    -17.445800   29.646900   30.375000
  C    -16.179200   32.234700   31.244700
  H    -15.352400   31.448900   31.207800
  H    -15.806900   33.011400   31.947600
  C    -16.179000   32.985300   29.913900
  H    -16.125700   32.303400   29.089600
  H    -15.145700   33.411200   29.896400
  C    -17.332500   33.968900   29.785800
  H    -17.400400   34.452600   28.804100
  H    -17.329000   34.784500   30.499200
  H    -18.195100   33.369400   29.910400
  H    -18.464500   35.226000   36.615000
  H    -19.270900   28.881100   31.438900

 Total Charge           Charge          ....    0
 Multiplicity           Mult            ....    1
 Number of Electrons    NEL             ....  134
 Basis Dimension        Dim             ....  322

ORBITAL ENERGIES
----------------

  NO   OCC          E(Eh)            E(eV)
   0   2.0000     -88.969983     -2420.9963
   1   2.0000     -88.965597     -2420.8770
   2   2.0000     -10.337726      -281.3038
   3   2.0000     -10.326753      -281.0052
   4   2.0000     -10.316308      -280.7210
   5   2.0000     -10.315251      -280.6923
   6   2.0000     -10.310963      -280.5756
   7   2.0000     -10.307750      -280.4881
   8   2.0000     -10.299110      -280.2530
   9   2.0000     -10.297268      -280.2029
  10   2.0000     -10.295719      -280.1608
  11   2.0000     -10.287315      -279.9321
  12   2.0000     -10.286975      -279.9228
  13   2.0000     -10.285997      -279.8962
  14   2.0000     -10.280902      -279.7576
  15   2.0000     -10.273782      -279.5638
  16   2.0000      -8.082911      -219.9472
  17   2.0000      -8.082008      -219.9226
  18   2.0000      -6.041749      -164.4043
  19   2.0000      -6.040439      -164.3687
  20   2.0000      -6.037943      -164.3008
  21   2.0000      -6.036162      -164.2523
  22   2.0000      -6.033159      -164.1706
  23   2.0000      -6.032849      -164.1622
  24   2.0000      -1.012467       -27.5506
  25   2.0000      -0.980932       -26.6925
  26   2.0000      -0.916813       -24.9477
  27   2.0000      -0.911440       -24.8016
  28   2.0000      -0.874300       -23.7909
  29   2.0000      -0.851965       -23.1831
  30   2.0000      -0.842851       -22.9351
  31   2.0000      -0.819986       -22.3130
  32   2.0000      -0.783897       -21.3309
  33   2.0000      -0.776674       -21.1344
  34   2.0000      -0.711478       -19.3603
  35   2.0000      -0.699240       -19.0273
  36   2.0000      -0.690318       -18.7845
  37   2.0000      -0.660599       -17.9758
  38   2.0000      -0.638446       -17.3730
  39   2.0000      -0.621120       -16.9015
  40   2.0000      -0.594491       -16.1769
  41   2.0000      -0.580918       -15.8076
  42   2.0000      -0.566597       -15.4179
  43   2.0000      -0.554423       -15.0866
  44   2.0000      -0.542319       -14.7573
  45   2.0000      -0.520821       -14.1723
  46   2.0000      -0.519333       -14.1318
  47   2.0000      -0.512654       -13.9500
  48   2.0000      -0.505700       -13.7608
  49   2.0000      -0.502822       -13.6825
  50   2.0000      -0.488535       -13.2937
  51   2.0000      -0.478661       -13.0250
  52   2.0000      -0.475739       -12.9455
  53   2.0000      -0.468806       -12.7569
  54   2.0000      -0.464135       -12.6298
  55   2.0000      -0.451102       -12.2751
  56   2.0000      -0.445245       -12.1157
  57   2.0000      -0.435226       -11.8431
  58   2.0000      -0.428241       -11.6530
  59   2.0000      -0.423724       -11.5301
  60   2.0000      -0.421813       -11.4781
  61   2.0000      -0.412930       -11.2364
  62   2.0000      -0.410314       -11.1652
  63   2.0000      -0.362056        -9.8521
  64   2.0000      -0.336373        -9.1532
  65   2.0000      -0.326220        -8.8769
  66   2.0000      -0.286868        -7.8061
  67   0.0000       0.019522         0.5312
  68   0.0000       0.076235         2.0745
  69   0.0000       0.095370         2.5951
  70   0.0000       0.118197         3.2163
  71   0.0000       0.131375         3.5749

MULLIKEN ATOMIC CHARGES
-----------------------
   0 S :    0.107742
   1 C :   -0.121174
   2 C :   -0.108148
   3 C :    0.049757
   4 C :   -0.121206
   5 H :   -0.055168
   6 C :    0.075754
   7 H :    0.014593
   8 H :    0.040418
   9 C :   -0.095647
  10 H :    0.043519
  11 H :    0.014935
  12 C :   -0.047876
  13 H :    0.016627
  14 H :    0.042145
  15 H :    0.041117
  16 S :    0.088711
  17 C :   -0.034132
  18 C :   -0.055785
  19 C :   -0.043338
  20 C :   -0.106113
  21 H :    0.043176
  22 C :   -0.017603
  23 H :    0.042818
  24 H :    0.037654
  25 C :   -0.048435
  26 H :    0.014809
  27 H :    0.026229
  28 C :   -0.036418
  29 H :    0.033612
  30 H :    0.033878
  31 H :    0.042406
  32 H :    0.067322
  33 H :    0.013821
Sum of atomic charges:    0.0000000

LOEWDIN ATOMIC CHARGES
----------------------
   0 S :    0.449746
   1 C :   -0.224756
   2 C :   -0.055793
   3 C :   -0.067090
   4 C :   -0.206890
   5 H :    0.005455
   6 C :   -0.030392
   7 H :    0.024604
   8 H :    0.036280
   9 C :   -0.047056
  10 H :    0.032303
  11 H :    0.016968
  12 C :   -0.068199
  13 H :    0.022187
  14 H :    0.025098
  15 H :    0.035068
  16 S :    0.349122
  17 C :   -0.148395
  18 C :   -0.069617
  19 C :   -0.058935
  20 C :   -0.170311
  21 H :    0.046301
  22 C :   -0.043105
  23 H :    0.040834
  24 H :    0.032811
  25 C :   -0.040525
  26 H :    0.015875
  27 H :    0.027920
  28 C :   -0.061987
  29 H :    0.030131
  30 H :    0.023126
  31 H :    0.027088
  32 H :    0.037306
  33 H :    0.014831

  Mayer bond orders larger than 0.100000
B(  0-S ,  1-C ) :   1.1611 B(  0-S ,  4-C ) :   1.1758 B(  1-C ,  2-C ) :   1.5689
B(  1-C , 32-H ) :   0.9619 B(  2-C ,  3-C ) :   1.2909 B(  2-C ,  6-C ) :   1.0108
B(  3-C ,  4-C ) :   1.5204 B(  3-C ,  5-H ) :   0.9957 B(  4-C , 20-C ) :   1.0754
B(  6-C ,  7-H ) :   0.9467 B(  6-C ,  8-H ) :   0.9338 B(  6-C ,  9-C ) :   1.0744
B(  9-C , 10-H ) :   0.9549 B(  9-C , 11-H ) :   0.9523 B(  9-C , 12-C ) :   1.0916
B( 12-C , 13-H ) :   0.9691 B( 12-C , 14-H ) :   0.9759 B( 12-C , 15-H ) :   0.9723
B( 16-S , 17-C ) :   1.0967 B( 16-S , 20-C ) :   1.1074 B( 17-C , 18-C ) :   1.7211
B( 17-C , 33-H ) :   0.9662 B( 18-C , 19-C ) :   1.1705 B( 18-C , 21-H ) :   0.9764
B( 19-C , 20-C ) :   1.6255 B( 19-C , 22-C ) :   1.0483 B( 22-C , 23-H ) :   0.9367
B( 22-C , 24-H ) :   0.9370 B( 22-C , 25-C ) :   1.0698 B( 25-C , 26-H ) :   0.9548
B( 25-C , 27-H ) :   0.9548 B( 25-C , 28-C ) :   1.0697 B( 28-C , 29-H ) :   0.9703
B( 28-C , 30-H ) :   0.9710 B( 28-C , 31-H ) :   0.9700

Dispersion correction           -0.014350752
FINAL SINGLE POINT ENERGY     -1339.866971248475

DIPOLE MOMENT
-------------
                                X             Y             Z
Electronic contribution:    -13.89532     -24.31433       8.91166
Nuclear contribution   :     14.32955      24.64826      -9.33357
                        -----------------------------------------
Total Dipole Moment    :      0.43423       0.33393      -0.42190
                        -----------------------------------------
Magnitude (a.u.)       :      0.69143
Magnitude (Debye)      :      1.75746

Rotational constants in cm-1:     0.021914     0.008080     0.006240
Rotational constants in MHz :   656.974433   242.239693   187.059105

                             ****ORCA TERMINATED NORMALLY****
TOTAL RUN TIME: 0 days 0 hours 0 minutes 34 seconds 119 msec
