                         Program Version 4.2.1 -  RELEASE  -
|  1> ! wB97X-D3 SP def2-SVP
|  2> %pal
|  3> nprocs 16
|  4> end
|  5>
|  6> * xyz 0 1
|  7> S 	 40.2755 	 17.7995 	 50.2487
|  8> C 	 40.6447 	 18.9131 	 51.5483
|  9> C 	 41.6906 	 18.5949 	 52.3334
| 10> C 	 42.2756 	 17.3885 	 51.7609
| 11> C 	 41.7304 	 16.839 	 50.628
| 12> H 	 43.0885 	 16.8437 	 52.2339
| 13> C 	 42.2486 	 19.4145 	 53.5235
| 14> H 	 41.9872 	 20.4947 	 53.4093
| 15> H 	 43.3201 	 19.5178 	 53.496
| 16> C 	 41.7401 	 18.9461 	 54.9134
| 17> H 	 42.0034 	 19.709 	 55.6508
| 18> H 	 40.7382 	 18.9131 	 54.846
| 19> C 	 42.2034 	 17.503 	 55.3313
| 20> H 	 41.7699 	 16.6415 	 54.779
| 21> H 	 43.3497 	 17.3353 	 55.0988
| 22> H 	 42.033 	 17.2913 	 56.3891
| 23> S 	 41.0649 	 14.4817 	 49.3601
| 24> C 	 42.3194 	 13.3228 	 48.9347
| 25> C 	 43.478 	 13.8768 	 49.1122
| 26> C 	 43.4858 	 15.1811 	 49.6374
| 27> C 	 42.2222 	 15.6472 	 49.868
| 28> H 	 44.4777 	 13.2741 	 48.9227
| 29> C 	 44.8418 	 15.8942 	 49.8971
| 30> H 	 45.2121 	 15.7199 	 50.9071
| 31> H 	 44.6172 	 16.9779 	 49.8223
| 32> C 	 45.9683 	 15.5213 	 48.8885
| 33> H 	 46.249 	 14.5018 	 48.8864
| 34> H 	 46.8683 	 16.0842 	 49.2255
| 35> C 	 45.6846 	 15.9332 	 47.4517
| 36> H 	 45.3891 	 16.96 	 47.3213
| 37> H 	 44.9523 	 15.303 	 46.9506
| 38> H 	 46.5041 	 15.822 	 46.8621
| 39> H 	 40.0587 	 19.8198 	 51.653
| 40> H 	 42.2655 	 12.3434 	 48.7093
| 41> *
| 42>
| 43>                          ****END OF INPUT****

CARTESIAN COORDINATES (ANGSTROEM)
---------------------------------
  S     40.275500   17.799500   50.248700
  C     40.644700   18.913100   51.548300
  C     41.690600   18.594900   52.333400
  C     42.275600   17.388500   51.760900
  C     41.730400   16.839000   50.628000
  H     43.088500   16.843700   52.233900
  C     42.248600   19.414500   53.523500
  H     41.987200   20.494700   53.409300
  H     43.320100   19.517800   53.496000
  C     41.740100   18.946100   54.913400
  H     42.003400   19.709000   55.650800
  H     40.738200   18.913100   54.846000
  C     42.203400   17.503000   55.331300
  H     41.769900   16.641500   54.779000
  H     43.349700   17.335300   55.098800
  H     42.033000   17.291300   56.389100
  S     41.064900   14.481700   49.360100
  C     42.319400   13.322800   48.934700
  C     43.478000   13.876800   49.112200
  C     43.485800   15.181100   49.637400
  C     42.222200   15.647200   49.868000
  H     44.477700   13.274100   48.922700
  C     44.841800   15.894200   49.897100
  H     45.212100   15.719900   50.907100
  H     44.617200   16.977900   49.822300
  C     45.968300   15.521300   48.888500
  H     46.249000   14.501800   48.886400
  H     46.868300   16.084200   49.225500
  C     45.684600   15.933200   47.451700
  H     45.389100   16.960000   47.321300
  H     44.952300   15.303000   46.950600
  H     46.504100   15.822000   46.862100
  H     40.058700   19.819800   51.653000
  H     42.265500   12.343400   48.709300

 Total Charge           Charge          ....    0
 Multiplicity           Mult            ....    1
 Number of Electrons    NEL             ....  134
 Basis Dimension        Dim             ....  322

ORBITAL ENERGIES
----------------

  NO   OCC          E(Eh)            E(eV)
   0   2.0000     -88.964376     -2420.8438
   1   2.0000     -88.961346     -2420.7613
   2   2.0000     -10.334575      -281.2181
   3   2.0000     -10.328405      -281.0502
   4   2.0000     -10.313886      -280.6551
   5   2.0000     -10.304934      -280.4115
   6   2.0000     -10.302361      -280.3415
   7   2.0000     -10.301579      -280.3202
   8   2.0000     -10.298219      -280.2288
   9   2.0000     -10.296297      -280.1765
  10   2.0000     -10.295567      -280.1566
  11   2.0000     -10.290228      -280.0114
  12   2.0000     -10.288741      -279.9709
  13   2.0000     -10.287292      -279.9314
  14   2.0000     -10.286646      -279.9139
  15   2.0000     -10.262758      -279.2638
  16   2.0000      -8.078887      -219.8377
  17   2.0000      -8.076980      -219.7858
  18   2.0000      -6.037526      -164.2894
  19   2.0000      -6.035652      -164.2384
  20   2.0000      -6.033583      -164.1822
  21   2.0000      -6.031416      -164.1232
  22   2.0000      -6.029368      -164.0674
  23   2.0000      -6.027427      -164.0146
  24   2.0000      -1.013117       -27.5683
  25   2.0000      -0.989320       -26.9208
  26   2.0000      -0.907057       -24.6823
  27   2.0000      -0.905439       -24.6382
  28   2.0000      -0.874383       -23.7932
  29   2.0000      -0.847462       -23.0606
  30   2.0000      -0.838365       -22.8131
  31   2.0000      -0.821838       -22.3633
  32   2.0000      -0.783668       -21.3247
  33   2.0000      -0.778619       -21.1873
  34   2.0000      -0.707423       -19.2500
  35   2.0000      -0.704957       -19.1829
  36   2.0000      -0.701450       -19.0874
  37   2.0000      -0.654510       -17.8101
  38   2.0000      -0.642395       -17.4804
  39   2.0000      -0.616237       -16.7687
  40   2.0000      -0.603463       -16.4211
  41   2.0000      -0.578858       -15.7515
  42   2.0000      -0.555447       -15.1145
  43   2.0000      -0.539129       -14.6704
  44   2.0000      -0.538227       -14.6459
  45   2.0000      -0.533791       -14.5252
  46   2.0000      -0.519921       -14.1478
  47   2.0000      -0.509140       -13.8544
  48   2.0000      -0.503000       -13.6873
  49   2.0000      -0.495107       -13.4726
  50   2.0000      -0.490033       -13.3345
  51   2.0000      -0.474326       -12.9071
  52   2.0000      -0.471951       -12.8424
  53   2.0000      -0.465291       -12.6612
  54   2.0000      -0.461394       -12.5552
  55   2.0000      -0.442997       -12.0546
  56   2.0000      -0.440064       -11.9748
  57   2.0000      -0.436554       -11.8792
  58   2.0000      -0.432725       -11.7750
  59   2.0000      -0.430471       -11.7137
  60   2.0000      -0.424503       -11.5513
  61   2.0000      -0.419848       -11.4246
  62   2.0000      -0.407984       -11.1018
  63   2.0000      -0.361885        -9.8474
  64   2.0000      -0.331345        -9.0164
  65   2.0000      -0.329424        -8.9641
  66   2.0000      -0.296643        -8.0721
  67   0.0000       0.034391         0.9358
  68   0.0000       0.078415         2.1338
  69   0.0000       0.109041         2.9671
  70   0.0000       0.124701         3.3933
  71   0.0000       0.138133         3.7588

MULLIKEN ATOMIC CHARGES
-----------------------
   0 S :    0.096788
   1 C :   -0.131258
   2 C :   -0.050241
   3 C :   -0.010740
   4 C :   -0.121073
   5 H :    0.006221
   6 C :    0.040892
   7 H :    0.024560
   8 H :    0.028362
   9 C :    0.001861
  10 H :    0.037264
  11 H :    0.006509
  12 C :   -0.117978
  13 H :    0.050880
  14 H :    0.034468
  15 H :    0.043292
  16 S :    0.090043
  17 C :   -0.016806
  18 C :   -0.073585
  19 C :   -0.061705
  20 C :   -0.140585
  21 H :    0.050203
  22 C :    0.070022
  23 H :    0.041571
  24 H :    0.037479
  25 C :   -0.084036
  26 H :    0.019891
  27 H :    0.030251
  28 C :   -0.004169
  29 H :    0.024337
  30 H :    0.028244
  31 H :    0.002448
  32 H :    0.046811
  33 H :   -0.000222
Sum of atomic charges:    0.0000000

LOEWDIN ATOMIC CHARGES
----------------------
   0 S :    0.376904
   1 C :   -0.178416
   2 C :   -0.067518
   3 C :   -0.060514
   4 C :   -0.183764
   5 H :    0.026748
   6 C :   -0.027567
   7 H :    0.036792
   8 H :    0.027200
   9 C :   -0.028113
  10 H :    0.029415
  11 H :    0.010115
  12 C :   -0.081185
  13 H :    0.030706
  14 H :    0.030639
  15 H :    0.026345
  16 S :    0.404036
  17 C :   -0.165003
  18 C :   -0.081813
  19 C :   -0.067931
  20 C :   -0.197483
  21 H :    0.049535
  22 C :   -0.028067
  23 H :    0.029482
  24 H :    0.035806
  25 C :   -0.038008
  26 H :    0.014712
  27 H :    0.031117
  28 C :   -0.059632
  29 H :    0.025641
  30 H :    0.027222
  31 H :    0.013204
  32 H :    0.026051
  33 H :    0.013345

  Mayer bond orders larger than 0.100000
B(  0-S ,  1-C ) :   1.1417 B(  0-S ,  4-C ) :   1.1119 B(  1-C ,  2-C ) :   1.6601
B(  1-C , 32-H ) :   0.9577 B(  2-C ,  3-C ) :   1.2039 B(  2-C ,  6-C ) :   1.0099
B(  3-C ,  4-C ) :   1.6309 B(  3-C ,  5-H ) :   0.9927 B(  4-C , 20-C ) :   1.0154
B(  6-C ,  7-H ) :   0.9426 B(  6-C ,  8-H ) :   0.9475 B(  6-C ,  9-C ) :   1.0734
B(  9-C , 10-H ) :   0.9567 B(  9-C , 11-H ) :   0.9518 B(  9-C , 12-C ) :   1.0637
B( 12-C , 13-H ) :   0.9739 B( 12-C , 14-H ) :   0.9776 B( 12-C , 15-H ) :   0.9759
B( 16-S , 17-C ) :   1.1224 B( 16-S , 20-C ) :   1.1396 B( 17-C , 18-C ) :   1.6662
B( 17-C , 33-H ) :   0.9704 B( 18-C , 19-C ) :   1.2485 B( 18-C , 21-H ) :   0.9592
B( 19-C , 20-C ) :   1.6407 B( 19-C , 22-C ) :   1.0092 B( 22-C , 23-H ) :   0.9360
B( 22-C , 24-H ) :   0.9399 B( 22-C , 25-C ) :   1.0793 B( 25-C , 26-H ) :   0.9492
B( 25-C , 27-H ) :   0.9522 B( 25-C , 28-C ) :   1.0899 B( 28-C , 29-H ) :   0.9731
B( 28-C , 30-H ) :   0.9691 B( 28-C , 31-H ) :   0.9684

Dispersion correction           -0.014345485
FINAL SINGLE POINT ENERGY     -1339.858687688886

DIPOLE MOMENT
-------------
                                X             Y             Z
Electronic contribution:    -20.16117      -5.56490     -11.18912
Nuclear contribution   :     20.83195       5.67827      11.59487
                        -----------------------------------------
Total Dipole Moment    :      0.67078       0.11337       0.40575
                        -----------------------------------------
Magnitude (a.u.)       :      0.79211
Magnitude (Debye)      :      2.01338

Rotational constants in cm-1:     0.019570     0.007912     0.006922
Rotational constants in MHz :   586.680440   237.196903   207.513458

                             ****ORCA TERMINATED NORMALLY****
TOTAL RUN TIME: 0 days 0 hours 0 minutes 34 seconds 721 msec
