                         Program Version 4.2.1 -  RELEASE  -
|  1> ! wB97X-D3 SP def2-SVP
|  2> %pal
|  3> nprocs 16
|  4> end
|  5>
|  6> * xyz 0 1
|  7> S 	 -63.6966 	 53.418 	 126.832
|  8> C 	 -65.1075 	 52.5907 	 126.213
|  9> C 	 -65.0253 	 51.2228 	 126.286
| 10> C 	 -63.6199 	 50.8566 	 126.568
| 11> C 	 -62.8361 	 51.9232 	 126.958
| 12> H 	 -63.2159 	 49.8098 	 126.61
| 13> C 	 -66.1375 	 50.1835 	 125.865
| 14> H 	 -67.0153 	 50.7901 	 126.077
| 15> H 	 -66.2279 	 49.3768 	 126.513
| 16> C 	 -65.9894 	 49.537 	 124.547
| 17> H 	 -66.0617 	 50.3557 	 123.822
| 18> H 	 -65.009 	 49.0984 	 124.421
| 19> C 	 -67.1191 	 48.4868 	 124.336
| 20> H 	 -68.0583 	 48.9913 	 124.593
| 21> H 	 -67.3152 	 48.201 	 123.325
| 22> H 	 -66.9784 	 47.5841 	 124.913
| 23> S 	 -60.0995 	 52.3084 	 126.559
| 24> C 	 -59.006 	 52.0817 	 128.004
| 25> C 	 -59.7217 	 51.5935 	 129.102
| 26> C 	 -61.1263 	 51.5145 	 128.802
| 27> C 	 -61.4969 	 51.9189 	 127.526
| 28> H 	 -59.211 	 51.3007 	 130.058
| 29> C 	 -62.0889 	 50.9384 	 129.818
| 30> H 	 -61.6085 	 50.0434 	 130.273
| 31> H 	 -62.906 	 50.5637 	 129.252
| 32> C 	 -62.6969 	 51.8768 	 130.957
| 33> H 	 -63.4457 	 51.4051 	 131.567
| 34> H 	 -63.1494 	 52.7583 	 130.528
| 35> C 	 -61.6437 	 52.1809 	 132.006
| 36> H 	 -61.4181 	 51.2573 	 132.477
| 37> H 	 -62.0359 	 52.8296 	 132.761
| 38> H 	 -60.6962 	 52.636 	 131.591
| 39> H 	 -65.9867 	 53.0359 	 125.849
| 40> H 	 -57.9007 	 52.1196 	 127.964
| 41> *
| 42>
| 43>                          ****END OF INPUT****

CARTESIAN COORDINATES (ANGSTROEM)
---------------------------------
  S    -63.696600   53.418000  126.832000
  C    -65.107500   52.590700  126.213000
  C    -65.025300   51.222800  126.286000
  C    -63.619900   50.856600  126.568000
  C    -62.836100   51.923200  126.958000
  H    -63.215900   49.809800  126.610000
  C    -66.137500   50.183500  125.865000
  H    -67.015300   50.790100  126.077000
  H    -66.227900   49.376800  126.513000
  C    -65.989400   49.537000  124.547000
  H    -66.061700   50.355700  123.822000
  H    -65.009000   49.098400  124.421000
  C    -67.119100   48.486800  124.336000
  H    -68.058300   48.991300  124.593000
  H    -67.315200   48.201000  123.325000
  H    -66.978400   47.584100  124.913000
  S    -60.099500   52.308400  126.559000
  C    -59.006000   52.081700  128.004000
  C    -59.721700   51.593500  129.102000
  C    -61.126300   51.514500  128.802000
  C    -61.496900   51.918900  127.526000
  H    -59.211000   51.300700  130.058000
  C    -62.088900   50.938400  129.818000
  H    -61.608500   50.043400  130.273000
  H    -62.906000   50.563700  129.252000
  C    -62.696900   51.876800  130.957000
  H    -63.445700   51.405100  131.567000
  H    -63.149400   52.758300  130.528000
  C    -61.643700   52.180900  132.006000
  H    -61.418100   51.257300  132.477000
  H    -62.035900   52.829600  132.761000
  H    -60.696200   52.636000  131.591000
  H    -65.986700   53.035900  125.849000
  H    -57.900700   52.119600  127.964000

 Total Charge           Charge          ....    0
 Multiplicity           Mult            ....    1
 Number of Electrons    NEL             ....  134
 Basis Dimension        Dim             ....  322

ORBITAL ENERGIES
----------------

  NO   OCC          E(Eh)            E(eV)
   0   2.0000     -88.967427     -2420.9268
   1   2.0000     -88.966281     -2420.8956
   2   2.0000     -10.328277      -281.0467
   3   2.0000     -10.326787      -281.0061
   4   2.0000     -10.324977      -280.9569
   5   2.0000     -10.312171      -280.6085
   6   2.0000     -10.308149      -280.4990
   7   2.0000     -10.303550      -280.3738
   8   2.0000     -10.303065      -280.3607
   9   2.0000     -10.301890      -280.3287
  10   2.0000     -10.289821      -280.0003
  11   2.0000     -10.287195      -279.9288
  12   2.0000     -10.286566      -279.9117
  13   2.0000     -10.281758      -279.7809
  14   2.0000     -10.279706      -279.7250
  15   2.0000     -10.269658      -279.4516
  16   2.0000      -8.081440      -219.9072
  17   2.0000      -8.080997      -219.8951
  18   2.0000      -6.039975      -164.3561
  19   2.0000      -6.039650      -164.3472
  20   2.0000      -6.035947      -164.2465
  21   2.0000      -6.035707      -164.2399
  22   2.0000      -6.032066      -164.1409
  23   2.0000      -6.031626      -164.1289
  24   2.0000      -1.004279       -27.3278
  25   2.0000      -0.978222       -26.6188
  26   2.0000      -0.918526       -24.9944
  27   2.0000      -0.899456       -24.4754
  28   2.0000      -0.870291       -23.6818
  29   2.0000      -0.847247       -23.0548
  30   2.0000      -0.842573       -22.9276
  31   2.0000      -0.813976       -22.1494
  32   2.0000      -0.785810       -21.3830
  33   2.0000      -0.766685       -20.8626
  34   2.0000      -0.709737       -19.3129
  35   2.0000      -0.700984       -19.0747
  36   2.0000      -0.688080       -18.7236
  37   2.0000      -0.658904       -17.9297
  38   2.0000      -0.644610       -17.5407
  39   2.0000      -0.612067       -16.6552
  40   2.0000      -0.586732       -15.9658
  41   2.0000      -0.580170       -15.7872
  42   2.0000      -0.563582       -15.3359
  43   2.0000      -0.548924       -14.9370
  44   2.0000      -0.543520       -14.7899
  45   2.0000      -0.525832       -14.3086
  46   2.0000      -0.518695       -14.1144
  47   2.0000      -0.508749       -13.8438
  48   2.0000      -0.502235       -13.6665
  49   2.0000      -0.498526       -13.5656
  50   2.0000      -0.482805       -13.1378
  51   2.0000      -0.472018       -12.8443
  52   2.0000      -0.470479       -12.8024
  53   2.0000      -0.465973       -12.6798
  54   2.0000      -0.458651       -12.4805
  55   2.0000      -0.449333       -12.2270
  56   2.0000      -0.441687       -12.0189
  57   2.0000      -0.437772       -11.9124
  58   2.0000      -0.430135       -11.7046
  59   2.0000      -0.424677       -11.5560
  60   2.0000      -0.423746       -11.5307
  61   2.0000      -0.414821       -11.2879
  62   2.0000      -0.412681       -11.2296
  63   2.0000      -0.336982        -9.1698
  64   2.0000      -0.329585        -8.9685
  65   2.0000      -0.323732        -8.8092
  66   2.0000      -0.308554        -8.3962
  67   0.0000       0.040337         1.0976
  68   0.0000       0.057832         1.5737
  69   0.0000       0.106171         2.8891
  70   0.0000       0.114247         3.1088
  71   0.0000       0.130133         3.5411

MULLIKEN ATOMIC CHARGES
-----------------------
   0 S :    0.126674
   1 C :   -0.090116
   2 C :   -0.119600
   3 C :    0.039055
   4 C :   -0.193772
   5 H :    0.033703
   6 C :    0.083970
   7 H :    0.018146
   8 H :    0.001802
   9 C :   -0.048448
  10 H :    0.022929
  11 H :    0.032534
  12 C :   -0.039518
  13 H :    0.023151
  14 H :    0.026738
  15 H :    0.039536
  16 S :    0.106358
  17 C :   -0.114477
  18 C :   -0.040653
  19 C :   -0.029494
  20 C :   -0.160456
  21 H :    0.049804
  22 C :    0.062516
  23 H :    0.025348
  24 H :    0.009707
  25 C :   -0.033622
  26 H :    0.022408
  27 H :    0.028794
  28 C :   -0.057050
  29 H :    0.012105
  30 H :    0.027717
  31 H :    0.039630
  32 H :    0.023703
  33 H :    0.070876
Sum of atomic charges:    0.0000000

LOEWDIN ATOMIC CHARGES
----------------------
   0 S :    0.416714
   1 C :   -0.188685
   2 C :   -0.056240
   3 C :   -0.063042
   4 C :   -0.207371
   5 H :    0.038565
   6 C :   -0.028393
   7 H :    0.030354
   8 H :    0.020236
   9 C :   -0.037444
  10 H :    0.024974
  11 H :    0.025088
  12 C :   -0.062284
  13 H :    0.028317
  14 H :    0.023826
  15 H :    0.025246
  16 S :    0.384636
  17 C :   -0.168188
  18 C :   -0.074214
  19 C :   -0.053166
  20 C :   -0.214639
  21 H :    0.044553
  22 C :   -0.031552
  23 H :    0.032606
  24 H :    0.023425
  25 C :   -0.030102
  26 H :    0.023952
  27 H :    0.021072
  28 C :   -0.066672
  29 H :    0.016885
  30 H :    0.021580
  31 H :    0.026939
  32 H :    0.017870
  33 H :    0.035153

  Mayer bond orders larger than 0.100000
B(  0-S ,  1-C ) :   1.1342 B(  0-S ,  4-C ) :   1.1466 B(  1-C ,  2-C ) :   1.6552
B(  1-C , 32-H ) :   0.9686 B(  2-C ,  3-C ) :   1.1976 B(  2-C ,  6-C ) :   1.0154
B(  3-C ,  4-C ) :   1.6263 B(  3-C ,  5-H ) :   0.9811 B(  4-C , 20-C ) :   1.0107
B(  6-C ,  7-H ) :   0.9375 B(  6-C ,  8-H ) :   0.9384 B(  6-C ,  9-C ) :   1.0627
B(  9-C , 10-H ) :   0.9533 B(  9-C , 11-H ) :   0.9552 B(  9-C , 12-C ) :   1.0741
B( 12-C , 13-H ) :   0.9737 B( 12-C , 14-H ) :   0.9750 B( 12-C , 15-H ) :   0.9758
B( 16-S , 17-C ) :   1.1444 B( 16-S , 20-C ) :   1.1354 B( 17-C , 18-C ) :   1.6150
B( 17-C , 33-H ) :   0.9625 B( 18-C , 19-C ) :   1.2347 B( 18-C , 21-H ) :   0.9768
B( 19-C , 20-C ) :   1.6105 B( 19-C , 22-C ) :   1.0420 B( 22-C , 23-H ) :   0.9419
B( 22-C , 24-H ) :   0.9217 B( 22-C , 25-C ) :   1.0683 B( 25-C , 26-H ) :   0.9570
B( 25-C , 27-H ) :   0.9567 B( 25-C , 28-C ) :   1.0772 B( 28-C , 29-H ) :   0.9757
B( 28-C , 30-H ) :   0.9727 B( 28-C , 31-H ) :   0.9741

Dispersion correction           -0.014326930
FINAL SINGLE POINT ENERGY     -1339.869024078190

DIPOLE MOMENT
-------------
                                X             Y             Z
Electronic contribution:     15.55783      14.98067      -8.30441
Nuclear contribution   :    -15.90340     -15.56799       8.51868
                        -----------------------------------------
Total Dipole Moment    :     -0.34557      -0.58732       0.21427
                        -----------------------------------------
Magnitude (a.u.)       :      0.71433
Magnitude (Debye)      :      1.81569

Rotational constants in cm-1:     0.020711     0.007308     0.006565
Rotational constants in MHz :   620.901745   219.099476   196.809083

                             ****ORCA TERMINATED NORMALLY****
TOTAL RUN TIME: 0 days 0 hours 0 minutes 33 seconds 182 msec
