                         Program Version 4.2.1 -  RELEASE  -
|  1> ! wB97X-D3 SP def2-SVP
|  2> %pal
|  3> nprocs 16
|  4> end
|  5>
|  6> * xyz 0 1
|  7> S 	 -36.0005 	 74.6772 	 152.487
|  8> C 	 -35.3872 	 76.0614 	 151.633
|  9> C 	 -34.5309 	 75.8038 	 150.542
| 10> C 	 -34.2773 	 74.393 	 150.468
| 11> C 	 -35.0838 	 73.673 	 151.335
| 12> H 	 -33.5814 	 73.9075 	 149.763
| 13> C 	 -33.8299 	 76.9208 	 149.753
| 14> H 	 -33.0183 	 77.2446 	 150.339
| 15> H 	 -34.6418 	 77.6755 	 149.755
| 16> C 	 -33.5747 	 76.7215 	 148.211
| 17> H 	 -32.6855 	 76.0621 	 148.074
| 18> H 	 -34.2924 	 76.1143 	 147.753
| 19> C 	 -33.3652 	 78.0293 	 147.409
| 20> H 	 -32.3717 	 78.4559 	 147.46
| 21> H 	 -33.5686 	 77.7724 	 146.372
| 22> H 	 -34.0075 	 78.8764 	 147.822
| 23> S 	 -35.3441 	 71.2674 	 150.058
| 24> C 	 -35.1779 	 69.8497 	 151.02
| 25> C 	 -34.8997 	 70.1031 	 152.376
| 26> C 	 -34.8507 	 71.4981 	 152.642
| 27> C 	 -35.0515 	 72.2333 	 151.474
| 28> H 	 -34.8089 	 69.2233 	 152.998
| 29> C 	 -34.6539 	 71.9369 	 154.056
| 30> H 	 -35.6086 	 71.9877 	 154.562
| 31> H 	 -34.1969 	 72.8939 	 154.081
| 32> C 	 -33.7496 	 71.0675 	 154.982
| 33> H 	 -32.7554 	 70.9964 	 154.564
| 34> H 	 -34.2308 	 70.1186 	 155.186
| 35> C 	 -33.6462 	 71.8071 	 156.323
| 36> H 	 -33.231 	 71.2925 	 157.191
| 37> H 	 -34.6501 	 71.9999 	 156.674
| 38> H 	 -33.0484 	 72.716 	 156.104
| 39> H 	 -35.6097 	 77.1125 	 151.811
| 40> H 	 -35.2104 	 68.9259 	 150.594
| 41> *
| 42>
| 43>                          ****END OF INPUT****

CARTESIAN COORDINATES (ANGSTROEM)
---------------------------------
  S    -36.000500   74.677200  152.487000
  C    -35.387200   76.061400  151.633000
  C    -34.530900   75.803800  150.542000
  C    -34.277300   74.393000  150.468000
  C    -35.083800   73.673000  151.335000
  H    -33.581400   73.907500  149.763000
  C    -33.829900   76.920800  149.753000
  H    -33.018300   77.244600  150.339000
  H    -34.641800   77.675500  149.755000
  C    -33.574700   76.721500  148.211000
  H    -32.685500   76.062100  148.074000
  H    -34.292400   76.114300  147.753000
  C    -33.365200   78.029300  147.409000
  H    -32.371700   78.455900  147.460000
  H    -33.568600   77.772400  146.372000
  H    -34.007500   78.876400  147.822000
  S    -35.344100   71.267400  150.058000
  C    -35.177900   69.849700  151.020000
  C    -34.899700   70.103100  152.376000
  C    -34.850700   71.498100  152.642000
  C    -35.051500   72.233300  151.474000
  H    -34.808900   69.223300  152.998000
  C    -34.653900   71.936900  154.056000
  H    -35.608600   71.987700  154.562000
  H    -34.196900   72.893900  154.081000
  C    -33.749600   71.067500  154.982000
  H    -32.755400   70.996400  154.564000
  H    -34.230800   70.118600  155.186000
  C    -33.646200   71.807100  156.323000
  H    -33.231000   71.292500  157.191000
  H    -34.650100   71.999900  156.674000
  H    -33.048400   72.716000  156.104000
  H    -35.609700   77.112500  151.811000
  H    -35.210400   68.925900  150.594000

 Total Charge           Charge          ....    0
 Multiplicity           Mult            ....    1
 Number of Electrons    NEL             ....  134
 Basis Dimension        Dim             ....  322

ORBITAL ENERGIES
----------------

  NO   OCC          E(Eh)            E(eV)
   0   2.0000     -88.972029     -2421.0520
   1   2.0000     -88.967105     -2420.9180
   2   2.0000     -10.325480      -280.9706
   3   2.0000     -10.319748      -280.8146
   4   2.0000     -10.310538      -280.5640
   5   2.0000     -10.305947      -280.4391
   6   2.0000     -10.301881      -280.3284
   7   2.0000     -10.299791      -280.2716
   8   2.0000     -10.295436      -280.1530
   9   2.0000     -10.294665      -280.1321
  10   2.0000     -10.291014      -280.0327
  11   2.0000     -10.289980      -280.0046
  12   2.0000     -10.285090      -279.8715
  13   2.0000     -10.284988      -279.8687
  14   2.0000     -10.284701      -279.8609
  15   2.0000     -10.276666      -279.6423
  16   2.0000      -8.085621      -220.0209
  17   2.0000      -8.082353      -219.9320
  18   2.0000      -6.044053      -164.4670
  19   2.0000      -6.040613      -164.3734
  20   2.0000      -6.040492      -164.3701
  21   2.0000      -6.036863      -164.2714
  22   2.0000      -6.036341      -164.2572
  23   2.0000      -6.033306      -164.1746
  24   2.0000      -1.004492       -27.3336
  25   2.0000      -0.979191       -26.6451
  26   2.0000      -0.913164       -24.8485
  27   2.0000      -0.903509       -24.5857
  28   2.0000      -0.864771       -23.5316
  29   2.0000      -0.855876       -23.2896
  30   2.0000      -0.847648       -23.0657
  31   2.0000      -0.810110       -22.0442
  32   2.0000      -0.780871       -21.2486
  33   2.0000      -0.765326       -20.8256
  34   2.0000      -0.710650       -19.3378
  35   2.0000      -0.702100       -19.1051
  36   2.0000      -0.688800       -18.7432
  37   2.0000      -0.659681       -17.9508
  38   2.0000      -0.629642       -17.1334
  39   2.0000      -0.616779       -16.7834
  40   2.0000      -0.600856       -16.3501
  41   2.0000      -0.582653       -15.8548
  42   2.0000      -0.566468       -15.4144
  43   2.0000      -0.556862       -15.1530
  44   2.0000      -0.529251       -14.4017
  45   2.0000      -0.523389       -14.2422
  46   2.0000      -0.512233       -13.9386
  47   2.0000      -0.510037       -13.8788
  48   2.0000      -0.497109       -13.5270
  49   2.0000      -0.493314       -13.4238
  50   2.0000      -0.484159       -13.1746
  51   2.0000      -0.475434       -12.9372
  52   2.0000      -0.468558       -12.7501
  53   2.0000      -0.459786       -12.5114
  54   2.0000      -0.457376       -12.4458
  55   2.0000      -0.451538       -12.2870
  56   2.0000      -0.449134       -12.2216
  57   2.0000      -0.439565       -11.9612
  58   2.0000      -0.433742       -11.8027
  59   2.0000      -0.430308       -11.7093
  60   2.0000      -0.428022       -11.6471
  61   2.0000      -0.415096       -11.2953
  62   2.0000      -0.410531       -11.1711
  63   2.0000      -0.343012        -9.3338
  64   2.0000      -0.333968        -9.0877
  65   2.0000      -0.327705        -8.9173
  66   2.0000      -0.283268        -7.7081
  67   0.0000       0.032372         0.8809
  68   0.0000       0.072802         1.9811
  69   0.0000       0.105268         2.8645
  70   0.0000       0.116092         3.1590
  71   0.0000       0.130367         3.5475

MULLIKEN ATOMIC CHARGES
-----------------------
   0 S :    0.131056
   1 C :   -0.113964
   2 C :   -0.109637
   3 C :    0.004818
   4 C :   -0.162479
   5 H :    0.028088
   6 C :    0.062297
   7 H :    0.049513
   8 H :    0.025778
   9 C :   -0.067415
  10 H :    0.027789
  11 H :    0.018783
  12 C :   -0.064357
  13 H :    0.034326
  14 H :    0.042228
  15 H :    0.039014
  16 S :    0.128362
  17 C :   -0.069829
  18 C :   -0.045827
  19 C :    0.003896
  20 C :   -0.171429
  21 H :    0.020393
  22 C :    0.051539
  23 H :    0.036809
  24 H :    0.013494
  25 C :   -0.074499
  26 H :    0.038117
  27 H :    0.030487
  28 C :   -0.050602
  29 H :    0.032341
  30 H :    0.018726
  31 H :    0.039678
  32 H :    0.036410
  33 H :    0.016095
Sum of atomic charges:   -0.0000000

LOEWDIN ATOMIC CHARGES
----------------------
   0 S :    0.411095
   1 C :   -0.210299
   2 C :   -0.061561
   3 C :   -0.065447
   4 C :   -0.184989
   5 H :    0.035588
   6 C :   -0.028787
   7 H :    0.029170
   8 H :    0.034991
   9 C :   -0.042620
  10 H :    0.026658
  11 H :    0.018518
  12 C :   -0.068060
  13 H :    0.023652
  14 H :    0.030300
  15 H :    0.032041
  16 S :    0.431904
  17 C :   -0.181295
  18 C :   -0.065065
  19 C :   -0.057760
  20 C :   -0.209788
  21 H :    0.032670
  22 C :   -0.034102
  23 H :    0.033667
  24 H :    0.020552
  25 C :   -0.032301
  26 H :    0.024373
  27 H :    0.019017
  28 C :   -0.066398
  29 H :    0.024969
  30 H :    0.021471
  31 H :    0.030050
  32 H :    0.024248
  33 H :    0.003536

  Mayer bond orders larger than 0.100000
B(  0-S ,  1-C ) :   1.1385 B(  0-S ,  4-C ) :   1.1344 B(  1-C ,  2-C ) :   1.6302
B(  1-C , 32-H ) :   0.9598 B(  2-C ,  3-C ) :   1.2354 B(  2-C ,  6-C ) :   1.0035
B(  3-C ,  4-C ) :   1.5804 B(  3-C ,  5-H ) :   0.9858 B(  4-C , 20-C ) :   1.0465
B(  6-C ,  7-H ) :   0.9474 B(  6-C ,  8-H ) :   0.9420 B(  6-C ,  9-C ) :   1.0545
B(  9-C , 10-H ) :   0.9484 B(  9-C , 11-H ) :   0.9648 B(  9-C , 12-C ) :   1.0780
B( 12-C , 13-H ) :   0.9771 B( 12-C , 14-H ) :   0.9762 B( 12-C , 15-H ) :   0.9766
B( 16-S , 17-C ) :   1.1718 B( 16-S , 20-C ) :   1.1566 B( 17-C , 18-C ) :   1.5903
B( 17-C , 33-H ) :   0.9772 B( 18-C , 19-C ) :   1.2365 B( 18-C , 21-H ) :   0.9947
B( 19-C , 20-C ) :   1.5660 B( 19-C , 22-C ) :   1.0395 B( 22-C , 23-H ) :   0.9265
B( 22-C , 24-H ) :   0.9300 B( 22-C , 25-C ) :   1.0785 B( 25-C , 26-H ) :   0.9619
B( 25-C , 27-H ) :   0.9446 B( 25-C , 28-C ) :   1.0843 B( 28-C , 29-H ) :   0.9738
B( 28-C , 30-H ) :   0.9709 B( 28-C , 31-H ) :   0.9757

Dispersion correction           -0.013403246
FINAL SINGLE POINT ENERGY     -1339.866880675525

DIPOLE MOMENT
-------------
                                X             Y             Z
Electronic contribution:    -12.28899     -10.38315      -3.51100
Nuclear contribution   :     12.62966      10.44890       3.57689
                        -----------------------------------------
Total Dipole Moment    :      0.34067       0.06575       0.06589
                        -----------------------------------------
Magnitude (a.u.)       :      0.35315
Magnitude (Debye)      :      0.89765

Rotational constants in cm-1:     0.021040     0.007196     0.005982
Rotational constants in MHz :   630.777274   215.739675   179.324896

                             ****ORCA TERMINATED NORMALLY****
TOTAL RUN TIME: 0 days 0 hours 0 minutes 30 seconds 951 msec
