                         Program Version 4.2.1 -  RELEASE  -
|  1> ! wB97X-D3 SP def2-SVP
|  2> %pal
|  3> nprocs 16
|  4> end
|  5>
|  6> * xyz 0 1
|  7> S 	 2.57318 	 -19.84 	 86.6679
|  8> C 	 0.999671 	 -20.4933 	 86.963
|  9> C 	 0.115923 	 -19.4426 	 87.115
| 10> C 	 0.690598 	 -18.1803 	 86.8765
| 11> C 	 2.02795 	 -18.2038 	 86.5356
| 12> H 	 0.207975 	 -17.2492 	 86.9596
| 13> C 	 -1.34179 	 -19.6231 	 87.3538
| 14> H 	 -1.41879 	 -19.0084 	 88.265
| 15> H 	 -1.55173 	 -20.6614 	 87.6977
| 16> C 	 -2.2247 	 -19.0766 	 86.2374
| 17> H 	 -2.45011 	 -18.0598 	 86.429
| 18> H 	 -1.7098 	 -19.2116 	 85.2976
| 19> C 	 -3.55974 	 -19.7783 	 86.3337
| 20> H 	 -3.44191 	 -20.7798 	 86.052
| 21> H 	 -4.01519 	 -19.7133 	 87.3494
| 22> H 	 -4.23667 	 -19.4363 	 85.5977
| 23> S 	 3.51392 	 -17.0487 	 84.5761
| 24> C 	 3.92446 	 -15.3623 	 84.8436
| 25> C 	 3.906 	 -14.9925 	 86.1811
| 26> C 	 3.36752 	 -15.9996 	 86.9842
| 27> C 	 2.8975 	 -17.0656 	 86.2334
| 28> H 	 4.24041 	 -14.0685 	 86.5753
| 29> C 	 3.08971 	 -15.761 	 88.4663
| 30> H 	 2.16152 	 -16.1775 	 88.566
| 31> H 	 2.92831 	 -14.6708 	 88.6376
| 32> C 	 3.93171 	 -16.4249 	 89.6344
| 33> H 	 4.96331 	 -16.1759 	 89.5719
| 34> H 	 3.91532 	 -17.595 	 89.5745
| 35> C 	 3.36213 	 -16.017 	 90.9753
| 36> H 	 2.46742 	 -16.4421 	 91.2261
| 37> H 	 3.34824 	 -14.924 	 91.1735
| 38> H 	 4.11732 	 -16.3932 	 91.6557
| 39> H 	 0.807784 	 -21.4896 	 87.1786
| 40> H 	 4.17165 	 -14.6622 	 83.9643
| 41> *
| 42>
| 43>                          ****END OF INPUT****

CARTESIAN COORDINATES (ANGSTROEM)
---------------------------------
  S      2.573180  -19.840000   86.667900
  C      0.999671  -20.493300   86.963000
  C      0.115923  -19.442600   87.115000
  C      0.690598  -18.180300   86.876500
  C      2.027950  -18.203800   86.535600
  H      0.207975  -17.249200   86.959600
  C     -1.341790  -19.623100   87.353800
  H     -1.418790  -19.008400   88.265000
  H     -1.551730  -20.661400   87.697700
  C     -2.224700  -19.076600   86.237400
  H     -2.450110  -18.059800   86.429000
  H     -1.709800  -19.211600   85.297600
  C     -3.559740  -19.778300   86.333700
  H     -3.441910  -20.779800   86.052000
  H     -4.015190  -19.713300   87.349400
  H     -4.236670  -19.436300   85.597700
  S      3.513920  -17.048700   84.576100
  C      3.924460  -15.362300   84.843600
  C      3.906000  -14.992500   86.181100
  C      3.367520  -15.999600   86.984200
  C      2.897500  -17.065600   86.233400
  H      4.240410  -14.068500   86.575300
  C      3.089710  -15.761000   88.466300
  H      2.161520  -16.177500   88.566000
  H      2.928310  -14.670800   88.637600
  C      3.931710  -16.424900   89.634400
  H      4.963310  -16.175900   89.571900
  H      3.915320  -17.595000   89.574500
  C      3.362130  -16.017000   90.975300
  H      2.467420  -16.442100   91.226100
  H      3.348240  -14.924000   91.173500
  H      4.117320  -16.393200   91.655700
  H      0.807784  -21.489600   87.178600
  H      4.171650  -14.662200   83.964300

 Total Charge           Charge          ....    0
 Multiplicity           Mult            ....    1
 Number of Electrons    NEL             ....  134
 Basis Dimension        Dim             ....  322

ORBITAL ENERGIES
----------------

  NO   OCC          E(Eh)            E(eV)
   0   2.0000     -88.966063     -2420.8896
   1   2.0000     -88.959159     -2420.7018
   2   2.0000     -10.324804      -280.9522
   3   2.0000     -10.324571      -280.9459
   4   2.0000     -10.324414      -280.9416
   5   2.0000     -10.303117      -280.3621
   6   2.0000     -10.301932      -280.3298
   7   2.0000     -10.293651      -280.1045
   8   2.0000     -10.292219      -280.0655
   9   2.0000     -10.289834      -280.0006
  10   2.0000     -10.287287      -279.9313
  11   2.0000     -10.287175      -279.9283
  12   2.0000     -10.284071      -279.8438
  13   2.0000     -10.279383      -279.7162
  14   2.0000     -10.271193      -279.4934
  15   2.0000     -10.269345      -279.4431
  16   2.0000      -8.080778      -219.8891
  17   2.0000      -8.074639      -219.7221
  18   2.0000      -6.039112      -164.3326
  19   2.0000      -6.035585      -164.2366
  20   2.0000      -6.033054      -164.1678
  21   2.0000      -6.031417      -164.1232
  22   2.0000      -6.028898      -164.0547
  23   2.0000      -6.025604      -163.9650
  24   2.0000      -1.008652       -27.4468
  25   2.0000      -0.987754       -26.8781
  26   2.0000      -0.918145       -24.9840
  27   2.0000      -0.904152       -24.6032
  28   2.0000      -0.869998       -23.6738
  29   2.0000      -0.858024       -23.3480
  30   2.0000      -0.849335       -23.1116
  31   2.0000      -0.814423       -22.1616
  32   2.0000      -0.781987       -21.2790
  33   2.0000      -0.767826       -20.8936
  34   2.0000      -0.709006       -19.2930
  35   2.0000      -0.700229       -19.0542
  36   2.0000      -0.690963       -18.8021
  37   2.0000      -0.665231       -18.1018
  38   2.0000      -0.646640       -17.5960
  39   2.0000      -0.618808       -16.8386
  40   2.0000      -0.594331       -16.1726
  41   2.0000      -0.577289       -15.7088
  42   2.0000      -0.564589       -15.3633
  43   2.0000      -0.558261       -15.1911
  44   2.0000      -0.528125       -14.3710
  45   2.0000      -0.523978       -14.2582
  46   2.0000      -0.518118       -14.0987
  47   2.0000      -0.516727       -14.0608
  48   2.0000      -0.503917       -13.7123
  49   2.0000      -0.501159       -13.6372
  50   2.0000      -0.494488       -13.4557
  51   2.0000      -0.475796       -12.9471
  52   2.0000      -0.473039       -12.8721
  53   2.0000      -0.464846       -12.6491
  54   2.0000      -0.457299       -12.4437
  55   2.0000      -0.452724       -12.3192
  56   2.0000      -0.442863       -12.0509
  57   2.0000      -0.439577       -11.9615
  58   2.0000      -0.433729       -11.8024
  59   2.0000      -0.426380       -11.6024
  60   2.0000      -0.419594       -11.4177
  61   2.0000      -0.418043       -11.3755
  62   2.0000      -0.407183       -11.0800
  63   2.0000      -0.338791        -9.2190
  64   2.0000      -0.329549        -8.9675
  65   2.0000      -0.323254        -8.7962
  66   2.0000      -0.293729        -7.9928
  67   0.0000       0.036306         0.9879
  68   0.0000       0.057029         1.5518
  69   0.0000       0.109798         2.9878
  70   0.0000       0.124247         3.3809
  71   0.0000       0.135251         3.6804

MULLIKEN ATOMIC CHARGES
-----------------------
   0 S :    0.104254
   1 C :   -0.099689
   2 C :   -0.107632
   3 C :    0.050579
   4 C :   -0.152043
   5 H :   -0.009970
   6 C :    0.051537
   7 H :    0.028321
   8 H :    0.018788
   9 C :   -0.032188
  10 H :    0.023061
  11 H :    0.043218
  12 C :   -0.031015
  13 H :    0.014615
  14 H :    0.039546
  15 H :    0.016861
  16 S :    0.116744
  17 C :   -0.116588
  18 C :   -0.024631
  19 C :    0.017535
  20 C :   -0.204108
  21 H :    0.002475
  22 C :    0.085297
  23 H :   -0.011210
  24 H :    0.021908
  25 C :   -0.080979
  26 H :    0.024327
  27 H :    0.047841
  28 C :   -0.023403
  29 H :    0.021830
  30 H :    0.031794
  31 H :    0.026110
  32 H :    0.022369
  33 H :    0.084445
Sum of atomic charges:    0.0000000

LOEWDIN ATOMIC CHARGES
----------------------
   0 S :    0.416540
   1 C :   -0.201408
   2 C :   -0.066620
   3 C :   -0.065473
   4 C :   -0.203528
   5 H :    0.022976
   6 C :   -0.036498
   7 H :    0.037073
   8 H :    0.029443
   9 C :   -0.032048
  10 H :    0.022276
  11 H :    0.027809
  12 C :   -0.059066
  13 H :    0.016888
  14 H :    0.032276
  15 H :    0.019303
  16 S :    0.401192
  17 C :   -0.185938
  18 C :   -0.068896
  19 C :   -0.048443
  20 C :   -0.195346
  21 H :    0.027014
  22 C :   -0.033283
  23 H :    0.019517
  24 H :    0.032937
  25 C :   -0.033596
  26 H :    0.015573
  27 H :    0.039149
  28 C :   -0.059854
  29 H :    0.012265
  30 H :    0.028543
  31 H :    0.031464
  32 H :    0.015142
  33 H :    0.042617

  Mayer bond orders larger than 0.100000
B(  0-S ,  1-C ) :   1.1403 B(  0-S ,  4-C ) :   1.1749 B(  1-C ,  2-C ) :   1.5718
B(  1-C ,  4-C ) :   0.1009 B(  1-C , 32-H ) :   0.9827 B(  2-C ,  3-C ) :   1.2537
B(  2-C ,  6-C ) :   1.0279 B(  3-C ,  4-C ) :   1.5574 B(  3-C ,  5-H ) :   1.0076
B(  4-C , 20-C ) :   1.0099 B(  6-C ,  7-H ) :   0.9206 B(  6-C ,  8-H ) :   0.9518
B(  6-C ,  9-C ) :   1.0514 B(  9-C , 10-H ) :   0.9423 B(  9-C , 11-H ) :   0.9646
B(  9-C , 12-C ) :   1.0983 B( 12-C , 13-H ) :   0.9743 B( 12-C , 14-H ) :   0.9706
B( 12-C , 15-H ) :   0.9701 B( 16-S , 17-C ) :   1.1601 B( 16-S , 20-C ) :   1.1418
B( 17-C , 18-C ) :   1.5866 B( 17-C , 20-C ) :   0.1100 B( 17-C , 33-H ) :   0.9579
B( 18-C , 19-C ) :   1.2424 B( 18-C , 21-H ) :   1.0018 B( 19-C , 20-C ) :   1.5944
B( 19-C , 22-C ) :   1.0266 B( 22-C , 23-H ) :   0.9222 B( 22-C , 24-H ) :   0.9437
B( 22-C , 25-C ) :   1.0503 B( 25-C , 26-H ) :   0.9600 B( 25-C , 27-H ) :   0.9523
B( 25-C , 28-C ) :   1.0827 B( 28-C , 29-H ) :   0.9777 B( 28-C , 30-H ) :   0.9725
B( 28-C , 31-H ) :   0.9706

Dispersion correction           -0.013761070
FINAL SINGLE POINT ENERGY     -1339.851206080776

DIPOLE MOMENT
-------------
                                X             Y             Z
Electronic contribution:     17.34853      -3.41642     -17.11599
Nuclear contribution   :    -17.76771       3.77506      17.53956
                        -----------------------------------------
Total Dipole Moment    :     -0.41918       0.35863       0.42357
                        -----------------------------------------
Magnitude (a.u.)       :      0.69552
Magnitude (Debye)      :      1.76786

Rotational constants in cm-1:     0.017367     0.008137     0.006940
Rotational constants in MHz :   520.635531   243.928846   208.045928

                             ****ORCA TERMINATED NORMALLY****
TOTAL RUN TIME: 0 days 0 hours 0 minutes 33 seconds 92 msec
