                         Program Version 4.2.1 -  RELEASE  -
|  1> ! wB97X-D3 SP def2-SVP
|  2> %pal
|  3> nprocs 16
|  4> end
|  5>
|  6> * xyz 0 1
|  7> S 	 -6.73934 	 46.1935 	 38.157
|  8> C 	 -7.65075 	 47.5683 	 37.5229
|  9> C 	 -7.73638 	 48.5999 	 38.4432
| 10> C 	 -7.1057 	 48.3424 	 39.6867
| 11> C 	 -6.41252 	 47.096 	 39.6619
| 12> H 	 -7.04669 	 48.9996 	 40.5305
| 13> C 	 -8.29 	 49.958 	 38.0206
| 14> H 	 -8.16673 	 50.0495 	 36.9149
| 15> H 	 -7.63527 	 50.6805 	 38.446
| 16> C 	 -9.76637 	 50.3597 	 38.4035
| 17> H 	 -10.1186 	 51.2162 	 37.8352
| 18> H 	 -10.4696 	 49.642 	 37.9541
| 19> C 	 -9.91563 	 50.594 	 39.9183
| 20> H 	 -9.30584 	 51.4355 	 40.2825
| 21> H 	 -10.9073 	 50.8737 	 40.0688
| 22> H 	 -9.70991 	 49.6983 	 40.5031
| 23> S 	 -6.09181 	 46.2802 	 42.3576
| 24> C 	 -4.47142 	 45.8444 	 42.842
| 25> C 	 -3.59561 	 45.8678 	 41.7863
| 26> C 	 -4.2035 	 46.1274 	 40.5332
| 27> C 	 -5.50378 	 46.5147 	 40.6877
| 28> H 	 -2.52953 	 45.8045 	 41.974
| 29> C 	 -3.26542 	 46.4529 	 39.3211
| 30> H 	 -2.49116 	 47.1044 	 39.7095
| 31> H 	 -3.94606 	 46.9164 	 38.6121
| 32> C 	 -2.51387 	 45.2347 	 38.7354
| 33> H 	 -3.19068 	 44.4901 	 38.3514
| 34> H 	 -1.99689 	 44.7751 	 39.5159
| 35> C 	 -1.51358 	 45.5988 	 37.6204
| 36> H 	 -0.483808 	 45.7652 	 38.0644
| 37> H 	 -1.81444 	 46.4488 	 37.0123
| 38> H 	 -1.34045 	 44.7498 	 36.9048
| 39> H 	 -7.97652 	 47.6563 	 36.5045
| 40> H 	 -4.27711 	 45.8221 	 43.9084
| 41> *
| 42>
| 43>                          ****END OF INPUT****

CARTESIAN COORDINATES (ANGSTROEM)
---------------------------------
  S     -6.739340   46.193500   38.157000
  C     -7.650750   47.568300   37.522900
  C     -7.736380   48.599900   38.443200
  C     -7.105700   48.342400   39.686700
  C     -6.412520   47.096000   39.661900
  H     -7.046690   48.999600   40.530500
  C     -8.290000   49.958000   38.020600
  H     -8.166730   50.049500   36.914900
  H     -7.635270   50.680500   38.446000
  C     -9.766370   50.359700   38.403500
  H    -10.118600   51.216200   37.835200
  H    -10.469600   49.642000   37.954100
  C     -9.915630   50.594000   39.918300
  H     -9.305840   51.435500   40.282500
  H    -10.907300   50.873700   40.068800
  H     -9.709910   49.698300   40.503100
  S     -6.091810   46.280200   42.357600
  C     -4.471420   45.844400   42.842000
  C     -3.595610   45.867800   41.786300
  C     -4.203500   46.127400   40.533200
  C     -5.503780   46.514700   40.687700
  H     -2.529530   45.804500   41.974000
  C     -3.265420   46.452900   39.321100
  H     -2.491160   47.104400   39.709500
  H     -3.946060   46.916400   38.612100
  C     -2.513870   45.234700   38.735400
  H     -3.190680   44.490100   38.351400
  H     -1.996890   44.775100   39.515900
  C     -1.513580   45.598800   37.620400
  H     -0.483808   45.765200   38.064400
  H     -1.814440   46.448800   37.012300
  H     -1.340450   44.749800   36.904800
  H     -7.976520   47.656300   36.504500
  H     -4.277110   45.822100   43.908400

 Total Charge           Charge          ....    0
 Multiplicity           Mult            ....    1
 Number of Electrons    NEL             ....  134
 Basis Dimension        Dim             ....  322

ORBITAL ENERGIES
----------------

  NO   OCC          E(Eh)            E(eV)
   0   2.0000     -88.970101     -2420.9995
   1   2.0000     -88.964228     -2420.8397
   2   2.0000     -10.338738      -281.3314
   3   2.0000     -10.329440      -281.0784
   4   2.0000     -10.316671      -280.7309
   5   2.0000     -10.313246      -280.6377
   6   2.0000     -10.301914      -280.3293
   7   2.0000     -10.301302      -280.3127
   8   2.0000     -10.300560      -280.2925
   9   2.0000     -10.292964      -280.0858
  10   2.0000     -10.292760      -280.0802
  11   2.0000     -10.292753      -280.0800
  12   2.0000     -10.289428      -279.9896
  13   2.0000     -10.282941      -279.8130
  14   2.0000     -10.278478      -279.6916
  15   2.0000     -10.274438      -279.5817
  16   2.0000      -8.083443      -219.9617
  17   2.0000      -8.078849      -219.8367
  18   2.0000      -6.041901      -164.4085
  19   2.0000      -6.038096      -164.3050
  20   2.0000      -6.037314      -164.2837
  21   2.0000      -6.034401      -164.2044
  22   2.0000      -6.033485      -164.1795
  23   2.0000      -6.029559      -164.0726
  24   2.0000      -1.001382       -27.2490
  25   2.0000      -0.980237       -26.6736
  26   2.0000      -0.904246       -24.6058
  27   2.0000      -0.902211       -24.5504
  28   2.0000      -0.863729       -23.5032
  29   2.0000      -0.850019       -23.1302
  30   2.0000      -0.845759       -23.0143
  31   2.0000      -0.812158       -22.0999
  32   2.0000      -0.780687       -21.2436
  33   2.0000      -0.769310       -20.9340
  34   2.0000      -0.705577       -19.1997
  35   2.0000      -0.700967       -19.0743
  36   2.0000      -0.694658       -18.9026
  37   2.0000      -0.663321       -18.0499
  38   2.0000      -0.639701       -17.4072
  39   2.0000      -0.609739       -16.5918
  40   2.0000      -0.594921       -16.1886
  41   2.0000      -0.567757       -15.4494
  42   2.0000      -0.565410       -15.3856
  43   2.0000      -0.546902       -14.8820
  44   2.0000      -0.534972       -14.5573
  45   2.0000      -0.523194       -14.2368
  46   2.0000      -0.513974       -13.9859
  47   2.0000      -0.510327       -13.8867
  48   2.0000      -0.505691       -13.7606
  49   2.0000      -0.492875       -13.4118
  50   2.0000      -0.484403       -13.1813
  51   2.0000      -0.479333       -13.0433
  52   2.0000      -0.470755       -12.8099
  53   2.0000      -0.468384       -12.7454
  54   2.0000      -0.460111       -12.5202
  55   2.0000      -0.447304       -12.1718
  56   2.0000      -0.442990       -12.0544
  57   2.0000      -0.440788       -11.9945
  58   2.0000      -0.432493       -11.7687
  59   2.0000      -0.422908       -11.5079
  60   2.0000      -0.419398       -11.4124
  61   2.0000      -0.415976       -11.3193
  62   2.0000      -0.411722       -11.2035
  63   2.0000      -0.340918        -9.2768
  64   2.0000      -0.333652        -9.0791
  65   2.0000      -0.331056        -9.0085
  66   2.0000      -0.294627        -8.0172
  67   0.0000       0.026044         0.7087
  68   0.0000       0.070698         1.9238
  69   0.0000       0.104711         2.8493
  70   0.0000       0.108408         2.9499
  71   0.0000       0.128752         3.5035

MULLIKEN ATOMIC CHARGES
-----------------------
   0 S :    0.114031
   1 C :   -0.121068
   2 C :   -0.073538
   3 C :    0.051705
   4 C :   -0.186666
   5 H :    0.011338
   6 C :    0.044596
   7 H :    0.025997
   8 H :    0.016602
   9 C :   -0.062628
  10 H :    0.020445
  11 H :    0.021964
  12 C :   -0.031226
  13 H :    0.031900
  14 H :    0.017926
  15 H :    0.044711
  16 S :    0.099419
  17 C :   -0.099759
  18 C :   -0.031349
  19 C :   -0.002660
  20 C :   -0.167214
  21 H :    0.025656
  22 C :    0.050158
  23 H :    0.033860
  24 H :    0.031449
  25 C :   -0.042950
  26 H :    0.025665
  27 H :    0.008662
  28 C :   -0.079238
  29 H :    0.037436
  30 H :    0.038914
  31 H :    0.038207
  32 H :    0.044491
  33 H :    0.063161
Sum of atomic charges:    0.0000000

LOEWDIN ATOMIC CHARGES
----------------------
   0 S :    0.395880
   1 C :   -0.192532
   2 C :   -0.063687
   3 C :   -0.057919
   4 C :   -0.176392
   5 H :    0.030233
   6 C :   -0.030056
   7 H :    0.033221
   8 H :    0.023637
   9 C :   -0.041972
  10 H :    0.023292
  11 H :    0.024843
  12 C :   -0.061770
  13 H :    0.028303
  14 H :    0.019093
  15 H :    0.028225
  16 S :    0.385540
  17 C :   -0.180138
  18 C :   -0.069800
  19 C :   -0.059361
  20 C :   -0.191363
  21 H :    0.032422
  22 C :   -0.017223
  23 H :    0.032049
  24 H :    0.022560
  25 C :   -0.038476
  26 H :    0.023173
  27 H :    0.014388
  28 C :   -0.074168
  29 H :    0.030088
  30 H :    0.024421
  31 H :    0.031623
  32 H :    0.024785
  33 H :    0.027082

  Mayer bond orders larger than 0.100000
B(  0-S ,  1-C ) :   1.1320 B(  0-S ,  4-C ) :   1.1591 B(  1-C ,  2-C ) :   1.6130
B(  1-C ,  4-C ) :   0.1017 B(  1-C , 32-H ) :   0.9674 B(  2-C ,  3-C ) :   1.2492
B(  2-C ,  6-C ) :   1.0125 B(  3-C ,  4-C ) :   1.5505 B(  3-C ,  5-H ) :   0.9942
B(  4-C , 20-C ) :   1.0214 B(  6-C ,  7-H ) :   0.9471 B(  6-C ,  8-H ) :   0.9451
B(  6-C ,  9-C ) :   1.0657 B(  9-C , 10-H ) :   0.9545 B(  9-C , 11-H ) :   0.9546
B(  9-C , 12-C ) :   1.0755 B( 12-C , 13-H ) :   0.9747 B( 12-C , 14-H ) :   0.9714
B( 12-C , 15-H ) :   0.9757 B( 16-S , 17-C ) :   1.1462 B( 16-S , 20-C ) :   1.1356
B( 17-C , 18-C ) :   1.6266 B( 17-C , 33-H ) :   0.9675 B( 18-C , 19-C ) :   1.2136
B( 18-C , 21-H ) :   0.9888 B( 19-C , 20-C ) :   1.6136 B( 19-C , 22-C ) :   1.0367
B( 22-C , 23-H ) :   0.9487 B( 22-C , 24-H ) :   0.9322 B( 22-C , 25-C ) :   1.0589
B( 25-C , 26-H ) :   0.9565 B( 25-C , 27-H ) :   0.9602 B( 25-C , 28-C ) :   1.0757
B( 28-C , 29-H ) :   0.9771 B( 28-C , 30-H ) :   0.9768 B( 28-C , 31-H ) :   0.9771

Dispersion correction           -0.014034011
FINAL SINGLE POINT ENERGY     -1339.879974570809

DIPOLE MOMENT
-------------
                                X             Y             Z
Electronic contribution:     -3.91145     -11.87639      10.22230
Nuclear contribution   :      4.15394      12.39957     -10.33810
                        -----------------------------------------
Total Dipole Moment    :      0.24249       0.52317      -0.11580
                        -----------------------------------------
Magnitude (a.u.)       :      0.58815
Magnitude (Debye)      :      1.49496

Rotational constants in cm-1:     0.019597     0.007979     0.006272
Rotational constants in MHz :   587.490785   239.191172   188.032859

                             ****ORCA TERMINATED NORMALLY****
TOTAL RUN TIME: 0 days 0 hours 0 minutes 31 seconds 968 msec
