                         Program Version 4.2.1 -  RELEASE  -
|  1> ! wB97X-D3 SP def2-SVP
|  2> %pal
|  3> nprocs 16
|  4> end
|  5>
|  6> * xyz 0 1
|  7> S 	 43.9042 	 21.8182 	 45.808
|  8> C 	 43.2753 	 22.3018 	 44.2352
|  9> C 	 44.1739 	 21.9153 	 43.2413
| 10> C 	 45.2371 	 21.1565 	 43.669
| 11> C 	 45.3449 	 21.1213 	 45.0285
| 12> H 	 45.9961 	 20.8221 	 42.9402
| 13> C 	 43.8845 	 22.1396 	 41.7568
| 14> H 	 43.0287 	 22.8159 	 41.532
| 15> H 	 43.4335 	 21.2268 	 41.3637
| 16> C 	 44.9776 	 22.5224 	 40.8114
| 17> H 	 45.6484 	 21.6524 	 40.8011
| 18> H 	 44.6235 	 22.5608 	 39.7707
| 19> C 	 45.7297 	 23.8013 	 41.1022
| 20> H 	 46.0127 	 23.8448 	 42.1456
| 21> H 	 46.6314 	 23.7003 	 40.468
| 22> H 	 45.2303 	 24.7199 	 40.8955
| 23> S 	 46.011 	 19.911 	 47.4729
| 24> C 	 47.6682 	 19.4573 	 47.8335
| 25> C 	 48.4982 	 19.7399 	 46.7222
| 26> C 	 47.7859 	 20.334 	 45.6021
| 27> C 	 46.4033 	 20.5576 	 45.8585
| 28> H 	 49.5941 	 19.5938 	 46.7562
| 29> C 	 48.4584 	 20.8473 	 44.3701
| 30> H 	 49.3661 	 21.3352 	 44.6808
| 31> H 	 47.8868 	 21.6147 	 43.8402
| 32> C 	 49.0151 	 19.777 	 43.4564
| 33> H 	 49.9712 	 19.3056 	 43.8844
| 34> H 	 49.4397 	 20.3568 	 42.6182
| 35> C 	 48.1595 	 18.6275 	 42.9048
| 36> H 	 47.6874 	 18.0328 	 43.7101
| 37> H 	 48.8285 	 18.0277 	 42.3184
| 38> H 	 47.5069 	 19.0395 	 42.1751
| 39> H 	 42.308 	 22.7973 	 44.0795
| 40> H 	 48.0921 	 18.8435 	 48.502
| 41> *
| 42>
| 43>                          ****END OF INPUT****

CARTESIAN COORDINATES (ANGSTROEM)
---------------------------------
  S     43.904200   21.818200   45.808000
  C     43.275300   22.301800   44.235200
  C     44.173900   21.915300   43.241300
  C     45.237100   21.156500   43.669000
  C     45.344900   21.121300   45.028500
  H     45.996100   20.822100   42.940200
  C     43.884500   22.139600   41.756800
  H     43.028700   22.815900   41.532000
  H     43.433500   21.226800   41.363700
  C     44.977600   22.522400   40.811400
  H     45.648400   21.652400   40.801100
  H     44.623500   22.560800   39.770700
  C     45.729700   23.801300   41.102200
  H     46.012700   23.844800   42.145600
  H     46.631400   23.700300   40.468000
  H     45.230300   24.719900   40.895500
  S     46.011000   19.911000   47.472900
  C     47.668200   19.457300   47.833500
  C     48.498200   19.739900   46.722200
  C     47.785900   20.334000   45.602100
  C     46.403300   20.557600   45.858500
  H     49.594100   19.593800   46.756200
  C     48.458400   20.847300   44.370100
  H     49.366100   21.335200   44.680800
  H     47.886800   21.614700   43.840200
  C     49.015100   19.777000   43.456400
  H     49.971200   19.305600   43.884400
  H     49.439700   20.356800   42.618200
  C     48.159500   18.627500   42.904800
  H     47.687400   18.032800   43.710100
  H     48.828500   18.027700   42.318400
  H     47.506900   19.039500   42.175100
  H     42.308000   22.797300   44.079500
  H     48.092100   18.843500   48.502000

 Total Charge           Charge          ....    0
 Multiplicity           Mult            ....    1
 Number of Electrons    NEL             ....  134
 Basis Dimension        Dim             ....  322

ORBITAL ENERGIES
----------------

  NO   OCC          E(Eh)            E(eV)
   0   2.0000     -88.970047     -2420.9981
   1   2.0000     -88.969166     -2420.9741
   2   2.0000     -10.336631      -281.2740
   3   2.0000     -10.334999      -281.2296
   4   2.0000     -10.317276      -280.7474
   5   2.0000     -10.315926      -280.7106
   6   2.0000     -10.308681      -280.5135
   7   2.0000     -10.303235      -280.3653
   8   2.0000     -10.300051      -280.2786
   9   2.0000     -10.292782      -280.0808
  10   2.0000     -10.291153      -280.0365
  11   2.0000     -10.289164      -279.9824
  12   2.0000     -10.288067      -279.9525
  13   2.0000     -10.285918      -279.8941
  14   2.0000     -10.275034      -279.5979
  15   2.0000     -10.273510      -279.5564
  16   2.0000      -8.083588      -219.9656
  17   2.0000      -8.083170      -219.9542
  18   2.0000      -6.042292      -164.4191
  19   2.0000      -6.041695      -164.4029
  20   2.0000      -6.038115      -164.3055
  21   2.0000      -6.037838      -164.2979
  22   2.0000      -6.034353      -164.2031
  23   2.0000      -6.033905      -164.1909
  24   2.0000      -1.006243       -27.3813
  25   2.0000      -0.980031       -26.6680
  26   2.0000      -0.915881       -24.9224
  27   2.0000      -0.912203       -24.8223
  28   2.0000      -0.869710       -23.6660
  29   2.0000      -0.854313       -23.2470
  30   2.0000      -0.844661       -22.9844
  31   2.0000      -0.818350       -22.2684
  32   2.0000      -0.790142       -21.5009
  33   2.0000      -0.778266       -21.1777
  34   2.0000      -0.713657       -19.4196
  35   2.0000      -0.694823       -18.9071
  36   2.0000      -0.689445       -18.7607
  37   2.0000      -0.655047       -17.8247
  38   2.0000      -0.640060       -17.4169
  39   2.0000      -0.631204       -17.1759
  40   2.0000      -0.594861       -16.1870
  41   2.0000      -0.566733       -15.4216
  42   2.0000      -0.554494       -15.0885
  43   2.0000      -0.550587       -14.9822
  44   2.0000      -0.546117       -14.8606
  45   2.0000      -0.541621       -14.7383
  46   2.0000      -0.525314       -14.2945
  47   2.0000      -0.515137       -14.0176
  48   2.0000      -0.506077       -13.7711
  49   2.0000      -0.496531       -13.5113
  50   2.0000      -0.493549       -13.4301
  51   2.0000      -0.486756       -13.2453
  52   2.0000      -0.473725       -12.8907
  53   2.0000      -0.470611       -12.8060
  54   2.0000      -0.461335       -12.5536
  55   2.0000      -0.450749       -12.2655
  56   2.0000      -0.440718       -11.9926
  57   2.0000      -0.439347       -11.9553
  58   2.0000      -0.433443       -11.7946
  59   2.0000      -0.419594       -11.4177
  60   2.0000      -0.411458       -11.1963
  61   2.0000      -0.409074       -11.1315
  62   2.0000      -0.407760       -11.0957
  63   2.0000      -0.357794        -9.7361
  64   2.0000      -0.337997        -9.1974
  65   2.0000      -0.327968        -8.9245
  66   2.0000      -0.280798        -7.6409
  67   0.0000       0.015188         0.4133
  68   0.0000       0.075104         2.0437
  69   0.0000       0.098250         2.6735
  70   0.0000       0.112433         3.0594
  71   0.0000       0.126264         3.4358

MULLIKEN ATOMIC CHARGES
-----------------------
   0 S :    0.102151
   1 C :   -0.132833
   2 C :   -0.062776
   3 C :    0.005211
   4 C :   -0.111040
   5 H :    0.010605
   6 C :    0.049522
   7 H :    0.012631
   8 H :    0.032604
   9 C :   -0.099478
  10 H :    0.016130
  11 H :    0.027722
  12 C :   -0.028551
  13 H :    0.034747
  14 H :    0.034944
  15 H :    0.029817
  16 S :    0.101890
  17 C :   -0.023667
  18 C :   -0.073424
  19 C :   -0.045064
  20 C :   -0.129337
  21 H :    0.035719
  22 C :    0.082623
  23 H :    0.020062
  24 H :    0.033232
  25 C :   -0.153225
  26 H :    0.029839
  27 H :    0.023248
  28 C :   -0.004889
  29 H :    0.060226
  30 H :    0.021455
  31 H :    0.021502
  32 H :    0.060001
  33 H :    0.018403
Sum of atomic charges:    0.0000000

LOEWDIN ATOMIC CHARGES
----------------------
   0 S :    0.391412
   1 C :   -0.196446
   2 C :   -0.064824
   3 C :   -0.071433
   4 C :   -0.168391
   5 H :    0.036760
   6 C :   -0.043006
   7 H :    0.029636
   8 H :    0.035908
   9 C :   -0.050680
  10 H :    0.018329
  11 H :    0.030078
  12 C :   -0.063164
  13 H :    0.024882
  14 H :    0.033180
  15 H :    0.021865
  16 S :    0.395746
  17 C :   -0.174277
  18 C :   -0.066715
  19 C :   -0.054136
  20 C :   -0.189469
  21 H :    0.036155
  22 C :   -0.040519
  23 H :    0.037063
  24 H :    0.030779
  25 C :   -0.050858
  26 H :    0.025722
  27 H :    0.025508
  28 C :   -0.063811
  29 H :    0.034985
  30 H :    0.027214
  31 H :    0.017314
  32 H :    0.034615
  33 H :    0.010579

  Mayer bond orders larger than 0.100000
B(  0-S ,  1-C ) :   1.1318 B(  0-S ,  4-C ) :   1.1524 B(  1-C ,  2-C ) :   1.5843
B(  1-C ,  4-C ) :   0.1073 B(  1-C , 32-H ) :   0.9689 B(  2-C ,  3-C ) :   1.2765
B(  2-C ,  6-C ) :   1.0118 B(  3-C ,  4-C ) :   1.5376 B(  3-C ,  5-H ) :   0.9801
B(  4-C , 20-C ) :   1.0839 B(  6-C ,  7-H ) :   0.9431 B(  6-C ,  8-H ) :   0.9357
B(  6-C ,  9-C ) :   1.0887 B(  9-C , 10-H ) :   0.9527 B(  9-C , 11-H ) :   0.9462
B(  9-C , 12-C ) :   1.0783 B( 12-C , 13-H ) :   0.9736 B( 12-C , 14-H ) :   0.9731
B( 12-C , 15-H ) :   0.9744 B( 16-S , 17-C ) :   1.1495 B( 16-S , 20-C ) :   1.1269
B( 17-C , 18-C ) :   1.6008 B( 17-C , 20-C ) :   0.1010 B( 17-C , 33-H ) :   0.9746
B( 18-C , 19-C ) :   1.2582 B( 18-C , 21-H ) :   0.9783 B( 19-C , 20-C ) :   1.5515
B( 19-C , 22-C ) :   1.0527 B( 22-C , 23-H ) :   0.9210 B( 22-C , 24-H ) :   0.9399
B( 22-C , 25-C ) :   1.0677 B( 25-C , 26-H ) :   0.9586 B( 25-C , 27-H ) :   0.9522
B( 25-C , 28-C ) :   1.0827 B( 28-C , 29-H ) :   0.9713 B( 28-C , 30-H ) :   0.9660
B( 28-C , 31-H ) :   0.9702

Dispersion correction           -0.015217184
FINAL SINGLE POINT ENERGY     -1339.866381343534

DIPOLE MOMENT
-------------
                                X             Y             Z
Electronic contribution:    -11.97660      -2.36031      28.27420
Nuclear contribution   :     12.39383       2.34332     -28.99827
                        -----------------------------------------
Total Dipole Moment    :      0.41723      -0.01699      -0.72407
                        -----------------------------------------
Magnitude (a.u.)       :      0.83586
Magnitude (Debye)      :      2.12458

Rotational constants in cm-1:     0.018420     0.010295     0.007225
Rotational constants in MHz :   552.213282   308.636155   216.593333

                             ****ORCA TERMINATED NORMALLY****
TOTAL RUN TIME: 0 days 0 hours 0 minutes 34 seconds 394 msec
