                         Program Version 4.2.1 -  RELEASE  -
|  1> ! wB97X-D3 SP def2-SVP
|  2> %pal
|  3> nprocs 16
|  4> end
|  5>
|  6> * xyz 0 1
|  7> S 	 -10.1744 	 -11.9116 	 88.1425
|  8> C 	 -10.5812 	 -11.5758 	 86.4534
|  9> C 	 -10.6104 	 -10.2073 	 86.1522
| 10> C 	 -10.3187 	 -9.43039 	 87.3296
| 11> C 	 -10.0446 	 -10.1811 	 88.4562
| 12> H 	 -10.3721 	 -8.37797 	 87.3952
| 13> C 	 -11.0064 	 -9.68271 	 84.8774
| 14> H 	 -10.8874 	 -10.4481 	 84.1279
| 15> H 	 -10.4975 	 -8.77362 	 84.6033
| 16> C 	 -12.4709 	 -9.14369 	 84.9112
| 17> H 	 -12.9922 	 -9.9735 	 85.1837
| 18> H 	 -12.4951 	 -8.39926 	 85.7535
| 19> C 	 -13.0942 	 -8.63411 	 83.576
| 20> H 	 -14.1577 	 -8.25173 	 83.7739
| 21> H 	 -12.5979 	 -7.80751 	 83.0574
| 22> H 	 -13.3062 	 -9.34055 	 82.8114
| 23> S 	 -10.6311 	 -8.1795 	 90.2028
| 24> C 	 -9.85665 	 -8.17739 	 91.7419
| 25> C 	 -8.93335 	 -9.20735 	 91.877
| 26> C 	 -8.85356 	 -10.0161 	 90.7426
| 27> C 	 -9.7721 	 -9.6605 	 89.7486
| 28> H 	 -8.33515 	 -9.30654 	 92.8224
| 29> C 	 -7.69648 	 -11.1202 	 90.5256
| 30> H 	 -8.1165 	 -12.0622 	 90.2827
| 31> H 	 -7.17744 	 -11.3696 	 91.4196
| 32> C 	 -6.70297 	 -10.804 	 89.3137
| 33> H 	 -7.24254 	 -10.917 	 88.4181
| 34> H 	 -5.9016 	 -11.5134 	 89.2818
| 35> C 	 -6.02357 	 -9.42734 	 89.286
| 36> H 	 -5.4846 	 -9.35712 	 90.1622
| 37> H 	 -6.70179 	 -8.659 	 89.3814
| 38> H 	 -5.31605 	 -9.22418 	 88.4773
| 39> H 	 -10.7192 	 -12.4117 	 85.6972
| 40> H 	 -10.0982 	 -7.54308 	 92.5428
| 41> *
| 42>
| 43>                          ****END OF INPUT****

CARTESIAN COORDINATES (ANGSTROEM)
---------------------------------
  S    -10.174400  -11.911600   88.142500
  C    -10.581200  -11.575800   86.453400
  C    -10.610400  -10.207300   86.152200
  C    -10.318700   -9.430390   87.329600
  C    -10.044600  -10.181100   88.456200
  H    -10.372100   -8.377970   87.395200
  C    -11.006400   -9.682710   84.877400
  H    -10.887400  -10.448100   84.127900
  H    -10.497500   -8.773620   84.603300
  C    -12.470900   -9.143690   84.911200
  H    -12.992200   -9.973500   85.183700
  H    -12.495100   -8.399260   85.753500
  C    -13.094200   -8.634110   83.576000
  H    -14.157700   -8.251730   83.773900
  H    -12.597900   -7.807510   83.057400
  H    -13.306200   -9.340550   82.811400
  S    -10.631100   -8.179500   90.202800
  C     -9.856650   -8.177390   91.741900
  C     -8.933350   -9.207350   91.877000
  C     -8.853560  -10.016100   90.742600
  C     -9.772100   -9.660500   89.748600
  H     -8.335150   -9.306540   92.822400
  C     -7.696480  -11.120200   90.525600
  H     -8.116500  -12.062200   90.282700
  H     -7.177440  -11.369600   91.419600
  C     -6.702970  -10.804000   89.313700
  H     -7.242540  -10.917000   88.418100
  H     -5.901600  -11.513400   89.281800
  C     -6.023570   -9.427340   89.286000
  H     -5.484600   -9.357120   90.162200
  H     -6.701790   -8.659000   89.381400
  H     -5.316050   -9.224180   88.477300
  H    -10.719200  -12.411700   85.697200
  H    -10.098200   -7.543080   92.542800

 Total Charge           Charge          ....    0
 Multiplicity           Mult            ....    1
 Number of Electrons    NEL             ....  134
 Basis Dimension        Dim             ....  322

ORBITAL ENERGIES
----------------

  NO   OCC          E(Eh)            E(eV)
   0   2.0000     -88.970277     -2421.0043
   1   2.0000     -88.968699     -2420.9614
   2   2.0000     -10.328992      -281.0662
   3   2.0000     -10.326384      -280.9952
   4   2.0000     -10.320869      -280.8451
   5   2.0000     -10.314317      -280.6668
   6   2.0000     -10.309079      -280.5243
   7   2.0000     -10.301473      -280.3173
   8   2.0000     -10.297049      -280.1970
   9   2.0000     -10.295760      -280.1619
  10   2.0000     -10.292249      -280.0663
  11   2.0000     -10.287447      -279.9357
  12   2.0000     -10.284700      -279.8609
  13   2.0000     -10.284535      -279.8564
  14   2.0000     -10.277119      -279.6546
  15   2.0000     -10.255031      -279.0536
  16   2.0000      -8.084946      -220.0026
  17   2.0000      -8.082469      -219.9352
  18   2.0000      -6.043324      -164.4472
  19   2.0000      -6.041063      -164.3857
  20   2.0000      -6.039489      -164.3428
  21   2.0000      -6.037193      -164.2804
  22   2.0000      -6.035840      -164.2435
  23   2.0000      -6.033124      -164.1696
  24   2.0000      -1.008272       -27.4365
  25   2.0000      -0.983363       -26.7587
  26   2.0000      -0.918527       -24.9944
  27   2.0000      -0.895031       -24.3550
  28   2.0000      -0.870688       -23.6926
  29   2.0000      -0.852072       -23.1861
  30   2.0000      -0.844487       -22.9797
  31   2.0000      -0.812214       -22.1015
  32   2.0000      -0.788666       -21.4607
  33   2.0000      -0.773452       -21.0467
  34   2.0000      -0.714501       -19.4426
  35   2.0000      -0.701462       -19.0877
  36   2.0000      -0.692233       -18.8366
  37   2.0000      -0.667632       -18.1672
  38   2.0000      -0.637329       -17.3426
  39   2.0000      -0.619210       -16.8496
  40   2.0000      -0.593820       -16.1587
  41   2.0000      -0.578897       -15.7526
  42   2.0000      -0.557354       -15.1664
  43   2.0000      -0.552167       -15.0252
  44   2.0000      -0.538455       -14.6521
  45   2.0000      -0.519182       -14.1277
  46   2.0000      -0.513948       -13.9852
  47   2.0000      -0.509415       -13.8619
  48   2.0000      -0.505960       -13.7679
  49   2.0000      -0.498161       -13.5557
  50   2.0000      -0.481787       -13.1101
  51   2.0000      -0.478700       -13.0261
  52   2.0000      -0.471656       -12.8344
  53   2.0000      -0.469339       -12.7714
  54   2.0000      -0.462903       -12.5962
  55   2.0000      -0.451133       -12.2759
  56   2.0000      -0.442576       -12.0431
  57   2.0000      -0.439874       -11.9696
  58   2.0000      -0.432492       -11.7687
  59   2.0000      -0.426128       -11.5955
  60   2.0000      -0.423378       -11.5207
  61   2.0000      -0.417056       -11.3487
  62   2.0000      -0.412805       -11.2330
  63   2.0000      -0.352858        -9.6018
  64   2.0000      -0.338543        -9.2122
  65   2.0000      -0.328434        -8.9371
  66   2.0000      -0.281597        -7.6626
  67   0.0000       0.019884         0.5411
  68   0.0000       0.074914         2.0385
  69   0.0000       0.102745         2.7958
  70   0.0000       0.111206         3.0261
  71   0.0000       0.138250         3.7620

MULLIKEN ATOMIC CHARGES
-----------------------
   0 S :    0.111008
   1 C :   -0.158343
   2 C :   -0.065535
   3 C :    0.005744
   4 C :   -0.131579
   5 H :   -0.000682
   6 C :    0.093631
   7 H :    0.015020
   8 H :    0.018253
   9 C :   -0.062296
  10 H :    0.005682
  11 H :    0.038639
  12 C :   -0.055878
  13 H :    0.037454
  14 H :    0.032172
  15 H :    0.025604
  16 S :    0.112974
  17 C :   -0.075125
  18 C :   -0.063416
  19 C :   -0.033695
  20 C :   -0.151139
  21 H :    0.038162
  22 C :    0.097241
  23 H :    0.015925
  24 H :    0.008749
  25 C :   -0.059883
  26 H :    0.025351
  27 H :    0.019634
  28 C :    0.001415
  29 H :   -0.005260
  30 H :    0.013657
  31 H :    0.034688
  32 H :    0.071185
  33 H :    0.040643
Sum of atomic charges:    0.0000000

LOEWDIN ATOMIC CHARGES
----------------------
   0 S :    0.399605
   1 C :   -0.203990
   2 C :   -0.057448
   3 C :   -0.063262
   4 C :   -0.183954
   5 H :    0.018504
   6 C :   -0.033478
   7 H :    0.028355
   8 H :    0.029899
   9 C :   -0.026813
  10 H :    0.010389
  11 H :    0.031053
  12 C :   -0.075726
  13 H :    0.038728
  14 H :    0.023631
  15 H :    0.020904
  16 S :    0.422362
  17 C :   -0.187556
  18 C :   -0.078053
  19 C :   -0.055635
  20 C :   -0.192139
  21 H :    0.042567
  22 C :   -0.019404
  23 H :    0.021686
  24 H :    0.022663
  25 C :   -0.027065
  26 H :    0.013047
  27 H :    0.021358
  28 C :   -0.057746
  29 H :    0.013687
  30 H :    0.014494
  31 H :    0.030222
  32 H :    0.038818
  33 H :    0.020298

  Mayer bond orders larger than 0.100000
B(  0-S ,  1-C ) :   1.1249 B(  0-S ,  4-C ) :   1.1376 B(  1-C ,  2-C ) :   1.6035
B(  1-C , 32-H ) :   0.9562 B(  2-C ,  3-C ) :   1.2197 B(  2-C ,  6-C ) :   1.0787
B(  3-C ,  4-C ) :   1.5632 B(  3-C ,  5-H ) :   0.9945 B(  4-C , 20-C ) :   1.0911
B(  6-C ,  7-H ) :   0.9336 B(  6-C ,  8-H ) :   0.9266 B(  6-C ,  9-C ) :   1.0425
B(  9-C , 10-H ) :   0.9541 B(  9-C , 11-H ) :   0.9600 B(  9-C , 12-C ) :   1.0752
B( 12-C , 13-H ) :   0.9721 B( 12-C , 14-H ) :   0.9769 B( 12-C , 15-H ) :   0.9755
B( 16-S , 17-C ) :   1.1689 B( 16-S , 20-C ) :   1.1455 B( 17-C , 18-C ) :   1.5830
B( 17-C , 20-C ) :   0.1085 B( 17-C , 33-H ) :   0.9724 B( 18-C , 19-C ) :   1.2842
B( 18-C , 21-H ) :   0.9820 B( 19-C , 20-C ) :   1.5402 B( 19-C , 22-C ) :   1.0211
B( 22-C , 23-H ) :   0.9362 B( 22-C , 24-H ) :   0.9436 B( 22-C , 25-C ) :   1.0629
B( 25-C , 26-H ) :   0.9576 B( 25-C , 27-H ) :   0.9578 B( 25-C , 28-C ) :   1.0757
B( 28-C , 29-H ) :   0.9716 B( 28-C , 30-H ) :   0.9720 B( 28-C , 31-H ) :   0.9750

Dispersion correction           -0.015029626
FINAL SINGLE POINT ENERGY     -1339.862286152707

DIPOLE MOMENT
-------------
                                X             Y             Z
Electronic contribution:     -5.03149      -3.35884      15.03722
Nuclear contribution   :      5.11789       3.44599     -15.20264
                        -----------------------------------------
Total Dipole Moment    :      0.08639       0.08715      -0.16543
                        -----------------------------------------
Magnitude (a.u.)       :      0.20598
Magnitude (Debye)      :      0.52355

Rotational constants in cm-1:     0.021807     0.008178     0.007021
Rotational constants in MHz :   653.767883   245.167168   210.486166

                             ****ORCA TERMINATED NORMALLY****
TOTAL RUN TIME: 0 days 0 hours 0 minutes 34 seconds 644 msec
