                         Program Version 4.2.1 -  RELEASE  -
|  1> ! wB97X-D3 SP def2-SVP
|  2> %pal
|  3> nprocs 16
|  4> end
|  5>
|  6> * xyz 0 1
|  7> S 	 -6.77421 	 41.1484 	 32.4705
|  8> C 	 -6.34723 	 39.534 	 31.9057
|  9> C 	 -5.05186 	 39.2674 	 32.1881
| 10> C 	 -4.47244 	 40.2862 	 33.0299
| 11> C 	 -5.21729 	 41.4717 	 33.1234
| 12> H 	 -3.49968 	 40.3004 	 33.4797
| 13> C 	 -4.35486 	 38.0274 	 31.7194
| 14> H 	 -4.83908 	 37.2154 	 32.1868
| 15> H 	 -3.39602 	 38.0487 	 32.1691
| 16> C 	 -4.24011 	 37.8104 	 30.2657
| 17> H 	 -5.0759 	 38.2623 	 29.7365
| 18> H 	 -3.49215 	 38.5549 	 29.9093
| 19> C 	 -4.0405 	 36.2866 	 29.8105
| 20> H 	 -3.00531 	 36.0257 	 29.7605
| 21> H 	 -4.51852 	 35.5923 	 30.5207
| 22> H 	 -4.44518 	 36.1701 	 28.7324
| 23> S 	 -6.18084 	 43.0222 	 35.1193
| 24> C 	 -5.21596 	 44.4873 	 35.5942
| 25> C 	 -3.92193 	 44.4044 	 35.2193
| 26> C 	 -3.75211 	 43.3701 	 34.1923
| 27> C 	 -4.9289 	 42.6421 	 33.9904
| 28> H 	 -3.31744 	 45.2184 	 35.5983
| 29> C 	 -2.37197 	 43.0643 	 33.6165
| 30> H 	 -2.0852 	 42.1776 	 34.1427
| 31> H 	 -1.77029 	 43.8051 	 33.987
| 32> C 	 -2.32164 	 42.9854 	 32.1056
| 33> H 	 -2.66008 	 43.9422 	 31.5948
| 34> H 	 -2.99578 	 42.2442 	 31.7779
| 35> C 	 -0.928239 	 42.6031 	 31.6415
| 36> H 	 -0.535018 	 41.6728 	 32.1214
| 37> H 	 -0.264092 	 43.3801 	 31.8261
| 38> H 	 -0.866787 	 42.468 	 30.5732
| 39> H 	 -6.99148 	 38.8432 	 31.3459
| 40> H 	 -5.43174 	 44.9908 	 36.4261
| 41> *
| 42>
| 43>                          ****END OF INPUT****

CARTESIAN COORDINATES (ANGSTROEM)
---------------------------------
  S     -6.774210   41.148400   32.470500
  C     -6.347230   39.534000   31.905700
  C     -5.051860   39.267400   32.188100
  C     -4.472440   40.286200   33.029900
  C     -5.217290   41.471700   33.123400
  H     -3.499680   40.300400   33.479700
  C     -4.354860   38.027400   31.719400
  H     -4.839080   37.215400   32.186800
  H     -3.396020   38.048700   32.169100
  C     -4.240110   37.810400   30.265700
  H     -5.075900   38.262300   29.736500
  H     -3.492150   38.554900   29.909300
  C     -4.040500   36.286600   29.810500
  H     -3.005310   36.025700   29.760500
  H     -4.518520   35.592300   30.520700
  H     -4.445180   36.170100   28.732400
  S     -6.180840   43.022200   35.119300
  C     -5.215960   44.487300   35.594200
  C     -3.921930   44.404400   35.219300
  C     -3.752110   43.370100   34.192300
  C     -4.928900   42.642100   33.990400
  H     -3.317440   45.218400   35.598300
  C     -2.371970   43.064300   33.616500
  H     -2.085200   42.177600   34.142700
  H     -1.770290   43.805100   33.987000
  C     -2.321640   42.985400   32.105600
  H     -2.660080   43.942200   31.594800
  H     -2.995780   42.244200   31.777900
  C     -0.928239   42.603100   31.641500
  H     -0.535018   41.672800   32.121400
  H     -0.264092   43.380100   31.826100
  H     -0.866787   42.468000   30.573200
  H     -6.991480   38.843200   31.345900
  H     -5.431740   44.990800   36.426100

 Total Charge           Charge          ....    0
 Multiplicity           Mult            ....    1
 Number of Electrons    NEL             ....  134
 Basis Dimension        Dim             ....  322

ORBITAL ENERGIES
----------------

  NO   OCC          E(Eh)            E(eV)
   0   2.0000     -88.964869     -2420.8572
   1   2.0000     -88.962484     -2420.7923
   2   2.0000     -10.330462      -281.1062
   3   2.0000     -10.329655      -281.0842
   4   2.0000     -10.312777      -280.6249
   5   2.0000     -10.308380      -280.5053
   6   2.0000     -10.305251      -280.4201
   7   2.0000     -10.298751      -280.2433
   8   2.0000     -10.297003      -280.1957
   9   2.0000     -10.294768      -280.1349
  10   2.0000     -10.292770      -280.0805
  11   2.0000     -10.288835      -279.9734
  12   2.0000     -10.282834      -279.8101
  13   2.0000     -10.280820      -279.7553
  14   2.0000     -10.279619      -279.7227
  15   2.0000     -10.270232      -279.4672
  16   2.0000      -8.079751      -219.8612
  17   2.0000      -8.077045      -219.7876
  18   2.0000      -6.038271      -164.3097
  19   2.0000      -6.035589      -164.2367
  20   2.0000      -6.034073      -164.1955
  21   2.0000      -6.031919      -164.1369
  22   2.0000      -6.030628      -164.1017
  23   2.0000      -6.027413      -164.0142
  24   2.0000      -1.007560       -27.4171
  25   2.0000      -0.983833       -26.7714
  26   2.0000      -0.919072       -25.0092
  27   2.0000      -0.912726       -24.8366
  28   2.0000      -0.872181       -23.7333
  29   2.0000      -0.847917       -23.0730
  30   2.0000      -0.841839       -22.9076
  31   2.0000      -0.820022       -22.3139
  32   2.0000      -0.784387       -21.3443
  33   2.0000      -0.774002       -21.0617
  34   2.0000      -0.713152       -19.4058
  35   2.0000      -0.710163       -19.3245
  36   2.0000      -0.694026       -18.8854
  37   2.0000      -0.664620       -18.0852
  38   2.0000      -0.641041       -17.4436
  39   2.0000      -0.615316       -16.7436
  40   2.0000      -0.589752       -16.0480
  41   2.0000      -0.576681       -15.6923
  42   2.0000      -0.571400       -15.5486
  43   2.0000      -0.557159       -15.1611
  44   2.0000      -0.528593       -14.3837
  45   2.0000      -0.522501       -14.2180
  46   2.0000      -0.517577       -14.0840
  47   2.0000      -0.510872       -13.9015
  48   2.0000      -0.507542       -13.8109
  49   2.0000      -0.500256       -13.6127
  50   2.0000      -0.491312       -13.3693
  51   2.0000      -0.490553       -13.3486
  52   2.0000      -0.473199       -12.8764
  53   2.0000      -0.466125       -12.6839
  54   2.0000      -0.459614       -12.5067
  55   2.0000      -0.452410       -12.3107
  56   2.0000      -0.443601       -12.0710
  57   2.0000      -0.436742       -11.8844
  58   2.0000      -0.436208       -11.8698
  59   2.0000      -0.425821       -11.5872
  60   2.0000      -0.418904       -11.3990
  61   2.0000      -0.416692       -11.3388
  62   2.0000      -0.406602       -11.0642
  63   2.0000      -0.351397        -9.5620
  64   2.0000      -0.330005        -8.9799
  65   2.0000      -0.324729        -8.8363
  66   2.0000      -0.293054        -7.9744
  67   0.0000       0.025658         0.6982
  68   0.0000       0.073313         1.9949
  69   0.0000       0.095194         2.5904
  70   0.0000       0.121297         3.3007
  71   0.0000       0.130196         3.5428

MULLIKEN ATOMIC CHARGES
-----------------------
   0 S :    0.105612
   1 C :   -0.129569
   2 C :   -0.120117
   3 C :    0.037793
   4 C :   -0.155477
   5 H :   -0.000932
   6 C :    0.149704
   7 H :    0.015168
   8 H :    0.001664
   9 C :   -0.089388
  10 H :    0.019648
  11 H :    0.025033
  12 C :   -0.066978
  13 H :    0.037896
  14 H :    0.042802
  15 H :    0.051891
  16 S :    0.084532
  17 C :   -0.028732
  18 C :   -0.052988
  19 C :   -0.084942
  20 C :   -0.128598
  21 H :    0.034468
  22 C :    0.132835
  23 H :    0.030100
  24 H :   -0.017229
  25 C :   -0.081144
  26 H :    0.039368
  27 H :    0.032372
  28 C :   -0.013450
  29 H :    0.026637
  30 H :    0.010296
  31 H :    0.024491
  32 H :    0.056166
  33 H :    0.011070
Sum of atomic charges:    0.0000000

LOEWDIN ATOMIC CHARGES
----------------------
   0 S :    0.414794
   1 C :   -0.192697
   2 C :   -0.063659
   3 C :   -0.064070
   4 C :   -0.208249
   5 H :    0.023613
   6 C :   -0.033254
   7 H :    0.026512
   8 H :    0.025551
   9 C :   -0.049587
  10 H :    0.020805
  11 H :    0.031707
  12 C :   -0.066419
  13 H :    0.021561
  14 H :    0.027857
  15 H :    0.040436
  16 S :    0.380659
  17 C :   -0.147864
  18 C :   -0.059605
  19 C :   -0.050208
  20 C :   -0.197813
  21 H :    0.039697
  22 C :   -0.021960
  23 H :    0.030968
  24 H :    0.016748
  25 C :   -0.037983
  26 H :    0.035740
  27 H :    0.017329
  28 C :   -0.061323
  29 H :    0.027869
  30 H :    0.013792
  31 H :    0.024488
  32 H :    0.035317
  33 H :   -0.000753

  Mayer bond orders larger than 0.100000
B(  0-S ,  1-C ) :   1.1361 B(  0-S ,  4-C ) :   1.1679 B(  1-C ,  2-C ) :   1.6097
B(  1-C , 32-H ) :   0.9661 B(  2-C ,  3-C ) :   1.2486 B(  2-C ,  6-C ) :   1.0167
B(  3-C ,  4-C ) :   1.5447 B(  3-C ,  5-H ) :   0.9896 B(  4-C , 20-C ) :   1.0281
B(  6-C ,  7-H ) :   0.9292 B(  6-C ,  8-H ) :   0.9300 B(  6-C ,  9-C ) :   1.0618
B(  9-C , 10-H ) :   0.9684 B(  9-C , 11-H ) :   0.9475 B(  9-C , 12-C ) :   1.0455
B( 12-C , 13-H ) :   0.9804 B( 12-C , 14-H ) :   0.9796 B( 12-C , 15-H ) :   0.9778
B( 16-S , 17-C ) :   1.1142 B( 16-S , 20-C ) :   1.1514 B( 17-C , 18-C ) :   1.6959
B( 17-C , 33-H ) :   0.9651 B( 18-C , 19-C ) :   1.1932 B( 18-C , 21-H ) :   0.9828
B( 19-C , 20-C ) :   1.6247 B( 19-C , 22-C ) :   1.0279 B( 22-C , 23-H ) :   0.9287
B( 22-C , 24-H ) :   0.9226 B( 22-C , 25-C ) :   1.0643 B( 25-C , 26-H ) :   0.9515
B( 25-C , 27-H ) :   0.9531 B( 25-C , 28-C ) :   1.0940 B( 28-C , 29-H ) :   0.9719
B( 28-C , 30-H ) :   0.9725 B( 28-C , 31-H ) :   0.9712

Dispersion correction           -0.014218983
FINAL SINGLE POINT ENERGY     -1339.841794300312

DIPOLE MOMENT
-------------
                                X             Y             Z
Electronic contribution:    -22.20573      14.14980      16.29784
Nuclear contribution   :     22.91041     -14.45835     -16.33245
                        -----------------------------------------
Total Dipole Moment    :      0.70468      -0.30855      -0.03461
                        -----------------------------------------
Magnitude (a.u.)       :      0.77005
Magnitude (Debye)      :      1.95731

Rotational constants in cm-1:     0.020521     0.008410     0.006359
Rotational constants in MHz :   615.210342   252.126900   190.646160

                             ****ORCA TERMINATED NORMALLY****
TOTAL RUN TIME: 0 days 0 hours 0 minutes 33 seconds 820 msec
