                         Program Version 4.2.1 -  RELEASE  -
|  1> ! wB97X-D3 SP def2-SVP
|  2> %pal
|  3> nprocs 16
|  4> end
|  5>
|  6> * xyz 0 1
|  7> S 	 43.6947 	 20.42 	 84.3012
|  8> C 	 42.4825 	 21.5136 	 83.6906
|  9> C 	 41.4552 	 20.7541 	 83.0982
| 10> C 	 41.6797 	 19.3728 	 83.0226
| 11> C 	 42.8875 	 19.0349 	 83.5737
| 12> H 	 41.1476 	 18.5187 	 82.5804
| 13> C 	 40.2598 	 21.4166 	 82.3719
| 14> H 	 39.5331 	 21.8582 	 82.9746
| 15> H 	 39.647 	 20.5118 	 82.0385
| 16> C 	 40.6126 	 22.3144 	 81.2072
| 17> H 	 41.2431 	 23.1745 	 81.5043
| 18> H 	 41.3774 	 21.7328 	 80.6777
| 19> C 	 39.4358 	 22.795 	 80.3561
| 20> H 	 38.6379 	 21.9974 	 80.2448
| 21> H 	 38.9203 	 23.5974 	 80.854
| 22> H 	 39.8504 	 23.1488 	 79.4209
| 23> S 	 45.2472 	 17.5211 	 83.6808
| 24> C 	 45.2241 	 15.8048 	 83.8198
| 25> C 	 43.9152 	 15.3347 	 83.8229
| 26> C 	 42.9375 	 16.3885 	 83.8875
| 27> C 	 43.4501 	 17.7148 	 83.7627
| 28> H 	 43.7607 	 14.3123 	 83.6683
| 29> C 	 41.4353 	 16.0218 	 83.9056
| 30> H 	 41.3976 	 14.9359 	 83.6312
| 31> H 	 40.8421 	 16.5113 	 83.2248
| 32> C 	 40.7356 	 16.1348 	 85.3031
| 33> H 	 40.7654 	 17.1481 	 85.7093
| 34> H 	 41.1523 	 15.4321 	 86.019
| 35> C 	 39.2655 	 15.7123 	 85.199
| 36> H 	 39.1684 	 14.6704 	 84.8124
| 37> H 	 38.5919 	 16.3033 	 84.5336
| 38> H 	 38.7622 	 15.7675 	 86.1959
| 39> H 	 42.4299 	 22.5807 	 83.9887
| 40> H 	 46.0841 	 15.0866 	 83.6214
| 41> *
| 42>
| 43>                          ****END OF INPUT****

CARTESIAN COORDINATES (ANGSTROEM)
---------------------------------
  S     43.694700   20.420000   84.301200
  C     42.482500   21.513600   83.690600
  C     41.455200   20.754100   83.098200
  C     41.679700   19.372800   83.022600
  C     42.887500   19.034900   83.573700
  H     41.147600   18.518700   82.580400
  C     40.259800   21.416600   82.371900
  H     39.533100   21.858200   82.974600
  H     39.647000   20.511800   82.038500
  C     40.612600   22.314400   81.207200
  H     41.243100   23.174500   81.504300
  H     41.377400   21.732800   80.677700
  C     39.435800   22.795000   80.356100
  H     38.637900   21.997400   80.244800
  H     38.920300   23.597400   80.854000
  H     39.850400   23.148800   79.420900
  S     45.247200   17.521100   83.680800
  C     45.224100   15.804800   83.819800
  C     43.915200   15.334700   83.822900
  C     42.937500   16.388500   83.887500
  C     43.450100   17.714800   83.762700
  H     43.760700   14.312300   83.668300
  C     41.435300   16.021800   83.905600
  H     41.397600   14.935900   83.631200
  H     40.842100   16.511300   83.224800
  C     40.735600   16.134800   85.303100
  H     40.765400   17.148100   85.709300
  H     41.152300   15.432100   86.019000
  C     39.265500   15.712300   85.199000
  H     39.168400   14.670400   84.812400
  H     38.591900   16.303300   84.533600
  H     38.762200   15.767500   86.195900
  H     42.429900   22.580700   83.988700
  H     46.084100   15.086600   83.621400

 Total Charge           Charge          ....    0
 Multiplicity           Mult            ....    1
 Number of Electrons    NEL             ....  134
 Basis Dimension        Dim             ....  322

ORBITAL ENERGIES
----------------

  NO   OCC          E(Eh)            E(eV)
   0   2.0000     -88.968702     -2420.9615
   1   2.0000     -88.966302     -2420.8962
   2   2.0000     -10.337262      -281.2912
   3   2.0000     -10.332709      -281.1673
   4   2.0000     -10.323142      -280.9070
   5   2.0000     -10.320028      -280.8222
   6   2.0000     -10.314199      -280.6636
   7   2.0000     -10.307775      -280.4888
   8   2.0000     -10.297037      -280.1966
   9   2.0000     -10.294055      -280.1155
  10   2.0000     -10.293940      -280.1123
  11   2.0000     -10.289052      -279.9793
  12   2.0000     -10.287442      -279.9355
  13   2.0000     -10.284507      -279.8557
  14   2.0000     -10.283543      -279.8294
  15   2.0000     -10.281964      -279.7865
  16   2.0000      -8.083365      -219.9595
  17   2.0000      -8.080463      -219.8806
  18   2.0000      -6.041789      -164.4054
  19   2.0000      -6.039029      -164.3303
  20   2.0000      -6.037817      -164.2974
  21   2.0000      -6.034894      -164.2178
  22   2.0000      -6.034267      -164.2007
  23   2.0000      -6.031330      -164.1208
  24   2.0000      -1.007016       -27.4023
  25   2.0000      -0.982165       -26.7261
  26   2.0000      -0.909909       -24.7599
  27   2.0000      -0.904413       -24.6103
  28   2.0000      -0.870455       -23.6863
  29   2.0000      -0.855199       -23.2711
  30   2.0000      -0.844927       -22.9916
  31   2.0000      -0.814675       -22.1684
  32   2.0000      -0.781240       -21.2586
  33   2.0000      -0.767006       -20.8713
  34   2.0000      -0.705421       -19.1955
  35   2.0000      -0.701477       -19.0882
  36   2.0000      -0.691300       -18.8112
  37   2.0000      -0.664742       -18.0885
  38   2.0000      -0.643868       -17.5205
  39   2.0000      -0.620944       -16.8967
  40   2.0000      -0.593957       -16.1624
  41   2.0000      -0.570793       -15.5321
  42   2.0000      -0.562847       -15.3159
  43   2.0000      -0.551847       -15.0165
  44   2.0000      -0.529982       -14.4215
  45   2.0000      -0.524780       -14.2800
  46   2.0000      -0.516656       -14.0589
  47   2.0000      -0.510035       -13.8788
  48   2.0000      -0.504564       -13.7299
  49   2.0000      -0.499219       -13.5845
  50   2.0000      -0.499080       -13.5807
  51   2.0000      -0.480451       -13.0737
  52   2.0000      -0.470619       -12.8062
  53   2.0000      -0.460616       -12.5340
  54   2.0000      -0.458468       -12.4756
  55   2.0000      -0.450961       -12.2713
  56   2.0000      -0.443664       -12.0727
  57   2.0000      -0.438459       -11.9311
  58   2.0000      -0.431088       -11.7305
  59   2.0000      -0.426861       -11.6155
  60   2.0000      -0.420459       -11.4413
  61   2.0000      -0.409993       -11.1565
  62   2.0000      -0.400454       -10.8969
  63   2.0000      -0.358412        -9.7529
  64   2.0000      -0.337725        -9.1900
  65   2.0000      -0.330067        -8.9816
  66   2.0000      -0.283901        -7.7253
  67   0.0000       0.016149         0.4394
  68   0.0000       0.070601         1.9212
  69   0.0000       0.105375         2.8674
  70   0.0000       0.114201         3.1076
  71   0.0000       0.136894         3.7251

MULLIKEN ATOMIC CHARGES
-----------------------
   0 S :    0.113539
   1 C :   -0.131724
   2 C :   -0.078951
   3 C :    0.005206
   4 C :   -0.128227
   5 H :    0.021359
   6 C :    0.060383
   7 H :    0.010633
   8 H :    0.014566
   9 C :   -0.083708
  10 H :    0.026800
  11 H :    0.026364
  12 C :   -0.034542
  13 H :    0.036202
  14 H :    0.029695
  15 H :    0.042353
  16 S :    0.091785
  17 C :   -0.104783
  18 C :   -0.033182
  19 C :   -0.029821
  20 C :   -0.128331
  21 H :    0.006926
  22 C :    0.049589
  23 H :    0.018930
  24 H :    0.002774
  25 C :   -0.048463
  26 H :    0.044000
  27 H :    0.033589
  28 C :   -0.097246
  29 H :    0.029677
  30 H :    0.029538
  31 H :    0.042094
  32 H :    0.075727
  33 H :    0.087248
Sum of atomic charges:   -0.0000000

LOEWDIN ATOMIC CHARGES
----------------------
   0 S :    0.412894
   1 C :   -0.208532
   2 C :   -0.059543
   3 C :   -0.070672
   4 C :   -0.184524
   5 H :    0.042170
   6 C :   -0.036281
   7 H :    0.015667
   8 H :    0.033411
   9 C :   -0.050182
  10 H :    0.025410
  11 H :    0.025262
  12 C :   -0.063396
  13 H :    0.031419
  14 H :    0.023484
  15 H :    0.030223
  16 S :    0.397523
  17 C :   -0.205399
  18 C :   -0.074112
  19 C :   -0.051844
  20 C :   -0.185290
  21 H :    0.023674
  22 C :   -0.025365
  23 H :    0.035319
  24 H :    0.009639
  25 C :   -0.034891
  26 H :    0.027527
  27 H :    0.027229
  28 C :   -0.079068
  29 H :    0.024563
  30 H :    0.022188
  31 H :    0.030789
  32 H :    0.040104
  33 H :    0.050605

  Mayer bond orders larger than 0.100000
B(  0-S ,  1-C ) :   1.1444 B(  0-S ,  4-C ) :   1.1636 B(  1-C ,  2-C ) :   1.5715
B(  1-C ,  4-C ) :   0.1077 B(  1-C , 32-H ) :   0.9686 B(  2-C ,  3-C ) :   1.2540
B(  2-C ,  6-C ) :   1.0162 B(  3-C ,  4-C ) :   1.5664 B(  3-C ,  5-H ) :   0.9911
B(  4-C , 20-C ) :   1.0718 B(  6-C ,  7-H ) :   0.9371 B(  6-C ,  8-H ) :   0.9428
B(  6-C ,  9-C ) :   1.0606 B(  9-C , 10-H ) :   0.9494 B(  9-C , 11-H ) :   0.9574
B(  9-C , 12-C ) :   1.0734 B( 12-C , 13-H ) :   0.9763 B( 12-C , 14-H ) :   0.9739
B( 12-C , 15-H ) :   0.9735 B( 16-S , 17-C ) :   1.1733 B( 16-S , 20-C ) :   1.1284
B( 17-C , 18-C ) :   1.5904 B( 17-C , 20-C ) :   0.1028 B( 17-C , 33-H ) :   0.9531
B( 18-C , 19-C ) :   1.2716 B( 18-C , 21-H ) :   0.9948 B( 19-C , 20-C ) :   1.5468
B( 19-C , 22-C ) :   1.0339 B( 22-C , 23-H ) :   0.9354 B( 22-C , 24-H ) :   0.9501
B( 22-C , 25-C ) :   1.0605 B( 25-C , 26-H ) :   0.9577 B( 25-C , 27-H ) :   0.9542
B( 25-C , 28-C ) :   1.0800 B( 28-C , 29-H ) :   0.9739 B( 28-C , 30-H ) :   0.9745
B( 28-C , 31-H ) :   0.9740

Dispersion correction           -0.013510472
FINAL SINGLE POINT ENERGY     -1339.867187672049

DIPOLE MOMENT
-------------
                                X             Y             Z
Electronic contribution:     28.16942      -0.80865       6.68303
Nuclear contribution   :    -28.74485       0.61739      -6.90105
                        -----------------------------------------
Total Dipole Moment    :     -0.57543      -0.19126      -0.21802
                        -----------------------------------------
Magnitude (a.u.)       :      0.64438
Magnitude (Debye)      :      1.63790

Rotational constants in cm-1:     0.017901     0.008057     0.006283
Rotational constants in MHz :   536.669102   241.552611   188.360821

                             ****ORCA TERMINATED NORMALLY****
TOTAL RUN TIME: 0 days 0 hours 0 minutes 28 seconds 211 msec
