                         Program Version 4.2.1 -  RELEASE  -
|  1> ! wB97X-D3 SP def2-SVP
|  2> %pal
|  3> nprocs 16
|  4> end
|  5>
|  6> * xyz 0 1
|  7> S 	 -36.8426 	 71.0975 	 106.826
|  8> C 	 -36.4862 	 70.4397 	 105.258
|  9> C 	 -35.5916 	 71.2576 	 104.586
| 10> C 	 -35.427 	 72.5407 	 105.213
| 11> C 	 -36.0177 	 72.6018 	 106.428
| 12> H 	 -34.8388 	 73.3538 	 104.852
| 13> C 	 -34.8437 	 70.794 	 103.378
| 14> H 	 -34.5944 	 71.6785 	 102.89
| 15> H 	 -35.4202 	 70.3446 	 102.645
| 16> C 	 -33.5149 	 69.9681 	 103.695
| 17> H 	 -32.8142 	 70.4066 	 104.478
| 18> H 	 -33.7765 	 68.8992 	 103.905
| 19> C 	 -32.6482 	 69.9934 	 102.408
| 20> H 	 -31.6656 	 69.5389 	 102.516
| 21> H 	 -32.9642 	 69.5719 	 101.41
| 22> H 	 -32.362 	 71.0252 	 102.203
| 23> S 	 -35.7215 	 73.5778 	 109.065
| 24> C 	 -35.3968 	 75.2745 	 109.252
| 25> C 	 -35.5942 	 75.9907 	 108.082
| 26> C 	 -35.8551 	 75.1009 	 107.01
| 27> C 	 -35.9301 	 73.7654 	 107.309
| 28> H 	 -35.7302 	 77.0619 	 108.062
| 29> C 	 -36.1628 	 75.6709 	 105.616
| 30> H 	 -36.4406 	 74.8452 	 104.998
| 31> H 	 -35.2282 	 75.9111 	 105.123
| 32> C 	 -37.1889 	 76.8406 	 105.476
| 33> H 	 -37.1517 	 77.2032 	 104.476
| 34> H 	 -37.0192 	 77.7345 	 106.046
| 35> C 	 -38.644 	 76.4437 	 105.782
| 36> H 	 -39.1894 	 77.3743 	 105.863
| 37> H 	 -38.8179 	 75.8984 	 106.709
| 38> H 	 -39.0092 	 75.8297 	 104.98
| 39> H 	 -36.7208 	 69.4081 	 104.893
| 40> H 	 -35.1572 	 75.8083 	 110.188
| 41> *
| 42>
| 43>                          ****END OF INPUT****

CARTESIAN COORDINATES (ANGSTROEM)
---------------------------------
  S    -36.842600   71.097500  106.826000
  C    -36.486200   70.439700  105.258000
  C    -35.591600   71.257600  104.586000
  C    -35.427000   72.540700  105.213000
  C    -36.017700   72.601800  106.428000
  H    -34.838800   73.353800  104.852000
  C    -34.843700   70.794000  103.378000
  H    -34.594400   71.678500  102.890000
  H    -35.420200   70.344600  102.645000
  C    -33.514900   69.968100  103.695000
  H    -32.814200   70.406600  104.478000
  H    -33.776500   68.899200  103.905000
  C    -32.648200   69.993400  102.408000
  H    -31.665600   69.538900  102.516000
  H    -32.964200   69.571900  101.410000
  H    -32.362000   71.025200  102.203000
  S    -35.721500   73.577800  109.065000
  C    -35.396800   75.274500  109.252000
  C    -35.594200   75.990700  108.082000
  C    -35.855100   75.100900  107.010000
  C    -35.930100   73.765400  107.309000
  H    -35.730200   77.061900  108.062000
  C    -36.162800   75.670900  105.616000
  H    -36.440600   74.845200  104.998000
  H    -35.228200   75.911100  105.123000
  C    -37.188900   76.840600  105.476000
  H    -37.151700   77.203200  104.476000
  H    -37.019200   77.734500  106.046000
  C    -38.644000   76.443700  105.782000
  H    -39.189400   77.374300  105.863000
  H    -38.817900   75.898400  106.709000
  H    -39.009200   75.829700  104.980000
  H    -36.720800   69.408100  104.893000
  H    -35.157200   75.808300  110.188000

 Total Charge           Charge          ....    0
 Multiplicity           Mult            ....    1
 Number of Electrons    NEL             ....  134
 Basis Dimension        Dim             ....  322

ORBITAL ENERGIES
----------------

  NO   OCC          E(Eh)            E(eV)
   0   2.0000     -88.967125     -2420.9186
   1   2.0000     -88.966295     -2420.8960
   2   2.0000     -10.329851      -281.0895
   3   2.0000     -10.326719      -281.0043
   4   2.0000     -10.320405      -280.8325
   5   2.0000     -10.314760      -280.6789
   6   2.0000     -10.304812      -280.4082
   7   2.0000     -10.299683      -280.2686
   8   2.0000     -10.299624      -280.2670
   9   2.0000     -10.291816      -280.0545
  10   2.0000     -10.290980      -280.0318
  11   2.0000     -10.287827      -279.9460
  12   2.0000     -10.284516      -279.8559
  13   2.0000     -10.284496      -279.8554
  14   2.0000     -10.280926      -279.7582
  15   2.0000     -10.269133      -279.4373
  16   2.0000      -8.081797      -219.9169
  17   2.0000      -8.080860      -219.8914
  18   2.0000      -6.040463      -164.3693
  19   2.0000      -6.039436      -164.3414
  20   2.0000      -6.036365      -164.2578
  21   2.0000      -6.035486      -164.2339
  22   2.0000      -6.032360      -164.1489
  23   2.0000      -6.031469      -164.1246
  24   2.0000      -1.008596       -27.4453
  25   2.0000      -0.986334       -26.8395
  26   2.0000      -0.907887       -24.7049
  27   2.0000      -0.903060       -24.5735
  28   2.0000      -0.870999       -23.7011
  29   2.0000      -0.852614       -23.2008
  30   2.0000      -0.845053       -22.9951
  31   2.0000      -0.817056       -22.2332
  32   2.0000      -0.783301       -21.3147
  33   2.0000      -0.770211       -20.9585
  34   2.0000      -0.706379       -19.2215
  35   2.0000      -0.704004       -19.1569
  36   2.0000      -0.697074       -18.9684
  37   2.0000      -0.660220       -17.9655
  38   2.0000      -0.640760       -17.4360
  39   2.0000      -0.622770       -16.9464
  40   2.0000      -0.595358       -16.2005
  41   2.0000      -0.568779       -15.4773
  42   2.0000      -0.558944       -15.2096
  43   2.0000      -0.548493       -14.9253
  44   2.0000      -0.536088       -14.5877
  45   2.0000      -0.525230       -14.2922
  46   2.0000      -0.519607       -14.1392
  47   2.0000      -0.511332       -13.9140
  48   2.0000      -0.505618       -13.7586
  49   2.0000      -0.501349       -13.6424
  50   2.0000      -0.490568       -13.3490
  51   2.0000      -0.473218       -12.8769
  52   2.0000      -0.464231       -12.6324
  53   2.0000      -0.462563       -12.5870
  54   2.0000      -0.457150       -12.4397
  55   2.0000      -0.452042       -12.3007
  56   2.0000      -0.446519       -12.1504
  57   2.0000      -0.437413       -11.9026
  58   2.0000      -0.430795       -11.7225
  59   2.0000      -0.427313       -11.6278
  60   2.0000      -0.423712       -11.5298
  61   2.0000      -0.416871       -11.3436
  62   2.0000      -0.411136       -11.1876
  63   2.0000      -0.357949        -9.7403
  64   2.0000      -0.331792        -9.0285
  65   2.0000      -0.328479        -8.9384
  66   2.0000      -0.286081        -7.7847
  67   0.0000       0.028026         0.7626
  68   0.0000       0.072355         1.9689
  69   0.0000       0.112136         3.0514
  70   0.0000       0.122006         3.3199
  71   0.0000       0.137600         3.7443

MULLIKEN ATOMIC CHARGES
-----------------------
   0 S :    0.110047
   1 C :   -0.118889
   2 C :   -0.107554
   3 C :    0.007514
   4 C :   -0.115721
   5 H :    0.007819
   6 C :    0.121890
   7 H :   -0.012343
   8 H :    0.009631
   9 C :   -0.068693
  10 H :    0.058635
  11 H :    0.046076
  12 C :   -0.093046
  13 H :    0.025954
  14 H :    0.037619
  15 H :    0.021239
  16 S :    0.104075
  17 C :   -0.098186
  18 C :   -0.026457
  19 C :   -0.078013
  20 C :   -0.127144
  21 H :    0.025274
  22 C :    0.066115
  23 H :    0.008876
  24 H :    0.026743
  25 C :   -0.043472
  26 H :    0.016416
  27 H :    0.017076
  28 C :   -0.049972
  29 H :    0.027385
  30 H :    0.042156
  31 H :    0.029872
  32 H :    0.063173
  33 H :    0.065905
Sum of atomic charges:    0.0000000

LOEWDIN ATOMIC CHARGES
----------------------
   0 S :    0.400296
   1 C :   -0.207643
   2 C :   -0.061041
   3 C :   -0.063313
   4 C :   -0.180593
   5 H :    0.030412
   6 C :   -0.026599
   7 H :    0.021104
   8 H :    0.025076
   9 C :   -0.032294
  10 H :    0.041356
  11 H :    0.028513
  12 C :   -0.086158
  13 H :    0.023359
  14 H :    0.028432
  15 H :    0.021537
  16 S :    0.395726
  17 C :   -0.184844
  18 C :   -0.073638
  19 C :   -0.058445
  20 C :   -0.191479
  21 H :    0.034189
  22 C :   -0.034227
  23 H :    0.024972
  24 H :    0.028768
  25 C :   -0.034913
  26 H :    0.024200
  27 H :    0.017439
  28 C :   -0.061274
  29 H :    0.025111
  30 H :    0.027518
  31 H :    0.022280
  32 H :    0.039734
  33 H :    0.036441

  Mayer bond orders larger than 0.100000
B(  0-S ,  1-C ) :   1.1257 B(  0-S ,  4-C ) :   1.1376 B(  1-C ,  2-C ) :   1.6207
B(  1-C , 32-H ) :   0.9634 B(  2-C ,  3-C ) :   1.2248 B(  2-C ,  6-C ) :   1.0360
B(  3-C ,  4-C ) :   1.5760 B(  3-C ,  5-H ) :   0.9989 B(  4-C , 20-C ) :   1.0503
B(  6-C ,  7-H ) :   0.9353 B(  6-C ,  8-H ) :   0.9344 B(  6-C ,  9-C ) :   1.0413
B(  9-C , 10-H ) :   0.9580 B(  9-C , 11-H ) :   0.9589 B(  9-C , 12-C ) :   1.0642
B( 12-C , 13-H ) :   0.9746 B( 12-C , 14-H ) :   0.9768 B( 12-C , 15-H ) :   0.9761
B( 16-S , 17-C ) :   1.1683 B( 16-S , 20-C ) :   1.1069 B( 17-C , 18-C ) :   1.6014
B( 17-C , 33-H ) :   0.9602 B( 18-C , 19-C ) :   1.2505 B( 18-C , 21-H ) :   0.9902
B( 19-C , 20-C ) :   1.6154 B( 19-C , 22-C ) :   1.0340 B( 22-C , 23-H ) :   0.9323
B( 22-C , 24-H ) :   0.9277 B( 22-C , 25-C ) :   1.0659 B( 25-C , 26-H ) :   0.9486
B( 25-C , 27-H ) :   0.9621 B( 25-C , 28-C ) :   1.0754 B( 28-C , 29-H ) :   0.9757
B( 28-C , 30-H ) :   0.9789 B( 28-C , 31-H ) :   0.9771

Dispersion correction           -0.014024639
FINAL SINGLE POINT ENERGY     -1339.867361313699

DIPOLE MOMENT
-------------
                                X             Y             Z
Electronic contribution:     -5.10145      -5.66895      23.21566
Nuclear contribution   :      5.35957       5.98392     -23.80135
                        -----------------------------------------
Total Dipole Moment    :      0.25811       0.31497      -0.58569
                        -----------------------------------------
Magnitude (a.u.)       :      0.71335
Magnitude (Debye)      :      1.81319

Rotational constants in cm-1:     0.019722     0.007641     0.006786
Rotational constants in MHz :   591.263792   229.061389   203.451467

                             ****ORCA TERMINATED NORMALLY****
TOTAL RUN TIME: 0 days 0 hours 0 minutes 29 seconds 150 msec
