                         Program Version 4.2.1 -  RELEASE  -
|  1> ! wB97X-D3 SP def2-SVP
|  2> %pal
|  3> nprocs 16
|  4> end
|  5>
|  6> * xyz 0 1
|  7> S 	 -91.2956 	 57.8945 	 129.774
|  8> C 	 -90.9829 	 56.7937 	 131.145
|  9> C 	 -91.0425 	 55.4836 	 130.777
| 10> C 	 -91.1128 	 55.3383 	 129.35
| 11> C 	 -91.4632 	 56.5093 	 128.62
| 12> H 	 -90.9288 	 54.4132 	 128.782
| 13> C 	 -91.228 	 54.3636 	 131.774
| 14> H 	 -90.9362 	 54.7914 	 132.743
| 15> H 	 -90.5434 	 53.4768 	 131.73
| 16> C 	 -92.6106 	 53.7846 	 131.909
| 17> H 	 -92.7537 	 53.9132 	 132.908
| 18> H 	 -93.3914 	 54.3746 	 131.444
| 19> C 	 -92.806 	 52.3106 	 131.746
| 20> H 	 -92.1942 	 51.7784 	 132.448
| 21> H 	 -93.7332 	 51.9441 	 131.998
| 22> H 	 -92.4478 	 51.9949 	 130.781
| 23> S 	 -90.718 	 57.8564 	 126.351
| 24> C 	 -91.3462 	 57.3434 	 124.842
| 25> C 	 -92.052 	 56.1873 	 124.929
| 26> C 	 -92.2134 	 55.789 	 126.263
| 27> C 	 -91.5869 	 56.6415 	 127.175
| 28> H 	 -92.4842 	 55.6236 	 124.123
| 29> C 	 -93.0177 	 54.5985 	 126.568
| 30> H 	 -93.9664 	 54.6868 	 126.079
| 31> H 	 -93.2746 	 54.6064 	 127.658
| 32> C 	 -92.2912 	 53.3031 	 126.28
| 33> H 	 -91.4468 	 53.2184 	 126.978
| 34> H 	 -91.6767 	 53.322 	 125.355
| 35> C 	 -93.1994 	 52.0325 	 126.357
| 36> H 	 -92.5651 	 51.1615 	 126.556
| 37> H 	 -93.7662 	 51.9279 	 125.477
| 38> H 	 -93.8301 	 52.0363 	 127.17
| 39> H 	 -91.1893 	 57.1347 	 132.134
| 40> H 	 -91.2357 	 57.8987 	 123.967
| 41> *
| 42>
| 43>                          ****END OF INPUT****

CARTESIAN COORDINATES (ANGSTROEM)
---------------------------------
  S    -91.295600   57.894500  129.774000
  C    -90.982900   56.793700  131.145000
  C    -91.042500   55.483600  130.777000
  C    -91.112800   55.338300  129.350000
  C    -91.463200   56.509300  128.620000
  H    -90.928800   54.413200  128.782000
  C    -91.228000   54.363600  131.774000
  H    -90.936200   54.791400  132.743000
  H    -90.543400   53.476800  131.730000
  C    -92.610600   53.784600  131.909000
  H    -92.753700   53.913200  132.908000
  H    -93.391400   54.374600  131.444000
  C    -92.806000   52.310600  131.746000
  H    -92.194200   51.778400  132.448000
  H    -93.733200   51.944100  131.998000
  H    -92.447800   51.994900  130.781000
  S    -90.718000   57.856400  126.351000
  C    -91.346200   57.343400  124.842000
  C    -92.052000   56.187300  124.929000
  C    -92.213400   55.789000  126.263000
  C    -91.586900   56.641500  127.175000
  H    -92.484200   55.623600  124.123000
  C    -93.017700   54.598500  126.568000
  H    -93.966400   54.686800  126.079000
  H    -93.274600   54.606400  127.658000
  C    -92.291200   53.303100  126.280000
  H    -91.446800   53.218400  126.978000
  H    -91.676700   53.322000  125.355000
  C    -93.199400   52.032500  126.357000
  H    -92.565100   51.161500  126.556000
  H    -93.766200   51.927900  125.477000
  H    -93.830100   52.036300  127.170000
  H    -91.189300   57.134700  132.134000
  H    -91.235700   57.898700  123.967000

 Total Charge           Charge          ....    0
 Multiplicity           Mult            ....    1
 Number of Electrons    NEL             ....  134
 Basis Dimension        Dim             ....  322

ORBITAL ENERGIES
----------------

  NO   OCC          E(Eh)            E(eV)
   0   2.0000     -88.965641     -2420.8782
   1   2.0000     -88.964120     -2420.8368
   2   2.0000     -10.339639      -281.3559
   3   2.0000     -10.322922      -280.9010
   4   2.0000     -10.313479      -280.6440
   5   2.0000     -10.309441      -280.5342
   6   2.0000     -10.303957      -280.3849
   7   2.0000     -10.300982      -280.3040
   8   2.0000     -10.295479      -280.1542
   9   2.0000     -10.294982      -280.1407
  10   2.0000     -10.289921      -280.0030
  11   2.0000     -10.287293      -279.9315
  12   2.0000     -10.284770      -279.8628
  13   2.0000     -10.271932      -279.5135
  14   2.0000     -10.271304      -279.4964
  15   2.0000     -10.268232      -279.4128
  16   2.0000      -8.081967      -219.9215
  17   2.0000      -8.077498      -219.7999
  18   2.0000      -6.040306      -164.3651
  19   2.0000      -6.036264      -164.2551
  20   2.0000      -6.036216      -164.2538
  21   2.0000      -6.032842      -164.1620
  22   2.0000      -6.032224      -164.1452
  23   2.0000      -6.028023      -164.0309
  24   2.0000      -1.013796       -27.5868
  25   2.0000      -0.981995       -26.7214
  26   2.0000      -0.920425       -25.0461
  27   2.0000      -0.915763       -24.9192
  28   2.0000      -0.876566       -23.8526
  29   2.0000      -0.855363       -23.2756
  30   2.0000      -0.845281       -23.0013
  31   2.0000      -0.816292       -22.2124
  32   2.0000      -0.789182       -21.4747
  33   2.0000      -0.776914       -21.1409
  34   2.0000      -0.711658       -19.3652
  35   2.0000      -0.704525       -19.1711
  36   2.0000      -0.700981       -19.0747
  37   2.0000      -0.668643       -18.1947
  38   2.0000      -0.640869       -17.4389
  39   2.0000      -0.617180       -16.7943
  40   2.0000      -0.605396       -16.4737
  41   2.0000      -0.578244       -15.7348
  42   2.0000      -0.566993       -15.4287
  43   2.0000      -0.559605       -15.2276
  44   2.0000      -0.532543       -14.4912
  45   2.0000      -0.528515       -14.3816
  46   2.0000      -0.518269       -14.1028
  47   2.0000      -0.516546       -14.0559
  48   2.0000      -0.508939       -13.8489
  49   2.0000      -0.506746       -13.7893
  50   2.0000      -0.498665       -13.5694
  51   2.0000      -0.486154       -13.2289
  52   2.0000      -0.470002       -12.7894
  53   2.0000      -0.467345       -12.7171
  54   2.0000      -0.457852       -12.4588
  55   2.0000      -0.453320       -12.3355
  56   2.0000      -0.449898       -12.2424
  57   2.0000      -0.445586       -12.1250
  58   2.0000      -0.434145       -11.8137
  59   2.0000      -0.427175       -11.6240
  60   2.0000      -0.418066       -11.3762
  61   2.0000      -0.410790       -11.1782
  62   2.0000      -0.402555       -10.9541
  63   2.0000      -0.353139        -9.6094
  64   2.0000      -0.332761        -9.0549
  65   2.0000      -0.326478        -8.8839
  66   2.0000      -0.289668        -7.8823
  67   0.0000       0.021900         0.5959
  68   0.0000       0.076124         2.0714
  69   0.0000       0.109662         2.9840
  70   0.0000       0.117012         3.1841
  71   0.0000       0.125255         3.4084

MULLIKEN ATOMIC CHARGES
-----------------------
   0 S :    0.075054
   1 C :   -0.092987
   2 C :   -0.082912
   3 C :    0.018305
   4 C :   -0.154893
   5 H :    0.017511
   6 C :    0.039939
   7 H :    0.014337
   8 H :    0.026653
   9 C :   -0.019271
  10 H :   -0.004855
  11 H :    0.032167
  12 C :   -0.000596
  13 H :    0.006390
  14 H :    0.013737
  15 H :    0.022421
  16 S :    0.123807
  17 C :   -0.062800
  18 C :   -0.007240
  19 C :   -0.067005
  20 C :   -0.132701
  21 H :    0.010562
  22 C :    0.072138
  23 H :    0.021917
  24 H :    0.027850
  25 C :   -0.107810
  26 H :    0.011886
  27 H :    0.026021
  28 C :    0.021928
  29 H :    0.027779
  30 H :    0.030434
  31 H :    0.007793
  32 H :    0.049977
  33 H :    0.034465
Sum of atomic charges:   -0.0000000

LOEWDIN ATOMIC CHARGES
----------------------
   0 S :    0.356580
   1 C :   -0.178829
   2 C :   -0.063140
   3 C :   -0.060472
   4 C :   -0.169475
   5 H :    0.030512
   6 C :   -0.031152
   7 H :    0.031790
   8 H :    0.035681
   9 C :   -0.043767
  10 H :    0.018966
  11 H :    0.027015
  12 C :   -0.051608
  13 H :    0.022697
  14 H :    0.018542
  15 H :    0.019891
  16 S :    0.443762
  17 C :   -0.179715
  18 C :   -0.064652
  19 C :   -0.055650
  20 C :   -0.221550
  21 H :    0.032319
  22 C :   -0.038364
  23 H :    0.027221
  24 H :    0.035499
  25 C :   -0.042201
  26 H :    0.020186
  27 H :    0.025131
  28 C :   -0.051853
  29 H :    0.031644
  30 H :    0.021002
  31 H :    0.014338
  32 H :    0.022746
  33 H :    0.016908

  Mayer bond orders larger than 0.100000
B(  0-S ,  1-C ) :   1.1193 B(  0-S ,  4-C ) :   1.1291 B(  1-C ,  2-C ) :   1.6510
B(  1-C , 32-H ) :   0.9552 B(  2-C ,  3-C ) :   1.2124 B(  2-C ,  6-C ) :   1.0400
B(  3-C ,  4-C ) :   1.5744 B(  3-C ,  5-H ) :   0.9829 B(  4-C , 20-C ) :   1.0601
B(  6-C ,  7-H ) :   0.9455 B(  6-C ,  8-H ) :   0.9412 B(  6-C ,  9-C ) :   1.0366
B(  9-C , 10-H ) :   0.9469 B(  9-C , 11-H ) :   0.9587 B(  9-C , 12-C ) :   1.0999
B( 12-C , 13-H ) :   0.9659 B( 12-C , 14-H ) :   0.9675 B( 12-C , 15-H ) :   0.9773
B( 16-S , 17-C ) :   1.1758 B( 16-S , 20-C ) :   1.1535 B( 17-C , 18-C ) :   1.5580
B( 17-C , 33-H ) :   0.9768 B( 18-C , 19-C ) :   1.2855 B( 18-C , 21-H ) :   0.9965
B( 19-C , 20-C ) :   1.5546 B( 19-C , 22-C ) :   1.0616 B( 22-C , 23-H ) :   0.9368
B( 22-C , 24-H ) :   0.9184 B( 22-C , 25-C ) :   1.0512 B( 25-C , 26-H ) :   0.9475
B( 25-C , 27-H ) :   0.9576 B( 25-C , 28-C ) :   1.0712 B( 28-C , 29-H ) :   0.9738
B( 28-C , 30-H ) :   0.9780 B( 28-C , 31-H ) :   0.9722

Dispersion correction           -0.014425630
FINAL SINGLE POINT ENERGY     -1339.854323679243

DIPOLE MOMENT
-------------
                                X             Y             Z
Electronic contribution:     10.37867      31.07433      -7.49961
Nuclear contribution   :    -10.72193     -31.82982       7.57198
                        -----------------------------------------
Total Dipole Moment    :     -0.34327      -0.75549       0.07237
                        -----------------------------------------
Magnitude (a.u.)       :      0.83297
Magnitude (Debye)      :      2.11724

Rotational constants in cm-1:     0.016647     0.010328     0.006639
Rotational constants in MHz :   499.068644   309.622725   199.024090

                             ****ORCA TERMINATED NORMALLY****
TOTAL RUN TIME: 0 days 0 hours 0 minutes 36 seconds 287 msec
