                         Program Version 4.2.1 -  RELEASE  -
|  1> ! wB97X-D3 SP def2-SVP
|  2> %pal
|  3> nprocs 16
|  4> end
|  5>
|  6> * xyz 0 1
|  7> S 	 29.0153 	 -9.67244 	 80.0509
|  8> C 	 30.4964 	 -10.2525 	 79.4051
|  9> C 	 31.4779 	 -9.25423 	 79.2945
| 10> C 	 30.9809 	 -8.10388 	 80.0098
| 11> C 	 29.7103 	 -8.14438 	 80.419
| 12> H 	 31.5269 	 -7.20485 	 80.1684
| 13> C 	 32.8044 	 -9.26871 	 78.5998
| 14> H 	 33.0831 	 -10.267 	 78.3657
| 15> H 	 33.5257 	 -8.92228 	 79.2991
| 16> C 	 32.8615 	 -8.37323 	 77.3322
| 17> H 	 32.5366 	 -7.33418 	 77.5387
| 18> H 	 33.8821 	 -8.22705 	 77.1519
| 19> C 	 32.1593 	 -8.85474 	 76.0337
| 20> H 	 32.3295 	 -8.10288 	 75.3137
| 21> H 	 32.5631 	 -9.80751 	 75.7893
| 22> H 	 31.0778 	 -8.80502 	 76.291
| 23> S 	 27.8917 	 -7.80833 	 82.4347
| 24> C 	 27.164 	 -6.24722 	 82.7119
| 25> C 	 27.7097 	 -5.305 	 81.8865
| 26> C 	 28.7328 	 -5.78175 	 81.0053
| 27> C 	 28.9822 	 -7.18205 	 81.1679
| 28> H 	 27.2832 	 -4.31541 	 81.8648
| 29> C 	 29.3849 	 -4.8877 	 79.9919
| 30> H 	 28.6522 	 -4.19778 	 79.5772
| 31> H 	 29.7785 	 -5.54311 	 79.1744
| 32> C 	 30.3831 	 -3.91862 	 80.5237
| 33> H 	 30.8557 	 -3.53018 	 79.614
| 34> H 	 31.2341 	 -4.46023 	 80.9453
| 35> C 	 29.7665 	 -2.83116 	 81.3789
| 36> H 	 30.3742 	 -1.9084 	 81.3433
| 37> H 	 29.8117 	 -3.21994 	 82.3975
| 38> H 	 28.7829 	 -2.61762 	 81.0908
| 39> H 	 30.5162 	 -11.3381 	 79.0931
| 40> H 	 26.41 	 -6.12453 	 83.4363
| 41> *
| 42>
| 43>                          ****END OF INPUT****

CARTESIAN COORDINATES (ANGSTROEM)
---------------------------------
  S     29.015300   -9.672440   80.050900
  C     30.496400  -10.252500   79.405100
  C     31.477900   -9.254230   79.294500
  C     30.980900   -8.103880   80.009800
  C     29.710300   -8.144380   80.419000
  H     31.526900   -7.204850   80.168400
  C     32.804400   -9.268710   78.599800
  H     33.083100  -10.267000   78.365700
  H     33.525700   -8.922280   79.299100
  C     32.861500   -8.373230   77.332200
  H     32.536600   -7.334180   77.538700
  H     33.882100   -8.227050   77.151900
  C     32.159300   -8.854740   76.033700
  H     32.329500   -8.102880   75.313700
  H     32.563100   -9.807510   75.789300
  H     31.077800   -8.805020   76.291000
  S     27.891700   -7.808330   82.434700
  C     27.164000   -6.247220   82.711900
  C     27.709700   -5.305000   81.886500
  C     28.732800   -5.781750   81.005300
  C     28.982200   -7.182050   81.167900
  H     27.283200   -4.315410   81.864800
  C     29.384900   -4.887700   79.991900
  H     28.652200   -4.197780   79.577200
  H     29.778500   -5.543110   79.174400
  C     30.383100   -3.918620   80.523700
  H     30.855700   -3.530180   79.614000
  H     31.234100   -4.460230   80.945300
  C     29.766500   -2.831160   81.378900
  H     30.374200   -1.908400   81.343300
  H     29.811700   -3.219940   82.397500
  H     28.782900   -2.617620   81.090800
  H     30.516200  -11.338100   79.093100
  H     26.410000   -6.124530   83.436300

 Total Charge           Charge          ....    0
 Multiplicity           Mult            ....    1
 Number of Electrons    NEL             ....  134
 Basis Dimension        Dim             ....  322

ORBITAL ENERGIES
----------------

  NO   OCC          E(Eh)            E(eV)
   0   2.0000     -88.961289     -2420.7598
   1   2.0000     -88.960682     -2420.7432
   2   2.0000     -10.328502      -281.0528
   3   2.0000     -10.317728      -280.7596
   4   2.0000     -10.317093      -280.7424
   5   2.0000     -10.313669      -280.6492
   6   2.0000     -10.306056      -280.4420
   7   2.0000     -10.304168      -280.3907
   8   2.0000     -10.291822      -280.0547
   9   2.0000     -10.289719      -279.9975
  10   2.0000     -10.288370      -279.9608
  11   2.0000     -10.284789      -279.8633
  12   2.0000     -10.284366      -279.8518
  13   2.0000     -10.281287      -279.7681
  14   2.0000     -10.276254      -279.6311
  15   2.0000     -10.275317      -279.6056
  16   2.0000      -8.077056      -219.7879
  17   2.0000      -8.075852      -219.7551
  18   2.0000      -6.035408      -164.2318
  19   2.0000      -6.034319      -164.2022
  20   2.0000      -6.031382      -164.1222
  21   2.0000      -6.030278      -164.0922
  22   2.0000      -6.027821      -164.0254
  23   2.0000      -6.026767      -163.9967
  24   2.0000      -1.012079       -27.5401
  25   2.0000      -0.982816       -26.7438
  26   2.0000      -0.920727       -25.0543
  27   2.0000      -0.912973       -24.8433
  28   2.0000      -0.872998       -23.7555
  29   2.0000      -0.852773       -23.2051
  30   2.0000      -0.843573       -22.9548
  31   2.0000      -0.817418       -22.2431
  32   2.0000      -0.789305       -21.4781
  33   2.0000      -0.775512       -21.1027
  34   2.0000      -0.711247       -19.3540
  35   2.0000      -0.699417       -19.0321
  36   2.0000      -0.689212       -18.7544
  37   2.0000      -0.663195       -18.0464
  38   2.0000      -0.644528       -17.5385
  39   2.0000      -0.624823       -17.0023
  40   2.0000      -0.598185       -16.2774
  41   2.0000      -0.568369       -15.4661
  42   2.0000      -0.563441       -15.3320
  43   2.0000      -0.553004       -15.0480
  44   2.0000      -0.545905       -14.8548
  45   2.0000      -0.541631       -14.7385
  46   2.0000      -0.522351       -14.2139
  47   2.0000      -0.512148       -13.9363
  48   2.0000      -0.504697       -13.7335
  49   2.0000      -0.498460       -13.5638
  50   2.0000      -0.491716       -13.3803
  51   2.0000      -0.484868       -13.1939
  52   2.0000      -0.472538       -12.8584
  53   2.0000      -0.471277       -12.8241
  54   2.0000      -0.458222       -12.4689
  55   2.0000      -0.446056       -12.1378
  56   2.0000      -0.443154       -12.0588
  57   2.0000      -0.439361       -11.9556
  58   2.0000      -0.434857       -11.8331
  59   2.0000      -0.426524       -11.6063
  60   2.0000      -0.424539       -11.5523
  61   2.0000      -0.415354       -11.3024
  62   2.0000      -0.405019       -11.0211
  63   2.0000      -0.352274        -9.5859
  64   2.0000      -0.328602        -8.9417
  65   2.0000      -0.326187        -8.8760
  66   2.0000      -0.286435        -7.7943
  67   0.0000       0.028208         0.7676
  68   0.0000       0.078313         2.1310
  69   0.0000       0.111421         3.0319
  70   0.0000       0.122653         3.3376
  71   0.0000       0.130599         3.5538

MULLIKEN ATOMIC CHARGES
-----------------------
   0 S :    0.112058
   1 C :   -0.165374
   2 C :   -0.079722
   3 C :    0.003973
   4 C :   -0.124695
   5 H :   -0.009462
   6 C :    0.131732
   7 H :    0.004138
   8 H :    0.021290
   9 C :   -0.106589
  10 H :    0.019421
  11 H :    0.009740
  12 C :   -0.007913
  13 H :    0.028005
  14 H :    0.031979
  15 H :    0.047769
  16 S :    0.085355
  17 C :   -0.073771
  18 C :   -0.027861
  19 C :   -0.024999
  20 C :   -0.151137
  21 H :    0.015567
  22 C :    0.027962
  23 H :    0.018948
  24 H :    0.035774
  25 C :   -0.061619
  26 H :    0.019522
  27 H :    0.018790
  28 C :   -0.018559
  29 H :    0.040225
  30 H :    0.047738
  31 H :    0.015322
  32 H :    0.072428
  33 H :    0.043966
Sum of atomic charges:   -0.0000000

LOEWDIN ATOMIC CHARGES
----------------------
   0 S :    0.423846
   1 C :   -0.212743
   2 C :   -0.060259
   3 C :   -0.062392
   4 C :   -0.210179
   5 H :    0.023429
   6 C :   -0.024563
   7 H :    0.025458
   8 H :    0.032622
   9 C :   -0.037745
  10 H :    0.023067
  11 H :    0.012993
  12 C :   -0.053320
  13 H :    0.022759
  14 H :    0.020515
  15 H :    0.035660
  16 S :    0.390798
  17 C :   -0.173814
  18 C :   -0.074935
  19 C :   -0.048958
  20 C :   -0.187983
  21 H :    0.030266
  22 C :   -0.039091
  23 H :    0.030148
  24 H :    0.035270
  25 C :   -0.044261
  26 H :    0.023552
  27 H :    0.020182
  28 C :   -0.058425
  29 H :    0.033321
  30 H :    0.034583
  31 H :    0.013239
  32 H :    0.036261
  33 H :    0.020702

  Mayer bond orders larger than 0.100000
B(  0-S ,  1-C ) :   1.1597 B(  0-S ,  4-C ) :   1.1353 B(  1-C ,  2-C ) :   1.5787
B(  1-C , 32-H ) :   0.9630 B(  2-C ,  3-C ) :   1.2236 B(  2-C ,  6-C ) :   1.0411
B(  3-C ,  4-C ) :   1.5944 B(  3-C ,  5-H ) :   1.0003 B(  4-C , 20-C ) :   1.0755
B(  6-C ,  7-H ) :   0.9349 B(  6-C ,  8-H ) :   0.9281 B(  6-C ,  9-C ) :   1.0717
B(  9-C , 10-H ) :   0.9561 B(  9-C , 11-H ) :   0.9543 B(  9-C , 12-C ) :   1.0714
B( 12-C , 13-H ) :   0.9719 B( 12-C , 14-H ) :   0.9769 B( 12-C , 15-H ) :   0.9779
B( 16-S , 17-C ) :   1.1579 B( 16-S , 20-C ) :   1.1357 B( 17-C , 18-C ) :   1.5902
B( 17-C , 20-C ) :   0.1016 B( 17-C , 33-H ) :   0.9747 B( 18-C , 19-C ) :   1.2541
B( 18-C , 21-H ) :   0.9894 B( 19-C , 20-C ) :   1.5501 B( 19-C , 22-C ) :   1.0562
B( 22-C , 23-H ) :   0.9341 B( 22-C , 24-H ) :   0.9283 B( 22-C , 25-C ) :   1.0815
B( 25-C , 26-H ) :   0.9520 B( 25-C , 27-H ) :   0.9493 B( 25-C , 28-C ) :   1.0713
B( 28-C , 29-H ) :   0.9702 B( 28-C , 30-H ) :   0.9703 B( 28-C , 31-H ) :   0.9731

Dispersion correction           -0.014510237
FINAL SINGLE POINT ENERGY     -1339.878825664386

DIPOLE MOMENT
-------------
                                X             Y             Z
Electronic contribution:    -16.61795     -16.21188      14.93910
Nuclear contribution   :     17.02436      16.69612     -15.28342
                        -----------------------------------------
Total Dipole Moment    :      0.40641       0.48424      -0.34432
                        -----------------------------------------
Magnitude (a.u.)       :      0.71987
Magnitude (Debye)      :      1.82977

Rotational constants in cm-1:     0.019426     0.009085     0.006626
Rotational constants in MHz :   582.366358   272.365703   198.647380

                             ****ORCA TERMINATED NORMALLY****
TOTAL RUN TIME: 0 days 0 hours 0 minutes 30 seconds 772 msec
