                         Program Version 4.2.1 -  RELEASE  -
|  1> ! wB97X-D3 SP def2-SVP
|  2> %pal
|  3> nprocs 16
|  4> end
|  5>
|  6> * xyz 0 1
|  7> S 	 -13.9318 	 38.9403 	 36.6743
|  8> C 	 -15.3679 	 38.9801 	 37.7669
|  9> C 	 -15.9984 	 37.6955 	 37.7574
| 10> C 	 -15.4637 	 36.8142 	 36.6747
| 11> C 	 -14.3479 	 37.3688 	 36.0383
| 12> H 	 -15.825 	 35.8646 	 36.4384
| 13> C 	 -17.1595 	 37.213 	 38.6151
| 14> H 	 -17.8633 	 36.5551 	 38.1177
| 15> H 	 -17.763 	 38.0886 	 38.818
| 16> C 	 -16.8045 	 36.4823 	 39.9324
| 17> H 	 -16.1818 	 37.2068 	 40.4814
| 18> H 	 -17.6659 	 36.1321 	 40.4374
| 19> C 	 -15.8926 	 35.2538 	 39.7755
| 20> H 	 -16.3841 	 34.5254 	 39.0686
| 21> H 	 -14.9726 	 35.461 	 39.1892
| 22> H 	 -15.6969 	 34.7461 	 40.7085
| 23> S 	 -11.6461 	 36.7083 	 35.5387
| 24> C 	 -11.3137 	 35.3377 	 34.5355
| 25> C 	 -12.3744 	 34.9805 	 33.7732
| 26> C 	 -13.5811 	 35.6652 	 34.1612
| 27> C 	 -13.4301 	 36.6098 	 35.1616
| 28> H 	 -12.2519 	 34.153 	 33.0177
| 29> C 	 -14.7962 	 35.2647 	 33.4288
| 30> H 	 -14.5604 	 34.9465 	 32.3507
| 31> H 	 -15.4539 	 36.1034 	 33.3269
| 32> C 	 -15.6191 	 34.0833 	 34.1512
| 33> H 	 -16.4269 	 33.686 	 33.5308
| 34> H 	 -16.1991 	 34.4904 	 35.0039
| 35> C 	 -14.8156 	 32.8308 	 34.6374
| 36> H 	 -15.4622 	 31.953 	 34.8926
| 37> H 	 -14.0395 	 32.9908 	 35.3783
| 38> H 	 -14.2734 	 32.5058 	 33.7945
| 39> H 	 -15.7869 	 39.7228 	 38.377
| 40> H 	 -10.3091 	 35.0498 	 34.3353
| 41> *
| 42>
| 43>                          ****END OF INPUT****

CARTESIAN COORDINATES (ANGSTROEM)
---------------------------------
  S    -13.931800   38.940300   36.674300
  C    -15.367900   38.980100   37.766900
  C    -15.998400   37.695500   37.757400
  C    -15.463700   36.814200   36.674700
  C    -14.347900   37.368800   36.038300
  H    -15.825000   35.864600   36.438400
  C    -17.159500   37.213000   38.615100
  H    -17.863300   36.555100   38.117700
  H    -17.763000   38.088600   38.818000
  C    -16.804500   36.482300   39.932400
  H    -16.181800   37.206800   40.481400
  H    -17.665900   36.132100   40.437400
  C    -15.892600   35.253800   39.775500
  H    -16.384100   34.525400   39.068600
  H    -14.972600   35.461000   39.189200
  H    -15.696900   34.746100   40.708500
  S    -11.646100   36.708300   35.538700
  C    -11.313700   35.337700   34.535500
  C    -12.374400   34.980500   33.773200
  C    -13.581100   35.665200   34.161200
  C    -13.430100   36.609800   35.161600
  H    -12.251900   34.153000   33.017700
  C    -14.796200   35.264700   33.428800
  H    -14.560400   34.946500   32.350700
  H    -15.453900   36.103400   33.326900
  C    -15.619100   34.083300   34.151200
  H    -16.426900   33.686000   33.530800
  H    -16.199100   34.490400   35.003900
  C    -14.815600   32.830800   34.637400
  H    -15.462200   31.953000   34.892600
  H    -14.039500   32.990800   35.378300
  H    -14.273400   32.505800   33.794500
  H    -15.786900   39.722800   38.377000
  H    -10.309100   35.049800   34.335300

 Total Charge           Charge          ....    0
 Multiplicity           Mult            ....    1
 Number of Electrons    NEL             ....  134
 Basis Dimension        Dim             ....  322

ORBITAL ENERGIES
----------------

  NO   OCC          E(Eh)            E(eV)
   0   2.0000     -88.974221     -2421.1116
   1   2.0000     -88.962074     -2420.7811
   2   2.0000     -10.339470      -281.3513
   3   2.0000     -10.337525      -281.2983
   4   2.0000     -10.325157      -280.9618
   5   2.0000     -10.316839      -280.7355
   6   2.0000     -10.313353      -280.6406
   7   2.0000     -10.306058      -280.4421
   8   2.0000     -10.299775      -280.2711
   9   2.0000     -10.299377      -280.2603
  10   2.0000     -10.297376      -280.2059
  11   2.0000     -10.296875      -280.1922
  12   2.0000     -10.294227      -280.1201
  13   2.0000     -10.286259      -279.9034
  14   2.0000     -10.277703      -279.6705
  15   2.0000     -10.277186      -279.6564
  16   2.0000      -8.087558      -220.0736
  17   2.0000      -8.076615      -219.7759
  18   2.0000      -6.046414      -164.5313
  19   2.0000      -6.042197      -164.4165
  20   2.0000      -6.038082      -164.3046
  21   2.0000      -6.035293      -164.2287
  22   2.0000      -6.031250      -164.1187
  23   2.0000      -6.027101      -164.0058
  24   2.0000      -1.001148       -27.2426
  25   2.0000      -0.977137       -26.5892
  26   2.0000      -0.910330       -24.7713
  27   2.0000      -0.902471       -24.5575
  28   2.0000      -0.866524       -23.5793
  29   2.0000      -0.846710       -23.0401
  30   2.0000      -0.840142       -22.8614
  31   2.0000      -0.815384       -22.1877
  32   2.0000      -0.783811       -21.3286
  33   2.0000      -0.775285       -21.0966
  34   2.0000      -0.711726       -19.3671
  35   2.0000      -0.698362       -19.0034
  36   2.0000      -0.692992       -18.8573
  37   2.0000      -0.662304       -18.0222
  38   2.0000      -0.641069       -17.4444
  39   2.0000      -0.614035       -16.7087
  40   2.0000      -0.593176       -16.1411
  41   2.0000      -0.576825       -15.6962
  42   2.0000      -0.552692       -15.0395
  43   2.0000      -0.551912       -15.0183
  44   2.0000      -0.546576       -14.8731
  45   2.0000      -0.540793       -14.7157
  46   2.0000      -0.514403       -13.9976
  47   2.0000      -0.507535       -13.8107
  48   2.0000      -0.502253       -13.6670
  49   2.0000      -0.492408       -13.3991
  50   2.0000      -0.489804       -13.3282
  51   2.0000      -0.476731       -12.9725
  52   2.0000      -0.467149       -12.7118
  53   2.0000      -0.465562       -12.6686
  54   2.0000      -0.457327       -12.4445
  55   2.0000      -0.449409       -12.2291
  56   2.0000      -0.442650       -12.0451
  57   2.0000      -0.439823       -11.9682
  58   2.0000      -0.432461       -11.7679
  59   2.0000      -0.423410       -11.5216
  60   2.0000      -0.420702       -11.4479
  61   2.0000      -0.412639       -11.2285
  62   2.0000      -0.406793       -11.0694
  63   2.0000      -0.355196        -9.6654
  64   2.0000      -0.330450        -8.9920
  65   2.0000      -0.327320        -8.9068
  66   2.0000      -0.290220        -7.8973
  67   0.0000       0.021733         0.5914
  68   0.0000       0.064104         1.7444
  69   0.0000       0.099755         2.7145
  70   0.0000       0.111902         3.0450
  71   0.0000       0.125610         3.4180

MULLIKEN ATOMIC CHARGES
-----------------------
   0 S :    0.110794
   1 C :   -0.074281
   2 C :   -0.123299
   3 C :    0.065642
   4 C :   -0.116148
   5 H :   -0.036080
   6 C :    0.047289
   7 H :    0.022802
   8 H :    0.022816
   9 C :   -0.038491
  10 H :    0.030038
  11 H :    0.031553
  12 C :   -0.092095
  13 H :    0.015839
  14 H :    0.051286
  15 H :    0.043843
  16 S :    0.075095
  17 C :   -0.074924
  18 C :   -0.054171
  19 C :   -0.047430
  20 C :   -0.114058
  21 H :    0.045593
  22 C :    0.043318
  23 H :    0.043460
  24 H :    0.029406
  25 C :   -0.093108
  26 H :    0.028016
  27 H :    0.027854
  28 C :   -0.047807
  29 H :    0.042494
  30 H :    0.047016
  31 H :    0.006001
  32 H :    0.030721
  33 H :    0.051015
Sum of atomic charges:   -0.0000000

LOEWDIN ATOMIC CHARGES
----------------------
   0 S :    0.394478
   1 C :   -0.183323
   2 C :   -0.045004
   3 C :   -0.049717
   4 C :   -0.190630
   5 H :    0.014382
   6 C :   -0.038153
   7 H :    0.027920
   8 H :    0.030798
   9 C :   -0.033309
  10 H :    0.025839
  11 H :    0.021311
  12 C :   -0.074548
  13 H :    0.022118
  14 H :    0.030714
  15 H :    0.025528
  16 S :    0.371711
  17 C :   -0.178097
  18 C :   -0.077912
  19 C :   -0.062006
  20 C :   -0.168915
  21 H :    0.043454
  22 C :   -0.033152
  23 H :    0.041156
  24 H :    0.029472
  25 C :   -0.039249
  26 H :    0.025537
  27 H :    0.018584
  28 C :   -0.072440
  29 H :    0.034631
  30 H :    0.026497
  31 H :    0.015638
  32 H :    0.022730
  33 H :    0.023956

  Mayer bond orders larger than 0.100000
B(  0-S ,  1-C ) :   1.1117 B(  0-S ,  4-C ) :   1.1403 B(  1-C ,  2-C ) :   1.6271
B(  1-C , 32-H ) :   0.9723 B(  2-C ,  3-C ) :   1.2129 B(  2-C ,  6-C ) :   1.0275
B(  3-C ,  4-C ) :   1.5676 B(  3-C ,  5-H ) :   0.9983 B(  4-C , 20-C ) :   1.0445
B(  6-C ,  7-H ) :   0.9469 B(  6-C ,  8-H ) :   0.9398 B(  6-C ,  9-C ) :   1.0695
B(  9-C , 10-H ) :   0.9548 B(  9-C , 11-H ) :   0.9573 B(  9-C , 12-C ) :   1.0800
B( 12-C , 13-H ) :   0.9726 B( 12-C , 14-H ) :   0.9705 B( 12-C , 15-H ) :   0.9745
B( 16-S , 17-C ) :   1.1578 B( 16-S , 20-C ) :   1.0991 B( 17-C , 18-C ) :   1.6363
B( 17-C , 33-H ) :   0.9635 B( 18-C , 19-C ) :   1.2075 B( 18-C , 21-H ) :   0.9824
B( 19-C , 20-C ) :   1.6264 B( 19-C , 22-C ) :   1.0571 B( 22-C , 23-H ) :   0.9428
B( 22-C , 24-H ) :   0.9360 B( 22-C , 25-C ) :   1.0518 B( 25-C , 26-H ) :   0.9531
B( 25-C , 27-H ) :   0.9576 B( 25-C , 28-C ) :   1.0747 B( 28-C , 29-H ) :   0.9733
B( 28-C , 30-H ) :   0.9719 B( 28-C , 31-H ) :   0.9709

Dispersion correction           -0.015445264
FINAL SINGLE POINT ENERGY     -1339.859321151554

DIPOLE MOMENT
-------------
                                X             Y             Z
Electronic contribution:     17.81927      19.92229      -5.71297
Nuclear contribution   :    -18.29981     -20.46312       5.65644
                        -----------------------------------------
Total Dipole Moment    :     -0.48054      -0.54083      -0.05653
                        -----------------------------------------
Magnitude (a.u.)       :      0.72568
Magnitude (Debye)      :      1.84453

Rotational constants in cm-1:     0.017959     0.009707     0.007609
Rotational constants in MHz :   538.397868   291.011924   228.098178

                             ****ORCA TERMINATED NORMALLY****
TOTAL RUN TIME: 0 days 0 hours 0 minutes 35 seconds 316 msec
