                         Program Version 4.2.1 -  RELEASE  -
|  1> ! wB97X-D3 SP def2-SVP
|  2> %pal
|  3> nprocs 16
|  4> end
|  5>
|  6> * xyz 0 1
|  7> S 	 -64.8874 	 34.0026 	 118.918
|  8> C 	 -65.297 	 33.0021 	 120.296
|  9> C 	 -66.4148 	 33.4862 	 120.916
| 10> C 	 -66.8207 	 34.7443 	 120.444
| 11> C 	 -66.1416 	 35.1634 	 119.308
| 12> H 	 -67.4932 	 35.3809 	 120.851
| 13> C 	 -67.0752 	 32.8098 	 122.143
| 14> H 	 -67.3564 	 33.5449 	 122.958
| 15> H 	 -66.3442 	 32.078 	 122.628
| 16> C 	 -68.4167 	 32.0835 	 121.817
| 17> H 	 -68.5188 	 31.4548 	 122.709
| 18> H 	 -69.2153 	 32.8435 	 121.661
| 19> C 	 -68.2682 	 31.1082 	 120.562
| 20> H 	 -67.8529 	 31.6785 	 119.686
| 21> H 	 -67.4921 	 30.4283 	 120.831
| 22> H 	 -69.2747 	 30.7182 	 120.243
| 23> S 	 -64.5517 	 37.326 	 118.698
| 24> C 	 -65.2719 	 38.8744 	 118.251
| 25> C 	 -66.5946 	 38.5902 	 117.841
| 26> C 	 -67.0971 	 37.306 	 118.209
| 27> C 	 -66.1276 	 36.482 	 118.723
| 28> H 	 -67.1553 	 39.439 	 117.436
| 29> C 	 -68.5758 	 36.8744 	 117.925
| 30> H 	 -69.257 	 37.5294 	 118.287
| 31> H 	 -68.766 	 36.0114 	 118.579
| 32> C 	 -68.8161 	 36.52 	 116.466
| 33> H 	 -68.6384 	 37.3782 	 115.777
| 34> H 	 -69.8972 	 36.2602 	 116.291
| 35> C 	 -67.9376 	 35.3813 	 115.912
| 36> H 	 -67.883 	 34.5134 	 116.62
| 37> H 	 -66.9557 	 35.8554 	 115.744
| 38> H 	 -68.2841 	 35.0703 	 114.968
| 39> H 	 -64.6491 	 32.129 	 120.34
| 40> H 	 -64.7477 	 39.7612 	 118.131
| 41> *
| 42>
| 43>                          ****END OF INPUT****

CARTESIAN COORDINATES (ANGSTROEM)
---------------------------------
  S    -64.887400   34.002600  118.918000
  C    -65.297000   33.002100  120.296000
  C    -66.414800   33.486200  120.916000
  C    -66.820700   34.744300  120.444000
  C    -66.141600   35.163400  119.308000
  H    -67.493200   35.380900  120.851000
  C    -67.075200   32.809800  122.143000
  H    -67.356400   33.544900  122.958000
  H    -66.344200   32.078000  122.628000
  C    -68.416700   32.083500  121.817000
  H    -68.518800   31.454800  122.709000
  H    -69.215300   32.843500  121.661000
  C    -68.268200   31.108200  120.562000
  H    -67.852900   31.678500  119.686000
  H    -67.492100   30.428300  120.831000
  H    -69.274700   30.718200  120.243000
  S    -64.551700   37.326000  118.698000
  C    -65.271900   38.874400  118.251000
  C    -66.594600   38.590200  117.841000
  C    -67.097100   37.306000  118.209000
  C    -66.127600   36.482000  118.723000
  H    -67.155300   39.439000  117.436000
  C    -68.575800   36.874400  117.925000
  H    -69.257000   37.529400  118.287000
  H    -68.766000   36.011400  118.579000
  C    -68.816100   36.520000  116.466000
  H    -68.638400   37.378200  115.777000
  H    -69.897200   36.260200  116.291000
  C    -67.937600   35.381300  115.912000
  H    -67.883000   34.513400  116.620000
  H    -66.955700   35.855400  115.744000
  H    -68.284100   35.070300  114.968000
  H    -64.649100   32.129000  120.340000
  H    -64.747700   39.761200  118.131000

 Total Charge           Charge          ....    0
 Multiplicity           Mult            ....    1
 Number of Electrons    NEL             ....  134
 Basis Dimension        Dim             ....  322

ORBITAL ENERGIES
----------------

  NO   OCC          E(Eh)            E(eV)
   0   2.0000     -88.963151     -2420.8104
   1   2.0000     -88.962258     -2420.7861
   2   2.0000     -10.329977      -281.0930
   3   2.0000     -10.328905      -281.0638
   4   2.0000     -10.319667      -280.8124
   5   2.0000     -10.317026      -280.7406
   6   2.0000     -10.307300      -280.4759
   7   2.0000     -10.304906      -280.4107
   8   2.0000     -10.303903      -280.3835
   9   2.0000     -10.299131      -280.2536
  10   2.0000     -10.293908      -280.1115
  11   2.0000     -10.288809      -279.9727
  12   2.0000     -10.288685      -279.9694
  13   2.0000     -10.288284      -279.9584
  14   2.0000     -10.281774      -279.7813
  15   2.0000     -10.270905      -279.4855
  16   2.0000      -8.078389      -219.8241
  17   2.0000      -8.076349      -219.7686
  18   2.0000      -6.036734      -164.2679
  19   2.0000      -6.034950      -164.2193
  20   2.0000      -6.032766      -164.1599
  21   2.0000      -6.030941      -164.1102
  22   2.0000      -6.029351      -164.0670
  23   2.0000      -6.027010      -164.0033
  24   2.0000      -1.008371       -27.4392
  25   2.0000      -0.982913       -26.7464
  26   2.0000      -0.905226       -24.6324
  27   2.0000      -0.903005       -24.5720
  28   2.0000      -0.868680       -23.6380
  29   2.0000      -0.847953       -23.0740
  30   2.0000      -0.839542       -22.8451
  31   2.0000      -0.809567       -22.0294
  32   2.0000      -0.784949       -21.3596
  33   2.0000      -0.773461       -21.0469
  34   2.0000      -0.706948       -19.2370
  35   2.0000      -0.692720       -18.8499
  36   2.0000      -0.687560       -18.7095
  37   2.0000      -0.661414       -17.9980
  38   2.0000      -0.653526       -17.7833
  39   2.0000      -0.619780       -16.8651
  40   2.0000      -0.597004       -16.2453
  41   2.0000      -0.563505       -15.3337
  42   2.0000      -0.557573       -15.1723
  43   2.0000      -0.552722       -15.0403
  44   2.0000      -0.540032       -14.6950
  45   2.0000      -0.532296       -14.4845
  46   2.0000      -0.525867       -14.3096
  47   2.0000      -0.514998       -14.0138
  48   2.0000      -0.503890       -13.7115
  49   2.0000      -0.496684       -13.5154
  50   2.0000      -0.488070       -13.2811
  51   2.0000      -0.473795       -12.8926
  52   2.0000      -0.470633       -12.8066
  53   2.0000      -0.460362       -12.5271
  54   2.0000      -0.454366       -12.3639
  55   2.0000      -0.444350       -12.0914
  56   2.0000      -0.441251       -12.0070
  57   2.0000      -0.437020       -11.8919
  58   2.0000      -0.428135       -11.6501
  59   2.0000      -0.417662       -11.3652
  60   2.0000      -0.415986       -11.3196
  61   2.0000      -0.409545       -11.1443
  62   2.0000      -0.405843       -11.0436
  63   2.0000      -0.349006        -9.4969
  64   2.0000      -0.332833        -9.0568
  65   2.0000      -0.329708        -8.9718
  66   2.0000      -0.292945        -7.9714
  67   0.0000       0.026537         0.7221
  68   0.0000       0.060768         1.6536
  69   0.0000       0.113678         3.0933
  70   0.0000       0.121916         3.3175
  71   0.0000       0.129914         3.5351

MULLIKEN ATOMIC CHARGES
-----------------------
   0 S :    0.085414
   1 C :   -0.158583
   2 C :   -0.021119
   3 C :    0.077439
   4 C :   -0.160394
   5 H :   -0.028182
   6 C :   -0.007227
   7 H :    0.045313
   8 H :    0.037967
   9 C :   -0.088455
  10 H :    0.041012
  11 H :    0.043550
  12 C :   -0.076418
  13 H :    0.052270
  14 H :    0.026429
  15 H :    0.052075
  16 S :    0.093824
  17 C :   -0.081677
  18 C :   -0.046953
  19 C :   -0.062067
  20 C :   -0.139201
  21 H :    0.028395
  22 C :    0.159517
  23 H :   -0.002667
  24 H :    0.010318
  25 C :   -0.114962
  26 H :    0.030282
  27 H :    0.033416
  28 C :   -0.042992
  29 H :    0.042987
  30 H :    0.043400
  31 H :    0.021270
  32 H :    0.063389
  33 H :    0.042631
Sum of atomic charges:   -0.0000000

LOEWDIN ATOMIC CHARGES
----------------------
   0 S :    0.400017
   1 C :   -0.187679
   2 C :   -0.067230
   3 C :   -0.046234
   4 C :   -0.187428
   5 H :    0.014765
   6 C :   -0.039893
   7 H :    0.036929
   8 H :    0.033304
   9 C :   -0.042762
  10 H :    0.027551
  11 H :    0.024306
  12 C :   -0.073579
  13 H :    0.031152
  14 H :    0.019676
  15 H :    0.032182
  16 S :    0.383876
  17 C :   -0.167346
  18 C :   -0.071981
  19 C :   -0.056897
  20 C :   -0.185932
  21 H :    0.031835
  22 C :   -0.020016
  23 H :    0.015057
  24 H :    0.031919
  25 C :   -0.045536
  26 H :    0.025198
  27 H :    0.025407
  28 C :   -0.063040
  29 H :    0.029020
  30 H :    0.030402
  31 H :    0.017494
  32 H :    0.028156
  33 H :    0.017307

  Mayer bond orders larger than 0.100000
B(  0-S ,  1-C ) :   1.1496 B(  0-S ,  4-C ) :   1.1556 B(  1-C ,  2-C ) :   1.5640
B(  1-C , 32-H ) :   0.9794 B(  2-C ,  3-C ) :   1.2429 B(  2-C ,  6-C ) :   1.0140
B(  3-C ,  4-C ) :   1.5596 B(  3-C ,  5-H ) :   1.0113 B(  4-C , 20-C ) :   1.0436
B(  6-C ,  7-H ) :   0.9489 B(  6-C ,  8-H ) :   0.9512 B(  6-C ,  9-C ) :   1.0541
B(  9-C , 10-H ) :   0.9603 B(  9-C , 11-H ) :   0.9602 B(  9-C , 12-C ) :   1.0682
B( 12-C , 13-H ) :   0.9717 B( 12-C , 14-H ) :   0.9764 B( 12-C , 15-H ) :   0.9761
B( 16-S , 17-C ) :   1.1543 B( 16-S , 20-C ) :   1.1310 B( 17-C , 18-C ) :   1.5946
B( 17-C , 20-C ) :   0.1085 B( 17-C , 33-H ) :   0.9809 B( 18-C , 19-C ) :   1.2331
B( 18-C , 21-H ) :   0.9863 B( 19-C , 20-C ) :   1.6065 B( 19-C , 22-C ) :   1.0282
B( 22-C , 23-H ) :   0.9292 B( 22-C , 24-H ) :   0.9289 B( 22-C , 25-C ) :   1.0743
B( 25-C , 26-H ) :   0.9583 B( 25-C , 27-H ) :   0.9570 B( 25-C , 28-C ) :   1.0712
B( 28-C , 29-H ) :   0.9766 B( 28-C , 30-H ) :   0.9741 B( 28-C , 31-H ) :   0.9729

Dispersion correction           -0.015488621
FINAL SINGLE POINT ENERGY     -1339.865299888139

DIPOLE MOMENT
-------------
                                X             Y             Z
Electronic contribution:     20.78156      11.81146       0.08016
Nuclear contribution   :    -21.26434     -11.75768       0.08239
                        -----------------------------------------
Total Dipole Moment    :     -0.48279       0.05378       0.16255
                        -----------------------------------------
Magnitude (a.u.)       :      0.51225
Magnitude (Debye)      :      1.30203

Rotational constants in cm-1:     0.021010     0.008863     0.007484
Rotational constants in MHz :   629.850635   265.701428   224.373410

                             ****ORCA TERMINATED NORMALLY****
TOTAL RUN TIME: 0 days 0 hours 0 minutes 29 seconds 528 msec
