                         Program Version 4.2.1 -  RELEASE  -
|  1> ! wB97X-D3 SP def2-SVP
|  2> %pal
|  3> nprocs 16
|  4> end
|  5>
|  6> * xyz 0 1
|  7> S 	 -8.68884 	 56.2515 	 28.6412
|  8> C 	 -8.99947 	 54.7081 	 27.9462
|  9> C 	 -8.59101 	 53.7074 	 28.8024
| 10> C 	 -7.9066 	 54.2201 	 29.9336
| 11> C 	 -7.85755 	 55.5871 	 29.9813
| 12> H 	 -7.36741 	 53.6459 	 30.7094
| 13> C 	 -8.88736 	 52.2808 	 28.5334
| 14> H 	 -8.34857 	 51.95 	 27.7133
| 15> H 	 -9.87452 	 52.3334 	 28.2206
| 16> C 	 -8.82174 	 51.384 	 29.7369
| 17> H 	 -7.83179 	 51.5167 	 30.2048
| 18> H 	 -9.55351 	 51.6228 	 30.5068
| 19> C 	 -9.09396 	 49.9401 	 29.3332
| 20> H 	 -9.96589 	 49.8189 	 28.6882
| 21> H 	 -8.26668 	 49.5294 	 28.7558
| 22> H 	 -9.33762 	 49.3137 	 30.2128
| 23> S 	 -6.03942 	 57.5032 	 30.8968
| 24> C 	 -5.88313 	 57.7031 	 32.5782
| 25> C 	 -6.73008 	 56.8847 	 33.3114
| 26> C 	 -7.58623 	 56.1034 	 32.5033
| 27> C 	 -7.31372 	 56.2748 	 31.123
| 28> H 	 -6.78551 	 56.9586 	 34.3895
| 29> C 	 -8.54042 	 55.1053 	 33.1611
| 30> H 	 -7.95259 	 54.3325 	 33.5897
| 31> H 	 -9.2101 	 54.7401 	 32.3828
| 32> C 	 -9.49959 	 55.6635 	 34.23
| 33> H 	 -10.1314 	 56.4158 	 33.7865
| 34> H 	 -9.01983 	 56.1915 	 35.079
| 35> C 	 -10.4358 	 54.5738 	 34.8488
| 36> H 	 -9.81829 	 53.7335 	 35.1934
| 37> H 	 -11.1538 	 54.0761 	 34.1334
| 38> H 	 -11.1814 	 55.0906 	 35.4394
| 39> H 	 -9.59824 	 54.5193 	 27.0514
| 40> H 	 -5.19317 	 58.4008 	 32.9739
| 41> *
| 42>
| 43>                          ****END OF INPUT****

CARTESIAN COORDINATES (ANGSTROEM)
---------------------------------
  S     -8.688840   56.251500   28.641200
  C     -8.999470   54.708100   27.946200
  C     -8.591010   53.707400   28.802400
  C     -7.906600   54.220100   29.933600
  C     -7.857550   55.587100   29.981300
  H     -7.367410   53.645900   30.709400
  C     -8.887360   52.280800   28.533400
  H     -8.348570   51.950000   27.713300
  H     -9.874520   52.333400   28.220600
  C     -8.821740   51.384000   29.736900
  H     -7.831790   51.516700   30.204800
  H     -9.553510   51.622800   30.506800
  C     -9.093960   49.940100   29.333200
  H     -9.965890   49.818900   28.688200
  H     -8.266680   49.529400   28.755800
  H     -9.337620   49.313700   30.212800
  S     -6.039420   57.503200   30.896800
  C     -5.883130   57.703100   32.578200
  C     -6.730080   56.884700   33.311400
  C     -7.586230   56.103400   32.503300
  C     -7.313720   56.274800   31.123000
  H     -6.785510   56.958600   34.389500
  C     -8.540420   55.105300   33.161100
  H     -7.952590   54.332500   33.589700
  H     -9.210100   54.740100   32.382800
  C     -9.499590   55.663500   34.230000
  H    -10.131400   56.415800   33.786500
  H     -9.019830   56.191500   35.079000
  C    -10.435800   54.573800   34.848800
  H     -9.818290   53.733500   35.193400
  H    -11.153800   54.076100   34.133400
  H    -11.181400   55.090600   35.439400
  H     -9.598240   54.519300   27.051400
  H     -5.193170   58.400800   32.973900

 Total Charge           Charge          ....    0
 Multiplicity           Mult            ....    1
 Number of Electrons    NEL             ....  134
 Basis Dimension        Dim             ....  322

ORBITAL ENERGIES
----------------

  NO   OCC          E(Eh)            E(eV)
   0   2.0000     -88.964689     -2420.8523
   1   2.0000     -88.964644     -2420.8510
   2   2.0000     -10.327163      -281.0164
   3   2.0000     -10.319044      -280.7955
   4   2.0000     -10.312141      -280.6076
   5   2.0000     -10.307668      -280.4859
   6   2.0000     -10.305030      -280.4141
   7   2.0000     -10.292946      -280.0853
   8   2.0000     -10.290171      -280.0098
   9   2.0000     -10.289890      -280.0021
  10   2.0000     -10.288496      -279.9642
  11   2.0000     -10.287951      -279.9494
  12   2.0000     -10.285454      -279.8814
  13   2.0000     -10.284553      -279.8569
  14   2.0000     -10.278878      -279.7025
  15   2.0000     -10.274538      -279.5844
  16   2.0000      -8.080365      -219.8779
  17   2.0000      -8.079924      -219.8659
  18   2.0000      -6.038737      -164.3224
  19   2.0000      -6.038174      -164.3071
  20   2.0000      -6.034638      -164.2109
  21   2.0000      -6.034314      -164.2020
  22   2.0000      -6.031316      -164.1205
  23   2.0000      -6.030975      -164.1112
  24   2.0000      -1.011031       -27.5116
  25   2.0000      -0.987795       -26.8793
  26   2.0000      -0.923261       -25.1232
  27   2.0000      -0.906843       -24.6765
  28   2.0000      -0.872696       -23.7473
  29   2.0000      -0.852491       -23.1975
  30   2.0000      -0.847009       -23.0483
  31   2.0000      -0.812792       -22.1172
  32   2.0000      -0.784631       -21.3509
  33   2.0000      -0.770997       -20.9799
  34   2.0000      -0.715301       -19.4643
  35   2.0000      -0.699771       -19.0417
  36   2.0000      -0.690624       -18.7928
  37   2.0000      -0.654957       -17.8223
  38   2.0000      -0.641033       -17.4434
  39   2.0000      -0.619367       -16.8538
  40   2.0000      -0.600659       -16.3448
  41   2.0000      -0.579867       -15.7790
  42   2.0000      -0.570332       -15.5195
  43   2.0000      -0.564779       -15.3684
  44   2.0000      -0.533799       -14.5254
  45   2.0000      -0.528943       -14.3933
  46   2.0000      -0.519057       -14.1243
  47   2.0000      -0.505333       -13.7508
  48   2.0000      -0.500500       -13.6193
  49   2.0000      -0.499548       -13.5934
  50   2.0000      -0.489118       -13.3096
  51   2.0000      -0.485303       -13.2058
  52   2.0000      -0.473106       -12.8739
  53   2.0000      -0.465931       -12.6786
  54   2.0000      -0.461850       -12.5676
  55   2.0000      -0.450535       -12.2597
  56   2.0000      -0.447053       -12.1649
  57   2.0000      -0.441352       -12.0098
  58   2.0000      -0.435680       -11.8554
  59   2.0000      -0.423908       -11.5351
  60   2.0000      -0.420219       -11.4347
  61   2.0000      -0.413502       -11.2520
  62   2.0000      -0.410618       -11.1735
  63   2.0000      -0.341390        -9.2897
  64   2.0000      -0.332834        -9.0569
  65   2.0000      -0.328244        -8.9320
  66   2.0000      -0.290924        -7.9164
  67   0.0000       0.034164         0.9296
  68   0.0000       0.072195         1.9645
  69   0.0000       0.122790         3.3413
  70   0.0000       0.126066         3.4304
  71   0.0000       0.137895         3.7523

MULLIKEN ATOMIC CHARGES
-----------------------
   0 S :    0.127425
   1 C :   -0.137347
   2 C :   -0.102056
   3 C :   -0.017831
   4 C :   -0.131021
   5 H :    0.026070
   6 C :    0.149039
   7 H :    0.019897
   8 H :    0.000223
   9 C :   -0.102521
  10 H :    0.037744
  11 H :    0.030610
  12 C :   -0.039903
  13 H :    0.021469
  14 H :    0.031732
  15 H :    0.035653
  16 S :    0.116569
  17 C :   -0.077813
  18 C :   -0.038979
  19 C :   -0.015171
  20 C :   -0.198552
  21 H :    0.018053
  22 C :    0.085103
  23 H :    0.031326
  24 H :    0.035206
  25 C :   -0.101760
  26 H :    0.026856
  27 H :    0.033955
  28 C :   -0.060089
  29 H :    0.040226
  30 H :    0.023366
  31 H :    0.038725
  32 H :    0.048007
  33 H :    0.045790
Sum of atomic charges:    0.0000000

LOEWDIN ATOMIC CHARGES
----------------------
   0 S :    0.436639
   1 C :   -0.214496
   2 C :   -0.061697
   3 C :   -0.069614
   4 C :   -0.217803
   5 H :    0.036463
   6 C :   -0.026841
   7 H :    0.026379
   8 H :    0.027350
   9 C :   -0.040261
  10 H :    0.024797
  11 H :    0.026637
  12 C :   -0.065950
  13 H :    0.023675
  14 H :    0.024690
  15 H :    0.028973
  16 S :    0.417564
  17 C :   -0.188504
  18 C :   -0.076170
  19 C :   -0.046808
  20 C :   -0.196801
  21 H :    0.030345
  22 C :   -0.028173
  23 H :    0.027033
  24 H :    0.034971
  25 C :   -0.041287
  26 H :    0.023253
  27 H :    0.022299
  28 C :   -0.074234
  29 H :    0.027636
  30 H :    0.027752
  31 H :    0.029910
  32 H :    0.031854
  33 H :    0.020415

  Mayer bond orders larger than 0.100000
B(  0-S ,  1-C ) :   1.1485 B(  0-S ,  4-C ) :   1.1728 B(  1-C ,  2-C ) :   1.5915
B(  1-C , 32-H ) :   0.9722 B(  2-C ,  3-C ) :   1.2647 B(  2-C ,  6-C ) :   0.9942
B(  3-C ,  4-C ) :   1.5349 B(  3-C ,  5-H ) :   0.9950 B(  4-C , 20-C ) :   1.0486
B(  6-C ,  7-H ) :   0.9312 B(  6-C ,  8-H ) :   0.9211 B(  6-C ,  9-C ) :   1.0907
B(  9-C , 10-H ) :   0.9465 B(  9-C , 11-H ) :   0.9554 B(  9-C , 12-C ) :   1.0884
B( 12-C , 13-H ) :   0.9718 B( 12-C , 14-H ) :   0.9750 B( 12-C , 15-H ) :   0.9736
B( 16-S , 17-C ) :   1.1843 B( 16-S , 20-C ) :   1.1449 B( 17-C , 18-C ) :   1.5717
B( 17-C , 20-C ) :   0.1051 B( 17-C , 33-H ) :   0.9727 B( 18-C , 19-C ) :   1.2642
B( 18-C , 21-H ) :   0.9923 B( 19-C , 20-C ) :   1.5630 B( 19-C , 22-C ) :   1.0406
B( 22-C , 23-H ) :   0.9372 B( 22-C , 24-H ) :   0.9314 B( 22-C , 25-C ) :   1.0618
B( 25-C , 26-H ) :   0.9556 B( 25-C , 27-H ) :   0.9547 B( 25-C , 28-C ) :   1.0835
B( 28-C , 29-H ) :   0.9747 B( 28-C , 30-H ) :   0.9731 B( 28-C , 31-H ) :   0.9727

Dispersion correction           -0.013773397
FINAL SINGLE POINT ENERGY     -1339.882238193773

DIPOLE MOMENT
-------------
                                X             Y             Z
Electronic contribution:     13.57062      25.38936     -13.02165
Nuclear contribution   :    -13.87050     -25.93153      13.34456
                        -----------------------------------------
Total Dipole Moment    :     -0.29988      -0.54217       0.32291
                        -----------------------------------------
Magnitude (a.u.)       :      0.69868
Magnitude (Debye)      :      1.77589

Rotational constants in cm-1:     0.015725     0.009216     0.006750
Rotational constants in MHz :   471.413207   276.298927   202.348855

                             ****ORCA TERMINATED NORMALLY****
TOTAL RUN TIME: 0 days 0 hours 0 minutes 33 seconds 548 msec
