                         Program Version 4.2.1 -  RELEASE  -
|  1> ! wB97X-D3 SP def2-SVP
|  2> %pal
|  3> nprocs 16
|  4> end
|  5>
|  6> * xyz 0 1
|  7> S 	 -5.75048 	 -4.70593 	 79.223
|  8> C 	 -5.01673 	 -6.24411 	 79.6569
|  9> C 	 -5.89953 	 -7.26516 	 79.7807
| 10> C 	 -7.20819 	 -6.81641 	 79.5002
| 11> C 	 -7.34725 	 -5.44694 	 79.2416
| 12> H 	 -8.08168 	 -7.41636 	 79.5745
| 13> C 	 -5.47053 	 -8.62479 	 80.2066
| 14> H 	 -5.48632 	 -8.66897 	 81.2901
| 15> H 	 -4.43371 	 -8.84792 	 79.9606
| 16> C 	 -6.33419 	 -9.71566 	 79.5289
| 17> H 	 -7.32166 	 -9.61981 	 79.9765
| 18> H 	 -6.62224 	 -9.48179 	 78.4909
| 19> C 	 -5.82186 	 -11.1584 	 79.6967
| 20> H 	 -6.60045 	 -11.9024 	 79.4193
| 21> H 	 -4.90697 	 -11.2228 	 79.1888
| 22> H 	 -5.48256 	 -11.2487 	 80.7034
| 23> S 	 -8.64331 	 -3.27911 	 80.3406
| 24> C 	 -10.2886 	 -2.93457 	 79.8677
| 25> C 	 -10.8083 	 -3.95402 	 79.0565
| 26> C 	 -9.83465 	 -5.04216 	 78.8224
| 27> C 	 -8.60232 	 -4.71829 	 79.341
| 28> H 	 -11.8227 	 -3.78163 	 78.6298
| 29> C 	 -10.2111 	 -6.37897 	 78.0276
| 30> H 	 -9.49989 	 -7.23513 	 77.8871
| 31> H 	 -10.2934 	 -6.16684 	 76.9543
| 32> C 	 -11.4807 	 -7.0832 	 78.5688
| 33> H 	 -12.3197 	 -6.3515 	 78.7237
| 34> H 	 -11.1728 	 -7.57638 	 79.5536
| 35> C 	 -12.0593 	 -8.22667 	 77.7171
| 36> H 	 -11.2349 	 -8.99753 	 77.5274
| 37> H 	 -12.5512 	 -7.86623 	 76.7724
| 38> H 	 -12.7907 	 -8.88954 	 78.1978
| 39> H 	 -4.06546 	 -6.38428 	 79.9986
| 40> H 	 -10.8913 	 -2.08786 	 80.2369
| 41> *
| 42>
| 43>                          ****END OF INPUT****

CARTESIAN COORDINATES (ANGSTROEM)
---------------------------------
  S     -5.750480   -4.705930   79.223000
  C     -5.016730   -6.244110   79.656900
  C     -5.899530   -7.265160   79.780700
  C     -7.208190   -6.816410   79.500200
  C     -7.347250   -5.446940   79.241600
  H     -8.081680   -7.416360   79.574500
  C     -5.470530   -8.624790   80.206600
  H     -5.486320   -8.668970   81.290100
  H     -4.433710   -8.847920   79.960600
  C     -6.334190   -9.715660   79.528900
  H     -7.321660   -9.619810   79.976500
  H     -6.622240   -9.481790   78.490900
  C     -5.821860  -11.158400   79.696700
  H     -6.600450  -11.902400   79.419300
  H     -4.906970  -11.222800   79.188800
  H     -5.482560  -11.248700   80.703400
  S     -8.643310   -3.279110   80.340600
  C    -10.288600   -2.934570   79.867700
  C    -10.808300   -3.954020   79.056500
  C     -9.834650   -5.042160   78.822400
  C     -8.602320   -4.718290   79.341000
  H    -11.822700   -3.781630   78.629800
  C    -10.211100   -6.378970   78.027600
  H     -9.499890   -7.235130   77.887100
  H    -10.293400   -6.166840   76.954300
  C    -11.480700   -7.083200   78.568800
  H    -12.319700   -6.351500   78.723700
  H    -11.172800   -7.576380   79.553600
  C    -12.059300   -8.226670   77.717100
  H    -11.234900   -8.997530   77.527400
  H    -12.551200   -7.866230   76.772400
  H    -12.790700   -8.889540   78.197800
  H     -4.065460   -6.384280   79.998600
  H    -10.891300   -2.087860   80.236900

 Total Charge           Charge          ....    0
 Multiplicity           Mult            ....    1
 Number of Electrons    NEL             ....  134
 Basis Dimension        Dim             ....  322

ORBITAL ENERGIES
----------------

  NO   OCC          E(Eh)            E(eV)
   0   2.0000     -88.968252     -2420.9492
   1   2.0000     -88.966616     -2420.9047
   2   2.0000     -10.330090      -281.0960
   3   2.0000     -10.329413      -281.0776
   4   2.0000     -10.321614      -280.8654
   5   2.0000     -10.317097      -280.7425
   6   2.0000     -10.306564      -280.4559
   7   2.0000     -10.305388      -280.4239
   8   2.0000     -10.301992      -280.3315
   9   2.0000     -10.298810      -280.2449
  10   2.0000     -10.294807      -280.1359
  11   2.0000     -10.294401      -280.1249
  12   2.0000     -10.290938      -280.0307
  13   2.0000     -10.290526      -280.0194
  14   2.0000     -10.287860      -279.9469
  15   2.0000     -10.277480      -279.6645
  16   2.0000      -8.082436      -219.9343
  17   2.0000      -8.081377      -219.9055
  18   2.0000      -6.041024      -164.3846
  19   2.0000      -6.039945      -164.3553
  20   2.0000      -6.037011      -164.2754
  21   2.0000      -6.035902      -164.2452
  22   2.0000      -6.033164      -164.1707
  23   2.0000      -6.032037      -164.1401
  24   2.0000      -1.006028       -27.3754
  25   2.0000      -0.982831       -26.7442
  26   2.0000      -0.915319       -24.9071
  27   2.0000      -0.899792       -24.4846
  28   2.0000      -0.871457       -23.7136
  29   2.0000      -0.851200       -23.1623
  30   2.0000      -0.840809       -22.8796
  31   2.0000      -0.814686       -22.1687
  32   2.0000      -0.784188       -21.3388
  33   2.0000      -0.775699       -21.1078
  34   2.0000      -0.716270       -19.4907
  35   2.0000      -0.693850       -18.8806
  36   2.0000      -0.689192       -18.7539
  37   2.0000      -0.656445       -17.8628
  38   2.0000      -0.640496       -17.4288
  39   2.0000      -0.623179       -16.9576
  40   2.0000      -0.598257       -16.2794
  41   2.0000      -0.569852       -15.5065
  42   2.0000      -0.564808       -15.3692
  43   2.0000      -0.559017       -15.2116
  44   2.0000      -0.532437       -14.4883
  45   2.0000      -0.519889       -14.1469
  46   2.0000      -0.510355       -13.8875
  47   2.0000      -0.507952       -13.8221
  48   2.0000      -0.506315       -13.7775
  49   2.0000      -0.497305       -13.5324
  50   2.0000      -0.495235       -13.4760
  51   2.0000      -0.485895       -13.2219
  52   2.0000      -0.472822       -12.8661
  53   2.0000      -0.463988       -12.6258
  54   2.0000      -0.457404       -12.4466
  55   2.0000      -0.454411       -12.3652
  56   2.0000      -0.448715       -12.2102
  57   2.0000      -0.440741       -11.9932
  58   2.0000      -0.429266       -11.6809
  59   2.0000      -0.424606       -11.5541
  60   2.0000      -0.416659       -11.3379
  61   2.0000      -0.411971       -11.2103
  62   2.0000      -0.408615       -11.1190
  63   2.0000      -0.351460        -9.5637
  64   2.0000      -0.333488        -9.0747
  65   2.0000      -0.329831        -8.9751
  66   2.0000      -0.286878        -7.8063
  67   0.0000       0.024838         0.6759
  68   0.0000       0.074979         2.0403
  69   0.0000       0.107975         2.9381
  70   0.0000       0.121463         3.3052
  71   0.0000       0.125590         3.4175

MULLIKEN ATOMIC CHARGES
-----------------------
   0 S :    0.111138
   1 C :   -0.083291
   2 C :   -0.080946
   3 C :    0.018779
   4 C :   -0.138720
   5 H :   -0.005167
   6 C :    0.095285
   7 H :    0.042802
   8 H :    0.016322
   9 C :   -0.145055
  10 H :    0.023133
  11 H :    0.034046
  12 C :    0.014652
  13 H :    0.053422
  14 H :    0.018421
  15 H :    0.012355
  16 S :    0.112296
  17 C :   -0.117556
  18 C :   -0.054666
  19 C :    0.004479
  20 C :   -0.146606
  21 H :    0.044597
  22 C :    0.030683
  23 H :    0.025269
  24 H :    0.033532
  25 C :   -0.113037
  26 H :    0.044213
  27 H :    0.043829
  28 C :   -0.086138
  29 H :    0.029247
  30 H :    0.047094
  31 H :    0.038831
  32 H :    0.004555
  33 H :    0.072204
Sum of atomic charges:   -0.0000000

LOEWDIN ATOMIC CHARGES
----------------------
   0 S :    0.399143
   1 C :   -0.178801
   2 C :   -0.061691
   3 C :   -0.053083
   4 C :   -0.189908
   5 H :    0.020406
   6 C :   -0.026777
   7 H :    0.035683
   8 H :    0.027970
   9 C :   -0.046855
  10 H :    0.018948
  11 H :    0.024969
  12 C :   -0.058925
  13 H :    0.036728
  14 H :    0.019244
  15 H :    0.022650
  16 S :    0.403483
  17 C :   -0.197117
  18 C :   -0.073043
  19 C :   -0.051470
  20 C :   -0.192596
  21 H :    0.039970
  22 C :   -0.042782
  23 H :    0.034349
  24 H :    0.031769
  25 C :   -0.051440
  26 H :    0.025651
  27 H :    0.032248
  28 C :   -0.081666
  29 H :    0.028778
  30 H :    0.029290
  31 H :    0.028383
  32 H :    0.009212
  33 H :    0.037279

  Mayer bond orders larger than 0.100000
B(  0-S ,  1-C ) :   1.1316 B(  0-S ,  4-C ) :   1.1453 B(  1-C ,  2-C ) :   1.6306
B(  1-C , 32-H ) :   0.9689 B(  2-C ,  3-C ) :   1.2568 B(  2-C ,  6-C ) :   1.0208
B(  3-C ,  4-C ) :   1.5448 B(  3-C ,  5-H ) :   0.9938 B(  4-C , 20-C ) :   1.0650
B(  6-C ,  7-H ) :   0.9228 B(  6-C ,  8-H ) :   0.9463 B(  6-C ,  9-C ) :   1.0558
B(  9-C , 10-H ) :   0.9447 B(  9-C , 11-H ) :   0.9655 B(  9-C , 12-C ) :   1.0820
B( 12-C , 13-H ) :   0.9725 B( 12-C , 14-H ) :   0.9729 B( 12-C , 15-H ) :   0.9680
B( 16-S , 17-C ) :   1.1408 B( 16-S , 20-C ) :   1.1347 B( 17-C , 18-C ) :   1.6399
B( 17-C , 33-H ) :   0.9644 B( 18-C , 19-C ) :   1.2073 B( 18-C , 21-H ) :   0.9801
B( 19-C , 20-C ) :   1.6312 B( 19-C , 22-C ) :   1.0066 B( 22-C , 23-H ) :   0.9447
B( 22-C , 24-H ) :   0.9432 B( 22-C , 25-C ) :   1.0449 B( 25-C , 26-H ) :   0.9580
B( 25-C , 27-H ) :   0.9557 B( 25-C , 28-C ) :   1.0811 B( 28-C , 29-H ) :   0.9701
B( 28-C , 30-H ) :   0.9740 B( 28-C , 31-H ) :   0.9745

Dispersion correction           -0.013628354
FINAL SINGLE POINT ENERGY     -1339.859980543574

DIPOLE MOMENT
-------------
                                X             Y             Z
Electronic contribution:      9.74890      31.47858       5.00184
Nuclear contribution   :    -10.04664     -32.12442      -4.90098
                        -----------------------------------------
Total Dipole Moment    :     -0.29774      -0.64584       0.10085
                        -----------------------------------------
Magnitude (a.u.)       :      0.71828
Magnitude (Debye)      :      1.82573

Rotational constants in cm-1:     0.015475     0.009592     0.006266
Rotational constants in MHz :   463.913864   287.548906   187.857631

                             ****ORCA TERMINATED NORMALLY****
TOTAL RUN TIME: 0 days 0 hours 0 minutes 33 seconds 93 msec
