                         Program Version 4.2.1 -  RELEASE  -
|  1> ! wB97X-D3 SP def2-SVP
|  2> %pal
|  3> nprocs 16
|  4> end
|  5>
|  6> * xyz 0 1
|  7> S 	 22.2092 	 8.50749 	 65.9654
|  8> C 	 23.833 	 9.15097 	 65.7953
|  9> C 	 24.2485 	 10.0515 	 66.7485
| 10> C 	 23.1916 	 10.2052 	 67.6812
| 11> C 	 22.169 	 9.24839 	 67.5884
| 12> H 	 23.1688 	 11.0698 	 68.3847
| 13> C 	 25.5557 	 10.934 	 66.7202
| 14> H 	 26.3583 	 10.5211 	 66.2221
| 15> H 	 25.8113 	 10.9456 	 67.7778
| 16> C 	 25.3692 	 12.3546 	 66.1722
| 17> H 	 24.7155 	 12.9141 	 66.8044
| 18> H 	 26.3537 	 12.7922 	 66.3738
| 19> C 	 25.0935 	 12.5295 	 64.6819
| 20> H 	 25.5519 	 13.4836 	 64.2322
| 21> H 	 25.4645 	 11.6885 	 64.1548
| 22> H 	 23.9891 	 12.5835 	 64.4789
| 23> S 	 19.4727 	 9.67728 	 67.5046
| 24> C 	 18.645 	 9.84638 	 69.0033
| 25> C 	 19.4464 	 9.64873 	 70.1203
| 26> C 	 20.8331 	 9.41895 	 69.7269
| 27> C 	 20.9641 	 9.39172 	 68.3755
| 28> H 	 18.9892 	 9.7711 	 71.099
| 29> C 	 21.9894 	 9.36426 	 70.8444
| 30> H 	 23.0405 	 9.32123 	 70.3924
| 31> H 	 21.782 	 8.4542 	 71.576
| 32> C 	 22.0649 	 10.6896 	 71.6494
| 33> H 	 21.0966 	 10.8749 	 72.0143
| 34> H 	 22.358 	 11.5285 	 70.9969
| 35> C 	 23.0797 	 10.6277 	 72.8123
| 36> H 	 24.0058 	 10.605 	 72.2783
| 37> H 	 22.9154 	 9.78881 	 73.4207
| 38> H 	 22.9474 	 11.5286 	 73.4035
| 39> H 	 24.5503 	 8.88436 	 64.9836
| 40> H 	 17.62 	 10.2395 	 69.0592
| 41> *
| 42>
| 43>                          ****END OF INPUT****

CARTESIAN COORDINATES (ANGSTROEM)
---------------------------------
  S     22.209200    8.507490   65.965400
  C     23.833000    9.150970   65.795300
  C     24.248500   10.051500   66.748500
  C     23.191600   10.205200   67.681200
  C     22.169000    9.248390   67.588400
  H     23.168800   11.069800   68.384700
  C     25.555700   10.934000   66.720200
  H     26.358300   10.521100   66.222100
  H     25.811300   10.945600   67.777800
  C     25.369200   12.354600   66.172200
  H     24.715500   12.914100   66.804400
  H     26.353700   12.792200   66.373800
  C     25.093500   12.529500   64.681900
  H     25.551900   13.483600   64.232200
  H     25.464500   11.688500   64.154800
  H     23.989100   12.583500   64.478900
  S     19.472700    9.677280   67.504600
  C     18.645000    9.846380   69.003300
  C     19.446400    9.648730   70.120300
  C     20.833100    9.418950   69.726900
  C     20.964100    9.391720   68.375500
  H     18.989200    9.771100   71.099000
  C     21.989400    9.364260   70.844400
  H     23.040500    9.321230   70.392400
  H     21.782000    8.454200   71.576000
  C     22.064900   10.689600   71.649400
  H     21.096600   10.874900   72.014300
  H     22.358000   11.528500   70.996900
  C     23.079700   10.627700   72.812300
  H     24.005800   10.605000   72.278300
  H     22.915400    9.788810   73.420700
  H     22.947400   11.528600   73.403500
  H     24.550300    8.884360   64.983600
  H     17.620000   10.239500   69.059200

 Total Charge           Charge          ....    0
 Multiplicity           Mult            ....    1
 Number of Electrons    NEL             ....  134
 Basis Dimension        Dim             ....  322

ORBITAL ENERGIES
----------------

  NO   OCC          E(Eh)            E(eV)
   0   2.0000     -88.971317     -2421.0326
   1   2.0000     -88.963684     -2420.8249
   2   2.0000     -10.328546      -281.0540
   3   2.0000     -10.320671      -280.8397
   4   2.0000     -10.315659      -280.7034
   5   2.0000     -10.314932      -280.6836
   6   2.0000     -10.311543      -280.5913
   7   2.0000     -10.307293      -280.4757
   8   2.0000     -10.300506      -280.2910
   9   2.0000     -10.298933      -280.2482
  10   2.0000     -10.296740      -280.1885
  11   2.0000     -10.296407      -280.1795
  12   2.0000     -10.287305      -279.9318
  13   2.0000     -10.284847      -279.8649
  14   2.0000     -10.282089      -279.7899
  15   2.0000     -10.272482      -279.5284
  16   2.0000      -8.085171      -220.0087
  17   2.0000      -8.079317      -219.8494
  18   2.0000      -6.043756      -164.4589
  19   2.0000      -6.040201      -164.3622
  20   2.0000      -6.037787      -164.2965
  21   2.0000      -6.035503      -164.2344
  22   2.0000      -6.033870      -164.1900
  23   2.0000      -6.029897      -164.0818
  24   2.0000      -1.006535       -27.3892
  25   2.0000      -0.981691       -26.7132
  26   2.0000      -0.911479       -24.8026
  27   2.0000      -0.902395       -24.5554
  28   2.0000      -0.867733       -23.6122
  29   2.0000      -0.852311       -23.1926
  30   2.0000      -0.843517       -22.9533
  31   2.0000      -0.805553       -21.9202
  32   2.0000      -0.785847       -21.3840
  33   2.0000      -0.772551       -21.0222
  34   2.0000      -0.703848       -19.1527
  35   2.0000      -0.694245       -18.8914
  36   2.0000      -0.687534       -18.7087
  37   2.0000      -0.658140       -17.9089
  38   2.0000      -0.630343       -17.1525
  39   2.0000      -0.621270       -16.9056
  40   2.0000      -0.593690       -16.1551
  41   2.0000      -0.569033       -15.4842
  42   2.0000      -0.562981       -15.3195
  43   2.0000      -0.553537       -15.0625
  44   2.0000      -0.536778       -14.6065
  45   2.0000      -0.519393       -14.1334
  46   2.0000      -0.514307       -13.9950
  47   2.0000      -0.512917       -13.9572
  48   2.0000      -0.503191       -13.6925
  49   2.0000      -0.487930       -13.2772
  50   2.0000      -0.485202       -13.2030
  51   2.0000      -0.482274       -13.1233
  52   2.0000      -0.465327       -12.6622
  53   2.0000      -0.462695       -12.5906
  54   2.0000      -0.454926       -12.3792
  55   2.0000      -0.453619       -12.3436
  56   2.0000      -0.445321       -12.1178
  57   2.0000      -0.442525       -12.0417
  58   2.0000      -0.435806       -11.8589
  59   2.0000      -0.433039       -11.7836
  60   2.0000      -0.417533       -11.3617
  61   2.0000      -0.415625       -11.3097
  62   2.0000      -0.409045       -11.1307
  63   2.0000      -0.347905        -9.4670
  64   2.0000      -0.331822        -9.0293
  65   2.0000      -0.331080        -9.0092
  66   2.0000      -0.286570        -7.7980
  67   0.0000       0.029320         0.7978
  68   0.0000       0.067377         1.8334
  69   0.0000       0.099430         2.7056
  70   0.0000       0.121379         3.3029
  71   0.0000       0.126474         3.4415

MULLIKEN ATOMIC CHARGES
-----------------------
   0 S :    0.107745
   1 C :   -0.129917
   2 C :   -0.084524
   3 C :   -0.028429
   4 C :   -0.125407
   5 H :    0.035656
   6 C :    0.100377
   7 H :    0.004452
   8 H :    0.026561
   9 C :   -0.063835
  10 H :    0.019773
  11 H :    0.026345
  12 C :   -0.058177
  13 H :    0.049323
  14 H :    0.019164
  15 H :    0.048645
  16 S :    0.110412
  17 C :   -0.114635
  18 C :   -0.038263
  19 C :   -0.018275
  20 C :   -0.156249
  21 H :    0.026824
  22 C :    0.000082
  23 H :    0.040221
  24 H :    0.057093
  25 C :   -0.103275
  26 H :    0.009760
  27 H :    0.032179
  28 C :    0.003284
  29 H :    0.026076
  30 H :    0.022373
  31 H :    0.036489
  32 H :    0.052431
  33 H :    0.065719
Sum of atomic charges:    0.0000000

LOEWDIN ATOMIC CHARGES
----------------------
   0 S :    0.387818
   1 C :   -0.195790
   2 C :   -0.071046
   3 C :   -0.054153
   4 C :   -0.188511
   5 H :    0.034255
   6 C :   -0.015252
   7 H :    0.018273
   8 H :    0.034642
   9 C :   -0.041696
  10 H :    0.018058
  11 H :    0.028348
  12 C :   -0.070045
  13 H :    0.038117
  14 H :    0.017311
  15 H :    0.034394
  16 S :    0.405459
  17 C :   -0.197156
  18 C :   -0.071655
  19 C :   -0.057805
  20 C :   -0.198301
  21 H :    0.033117
  22 C :   -0.036129
  23 H :    0.033032
  24 H :    0.042355
  25 C :   -0.041225
  26 H :    0.007353
  27 H :    0.024194
  28 C :   -0.051819
  29 H :    0.023753
  30 H :    0.016991
  31 H :    0.029198
  32 H :    0.031800
  33 H :    0.032115

  Mayer bond orders larger than 0.100000
B(  0-S ,  1-C ) :   1.1387 B(  0-S ,  4-C ) :   1.1272 B(  1-C ,  2-C ) :   1.6309
B(  1-C , 32-H ) :   0.9517 B(  2-C ,  3-C ) :   1.2533 B(  2-C ,  6-C ) :   1.0077
B(  3-C ,  4-C ) :   1.5631 B(  3-C ,  5-H ) :   0.9772 B(  4-C , 20-C ) :   1.0534
B(  6-C ,  7-H ) :   0.9408 B(  6-C ,  8-H ) :   0.9369 B(  6-C ,  9-C ) :   1.0898
B(  9-C , 10-H ) :   0.9573 B(  9-C , 11-H ) :   0.9528 B(  9-C , 12-C ) :   1.0613
B( 12-C , 13-H ) :   0.9761 B( 12-C , 14-H ) :   0.9760 B( 12-C , 15-H ) :   0.9754
B( 16-S , 17-C ) :   1.1504 B( 16-S , 20-C ) :   1.1266 B( 17-C , 18-C ) :   1.6447
B( 17-C , 33-H ) :   0.9627 B( 18-C , 19-C ) :   1.1923 B( 18-C , 21-H ) :   0.9887
B( 19-C , 20-C ) :   1.6732 B( 19-C , 22-C ) :   1.0186 B( 22-C , 23-H ) :   0.9414
B( 22-C , 24-H ) :   0.9432 B( 22-C , 25-C ) :   1.0533 B( 25-C , 26-H ) :   0.9571
B( 25-C , 27-H ) :   0.9557 B( 25-C , 28-C ) :   1.0785 B( 28-C , 29-H ) :   0.9778
B( 28-C , 30-H ) :   0.9755 B( 28-C , 31-H ) :   0.9738

Dispersion correction           -0.014161747
FINAL SINGLE POINT ENERGY     -1339.854393713071

DIPOLE MOMENT
-------------
                                X             Y             Z
Electronic contribution:    -19.31042     -15.32786     -12.31944
Nuclear contribution   :     19.72977      15.96218      12.62959
                        -----------------------------------------
Total Dipole Moment    :      0.41935       0.63433       0.31015
                        -----------------------------------------
Magnitude (a.u.)       :      0.82123
Magnitude (Debye)      :      2.08740

Rotational constants in cm-1:     0.016769     0.009066     0.006807
Rotational constants in MHz :   502.713051   271.801264   204.079069

                             ****ORCA TERMINATED NORMALLY****
TOTAL RUN TIME: 0 days 0 hours 0 minutes 29 seconds 528 msec
