                         Program Version 4.2.1 -  RELEASE  -
|  1> ! wB97X-D3 SP def2-SVP
|  2> %pal
|  3> nprocs 16
|  4> end
|  5>
|  6> * xyz 0 1
|  7> S 	 -48.9111 	 8.40432 	 82.5759
|  8> C 	 -48.6839 	 10.0451 	 83.0879
|  9> C 	 -49.4853 	 10.3664 	 84.1904
| 10> C 	 -50.4735 	 9.35316 	 84.3877
| 11> C 	 -50.3602 	 8.29044 	 83.516
| 12> H 	 -51.2349 	 9.506 	 85.1382
| 13> C 	 -49.3486 	 11.6177 	 85.0499
| 14> H 	 -50.0531 	 12.2844 	 84.7017
| 15> H 	 -48.3725 	 11.9163 	 84.6813
| 16> C 	 -49.4594 	 11.449 	 86.5921
| 17> H 	 -49.6732 	 12.4875 	 86.9947
| 18> H 	 -50.3819 	 10.8578 	 86.8867
| 19> C 	 -48.2318 	 10.8413 	 87.2129
| 20> H 	 -47.2891 	 11.2918 	 86.9114
| 21> H 	 -48.2304 	 10.8188 	 88.2788
| 22> H 	 -48.1901 	 9.81335 	 86.9207
| 23> S 	 -50.8219 	 5.69893 	 84.192
| 24> C 	 -52.4303 	 5.02679 	 84.1037
| 25> C 	 -53.2343 	 5.83549 	 83.2829
| 26> C 	 -52.5953 	 7.04649 	 82.8368
| 27> C 	 -51.3148 	 7.20696 	 83.388
| 28> H 	 -54.2224 	 5.5072 	 82.9029
| 29> C 	 -53.3459 	 8.1872 	 82.2024
| 30> H 	 -52.8054 	 8.55325 	 81.3583
| 31> H 	 -53.2322 	 9.03331 	 82.8357
| 32> C 	 -54.7657 	 7.85951 	 81.8545
| 33> H 	 -55.1514 	 7.42839 	 82.7763
| 34> H 	 -54.851 	 7.04047 	 81.1384
| 35> C 	 -55.6369 	 9.10867 	 81.4438
| 36> H 	 -55.7424 	 9.84709 	 82.2709
| 37> H 	 -56.6666 	 8.78705 	 81.2764
| 38> H 	 -55.3861 	 9.66191 	 80.5275
| 39> H 	 -47.8349 	 10.6488 	 82.8259
| 40> H 	 -52.7404 	 4.03979 	 84.4274
| 41> *
| 42>
| 43>                          ****END OF INPUT****

CARTESIAN COORDINATES (ANGSTROEM)
---------------------------------
  S    -48.911100    8.404320   82.575900
  C    -48.683900   10.045100   83.087900
  C    -49.485300   10.366400   84.190400
  C    -50.473500    9.353160   84.387700
  C    -50.360200    8.290440   83.516000
  H    -51.234900    9.506000   85.138200
  C    -49.348600   11.617700   85.049900
  H    -50.053100   12.284400   84.701700
  H    -48.372500   11.916300   84.681300
  C    -49.459400   11.449000   86.592100
  H    -49.673200   12.487500   86.994700
  H    -50.381900   10.857800   86.886700
  C    -48.231800   10.841300   87.212900
  H    -47.289100   11.291800   86.911400
  H    -48.230400   10.818800   88.278800
  H    -48.190100    9.813350   86.920700
  S    -50.821900    5.698930   84.192000
  C    -52.430300    5.026790   84.103700
  C    -53.234300    5.835490   83.282900
  C    -52.595300    7.046490   82.836800
  C    -51.314800    7.206960   83.388000
  H    -54.222400    5.507200   82.902900
  C    -53.345900    8.187200   82.202400
  H    -52.805400    8.553250   81.358300
  H    -53.232200    9.033310   82.835700
  C    -54.765700    7.859510   81.854500
  H    -55.151400    7.428390   82.776300
  H    -54.851000    7.040470   81.138400
  C    -55.636900    9.108670   81.443800
  H    -55.742400    9.847090   82.270900
  H    -56.666600    8.787050   81.276400
  H    -55.386100    9.661910   80.527500
  H    -47.834900   10.648800   82.825900
  H    -52.740400    4.039790   84.427400

 Total Charge           Charge          ....    0
 Multiplicity           Mult            ....    1
 Number of Electrons    NEL             ....  134
 Basis Dimension        Dim             ....  322

ORBITAL ENERGIES
----------------

  NO   OCC          E(Eh)            E(eV)
   0   2.0000     -88.967532     -2420.9296
   1   2.0000     -88.961757     -2420.7725
   2   2.0000     -10.326783      -281.0060
   3   2.0000     -10.324612      -280.9470
   4   2.0000     -10.319733      -280.8142
   5   2.0000     -10.311531      -280.5910
   6   2.0000     -10.305061      -280.4150
   7   2.0000     -10.300389      -280.2878
   8   2.0000     -10.299533      -280.2646
   9   2.0000     -10.297869      -280.2193
  10   2.0000     -10.292352      -280.0691
  11   2.0000     -10.289604      -279.9944
  12   2.0000     -10.288442      -279.9627
  13   2.0000     -10.284603      -279.8583
  14   2.0000     -10.279711      -279.7252
  15   2.0000     -10.271091      -279.4906
  16   2.0000      -8.082802      -219.9442
  17   2.0000      -8.076230      -219.7654
  18   2.0000      -6.041214      -164.3898
  19   2.0000      -6.037361      -164.2849
  20   2.0000      -6.034751      -164.2139
  21   2.0000      -6.033505      -164.1800
  22   2.0000      -6.030673      -164.1029
  23   2.0000      -6.027096      -164.0056
  24   2.0000      -1.005997       -27.3746
  25   2.0000      -0.981185       -26.6994
  26   2.0000      -0.913614       -24.8607
  27   2.0000      -0.910786       -24.7837
  28   2.0000      -0.867917       -23.6172
  29   2.0000      -0.850301       -23.1379
  30   2.0000      -0.841133       -22.8884
  31   2.0000      -0.813942       -22.1485
  32   2.0000      -0.785240       -21.3675
  33   2.0000      -0.772546       -21.0221
  34   2.0000      -0.714766       -19.4498
  35   2.0000      -0.708357       -19.2754
  36   2.0000      -0.692228       -18.8365
  37   2.0000      -0.646263       -17.5857
  38   2.0000      -0.637190       -17.3388
  39   2.0000      -0.623011       -16.9530
  40   2.0000      -0.598437       -16.2843
  41   2.0000      -0.567060       -15.4305
  42   2.0000      -0.564499       -15.3608
  43   2.0000      -0.556978       -15.1561
  44   2.0000      -0.538113       -14.6428
  45   2.0000      -0.525950       -14.3118
  46   2.0000      -0.518053       -14.0969
  47   2.0000      -0.510348       -13.8873
  48   2.0000      -0.504579       -13.7303
  49   2.0000      -0.492231       -13.3943
  50   2.0000      -0.483693       -13.1620
  51   2.0000      -0.480853       -13.0847
  52   2.0000      -0.473921       -12.8960
  53   2.0000      -0.462575       -12.5873
  54   2.0000      -0.455653       -12.3990
  55   2.0000      -0.452649       -12.3172
  56   2.0000      -0.448378       -12.2010
  57   2.0000      -0.444138       -12.0856
  58   2.0000      -0.435663       -11.8550
  59   2.0000      -0.430701       -11.7200
  60   2.0000      -0.419079       -11.4037
  61   2.0000      -0.414548       -11.2804
  62   2.0000      -0.411699       -11.2029
  63   2.0000      -0.334625        -9.1056
  64   2.0000      -0.326997        -8.8980
  65   2.0000      -0.320327        -8.7165
  66   2.0000      -0.300759        -8.1841
  67   0.0000       0.040667         1.1066
  68   0.0000       0.047337         1.2881
  69   0.0000       0.111423         3.0320
  70   0.0000       0.119053         3.2396
  71   0.0000       0.136299         3.7089

MULLIKEN ATOMIC CHARGES
-----------------------
   0 S :    0.134780
   1 C :   -0.120661
   2 C :   -0.148575
   3 C :    0.058174
   4 C :   -0.167823
   5 H :    0.007489
   6 C :    0.127925
   7 H :    0.025482
   8 H :    0.008006
   9 C :   -0.109992
  10 H :    0.036032
  11 H :    0.041641
  12 C :   -0.013863
  13 H :    0.025570
  14 H :    0.027087
  15 H :    0.030877
  16 S :    0.101300
  17 C :   -0.074391
  18 C :   -0.089663
  19 C :   -0.016447
  20 C :   -0.189230
  21 H :    0.037413
  22 C :    0.123658
  23 H :    0.014455
  24 H :    0.013495
  25 C :   -0.100775
  26 H :    0.029416
  27 H :    0.036175
  28 C :   -0.046981
  29 H :    0.035010
  30 H :    0.025676
  31 H :    0.040495
  32 H :    0.040672
  33 H :    0.057571
Sum of atomic charges:    0.0000000

LOEWDIN ATOMIC CHARGES
----------------------
   0 S :    0.425793
   1 C :   -0.207397
   2 C :   -0.061836
   3 C :   -0.056042
   4 C :   -0.213368
   5 H :    0.029141
   6 C :   -0.023766
   7 H :    0.024296
   8 H :    0.030950
   9 C :   -0.043027
  10 H :    0.029696
  11 H :    0.031024
  12 C :   -0.063674
  13 H :    0.025453
  14 H :    0.023688
  15 H :    0.027700
  16 S :    0.400260
  17 C :   -0.188426
  18 C :   -0.084564
  19 C :   -0.047456
  20 C :   -0.194898
  21 H :    0.035383
  22 C :   -0.033691
  23 H :    0.030999
  24 H :    0.031648
  25 C :   -0.041271
  26 H :    0.025099
  27 H :    0.024737
  28 C :   -0.070197
  29 H :    0.028943
  30 H :    0.026174
  31 H :    0.026979
  32 H :    0.021279
  33 H :    0.030375

  Mayer bond orders larger than 0.100000
B(  0-S ,  1-C ) :   1.1504 B(  0-S ,  4-C ) :   1.1629 B(  1-C ,  2-C ) :   1.6062
B(  1-C , 32-H ) :   0.9621 B(  2-C ,  3-C ) :   1.2556 B(  2-C ,  6-C ) :   0.9949
B(  3-C ,  4-C ) :   1.5585 B(  3-C ,  5-H ) :   0.9968 B(  4-C , 20-C ) :   1.0181
B(  6-C ,  7-H ) :   0.9335 B(  6-C ,  8-H ) :   0.9403 B(  6-C ,  9-C ) :   1.0720
B(  9-C , 10-H ) :   0.9547 B(  9-C , 11-H ) :   0.9534 B(  9-C , 12-C ) :   1.0750
B( 12-C , 13-H ) :   0.9740 B( 12-C , 14-H ) :   0.9724 B( 12-C , 15-H ) :   0.9729
B( 16-S , 17-C ) :   1.1666 B( 16-S , 20-C ) :   1.1486 B( 17-C , 18-C ) :   1.5830
B( 17-C , 20-C ) :   0.1131 B( 17-C , 33-H ) :   0.9649 B( 18-C , 19-C ) :   1.2606
B( 18-C , 21-H ) :   0.9720 B( 19-C , 20-C ) :   1.5837 B( 19-C , 22-C ) :   1.0419
B( 22-C , 23-H ) :   0.9089 B( 22-C , 24-H ) :   0.9300 B( 22-C , 25-C ) :   1.0827
B( 25-C , 26-H ) :   0.9425 B( 25-C , 27-H ) :   0.9555 B( 25-C , 28-C ) :   1.0760
B( 28-C , 29-H ) :   0.9753 B( 28-C , 30-H ) :   0.9738 B( 28-C , 31-H ) :   0.9770

Dispersion correction           -0.013853009
FINAL SINGLE POINT ENERGY     -1339.869961389478

DIPOLE MOMENT
-------------
                                X             Y             Z
Electronic contribution:     12.49952     -17.61810      -5.52903
Nuclear contribution   :    -12.85530      18.09687       5.73430
                        -----------------------------------------
Total Dipole Moment    :     -0.35577       0.47877       0.20527
                        -----------------------------------------
Magnitude (a.u.)       :      0.63082
Magnitude (Debye)      :      1.60341

Rotational constants in cm-1:     0.018099     0.007893     0.006851
Rotational constants in MHz :   542.585205   236.634050   205.395213

                             ****ORCA TERMINATED NORMALLY****
TOTAL RUN TIME: 0 days 0 hours 0 minutes 29 seconds 113 msec
