                         Program Version 4.2.1 -  RELEASE  -
|  1> ! wB97X-D3 SP def2-SVP
|  2> %pal
|  3> nprocs 16
|  4> end
|  5>
|  6> * xyz 0 1
|  7> S 	 0.189927 	 -21.7748 	 85.0553
|  8> C 	 -0.141453 	 -21.625 	 86.7102
|  9> C 	 0.921621 	 -21.8389 	 87.551
| 10> C 	 2.14383 	 -21.8815 	 86.7427
| 11> C 	 1.9098 	 -21.9013 	 85.3981
| 12> H 	 3.18623 	 -21.8337 	 87.0603
| 13> C 	 0.888393 	 -21.9774 	 89.0214
| 14> H 	 1.44793 	 -22.8447 	 89.1736
| 15> H 	 -0.137709 	 -22.2672 	 89.1732
| 16> C 	 1.40558 	 -20.8592 	 89.9115
| 17> H 	 1.43264 	 -21.2903 	 90.8987
| 18> H 	 2.39521 	 -20.541 	 89.5197
| 19> C 	 0.421521 	 -19.6409 	 89.8583
| 20> H 	 0.561354 	 -18.9607 	 90.6299
| 21> H 	 0.56007 	 -19.1231 	 88.8979
| 22> H 	 -0.561228 	 -19.8928 	 89.9383
| 23> S 	 2.65631 	 -23.1744 	 83.1818
| 24> C 	 3.95504 	 -22.5903 	 82.2455
| 25> C 	 4.75681 	 -21.6251 	 82.8717
| 26> C 	 4.21746 	 -21.3308 	 84.1472
| 27> C 	 2.91899 	 -21.9166 	 84.2846
| 28> H 	 5.60852 	 -21.1489 	 82.3757
| 29> C 	 4.82765 	 -20.2482 	 85.1117
| 30> H 	 5.86905 	 -20.1299 	 84.8892
| 31> H 	 4.79053 	 -20.7135 	 86.1675
| 32> C 	 4.27211 	 -18.871 	 85.0171
| 33> H 	 3.17085 	 -19.0237 	 84.9259
| 34> H 	 4.54417 	 -18.5231 	 84.0419
| 35> C 	 4.61637 	 -17.9978 	 86.2014
| 36> H 	 4.05438 	 -17.0772 	 86.152
| 37> H 	 5.63225 	 -17.7352 	 86.2875
| 38> H 	 4.44392 	 -18.6438 	 87.1644
| 39> H 	 -1.19206 	 -21.6284 	 87.0898
| 40> H 	 4.23027 	 -23.0905 	 81.3029
| 41> *
| 42>
| 43>                          ****END OF INPUT****

CARTESIAN COORDINATES (ANGSTROEM)
---------------------------------
  S      0.189927  -21.774800   85.055300
  C     -0.141453  -21.625000   86.710200
  C      0.921621  -21.838900   87.551000
  C      2.143830  -21.881500   86.742700
  C      1.909800  -21.901300   85.398100
  H      3.186230  -21.833700   87.060300
  C      0.888393  -21.977400   89.021400
  H      1.447930  -22.844700   89.173600
  H     -0.137709  -22.267200   89.173200
  C      1.405580  -20.859200   89.911500
  H      1.432640  -21.290300   90.898700
  H      2.395210  -20.541000   89.519700
  C      0.421521  -19.640900   89.858300
  H      0.561354  -18.960700   90.629900
  H      0.560070  -19.123100   88.897900
  H     -0.561228  -19.892800   89.938300
  S      2.656310  -23.174400   83.181800
  C      3.955040  -22.590300   82.245500
  C      4.756810  -21.625100   82.871700
  C      4.217460  -21.330800   84.147200
  C      2.918990  -21.916600   84.284600
  H      5.608520  -21.148900   82.375700
  C      4.827650  -20.248200   85.111700
  H      5.869050  -20.129900   84.889200
  H      4.790530  -20.713500   86.167500
  C      4.272110  -18.871000   85.017100
  H      3.170850  -19.023700   84.925900
  H      4.544170  -18.523100   84.041900
  C      4.616370  -17.997800   86.201400
  H      4.054380  -17.077200   86.152000
  H      5.632250  -17.735200   86.287500
  H      4.443920  -18.643800   87.164400
  H     -1.192060  -21.628400   87.089800
  H      4.230270  -23.090500   81.302900

 Total Charge           Charge          ....    0
 Multiplicity           Mult            ....    1
 Number of Electrons    NEL             ....  134
 Basis Dimension        Dim             ....  322

ORBITAL ENERGIES
----------------

  NO   OCC          E(Eh)            E(eV)
   0   2.0000     -88.968758     -2420.9630
   1   2.0000     -88.962897     -2420.8035
   2   2.0000     -10.326132      -280.9883
   3   2.0000     -10.325834      -280.9802
   4   2.0000     -10.312615      -280.6205
   5   2.0000     -10.309142      -280.5260
   6   2.0000     -10.308934      -280.5204
   7   2.0000     -10.298390      -280.2334
   8   2.0000     -10.297529      -280.2100
   9   2.0000     -10.294468      -280.1267
  10   2.0000     -10.292152      -280.0637
  11   2.0000     -10.291898      -280.0568
  12   2.0000     -10.280963      -279.7592
  13   2.0000     -10.280696      -279.7520
  14   2.0000     -10.279331      -279.7148
  15   2.0000     -10.264881      -279.3216
  16   2.0000      -8.085244      -220.0107
  17   2.0000      -8.078760      -219.8342
  18   2.0000      -6.043250      -164.4452
  19   2.0000      -6.039608      -164.3461
  20   2.0000      -6.037207      -164.2807
  21   2.0000      -6.036327      -164.2568
  22   2.0000      -6.033240      -164.1728
  23   2.0000      -6.029388      -164.0680
  24   2.0000      -1.011613       -27.5274
  25   2.0000      -0.990413       -26.9505
  26   2.0000      -0.916899       -24.9501
  27   2.0000      -0.913704       -24.8632
  28   2.0000      -0.866132       -23.5687
  29   2.0000      -0.852854       -23.2073
  30   2.0000      -0.847482       -23.0612
  31   2.0000      -0.812035       -22.0966
  32   2.0000      -0.786103       -21.3909
  33   2.0000      -0.772762       -21.0279
  34   2.0000      -0.712145       -19.3784
  35   2.0000      -0.697213       -18.9721
  36   2.0000      -0.680956       -18.5298
  37   2.0000      -0.662972       -18.0404
  38   2.0000      -0.638149       -17.3649
  39   2.0000      -0.618436       -16.8285
  40   2.0000      -0.595746       -16.2111
  41   2.0000      -0.570905       -15.5351
  42   2.0000      -0.565531       -15.3889
  43   2.0000      -0.548543       -14.9266
  44   2.0000      -0.542294       -14.7566
  45   2.0000      -0.526626       -14.3302
  46   2.0000      -0.518591       -14.1116
  47   2.0000      -0.509058       -13.8522
  48   2.0000      -0.500175       -13.6105
  49   2.0000      -0.491978       -13.3874
  50   2.0000      -0.487779       -13.2731
  51   2.0000      -0.481946       -13.1144
  52   2.0000      -0.469399       -12.7730
  53   2.0000      -0.465587       -12.6693
  54   2.0000      -0.459633       -12.5072
  55   2.0000      -0.453184       -12.3318
  56   2.0000      -0.442147       -12.0314
  57   2.0000      -0.439818       -11.9681
  58   2.0000      -0.438577       -11.9343
  59   2.0000      -0.428906       -11.6711
  60   2.0000      -0.422932       -11.5086
  61   2.0000      -0.420832       -11.4514
  62   2.0000      -0.406107       -11.0507
  63   2.0000      -0.348190        -9.4747
  64   2.0000      -0.334346        -9.0980
  65   2.0000      -0.324951        -8.8424
  66   2.0000      -0.287884        -7.8337
  67   0.0000       0.032831         0.8934
  68   0.0000       0.075200         2.0463
  69   0.0000       0.106577         2.9001
  70   0.0000       0.122182         3.3248
  71   0.0000       0.126174         3.4334

MULLIKEN ATOMIC CHARGES
-----------------------
   0 S :    0.113746
   1 C :   -0.125634
   2 C :   -0.130674
   3 C :    0.013237
   4 C :   -0.147904
   5 H :    0.006521
   6 C :    0.104684
   7 H :    0.014133
   8 H :    0.004555
   9 C :   -0.047003
  10 H :    0.033922
  11 H :    0.037053
  12 C :   -0.006160
  13 H :    0.014884
  14 H :    0.041514
  15 H :   -0.001050
  16 S :    0.136807
  17 C :   -0.101500
  18 C :   -0.042435
  19 C :   -0.041502
  20 C :   -0.161321
  21 H :    0.029665
  22 C :    0.018133
  23 H :    0.009283
  24 H :    0.027847
  25 C :   -0.036013
  26 H :    0.035844
  27 H :    0.012602
  28 C :   -0.025717
  29 H :    0.042268
  30 H :    0.018801
  31 H :    0.035165
  32 H :    0.057255
  33 H :    0.058996
Sum of atomic charges:    0.0000000

LOEWDIN ATOMIC CHARGES
----------------------
   0 S :    0.412313
   1 C :   -0.220089
   2 C :   -0.062278
   3 C :   -0.066562
   4 C :   -0.200324
   5 H :    0.029137
   6 C :   -0.033878
   7 H :    0.027926
   8 H :    0.028945
   9 C :   -0.026011
  10 H :    0.024876
  11 H :    0.029223
  12 C :   -0.054485
  13 H :    0.017015
  14 H :    0.033736
  15 H :    0.009959
  16 S :    0.463449
  17 C :   -0.210250
  18 C :   -0.071639
  19 C :   -0.055142
  20 C :   -0.218322
  21 H :    0.037762
  22 C :   -0.034688
  23 H :    0.023058
  24 H :    0.029885
  25 C :   -0.047880
  26 H :    0.031263
  27 H :    0.021254
  28 C :   -0.061422
  29 H :    0.029083
  30 H :    0.016190
  31 H :    0.038082
  32 H :    0.033079
  33 H :    0.026737

  Mayer bond orders larger than 0.100000
B(  0-S ,  1-C ) :   1.1444 B(  0-S ,  4-C ) :   1.1397 B(  1-C ,  2-C ) :   1.6414
B(  1-C , 32-H ) :   0.9528 B(  2-C ,  3-C ) :   1.1906 B(  2-C ,  6-C ) :   1.0192
B(  3-C ,  4-C ) :   1.6316 B(  3-C ,  5-H ) :   0.9916 B(  4-C , 20-C ) :   0.9911
B(  6-C ,  7-H ) :   0.9249 B(  6-C ,  8-H ) :   0.9325 B(  6-C ,  9-C ) :   1.0716
B(  9-C , 10-H ) :   0.9540 B(  9-C , 11-H ) :   0.9577 B(  9-C , 12-C ) :   1.0723
B( 12-C , 13-H ) :   0.9743 B( 12-C , 14-H ) :   0.9756 B( 12-C , 15-H ) :   0.9751
B( 16-S , 17-C ) :   1.1875 B( 16-S , 20-C ) :   1.2027 B( 17-C , 18-C ) :   1.5614
B( 17-C , 20-C ) :   0.1096 B( 17-C , 33-H ) :   0.9645 B( 18-C , 19-C ) :   1.2832
B( 18-C , 21-H ) :   0.9927 B( 19-C , 20-C ) :   1.5357 B( 19-C , 22-C ) :   1.0425
B( 22-C , 23-H ) :   0.9322 B( 22-C , 24-H ) :   0.9384 B( 22-C , 25-C ) :   1.0622
B( 25-C , 26-H ) :   0.9566 B( 25-C , 27-H ) :   0.9455 B( 25-C , 28-C ) :   1.0743
B( 28-C , 29-H ) :   0.9716 B( 28-C , 30-H ) :   0.9741 B( 28-C , 31-H ) :   0.9715

Dispersion correction           -0.014783901
FINAL SINGLE POINT ENERGY     -1339.858281973736

DIPOLE MOMENT
-------------
                                X             Y             Z
Electronic contribution:     -7.05581     -18.26783     -22.33151
Nuclear contribution   :      7.38046      18.46404      22.74737
                        -----------------------------------------
Total Dipole Moment    :      0.32465       0.19621       0.41585
                        -----------------------------------------
Magnitude (a.u.)       :      0.56288
Magnitude (Debye)      :      1.43072

Rotational constants in cm-1:     0.018850     0.009411     0.007018
Rotational constants in MHz :   565.121738   282.139621   210.397572

                             ****ORCA TERMINATED NORMALLY****
TOTAL RUN TIME: 0 days 0 hours 0 minutes 35 seconds 815 msec
