                         Program Version 4.2.1 -  RELEASE  -
|  1> ! wB97X-D3 SP def2-SVP
|  2> %pal
|  3> nprocs 16
|  4> end
|  5>
|  6> * xyz 0 1
|  7> S 	 51.5851 	 0.0978482 	 84.0055
|  8> C 	 50.1257 	 -0.369937 	 84.8225
|  9> C 	 49.6179 	 -1.61772 	 84.4366
| 10> C 	 50.4491 	 -2.18948 	 83.3886
| 11> C 	 51.4618 	 -1.33655 	 82.9794
| 12> H 	 50.5201 	 -3.18689 	 82.881
| 13> C 	 48.4952 	 -2.32968 	 85.052
| 14> H 	 47.6218 	 -1.68137 	 84.8426
| 15> H 	 48.7592 	 -2.40774 	 86.1299
| 16> C 	 48.1241 	 -3.80568 	 84.6471
| 17> H 	 47.7819 	 -3.91801 	 83.6071
| 18> H 	 48.9098 	 -4.4632 	 84.9162
| 19> C 	 46.9279 	 -4.28134 	 85.5186
| 20> H 	 46.0615 	 -3.52909 	 85.4796
| 21> H 	 46.4749 	 -5.18989 	 85.1646
| 22> H 	 47.1747 	 -4.36643 	 86.5899
| 23> S 	 54.1073 	 -2.02615 	 82.6471
| 24> C 	 54.5776 	 -2.84009 	 81.1455
| 25> C 	 53.642 	 -2.5311 	 80.1543
| 26> C 	 52.4531 	 -1.96993 	 80.6695
| 27> C 	 52.5205 	 -1.74072 	 82.0357
| 28> H 	 53.8605 	 -2.88591 	 79.1704
| 29> C 	 51.1903 	 -1.95068 	 79.825
| 30> H 	 50.3289 	 -2.20938 	 80.4136
| 31> H 	 51.2187 	 -2.72397 	 78.9768
| 32> C 	 50.9039 	 -0.579746 	 79.1976
| 33> H 	 51.7857 	 -0.149002 	 78.7949
| 34> H 	 50.5978 	 0.029141 	 79.962
| 35> C 	 49.7683 	 -0.698162 	 78.1696
| 36> H 	 48.7985 	 -1.06604 	 78.514
| 37> H 	 49.9894 	 -1.38859 	 77.2663
| 38> H 	 49.5352 	 0.270141 	 77.6776
| 39> H 	 49.6366 	 0.104028 	 85.7246
| 40> H 	 55.5346 	 -3.25723 	 80.8661
| 41> *
| 42>
| 43>                          ****END OF INPUT****

CARTESIAN COORDINATES (ANGSTROEM)
---------------------------------
  S     51.585100    0.097848   84.005500
  C     50.125700   -0.369937   84.822500
  C     49.617900   -1.617720   84.436600
  C     50.449100   -2.189480   83.388600
  C     51.461800   -1.336550   82.979400
  H     50.520100   -3.186890   82.881000
  C     48.495200   -2.329680   85.052000
  H     47.621800   -1.681370   84.842600
  H     48.759200   -2.407740   86.129900
  C     48.124100   -3.805680   84.647100
  H     47.781900   -3.918010   83.607100
  H     48.909800   -4.463200   84.916200
  C     46.927900   -4.281340   85.518600
  H     46.061500   -3.529090   85.479600
  H     46.474900   -5.189890   85.164600
  H     47.174700   -4.366430   86.589900
  S     54.107300   -2.026150   82.647100
  C     54.577600   -2.840090   81.145500
  C     53.642000   -2.531100   80.154300
  C     52.453100   -1.969930   80.669500
  C     52.520500   -1.740720   82.035700
  H     53.860500   -2.885910   79.170400
  C     51.190300   -1.950680   79.825000
  H     50.328900   -2.209380   80.413600
  H     51.218700   -2.723970   78.976800
  C     50.903900   -0.579746   79.197600
  H     51.785700   -0.149002   78.794900
  H     50.597800    0.029141   79.962000
  C     49.768300   -0.698162   78.169600
  H     48.798500   -1.066040   78.514000
  H     49.989400   -1.388590   77.266300
  H     49.535200    0.270141   77.677600
  H     49.636600    0.104028   85.724600
  H     55.534600   -3.257230   80.866100

 Total Charge           Charge          ....    0
 Multiplicity           Mult            ....    1
 Number of Electrons    NEL             ....  134
 Basis Dimension        Dim             ....  322

ORBITAL ENERGIES
----------------

  NO   OCC          E(Eh)            E(eV)
   0   2.0000     -88.971391     -2421.0346
   1   2.0000     -88.965817     -2420.8830
   2   2.0000     -10.328042      -281.0403
   3   2.0000     -10.324249      -280.9371
   4   2.0000     -10.317169      -280.7445
   5   2.0000     -10.316949      -280.7384
   6   2.0000     -10.304792      -280.4076
   7   2.0000     -10.300586      -280.2932
   8   2.0000     -10.298884      -280.2469
   9   2.0000     -10.298002      -280.2229
  10   2.0000     -10.294072      -280.1159
  11   2.0000     -10.291672      -280.0506
  12   2.0000     -10.290245      -280.0118
  13   2.0000     -10.285581      -279.8849
  14   2.0000     -10.282954      -279.8134
  15   2.0000     -10.273589      -279.5586
  16   2.0000      -8.085499      -220.0176
  17   2.0000      -8.080526      -219.8823
  18   2.0000      -6.044027      -164.4663
  19   2.0000      -6.040157      -164.3610
  20   2.0000      -6.038991      -164.3293
  21   2.0000      -6.036230      -164.2542
  22   2.0000      -6.035088      -164.2231
  23   2.0000      -6.031275      -164.1193
  24   2.0000      -1.005764       -27.3682
  25   2.0000      -0.982679       -26.7401
  26   2.0000      -0.911634       -24.8068
  27   2.0000      -0.906924       -24.6786
  28   2.0000      -0.868229       -23.6257
  29   2.0000      -0.850293       -23.1376
  30   2.0000      -0.846861       -23.0443
  31   2.0000      -0.813825       -22.1453
  32   2.0000      -0.775033       -21.0897
  33   2.0000      -0.764378       -20.7998
  34   2.0000      -0.710944       -19.3458
  35   2.0000      -0.699751       -19.0412
  36   2.0000      -0.688483       -18.7346
  37   2.0000      -0.659979       -17.9589
  38   2.0000      -0.637275       -17.3411
  39   2.0000      -0.611849       -16.6492
  40   2.0000      -0.593770       -16.1573
  41   2.0000      -0.581916       -15.8347
  42   2.0000      -0.566886       -15.4258
  43   2.0000      -0.560069       -15.2403
  44   2.0000      -0.519389       -14.1333
  45   2.0000      -0.516171       -14.0457
  46   2.0000      -0.513684       -13.9780
  47   2.0000      -0.507382       -13.8066
  48   2.0000      -0.500282       -13.6134
  49   2.0000      -0.497637       -13.5414
  50   2.0000      -0.492555       -13.4031
  51   2.0000      -0.474992       -12.9252
  52   2.0000      -0.464713       -12.6455
  53   2.0000      -0.459292       -12.4980
  54   2.0000      -0.454805       -12.3759
  55   2.0000      -0.450327       -12.2540
  56   2.0000      -0.444313       -12.0904
  57   2.0000      -0.438350       -11.9281
  58   2.0000      -0.437526       -11.9057
  59   2.0000      -0.430122       -11.7042
  60   2.0000      -0.420372       -11.4389
  61   2.0000      -0.418305       -11.3827
  62   2.0000      -0.414903       -11.2901
  63   2.0000      -0.342319        -9.3150
  64   2.0000      -0.329026        -8.9533
  65   2.0000      -0.323122        -8.7926
  66   2.0000      -0.296307        -8.0629
  67   0.0000       0.035633         0.9696
  68   0.0000       0.056312         1.5323
  69   0.0000       0.111530         3.0349
  70   0.0000       0.121851         3.3157
  71   0.0000       0.132312         3.6004

MULLIKEN ATOMIC CHARGES
-----------------------
   0 S :    0.126319
   1 C :   -0.131957
   2 C :   -0.069491
   3 C :    0.010634
   4 C :   -0.167407
   5 H :    0.046206
   6 C :   -0.007216
   7 H :    0.052863
   8 H :    0.048211
   9 C :   -0.049124
  10 H :    0.042786
  11 H :    0.034543
  12 C :   -0.078286
  13 H :    0.027806
  14 H :    0.033512
  15 H :    0.036744
  16 S :    0.116406
  17 C :   -0.102000
  18 C :   -0.041078
  19 C :    0.009759
  20 C :   -0.188385
  21 H :    0.014491
  22 C :    0.029478
  23 H :    0.015749
  24 H :    0.030687
  25 C :   -0.000692
  26 H :    0.021197
  27 H :    0.015612
  28 C :   -0.085732
  29 H :    0.028201
  30 H :    0.031371
  31 H :    0.033894
  32 H :    0.060509
  33 H :    0.054390
Sum of atomic charges:    0.0000000

LOEWDIN ATOMIC CHARGES
----------------------
   0 S :    0.406950
   1 C :   -0.220113
   2 C :   -0.066759
   3 C :   -0.066102
   4 C :   -0.197509
   5 H :    0.046114
   6 C :   -0.044286
   7 H :    0.042576
   8 H :    0.042976
   9 C :   -0.034898
  10 H :    0.028359
  11 H :    0.022191
  12 C :   -0.069720
  13 H :    0.028234
  14 H :    0.022275
  15 H :    0.024742
  16 S :    0.410278
  17 C :   -0.183533
  18 C :   -0.063141
  19 C :   -0.059802
  20 C :   -0.209877
  21 H :    0.028199
  22 C :   -0.029140
  23 H :    0.025625
  24 H :    0.033083
  25 C :   -0.028129
  26 H :    0.021227
  27 H :    0.017326
  28 C :   -0.076659
  29 H :    0.022922
  30 H :    0.029448
  31 H :    0.027074
  32 H :    0.041236
  33 H :    0.028832

  Mayer bond orders larger than 0.100000
B(  0-S ,  1-C ) :   1.1335 B(  0-S ,  4-C ) :   1.1408 B(  1-C ,  2-C ) :   1.6295
B(  1-C , 32-H ) :   0.9606 B(  2-C ,  3-C ) :   1.2170 B(  2-C ,  6-C ) :   1.0092
B(  3-C ,  4-C ) :   1.6022 B(  3-C ,  5-H ) :   0.9758 B(  4-C , 20-C ) :   1.0181
B(  6-C ,  7-H ) :   0.9347 B(  6-C ,  8-H ) :   0.9407 B(  6-C ,  9-C ) :   1.0962
B(  9-C , 10-H ) :   0.9522 B(  9-C , 11-H ) :   0.9508 B(  9-C , 12-C ) :   1.0801
B( 12-C , 13-H ) :   0.9752 B( 12-C , 14-H ) :   0.9745 B( 12-C , 15-H ) :   0.9763
B( 16-S , 17-C ) :   1.1497 B( 16-S , 20-C ) :   1.1534 B( 17-C , 18-C ) :   1.6165
B( 17-C , 20-C ) :   0.1036 B( 17-C , 33-H ) :   0.9664 B( 18-C , 19-C ) :   1.2433
B( 18-C , 21-H ) :   0.9922 B( 19-C , 20-C ) :   1.5858 B( 19-C , 22-C ) :   1.0386
B( 22-C , 23-H ) :   0.9320 B( 22-C , 24-H ) :   0.9514 B( 22-C , 25-C ) :   1.0567
B( 25-C , 26-H ) :   0.9578 B( 25-C , 27-H ) :   0.9506 B( 25-C , 28-C ) :   1.0798
B( 28-C , 29-H ) :   0.9740 B( 28-C , 30-H ) :   0.9746 B( 28-C , 31-H ) :   0.9745

Dispersion correction           -0.013737211
FINAL SINGLE POINT ENERGY     -1339.862946832698

DIPOLE MOMENT
-------------
                                X             Y             Z
Electronic contribution:     24.98008       9.14026       8.10978
Nuclear contribution   :    -25.41850      -9.56876      -8.20414
                        -----------------------------------------
Total Dipole Moment    :     -0.43842      -0.42850      -0.09436
                        -----------------------------------------
Magnitude (a.u.)       :      0.62026
Magnitude (Debye)      :      1.57658

Rotational constants in cm-1:     0.016321     0.008192     0.007044
Rotational constants in MHz :   489.292599   245.590957   211.182505

                             ****ORCA TERMINATED NORMALLY****
TOTAL RUN TIME: 0 days 0 hours 0 minutes 27 seconds 633 msec
