                         Program Version 4.2.1 -  RELEASE  -
|  1> ! wB97X-D3 SP def2-SVP
|  2> %pal
|  3> nprocs 16
|  4> end
|  5>
|  6> * xyz 0 1
|  7> S 	 -46.1063 	 40.2553 	 84.8707
|  8> C 	 -47.0542 	 39.4579 	 86.0344
|  9> C 	 -48.0082 	 38.5989 	 85.4672
| 10> C 	 -47.9689 	 38.6803 	 84.0504
| 11> C 	 -47.0107 	 39.5104 	 83.5288
| 12> H 	 -48.5329 	 38.1088 	 83.366
| 13> C 	 -49.0407 	 37.8199 	 86.317
| 14> H 	 -48.456 	 37.0702 	 86.8531
| 15> H 	 -49.7229 	 37.3688 	 85.6444
| 16> C 	 -49.9126 	 38.7304 	 87.237
| 17> H 	 -50.6529 	 38.1845 	 87.7633
| 18> H 	 -49.3879 	 39.1246 	 88.0803
| 19> C 	 -50.6115 	 39.923 	 86.5543
| 20> H 	 -51.415 	 39.5268 	 85.9163
| 21> H 	 -51.2206 	 40.5546 	 87.2193
| 22> H 	 -49.8754 	 40.5709 	 86.1012
| 23> S 	 -44.8852 	 38.9996 	 81.804
| 24> C 	 -45.187 	 38.9094 	 80.072
| 25> C 	 -46.3734 	 39.4837 	 79.7832
| 26> C 	 -47.2284 	 39.6453 	 80.956
| 27> C 	 -46.5448 	 39.5181 	 82.1463
| 28> H 	 -46.6894 	 39.4592 	 78.742
| 29> C 	 -48.6876 	 40.0648 	 80.7377
| 30> H 	 -49.323 	 39.4682 	 81.407
| 31> H 	 -49.0072 	 39.8296 	 79.6777
| 32> C 	 -48.9825 	 41.5641 	 80.917
| 33> H 	 -48.6545 	 41.9491 	 81.869
| 34> H 	 -50.0399 	 41.6656 	 81.0178
| 35> C 	 -48.4319 	 42.3578 	 79.6753
| 36> H 	 -48.5242 	 43.4217 	 79.6863
| 37> H 	 -48.8621 	 42.0525 	 78.7529
| 38> H 	 -47.4182 	 42.1707 	 79.4903
| 39> H 	 -46.8942 	 39.5224 	 87.1362
| 40> H 	 -44.4633 	 38.6528 	 79.4183
| 41> *
| 42>
| 43>                          ****END OF INPUT****

CARTESIAN COORDINATES (ANGSTROEM)
---------------------------------
  S    -46.106300   40.255300   84.870700
  C    -47.054200   39.457900   86.034400
  C    -48.008200   38.598900   85.467200
  C    -47.968900   38.680300   84.050400
  C    -47.010700   39.510400   83.528800
  H    -48.532900   38.108800   83.366000
  C    -49.040700   37.819900   86.317000
  H    -48.456000   37.070200   86.853100
  H    -49.722900   37.368800   85.644400
  C    -49.912600   38.730400   87.237000
  H    -50.652900   38.184500   87.763300
  H    -49.387900   39.124600   88.080300
  C    -50.611500   39.923000   86.554300
  H    -51.415000   39.526800   85.916300
  H    -51.220600   40.554600   87.219300
  H    -49.875400   40.570900   86.101200
  S    -44.885200   38.999600   81.804000
  C    -45.187000   38.909400   80.072000
  C    -46.373400   39.483700   79.783200
  C    -47.228400   39.645300   80.956000
  C    -46.544800   39.518100   82.146300
  H    -46.689400   39.459200   78.742000
  C    -48.687600   40.064800   80.737700
  H    -49.323000   39.468200   81.407000
  H    -49.007200   39.829600   79.677700
  C    -48.982500   41.564100   80.917000
  H    -48.654500   41.949100   81.869000
  H    -50.039900   41.665600   81.017800
  C    -48.431900   42.357800   79.675300
  H    -48.524200   43.421700   79.686300
  H    -48.862100   42.052500   78.752900
  H    -47.418200   42.170700   79.490300
  H    -46.894200   39.522400   87.136200
  H    -44.463300   38.652800   79.418300

 Total Charge           Charge          ....    0
 Multiplicity           Mult            ....    1
 Number of Electrons    NEL             ....  134
 Basis Dimension        Dim             ....  322

ORBITAL ENERGIES
----------------

  NO   OCC          E(Eh)            E(eV)
   0   2.0000     -88.968602     -2420.9587
   1   2.0000     -88.959634     -2420.7147
   2   2.0000     -10.329018      -281.0669
   3   2.0000     -10.328669      -281.0574
   4   2.0000     -10.316069      -280.7145
   5   2.0000     -10.309599      -280.5384
   6   2.0000     -10.305645      -280.4309
   7   2.0000     -10.302802      -280.3535
   8   2.0000     -10.296875      -280.1922
   9   2.0000     -10.296724      -280.1881
  10   2.0000     -10.293011      -280.0871
  11   2.0000     -10.291705      -280.0515
  12   2.0000     -10.283684      -279.8333
  13   2.0000     -10.283234      -279.8210
  14   2.0000     -10.276246      -279.6309
  15   2.0000     -10.266411      -279.3632
  16   2.0000      -8.083524      -219.9639
  17   2.0000      -8.074409      -219.7158
  18   2.0000      -6.041990      -164.4109
  19   2.0000      -6.037851      -164.2983
  20   2.0000      -6.034490      -164.2068
  21   2.0000      -6.033046      -164.1675
  22   2.0000      -6.028955      -164.0562
  23   2.0000      -6.024960      -163.9475
  24   2.0000      -1.006327       -27.3836
  25   2.0000      -0.984825       -26.7984
  26   2.0000      -0.907241       -24.6873
  27   2.0000      -0.903254       -24.5788
  28   2.0000      -0.872366       -23.7383
  29   2.0000      -0.850408       -23.1408
  30   2.0000      -0.838409       -22.8143
  31   2.0000      -0.817333       -22.2408
  32   2.0000      -0.783237       -21.3130
  33   2.0000      -0.774378       -21.0719
  34   2.0000      -0.712610       -19.3911
  35   2.0000      -0.705620       -19.2009
  36   2.0000      -0.694857       -18.9080
  37   2.0000      -0.665392       -18.1062
  38   2.0000      -0.643512       -17.5108
  39   2.0000      -0.612684       -16.6720
  40   2.0000      -0.591870       -16.1056
  41   2.0000      -0.574681       -15.6379
  42   2.0000      -0.556038       -15.1306
  43   2.0000      -0.553773       -15.0689
  44   2.0000      -0.545081       -14.8324
  45   2.0000      -0.537687       -14.6312
  46   2.0000      -0.512666       -13.9504
  47   2.0000      -0.507469       -13.8089
  48   2.0000      -0.504205       -13.7201
  49   2.0000      -0.489442       -13.3184
  50   2.0000      -0.482894       -13.1402
  51   2.0000      -0.478465       -13.0197
  52   2.0000      -0.469518       -12.7762
  53   2.0000      -0.468707       -12.7542
  54   2.0000      -0.462760       -12.5924
  55   2.0000      -0.448040       -12.1918
  56   2.0000      -0.441011       -12.0005
  57   2.0000      -0.439894       -11.9701
  58   2.0000      -0.433845       -11.8055
  59   2.0000      -0.425116       -11.5680
  60   2.0000      -0.420652       -11.4465
  61   2.0000      -0.414321       -11.2742
  62   2.0000      -0.411122       -11.1872
  63   2.0000      -0.354457        -9.6453
  64   2.0000      -0.330981        -9.0065
  65   2.0000      -0.325784        -8.8650
  66   2.0000      -0.293276        -7.9805
  67   0.0000       0.032246         0.8775
  68   0.0000       0.062880         1.7111
  69   0.0000       0.120254         3.2723
  70   0.0000       0.121880         3.3165
  71   0.0000       0.132095         3.5945

MULLIKEN ATOMIC CHARGES
-----------------------
   0 S :    0.119239
   1 C :   -0.133415
   2 C :   -0.133787
   3 C :    0.051805
   4 C :   -0.169225
   5 H :   -0.002067
   6 C :    0.130526
   7 H :    0.045701
   8 H :    0.008884
   9 C :   -0.063470
  10 H :    0.012300
  11 H :    0.010528
  12 C :   -0.062257
  13 H :    0.026953
  14 H :    0.025809
  15 H :    0.052986
  16 S :    0.083932
  17 C :   -0.057460
  18 C :   -0.010783
  19 C :   -0.078270
  20 C :   -0.114136
  21 H :    0.026954
  22 C :    0.035440
  23 H :    0.024071
  24 H :    0.024760
  25 C :   -0.014753
  26 H :    0.026844
  27 H :    0.017993
  28 C :   -0.022493
  29 H :    0.026842
  30 H :    0.004285
  31 H :    0.017881
  32 H :    0.067118
  33 H :    0.021267
Sum of atomic charges:    0.0000000

LOEWDIN ATOMIC CHARGES
----------------------
   0 S :    0.419319
   1 C :   -0.216026
   2 C :   -0.068270
   3 C :   -0.052758
   4 C :   -0.192469
   5 H :    0.024743
   6 C :   -0.018787
   7 H :    0.037754
   8 H :    0.023862
   9 C :   -0.041816
  10 H :    0.019496
  11 H :    0.016425
  12 C :   -0.066781
  13 H :    0.025346
  14 H :    0.028060
  15 H :    0.026625
  16 S :    0.382691
  17 C :   -0.154041
  18 C :   -0.073316
  19 C :   -0.055232
  20 C :   -0.191184
  21 H :    0.033113
  22 C :   -0.031409
  23 H :    0.028139
  24 H :    0.034041
  25 C :   -0.027954
  26 H :    0.023681
  27 H :    0.020574
  28 C :   -0.062031
  29 H :    0.023504
  30 H :    0.019484
  31 H :    0.020008
  32 H :    0.037964
  33 H :    0.007244

  Mayer bond orders larger than 0.100000
B(  0-S ,  1-C ) :   1.1702 B(  0-S ,  4-C ) :   1.1424 B(  1-C ,  2-C ) :   1.5726
B(  1-C , 32-H ) :   0.9629 B(  2-C ,  3-C ) :   1.2770 B(  2-C ,  6-C ) :   1.0071
B(  3-C ,  4-C ) :   1.5705 B(  3-C ,  5-H ) :   0.9935 B(  4-C , 20-C ) :   1.0373
B(  6-C ,  7-H ) :   0.9393 B(  6-C ,  8-H ) :   0.9438 B(  6-C ,  9-C ) :   1.0651
B(  9-C , 10-H ) :   0.9557 B(  9-C , 11-H ) :   0.9542 B(  9-C , 12-C ) :   1.0801
B( 12-C , 13-H ) :   0.9767 B( 12-C , 14-H ) :   0.9722 B( 12-C , 15-H ) :   0.9736
B( 16-S , 17-C ) :   1.1473 B( 16-S , 20-C ) :   1.1167 B( 17-C , 18-C ) :   1.6491
B( 17-C , 33-H ) :   0.9779 B( 18-C , 19-C ) :   1.2056 B( 18-C , 21-H ) :   0.9789
B( 19-C , 20-C ) :   1.6353 B( 19-C , 22-C ) :   1.0466 B( 22-C , 23-H ) :   0.9320
B( 22-C , 24-H ) :   0.9409 B( 22-C , 25-C ) :   1.0753 B( 25-C , 26-H ) :   0.9587
B( 25-C , 27-H ) :   0.9552 B( 25-C , 28-C ) :   1.0596 B( 28-C , 29-H ) :   0.9758
B( 28-C , 30-H ) :   0.9722 B( 28-C , 31-H ) :   0.9765

Dispersion correction           -0.014844200
FINAL SINGLE POINT ENERGY     -1339.871442803128

DIPOLE MOMENT
-------------
                                X             Y             Z
Electronic contribution:     24.30714      -5.33376      -0.97207
Nuclear contribution   :    -24.88722       5.12633       0.93968
                        -----------------------------------------
Total Dipole Moment    :     -0.58008      -0.20742      -0.03239
                        -----------------------------------------
Magnitude (a.u.)       :      0.61690
Magnitude (Debye)      :      1.56803

Rotational constants in cm-1:     0.020757     0.008435     0.006891
Rotational constants in MHz :   622.271081   252.888792   206.591861

                             ****ORCA TERMINATED NORMALLY****
TOTAL RUN TIME: 0 days 0 hours 0 minutes 30 seconds 755 msec
