                         Program Version 4.2.1 -  RELEASE  -
|  1> ! wB97X-D3 SP def2-SVP
|  2> %pal
|  3> nprocs 16
|  4> end
|  5>
|  6> * xyz 0 1
|  7> S 	 10.9463 	 24.0189 	 63.9291
|  8> C 	 11.7139 	 22.4976 	 64.2059
|  9> C 	 11.8032 	 22.1597 	 65.5297
| 10> C 	 11.0503 	 23.1259 	 66.3403
| 11> C 	 10.6616 	 24.256 	 65.6538
| 12> H 	 10.925 	 23.0476 	 67.4483
| 13> C 	 12.3698 	 20.8391 	 66.0389
| 14> H 	 12.8659 	 20.9897 	 67.057
| 15> H 	 13.2858 	 20.5763 	 65.383
| 16> C 	 11.3363 	 19.6822 	 66.1072
| 17> H 	 11.8664 	 18.8516 	 66.4577
| 18> H 	 10.6431 	 19.9038 	 66.887
| 19> C 	 10.7071 	 19.2878 	 64.7747
| 20> H 	 11.4063 	 18.8948 	 64.0101
| 21> H 	 9.95514 	 18.5138 	 64.972
| 22> H 	 10.1718 	 20.1104 	 64.4857
| 23> S 	 10.5506 	 25.9195 	 67.7537
| 24> C 	 9.23461 	 27.1488 	 67.9023
| 25> C 	 8.51089 	 27.2079 	 66.7473
| 26> C 	 8.87375 	 26.1706 	 65.8235
| 27> C 	 9.96262 	 25.3807 	 66.2347
| 28> H 	 7.66579 	 27.8227 	 66.6098
| 29> C 	 8.12668 	 25.9761 	 64.5036
| 30> H 	 8.90614 	 25.9743 	 63.6893
| 31> H 	 7.55642 	 26.8918 	 64.2797
| 32> C 	 7.30445 	 24.6484 	 64.2714
| 33> H 	 6.53192 	 24.5976 	 64.9697
| 34> H 	 7.89644 	 23.734 	 64.4256
| 35> C 	 6.73454 	 24.5824 	 62.8329
| 36> H 	 7.34804 	 25.053 	 62.1255
| 37> H 	 5.82911 	 25.1963 	 62.8477
| 38> H 	 6.41028 	 23.5882 	 62.5151
| 39> H 	 12.0716 	 21.8791 	 63.4442
| 40> H 	 8.99694 	 27.6177 	 68.8405
| 41> *
| 42>
| 43>                          ****END OF INPUT****

CARTESIAN COORDINATES (ANGSTROEM)
---------------------------------
  S     10.946300   24.018900   63.929100
  C     11.713900   22.497600   64.205900
  C     11.803200   22.159700   65.529700
  C     11.050300   23.125900   66.340300
  C     10.661600   24.256000   65.653800
  H     10.925000   23.047600   67.448300
  C     12.369800   20.839100   66.038900
  H     12.865900   20.989700   67.057000
  H     13.285800   20.576300   65.383000
  C     11.336300   19.682200   66.107200
  H     11.866400   18.851600   66.457700
  H     10.643100   19.903800   66.887000
  C     10.707100   19.287800   64.774700
  H     11.406300   18.894800   64.010100
  H      9.955140   18.513800   64.972000
  H     10.171800   20.110400   64.485700
  S     10.550600   25.919500   67.753700
  C      9.234610   27.148800   67.902300
  C      8.510890   27.207900   66.747300
  C      8.873750   26.170600   65.823500
  C      9.962620   25.380700   66.234700
  H      7.665790   27.822700   66.609800
  C      8.126680   25.976100   64.503600
  H      8.906140   25.974300   63.689300
  H      7.556420   26.891800   64.279700
  C      7.304450   24.648400   64.271400
  H      6.531920   24.597600   64.969700
  H      7.896440   23.734000   64.425600
  C      6.734540   24.582400   62.832900
  H      7.348040   25.053000   62.125500
  H      5.829110   25.196300   62.847700
  H      6.410280   23.588200   62.515100
  H     12.071600   21.879100   63.444200
  H      8.996940   27.617700   68.840500

 Total Charge           Charge          ....    0
 Multiplicity           Mult            ....    1
 Number of Electrons    NEL             ....  134
 Basis Dimension        Dim             ....  322

ORBITAL ENERGIES
----------------

  NO   OCC          E(Eh)            E(eV)
   0   2.0000     -88.967111     -2420.9182
   1   2.0000     -88.963848     -2420.8294
   2   2.0000     -10.331171      -281.1254
   3   2.0000     -10.325845      -280.9805
   4   2.0000     -10.319444      -280.8064
   5   2.0000     -10.309234      -280.5285
   6   2.0000     -10.305276      -280.4208
   7   2.0000     -10.304153      -280.3903
   8   2.0000     -10.302982      -280.3584
   9   2.0000     -10.301073      -280.3064
  10   2.0000     -10.297312      -280.2041
  11   2.0000     -10.293967      -280.1131
  12   2.0000     -10.281548      -279.7751
  13   2.0000     -10.281233      -279.7666
  14   2.0000     -10.272574      -279.5310
  15   2.0000     -10.270764      -279.4817
  16   2.0000      -8.081624      -219.9122
  17   2.0000      -8.078414      -219.8248
  18   2.0000      -6.040216      -164.3626
  19   2.0000      -6.036922      -164.2730
  20   2.0000      -6.036202      -164.2534
  21   2.0000      -6.032877      -164.1629
  22   2.0000      -6.032286      -164.1468
  23   2.0000      -6.029242      -164.0640
  24   2.0000      -1.006958       -27.4007
  25   2.0000      -0.982950       -26.7474
  26   2.0000      -0.910108       -24.7653
  27   2.0000      -0.897690       -24.4274
  28   2.0000      -0.876582       -23.8530
  29   2.0000      -0.849583       -23.1183
  30   2.0000      -0.841593       -22.9009
  31   2.0000      -0.816592       -22.2206
  32   2.0000      -0.782022       -21.2799
  33   2.0000      -0.766138       -20.8477
  34   2.0000      -0.711682       -19.3659
  35   2.0000      -0.700541       -19.0627
  36   2.0000      -0.692316       -18.8389
  37   2.0000      -0.671322       -18.2676
  38   2.0000      -0.637433       -17.3454
  39   2.0000      -0.613261       -16.6877
  40   2.0000      -0.593883       -16.1604
  41   2.0000      -0.572914       -15.5898
  42   2.0000      -0.558057       -15.1855
  43   2.0000      -0.549445       -14.9512
  44   2.0000      -0.542524       -14.7628
  45   2.0000      -0.523147       -14.2355
  46   2.0000      -0.515980       -14.0405
  47   2.0000      -0.509240       -13.8571
  48   2.0000      -0.507998       -13.8233
  49   2.0000      -0.495033       -13.4705
  50   2.0000      -0.491149       -13.3649
  51   2.0000      -0.478892       -13.0313
  52   2.0000      -0.475392       -12.9361
  53   2.0000      -0.463898       -12.6233
  54   2.0000      -0.461258       -12.5515
  55   2.0000      -0.446403       -12.1472
  56   2.0000      -0.438561       -11.9339
  57   2.0000      -0.435251       -11.8438
  58   2.0000      -0.433211       -11.7883
  59   2.0000      -0.425580       -11.5806
  60   2.0000      -0.421698       -11.4750
  61   2.0000      -0.416772       -11.3409
  62   2.0000      -0.410405       -11.1677
  63   2.0000      -0.355234        -9.6664
  64   2.0000      -0.332169        -9.0388
  65   2.0000      -0.326529        -8.8853
  66   2.0000      -0.288163        -7.8413
  67   0.0000       0.023217         0.6318
  68   0.0000       0.081137         2.2079
  69   0.0000       0.111863         3.0440
  70   0.0000       0.116973         3.1830
  71   0.0000       0.121566         3.3080

MULLIKEN ATOMIC CHARGES
-----------------------
   0 S :    0.105972
   1 C :   -0.085710
   2 C :   -0.088668
   3 C :   -0.012779
   4 C :   -0.125862
   5 H :    0.036334
   6 C :   -0.011831
   7 H :    0.040139
   8 H :    0.038469
   9 C :   -0.023476
  10 H :    0.013246
  11 H :    0.022999
  12 C :   -0.031542
  13 H :    0.040114
  14 H :    0.030328
  15 H :    0.024544
  16 S :    0.090904
  17 C :   -0.098810
  18 C :    0.009445
  19 C :   -0.046936
  20 C :   -0.132323
  21 H :    0.006538
  22 C :   -0.000339
  23 H :    0.033313
  24 H :    0.020337
  25 C :   -0.035696
  26 H :    0.014088
  27 H :    0.038051
  28 C :   -0.030330
  29 H :    0.018709
  30 H :    0.017900
  31 H :    0.036254
  32 H :    0.026981
  33 H :    0.059638
Sum of atomic charges:    0.0000000

LOEWDIN ATOMIC CHARGES
----------------------
   0 S :    0.412967
   1 C :   -0.187578
   2 C :   -0.068571
   3 C :   -0.065813
   4 C :   -0.193616
   5 H :    0.034494
   6 C :   -0.042781
   7 H :    0.037541
   8 H :    0.036905
   9 C :   -0.032625
  10 H :    0.017068
  11 H :    0.023395
  12 C :   -0.059012
  13 H :    0.030413
  14 H :    0.031362
  15 H :    0.012967
  16 S :    0.404696
  17 C :   -0.166329
  18 C :   -0.060003
  19 C :   -0.063011
  20 C :   -0.202374
  21 H :    0.027525
  22 C :   -0.041458
  23 H :    0.026872
  24 H :    0.029490
  25 C :   -0.032544
  26 H :    0.012726
  27 H :    0.024002
  28 C :   -0.060392
  29 H :    0.016054
  30 H :    0.025330
  31 H :    0.027716
  32 H :    0.017104
  33 H :    0.027481

  Mayer bond orders larger than 0.100000
B(  0-S ,  1-C ) :   1.1386 B(  0-S ,  4-C ) :   1.1239 B(  1-C ,  2-C ) :   1.6283
B(  1-C , 32-H ) :   0.9697 B(  2-C ,  3-C ) :   1.2179 B(  2-C ,  6-C ) :   1.0308
B(  3-C ,  4-C ) :   1.5892 B(  3-C ,  5-H ) :   0.9781 B(  4-C , 20-C ) :   1.0607
B(  6-C ,  7-H ) :   0.9407 B(  6-C ,  8-H ) :   0.9457 B(  6-C ,  9-C ) :   1.0654
B(  9-C , 10-H ) :   0.9516 B(  9-C , 11-H ) :   0.9541 B(  9-C , 12-C ) :   1.0808
B( 12-C , 13-H ) :   0.9743 B( 12-C , 14-H ) :   0.9689 B( 12-C , 15-H ) :   0.9735
B( 16-S , 17-C ) :   1.1409 B( 16-S , 20-C ) :   1.1525 B( 17-C , 18-C ) :   1.5924
B( 17-C , 33-H ) :   0.9710 B( 18-C , 19-C ) :   1.2624 B( 18-C , 21-H ) :   0.9930
B( 19-C , 20-C ) :   1.5581 B( 19-C , 22-C ) :   1.0397 B( 22-C , 23-H ) :   0.9375
B( 22-C , 24-H ) :   0.9394 B( 22-C , 25-C ) :   1.0478 B( 25-C , 26-H ) :   0.9589
B( 25-C , 27-H ) :   0.9585 B( 25-C , 28-C ) :   1.0734 B( 28-C , 29-H ) :   0.9769
B( 28-C , 30-H ) :   0.9757 B( 28-C , 31-H ) :   0.9760

Dispersion correction           -0.014828731
FINAL SINGLE POINT ENERGY     -1339.879926617779

DIPOLE MOMENT
-------------
                                X             Y             Z
Electronic contribution:     10.05455      17.69014       8.95973
Nuclear contribution   :    -10.38399     -18.10826      -8.90767
                        -----------------------------------------
Total Dipole Moment    :     -0.32944      -0.41812       0.05206
                        -----------------------------------------
Magnitude (a.u.)       :      0.53485
Magnitude (Debye)      :      1.35948

Rotational constants in cm-1:     0.018878     0.009120     0.007098
Rotational constants in MHz :   565.953932   273.422049   212.785733

                             ****ORCA TERMINATED NORMALLY****
TOTAL RUN TIME: 0 days 0 hours 0 minutes 37 seconds 60 msec
