                         Program Version 4.2.1 -  RELEASE  -
|  1> ! wB97X-D3 SP def2-SVP
|  2> %pal
|  3> nprocs 16
|  4> end
|  5>
|  6> * xyz 0 1
|  7> S 	 15.0116 	 6.23528 	 85.7846
|  8> C 	 14.8889 	 7.95996 	 85.7402
|  9> C 	 13.5994 	 8.44679 	 85.9909
| 10> C 	 12.7261 	 7.38864 	 86.2302
| 11> C 	 13.2835 	 6.11213 	 86.25
| 12> H 	 11.6893 	 7.43609 	 86.4708
| 13> C 	 13.0455 	 9.88544 	 85.8863
| 14> H 	 13.6924 	 10.4856 	 86.5083
| 15> H 	 11.9863 	 9.98939 	 86.2177
| 16> C 	 13.1836 	 10.4454 	 84.4793
| 17> H 	 12.4134 	 9.88353 	 83.8601
| 18> H 	 12.7836 	 11.4297 	 84.4159
| 19> C 	 14.5595 	 10.3886 	 83.8465
| 20> H 	 15.2881 	 10.7004 	 84.5281
| 21> H 	 14.7102 	 9.33922 	 83.5797
| 22> H 	 14.5902 	 10.9856 	 82.9258
| 23> S 	 13.3182 	 3.88214 	 87.7408
| 24> C 	 12.2414 	 2.57097 	 87.4456
| 25> C 	 11.2769 	 2.96443 	 86.5204
| 26> C 	 11.4747 	 4.28944 	 85.9846
| 27> C 	 12.6197 	 4.83173 	 86.4307
| 28> H 	 10.5208 	 2.2694 	 86.2695
| 29> C 	 10.5567 	 4.8693 	 84.9783
| 30> H 	 10.5653 	 4.27199 	 84.0905
| 31> H 	 11.045 	 5.80166 	 84.7075
| 32> C 	 9.07248 	 5.15047 	 85.4556
| 33> H 	 8.58639 	 4.15822 	 85.559
| 34> H 	 8.50876 	 5.64277 	 84.6182
| 35> C 	 8.89103 	 5.98078 	 86.6712
| 36> H 	 9.0989 	 7.02117 	 86.3893
| 37> H 	 9.44425 	 5.57806 	 87.5578
| 38> H 	 7.83134 	 6.00358 	 86.9407
| 39> H 	 15.655 	 8.65622 	 85.5224
| 40> H 	 12.3078 	 1.58074 	 87.7976
| 41> *
| 42>
| 43>                          ****END OF INPUT****

CARTESIAN COORDINATES (ANGSTROEM)
---------------------------------
  S     15.011600    6.235280   85.784600
  C     14.888900    7.959960   85.740200
  C     13.599400    8.446790   85.990900
  C     12.726100    7.388640   86.230200
  C     13.283500    6.112130   86.250000
  H     11.689300    7.436090   86.470800
  C     13.045500    9.885440   85.886300
  H     13.692400   10.485600   86.508300
  H     11.986300    9.989390   86.217700
  C     13.183600   10.445400   84.479300
  H     12.413400    9.883530   83.860100
  H     12.783600   11.429700   84.415900
  C     14.559500   10.388600   83.846500
  H     15.288100   10.700400   84.528100
  H     14.710200    9.339220   83.579700
  H     14.590200   10.985600   82.925800
  S     13.318200    3.882140   87.740800
  C     12.241400    2.570970   87.445600
  C     11.276900    2.964430   86.520400
  C     11.474700    4.289440   85.984600
  C     12.619700    4.831730   86.430700
  H     10.520800    2.269400   86.269500
  C     10.556700    4.869300   84.978300
  H     10.565300    4.271990   84.090500
  H     11.045000    5.801660   84.707500
  C      9.072480    5.150470   85.455600
  H      8.586390    4.158220   85.559000
  H      8.508760    5.642770   84.618200
  C      8.891030    5.980780   86.671200
  H      9.098900    7.021170   86.389300
  H      9.444250    5.578060   87.557800
  H      7.831340    6.003580   86.940700
  H     15.655000    8.656220   85.522400
  H     12.307800    1.580740   87.797600

 Total Charge           Charge          ....    0
 Multiplicity           Mult            ....    1
 Number of Electrons    NEL             ....  134
 Basis Dimension        Dim             ....  322

ORBITAL ENERGIES
----------------

  NO   OCC          E(Eh)            E(eV)
   0   2.0000     -88.970587     -2421.0127
   1   2.0000     -88.958969     -2420.6966
   2   2.0000     -10.328167      -281.0437
   3   2.0000     -10.320959      -280.8476
   4   2.0000     -10.313368      -280.6410
   5   2.0000     -10.311759      -280.5972
   6   2.0000     -10.300110      -280.2802
   7   2.0000     -10.297811      -280.2177
   8   2.0000     -10.297296      -280.2037
   9   2.0000     -10.292633      -280.0768
  10   2.0000     -10.289256      -279.9849
  11   2.0000     -10.288871      -279.9744
  12   2.0000     -10.286774      -279.9173
  13   2.0000     -10.284391      -279.8525
  14   2.0000     -10.280084      -279.7353
  15   2.0000     -10.274013      -279.5701
  16   2.0000      -8.084508      -219.9906
  17   2.0000      -8.074415      -219.7160
  18   2.0000      -6.042925      -164.4363
  19   2.0000      -6.039121      -164.3328
  20   2.0000      -6.035423      -164.2322
  21   2.0000      -6.033010      -164.1666
  22   2.0000      -6.028783      -164.0515
  23   2.0000      -6.025063      -163.9503
  24   2.0000      -1.007697       -27.4208
  25   2.0000      -0.985107       -26.8061
  26   2.0000      -0.914707       -24.8904
  27   2.0000      -0.909841       -24.7580
  28   2.0000      -0.868637       -23.6368
  29   2.0000      -0.855341       -23.2750
  30   2.0000      -0.850334       -23.1388
  31   2.0000      -0.809796       -22.0357
  32   2.0000      -0.788356       -21.4522
  33   2.0000      -0.779676       -21.2161
  34   2.0000      -0.707242       -19.2450
  35   2.0000      -0.695157       -18.9162
  36   2.0000      -0.694043       -18.8859
  37   2.0000      -0.662428       -18.0256
  38   2.0000      -0.644417       -17.5355
  39   2.0000      -0.617832       -16.8121
  40   2.0000      -0.591958       -16.1080
  41   2.0000      -0.572546       -15.5798
  42   2.0000      -0.556166       -15.1341
  43   2.0000      -0.552355       -15.0303
  44   2.0000      -0.551632       -15.0107
  45   2.0000      -0.541568       -14.7368
  46   2.0000      -0.523475       -14.2445
  47   2.0000      -0.520578       -14.1657
  48   2.0000      -0.502054       -13.6616
  49   2.0000      -0.494188       -13.4475
  50   2.0000      -0.487814       -13.2741
  51   2.0000      -0.482448       -13.1281
  52   2.0000      -0.470683       -12.8079
  53   2.0000      -0.464413       -12.6373
  54   2.0000      -0.459551       -12.5050
  55   2.0000      -0.450302       -12.2533
  56   2.0000      -0.443198       -12.0600
  57   2.0000      -0.437887       -11.9155
  58   2.0000      -0.435331       -11.8459
  59   2.0000      -0.429950       -11.6995
  60   2.0000      -0.416225       -11.3261
  61   2.0000      -0.410817       -11.1789
  62   2.0000      -0.408972       -11.1287
  63   2.0000      -0.342816        -9.3285
  64   2.0000      -0.334588        -9.1046
  65   2.0000      -0.325477        -8.8567
  66   2.0000      -0.293385        -7.9834
  67   0.0000       0.029306         0.7975
  68   0.0000       0.069508         1.8914
  69   0.0000       0.111391         3.0311
  70   0.0000       0.121312         3.3011
  71   0.0000       0.132221         3.5979

MULLIKEN ATOMIC CHARGES
-----------------------
   0 S :    0.133044
   1 C :   -0.102283
   2 C :   -0.096853
   3 C :    0.041892
   4 C :   -0.175492
   5 H :   -0.011816
   6 C :    0.090188
   7 H :    0.023497
   8 H :    0.037907
   9 C :   -0.095108
  10 H :    0.022395
  11 H :    0.019047
  12 C :   -0.039452
  13 H :    0.022596
  14 H :    0.052636
  15 H :    0.039668
  16 S :    0.098355
  17 C :   -0.065571
  18 C :   -0.044504
  19 C :   -0.033726
  20 C :   -0.158472
  21 H :    0.003039
  22 C :    0.097279
  23 H :    0.030809
  24 H :    0.007747
  25 C :   -0.111821
  26 H :    0.030332
  27 H :    0.034632
  28 C :   -0.048749
  29 H :    0.036606
  30 H :    0.060063
  31 H :    0.031752
  32 H :    0.027987
  33 H :    0.042375
Sum of atomic charges:    0.0000000

LOEWDIN ATOMIC CHARGES
----------------------
   0 S :    0.411611
   1 C :   -0.196313
   2 C :   -0.064521
   3 C :   -0.056176
   4 C :   -0.193245
   5 H :    0.025737
   6 C :   -0.025553
   7 H :    0.026567
   8 H :    0.038276
   9 C :   -0.045592
  10 H :    0.026730
  11 H :    0.016128
  12 C :   -0.061287
  13 H :    0.013440
  14 H :    0.031624
  15 H :    0.032484
  16 S :    0.405572
  17 C :   -0.184413
  18 C :   -0.066582
  19 C :   -0.061333
  20 C :   -0.193145
  21 H :    0.022433
  22 C :   -0.030254
  23 H :    0.032192
  24 H :    0.027637
  25 C :   -0.044854
  26 H :    0.021498
  27 H :    0.030196
  28 C :   -0.073515
  29 H :    0.026133
  30 H :    0.035724
  31 H :    0.030675
  32 H :    0.019071
  33 H :    0.023053

  Mayer bond orders larger than 0.100000
B(  0-S ,  1-C ) :   1.1604 B(  0-S ,  4-C ) :   1.1449 B(  1-C ,  2-C ) :   1.5813
B(  1-C ,  4-C ) :   0.1115 B(  1-C , 32-H ) :   0.9612 B(  2-C ,  3-C ) :   1.2814
B(  2-C ,  6-C ) :   1.0084 B(  3-C ,  4-C ) :   1.5571 B(  3-C ,  5-H ) :   0.9985
B(  4-C , 20-C ) :   1.0183 B(  6-C ,  7-H ) :   0.9322 B(  6-C ,  8-H ) :   0.9476
B(  6-C ,  9-C ) :   1.0764 B(  9-C , 10-H ) :   0.9519 B(  9-C , 11-H ) :   0.9557
B(  9-C , 12-C ) :   1.0829 B( 12-C , 13-H ) :   0.9736 B( 12-C , 14-H ) :   0.9662
B( 12-C , 15-H ) :   0.9666 B( 16-S , 17-C ) :   1.1477 B( 16-S , 20-C ) :   1.1383
B( 17-C , 18-C ) :   1.6234 B( 17-C , 33-H ) :   0.9736 B( 18-C , 19-C ) :   1.1853
B( 18-C , 21-H ) :   0.9993 B( 19-C , 20-C ) :   1.6309 B( 19-C , 22-C ) :   1.0531
B( 22-C , 23-H ) :   0.9326 B( 22-C , 24-H ) :   0.9279 B( 22-C , 25-C ) :   1.0594
B( 25-C , 26-H ) :   0.9566 B( 25-C , 27-H ) :   0.9554 B( 25-C , 28-C ) :   1.0925
B( 28-C , 29-H ) :   0.9667 B( 28-C , 30-H ) :   0.9683 B( 28-C , 31-H ) :   0.9659

Dispersion correction           -0.015154621
FINAL SINGLE POINT ENERGY     -1339.879803457106

DIPOLE MOMENT
-------------
                                X             Y             Z
Electronic contribution:     16.22869     -18.10111      10.06196
Nuclear contribution   :    -16.81287      18.45408     -10.38368
                        -----------------------------------------
Total Dipole Moment    :     -0.58417       0.35298      -0.32172
                        -----------------------------------------
Magnitude (a.u.)       :      0.75455
Magnitude (Debye)      :      1.91793

Rotational constants in cm-1:     0.021123     0.008895     0.006867
Rotational constants in MHz :   633.242509   266.678871   205.853593

                             ****ORCA TERMINATED NORMALLY****
TOTAL RUN TIME: 0 days 0 hours 0 minutes 36 seconds 920 msec
