                         Program Version 4.2.1 -  RELEASE  -
|  1> ! wB97X-D3 SP def2-SVP
|  2> %pal
|  3> nprocs 16
|  4> end
|  5>
|  6> * xyz 0 1
|  7> S 	 -39.9954 	 17.3761 	 77.771
|  8> C 	 -39.8625 	 18.001 	 76.1121
|  9> C 	 -38.5667 	 17.7884 	 75.6057
| 10> C 	 -37.7675 	 17.036 	 76.4817
| 11> C 	 -38.378 	 16.6674 	 77.6412
| 12> H 	 -36.8246 	 16.6678 	 76.1472
| 13> C 	 -38.1752 	 18.2613 	 74.1685
| 14> H 	 -37.1841 	 18.7911 	 74.3379
| 15> H 	 -38.8708 	 19.0372 	 73.7998
| 16> C 	 -38.0153 	 17.0174 	 73.1339
| 17> H 	 -37.5961 	 17.4166 	 72.1751
| 18> H 	 -37.3893 	 16.3187 	 73.6138
| 19> C 	 -39.2878 	 16.3224 	 72.8999
| 20> H 	 -40.1564 	 16.9494 	 72.7296
| 21> H 	 -39.247 	 15.7874 	 71.9248
| 22> H 	 -39.4469 	 15.5757 	 73.6553
| 23> S 	 -36.2671 	 16.7164 	 79.4278
| 24> C 	 -35.9838 	 15.3258 	 80.4646
| 25> C 	 -37.0292 	 14.4427 	 80.3653
| 26> C 	 -37.946 	 14.6712 	 79.2593
| 27> C 	 -37.7382 	 15.9246 	 78.7428
| 28> H 	 -36.8651 	 13.5535 	 81.0176
| 29> C 	 -38.9717 	 13.7087 	 78.8654
| 30> H 	 -39.877 	 14.3422 	 78.8405
| 31> H 	 -39.0533 	 12.859 	 79.5918
| 32> C 	 -38.7644 	 12.9892 	 77.5795
| 33> H 	 -37.9599 	 12.287 	 77.5816
| 34> H 	 -38.5884 	 13.7385 	 76.8009
| 35> C 	 -40.0108 	 12.2204 	 77.0577
| 36> H 	 -40.8056 	 12.9925 	 76.9739
| 37> H 	 -40.4537 	 11.4872 	 77.7591
| 38> H 	 -39.9296 	 11.6244 	 76.1199
| 39> H 	 -40.6367 	 18.4523 	 75.5028
| 40> H 	 -35.2288 	 15.2948 	 81.2002
| 41> *
| 42>
| 43>                          ****END OF INPUT****

CARTESIAN COORDINATES (ANGSTROEM)
---------------------------------
  S    -39.995400   17.376100   77.771000
  C    -39.862500   18.001000   76.112100
  C    -38.566700   17.788400   75.605700
  C    -37.767500   17.036000   76.481700
  C    -38.378000   16.667400   77.641200
  H    -36.824600   16.667800   76.147200
  C    -38.175200   18.261300   74.168500
  H    -37.184100   18.791100   74.337900
  H    -38.870800   19.037200   73.799800
  C    -38.015300   17.017400   73.133900
  H    -37.596100   17.416600   72.175100
  H    -37.389300   16.318700   73.613800
  C    -39.287800   16.322400   72.899900
  H    -40.156400   16.949400   72.729600
  H    -39.247000   15.787400   71.924800
  H    -39.446900   15.575700   73.655300
  S    -36.267100   16.716400   79.427800
  C    -35.983800   15.325800   80.464600
  C    -37.029200   14.442700   80.365300
  C    -37.946000   14.671200   79.259300
  C    -37.738200   15.924600   78.742800
  H    -36.865100   13.553500   81.017600
  C    -38.971700   13.708700   78.865400
  H    -39.877000   14.342200   78.840500
  H    -39.053300   12.859000   79.591800
  C    -38.764400   12.989200   77.579500
  H    -37.959900   12.287000   77.581600
  H    -38.588400   13.738500   76.800900
  C    -40.010800   12.220400   77.057700
  H    -40.805600   12.992500   76.973900
  H    -40.453700   11.487200   77.759100
  H    -39.929600   11.624400   76.119900
  H    -40.636700   18.452300   75.502800
  H    -35.228800   15.294800   81.200200

 Total Charge           Charge          ....    0
 Multiplicity           Mult            ....    1
 Number of Electrons    NEL             ....  134
 Basis Dimension        Dim             ....  322

ORBITAL ENERGIES
----------------

  NO   OCC          E(Eh)            E(eV)
   0   2.0000     -88.970192     -2421.0020
   1   2.0000     -88.962284     -2420.7868
   2   2.0000     -10.331230      -281.1271
   3   2.0000     -10.329115      -281.0695
   4   2.0000     -10.316951      -280.7385
   5   2.0000     -10.314648      -280.6758
   6   2.0000     -10.306898      -280.4649
   7   2.0000     -10.306090      -280.4430
   8   2.0000     -10.302756      -280.3523
   9   2.0000     -10.297056      -280.1971
  10   2.0000     -10.291764      -280.0531
  11   2.0000     -10.290822      -280.0275
  12   2.0000     -10.290254      -280.0120
  13   2.0000     -10.282407      -279.7985
  14   2.0000     -10.281889      -279.7844
  15   2.0000     -10.271952      -279.5140
  16   2.0000      -8.083717      -219.9691
  17   2.0000      -8.076303      -219.7674
  18   2.0000      -6.042249      -164.4180
  19   2.0000      -6.038442      -164.3144
  20   2.0000      -6.034866      -164.2171
  21   2.0000      -6.034488      -164.2068
  22   2.0000      -6.030972      -164.1111
  23   2.0000      -6.026964      -164.0020
  24   2.0000      -1.002992       -27.2928
  25   2.0000      -0.980738       -26.6872
  26   2.0000      -0.917185       -24.9579
  27   2.0000      -0.905937       -24.6518
  28   2.0000      -0.867173       -23.5970
  29   2.0000      -0.851196       -23.1622
  30   2.0000      -0.848284       -23.0830
  31   2.0000      -0.812825       -22.1181
  32   2.0000      -0.781097       -21.2547
  33   2.0000      -0.768646       -20.9159
  34   2.0000      -0.709624       -19.3099
  35   2.0000      -0.695882       -18.9359
  36   2.0000      -0.688638       -18.7388
  37   2.0000      -0.664356       -18.0781
  38   2.0000      -0.635023       -17.2799
  39   2.0000      -0.622496       -16.9390
  40   2.0000      -0.594170       -16.1682
  41   2.0000      -0.575673       -15.6649
  42   2.0000      -0.570487       -15.5237
  43   2.0000      -0.549123       -14.9424
  44   2.0000      -0.537792       -14.6341
  45   2.0000      -0.523789       -14.2530
  46   2.0000      -0.521109       -14.1801
  47   2.0000      -0.512031       -13.9331
  48   2.0000      -0.507653       -13.8139
  49   2.0000      -0.493317       -13.4238
  50   2.0000      -0.482555       -13.1310
  51   2.0000      -0.475947       -12.9512
  52   2.0000      -0.474899       -12.9226
  53   2.0000      -0.460199       -12.5226
  54   2.0000      -0.456831       -12.4310
  55   2.0000      -0.451032       -12.2732
  56   2.0000      -0.446050       -12.1376
  57   2.0000      -0.437861       -11.9148
  58   2.0000      -0.430638       -11.7183
  59   2.0000      -0.424530       -11.5521
  60   2.0000      -0.417716       -11.3666
  61   2.0000      -0.411389       -11.1945
  62   2.0000      -0.408118       -11.1054
  63   2.0000      -0.339418        -9.2360
  64   2.0000      -0.330746        -9.0001
  65   2.0000      -0.327877        -8.9220
  66   2.0000      -0.301292        -8.1986
  67   0.0000       0.031155         0.8478
  68   0.0000       0.063049         1.7157
  69   0.0000       0.104648         2.8476
  70   0.0000       0.115107         3.1322
  71   0.0000       0.122502         3.3334

MULLIKEN ATOMIC CHARGES
-----------------------
   0 S :    0.111515
   1 C :   -0.122746
   2 C :   -0.108439
   3 C :    0.044451
   4 C :   -0.151888
   5 H :    0.005179
   6 C :    0.021951
   7 H :    0.045910
   8 H :    0.031625
   9 C :   -0.054167
  10 H :    0.044179
  11 H :    0.022515
  12 C :   -0.045881
  13 H :    0.021996
  14 H :    0.027600
  15 H :    0.041897
  16 S :    0.096899
  17 C :   -0.086458
  18 C :   -0.045930
  19 C :   -0.004899
  20 C :   -0.170379
  21 H :    0.034273
  22 C :    0.069389
  23 H :    0.032307
  24 H :    0.026211
  25 C :   -0.051727
  26 H :    0.024244
  27 H :    0.032318
  28 C :   -0.082659
  29 H :    0.029304
  30 H :    0.022632
  31 H :    0.046254
  32 H :    0.047295
  33 H :    0.045227
Sum of atomic charges:   -0.0000000

LOEWDIN ATOMIC CHARGES
----------------------
   0 S :    0.389603
   1 C :   -0.193078
   2 C :   -0.064066
   3 C :   -0.063251
   4 C :   -0.191730
   5 H :    0.028996
   6 C :   -0.031983
   7 H :    0.037348
   8 H :    0.028167
   9 C :   -0.036118
  10 H :    0.029574
  11 H :    0.019745
  12 C :   -0.070277
  13 H :    0.021672
  14 H :    0.032584
  15 H :    0.026942
  16 S :    0.377809
  17 C :   -0.172384
  18 C :   -0.077312
  19 C :   -0.049240
  20 C :   -0.181080
  21 H :    0.038540
  22 C :   -0.038230
  23 H :    0.037869
  24 H :    0.038597
  25 C :   -0.036993
  26 H :    0.019690
  27 H :    0.026253
  28 C :   -0.075904
  29 H :    0.026694
  30 H :    0.021197
  31 H :    0.031081
  32 H :    0.028328
  33 H :    0.020955

  Mayer bond orders larger than 0.100000
B(  0-S ,  1-C ) :   1.1350 B(  0-S ,  4-C ) :   1.1430 B(  1-C ,  2-C ) :   1.6015
B(  1-C ,  4-C ) :   0.1017 B(  1-C , 32-H ) :   0.9671 B(  2-C ,  3-C ) :   1.2609
B(  2-C ,  6-C ) :   1.0115 B(  3-C ,  4-C ) :   1.5681 B(  3-C ,  5-H ) :   0.9992
B(  4-C , 20-C ) :   1.0247 B(  6-C ,  7-H ) :   0.9448 B(  6-C ,  8-H ) :   0.9518
B(  6-C ,  9-C ) :   1.0506 B(  9-C , 10-H ) :   0.9607 B(  9-C , 11-H ) :   0.9601
B(  9-C , 12-C ) :   1.0801 B( 12-C , 13-H ) :   0.9747 B( 12-C , 14-H ) :   0.9680
B( 12-C , 15-H ) :   0.9753 B( 16-S , 17-C ) :   1.1411 B( 16-S , 20-C ) :   1.1215
B( 17-C , 18-C ) :   1.6630 B( 17-C , 33-H ) :   0.9683 B( 18-C , 19-C ) :   1.1949
B( 18-C , 21-H ) :   0.9774 B( 19-C , 20-C ) :   1.6242 B( 19-C , 22-C ) :   1.0527
B( 22-C , 23-H ) :   0.9232 B( 22-C , 24-H ) :   0.9283 B( 22-C , 25-C ) :   1.0739
B( 25-C , 26-H ) :   0.9536 B( 25-C , 27-H ) :   0.9556 B( 25-C , 28-C ) :   1.0732
B( 28-C , 29-H ) :   0.9760 B( 28-C , 30-H ) :   0.9739 B( 28-C , 31-H ) :   0.9758

Dispersion correction           -0.014996875
FINAL SINGLE POINT ENERGY     -1339.870139839230

DIPOLE MOMENT
-------------
                                X             Y             Z
Electronic contribution:      6.42211      14.15723      20.97964
Nuclear contribution   :     -6.34061     -14.54809     -21.41506
                        -----------------------------------------
Total Dipole Moment    :      0.08150      -0.39086      -0.43542
                        -----------------------------------------
Magnitude (a.u.)       :      0.59076
Magnitude (Debye)      :      1.50160

Rotational constants in cm-1:     0.017797     0.009261     0.007596
Rotational constants in MHz :   533.540155   277.624163   227.723402

                             ****ORCA TERMINATED NORMALLY****
TOTAL RUN TIME: 0 days 0 hours 0 minutes 29 seconds 489 msec
