                         Program Version 4.2.1 -  RELEASE  -
|  1> ! wB97X-D3 SP def2-SVP
|  2> %pal
|  3> nprocs 16
|  4> end
|  5>
|  6> * xyz 0 1
|  7> S 	 38.4766 	 28.3941 	 51.7397
|  8> C 	 38.8421 	 30.0015 	 52.2915
|  9> C 	 39.7016 	 30.7107 	 51.4751
| 10> C 	 39.8662 	 30.0347 	 50.288
| 11> C 	 39.3023 	 28.7575 	 50.2635
| 12> H 	 40.3451 	 30.3403 	 49.3951
| 13> C 	 40.2474 	 32.0706 	 51.8591
| 14> H 	 41.3624 	 31.982 	 51.7879
| 15> H 	 40.1175 	 32.0789 	 52.9342
| 16> C 	 39.4514 	 33.1953 	 51.1658
| 17> H 	 39.1909 	 32.9854 	 50.1439
| 18> H 	 38.4329 	 33.3179 	 51.5988
| 19> C 	 40.2439 	 34.5018 	 51.1582
| 20> H 	 41.0372 	 34.505 	 50.4741
| 21> H 	 39.6092 	 35.2591 	 50.6959
| 22> H 	 40.6242 	 34.7821 	 52.1531
| 23> S 	 40.7219 	 27.6527 	 48.2541
| 24> C 	 39.9123 	 26.7041 	 47.1089
| 25> C 	 38.6236 	 26.4043 	 47.4004
| 26> C 	 38.2424 	 27.0812 	 48.632
| 27> C 	 39.2741 	 27.8586 	 49.1347
| 28> H 	 37.9528 	 25.788 	 46.7691
| 29> C 	 36.7769 	 27.048 	 49.0881
| 30> H 	 36.1301 	 27.5614 	 48.2882
| 31> H 	 36.6301 	 27.797 	 49.8865
| 32> C 	 36.2308 	 25.6071 	 49.4255
| 33> H 	 35.2273 	 25.7784 	 49.9374
| 34> H 	 36.7569 	 25.0562 	 50.1829
| 35> C 	 36.047 	 24.6005 	 48.2378
| 36> H 	 35.4008 	 23.767 	 48.5535
| 37> H 	 36.9798 	 24.2888 	 47.8944
| 38> H 	 35.5827 	 25.0825 	 47.3989
| 39> H 	 38.5336 	 30.4511 	 53.2389
| 40> H 	 40.2617 	 26.38 	 46.1363
| 41> *
| 42>
| 43>                          ****END OF INPUT****

CARTESIAN COORDINATES (ANGSTROEM)
---------------------------------
  S     38.476600   28.394100   51.739700
  C     38.842100   30.001500   52.291500
  C     39.701600   30.710700   51.475100
  C     39.866200   30.034700   50.288000
  C     39.302300   28.757500   50.263500
  H     40.345100   30.340300   49.395100
  C     40.247400   32.070600   51.859100
  H     41.362400   31.982000   51.787900
  H     40.117500   32.078900   52.934200
  C     39.451400   33.195300   51.165800
  H     39.190900   32.985400   50.143900
  H     38.432900   33.317900   51.598800
  C     40.243900   34.501800   51.158200
  H     41.037200   34.505000   50.474100
  H     39.609200   35.259100   50.695900
  H     40.624200   34.782100   52.153100
  S     40.721900   27.652700   48.254100
  C     39.912300   26.704100   47.108900
  C     38.623600   26.404300   47.400400
  C     38.242400   27.081200   48.632000
  C     39.274100   27.858600   49.134700
  H     37.952800   25.788000   46.769100
  C     36.776900   27.048000   49.088100
  H     36.130100   27.561400   48.288200
  H     36.630100   27.797000   49.886500
  C     36.230800   25.607100   49.425500
  H     35.227300   25.778400   49.937400
  H     36.756900   25.056200   50.182900
  C     36.047000   24.600500   48.237800
  H     35.400800   23.767000   48.553500
  H     36.979800   24.288800   47.894400
  H     35.582700   25.082500   47.398900
  H     38.533600   30.451100   53.238900
  H     40.261700   26.380000   46.136300

 Total Charge           Charge          ....    0
 Multiplicity           Mult            ....    1
 Number of Electrons    NEL             ....  134
 Basis Dimension        Dim             ....  322

ORBITAL ENERGIES
----------------

  NO   OCC          E(Eh)            E(eV)
   0   2.0000     -88.968964     -2420.9686
   1   2.0000     -88.965256     -2420.8677
   2   2.0000     -10.322228      -280.8821
   3   2.0000     -10.318430      -280.7788
   4   2.0000     -10.307809      -280.4898
   5   2.0000     -10.307188      -280.4729
   6   2.0000     -10.300757      -280.2978
   7   2.0000     -10.299454      -280.2624
   8   2.0000     -10.295841      -280.1641
   9   2.0000     -10.292813      -280.0817
  10   2.0000     -10.292536      -280.0741
  11   2.0000     -10.291449      -280.0446
  12   2.0000     -10.290238      -280.0116
  13   2.0000     -10.284541      -279.8566
  14   2.0000     -10.274293      -279.5777
  15   2.0000     -10.273886      -279.5666
  16   2.0000      -8.083569      -219.9651
  17   2.0000      -8.081746      -219.9155
  18   2.0000      -6.041863      -164.4075
  19   2.0000      -6.040178      -164.3616
  20   2.0000      -6.038122      -164.3057
  21   2.0000      -6.036056      -164.2494
  22   2.0000      -6.034553      -164.2085
  23   2.0000      -6.032438      -164.1510
  24   2.0000      -1.015209       -27.6253
  25   2.0000      -0.992175       -26.9985
  26   2.0000      -0.913272       -24.8514
  27   2.0000      -0.897233       -24.4149
  28   2.0000      -0.871745       -23.7214
  29   2.0000      -0.855654       -23.2835
  30   2.0000      -0.843997       -22.9663
  31   2.0000      -0.816323       -22.2133
  32   2.0000      -0.785888       -21.3851
  33   2.0000      -0.769168       -20.9301
  34   2.0000      -0.710124       -19.3235
  35   2.0000      -0.701870       -19.0989
  36   2.0000      -0.689819       -18.7709
  37   2.0000      -0.665579       -18.1113
  38   2.0000      -0.635310       -17.2877
  39   2.0000      -0.618823       -16.8390
  40   2.0000      -0.594506       -16.1773
  41   2.0000      -0.567549       -15.4438
  42   2.0000      -0.552542       -15.0354
  43   2.0000      -0.537933       -14.6379
  44   2.0000      -0.536614       -14.6020
  45   2.0000      -0.535096       -14.5607
  46   2.0000      -0.518200       -14.1009
  47   2.0000      -0.515792       -14.0354
  48   2.0000      -0.504569       -13.7300
  49   2.0000      -0.490584       -13.3495
  50   2.0000      -0.487550       -13.2669
  51   2.0000      -0.476468       -12.9653
  52   2.0000      -0.472212       -12.8495
  53   2.0000      -0.465280       -12.6609
  54   2.0000      -0.462251       -12.5785
  55   2.0000      -0.452450       -12.3118
  56   2.0000      -0.449481       -12.2310
  57   2.0000      -0.445652       -12.1268
  58   2.0000      -0.437005       -11.8915
  59   2.0000      -0.421347       -11.4654
  60   2.0000      -0.416585       -11.3359
  61   2.0000      -0.414231       -11.2718
  62   2.0000      -0.410097       -11.1593
  63   2.0000      -0.347831        -9.4650
  64   2.0000      -0.334611        -9.1052
  65   2.0000      -0.329402        -8.9635
  66   2.0000      -0.284293        -7.7360
  67   0.0000       0.031353         0.8532
  68   0.0000       0.086913         2.3650
  69   0.0000       0.112714         3.0671
  70   0.0000       0.122684         3.3384
  71   0.0000       0.131347         3.5741

MULLIKEN ATOMIC CHARGES
-----------------------
   0 S :    0.134925
   1 C :   -0.127911
   2 C :   -0.098546
   3 C :    0.015770
   4 C :   -0.164359
   5 H :   -0.009771
   6 C :    0.090966
   7 H :    0.045681
   8 H :    0.009729
   9 C :   -0.063925
  10 H :    0.025227
  11 H :    0.033136
  12 C :   -0.017959
  13 H :    0.017419
  14 H :    0.023198
  15 H :    0.036494
  16 S :    0.132503
  17 C :   -0.064385
  18 C :   -0.062635
  19 C :   -0.035429
  20 C :   -0.155393
  21 H :    0.031278
  22 C :    0.016530
  23 H :    0.046579
  24 H :    0.024494
  25 C :   -0.086426
  26 H :    0.034279
  27 H :    0.029840
  28 C :   -0.032859
  29 H :    0.042848
  30 H :    0.028612
  31 H :    0.019803
  32 H :    0.037725
  33 H :    0.042561
Sum of atomic charges:   -0.0000000

LOEWDIN ATOMIC CHARGES
----------------------
   0 S :    0.437337
   1 C :   -0.206973
   2 C :   -0.066312
   3 C :   -0.063357
   4 C :   -0.199139
   5 H :    0.020689
   6 C :   -0.031699
   7 H :    0.041220
   8 H :    0.029196
   9 C :   -0.038137
  10 H :    0.023326
  11 H :    0.032237
  12 C :   -0.062959
  13 H :    0.017453
  14 H :    0.027961
  15 H :    0.026284
  16 S :    0.447051
  17 C :   -0.204448
  18 C :   -0.073884
  19 C :   -0.060493
  20 C :   -0.218237
  21 H :    0.038431
  22 C :   -0.047256
  23 H :    0.041614
  24 H :    0.019520
  25 C :   -0.040420
  26 H :    0.030555
  27 H :    0.021739
  28 C :   -0.060888
  29 H :    0.033559
  30 H :    0.012878
  31 H :    0.019067
  32 H :    0.024822
  33 H :    0.029264

  Mayer bond orders larger than 0.100000
B(  0-S ,  1-C ) :   1.1532 B(  0-S ,  4-C ) :   1.1591 B(  1-C ,  2-C ) :   1.5955
B(  1-C ,  4-C ) :   0.1008 B(  1-C , 32-H ) :   0.9571 B(  2-C ,  3-C ) :   1.2651
B(  2-C ,  6-C ) :   1.0159 B(  3-C ,  4-C ) :   1.5420 B(  3-C ,  5-H ) :   0.9994
B(  4-C , 20-C ) :   1.0468 B(  6-C ,  7-H ) :   0.9465 B(  6-C ,  8-H ) :   0.9279
B(  6-C ,  9-C ) :   1.0401 B(  9-C , 10-H ) :   0.9647 B(  9-C , 11-H ) :   0.9512
B(  9-C , 12-C ) :   1.0835 B( 12-C , 13-H ) :   0.9763 B( 12-C , 14-H ) :   0.9696
B( 12-C , 15-H ) :   0.9744 B( 16-S , 17-C ) :   1.1539 B( 16-S , 20-C ) :   1.1457
B( 17-C , 18-C ) :   1.6351 B( 17-C , 33-H ) :   0.9578 B( 18-C , 19-C ) :   1.2275
B( 18-C , 21-H ) :   0.9785 B( 19-C , 20-C ) :   1.5944 B( 19-C , 22-C ) :   1.0352
B( 22-C , 23-H ) :   0.9421 B( 22-C , 24-H ) :   0.9316 B( 22-C , 25-C ) :   1.0495
B( 25-C , 26-H ) :   0.9593 B( 25-C , 27-H ) :   0.9600 B( 25-C , 28-C ) :   1.0755
B( 28-C , 29-H ) :   0.9698 B( 28-C , 30-H ) :   0.9704 B( 28-C , 31-H ) :   0.9756

Dispersion correction           -0.013991364
FINAL SINGLE POINT ENERGY     -1339.872354083476

DIPOLE MOMENT
-------------
                                X             Y             Z
Electronic contribution:     10.06236      -9.63799       0.05786
Nuclear contribution   :    -10.29597       9.94162      -0.19454
                        -----------------------------------------
Total Dipole Moment    :     -0.23361       0.30363      -0.13668
                        -----------------------------------------
Magnitude (a.u.)       :      0.40675
Magnitude (Debye)      :      1.03388

Rotational constants in cm-1:     0.025066     0.007097     0.006126
Rotational constants in MHz :   751.470821   212.749918   183.641216

                             ****ORCA TERMINATED NORMALLY****
TOTAL RUN TIME: 0 days 0 hours 0 minutes 34 seconds 579 msec
