                         Program Version 4.2.1 -  RELEASE  -
|  1> ! wB97X-D3 SP def2-SVP
|  2> %pal
|  3> nprocs 16
|  4> end
|  5>
|  6> * xyz 0 1
|  7> S 	 39.7524 	 27.7591 	 49.7122
|  8> C 	 39.8528 	 28.7649 	 51.144
|  9> C 	 39.6367 	 30.0846 	 50.9226
| 10> C 	 39.3985 	 30.299 	 49.5137
| 11> C 	 39.3342 	 29.1518 	 48.7592
| 12> H 	 39.3747 	 31.1934 	 48.9997
| 13> C 	 39.9092 	 31.1066 	 51.9867
| 14> H 	 39.5741 	 30.6237 	 52.9575
| 15> H 	 39.2715 	 31.8821 	 51.7336
| 16> C 	 41.325 	 31.7466 	 52.1052
| 17> H 	 41.7622 	 32.0235 	 51.1145
| 18> H 	 41.1676 	 32.6158 	 52.7227
| 19> C 	 42.3425 	 30.8848 	 52.7758
| 20> H 	 41.9676 	 30.4243 	 53.6507
| 21> H 	 42.7409 	 30.1249 	 52.11
| 22> H 	 43.2096 	 31.4724 	 53.1134
| 23> S 	 40.1298 	 27.5088 	 46.6292
| 24> C 	 39.3102 	 27.7315 	 45.0364
| 25> C 	 38.3673 	 28.7123 	 45.082
| 26> C 	 38.2481 	 29.3371 	 46.3938
| 27> C 	 39.2294 	 28.8814 	 47.3451
| 28> H 	 37.7951 	 28.9751 	 44.2615
| 29> C 	 37.1614 	 30.4104 	 46.6461
| 30> H 	 36.9704 	 30.9148 	 45.7423
| 31> H 	 37.6081 	 31.1939 	 47.3071
| 32> C 	 35.8023 	 29.9869 	 47.1925
| 33> H 	 35.2486 	 30.9388 	 47.3982
| 34> H 	 35.8186 	 29.3387 	 48.129
| 35> C 	 34.9298 	 29.1895 	 46.1884
| 36> H 	 34.0247 	 28.976 	 46.7086
| 37> H 	 35.4201 	 28.2443 	 45.8634
| 38> H 	 34.7396 	 29.7294 	 45.2986
| 39> H 	 40.2776 	 28.4015 	 52.069
| 40> H 	 39.5361 	 27.2342 	 44.1246
| 41> *
| 42>
| 43>                          ****END OF INPUT****

CARTESIAN COORDINATES (ANGSTROEM)
---------------------------------
  S     39.752400   27.759100   49.712200
  C     39.852800   28.764900   51.144000
  C     39.636700   30.084600   50.922600
  C     39.398500   30.299000   49.513700
  C     39.334200   29.151800   48.759200
  H     39.374700   31.193400   48.999700
  C     39.909200   31.106600   51.986700
  H     39.574100   30.623700   52.957500
  H     39.271500   31.882100   51.733600
  C     41.325000   31.746600   52.105200
  H     41.762200   32.023500   51.114500
  H     41.167600   32.615800   52.722700
  C     42.342500   30.884800   52.775800
  H     41.967600   30.424300   53.650700
  H     42.740900   30.124900   52.110000
  H     43.209600   31.472400   53.113400
  S     40.129800   27.508800   46.629200
  C     39.310200   27.731500   45.036400
  C     38.367300   28.712300   45.082000
  C     38.248100   29.337100   46.393800
  C     39.229400   28.881400   47.345100
  H     37.795100   28.975100   44.261500
  C     37.161400   30.410400   46.646100
  H     36.970400   30.914800   45.742300
  H     37.608100   31.193900   47.307100
  C     35.802300   29.986900   47.192500
  H     35.248600   30.938800   47.398200
  H     35.818600   29.338700   48.129000
  C     34.929800   29.189500   46.188400
  H     34.024700   28.976000   46.708600
  H     35.420100   28.244300   45.863400
  H     34.739600   29.729400   45.298600
  H     40.277600   28.401500   52.069000
  H     39.536100   27.234200   44.124600

 Total Charge           Charge          ....    0
 Multiplicity           Mult            ....    1
 Number of Electrons    NEL             ....  134
 Basis Dimension        Dim             ....  322

ORBITAL ENERGIES
----------------

  NO   OCC          E(Eh)            E(eV)
   0   2.0000     -88.969022     -2420.9702
   1   2.0000     -88.961020     -2420.7524
   2   2.0000     -10.335481      -281.2427
   3   2.0000     -10.327301      -281.0201
   4   2.0000     -10.320609      -280.8380
   5   2.0000     -10.312647      -280.6214
   6   2.0000     -10.306328      -280.4494
   7   2.0000     -10.297951      -280.2215
   8   2.0000     -10.292915      -280.0845
   9   2.0000     -10.292093      -280.0621
  10   2.0000     -10.291943      -280.0580
  11   2.0000     -10.291861      -280.0558
  12   2.0000     -10.290949      -280.0310
  13   2.0000     -10.289145      -279.9819
  14   2.0000     -10.271047      -279.4894
  15   2.0000     -10.270536      -279.4755
  16   2.0000      -8.082041      -219.9235
  17   2.0000      -8.076466      -219.7718
  18   2.0000      -6.040841      -164.3796
  19   2.0000      -6.036814      -164.2701
  20   2.0000      -6.034964      -164.2197
  21   2.0000      -6.032539      -164.1537
  22   2.0000      -6.031003      -164.1119
  23   2.0000      -6.027057      -164.0046
  24   2.0000      -1.005462       -27.3600
  25   2.0000      -0.975460       -26.5436
  26   2.0000      -0.915774       -24.9195
  27   2.0000      -0.902934       -24.5701
  28   2.0000      -0.874787       -23.8042
  29   2.0000      -0.849037       -23.1035
  30   2.0000      -0.841102       -22.8875
  31   2.0000      -0.820378       -22.3236
  32   2.0000      -0.787739       -21.4355
  33   2.0000      -0.773181       -21.0393
  34   2.0000      -0.713184       -19.4067
  35   2.0000      -0.696101       -18.9419
  36   2.0000      -0.683065       -18.5871
  37   2.0000      -0.663418       -18.0525
  38   2.0000      -0.644353       -17.5337
  39   2.0000      -0.619616       -16.8606
  40   2.0000      -0.592292       -16.1171
  41   2.0000      -0.574002       -15.6194
  42   2.0000      -0.552692       -15.0395
  43   2.0000      -0.549660       -14.9570
  44   2.0000      -0.545622       -14.8471
  45   2.0000      -0.540054       -14.6956
  46   2.0000      -0.526121       -14.3165
  47   2.0000      -0.511907       -13.9297
  48   2.0000      -0.499485       -13.5917
  49   2.0000      -0.495452       -13.4819
  50   2.0000      -0.488474       -13.2921
  51   2.0000      -0.477828       -13.0024
  52   2.0000      -0.475022       -12.9260
  53   2.0000      -0.463763       -12.6196
  54   2.0000      -0.457531       -12.4501
  55   2.0000      -0.449773       -12.2389
  56   2.0000      -0.440126       -11.9764
  57   2.0000      -0.437175       -11.8961
  58   2.0000      -0.432269       -11.7626
  59   2.0000      -0.430803       -11.7227
  60   2.0000      -0.417459       -11.3596
  61   2.0000      -0.413873       -11.2621
  62   2.0000      -0.410679       -11.1751
  63   2.0000      -0.354014        -9.6332
  64   2.0000      -0.333039        -9.0625
  65   2.0000      -0.328096        -8.9280
  66   2.0000      -0.284697        -7.7470
  67   0.0000       0.020141         0.5481
  68   0.0000       0.071751         1.9525
  69   0.0000       0.101154         2.7525
  70   0.0000       0.118061         3.2126
  71   0.0000       0.136160         3.7051

MULLIKEN ATOMIC CHARGES
-----------------------
   0 S :    0.086556
   1 C :   -0.117729
   2 C :   -0.082979
   3 C :    0.035546
   4 C :   -0.132587
   5 H :   -0.017178
   6 C :    0.073772
   7 H :    0.038403
   8 H :    0.005830
   9 C :   -0.052741
  10 H :    0.037925
  11 H :    0.029682
  12 C :   -0.041387
  13 H :    0.009929
  14 H :    0.037698
  15 H :    0.030709
  16 S :    0.086912
  17 C :   -0.071254
  18 C :    0.010999
  19 C :   -0.068364
  20 C :   -0.130040
  21 H :   -0.005184
  22 C :    0.085816
  23 H :    0.002880
  24 H :    0.025855
  25 C :   -0.100883
  26 H :    0.036708
  27 H :    0.052581
  28 C :   -0.042538
  29 H :    0.031865
  30 H :    0.040608
  31 H :    0.012716
  32 H :    0.041945
  33 H :    0.047928
Sum of atomic charges:   -0.0000000

LOEWDIN ATOMIC CHARGES
----------------------
   0 S :    0.398187
   1 C :   -0.190737
   2 C :   -0.064676
   3 C :   -0.057814
   4 C :   -0.184105
   5 H :    0.016904
   6 C :   -0.028468
   7 H :    0.041044
   8 H :    0.021291
   9 C :   -0.035561
  10 H :    0.032663
  11 H :    0.024741
  12 C :   -0.067310
  13 H :    0.014628
  14 H :    0.026520
  15 H :    0.030356
  16 S :    0.365462
  17 C :   -0.159821
  18 C :   -0.060946
  19 C :   -0.045446
  20 C :   -0.192255
  21 H :    0.020676
  22 C :   -0.037215
  23 H :    0.022682
  24 H :    0.034190
  25 C :   -0.042041
  26 H :    0.029826
  27 H :    0.034711
  28 C :   -0.064727
  29 H :    0.024264
  30 H :    0.029042
  31 H :    0.013388
  32 H :    0.023472
  33 H :    0.027073

  Mayer bond orders larger than 0.100000
B(  0-S ,  1-C ) :   1.1317 B(  0-S ,  4-C ) :   1.1330 B(  1-C ,  2-C ) :   1.6410
B(  1-C , 32-H ) :   0.9643 B(  2-C ,  3-C ) :   1.2065 B(  2-C ,  6-C ) :   1.0250
B(  3-C ,  4-C ) :   1.5999 B(  3-C ,  5-H ) :   1.0047 B(  4-C , 20-C ) :   1.0769
B(  6-C ,  7-H ) :   0.9422 B(  6-C ,  8-H ) :   0.9253 B(  6-C ,  9-C ) :   1.0692
B(  9-C , 10-H ) :   0.9535 B(  9-C , 11-H ) :   0.9536 B(  9-C , 12-C ) :   1.0927
B( 12-C , 13-H ) :   0.9726 B( 12-C , 14-H ) :   0.9743 B( 12-C , 15-H ) :   0.9695
B( 16-S , 17-C ) :   1.1257 B( 16-S , 20-C ) :   1.1181 B( 17-C , 18-C ) :   1.6320
B( 17-C , 33-H ) :   0.9677 B( 18-C , 19-C ) :   1.2328 B( 18-C , 21-H ) :   0.9959
B( 19-C , 20-C ) :   1.5768 B( 19-C , 22-C ) :   1.0350 B( 22-C , 23-H ) :   0.9318
B( 22-C , 24-H ) :   0.9371 B( 22-C , 25-C ) :   1.0690 B( 25-C , 26-H ) :   0.9521
B( 25-C , 27-H ) :   0.9585 B( 25-C , 28-C ) :   1.0795 B( 28-C , 29-H ) :   0.9744
B( 28-C , 30-H ) :   0.9744 B( 28-C , 31-H ) :   0.9745

Dispersion correction           -0.014274550
FINAL SINGLE POINT ENERGY     -1339.870434672589

DIPOLE MOMENT
-------------
                                X             Y             Z
Electronic contribution:      7.80449     -16.47904      -8.73757
Nuclear contribution   :     -7.96068      17.07828       8.71912
                        -----------------------------------------
Total Dipole Moment    :     -0.15619       0.59924      -0.01845
                        -----------------------------------------
Magnitude (a.u.)       :      0.61954
Magnitude (Debye)      :      1.57474

Rotational constants in cm-1:     0.022665     0.007642     0.006481
Rotational constants in MHz :   679.481005   229.099636   194.296738

                             ****ORCA TERMINATED NORMALLY****
TOTAL RUN TIME: 0 days 0 hours 0 minutes 34 seconds 688 msec
