                         Program Version 4.2.1 -  RELEASE  -
|  1> ! wB97X-D3 SP def2-SVP
|  2> %pal
|  3> nprocs 16
|  4> end
|  5>
|  6> * xyz 0 1
|  7> S 	 -48.4383 	 51.3891 	 104.22
|  8> C 	 -48.0494 	 51.8305 	 105.885
|  9> C 	 -47.7548 	 50.7568 	 106.661
| 10> C 	 -48.3223 	 49.5921 	 106.03
| 11> C 	 -48.8021 	 49.7813 	 104.766
| 12> H 	 -48.3151 	 48.5696 	 106.402
| 13> C 	 -47.0638 	 50.8115 	 108
| 14> H 	 -47.1978 	 51.7407 	 108.464
| 15> H 	 -45.9488 	 50.7993 	 107.87
| 16> C 	 -47.5663 	 49.6916 	 108.947
| 17> H 	 -48.6259 	 49.6811 	 108.781
| 18> H 	 -47.1907 	 48.7604 	 108.547
| 19> C 	 -47.1504 	 49.9054 	 110.407
| 20> H 	 -46.111 	 50.2372 	 110.558
| 21> H 	 -47.9992 	 50.445 	 110.868
| 22> H 	 -47.1522 	 48.9054 	 110.853
| 23> S 	 -50.8187 	 49.1312 	 103.109
| 24> C 	 -50.7898 	 47.7613 	 102.133
| 25> C 	 -49.8601 	 46.8913 	 102.616
| 26> C 	 -48.987 	 47.4401 	 103.65
| 27> C 	 -49.3285 	 48.797 	 103.861
| 28> H 	 -49.8113 	 45.9145 	 102.182
| 29> C 	 -47.8659 	 46.5737 	 104.323
| 30> H 	 -47.0072 	 47.2106 	 104.479
| 31> H 	 -47.6094 	 45.7977 	 103.682
| 32> C 	 -48.3481 	 45.8998 	 105.633
| 33> H 	 -49.0172 	 45.0623 	 105.429
| 34> H 	 -48.915 	 46.6195 	 106.177
| 35> C 	 -47.06 	 45.4005 	 106.436
| 36> H 	 -47.1467 	 44.6476 	 107.161
| 37> H 	 -46.5878 	 46.2414 	 106.897
| 38> H 	 -46.3766 	 44.9615 	 105.715
| 39> H 	 -47.8237 	 52.8271 	 106.253
| 40> H 	 -51.4177 	 47.4844 	 101.34
| 41> *
| 42>
| 43>                          ****END OF INPUT****

CARTESIAN COORDINATES (ANGSTROEM)
---------------------------------
  S    -48.438300   51.389100  104.220000
  C    -48.049400   51.830500  105.885000
  C    -47.754800   50.756800  106.661000
  C    -48.322300   49.592100  106.030000
  C    -48.802100   49.781300  104.766000
  H    -48.315100   48.569600  106.402000
  C    -47.063800   50.811500  108.000000
  H    -47.197800   51.740700  108.464000
  H    -45.948800   50.799300  107.870000
  C    -47.566300   49.691600  108.947000
  H    -48.625900   49.681100  108.781000
  H    -47.190700   48.760400  108.547000
  C    -47.150400   49.905400  110.407000
  H    -46.111000   50.237200  110.558000
  H    -47.999200   50.445000  110.868000
  H    -47.152200   48.905400  110.853000
  S    -50.818700   49.131200  103.109000
  C    -50.789800   47.761300  102.133000
  C    -49.860100   46.891300  102.616000
  C    -48.987000   47.440100  103.650000
  C    -49.328500   48.797000  103.861000
  H    -49.811300   45.914500  102.182000
  C    -47.865900   46.573700  104.323000
  H    -47.007200   47.210600  104.479000
  H    -47.609400   45.797700  103.682000
  C    -48.348100   45.899800  105.633000
  H    -49.017200   45.062300  105.429000
  H    -48.915000   46.619500  106.177000
  C    -47.060000   45.400500  106.436000
  H    -47.146700   44.647600  107.161000
  H    -46.587800   46.241400  106.897000
  H    -46.376600   44.961500  105.715000
  H    -47.823700   52.827100  106.253000
  H    -51.417700   47.484400  101.340000

 Total Charge           Charge          ....    0
 Multiplicity           Mult            ....    1
 Number of Electrons    NEL             ....  134
 Basis Dimension        Dim             ....  322

ORBITAL ENERGIES
----------------

  NO   OCC          E(Eh)            E(eV)
   0   2.0000     -88.962364     -2420.7890
   1   2.0000     -88.960600     -2420.7410
   2   2.0000     -10.321712      -280.8681
   3   2.0000     -10.321477      -280.8617
   4   2.0000     -10.309379      -280.5325
   5   2.0000     -10.308905      -280.5196
   6   2.0000     -10.304581      -280.4019
   7   2.0000     -10.298812      -280.2449
   8   2.0000     -10.292011      -280.0598
   9   2.0000     -10.291477      -280.0453
  10   2.0000     -10.291448      -280.0445
  11   2.0000     -10.291403      -280.0433
  12   2.0000     -10.288394      -279.9614
  13   2.0000     -10.284552      -279.8569
  14   2.0000     -10.284391      -279.8525
  15   2.0000     -10.277511      -279.6653
  16   2.0000      -8.077527      -219.8007
  17   2.0000      -8.077341      -219.7956
  18   2.0000      -6.035868      -164.2443
  19   2.0000      -6.035831      -164.2433
  20   2.0000      -6.032183      -164.1440
  21   2.0000      -6.031686      -164.1305
  22   2.0000      -6.028355      -164.0399
  23   2.0000      -6.027717      -164.0225
  24   2.0000      -1.014520       -27.6065
  25   2.0000      -0.990658       -26.9572
  26   2.0000      -0.914798       -24.8929
  27   2.0000      -0.906104       -24.6563
  28   2.0000      -0.874583       -23.7986
  29   2.0000      -0.846370       -23.0309
  30   2.0000      -0.841948       -22.9106
  31   2.0000      -0.817106       -22.2346
  32   2.0000      -0.785305       -21.3692
  33   2.0000      -0.775684       -21.1074
  34   2.0000      -0.715906       -19.4808
  35   2.0000      -0.706840       -19.2341
  36   2.0000      -0.688336       -18.7306
  37   2.0000      -0.661910       -18.0115
  38   2.0000      -0.640513       -17.4292
  39   2.0000      -0.618945       -16.8424
  40   2.0000      -0.595114       -16.1939
  41   2.0000      -0.575061       -15.6482
  42   2.0000      -0.570608       -15.5270
  43   2.0000      -0.567343       -15.4382
  44   2.0000      -0.525583       -14.3018
  45   2.0000      -0.519252       -14.1296
  46   2.0000      -0.516359       -14.0508
  47   2.0000      -0.513592       -13.9756
  48   2.0000      -0.506989       -13.7959
  49   2.0000      -0.504068       -13.7164
  50   2.0000      -0.493408       -13.4263
  51   2.0000      -0.480157       -13.0657
  52   2.0000      -0.474012       -12.8985
  53   2.0000      -0.470952       -12.8153
  54   2.0000      -0.456255       -12.4153
  55   2.0000      -0.454167       -12.3585
  56   2.0000      -0.448548       -12.2056
  57   2.0000      -0.438894       -11.9429
  58   2.0000      -0.432213       -11.7611
  59   2.0000      -0.428699       -11.6655
  60   2.0000      -0.426826       -11.6145
  61   2.0000      -0.418449       -11.3866
  62   2.0000      -0.414136       -11.2692
  63   2.0000      -0.342774        -9.3273
  64   2.0000      -0.329334        -8.9616
  65   2.0000      -0.321180        -8.7397
  66   2.0000      -0.294669        -8.0184
  67   0.0000       0.026730         0.7274
  68   0.0000       0.079577         2.1654
  69   0.0000       0.104736         2.8500
  70   0.0000       0.119632         3.2554
  71   0.0000       0.127818         3.4781

MULLIKEN ATOMIC CHARGES
-----------------------
   0 S :    0.116235
   1 C :   -0.115105
   2 C :   -0.087903
   3 C :    0.010273
   4 C :   -0.127419
   5 H :   -0.023395
   6 C :    0.090073
   7 H :    0.000223
   8 H :    0.043427
   9 C :   -0.125199
  10 H :    0.034677
  11 H :    0.031502
  12 C :   -0.018788
  13 H :    0.043450
  14 H :    0.049301
  15 H :    0.025466
  16 S :    0.127616
  17 C :   -0.054161
  18 C :   -0.053395
  19 C :   -0.046970
  20 C :   -0.174727
  21 H :    0.006707
  22 C :    0.098352
  23 H :    0.034563
  24 H :    0.005867
  25 C :   -0.074831
  26 H :    0.030842
  27 H :    0.032455
  28 C :   -0.026326
  29 H :    0.023182
  30 H :    0.029065
  31 H :    0.023266
  32 H :    0.036633
  33 H :    0.035045
Sum of atomic charges:    0.0000000

LOEWDIN ATOMIC CHARGES
----------------------
   0 S :    0.399282
   1 C :   -0.184770
   2 C :   -0.060432
   3 C :   -0.065293
   4 C :   -0.201144
   5 H :    0.026892
   6 C :   -0.030258
   7 H :    0.020336
   8 H :    0.038855
   9 C :   -0.041255
  10 H :    0.024757
  11 H :    0.017881
  12 C :   -0.070272
  13 H :    0.031009
  14 H :    0.036175
  15 H :    0.029575
  16 S :    0.456101
  17 C :   -0.203030
  18 C :   -0.074244
  19 C :   -0.047187
  20 C :   -0.223942
  21 H :    0.024910
  22 C :   -0.019714
  23 H :    0.030740
  24 H :    0.020771
  25 C :   -0.029057
  26 H :    0.025617
  27 H :    0.012786
  28 C :   -0.059550
  29 H :    0.017566
  30 H :    0.021508
  31 H :    0.026074
  32 H :    0.024943
  33 H :    0.024371

  Mayer bond orders larger than 0.100000
B(  0-S ,  1-C ) :   1.1273 B(  0-S ,  4-C ) :   1.1411 B(  1-C ,  2-C ) :   1.6440
B(  1-C , 32-H ) :   0.9657 B(  2-C ,  3-C ) :   1.2024 B(  2-C ,  6-C ) :   1.0279
B(  3-C ,  4-C ) :   1.5969 B(  3-C ,  5-H ) :   0.9964 B(  4-C , 20-C ) :   1.0461
B(  6-C ,  7-H ) :   0.9380 B(  6-C ,  8-H ) :   0.9217 B(  6-C ,  9-C ) :   1.0687
B(  9-C , 10-H ) :   0.9637 B(  9-C , 11-H ) :   0.9493 B(  9-C , 12-C ) :   1.0765
B( 12-C , 13-H ) :   0.9723 B( 12-C , 14-H ) :   0.9740 B( 12-C , 15-H ) :   0.9725
B( 16-S , 17-C ) :   1.1641 B( 16-S , 20-C ) :   1.1789 B( 17-C , 18-C ) :   1.5935
B( 17-C , 33-H ) :   0.9756 B( 18-C , 19-C ) :   1.2541 B( 18-C , 21-H ) :   0.9925
B( 19-C , 20-C ) :   1.5423 B( 19-C , 22-C ) :   1.0421 B( 22-C , 23-H ) :   0.9440
B( 22-C , 24-H ) :   0.9271 B( 22-C , 25-C ) :   1.0532 B( 25-C , 26-H ) :   0.9529
B( 25-C , 27-H ) :   0.9628 B( 25-C , 28-C ) :   1.0615 B( 28-C , 29-H ) :   0.9777
B( 28-C , 30-H ) :   0.9785 B( 28-C , 31-H ) :   0.9728

Dispersion correction           -0.014534608
FINAL SINGLE POINT ENERGY     -1339.858499833325

DIPOLE MOMENT
-------------
                                X             Y             Z
Electronic contribution:    -13.99688      15.03454     -25.35851
Nuclear contribution   :     14.36743     -15.58383      25.84275
                        -----------------------------------------
Total Dipole Moment    :      0.37055      -0.54929       0.48424
                        -----------------------------------------
Magnitude (a.u.)       :      0.82068
Magnitude (Debye)      :      2.08600

Rotational constants in cm-1:     0.017530     0.009647     0.006778
Rotational constants in MHz :   525.523486   289.209361   203.195951

                             ****ORCA TERMINATED NORMALLY****
TOTAL RUN TIME: 0 days 0 hours 0 minutes 31 seconds 379 msec
