                         Program Version 4.2.1 -  RELEASE  -
|  1> ! wB97X-D3 SP def2-SVP
|  2> %pal
|  3> nprocs 16
|  4> end
|  5>
|  6> * xyz 0 1
|  7> S 	 -99.8087 	 56.4256 	 116.017
|  8> C 	 -99.233 	 54.9082 	 115.332
|  9> C 	 -100.192 	 54.3793 	 114.475
| 10> C 	 -101.394 	 55.1364 	 114.52
| 11> C 	 -101.385 	 56.2249 	 115.329
| 12> H 	 -102.287 	 54.8764 	 113.982
| 13> C 	 -100.007 	 53.0781 	 113.721
| 14> H 	 -98.9339 	 53.0173 	 113.505
| 15> H 	 -100.445 	 53.1533 	 112.685
| 16> C 	 -100.433 	 51.8209 	 114.414
| 17> H 	 -99.8642 	 50.9863 	 114.098
| 18> H 	 -100.196 	 51.848 	 115.403
| 19> C 	 -101.867 	 51.5068 	 114.137
| 20> H 	 -102.439 	 52.4289 	 114.394
| 21> H 	 -101.778 	 51.2341 	 113.099
| 22> H 	 -102.234 	 50.7221 	 114.771
| 23> S 	 -102.05 	 58.6911 	 116.412
| 24> C 	 -103.699 	 59.2274 	 116.514
| 25> C 	 -104.467 	 58.3566 	 115.842
| 26> C 	 -103.826 	 57.1633 	 115.351
| 27> C 	 -102.454 	 57.202 	 115.544
| 28> H 	 -105.521 	 58.5686 	 115.767
| 29> C 	 -104.671 	 55.9486 	 115.135
| 30> H 	 -105.432 	 55.9757 	 115.868
| 31> H 	 -104.087 	 55.035 	 115.269
| 32> C 	 -105.336 	 55.9063 	 113.682
| 33> H 	 -106.004 	 56.8184 	 113.682
| 34> H 	 -106.163 	 55.1817 	 113.587
| 35> C 	 -104.306 	 55.9678 	 112.521
| 36> H 	 -103.924 	 54.9955 	 112.577
| 37> H 	 -103.473 	 56.617 	 112.594
| 38> H 	 -104.645 	 56.0301 	 111.487
| 39> H 	 -98.2176 	 54.5383 	 115.497
| 40> H 	 -104.059 	 60.0613 	 117.015
| 41> *
| 42>
| 43>                          ****END OF INPUT****

CARTESIAN COORDINATES (ANGSTROEM)
---------------------------------
  S    -99.808700   56.425600  116.017000
  C    -99.233000   54.908200  115.332000
  C    -100.192000   54.379300  114.475000
  C    -101.394000   55.136400  114.520000
  C    -101.385000   56.224900  115.329000
  H    -102.287000   54.876400  113.982000
  C    -100.007000   53.078100  113.721000
  H    -98.933900   53.017300  113.505000
  H    -100.445000   53.153300  112.685000
  C    -100.433000   51.820900  114.414000
  H    -99.864200   50.986300  114.098000
  H    -100.196000   51.848000  115.403000
  C    -101.867000   51.506800  114.137000
  H    -102.439000   52.428900  114.394000
  H    -101.778000   51.234100  113.099000
  H    -102.234000   50.722100  114.771000
  S    -102.050000   58.691100  116.412000
  C    -103.699000   59.227400  116.514000
  C    -104.467000   58.356600  115.842000
  C    -103.826000   57.163300  115.351000
  C    -102.454000   57.202000  115.544000
  H    -105.521000   58.568600  115.767000
  C    -104.671000   55.948600  115.135000
  H    -105.432000   55.975700  115.868000
  H    -104.087000   55.035000  115.269000
  C    -105.336000   55.906300  113.682000
  H    -106.004000   56.818400  113.682000
  H    -106.163000   55.181700  113.587000
  C    -104.306000   55.967800  112.521000
  H    -103.924000   54.995500  112.577000
  H    -103.473000   56.617000  112.594000
  H    -104.645000   56.030100  111.487000
  H    -98.217600   54.538300  115.497000
  H    -104.059000   60.061300  117.015000

 Total Charge           Charge          ....    0
 Multiplicity           Mult            ....    1
 Number of Electrons    NEL             ....  134
 Basis Dimension        Dim             ....  322

ORBITAL ENERGIES
----------------

  NO   OCC          E(Eh)            E(eV)
   0   2.0000     -88.965978     -2420.8873
   1   2.0000     -88.961651     -2420.7696
   2   2.0000     -10.332807      -281.1700
   3   2.0000     -10.329275      -281.0739
   4   2.0000     -10.317967      -280.7662
   5   2.0000     -10.310695      -280.5683
   6   2.0000     -10.303043      -280.3600
   7   2.0000     -10.302959      -280.3578
   8   2.0000     -10.298439      -280.2348
   9   2.0000     -10.294773      -280.1350
  10   2.0000     -10.292794      -280.0812
  11   2.0000     -10.289237      -279.9844
  12   2.0000     -10.288873      -279.9745
  13   2.0000     -10.273950      -279.5684
  14   2.0000     -10.272625      -279.5324
  15   2.0000     -10.267578      -279.3950
  16   2.0000      -8.080888      -219.8921
  17   2.0000      -8.076644      -219.7767
  18   2.0000      -6.039454      -164.3419
  19   2.0000      -6.035365      -164.2306
  20   2.0000      -6.035337      -164.2299
  21   2.0000      -6.031585      -164.1278
  22   2.0000      -6.031122      -164.1152
  23   2.0000      -6.027193      -164.0082
  24   2.0000      -1.011767       -27.5316
  25   2.0000      -0.989388       -26.9226
  26   2.0000      -0.924183       -25.1483
  27   2.0000      -0.906409       -24.6647
  28   2.0000      -0.876213       -23.8430
  29   2.0000      -0.851884       -23.1810
  30   2.0000      -0.844404       -22.9774
  31   2.0000      -0.822952       -22.3937
  32   2.0000      -0.784883       -21.3577
  33   2.0000      -0.776370       -21.1261
  34   2.0000      -0.711774       -19.3684
  35   2.0000      -0.705469       -19.1968
  36   2.0000      -0.700432       -19.0597
  37   2.0000      -0.663472       -18.0540
  38   2.0000      -0.642387       -17.4802
  39   2.0000      -0.624838       -17.0027
  40   2.0000      -0.598843       -16.2953
  41   2.0000      -0.583525       -15.8785
  42   2.0000      -0.561005       -15.2657
  43   2.0000      -0.556160       -15.1339
  44   2.0000      -0.547113       -14.8877
  45   2.0000      -0.538001       -14.6398
  46   2.0000      -0.518540       -14.1102
  47   2.0000      -0.511751       -13.9254
  48   2.0000      -0.508165       -13.8279
  49   2.0000      -0.504609       -13.7311
  50   2.0000      -0.489794       -13.3280
  51   2.0000      -0.480071       -13.0634
  52   2.0000      -0.476777       -12.9738
  53   2.0000      -0.465909       -12.6780
  54   2.0000      -0.461460       -12.5570
  55   2.0000      -0.452492       -12.3129
  56   2.0000      -0.444158       -12.0862
  57   2.0000      -0.441164       -12.0047
  58   2.0000      -0.438110       -11.9216
  59   2.0000      -0.424093       -11.5402
  60   2.0000      -0.417388       -11.3577
  61   2.0000      -0.408308       -11.1106
  62   2.0000      -0.402523       -10.9532
  63   2.0000      -0.365621        -9.9491
  64   2.0000      -0.335858        -9.1392
  65   2.0000      -0.324463        -8.8291
  66   2.0000      -0.286985        -7.8093
  67   0.0000       0.019780         0.5382
  68   0.0000       0.089121         2.4251
  69   0.0000       0.100206         2.7267
  70   0.0000       0.116233         3.1629
  71   0.0000       0.130862         3.5609

MULLIKEN ATOMIC CHARGES
-----------------------
   0 S :    0.099652
   1 C :   -0.132183
   2 C :   -0.069221
   3 C :    0.005596
   4 C :   -0.079650
   5 H :   -0.048821
   6 C :    0.026785
   7 H :    0.017336
   8 H :    0.029849
   9 C :    0.015013
  10 H :    0.006547
  11 H :   -0.007896
  12 C :   -0.038728
  13 H :    0.033491
  14 H :    0.032411
  15 H :    0.030068
  16 S :    0.074566
  17 C :   -0.046971
  18 C :   -0.033524
  19 C :   -0.056703
  20 C :   -0.106942
  21 H :    0.015511
  22 C :    0.054181
  23 H :    0.025713
  24 H :    0.031678
  25 C :   -0.100665
  26 H :    0.017257
  27 H :    0.032563
  28 C :   -0.018079
  29 H :    0.026411
  30 H :    0.042784
  31 H :    0.033156
  32 H :    0.056286
  33 H :    0.032528
Sum of atomic charges:   -0.0000000

LOEWDIN ATOMIC CHARGES
----------------------
   0 S :    0.405678
   1 C :   -0.189778
   2 C :   -0.060044
   3 C :   -0.071834
   4 C :   -0.190205
   5 H :    0.021586
   6 C :   -0.033925
   7 H :    0.032412
   8 H :    0.035203
   9 C :   -0.037593
  10 H :    0.020193
  11 H :    0.009962
  12 C :   -0.056701
  13 H :    0.027773
  14 H :    0.027175
  15 H :    0.022839
  16 S :    0.386446
  17 C :   -0.171303
  18 C :   -0.067537
  19 C :   -0.064154
  20 C :   -0.177309
  21 H :    0.028867
  22 C :   -0.020192
  23 H :    0.029032
  24 H :    0.027156
  25 C :   -0.042734
  26 H :    0.019567
  27 H :    0.025942
  28 C :   -0.066779
  29 H :    0.018930
  30 H :    0.025896
  31 H :    0.031895
  32 H :    0.031512
  33 H :    0.022025

  Mayer bond orders larger than 0.100000
B(  0-S ,  1-C ) :   1.1399 B(  0-S ,  4-C ) :   1.1444 B(  1-C ,  2-C ) :   1.5898
B(  1-C , 32-H ) :   0.9705 B(  2-C ,  3-C ) :   1.2511 B(  2-C ,  6-C ) :   1.0386
B(  3-C ,  4-C ) :   1.5598 B(  3-C ,  5-H ) :   0.9913 B(  4-C , 20-C ) :   1.0742
B(  6-C ,  7-H ) :   0.9309 B(  6-C ,  8-H ) :   0.9393 B(  6-C ,  9-C ) :   1.0691
B(  9-C , 10-H ) :   0.9497 B(  9-C , 11-H ) :   0.9424 B(  9-C , 12-C ) :   1.0754
B( 12-C , 13-H ) :   0.9756 B( 12-C , 14-H ) :   0.9804 B( 12-C , 15-H ) :   0.9707
B( 16-S , 17-C ) :   1.1319 B( 16-S , 20-C ) :   1.1251 B( 17-C , 18-C ) :   1.6472
B( 17-C , 33-H ) :   0.9777 B( 18-C , 19-C ) :   1.2207 B( 18-C , 21-H ) :   0.9865
B( 19-C , 20-C ) :   1.5973 B( 19-C , 22-C ) :   1.0363 B( 22-C , 23-H ) :   0.9415
B( 22-C , 24-H ) :   0.9445 B( 22-C , 25-C ) :   1.0566 B( 25-C , 26-H ) :   0.9594
B( 25-C , 27-H ) :   0.9618 B( 25-C , 28-C ) :   1.0537 B( 28-C , 29-H ) :   0.9623
B( 28-C , 30-H ) :   0.9748 B( 28-C , 31-H ) :   0.9693

Dispersion correction           -0.015259359
FINAL SINGLE POINT ENERGY     -1339.862531434728

DIPOLE MOMENT
-------------
                                X             Y             Z
Electronic contribution:     11.97280      23.02230      15.12611
Nuclear contribution   :    -12.34897     -23.56976     -15.30513
                        -----------------------------------------
Total Dipole Moment    :     -0.37618      -0.54747      -0.17901
                        -----------------------------------------
Magnitude (a.u.)       :      0.68795
Magnitude (Debye)      :      1.74863

Rotational constants in cm-1:     0.019162     0.010038     0.007101
Rotational constants in MHz :   574.464555   300.924816   212.897257

                             ****ORCA TERMINATED NORMALLY****
TOTAL RUN TIME: 0 days 0 hours 0 minutes 35 seconds 489 msec
