                         Program Version 4.2.1 -  RELEASE  -
|  1> ! wB97X-D3 SP def2-SVP
|  2> %pal
|  3> nprocs 16
|  4> end
|  5>
|  6> * xyz 0 1
|  7> S 	 32.5502 	 26.8329 	 52.5187
|  8> C 	 31.0057 	 27.0814 	 51.6276
|  9> C 	 29.9863 	 26.3268 	 52.2501
| 10> C 	 30.4093 	 25.6982 	 53.4128
| 11> C 	 31.7443 	 25.8704 	 53.7512
| 12> H 	 29.7294 	 25.059 	 54.0559
| 13> C 	 28.4949 	 26.276 	 51.8769
| 14> H 	 27.964 	 25.5157 	 52.4899
| 15> H 	 28.3502 	 25.8951 	 50.8542
| 16> C 	 27.6765 	 27.5041 	 52.1327
| 17> H 	 27.8988 	 27.5606 	 53.2342
| 18> H 	 28.1838 	 28.411 	 51.6943
| 19> C 	 26.1738 	 27.3038 	 51.8388
| 20> H 	 25.7631 	 26.4421 	 52.3343
| 21> H 	 25.6602 	 28.2302 	 52.0625
| 22> H 	 26.0995 	 27.3242 	 50.6887
| 23> S 	 33.6455 	 26.5477 	 55.7301
| 24> C 	 34.0636 	 25.3371 	 56.9649
| 25> C 	 33.4268 	 24.1137 	 56.6706
| 26> C 	 32.4281 	 24.2262 	 55.6455
| 27> C 	 32.5015 	 25.4158 	 54.9281
| 28> H 	 33.7185 	 23.2355 	 57.2182
| 29> C 	 31.479 	 23.0953 	 55.2661
| 30> H 	 31.6583 	 22.8438 	 54.196
| 31> H 	 30.4747 	 23.5147 	 55.1341
| 32> C 	 31.5239 	 21.8097 	 56.0791
| 33> H 	 31.3081 	 21.8363 	 57.1514
| 34> H 	 32.5939 	 21.4875 	 55.9127
| 35> C 	 30.6423 	 20.6583 	 55.4921
| 36> H 	 31.2062 	 20.3592 	 54.6199
| 37> H 	 29.5785 	 20.875 	 55.113
| 38> H 	 30.5119 	 19.8286 	 56.1514
| 39> H 	 30.8026 	 27.6957 	 50.8325
| 40> H 	 34.9297 	 25.4903 	 57.7482
| 41> *
| 42>
| 43>                          ****END OF INPUT****

CARTESIAN COORDINATES (ANGSTROEM)
---------------------------------
  S     32.550200   26.832900   52.518700
  C     31.005700   27.081400   51.627600
  C     29.986300   26.326800   52.250100
  C     30.409300   25.698200   53.412800
  C     31.744300   25.870400   53.751200
  H     29.729400   25.059000   54.055900
  C     28.494900   26.276000   51.876900
  H     27.964000   25.515700   52.489900
  H     28.350200   25.895100   50.854200
  C     27.676500   27.504100   52.132700
  H     27.898800   27.560600   53.234200
  H     28.183800   28.411000   51.694300
  C     26.173800   27.303800   51.838800
  H     25.763100   26.442100   52.334300
  H     25.660200   28.230200   52.062500
  H     26.099500   27.324200   50.688700
  S     33.645500   26.547700   55.730100
  C     34.063600   25.337100   56.964900
  C     33.426800   24.113700   56.670600
  C     32.428100   24.226200   55.645500
  C     32.501500   25.415800   54.928100
  H     33.718500   23.235500   57.218200
  C     31.479000   23.095300   55.266100
  H     31.658300   22.843800   54.196000
  H     30.474700   23.514700   55.134100
  C     31.523900   21.809700   56.079100
  H     31.308100   21.836300   57.151400
  H     32.593900   21.487500   55.912700
  C     30.642300   20.658300   55.492100
  H     31.206200   20.359200   54.619900
  H     29.578500   20.875000   55.113000
  H     30.511900   19.828600   56.151400
  H     30.802600   27.695700   50.832500
  H     34.929700   25.490300   57.748200

 Total Charge           Charge          ....    0
 Multiplicity           Mult            ....    1
 Number of Electrons    NEL             ....  134
 Basis Dimension        Dim             ....  322

ORBITAL ENERGIES
----------------

  NO   OCC          E(Eh)            E(eV)
   0   2.0000     -88.971977     -2421.0506
   1   2.0000     -88.967587     -2420.9311
   2   2.0000     -10.335456      -281.2421
   3   2.0000     -10.333318      -281.1839
   4   2.0000     -10.332725      -281.1677
   5   2.0000     -10.317230      -280.7461
   6   2.0000     -10.310157      -280.5536
   7   2.0000     -10.303910      -280.3836
   8   2.0000     -10.301244      -280.3111
   9   2.0000     -10.298151      -280.2269
  10   2.0000     -10.298045      -280.2240
  11   2.0000     -10.297214      -280.2014
  12   2.0000     -10.292641      -280.0770
  13   2.0000     -10.291196      -280.0377
  14   2.0000     -10.289234      -279.9843
  15   2.0000     -10.284690      -279.8606
  16   2.0000      -8.085331      -220.0130
  17   2.0000      -8.080945      -219.8937
  18   2.0000      -6.043952      -164.4643
  19   2.0000      -6.039922      -164.3546
  20   2.0000      -6.039597      -164.3458
  21   2.0000      -6.036155      -164.2521
  22   2.0000      -6.035618      -164.2375
  23   2.0000      -6.031643      -164.1294
  24   2.0000      -1.000891       -27.2356
  25   2.0000      -0.977763       -26.6063
  26   2.0000      -0.914775       -24.8923
  27   2.0000      -0.907906       -24.7054
  28   2.0000      -0.865858       -23.5612
  29   2.0000      -0.851817       -23.1791
  30   2.0000      -0.842222       -22.9180
  31   2.0000      -0.810569       -22.0567
  32   2.0000      -0.783867       -21.3301
  33   2.0000      -0.773309       -21.0428
  34   2.0000      -0.706010       -19.2115
  35   2.0000      -0.702658       -19.1203
  36   2.0000      -0.691567       -18.8185
  37   2.0000      -0.650163       -17.6918
  38   2.0000      -0.640193       -17.4205
  39   2.0000      -0.619846       -16.8669
  40   2.0000      -0.594593       -16.1797
  41   2.0000      -0.575956       -15.6725
  42   2.0000      -0.571451       -15.5500
  43   2.0000      -0.562806       -15.3147
  44   2.0000      -0.526751       -14.3336
  45   2.0000      -0.519252       -14.1296
  46   2.0000      -0.512938       -13.9577
  47   2.0000      -0.508693       -13.8422
  48   2.0000      -0.505482       -13.7549
  49   2.0000      -0.495461       -13.4822
  50   2.0000      -0.490793       -13.3552
  51   2.0000      -0.482507       -13.1297
  52   2.0000      -0.471350       -12.8261
  53   2.0000      -0.464437       -12.6380
  54   2.0000      -0.459648       -12.5077
  55   2.0000      -0.452432       -12.3113
  56   2.0000      -0.445942       -12.1347
  57   2.0000      -0.436024       -11.8648
  58   2.0000      -0.431153       -11.7323
  59   2.0000      -0.423645       -11.5280
  60   2.0000      -0.419942       -11.4272
  61   2.0000      -0.412722       -11.2307
  62   2.0000      -0.404647       -11.0110
  63   2.0000      -0.348015        -9.4700
  64   2.0000      -0.337830        -9.1928
  65   2.0000      -0.329535        -8.9671
  66   2.0000      -0.285498        -7.7688
  67   0.0000       0.016914         0.4602
  68   0.0000       0.066508         1.8098
  69   0.0000       0.101928         2.7736
  70   0.0000       0.120705         3.2846
  71   0.0000       0.131366         3.5746

MULLIKEN ATOMIC CHARGES
-----------------------
   0 S :    0.111874
   1 C :   -0.084978
   2 C :   -0.068149
   3 C :   -0.011519
   4 C :   -0.144211
   5 H :    0.033072
   6 C :    0.037709
   7 H :    0.009581
   8 H :    0.025486
   9 C :   -0.111375
  10 H :    0.028657
  11 H :    0.035593
  12 C :   -0.029356
  13 H :    0.045861
  14 H :    0.037621
  15 H :    0.039018
  16 S :    0.097523
  17 C :   -0.134101
  18 C :   -0.044377
  19 C :   -0.022549
  20 C :   -0.128592
  21 H :    0.026437
  22 C :    0.040647
  23 H :    0.037348
  24 H :    0.020921
  25 C :   -0.097242
  26 H :    0.046751
  27 H :    0.044191
  28 C :   -0.058029
  29 H :    0.029068
  30 H :    0.039966
  31 H :    0.032341
  32 H :    0.013334
  33 H :    0.101478
Sum of atomic charges:   -0.0000000

LOEWDIN ATOMIC CHARGES
----------------------
   0 S :    0.397563
   1 C :   -0.173082
   2 C :   -0.058271
   3 C :   -0.077166
   4 C :   -0.186049
   5 H :    0.038733
   6 C :   -0.039485
   7 H :    0.028007
   8 H :    0.023618
   9 C :   -0.053715
  10 H :    0.028393
  11 H :    0.025667
  12 C :   -0.064722
  13 H :    0.026470
  14 H :    0.029060
  15 H :    0.038009
  16 S :    0.377004
  17 C :   -0.195838
  18 C :   -0.073743
  19 C :   -0.049960
  20 C :   -0.189429
  21 H :    0.031476
  22 C :   -0.041339
  23 H :    0.042145
  24 H :    0.027502
  25 C :   -0.045209
  26 H :    0.024564
  27 H :    0.034165
  28 C :   -0.069785
  29 H :    0.024450
  30 H :    0.032076
  31 H :    0.021831
  32 H :    0.011235
  33 H :    0.055827

  Mayer bond orders larger than 0.100000
B(  0-S ,  1-C ) :   1.1348 B(  0-S ,  4-C ) :   1.1580 B(  1-C ,  2-C ) :   1.5738
B(  1-C ,  4-C ) :   0.1145 B(  1-C , 32-H ) :   0.9821 B(  2-C ,  3-C ) :   1.2977
B(  2-C ,  6-C ) :   1.0164 B(  3-C ,  4-C ) :   1.5402 B(  3-C ,  5-H ) :   0.9732
B(  4-C , 20-C ) :   1.0572 B(  6-C ,  7-H ) :   0.9473 B(  6-C ,  8-H ) :   0.9355
B(  6-C ,  9-C ) :   1.0477 B(  9-C , 10-H ) :   0.9543 B(  9-C , 11-H ) :   0.9574
B(  9-C , 12-C ) :   1.0739 B( 12-C , 13-H ) :   0.9723 B( 12-C , 14-H ) :   0.9724
B( 12-C , 15-H ) :   0.9720 B( 16-S , 17-C ) :   1.1531 B( 16-S , 20-C ) :   1.1249
B( 17-C , 18-C ) :   1.5986 B( 17-C , 20-C ) :   0.1069 B( 17-C , 33-H ) :   0.9493
B( 18-C , 19-C ) :   1.2446 B( 18-C , 21-H ) :   0.9863 B( 19-C , 20-C ) :   1.5915
B( 19-C , 22-C ) :   1.0346 B( 22-C , 23-H ) :   0.9291 B( 22-C , 24-H ) :   0.9244
B( 22-C , 25-C ) :   1.0653 B( 25-C , 26-H ) :   0.9604 B( 25-C , 27-H ) :   0.9517
B( 25-C , 28-C ) :   1.0677 B( 28-C , 29-H ) :   0.9784 B( 28-C , 30-H ) :   0.9774
B( 28-C , 31-H ) :   0.9763

Dispersion correction           -0.013316275
FINAL SINGLE POINT ENERGY     -1339.855734779716

DIPOLE MOMENT
-------------
                                X             Y             Z
Electronic contribution:     25.46894      14.78039       2.61754
Nuclear contribution   :    -25.96271     -15.26798      -2.54910
                        -----------------------------------------
Total Dipole Moment    :     -0.49377      -0.48759       0.06843
                        -----------------------------------------
Magnitude (a.u.)       :      0.69731
Magnitude (Debye)      :      1.77242

Rotational constants in cm-1:     0.016854     0.007969     0.006011
Rotational constants in MHz :   505.280004   238.891015   180.203130

                             ****ORCA TERMINATED NORMALLY****
TOTAL RUN TIME: 0 days 0 hours 0 minutes 33 seconds 793 msec
