                         Program Version 4.2.1 -  RELEASE  -
|  1> ! wB97X-D3 SP def2-SVP
|  2> %pal
|  3> nprocs 16
|  4> end
|  5>
|  6> * xyz 0 1
|  7> S 	 -41.1384 	 67.7636 	 144.407
|  8> C 	 -41.0308 	 66.8177 	 142.906
|  9> C 	 -39.8246 	 66.0667 	 142.954
| 10> C 	 -39.1109 	 66.1303 	 144.188
| 11> C 	 -39.7598 	 66.9248 	 145.123
| 12> H 	 -38.1758 	 65.5833 	 144.328
| 13> C 	 -39.3296 	 65.1329 	 141.767
| 14> H 	 -38.5273 	 65.5724 	 141.072
| 15> H 	 -40.2917 	 65.1346 	 141.251
| 16> C 	 -38.9847 	 63.6457 	 142.174
| 17> H 	 -39.8023 	 63.3409 	 142.842
| 18> H 	 -39.0305 	 63.1248 	 141.303
| 19> C 	 -37.569 	 63.5514 	 142.69
| 20> H 	 -37.0098 	 64.4659 	 142.551
| 21> H 	 -37.4958 	 63.2082 	 143.768
| 22> H 	 -37.0873 	 62.7403 	 142.098
| 23> S 	 -40.5309 	 67.5063 	 147.759
| 24> C 	 -39.4074 	 67.5593 	 149.056
| 25> C 	 -38.1526 	 67.2858 	 148.599
| 26> C 	 -38.1095 	 67.013 	 147.173
| 27> C 	 -39.3318 	 67.1072 	 146.532
| 28> H 	 -37.3604 	 67.3147 	 149.36
| 29> C 	 -36.7616 	 66.656 	 146.686
| 30> H 	 -36.9611 	 65.9397 	 145.89
| 31> H 	 -36.1604 	 66.1314 	 147.389
| 32> C 	 -36.064 	 67.8007 	 145.993
| 33> H 	 -35.7358 	 68.525 	 146.771
| 34> H 	 -36.79 	 68.2557 	 145.274
| 35> C 	 -34.9028 	 67.5193 	 145.01
| 36> H 	 -34.3835 	 68.4307 	 144.728
| 37> H 	 -35.2284 	 67.0297 	 144.096
| 38> H 	 -34.2505 	 66.7785 	 145.426
| 39> H 	 -41.5129 	 66.9742 	 141.93
| 40> H 	 -39.563 	 67.7794 	 150.09
| 41> *
| 42>
| 43>                          ****END OF INPUT****

CARTESIAN COORDINATES (ANGSTROEM)
---------------------------------
  S    -41.138400   67.763600  144.407000
  C    -41.030800   66.817700  142.906000
  C    -39.824600   66.066700  142.954000
  C    -39.110900   66.130300  144.188000
  C    -39.759800   66.924800  145.123000
  H    -38.175800   65.583300  144.328000
  C    -39.329600   65.132900  141.767000
  H    -38.527300   65.572400  141.072000
  H    -40.291700   65.134600  141.251000
  C    -38.984700   63.645700  142.174000
  H    -39.802300   63.340900  142.842000
  H    -39.030500   63.124800  141.303000
  C    -37.569000   63.551400  142.690000
  H    -37.009800   64.465900  142.551000
  H    -37.495800   63.208200  143.768000
  H    -37.087300   62.740300  142.098000
  S    -40.530900   67.506300  147.759000
  C    -39.407400   67.559300  149.056000
  C    -38.152600   67.285800  148.599000
  C    -38.109500   67.013000  147.173000
  C    -39.331800   67.107200  146.532000
  H    -37.360400   67.314700  149.360000
  C    -36.761600   66.656000  146.686000
  H    -36.961100   65.939700  145.890000
  H    -36.160400   66.131400  147.389000
  C    -36.064000   67.800700  145.993000
  H    -35.735800   68.525000  146.771000
  H    -36.790000   68.255700  145.274000
  C    -34.902800   67.519300  145.010000
  H    -34.383500   68.430700  144.728000
  H    -35.228400   67.029700  144.096000
  H    -34.250500   66.778500  145.426000
  H    -41.512900   66.974200  141.930000
  H    -39.563000   67.779400  150.090000

 Total Charge           Charge          ....    0
 Multiplicity           Mult            ....    1
 Number of Electrons    NEL             ....  134
 Basis Dimension        Dim             ....  322

ORBITAL ENERGIES
----------------

  NO   OCC          E(Eh)            E(eV)
   0   2.0000     -88.974154     -2421.1098
   1   2.0000     -88.963623     -2420.8232
   2   2.0000     -10.341508      -281.4067
   3   2.0000     -10.333793      -281.1968
   4   2.0000     -10.322067      -280.8777
   5   2.0000     -10.311601      -280.5929
   6   2.0000     -10.308918      -280.5199
   7   2.0000     -10.304363      -280.3960
   8   2.0000     -10.302491      -280.3450
   9   2.0000     -10.296286      -280.1762
  10   2.0000     -10.291304      -280.0406
  11   2.0000     -10.286682      -279.9149
  12   2.0000     -10.285330      -279.8781
  13   2.0000     -10.284438      -279.8538
  14   2.0000     -10.282809      -279.8095
  15   2.0000     -10.274885      -279.5938
  16   2.0000      -8.087487      -220.0717
  17   2.0000      -8.078759      -219.8342
  18   2.0000      -6.046187      -164.5251
  19   2.0000      -6.042195      -164.4165
  20   2.0000      -6.038087      -164.3047
  21   2.0000      -6.037458      -164.2876
  22   2.0000      -6.033021      -164.1668
  23   2.0000      -6.029478      -164.0704
  24   2.0000      -1.006501       -27.3883
  25   2.0000      -0.982907       -26.7463
  26   2.0000      -0.915208       -24.9041
  27   2.0000      -0.907662       -24.6987
  28   2.0000      -0.869879       -23.6706
  29   2.0000      -0.851056       -23.1584
  30   2.0000      -0.843128       -22.9427
  31   2.0000      -0.818816       -22.2811
  32   2.0000      -0.783053       -21.3080
  33   2.0000      -0.770913       -20.9776
  34   2.0000      -0.708879       -19.2896
  35   2.0000      -0.697954       -18.9923
  36   2.0000      -0.690499       -18.7894
  37   2.0000      -0.662487       -18.0272
  38   2.0000      -0.630717       -17.1627
  39   2.0000      -0.626336       -17.0435
  40   2.0000      -0.595317       -16.1994
  41   2.0000      -0.574793       -15.6409
  42   2.0000      -0.568183       -15.4610
  43   2.0000      -0.547338       -14.8938
  44   2.0000      -0.545411       -14.8414
  45   2.0000      -0.530126       -14.4254
  46   2.0000      -0.512197       -13.9376
  47   2.0000      -0.509792       -13.8722
  48   2.0000      -0.505235       -13.7482
  49   2.0000      -0.503512       -13.7012
  50   2.0000      -0.494967       -13.4687
  51   2.0000      -0.490303       -13.3418
  52   2.0000      -0.477123       -12.9832
  53   2.0000      -0.467954       -12.7337
  54   2.0000      -0.460125       -12.5206
  55   2.0000      -0.443740       -12.0748
  56   2.0000      -0.442059       -12.0290
  57   2.0000      -0.437718       -11.9109
  58   2.0000      -0.424305       -11.5459
  59   2.0000      -0.417173       -11.3519
  60   2.0000      -0.415779       -11.3139
  61   2.0000      -0.411717       -11.2034
  62   2.0000      -0.406369       -11.0579
  63   2.0000      -0.359732        -9.7888
  64   2.0000      -0.333415        -9.0727
  65   2.0000      -0.327014        -8.8985
  66   2.0000      -0.287913        -7.8345
  67   0.0000       0.019720         0.5366
  68   0.0000       0.080977         2.2035
  69   0.0000       0.102501         2.7892
  70   0.0000       0.115605         3.1458
  71   0.0000       0.134707         3.6656

MULLIKEN ATOMIC CHARGES
-----------------------
   0 S :    0.120528
   1 C :   -0.121165
   2 C :   -0.123589
   3 C :    0.007799
   4 C :   -0.100661
   5 H :    0.008266
   6 C :   -0.019207
   7 H :    0.061759
   8 H :    0.013476
   9 C :   -0.018444
  10 H :    0.045316
  11 H :    0.013040
  12 C :   -0.088684
  13 H :    0.042965
  14 H :    0.052814
  15 H :    0.037911
  16 S :    0.096625
  17 C :   -0.068635
  18 C :   -0.059241
  19 C :   -0.069040
  20 C :   -0.119241
  21 H :    0.024337
  22 C :    0.121540
  23 H :   -0.013995
  24 H :    0.018825
  25 C :   -0.108989
  26 H :    0.033336
  27 H :    0.043766
  28 C :   -0.022271
  29 H :    0.042710
  30 H :    0.018319
  31 H :    0.015305
  32 H :    0.067632
  33 H :    0.046894
Sum of atomic charges:    0.0000000

LOEWDIN ATOMIC CHARGES
----------------------
   0 S :    0.401249
   1 C :   -0.215269
   2 C :   -0.056245
   3 C :   -0.074477
   4 C :   -0.176120
   5 H :    0.032495
   6 C :   -0.038365
   7 H :    0.036788
   8 H :    0.026097
   9 C :   -0.035504
  10 H :    0.033750
  11 H :    0.013336
  12 C :   -0.077100
  13 H :    0.021532
  14 H :    0.034990
  15 H :    0.033651
  16 S :    0.410703
  17 C :   -0.190928
  18 C :   -0.077896
  19 C :   -0.051828
  20 C :   -0.194398
  21 H :    0.035600
  22 C :   -0.035088
  23 H :    0.026328
  24 H :    0.026119
  25 C :   -0.043125
  26 H :    0.025232
  27 H :    0.034672
  28 C :   -0.065575
  29 H :    0.030448
  30 H :    0.021688
  31 H :    0.016990
  32 H :    0.039160
  33 H :    0.031088

  Mayer bond orders larger than 0.100000
B(  0-S ,  1-C ) :   1.1189 B(  0-S ,  4-C ) :   1.1589 B(  1-C ,  2-C ) :   1.6136
B(  1-C ,  4-C ) :   0.1031 B(  1-C , 32-H ) :   0.9555 B(  2-C ,  3-C ) :   1.2761
B(  2-C ,  6-C ) :   1.0008 B(  3-C ,  4-C ) :   1.5381 B(  3-C ,  5-H ) :   0.9816
B(  4-C , 20-C ) :   1.0653 B(  6-C ,  7-H ) :   0.9437 B(  6-C ,  8-H ) :   0.9424
B(  6-C ,  9-C ) :   1.0787 B(  9-C , 10-H ) :   0.9571 B(  9-C , 11-H ) :   0.9607
B(  9-C , 12-C ) :   1.0587 B( 12-C , 13-H ) :   0.9753 B( 12-C , 14-H ) :   0.9721
B( 12-C , 15-H ) :   0.9737 B( 16-S , 17-C ) :   1.1592 B( 16-S , 20-C ) :   1.1227
B( 17-C , 18-C ) :   1.6246 B( 17-C , 33-H ) :   0.9663 B( 18-C , 19-C ) :   1.2321
B( 18-C , 21-H ) :   0.9901 B( 19-C , 20-C ) :   1.5922 B( 19-C , 22-C ) :   1.0505
B( 22-C , 23-H ) :   0.9214 B( 22-C , 24-H ) :   0.9259 B( 22-C , 25-C ) :   1.0656
B( 25-C , 26-H ) :   0.9552 B( 25-C , 27-H ) :   0.9587 B( 25-C , 28-C ) :   1.0788
B( 28-C , 29-H ) :   0.9732 B( 28-C , 30-H ) :   0.9737 B( 28-C , 31-H ) :   0.9730

Dispersion correction           -0.014676465
FINAL SINGLE POINT ENERGY     -1339.853966768110

DIPOLE MOMENT
-------------
                                X             Y             Z
Electronic contribution:    -24.35209      12.44801      13.74557
Nuclear contribution   :     25.01089     -12.80022     -13.97543
                        -----------------------------------------
Total Dipole Moment    :      0.65880      -0.35221      -0.22986
                        -----------------------------------------
Magnitude (a.u.)       :      0.78161
Magnitude (Debye)      :      1.98670

Rotational constants in cm-1:     0.016507     0.010084     0.007340
Rotational constants in MHz :   494.853725   302.315031   220.052989

                             ****ORCA TERMINATED NORMALLY****
TOTAL RUN TIME: 0 days 0 hours 0 minutes 33 seconds 645 msec
