                         Program Version 4.2.1 -  RELEASE  -
|  1> ! wB97X-D3 SP def2-SVP
|  2> %pal
|  3> nprocs 16
|  4> end
|  5>
|  6> * xyz 0 1
|  7> S 	 -15.8294 	 -6.82283 	 86.7642
|  8> C 	 -14.7015 	 -6.46495 	 85.5173
|  9> C 	 -13.7447 	 -5.54751 	 85.9322
| 10> C 	 -13.9459 	 -5.21166 	 87.3347
| 11> C 	 -15.0216 	 -5.8188 	 87.932
| 12> H 	 -13.309 	 -4.55195 	 87.9281
| 13> C 	 -12.6488 	 -4.91845 	 85.0014
| 14> H 	 -11.9676 	 -4.2965 	 85.6285
| 15> H 	 -13.2296 	 -4.16391 	 84.4484
| 16> C 	 -11.9449 	 -5.92901 	 83.9954
| 17> H 	 -11.7684 	 -6.96057 	 84.536
| 18> H 	 -12.7068 	 -6.05306 	 83.2117
| 19> C 	 -10.6797 	 -5.33519 	 83.4348
| 20> H 	 -10.8864 	 -4.57764 	 82.6822
| 21> H 	 -10.2257 	 -4.76903 	 84.2213
| 22> H 	 -9.90434 	 -6.03723 	 82.9906
| 23> S 	 -14.9899 	 -7.12021 	 90.2322
| 24> C 	 -15.2798 	 -6.28494 	 91.7035
| 25> C 	 -15.514 	 -4.92959 	 91.5585
| 26> C 	 -15.5078 	 -4.54498 	 90.1972
| 27> C 	 -15.3709 	 -5.70201 	 89.3295
| 28> H 	 -15.747 	 -4.29182 	 92.3702
| 29> C 	 -15.7493 	 -3.13168 	 89.8673
| 30> H 	 -14.9432 	 -2.72428 	 89.2141
| 31> H 	 -15.6035 	 -2.45929 	 90.7541
| 32> C 	 -17.1431 	 -2.9488 	 89.1501
| 33> H 	 -17.8991 	 -3.00773 	 89.8451
| 34> H 	 -17.3037 	 -3.86596 	 88.5178
| 35> C 	 -17.2551 	 -1.72369 	 88.2585
| 36> H 	 -16.5683 	 -1.79406 	 87.4231
| 37> H 	 -16.9357 	 -0.827559 	 88.777
| 38> H 	 -18.2499 	 -1.53083 	 87.9126
| 39> H 	 -14.6282 	 -6.81019 	 84.5658
| 40> H 	 -15.0918 	 -6.57553 	 92.6676
| 41> *
| 42>
| 43>                          ****END OF INPUT****

CARTESIAN COORDINATES (ANGSTROEM)
---------------------------------
  S    -15.829400   -6.822830   86.764200
  C    -14.701500   -6.464950   85.517300
  C    -13.744700   -5.547510   85.932200
  C    -13.945900   -5.211660   87.334700
  C    -15.021600   -5.818800   87.932000
  H    -13.309000   -4.551950   87.928100
  C    -12.648800   -4.918450   85.001400
  H    -11.967600   -4.296500   85.628500
  H    -13.229600   -4.163910   84.448400
  C    -11.944900   -5.929010   83.995400
  H    -11.768400   -6.960570   84.536000
  H    -12.706800   -6.053060   83.211700
  C    -10.679700   -5.335190   83.434800
  H    -10.886400   -4.577640   82.682200
  H    -10.225700   -4.769030   84.221300
  H     -9.904340   -6.037230   82.990600
  S    -14.989900   -7.120210   90.232200
  C    -15.279800   -6.284940   91.703500
  C    -15.514000   -4.929590   91.558500
  C    -15.507800   -4.544980   90.197200
  C    -15.370900   -5.702010   89.329500
  H    -15.747000   -4.291820   92.370200
  C    -15.749300   -3.131680   89.867300
  H    -14.943200   -2.724280   89.214100
  H    -15.603500   -2.459290   90.754100
  C    -17.143100   -2.948800   89.150100
  H    -17.899100   -3.007730   89.845100
  H    -17.303700   -3.865960   88.517800
  C    -17.255100   -1.723690   88.258500
  H    -16.568300   -1.794060   87.423100
  H    -16.935700   -0.827559   88.777000
  H    -18.249900   -1.530830   87.912600
  H    -14.628200   -6.810190   84.565800
  H    -15.091800   -6.575530   92.667600

 Total Charge           Charge          ....    0
 Multiplicity           Mult            ....    1
 Number of Electrons    NEL             ....  134
 Basis Dimension        Dim             ....  322

ORBITAL ENERGIES
----------------

  NO   OCC          E(Eh)            E(eV)
   0   2.0000     -88.970937     -2421.0223
   1   2.0000     -88.964930     -2420.8588
   2   2.0000     -10.325668      -280.9757
   3   2.0000     -10.323241      -280.9097
   4   2.0000     -10.306024      -280.4412
   5   2.0000     -10.305939      -280.4388
   6   2.0000     -10.304109      -280.3891
   7   2.0000     -10.303303      -280.3671
   8   2.0000     -10.303062      -280.3606
   9   2.0000     -10.302652      -280.3494
  10   2.0000     -10.295074      -280.1432
  11   2.0000     -10.291757      -280.0529
  12   2.0000     -10.286982      -279.9230
  13   2.0000     -10.281479      -279.7733
  14   2.0000     -10.280777      -279.7542
  15   2.0000     -10.270354      -279.4706
  16   2.0000      -8.086191      -220.0365
  17   2.0000      -8.080047      -219.8693
  18   2.0000      -6.044511      -164.4795
  19   2.0000      -6.040515      -164.3708
  20   2.0000      -6.038635      -164.3196
  21   2.0000      -6.037231      -164.2814
  22   2.0000      -6.034352      -164.2031
  23   2.0000      -6.030859      -164.1080
  24   2.0000      -1.009247       -27.4630
  25   2.0000      -0.985455       -26.8156
  26   2.0000      -0.908412       -24.7192
  27   2.0000      -0.904699       -24.6181
  28   2.0000      -0.873690       -23.7743
  29   2.0000      -0.853566       -23.2267
  30   2.0000      -0.845729       -23.0135
  31   2.0000      -0.814726       -22.1698
  32   2.0000      -0.779018       -21.1982
  33   2.0000      -0.766783       -20.8652
  34   2.0000      -0.712080       -19.3767
  35   2.0000      -0.702575       -19.1180
  36   2.0000      -0.692066       -18.8321
  37   2.0000      -0.664946       -18.0941
  38   2.0000      -0.640197       -17.4206
  39   2.0000      -0.611707       -16.6454
  40   2.0000      -0.595580       -16.2066
  41   2.0000      -0.570447       -15.5226
  42   2.0000      -0.562547       -15.3077
  43   2.0000      -0.555435       -15.1141
  44   2.0000      -0.524608       -14.2753
  45   2.0000      -0.522199       -14.2098
  46   2.0000      -0.513651       -13.9771
  47   2.0000      -0.510680       -13.8963
  48   2.0000      -0.505025       -13.7424
  49   2.0000      -0.500963       -13.6319
  50   2.0000      -0.491228       -13.3670
  51   2.0000      -0.486026       -13.2254
  52   2.0000      -0.470466       -12.8020
  53   2.0000      -0.464766       -12.6469
  54   2.0000      -0.456998       -12.4355
  55   2.0000      -0.451990       -12.2993
  56   2.0000      -0.441701       -12.0193
  57   2.0000      -0.436845       -11.8871
  58   2.0000      -0.430072       -11.7029
  59   2.0000      -0.428609       -11.6630
  60   2.0000      -0.422922       -11.5083
  61   2.0000      -0.416787       -11.3414
  62   2.0000      -0.411792       -11.2054
  63   2.0000      -0.345404        -9.3989
  64   2.0000      -0.327202        -8.9036
  65   2.0000      -0.322722        -8.7817
  66   2.0000      -0.293011        -7.9732
  67   0.0000       0.033296         0.9060
  68   0.0000       0.066091         1.7984
  69   0.0000       0.116825         3.1790
  70   0.0000       0.124935         3.3996
  71   0.0000       0.134858         3.6697

MULLIKEN ATOMIC CHARGES
-----------------------
   0 S :    0.123832
   1 C :   -0.069111
   2 C :   -0.110733
   3 C :    0.032338
   4 C :   -0.171024
   5 H :    0.010916
   6 C :    0.033728
   7 H :    0.024642
   8 H :    0.047059
   9 C :   -0.122152
  10 H :    0.065379
  11 H :    0.042417
  12 C :   -0.029331
  13 H :    0.025054
  14 H :    0.018807
  15 H :    0.052473
  16 S :    0.141227
  17 C :   -0.031804
  18 C :   -0.052939
  19 C :   -0.030611
  20 C :   -0.168655
  21 H :    0.008607
  22 C :    0.043945
  23 H :    0.022861
  24 H :    0.025451
  25 C :   -0.052927
  26 H :    0.006654
  27 H :    0.042241
  28 C :   -0.021498
  29 H :    0.030199
  30 H :    0.016993
  31 H :    0.030258
  32 H :   -0.001430
  33 H :    0.017135
Sum of atomic charges:    0.0000000

LOEWDIN ATOMIC CHARGES
----------------------
   0 S :    0.421278
   1 C :   -0.200309
   2 C :   -0.058905
   3 C :   -0.065135
   4 C :   -0.218292
   5 H :    0.029662
   6 C :   -0.034524
   7 H :    0.027655
   8 H :    0.036635
   9 C :   -0.049994
  10 H :    0.040142
  11 H :    0.024691
  12 C :   -0.073839
  13 H :    0.026621
  14 H :    0.021537
  15 H :    0.036812
  16 S :    0.459385
  17 C :   -0.188345
  18 C :   -0.065049
  19 C :   -0.044577
  20 C :   -0.221679
  21 H :    0.027291
  22 C :   -0.040264
  23 H :    0.031947
  24 H :    0.033711
  25 C :   -0.030064
  26 H :    0.010907
  27 H :    0.033672
  28 C :   -0.062766
  29 H :    0.025669
  30 H :    0.021509
  31 H :    0.024494
  32 H :    0.008082
  33 H :    0.012038

  Mayer bond orders larger than 0.100000
B(  0-S ,  1-C ) :   1.1409 B(  0-S ,  4-C ) :   1.1438 B(  1-C ,  2-C ) :   1.6137
B(  1-C , 32-H ) :   0.9785 B(  2-C ,  3-C ) :   1.2474 B(  2-C ,  6-C ) :   1.0037
B(  3-C ,  4-C ) :   1.5854 B(  3-C ,  5-H ) :   0.9930 B(  4-C , 20-C ) :   1.0150
B(  6-C ,  7-H ) :   0.9514 B(  6-C ,  8-H ) :   0.9400 B(  6-C ,  9-C ) :   1.0375
B(  9-C , 10-H ) :   0.9650 B(  9-C , 11-H ) :   0.9507 B(  9-C , 12-C ) :   1.0801
B( 12-C , 13-H ) :   0.9702 B( 12-C , 14-H ) :   0.9756 B( 12-C , 15-H ) :   0.9740
B( 16-S , 17-C ) :   1.1867 B( 16-S , 20-C ) :   1.1786 B( 17-C , 18-C ) :   1.5680
B( 17-C , 20-C ) :   0.1058 B( 17-C , 33-H ) :   0.9691 B( 18-C , 19-C ) :   1.3008
B( 18-C , 21-H ) :   0.9939 B( 19-C , 20-C ) :   1.5110 B( 19-C , 22-C ) :   1.0665
B( 22-C , 23-H ) :   0.9302 B( 22-C , 24-H ) :   0.9321 B( 22-C , 25-C ) :   1.0324
B( 25-C , 26-H ) :   0.9555 B( 25-C , 27-H ) :   0.9635 B( 25-C , 28-C ) :   1.0828
B( 28-C , 29-H ) :   0.9750 B( 28-C , 30-H ) :   0.9725 B( 28-C , 31-H ) :   0.9726

Dispersion correction           -0.013969437
FINAL SINGLE POINT ENERGY     -1339.859476314255

DIPOLE MOMENT
-------------
                                X             Y             Z
Electronic contribution:     -8.30996     -19.57987      14.06391
Nuclear contribution   :      8.69841      20.18978     -14.11866
                        -----------------------------------------
Total Dipole Moment    :      0.38845       0.60991      -0.05475
                        -----------------------------------------
Magnitude (a.u.)       :      0.72518
Magnitude (Debye)      :      1.84326

Rotational constants in cm-1:     0.019369     0.007621     0.006557
Rotational constants in MHz :   580.674178   228.467457   196.573648

                             ****ORCA TERMINATED NORMALLY****
TOTAL RUN TIME: 0 days 0 hours 0 minutes 33 seconds 153 msec
