                         Program Version 4.2.1 -  RELEASE  -
|  1> ! wB97X-D3 SP def2-SVP
|  2> %pal
|  3> nprocs 16
|  4> end
|  5>
|  6> * xyz 0 1
|  7> S 	 9.12787 	 33.5466 	 57.6862
|  8> C 	 10.3369 	 32.3275 	 57.3648
|  9> C 	 11.5394 	 32.5137 	 58.0156
| 10> C 	 11.4522 	 33.7137 	 58.7954
| 11> C 	 10.2681 	 34.4639 	 58.647
| 12> H 	 12.184 	 33.9806 	 59.552
| 13> C 	 12.685 	 31.563 	 58.2054
| 14> H 	 12.2893 	 30.5985 	 58.4842
| 15> H 	 13.2791 	 31.9442 	 58.9723
| 16> C 	 13.5301 	 31.4718 	 56.8653
| 17> H 	 12.8672 	 31.1911 	 55.9893
| 18> H 	 13.977 	 32.3776 	 56.5542
| 19> C 	 14.5941 	 30.3416 	 56.9959
| 20> H 	 14.1981 	 29.4211 	 57.3853
| 21> H 	 15.1144 	 30.1434 	 56.0813
| 22> H 	 15.26 	 30.7578 	 57.7562
| 23> S 	 8.37204 	 35.7113 	 60.3066
| 24> C 	 8.61988 	 37.3715 	 60.7323
| 25> C 	 9.84542 	 37.8782 	 60.3051
| 26> C 	 10.5509 	 36.8274 	 59.5771
| 27> C 	 9.86958 	 35.6327 	 59.4031
| 28> H 	 10.1556 	 38.8987 	 60.4836
| 29> C 	 11.8586 	 37.096 	 58.8585
| 30> H 	 12.3198 	 36.1257 	 58.6392
| 31> H 	 12.5015 	 37.6072 	 59.5191
| 32> C 	 11.7257 	 37.8191 	 57.4928
| 33> H 	 12.6616 	 38.2563 	 57.1701
| 34> H 	 11.0217 	 38.666 	 57.5773
| 35> C 	 11.08 	 36.8939 	 56.3899
| 36> H 	 11.578 	 36.0004 	 56.0822
| 37> H 	 10.8374 	 37.4333 	 55.4238
| 38> H 	 10.1019 	 36.618 	 56.7131
| 39> H 	 10.0483 	 31.4589 	 56.7834
| 40> H 	 7.96478 	 37.9856 	 61.3198
| 41> *
| 42>
| 43>                          ****END OF INPUT****

CARTESIAN COORDINATES (ANGSTROEM)
---------------------------------
  S      9.127870   33.546600   57.686200
  C     10.336900   32.327500   57.364800
  C     11.539400   32.513700   58.015600
  C     11.452200   33.713700   58.795400
  C     10.268100   34.463900   58.647000
  H     12.184000   33.980600   59.552000
  C     12.685000   31.563000   58.205400
  H     12.289300   30.598500   58.484200
  H     13.279100   31.944200   58.972300
  C     13.530100   31.471800   56.865300
  H     12.867200   31.191100   55.989300
  H     13.977000   32.377600   56.554200
  C     14.594100   30.341600   56.995900
  H     14.198100   29.421100   57.385300
  H     15.114400   30.143400   56.081300
  H     15.260000   30.757800   57.756200
  S      8.372040   35.711300   60.306600
  C      8.619880   37.371500   60.732300
  C      9.845420   37.878200   60.305100
  C     10.550900   36.827400   59.577100
  C      9.869580   35.632700   59.403100
  H     10.155600   38.898700   60.483600
  C     11.858600   37.096000   58.858500
  H     12.319800   36.125700   58.639200
  H     12.501500   37.607200   59.519100
  C     11.725700   37.819100   57.492800
  H     12.661600   38.256300   57.170100
  H     11.021700   38.666000   57.577300
  C     11.080000   36.893900   56.389900
  H     11.578000   36.000400   56.082200
  H     10.837400   37.433300   55.423800
  H     10.101900   36.618000   56.713100
  H     10.048300   31.458900   56.783400
  H      7.964780   37.985600   61.319800

 Total Charge           Charge          ....    0
 Multiplicity           Mult            ....    1
 Number of Electrons    NEL             ....  134
 Basis Dimension        Dim             ....  322

ORBITAL ENERGIES
----------------

  NO   OCC          E(Eh)            E(eV)
   0   2.0000     -88.969043     -2420.9708
   1   2.0000     -88.966254     -2420.8948
   2   2.0000     -10.331509      -281.1347
   3   2.0000     -10.324432      -280.9421
   4   2.0000     -10.318015      -280.7675
   5   2.0000     -10.315220      -280.6914
   6   2.0000     -10.302071      -280.3336
   7   2.0000     -10.301944      -280.3302
   8   2.0000     -10.298402      -280.2338
   9   2.0000     -10.296710      -280.1877
  10   2.0000     -10.294521      -280.1282
  11   2.0000     -10.292843      -280.0825
  12   2.0000     -10.286566      -279.9117
  13   2.0000     -10.281607      -279.7768
  14   2.0000     -10.276306      -279.6325
  15   2.0000     -10.267950      -279.4051
  16   2.0000      -8.083666      -219.9677
  17   2.0000      -8.081188      -219.9003
  18   2.0000      -6.042062      -164.4129
  19   2.0000      -6.039774      -164.3506
  20   2.0000      -6.038215      -164.3082
  21   2.0000      -6.035588      -164.2367
  22   2.0000      -6.034530      -164.2079
  23   2.0000      -6.031931      -164.1372
  24   2.0000      -1.006051       -27.3760
  25   2.0000      -0.983708       -26.7681
  26   2.0000      -0.911756       -24.8101
  27   2.0000      -0.900396       -24.5010
  28   2.0000      -0.868409       -23.6306
  29   2.0000      -0.850854       -23.1529
  30   2.0000      -0.837989       -22.8029
  31   2.0000      -0.810681       -22.0598
  32   2.0000      -0.783306       -21.3148
  33   2.0000      -0.769578       -20.9413
  34   2.0000      -0.707287       -19.2463
  35   2.0000      -0.702932       -19.1278
  36   2.0000      -0.694034       -18.8856
  37   2.0000      -0.660785       -17.9809
  38   2.0000      -0.642779       -17.4909
  39   2.0000      -0.619888       -16.8680
  40   2.0000      -0.590397       -16.0655
  41   2.0000      -0.572956       -15.5909
  42   2.0000      -0.561640       -15.2830
  43   2.0000      -0.547601       -14.9010
  44   2.0000      -0.535907       -14.5828
  45   2.0000      -0.527392       -14.3511
  46   2.0000      -0.514781       -14.0079
  47   2.0000      -0.511144       -13.9089
  48   2.0000      -0.502221       -13.6661
  49   2.0000      -0.494814       -13.4646
  50   2.0000      -0.488998       -13.3063
  51   2.0000      -0.477551       -12.9948
  52   2.0000      -0.468971       -12.7613
  53   2.0000      -0.466851       -12.7037
  54   2.0000      -0.457948       -12.4614
  55   2.0000      -0.452023       -12.3002
  56   2.0000      -0.445201       -12.1145
  57   2.0000      -0.436368       -11.8742
  58   2.0000      -0.429013       -11.6740
  59   2.0000      -0.427313       -11.6278
  60   2.0000      -0.418510       -11.3882
  61   2.0000      -0.415838       -11.3155
  62   2.0000      -0.411390       -11.1945
  63   2.0000      -0.348658        -9.4875
  64   2.0000      -0.331289        -9.0148
  65   2.0000      -0.329383        -8.9630
  66   2.0000      -0.287971        -7.8361
  67   0.0000       0.026588         0.7235
  68   0.0000       0.071304         1.9403
  69   0.0000       0.109572         2.9816
  70   0.0000       0.122878         3.3437
  71   0.0000       0.126651         3.4464

MULLIKEN ATOMIC CHARGES
-----------------------
   0 S :    0.116211
   1 C :   -0.138678
   2 C :   -0.072079
   3 C :    0.014772
   4 C :   -0.176970
   5 H :    0.025914
   6 C :    0.118161
   7 H :    0.034393
   8 H :    0.006824
   9 C :   -0.114591
  10 H :    0.033723
  11 H :    0.027455
  12 C :   -0.021128
  13 H :    0.024926
  14 H :    0.036332
  15 H :    0.024826
  16 S :    0.115040
  17 C :   -0.086591
  18 C :   -0.024793
  19 C :   -0.079921
  20 C :   -0.132253
  21 H :    0.024518
  22 C :    0.097834
  23 H :    0.010001
  24 H :    0.011176
  25 C :   -0.048537
  26 H :    0.028012
  27 H :    0.023992
  28 C :   -0.059918
  29 H :    0.031838
  30 H :    0.027991
  31 H :    0.022220
  32 H :    0.048641
  33 H :    0.050661
Sum of atomic charges:   -0.0000000

LOEWDIN ATOMIC CHARGES
----------------------
   0 S :    0.414788
   1 C :   -0.193780
   2 C :   -0.063268
   3 C :   -0.059509
   4 C :   -0.196289
   5 H :    0.030252
   6 C :   -0.014246
   7 H :    0.033967
   8 H :    0.022034
   9 C :   -0.032075
  10 H :    0.025503
  11 H :    0.018245
  12 C :   -0.063673
  13 H :    0.020531
  14 H :    0.022702
  15 H :    0.025645
  16 S :    0.410069
  17 C :   -0.184431
  18 C :   -0.068783
  19 C :   -0.051646
  20 C :   -0.210691
  21 H :    0.034050
  22 C :   -0.032938
  23 H :    0.029065
  24 H :    0.021587
  25 C :   -0.031099
  26 H :    0.019741
  27 H :    0.024480
  28 C :   -0.069938
  29 H :    0.019323
  30 H :    0.030599
  31 H :    0.019157
  32 H :    0.023856
  33 H :    0.026774

  Mayer bond orders larger than 0.100000
B(  0-S ,  1-C ) :   1.1552 B(  0-S ,  4-C ) :   1.1510 B(  1-C ,  2-C ) :   1.5844
B(  1-C , 32-H ) :   0.9677 B(  2-C ,  3-C ) :   1.2733 B(  2-C ,  6-C ) :   1.0220
B(  3-C ,  4-C ) :   1.5549 B(  3-C ,  5-H ) :   0.9766 B(  4-C , 20-C ) :   1.0632
B(  6-C ,  7-H ) :   0.9423 B(  6-C ,  8-H ) :   0.9389 B(  6-C ,  9-C ) :   1.0447
B(  9-C , 10-H ) :   0.9649 B(  9-C , 11-H ) :   0.9610 B(  9-C , 12-C ) :   1.0728
B( 12-C , 13-H ) :   0.9774 B( 12-C , 14-H ) :   0.9759 B( 12-C , 15-H ) :   0.9750
B( 16-S , 17-C ) :   1.1647 B( 16-S , 20-C ) :   1.1188 B( 17-C , 18-C ) :   1.6041
B( 17-C , 33-H ) :   0.9671 B( 18-C , 19-C ) :   1.2315 B( 18-C , 21-H ) :   0.9938
B( 19-C , 20-C ) :   1.5977 B( 19-C , 22-C ) :   1.0566 B( 22-C , 23-H ) :   0.9289
B( 22-C , 24-H ) :   0.9272 B( 22-C , 25-C ) :   1.0657 B( 25-C , 26-H ) :   0.9598
B( 25-C , 27-H ) :   0.9587 B( 25-C , 28-C ) :   1.0692 B( 28-C , 29-H ) :   0.9780
B( 28-C , 30-H ) :   0.9739 B( 28-C , 31-H ) :   0.9715

Dispersion correction           -0.015262417
FINAL SINGLE POINT ENERGY     -1339.884874994900

DIPOLE MOMENT
-------------
                                X             Y             Z
Electronic contribution:    -23.83147       4.16986      12.02537
Nuclear contribution   :     24.35468      -4.25194     -11.96891
                        -----------------------------------------
Total Dipole Moment    :      0.52321      -0.08208       0.05647
                        -----------------------------------------
Magnitude (a.u.)       :      0.53261
Magnitude (Debye)      :      1.35379

Rotational constants in cm-1:     0.022954     0.007920     0.006931
Rotational constants in MHz :   688.140535   237.441021   207.782733

                             ****ORCA TERMINATED NORMALLY****
TOTAL RUN TIME: 0 days 0 hours 0 minutes 35 seconds 717 msec
