                         Program Version 4.2.1 -  RELEASE  -
|  1> ! wB97X-D3 SP def2-SVP
|  2> %pal
|  3> nprocs 16
|  4> end
|  5>
|  6> * xyz 0 1
|  7> S 	 -48.9363 	 61.0034 	 129.132
|  8> C 	 -48.7394 	 59.9979 	 127.658
|  9> C 	 -47.4805 	 59.458 	 127.583
| 10> C 	 -46.714 	 60.0594 	 128.635
| 11> C 	 -47.3046 	 60.8207 	 129.613
| 12> H 	 -45.6236 	 59.9536 	 128.824
| 13> C 	 -47.0137 	 58.4572 	 126.538
| 14> H 	 -46.7488 	 58.944 	 125.603
| 15> H 	 -47.8305 	 57.7874 	 126.223
| 16> C 	 -45.8324 	 57.5975 	 126.992
| 17> H 	 -45.6185 	 56.9911 	 126.096
| 18> H 	 -44.9678 	 58.1929 	 127.177
| 19> C 	 -46.1391 	 56.5864 	 128.093
| 20> H 	 -45.3231 	 55.9111 	 128.135
| 21> H 	 -46.2257 	 56.9687 	 129.09
| 22> H 	 -47.0153 	 55.9491 	 127.867
| 23> S 	 -46.7374 	 63.2705 	 130.846
| 24> C 	 -45.8479 	 63.2191 	 132.331
| 25> C 	 -45.6142 	 61.9642 	 132.886
| 26> C 	 -46.0375 	 60.9877 	 131.928
| 27> C 	 -46.5691 	 61.4641 	 130.735
| 28> H 	 -44.9836 	 61.8291 	 133.797
| 29> C 	 -45.9218 	 59.5248 	 132.145
| 30> H 	 -46.3098 	 59.0501 	 131.217
| 31> H 	 -46.4998 	 59.1713 	 133.028
| 32> C 	 -44.5227 	 58.9144 	 132.146
| 33> H 	 -43.8719 	 59.3825 	 132.877
| 34> H 	 -44.148 	 59.1385 	 131.177
| 35> C 	 -44.5041 	 57.3789 	 132.182
| 36> H 	 -44.5095 	 57.0139 	 133.259
| 37> H 	 -43.5028 	 57.0497 	 131.758
| 38> H 	 -45.2229 	 56.9167 	 131.557
| 39> H 	 -49.4769 	 59.6409 	 127.022
| 40> H 	 -45.6547 	 64.1362 	 132.867
| 41> *
| 42>
| 43>                          ****END OF INPUT****

CARTESIAN COORDINATES (ANGSTROEM)
---------------------------------
  S    -48.936300   61.003400  129.132000
  C    -48.739400   59.997900  127.658000
  C    -47.480500   59.458000  127.583000
  C    -46.714000   60.059400  128.635000
  C    -47.304600   60.820700  129.613000
  H    -45.623600   59.953600  128.824000
  C    -47.013700   58.457200  126.538000
  H    -46.748800   58.944000  125.603000
  H    -47.830500   57.787400  126.223000
  C    -45.832400   57.597500  126.992000
  H    -45.618500   56.991100  126.096000
  H    -44.967800   58.192900  127.177000
  C    -46.139100   56.586400  128.093000
  H    -45.323100   55.911100  128.135000
  H    -46.225700   56.968700  129.090000
  H    -47.015300   55.949100  127.867000
  S    -46.737400   63.270500  130.846000
  C    -45.847900   63.219100  132.331000
  C    -45.614200   61.964200  132.886000
  C    -46.037500   60.987700  131.928000
  C    -46.569100   61.464100  130.735000
  H    -44.983600   61.829100  133.797000
  C    -45.921800   59.524800  132.145000
  H    -46.309800   59.050100  131.217000
  H    -46.499800   59.171300  133.028000
  C    -44.522700   58.914400  132.146000
  H    -43.871900   59.382500  132.877000
  H    -44.148000   59.138500  131.177000
  C    -44.504100   57.378900  132.182000
  H    -44.509500   57.013900  133.259000
  H    -43.502800   57.049700  131.758000
  H    -45.222900   56.916700  131.557000
  H    -49.476900   59.640900  127.022000
  H    -45.654700   64.136200  132.867000

 Total Charge           Charge          ....    0
 Multiplicity           Mult            ....    1
 Number of Electrons    NEL             ....  134
 Basis Dimension        Dim             ....  322

ORBITAL ENERGIES
----------------

  NO   OCC          E(Eh)            E(eV)
   0   2.0000     -88.966426     -2420.8995
   1   2.0000     -88.965501     -2420.8744
   2   2.0000     -10.333643      -281.1927
   3   2.0000     -10.327830      -281.0346
   4   2.0000     -10.322416      -280.8872
   5   2.0000     -10.311081      -280.5788
   6   2.0000     -10.307976      -280.4943
   7   2.0000     -10.302854      -280.3549
   8   2.0000     -10.302160      -280.3360
   9   2.0000     -10.297328      -280.2045
  10   2.0000     -10.292148      -280.0636
  11   2.0000     -10.287806      -279.9454
  12   2.0000     -10.286132      -279.8999
  13   2.0000     -10.284653      -279.8596
  14   2.0000     -10.280885      -279.7571
  15   2.0000     -10.275066      -279.5988
  16   2.0000      -8.080850      -219.8911
  17   2.0000      -8.079929      -219.8660
  18   2.0000      -6.039189      -164.3347
  19   2.0000      -6.038579      -164.3181
  20   2.0000      -6.035569      -164.2362
  21   2.0000      -6.034397      -164.2043
  22   2.0000      -6.031624      -164.1288
  23   2.0000      -6.030593      -164.1008
  24   2.0000      -1.005461       -27.3600
  25   2.0000      -0.984806       -26.7979
  26   2.0000      -0.915842       -24.9213
  27   2.0000      -0.911957       -24.8156
  28   2.0000      -0.870688       -23.6926
  29   2.0000      -0.853101       -23.2141
  30   2.0000      -0.840209       -22.8632
  31   2.0000      -0.814337       -22.1592
  32   2.0000      -0.790188       -21.5021
  33   2.0000      -0.772666       -21.0253
  34   2.0000      -0.708159       -19.2700
  35   2.0000      -0.697056       -18.9679
  36   2.0000      -0.692912       -18.8551
  37   2.0000      -0.659014       -17.9327
  38   2.0000      -0.642348       -17.4792
  39   2.0000      -0.615945       -16.7607
  40   2.0000      -0.597853       -16.2684
  41   2.0000      -0.577081       -15.7032
  42   2.0000      -0.570746       -15.5308
  43   2.0000      -0.557269       -15.1641
  44   2.0000      -0.537373       -14.6227
  45   2.0000      -0.521721       -14.1968
  46   2.0000      -0.516735       -14.0611
  47   2.0000      -0.508696       -13.8423
  48   2.0000      -0.503696       -13.7063
  49   2.0000      -0.497619       -13.5409
  50   2.0000      -0.489324       -13.3152
  51   2.0000      -0.481738       -13.1087
  52   2.0000      -0.474258       -12.9052
  53   2.0000      -0.468952       -12.7608
  54   2.0000      -0.464307       -12.6344
  55   2.0000      -0.448874       -12.2145
  56   2.0000      -0.441463       -12.0128
  57   2.0000      -0.436614       -11.8809
  58   2.0000      -0.426978       -11.6187
  59   2.0000      -0.425113       -11.5679
  60   2.0000      -0.421244       -11.4626
  61   2.0000      -0.413239       -11.2448
  62   2.0000      -0.409571       -11.1450
  63   2.0000      -0.338951        -9.2233
  64   2.0000      -0.335330        -9.1248
  65   2.0000      -0.327611        -8.9148
  66   2.0000      -0.301084        -8.1929
  67   0.0000       0.034901         0.9497
  68   0.0000       0.058657         1.5962
  69   0.0000       0.107994         2.9387
  70   0.0000       0.118646         3.2285
  71   0.0000       0.124581         3.3900

MULLIKEN ATOMIC CHARGES
-----------------------
   0 S :    0.109459
   1 C :   -0.097478
   2 C :   -0.059142
   3 C :   -0.020995
   4 C :   -0.135394
   5 H :    0.015033
   6 C :    0.076045
   7 H :    0.041640
   8 H :    0.021094
   9 C :   -0.087796
  10 H :    0.026517
  11 H :    0.032422
  12 C :   -0.027092
  13 H :    0.018841
  14 H :    0.034590
  15 H :    0.029820
  16 S :    0.096216
  17 C :   -0.083885
  18 C :   -0.033151
  19 C :   -0.025973
  20 C :   -0.169065
  21 H :    0.047948
  22 C :    0.033814
  23 H :    0.018075
  24 H :    0.042310
  25 C :   -0.057963
  26 H :    0.023379
  27 H :    0.007880
  28 C :   -0.060649
  29 H :    0.045054
  30 H :    0.034830
  31 H :    0.028552
  32 H :    0.018377
  33 H :    0.056686
Sum of atomic charges:   -0.0000000

LOEWDIN ATOMIC CHARGES
----------------------
   0 S :    0.403752
   1 C :   -0.169998
   2 C :   -0.062493
   3 C :   -0.075133
   4 C :   -0.218587
   5 H :    0.027734
   6 C :   -0.030795
   7 H :    0.035674
   8 H :    0.032991
   9 C :   -0.039357
  10 H :    0.030794
  11 H :    0.020552
  12 C :   -0.062510
  13 H :    0.022865
  14 H :    0.019387
  15 H :    0.030695
  16 S :    0.386768
  17 C :   -0.167814
  18 C :   -0.081483
  19 C :   -0.044323
  20 C :   -0.182092
  21 H :    0.046009
  22 C :   -0.041528
  23 H :    0.033129
  24 H :    0.033276
  25 C :   -0.039029
  26 H :    0.017461
  27 H :    0.017443
  28 C :   -0.065707
  29 H :    0.032087
  30 H :    0.033411
  31 H :    0.017542
  32 H :    0.015305
  33 H :    0.023975

  Mayer bond orders larger than 0.100000
B(  0-S ,  1-C ) :   1.1398 B(  0-S ,  4-C ) :   1.1355 B(  1-C ,  2-C ) :   1.6195
B(  1-C , 32-H ) :   0.9709 B(  2-C ,  3-C ) :   1.2276 B(  2-C ,  6-C ) :   1.0133
B(  3-C ,  4-C ) :   1.5934 B(  3-C ,  5-H ) :   0.9818 B(  4-C , 20-C ) :   1.0268
B(  6-C ,  7-H ) :   0.9348 B(  6-C ,  8-H ) :   0.9386 B(  6-C ,  9-C ) :   1.0945
B(  9-C , 10-H ) :   0.9513 B(  9-C , 11-H ) :   0.9497 B(  9-C , 12-C ) :   1.0813
B( 12-C , 13-H ) :   0.9718 B( 12-C , 14-H ) :   0.9744 B( 12-C , 15-H ) :   0.9696
B( 16-S , 17-C ) :   1.1866 B( 16-S , 20-C ) :   1.1013 B( 17-C , 18-C ) :   1.6075
B( 17-C , 33-H ) :   0.9618 B( 18-C , 19-C ) :   1.2175 B( 18-C , 21-H ) :   0.9858
B( 19-C , 20-C ) :   1.6281 B( 19-C , 22-C ) :   1.0584 B( 22-C , 23-H ) :   0.9305
B( 22-C , 24-H ) :   0.9326 B( 22-C , 25-C ) :   1.0577 B( 25-C , 26-H ) :   0.9566
B( 25-C , 27-H ) :   0.9532 B( 25-C , 28-C ) :   1.0869 B( 28-C , 29-H ) :   0.9747
B( 28-C , 30-H ) :   0.9765 B( 28-C , 31-H ) :   0.9714

Dispersion correction           -0.015108207
FINAL SINGLE POINT ENERGY     -1339.866555566642

DIPOLE MOMENT
-------------
                                X             Y             Z
Electronic contribution:    -14.88879      28.48680       1.58820
Nuclear contribution   :     15.33302     -29.05871      -1.63179
                        -----------------------------------------
Total Dipole Moment    :      0.44423      -0.57192      -0.04358
                        -----------------------------------------
Magnitude (a.u.)       :      0.72549
Magnitude (Debye)      :      1.84404

Rotational constants in cm-1:     0.016635     0.010594     0.007107
Rotational constants in MHz :   498.690335   317.595297   213.048235

                             ****ORCA TERMINATED NORMALLY****
TOTAL RUN TIME: 0 days 0 hours 0 minutes 37 seconds 14 msec
