                         Program Version 4.2.1 -  RELEASE  -
|  1> ! wB97X-D3 SP def2-SVP
|  2> %pal
|  3> nprocs 16
|  4> end
|  5>
|  6> * xyz 0 1
|  7> S 	 -110.359 	 59.6978 	 121.356
|  8> C 	 -108.705 	 59.3653 	 121.86
|  9> C 	 -108.328 	 58.1915 	 121.156
| 10> C 	 -109.216 	 57.8124 	 120.133
| 11> C 	 -110.35 	 58.5926 	 120.03
| 12> H 	 -109.121 	 57.0901 	 119.39
| 13> C 	 -107.113 	 57.351 	 121.401
| 14> H 	 -107.389 	 56.2882 	 121.599
| 15> H 	 -106.767 	 57.7524 	 122.361
| 16> C 	 -105.95 	 57.3945 	 120.409
| 17> H 	 -105.127 	 56.7579 	 120.637
| 18> H 	 -106.33 	 57.068 	 119.42
| 19> C 	 -105.484 	 58.8678 	 120.152
| 20> H 	 -105.352 	 59.0034 	 119.097
| 21> H 	 -106.196 	 59.6508 	 120.396
| 22> H 	 -104.593 	 59.158 	 120.736
| 23> S 	 -112.274 	 56.836 	 119.046
| 24> C 	 -113.357 	 57.3616 	 117.71
| 25> C 	 -113.164 	 58.6998 	 117.432
| 26> C 	 -112.101 	 59.2403 	 118.164
| 27> C 	 -111.466 	 58.4047 	 119.061
| 28> H 	 -113.635 	 59.2332 	 116.604
| 29> C 	 -111.637 	 60.6817 	 117.858
| 30> H 	 -111.445 	 60.7291 	 116.817
| 31> H 	 -110.546 	 60.7867 	 118.283
| 32> C 	 -112.458 	 61.8062 	 118.439
| 33> H 	 -111.808 	 62.7031 	 118.323
| 34> H 	 -112.5 	 61.4934 	 119.461
| 35> C 	 -113.865 	 61.9375 	 117.88
| 36> H 	 -114.524 	 61.121 	 118.186
| 37> H 	 -113.974 	 61.9002 	 116.763
| 38> H 	 -114.289 	 62.8906 	 118.218
| 39> H 	 -108.108 	 59.8586 	 122.608
| 40> H 	 -114.105 	 56.7363 	 117.211
| 41> *
| 42>
| 43>                          ****END OF INPUT****

CARTESIAN COORDINATES (ANGSTROEM)
---------------------------------
  S    -110.359000   59.697800  121.356000
  C    -108.705000   59.365300  121.860000
  C    -108.328000   58.191500  121.156000
  C    -109.216000   57.812400  120.133000
  C    -110.350000   58.592600  120.030000
  H    -109.121000   57.090100  119.390000
  C    -107.113000   57.351000  121.401000
  H    -107.389000   56.288200  121.599000
  H    -106.767000   57.752400  122.361000
  C    -105.950000   57.394500  120.409000
  H    -105.127000   56.757900  120.637000
  H    -106.330000   57.068000  119.420000
  C    -105.484000   58.867800  120.152000
  H    -105.352000   59.003400  119.097000
  H    -106.196000   59.650800  120.396000
  H    -104.593000   59.158000  120.736000
  S    -112.274000   56.836000  119.046000
  C    -113.357000   57.361600  117.710000
  C    -113.164000   58.699800  117.432000
  C    -112.101000   59.240300  118.164000
  C    -111.466000   58.404700  119.061000
  H    -113.635000   59.233200  116.604000
  C    -111.637000   60.681700  117.858000
  H    -111.445000   60.729100  116.817000
  H    -110.546000   60.786700  118.283000
  C    -112.458000   61.806200  118.439000
  H    -111.808000   62.703100  118.323000
  H    -112.500000   61.493400  119.461000
  C    -113.865000   61.937500  117.880000
  H    -114.524000   61.121000  118.186000
  H    -113.974000   61.900200  116.763000
  H    -114.289000   62.890600  118.218000
  H    -108.108000   59.858600  122.608000
  H    -114.105000   56.736300  117.211000

 Total Charge           Charge          ....    0
 Multiplicity           Mult            ....    1
 Number of Electrons    NEL             ....  134
 Basis Dimension        Dim             ....  322

ORBITAL ENERGIES
----------------

  NO   OCC          E(Eh)            E(eV)
   0   2.0000     -88.968594     -2420.9585
   1   2.0000     -88.968219     -2420.9483
   2   2.0000     -10.331849      -281.1439
   3   2.0000     -10.331540      -281.1355
   4   2.0000     -10.326711      -281.0041
   5   2.0000     -10.322875      -280.8997
   6   2.0000     -10.304050      -280.3875
   7   2.0000     -10.300833      -280.2999
   8   2.0000     -10.295392      -280.1519
   9   2.0000     -10.291079      -280.0345
  10   2.0000     -10.288760      -279.9714
  11   2.0000     -10.287837      -279.9463
  12   2.0000     -10.286083      -279.8985
  13   2.0000     -10.282944      -279.8131
  14   2.0000     -10.280062      -279.7347
  15   2.0000     -10.271850      -279.5112
  16   2.0000      -8.082926      -219.9476
  17   2.0000      -8.081906      -219.9198
  18   2.0000      -6.041433      -164.3958
  19   2.0000      -6.040456      -164.3692
  20   2.0000      -6.037277      -164.2827
  21   2.0000      -6.036556      -164.2630
  22   2.0000      -6.033904      -164.1909
  23   2.0000      -6.032664      -164.1571
  24   2.0000      -1.007317       -27.4105
  25   2.0000      -0.986425       -26.8420
  26   2.0000      -0.910207       -24.7680
  27   2.0000      -0.907931       -24.7060
  28   2.0000      -0.868427       -23.6311
  29   2.0000      -0.846712       -23.0402
  30   2.0000      -0.842250       -22.9188
  31   2.0000      -0.817318       -22.2403
  32   2.0000      -0.781370       -21.2621
  33   2.0000      -0.772773       -21.0282
  34   2.0000      -0.710406       -19.3311
  35   2.0000      -0.699527       -19.0351
  36   2.0000      -0.688587       -18.7374
  37   2.0000      -0.669617       -18.2212
  38   2.0000      -0.641886       -17.4666
  39   2.0000      -0.615810       -16.7570
  40   2.0000      -0.596021       -16.2186
  41   2.0000      -0.570485       -15.5237
  42   2.0000      -0.549035       -14.9400
  43   2.0000      -0.546252       -14.8643
  44   2.0000      -0.542945       -14.7743
  45   2.0000      -0.536930       -14.6106
  46   2.0000      -0.526724       -14.3329
  47   2.0000      -0.515856       -14.0371
  48   2.0000      -0.507020       -13.7967
  49   2.0000      -0.497569       -13.5395
  50   2.0000      -0.486978       -13.2513
  51   2.0000      -0.482568       -13.1313
  52   2.0000      -0.470846       -12.8124
  53   2.0000      -0.466093       -12.6830
  54   2.0000      -0.459103       -12.4928
  55   2.0000      -0.447463       -12.1761
  56   2.0000      -0.441724       -12.0199
  57   2.0000      -0.427417       -11.6306
  58   2.0000      -0.424483       -11.5508
  59   2.0000      -0.417471       -11.3600
  60   2.0000      -0.414596       -11.2817
  61   2.0000      -0.411402       -11.1948
  62   2.0000      -0.410043       -11.1578
  63   2.0000      -0.342842        -9.3292
  64   2.0000      -0.336662        -9.1610
  65   2.0000      -0.326278        -8.8785
  66   2.0000      -0.302050        -8.2192
  67   0.0000       0.025689         0.6990
  68   0.0000       0.064651         1.7592
  69   0.0000       0.104617         2.8468
  70   0.0000       0.120605         3.2818
  71   0.0000       0.124342         3.3835

MULLIKEN ATOMIC CHARGES
-----------------------
   0 S :    0.117365
   1 C :   -0.110058
   2 C :   -0.103508
   3 C :    0.043418
   4 C :   -0.141710
   5 H :   -0.012661
   6 C :    0.061208
   7 H :    0.044253
   8 H :    0.006994
   9 C :   -0.046301
  10 H :    0.033727
  11 H :    0.026006
  12 C :   -0.068310
  13 H :    0.025775
  14 H :    0.027040
  15 H :    0.034246
  16 S :    0.101885
  17 C :   -0.098890
  18 C :   -0.018502
  19 C :   -0.049647
  20 C :   -0.162699
  21 H :    0.028605
  22 C :   -0.002875
  23 H :    0.020148
  24 H :    0.037449
  25 C :   -0.010312
  26 H :    0.042105
  27 H :    0.020745
  28 C :   -0.071730
  29 H :    0.039598
  30 H :    0.027808
  31 H :    0.039964
  32 H :    0.052696
  33 H :    0.066167
Sum of atomic charges:    0.0000000

LOEWDIN ATOMIC CHARGES
----------------------
   0 S :    0.422963
   1 C :   -0.198248
   2 C :   -0.060556
   3 C :   -0.061140
   4 C :   -0.200113
   5 H :    0.020997
   6 C :   -0.038234
   7 H :    0.037974
   8 H :    0.025660
   9 C :   -0.036339
  10 H :    0.023340
  11 H :    0.024276
  12 C :   -0.071771
  13 H :    0.024265
  14 H :    0.024492
  15 H :    0.026144
  16 S :    0.387057
  17 C :   -0.165430
  18 C :   -0.074614
  19 C :   -0.060242
  20 C :   -0.197081
  21 H :    0.037366
  22 C :   -0.036991
  23 H :    0.018279
  24 H :    0.039535
  25 C :   -0.041259
  26 H :    0.032771
  27 H :    0.024304
  28 C :   -0.075015
  29 H :    0.027778
  30 H :    0.025051
  31 H :    0.029453
  32 H :    0.031346
  33 H :    0.033982

  Mayer bond orders larger than 0.100000
B(  0-S ,  1-C ) :   1.1503 B(  0-S ,  4-C ) :   1.1671 B(  1-C ,  2-C ) :   1.5484
B(  1-C ,  4-C ) :   0.1065 B(  1-C , 32-H ) :   0.9735 B(  2-C ,  3-C ) :   1.2506
B(  2-C ,  6-C ) :   1.0305 B(  3-C ,  4-C ) :   1.5472 B(  3-C ,  5-H ) :   1.0128
B(  4-C , 20-C ) :   1.0151 B(  6-C ,  7-H ) :   0.9421 B(  6-C ,  8-H ) :   0.9379
B(  6-C ,  9-C ) :   1.0709 B(  9-C , 10-H ) :   0.9603 B(  9-C , 11-H ) :   0.9643
B(  9-C , 12-C ) :   1.0534 B( 12-C , 13-H ) :   0.9796 B( 12-C , 14-H ) :   0.9775
B( 12-C , 15-H ) :   0.9776 B( 16-S , 17-C ) :   1.1554 B( 16-S , 20-C ) :   1.1285
B( 17-C , 18-C ) :   1.5900 B( 17-C , 20-C ) :   0.1026 B( 17-C , 33-H ) :   0.9644
B( 18-C , 19-C ) :   1.2677 B( 18-C , 21-H ) :   0.9808 B( 19-C , 20-C ) :   1.6098
B( 19-C , 22-C ) :   1.0271 B( 22-C , 23-H ) :   0.9423 B( 22-C , 24-H ) :   0.9372
B( 22-C , 25-C ) :   1.0644 B( 25-C , 26-H ) :   0.9554 B( 25-C , 27-H ) :   0.9435
B( 25-C , 28-C ) :   1.0842 B( 28-C , 29-H ) :   0.9665 B( 28-C , 30-H ) :   0.9747
B( 28-C , 31-H ) :   0.9722

Dispersion correction           -0.014964355
FINAL SINGLE POINT ENERGY     -1339.870699500570

DIPOLE MOMENT
-------------
                                X             Y             Z
Electronic contribution:    -11.77135     -10.51977       5.96248
Nuclear contribution   :     11.97542      10.59392      -6.25627
                        -----------------------------------------
Total Dipole Moment    :      0.20407       0.07415      -0.29380
                        -----------------------------------------
Magnitude (a.u.)       :      0.36532
Magnitude (Debye)      :      0.92857

Rotational constants in cm-1:     0.022444     0.007815     0.006783
Rotational constants in MHz :   672.843863   234.294633   203.355001

                             ****ORCA TERMINATED NORMALLY****
TOTAL RUN TIME: 0 days 0 hours 0 minutes 34 seconds 464 msec
