                         Program Version 4.2.1 -  RELEASE  -
|  1> ! wB97X-D3 SP def2-SVP
|  2> %pal
|  3> nprocs 16
|  4> end
|  5>
|  6> * xyz 0 1
|  7> S 	 3.79196 	 14.6036 	 50.8833
|  8> C 	 3.58041 	 12.9011 	 51.3612
|  9> C 	 4.31264 	 12.0397 	 50.5232
| 10> C 	 5.13781 	 12.7534 	 49.6484
| 11> C 	 4.76469 	 14.109 	 49.4936
| 12> H 	 5.8393 	 12.3801 	 48.9145
| 13> C 	 4.21386 	 10.5269 	 50.4745
| 14> H 	 3.59755 	 10.2144 	 51.3485
| 15> H 	 5.14804 	 10.0368 	 50.7545
| 16> C 	 3.6421 	 9.84687 	 49.2561
| 17> H 	 3.01427 	 10.6206 	 48.7827
| 18> H 	 4.48347 	 9.54106 	 48.6913
| 19> C 	 2.87404 	 8.61843 	 49.5726
| 20> H 	 3.56422 	 7.84323 	 50.0542
| 21> H 	 2.00146 	 8.66881 	 50.1745
| 22> H 	 2.57135 	 8.30668 	 48.5378
| 23> S 	 6.26827 	 16.363 	 49.0745
| 24> C 	 6.4305 	 17.0529 	 47.5058
| 25> C 	 5.80123 	 16.3538 	 46.5577
| 26> C 	 5.12903 	 15.2189 	 47.1429
| 27> C 	 5.33101 	 15.0688 	 48.5248
| 28> H 	 5.76719 	 16.5906 	 45.4703
| 29> C 	 4.28329 	 14.4368 	 46.1476
| 30> H 	 4.33016 	 13.3729 	 46.497
| 31> H 	 4.85414 	 14.3462 	 45.3086
| 32> C 	 2.85244 	 15.0402 	 45.8904
| 33> H 	 2.44788 	 14.4624 	 45.072
| 34> H 	 2.96055 	 16.0038 	 45.4683
| 35> C 	 1.80333 	 14.9488 	 47.0217
| 36> H 	 1.70705 	 13.8947 	 47.3681
| 37> H 	 0.766551 	 15.3391 	 46.9081
| 38> H 	 2.03837 	 15.5629 	 47.8919
| 39> H 	 2.97011 	 12.5949 	 52.2265
| 40> H 	 7.05279 	 17.9326 	 47.3682
| 41> *
| 42>
| 43>                          ****END OF INPUT****

CARTESIAN COORDINATES (ANGSTROEM)
---------------------------------
  S      3.791960   14.603600   50.883300
  C      3.580410   12.901100   51.361200
  C      4.312640   12.039700   50.523200
  C      5.137810   12.753400   49.648400
  C      4.764690   14.109000   49.493600
  H      5.839300   12.380100   48.914500
  C      4.213860   10.526900   50.474500
  H      3.597550   10.214400   51.348500
  H      5.148040   10.036800   50.754500
  C      3.642100    9.846870   49.256100
  H      3.014270   10.620600   48.782700
  H      4.483470    9.541060   48.691300
  C      2.874040    8.618430   49.572600
  H      3.564220    7.843230   50.054200
  H      2.001460    8.668810   50.174500
  H      2.571350    8.306680   48.537800
  S      6.268270   16.363000   49.074500
  C      6.430500   17.052900   47.505800
  C      5.801230   16.353800   46.557700
  C      5.129030   15.218900   47.142900
  C      5.331010   15.068800   48.524800
  H      5.767190   16.590600   45.470300
  C      4.283290   14.436800   46.147600
  H      4.330160   13.372900   46.497000
  H      4.854140   14.346200   45.308600
  C      2.852440   15.040200   45.890400
  H      2.447880   14.462400   45.072000
  H      2.960550   16.003800   45.468300
  C      1.803330   14.948800   47.021700
  H      1.707050   13.894700   47.368100
  H      0.766551   15.339100   46.908100
  H      2.038370   15.562900   47.891900
  H      2.970110   12.594900   52.226500
  H      7.052790   17.932600   47.368200

 Total Charge           Charge          ....    0
 Multiplicity           Mult            ....    1
 Number of Electrons    NEL             ....  134
 Basis Dimension        Dim             ....  322

ORBITAL ENERGIES
----------------

  NO   OCC          E(Eh)            E(eV)
   0   2.0000     -88.968604     -2420.9588
   1   2.0000     -88.961328     -2420.7608
   2   2.0000     -10.333223      -281.1813
   3   2.0000     -10.323348      -280.9126
   4   2.0000     -10.320700      -280.8405
   5   2.0000     -10.311060      -280.5782
   6   2.0000     -10.303467      -280.3716
   7   2.0000     -10.300928      -280.3025
   8   2.0000     -10.293287      -280.0946
   9   2.0000     -10.291017      -280.0328
  10   2.0000     -10.287692      -279.9423
  11   2.0000     -10.287539      -279.9382
  12   2.0000     -10.287347      -279.9329
  13   2.0000     -10.282512      -279.8014
  14   2.0000     -10.280434      -279.7448
  15   2.0000     -10.277250      -279.6582
  16   2.0000      -8.082187      -219.9275
  17   2.0000      -8.078042      -219.8147
  18   2.0000      -6.040612      -164.3734
  19   2.0000      -6.036887      -164.2720
  20   2.0000      -6.036411      -164.2591
  21   2.0000      -6.033069      -164.1681
  22   2.0000      -6.032179      -164.1439
  23   2.0000      -6.028915      -164.0551
  24   2.0000      -1.010180       -27.4884
  25   2.0000      -0.984085       -26.7783
  26   2.0000      -0.919135       -25.0109
  27   2.0000      -0.902023       -24.5453
  28   2.0000      -0.871748       -23.7215
  29   2.0000      -0.849649       -23.1201
  30   2.0000      -0.843737       -22.9593
  31   2.0000      -0.813140       -22.1267
  32   2.0000      -0.782269       -21.2866
  33   2.0000      -0.770684       -20.9714
  34   2.0000      -0.709560       -19.3081
  35   2.0000      -0.697818       -18.9886
  36   2.0000      -0.688866       -18.7450
  37   2.0000      -0.659429       -17.9440
  38   2.0000      -0.641553       -17.4576
  39   2.0000      -0.616832       -16.7848
  40   2.0000      -0.596882       -16.2420
  41   2.0000      -0.583656       -15.8821
  42   2.0000      -0.560979       -15.2650
  43   2.0000      -0.545782       -14.8515
  44   2.0000      -0.538613       -14.6564
  45   2.0000      -0.525195       -14.2913
  46   2.0000      -0.513727       -13.9792
  47   2.0000      -0.509675       -13.8690
  48   2.0000      -0.500051       -13.6071
  49   2.0000      -0.495144       -13.4735
  50   2.0000      -0.494124       -13.4458
  51   2.0000      -0.482109       -13.1189
  52   2.0000      -0.472836       -12.8665
  53   2.0000      -0.464855       -12.6493
  54   2.0000      -0.456500       -12.4220
  55   2.0000      -0.445828       -12.1316
  56   2.0000      -0.440010       -11.9733
  57   2.0000      -0.433328       -11.7915
  58   2.0000      -0.424636       -11.5549
  59   2.0000      -0.423243       -11.5170
  60   2.0000      -0.421736       -11.4760
  61   2.0000      -0.415567       -11.3082
  62   2.0000      -0.403471       -10.9790
  63   2.0000      -0.342775        -9.3274
  64   2.0000      -0.330121        -8.9830
  65   2.0000      -0.324354        -8.8261
  66   2.0000      -0.296500        -8.0682
  67   0.0000       0.034773         0.9462
  68   0.0000       0.065169         1.7733
  69   0.0000       0.116387         3.1671
  70   0.0000       0.124406         3.3853
  71   0.0000       0.126462         3.4412

MULLIKEN ATOMIC CHARGES
-----------------------
   0 S :    0.111732
   1 C :   -0.132928
   2 C :   -0.080730
   3 C :    0.050716
   4 C :   -0.174166
   5 H :    0.017383
   6 C :    0.052562
   7 H :    0.001948
   8 H :    0.024852
   9 C :   -0.031992
  10 H :    0.042410
  11 H :    0.023731
  12 C :   -0.079713
  13 H :    0.039188
  14 H :    0.034659
  15 H :    0.039263
  16 S :    0.111449
  17 C :   -0.089813
  18 C :   -0.029414
  19 C :   -0.093149
  20 C :   -0.161958
  21 H :    0.037106
  22 C :    0.105318
  23 H :    0.014628
  24 H :   -0.006658
  25 C :   -0.012497
  26 H :    0.023963
  27 H :    0.013734
  28 C :   -0.069985
  29 H :    0.038391
  30 H :    0.033861
  31 H :    0.027815
  32 H :    0.061230
  33 H :    0.057063
Sum of atomic charges:   -0.0000000

LOEWDIN ATOMIC CHARGES
----------------------
   0 S :    0.392278
   1 C :   -0.193532
   2 C :   -0.065284
   3 C :   -0.056904
   4 C :   -0.187502
   5 H :    0.031423
   6 C :   -0.041326
   7 H :    0.028027
   8 H :    0.030255
   9 C :   -0.043852
  10 H :    0.030911
  11 H :    0.024120
  12 C :   -0.065339
  13 H :    0.032758
  14 H :    0.017662
  15 H :    0.035724
  16 S :    0.440177
  17 C :   -0.187674
  18 C :   -0.079838
  19 C :   -0.053539
  20 C :   -0.234479
  21 H :    0.041504
  22 C :   -0.028302
  23 H :    0.033185
  24 H :    0.016974
  25 C :   -0.029918
  26 H :    0.025272
  27 H :    0.018036
  28 C :   -0.078521
  29 H :    0.030743
  30 H :    0.032237
  31 H :    0.023489
  32 H :    0.032834
  33 H :    0.028404

  Mayer bond orders larger than 0.100000
B(  0-S ,  1-C ) :   1.1414 B(  0-S ,  4-C ) :   1.1554 B(  1-C ,  2-C ) :   1.5867
B(  1-C ,  4-C ) :   0.1144 B(  1-C , 32-H ) :   0.9635 B(  2-C ,  3-C ) :   1.2515
B(  2-C ,  6-C ) :   1.0389 B(  3-C ,  4-C ) :   1.5707 B(  3-C ,  5-H ) :   0.9869
B(  4-C , 20-C ) :   1.0231 B(  6-C ,  7-H ) :   0.9409 B(  6-C ,  8-H ) :   0.9299
B(  6-C ,  9-C ) :   1.0499 B(  9-C , 10-H ) :   0.9578 B(  9-C , 11-H ) :   0.9468
B(  9-C , 12-C ) :   1.0997 B( 12-C , 13-H ) :   0.9718 B( 12-C , 14-H ) :   0.9749
B( 12-C , 15-H ) :   0.9724 B( 16-S , 17-C ) :   1.1743 B( 16-S , 20-C ) :   1.1583
B( 17-C , 18-C ) :   1.5861 B( 17-C , 33-H ) :   0.9663 B( 18-C , 19-C ) :   1.2595
B( 18-C , 21-H ) :   0.9878 B( 19-C , 20-C ) :   1.5876 B( 19-C , 22-C ) :   1.0361
B( 22-C , 23-H ) :   0.9308 B( 22-C , 24-H ) :   0.9263 B( 22-C , 25-C ) :   1.0653
B( 25-C , 26-H ) :   0.9541 B( 25-C , 27-H ) :   0.9556 B( 25-C , 28-C ) :   1.0656
B( 28-C , 29-H ) :   0.9752 B( 28-C , 30-H ) :   0.9744 B( 28-C , 31-H ) :   0.9748

Dispersion correction           -0.014775190
FINAL SINGLE POINT ENERGY     -1339.856495080658

DIPOLE MOMENT
-------------
                                X             Y             Z
Electronic contribution:     13.75553      21.48603      11.45812
Nuclear contribution   :    -13.84701     -21.90046     -11.92021
                        -----------------------------------------
Total Dipole Moment    :     -0.09148      -0.41443      -0.46209
                        -----------------------------------------
Magnitude (a.u.)       :      0.62741
Magnitude (Debye)      :      1.59475

Rotational constants in cm-1:     0.019887     0.008520     0.007248
Rotational constants in MHz :   596.184878   255.419326   217.297081

                             ****ORCA TERMINATED NORMALLY****
TOTAL RUN TIME: 0 days 0 hours 0 minutes 36 seconds 78 msec
