                         Program Version 4.2.1 -  RELEASE  -
|  1> ! wB97X-D3 SP def2-SVP
|  2> %pal
|  3> nprocs 16
|  4> end
|  5>
|  6> * xyz 0 1
|  7> S 	 5.60395 	 -27.8739 	 83.4529
|  8> C 	 4.79271 	 -26.6569 	 84.4344
|  9> C 	 5.45574 	 -25.4387 	 84.3906
| 10> C 	 6.45389 	 -25.4751 	 83.3995
| 11> C 	 6.75774 	 -26.7291 	 82.9425
| 12> H 	 7.02199 	 -24.5958 	 83.081
| 13> C 	 5.07981 	 -24.1253 	 84.9668
| 14> H 	 6.00799 	 -23.7018 	 85.3495
| 15> H 	 4.3859 	 -24.26 	 85.8206
| 16> C 	 4.65763 	 -23.0246 	 84.0253
| 17> H 	 5.50369 	 -22.7165 	 83.3743
| 18> H 	 3.80642 	 -23.3545 	 83.4951
| 19> C 	 4.22751 	 -21.7761 	 84.7231
| 20> H 	 3.26714 	 -21.8859 	 85.3211
| 21> H 	 4.97771 	 -21.4718 	 85.5753
| 22> H 	 4.15932 	 -20.9745 	 84.0725
| 23> S 	 7.67012 	 -28.5968 	 81.168
| 24> C 	 9.09744 	 -28.3512 	 80.2336
| 25> C 	 9.70909 	 -27.177 	 80.6469
| 26> C 	 9.0572 	 -26.3986 	 81.7105
| 27> C 	 7.91913 	 -27.1212 	 82.1339
| 28> H 	 10.6399 	 -26.9076 	 80.1247
| 29> C 	 9.5709 	 -25.0251 	 82.2308
| 30> H 	 9.65058 	 -25.1515 	 83.289
| 31> H 	 8.74447 	 -24.3107 	 82.104
| 32> C 	 10.8782 	 -24.4613 	 81.6495
| 33> H 	 10.9127 	 -24.6029 	 80.583
| 34> H 	 11.6329 	 -25.1185 	 82.164
| 35> C 	 11.0975 	 -22.9807 	 81.8871
| 36> H 	 12.1638 	 -22.6972 	 81.8767
| 37> H 	 10.6237 	 -22.7095 	 82.8159
| 38> H 	 10.5833 	 -22.554 	 81.0479
| 39> H 	 3.98985 	 -26.9018 	 85.1509
| 40> H 	 9.43894 	 -29.0432 	 79.4465
| 41> *
| 42>
| 43>                          ****END OF INPUT****

CARTESIAN COORDINATES (ANGSTROEM)
---------------------------------
  S      5.603950  -27.873900   83.452900
  C      4.792710  -26.656900   84.434400
  C      5.455740  -25.438700   84.390600
  C      6.453890  -25.475100   83.399500
  C      6.757740  -26.729100   82.942500
  H      7.021990  -24.595800   83.081000
  C      5.079810  -24.125300   84.966800
  H      6.007990  -23.701800   85.349500
  H      4.385900  -24.260000   85.820600
  C      4.657630  -23.024600   84.025300
  H      5.503690  -22.716500   83.374300
  H      3.806420  -23.354500   83.495100
  C      4.227510  -21.776100   84.723100
  H      3.267140  -21.885900   85.321100
  H      4.977710  -21.471800   85.575300
  H      4.159320  -20.974500   84.072500
  S      7.670120  -28.596800   81.168000
  C      9.097440  -28.351200   80.233600
  C      9.709090  -27.177000   80.646900
  C      9.057200  -26.398600   81.710500
  C      7.919130  -27.121200   82.133900
  H     10.639900  -26.907600   80.124700
  C      9.570900  -25.025100   82.230800
  H      9.650580  -25.151500   83.289000
  H      8.744470  -24.310700   82.104000
  C     10.878200  -24.461300   81.649500
  H     10.912700  -24.602900   80.583000
  H     11.632900  -25.118500   82.164000
  C     11.097500  -22.980700   81.887100
  H     12.163800  -22.697200   81.876700
  H     10.623700  -22.709500   82.815900
  H     10.583300  -22.554000   81.047900
  H      3.989850  -26.901800   85.150900
  H      9.438940  -29.043200   79.446500

 Total Charge           Charge          ....    0
 Multiplicity           Mult            ....    1
 Number of Electrons    NEL             ....  134
 Basis Dimension        Dim             ....  322

ORBITAL ENERGIES
----------------

  NO   OCC          E(Eh)            E(eV)
   0   2.0000     -88.964962     -2420.8597
   1   2.0000     -88.963542     -2420.8210
   2   2.0000     -10.332542      -281.1628
   3   2.0000     -10.324745      -280.9506
   4   2.0000     -10.319497      -280.8078
   5   2.0000     -10.317637      -280.7572
   6   2.0000     -10.314360      -280.6680
   7   2.0000     -10.300848      -280.3003
   8   2.0000     -10.299093      -280.2526
   9   2.0000     -10.296704      -280.1876
  10   2.0000     -10.290927      -280.0304
  11   2.0000     -10.290181      -280.0101
  12   2.0000     -10.285449      -279.8813
  13   2.0000     -10.283925      -279.8398
  14   2.0000     -10.283805      -279.8366
  15   2.0000     -10.281042      -279.7614
  16   2.0000      -8.080492      -219.8814
  17   2.0000      -8.078461      -219.8261
  18   2.0000      -6.038961      -164.3285
  19   2.0000      -6.036982      -164.2746
  20   2.0000      -6.034968      -164.2198
  21   2.0000      -6.032915      -164.1640
  22   2.0000      -6.031170      -164.1165
  23   2.0000      -6.029242      -164.0640
  24   2.0000      -1.010010       -27.4838
  25   2.0000      -0.982437       -26.7335
  26   2.0000      -0.923899       -25.1406
  27   2.0000      -0.914483       -24.8843
  28   2.0000      -0.871262       -23.7082
  29   2.0000      -0.859128       -23.3781
  30   2.0000      -0.843598       -22.9555
  31   2.0000      -0.811024       -22.0691
  32   2.0000      -0.786451       -21.4004
  33   2.0000      -0.775731       -21.1087
  34   2.0000      -0.706879       -19.2351
  35   2.0000      -0.698394       -19.0043
  36   2.0000      -0.692654       -18.8481
  37   2.0000      -0.651469       -17.7274
  38   2.0000      -0.632797       -17.2193
  39   2.0000      -0.627279       -17.0691
  40   2.0000      -0.599594       -16.3158
  41   2.0000      -0.580270       -15.7900
  42   2.0000      -0.577786       -15.7224
  43   2.0000      -0.561326       -15.2745
  44   2.0000      -0.536208       -14.5910
  45   2.0000      -0.527245       -14.3471
  46   2.0000      -0.518497       -14.1090
  47   2.0000      -0.509901       -13.8751
  48   2.0000      -0.504704       -13.7337
  49   2.0000      -0.499463       -13.5911
  50   2.0000      -0.494938       -13.4679
  51   2.0000      -0.477831       -13.0024
  52   2.0000      -0.475306       -12.9337
  53   2.0000      -0.461789       -12.5659
  54   2.0000      -0.461191       -12.5496
  55   2.0000      -0.452724       -12.3193
  56   2.0000      -0.451078       -12.2745
  57   2.0000      -0.440006       -11.9732
  58   2.0000      -0.433080       -11.7847
  59   2.0000      -0.426176       -11.5968
  60   2.0000      -0.417953       -11.3731
  61   2.0000      -0.416571       -11.3355
  62   2.0000      -0.413527       -11.2527
  63   2.0000      -0.357059        -9.7161
  64   2.0000      -0.333695        -9.0803
  65   2.0000      -0.325666        -8.8618
  66   2.0000      -0.280752        -7.6396
  67   0.0000       0.021511         0.5853
  68   0.0000       0.088013         2.3949
  69   0.0000       0.095431         2.5968
  70   0.0000       0.118296         3.2190
  71   0.0000       0.133823         3.6415

MULLIKEN ATOMIC CHARGES
-----------------------
   0 S :    0.103463
   1 C :   -0.131503
   2 C :   -0.046190
   3 C :   -0.050861
   4 C :   -0.087214
   5 H :   -0.005257
   6 C :    0.053999
   7 H :    0.015326
   8 H :    0.023125
   9 C :   -0.050262
  10 H :    0.036577
  11 H :    0.027670
  12 C :   -0.066456
  13 H :    0.037452
  14 H :    0.024560
  15 H :    0.026821
  16 S :    0.078137
  17 C :   -0.091888
  18 C :   -0.064378
  19 C :   -0.062857
  20 C :   -0.110836
  21 H :    0.026927
  22 C :    0.021699
  23 H :    0.041166
  24 H :    0.046107
  25 C :   -0.090234
  26 H :    0.033835
  27 H :    0.039644
  28 C :   -0.019302
  29 H :    0.046515
  30 H :    0.030463
  31 H :    0.033148
  32 H :    0.056902
  33 H :    0.073702
Sum of atomic charges:    0.0000000

LOEWDIN ATOMIC CHARGES
----------------------
   0 S :    0.414828
   1 C :   -0.200887
   2 C :   -0.062556
   3 C :   -0.074531
   4 C :   -0.200688
   5 H :    0.026911
   6 C :   -0.035414
   7 H :    0.032880
   8 H :    0.031242
   9 C :   -0.039202
  10 H :    0.030200
  11 H :    0.021881
  12 C :   -0.066037
  13 H :    0.030035
  14 H :    0.029748
  15 H :    0.014866
  16 S :    0.396702
  17 C :   -0.199760
  18 C :   -0.081553
  19 C :   -0.048332
  20 C :   -0.184141
  21 H :    0.031028
  22 C :   -0.032655
  23 H :    0.034082
  24 H :    0.027188
  25 C :   -0.044301
  26 H :    0.020388
  27 H :    0.029827
  28 C :   -0.057697
  29 H :    0.034143
  30 H :    0.022599
  31 H :    0.027847
  32 H :    0.031774
  33 H :    0.039585

  Mayer bond orders larger than 0.100000
B(  0-S ,  1-C ) :   1.1283 B(  0-S ,  4-C ) :   1.1560 B(  1-C ,  2-C ) :   1.6030
B(  1-C , 32-H ) :   0.9626 B(  2-C ,  3-C ) :   1.2415 B(  2-C ,  6-C ) :   1.0531
B(  3-C ,  4-C ) :   1.5711 B(  3-C ,  5-H ) :   0.9849 B(  4-C , 20-C ) :   1.0586
B(  6-C ,  7-H ) :   0.9156 B(  6-C ,  8-H ) :   0.9466 B(  6-C ,  9-C ) :   1.0745
B(  9-C , 10-H ) :   0.9442 B(  9-C , 11-H ) :   0.9513 B(  9-C , 12-C ) :   1.0963
B( 12-C , 13-H ) :   0.9715 B( 12-C , 14-H ) :   0.9698 B( 12-C , 15-H ) :   0.9732
B( 16-S , 17-C ) :   1.1553 B( 16-S , 20-C ) :   1.1396 B( 17-C , 18-C ) :   1.6045
B( 17-C , 33-H ) :   0.9643 B( 18-C , 19-C ) :   1.2442 B( 18-C , 21-H ) :   0.9820
B( 19-C , 20-C ) :   1.5922 B( 19-C , 22-C ) :   1.0115 B( 22-C , 23-H ) :   0.9351
B( 22-C , 24-H ) :   0.9289 B( 22-C , 25-C ) :   1.0708 B( 25-C , 26-H ) :   0.9582
B( 25-C , 27-H ) :   0.9522 B( 25-C , 28-C ) :   1.0740 B( 28-C , 29-H ) :   0.9724
B( 28-C , 30-H ) :   0.9768 B( 28-C , 31-H ) :   0.9767

Dispersion correction           -0.013224186
FINAL SINGLE POINT ENERGY     -1339.870012131206

DIPOLE MOMENT
-------------
                                X             Y             Z
Electronic contribution:     -5.84397     -32.01524      -5.75627
Nuclear contribution   :      6.15185      32.79002       5.73294
                        -----------------------------------------
Total Dipole Moment    :      0.30788       0.77479      -0.02333
                        -----------------------------------------
Magnitude (a.u.)       :      0.83404
Magnitude (Debye)      :      2.11996

Rotational constants in cm-1:     0.015525     0.009354     0.006098
Rotational constants in MHz :   465.440278   280.429165   182.805879

                             ****ORCA TERMINATED NORMALLY****
TOTAL RUN TIME: 0 days 0 hours 0 minutes 31 seconds 478 msec
