                         Program Version 4.2.1 -  RELEASE  -
|  1> ! wB97X-D3 SP def2-SVP
|  2> %pal
|  3> nprocs 16
|  4> end
|  5>
|  6> * xyz 0 1
|  7> S 	 51.019 	 5.31311 	 82.8831
|  8> C 	 50.0298 	 5.7376 	 84.214
|  9> C 	 48.6772 	 5.43217 	 84.0434
| 10> C 	 48.42 	 4.89779 	 82.7851
| 11> C 	 49.5833 	 4.60196 	 82.1581
| 12> H 	 47.4925 	 4.55337 	 82.3481
| 13> C 	 47.5587 	 5.83608 	 85.0056
| 14> H 	 46.9099 	 6.57132 	 84.4659
| 15> H 	 47.9916 	 6.5203 	 85.7177
| 16> C 	 46.6596 	 4.76335 	 85.5288
| 17> H 	 45.833 	 5.12573 	 86.1456
| 18> H 	 46.1637 	 4.36391 	 84.7049
| 19> C 	 47.3462 	 3.67302 	 86.3892
| 20> H 	 46.7266 	 2.72684 	 86.4019
| 21> H 	 48.3707 	 3.52484 	 85.9467
| 22> H 	 47.4982 	 4.04864 	 87.393
| 23> S 	 50.5557 	 4.50624 	 79.5155
| 24> C 	 50.022 	 3.25907 	 78.4858
| 25> C 	 49.3685 	 2.27771 	 79.193
| 26> C 	 49.1201 	 2.58318 	 80.5693
| 27> C 	 49.6732 	 3.82685 	 80.9117
| 28> H 	 49.0877 	 1.35555 	 78.6808
| 29> C 	 48.3964 	 1.56997 	 81.4581
| 30> H 	 47.5916 	 1.20053 	 80.8888
| 31> H 	 48.1612 	 2.02815 	 82.4132
| 32> C 	 49.2836 	 0.366932 	 81.8193
| 33> H 	 50.248 	 0.62158 	 82.3547
| 34> H 	 49.6228 	 0.0228226 	 80.8945
| 35> C 	 48.4689 	 -0.832368 	 82.3406
| 36> H 	 49.0719 	 -1.70139 	 82.4857
| 37> H 	 47.8057 	 -1.02609 	 81.5193
| 38> H 	 47.9527 	 -0.672039 	 83.2721
| 39> H 	 50.3976 	 6.22431 	 85.1298
| 40> H 	 50.4974 	 3.0945 	 77.5079
| 41> *
| 42>
| 43>                          ****END OF INPUT****

CARTESIAN COORDINATES (ANGSTROEM)
---------------------------------
  S     51.019000    5.313110   82.883100
  C     50.029800    5.737600   84.214000
  C     48.677200    5.432170   84.043400
  C     48.420000    4.897790   82.785100
  C     49.583300    4.601960   82.158100
  H     47.492500    4.553370   82.348100
  C     47.558700    5.836080   85.005600
  H     46.909900    6.571320   84.465900
  H     47.991600    6.520300   85.717700
  C     46.659600    4.763350   85.528800
  H     45.833000    5.125730   86.145600
  H     46.163700    4.363910   84.704900
  C     47.346200    3.673020   86.389200
  H     46.726600    2.726840   86.401900
  H     48.370700    3.524840   85.946700
  H     47.498200    4.048640   87.393000
  S     50.555700    4.506240   79.515500
  C     50.022000    3.259070   78.485800
  C     49.368500    2.277710   79.193000
  C     49.120100    2.583180   80.569300
  C     49.673200    3.826850   80.911700
  H     49.087700    1.355550   78.680800
  C     48.396400    1.569970   81.458100
  H     47.591600    1.200530   80.888800
  H     48.161200    2.028150   82.413200
  C     49.283600    0.366932   81.819300
  H     50.248000    0.621580   82.354700
  H     49.622800    0.022823   80.894500
  C     48.468900   -0.832368   82.340600
  H     49.071900   -1.701390   82.485700
  H     47.805700   -1.026090   81.519300
  H     47.952700   -0.672039   83.272100
  H     50.397600    6.224310   85.129800
  H     50.497400    3.094500   77.507900

 Total Charge           Charge          ....    0
 Multiplicity           Mult            ....    1
 Number of Electrons    NEL             ....  134
 Basis Dimension        Dim             ....  322

ORBITAL ENERGIES
----------------

  NO   OCC          E(Eh)            E(eV)
   0   2.0000     -88.970913     -2421.0216
   1   2.0000     -88.962334     -2420.7882
   2   2.0000     -10.328464      -281.0518
   3   2.0000     -10.325880      -280.9815
   4   2.0000     -10.313342      -280.6403
   5   2.0000     -10.313122      -280.6343
   6   2.0000     -10.305782      -280.4346
   7   2.0000     -10.299758      -280.2707
   8   2.0000     -10.292576      -280.0752
   9   2.0000     -10.290966      -280.0314
  10   2.0000     -10.289308      -279.9863
  11   2.0000     -10.288628      -279.9678
  12   2.0000     -10.281851      -279.7834
  13   2.0000     -10.280803      -279.7549
  14   2.0000     -10.279617      -279.7226
  15   2.0000     -10.273713      -279.5619
  16   2.0000      -8.086248      -220.0380
  17   2.0000      -8.077642      -219.8038
  18   2.0000      -6.044538      -164.4802
  19   2.0000      -6.040916      -164.3817
  20   2.0000      -6.036965      -164.2742
  21   2.0000      -6.036091      -164.2504
  22   2.0000      -6.032079      -164.1412
  23   2.0000      -6.028437      -164.0421
  24   2.0000      -1.011211       -27.5164
  25   2.0000      -0.988299       -26.8930
  26   2.0000      -0.913715       -24.8635
  27   2.0000      -0.912741       -24.8369
  28   2.0000      -0.868060       -23.6211
  29   2.0000      -0.856235       -23.2993
  30   2.0000      -0.848994       -23.1023
  31   2.0000      -0.811387       -22.0790
  32   2.0000      -0.784899       -21.3582
  33   2.0000      -0.771402       -20.9909
  34   2.0000      -0.707077       -19.2405
  35   2.0000      -0.696939       -18.9647
  36   2.0000      -0.690591       -18.7919
  37   2.0000      -0.657539       -17.8925
  38   2.0000      -0.642273       -17.4771
  39   2.0000      -0.624505       -16.9936
  40   2.0000      -0.597887       -16.2693
  41   2.0000      -0.574484       -15.6325
  42   2.0000      -0.562369       -15.3028
  43   2.0000      -0.550656       -14.9841
  44   2.0000      -0.541143       -14.7253
  45   2.0000      -0.521060       -14.1788
  46   2.0000      -0.517360       -14.0781
  47   2.0000      -0.512839       -13.9551
  48   2.0000      -0.500663       -13.6237
  49   2.0000      -0.492389       -13.3986
  50   2.0000      -0.490847       -13.3566
  51   2.0000      -0.486572       -13.2403
  52   2.0000      -0.468678       -12.7534
  53   2.0000      -0.464371       -12.6362
  54   2.0000      -0.460990       -12.5442
  55   2.0000      -0.452571       -12.3151
  56   2.0000      -0.448252       -12.1976
  57   2.0000      -0.442357       -12.0371
  58   2.0000      -0.435918       -11.8619
  59   2.0000      -0.422800       -11.5050
  60   2.0000      -0.417811       -11.3692
  61   2.0000      -0.415371       -11.3028
  62   2.0000      -0.413395       -11.2491
  63   2.0000      -0.348451        -9.4818
  64   2.0000      -0.334922        -9.1137
  65   2.0000      -0.329316        -8.9611
  66   2.0000      -0.289399        -7.8749
  67   0.0000       0.030538         0.8310
  68   0.0000       0.069652         1.8953
  69   0.0000       0.109542         2.9808
  70   0.0000       0.122182         3.3247
  71   0.0000       0.126693         3.4475

MULLIKEN ATOMIC CHARGES
-----------------------
   0 S :    0.130869
   1 C :   -0.117565
   2 C :   -0.103175
   3 C :    0.037051
   4 C :   -0.163565
   5 H :    0.022214
   6 C :    0.064271
   7 H :    0.035003
   8 H :    0.002730
   9 C :   -0.031250
  10 H :    0.025304
  11 H :    0.006440
  12 C :   -0.080907
  13 H :    0.048467
  14 H :    0.045090
  15 H :    0.030916
  16 S :    0.097025
  17 C :   -0.091617
  18 C :   -0.063998
  19 C :   -0.039381
  20 C :   -0.174079
  21 H :    0.022692
  22 C :    0.124612
  23 H :    0.009669
  24 H :    0.026273
  25 C :   -0.089210
  26 H :    0.043073
  27 H :   -0.005166
  28 C :   -0.015312
  29 H :    0.028311
  30 H :    0.020523
  31 H :    0.032272
  32 H :    0.050673
  33 H :    0.071750
Sum of atomic charges:   -0.0000000

LOEWDIN ATOMIC CHARGES
----------------------
   0 S :    0.419834
   1 C :   -0.213184
   2 C :   -0.065204
   3 C :   -0.055853
   4 C :   -0.184257
   5 H :    0.037283
   6 C :   -0.035249
   7 H :    0.041407
   8 H :    0.023280
   9 C :   -0.045099
  10 H :    0.028204
  11 H :    0.013880
  12 C :   -0.071315
  13 H :    0.033388
  14 H :    0.030365
  15 H :    0.022035
  16 S :    0.402850
  17 C :   -0.206222
  18 C :   -0.078080
  19 C :   -0.053253
  20 C :   -0.192035
  21 H :    0.030677
  22 C :   -0.019920
  23 H :    0.024895
  24 H :    0.029645
  25 C :   -0.039581
  26 H :    0.031409
  27 H :    0.010870
  28 C :   -0.056606
  29 H :    0.024691
  30 H :    0.024190
  31 H :    0.021346
  32 H :    0.029714
  33 H :    0.035895

  Mayer bond orders larger than 0.100000
B(  0-S ,  1-C ) :   1.1439 B(  0-S ,  4-C ) :   1.1547 B(  1-C ,  2-C ) :   1.6050
B(  1-C , 32-H ) :   0.9604 B(  2-C ,  3-C ) :   1.2263 B(  2-C ,  6-C ) :   1.0211
B(  3-C ,  4-C ) :   1.5901 B(  3-C ,  5-H ) :   0.9951 B(  4-C , 20-C ) :   1.0265
B(  6-C ,  7-H ) :   0.9377 B(  6-C ,  8-H ) :   0.9413 B(  6-C ,  9-C ) :   1.0717
B(  9-C , 10-H ) :   0.9513 B(  9-C , 11-H ) :   0.9534 B(  9-C , 12-C ) :   1.0689
B( 12-C , 13-H ) :   0.9751 B( 12-C , 14-H ) :   0.9776 B( 12-C , 15-H ) :   0.9760
B( 16-S , 17-C ) :   1.1661 B( 16-S , 20-C ) :   1.1439 B( 17-C , 18-C ) :   1.6068
B( 17-C , 20-C ) :   0.1000 B( 17-C , 33-H ) :   0.9588 B( 18-C , 19-C ) :   1.2428
B( 18-C , 21-H ) :   0.9846 B( 19-C , 20-C ) :   1.5890 B( 19-C , 22-C ) :   1.0477
B( 22-C , 23-H ) :   0.9260 B( 22-C , 24-H ) :   0.9297 B( 22-C , 25-C ) :   1.0763
B( 25-C , 26-H ) :   0.9534 B( 25-C , 27-H ) :   0.9547 B( 25-C , 28-C ) :   1.0709
B( 28-C , 29-H ) :   0.9734 B( 28-C , 30-H ) :   0.9754 B( 28-C , 31-H ) :   0.9782

Dispersion correction           -0.014250980
FINAL SINGLE POINT ENERGY     -1339.874623100371

DIPOLE MOMENT
-------------
                                X             Y             Z
Electronic contribution:     17.35258      17.51414     -17.12170
Nuclear contribution   :    -17.75555     -17.89271      17.31053
                        -----------------------------------------
Total Dipole Moment    :     -0.40297      -0.37856       0.18883
                        -----------------------------------------
Magnitude (a.u.)       :      0.58426
Magnitude (Debye)      :      1.48506

Rotational constants in cm-1:     0.016535     0.009831     0.006997
Rotational constants in MHz :   495.700459   294.729500   209.766571

                             ****ORCA TERMINATED NORMALLY****
TOTAL RUN TIME: 0 days 0 hours 0 minutes 28 seconds 949 msec
