                         Program Version 4.2.1 -  RELEASE  -
|  1> ! wB97X-D3 SP def2-SVP
|  2> %pal
|  3> nprocs 16
|  4> end
|  5>
|  6> * xyz 0 1
|  7> S 	 6.08541 	 23.4351 	 63.6992
|  8> C 	 7.60441 	 23.1073 	 64.5097
|  9> C 	 7.95519 	 24.1501 	 65.3397
| 10> C 	 7.10953 	 25.2973 	 65.2596
| 11> C 	 6.10702 	 25.1132 	 64.3668
| 12> H 	 7.17522 	 26.1113 	 65.9821
| 13> C 	 9.04964 	 24.0662 	 66.3615
| 14> H 	 9.56115 	 25.0122 	 66.391
| 15> H 	 9.75979 	 23.3049 	 65.9464
| 16> C 	 8.63191 	 23.4785 	 67.7658
| 17> H 	 9.5383 	 23.5866 	 68.387
| 18> H 	 7.83562 	 24.1619 	 68.1209
| 19> C 	 8.2673 	 22.0629 	 67.6305
| 20> H 	 8.16102 	 21.5447 	 68.5723
| 21> H 	 7.37403 	 21.9866 	 67.1305
| 22> H 	 8.90726 	 21.4913 	 66.9053
| 23> S 	 4.02637 	 26.6118 	 65.3988
| 24> C 	 2.8577 	 27.4621 	 64.4464
| 25> C 	 3.03607 	 27.0731 	 63.1499
| 26> C 	 4.27022 	 26.3382 	 62.9066
| 27> C 	 5.00467 	 26.0555 	 64.0527
| 28> H 	 2.31376 	 27.4392 	 62.4353
| 29> C 	 4.75853 	 26.009 	 61.5282
| 30> H 	 5.83331 	 25.7391 	 61.5487
| 31> H 	 4.89075 	 27.0798 	 61.1445
| 32> C 	 3.87427 	 24.9709 	 60.7623
| 33> H 	 2.83613 	 25.36 	 60.791
| 34> H 	 3.81473 	 24.0556 	 61.4641
| 35> C 	 4.43344 	 24.5949 	 59.3746
| 36> H 	 3.68131 	 24.1138 	 58.732
| 37> H 	 5.24869 	 23.935 	 59.4101
| 38> H 	 4.72256 	 25.5242 	 58.9164
| 39> H 	 8.05742 	 22.1326 	 64.6284
| 40> H 	 1.86234 	 27.8857 	 64.7058
| 41> *
| 42>
| 43>                          ****END OF INPUT****

CARTESIAN COORDINATES (ANGSTROEM)
---------------------------------
  S      6.085410   23.435100   63.699200
  C      7.604410   23.107300   64.509700
  C      7.955190   24.150100   65.339700
  C      7.109530   25.297300   65.259600
  C      6.107020   25.113200   64.366800
  H      7.175220   26.111300   65.982100
  C      9.049640   24.066200   66.361500
  H      9.561150   25.012200   66.391000
  H      9.759790   23.304900   65.946400
  C      8.631910   23.478500   67.765800
  H      9.538300   23.586600   68.387000
  H      7.835620   24.161900   68.120900
  C      8.267300   22.062900   67.630500
  H      8.161020   21.544700   68.572300
  H      7.374030   21.986600   67.130500
  H      8.907260   21.491300   66.905300
  S      4.026370   26.611800   65.398800
  C      2.857700   27.462100   64.446400
  C      3.036070   27.073100   63.149900
  C      4.270220   26.338200   62.906600
  C      5.004670   26.055500   64.052700
  H      2.313760   27.439200   62.435300
  C      4.758530   26.009000   61.528200
  H      5.833310   25.739100   61.548700
  H      4.890750   27.079800   61.144500
  C      3.874270   24.970900   60.762300
  H      2.836130   25.360000   60.791000
  H      3.814730   24.055600   61.464100
  C      4.433440   24.594900   59.374600
  H      3.681310   24.113800   58.732000
  H      5.248690   23.935000   59.410100
  H      4.722560   25.524200   58.916400
  H      8.057420   22.132600   64.628400
  H      1.862340   27.885700   64.705800

 Total Charge           Charge          ....    0
 Multiplicity           Mult            ....    1
 Number of Electrons    NEL             ....  134
 Basis Dimension        Dim             ....  322

ORBITAL ENERGIES
----------------

  NO   OCC          E(Eh)            E(eV)
   0   2.0000     -88.970473     -2421.0097
   1   2.0000     -88.959790     -2420.7190
   2   2.0000     -10.338270      -281.3186
   3   2.0000     -10.327624      -281.0289
   4   2.0000     -10.317731      -280.7597
   5   2.0000     -10.314582      -280.6740
   6   2.0000     -10.304940      -280.4117
   7   2.0000     -10.297789      -280.2171
   8   2.0000     -10.297414      -280.2069
   9   2.0000     -10.295842      -280.1641
  10   2.0000     -10.293286      -280.0946
  11   2.0000     -10.293123      -280.0901
  12   2.0000     -10.290911      -280.0299
  13   2.0000     -10.290566      -280.0205
  14   2.0000     -10.274300      -279.5779
  15   2.0000     -10.270513      -279.4749
  16   2.0000      -8.083872      -219.9733
  17   2.0000      -8.074879      -219.7286
  18   2.0000      -6.042550      -164.4261
  19   2.0000      -6.038738      -164.3224
  20   2.0000      -6.034363      -164.2034
  21   2.0000      -6.033494      -164.1797
  22   2.0000      -6.029237      -164.0639
  23   2.0000      -6.025557      -163.9638
  24   2.0000      -1.006372       -27.3848
  25   2.0000      -0.986463       -26.8430
  26   2.0000      -0.915914       -24.9233
  27   2.0000      -0.901575       -24.5331
  28   2.0000      -0.871749       -23.7215
  29   2.0000      -0.854244       -23.2452
  30   2.0000      -0.844683       -22.9850
  31   2.0000      -0.820432       -22.3251
  32   2.0000      -0.780141       -21.2287
  33   2.0000      -0.767777       -20.8923
  34   2.0000      -0.709867       -19.3165
  35   2.0000      -0.698880       -19.0175
  36   2.0000      -0.694408       -18.8958
  37   2.0000      -0.657628       -17.8950
  38   2.0000      -0.635942       -17.3049
  39   2.0000      -0.620913       -16.8959
  40   2.0000      -0.588756       -16.0209
  41   2.0000      -0.573085       -15.5944
  42   2.0000      -0.555825       -15.1248
  43   2.0000      -0.552196       -15.0260
  44   2.0000      -0.548170       -14.9165
  45   2.0000      -0.525456       -14.2984
  46   2.0000      -0.517170       -14.0729
  47   2.0000      -0.513488       -13.9727
  48   2.0000      -0.503741       -13.7075
  49   2.0000      -0.497483       -13.5372
  50   2.0000      -0.492631       -13.4052
  51   2.0000      -0.477108       -12.9828
  52   2.0000      -0.474669       -12.9164
  53   2.0000      -0.468080       -12.7371
  54   2.0000      -0.457804       -12.4575
  55   2.0000      -0.445800       -12.1308
  56   2.0000      -0.444813       -12.1040
  57   2.0000      -0.438664       -11.9367
  58   2.0000      -0.433638       -11.7999
  59   2.0000      -0.422800       -11.5050
  60   2.0000      -0.418408       -11.3855
  61   2.0000      -0.412617       -11.2279
  62   2.0000      -0.397919       -10.8279
  63   2.0000      -0.352714        -9.5978
  64   2.0000      -0.332073        -9.0362
  65   2.0000      -0.320484        -8.7208
  66   2.0000      -0.298198        -8.1144
  67   0.0000       0.027602         0.7511
  68   0.0000       0.064920         1.7666
  69   0.0000       0.098020         2.6673
  70   0.0000       0.118070         3.2129
  71   0.0000       0.128527         3.4974

MULLIKEN ATOMIC CHARGES
-----------------------
   0 S :    0.106957
   1 C :   -0.105779
   2 C :   -0.114655
   3 C :    0.022190
   4 C :   -0.121104
   5 H :    0.028906
   6 C :    0.011479
   7 H :    0.027786
   8 H :    0.022863
   9 C :   -0.038919
  10 H :    0.038018
  11 H :    0.037642
  12 C :   -0.024406
  13 H :    0.039791
  14 H :    0.016311
  15 H :    0.017472
  16 S :    0.082921
  17 C :   -0.088008
  18 C :   -0.049259
  19 C :   -0.080558
  20 C :   -0.116348
  21 H :    0.021136
  22 C :    0.008441
  23 H :    0.024225
  24 H :    0.044437
  25 C :   -0.099624
  26 H :    0.033776
  27 H :    0.039196
  28 C :    0.001170
  29 H :    0.035397
  30 H :    0.030118
  31 H :    0.027007
  32 H :    0.044678
  33 H :    0.076742
Sum of atomic charges:   -0.0000000

LOEWDIN ATOMIC CHARGES
----------------------
   0 S :    0.388267
   1 C :   -0.197650
   2 C :   -0.066316
   3 C :   -0.060578
   4 C :   -0.165898
   5 H :    0.038398
   6 C :   -0.035253
   7 H :    0.025951
   8 H :    0.031333
   9 C :   -0.034462
  10 H :    0.027411
  11 H :    0.028433
  12 C :   -0.066206
  13 H :    0.029286
  14 H :    0.016781
  15 H :    0.028270
  16 S :    0.405217
  17 C :   -0.201220
  18 C :   -0.077291
  19 C :   -0.063135
  20 C :   -0.201448
  21 H :    0.029595
  22 C :   -0.052808
  23 H :    0.027742
  24 H :    0.042325
  25 C :   -0.043882
  26 H :    0.024877
  27 H :    0.029624
  28 C :   -0.059763
  29 H :    0.030625
  30 H :    0.021541
  31 H :    0.025354
  32 H :    0.027320
  33 H :    0.047561

  Mayer bond orders larger than 0.100000
B(  0-S ,  1-C ) :   1.1184 B(  0-S ,  4-C ) :   1.1325 B(  1-C ,  2-C ) :   1.6376
B(  1-C , 32-H ) :   0.9615 B(  2-C ,  3-C ) :   1.2252 B(  2-C ,  6-C ) :   1.0311
B(  3-C ,  4-C ) :   1.5836 B(  3-C ,  5-H ) :   0.9947 B(  4-C , 20-C ) :   1.0394
B(  6-C ,  7-H ) :   0.9418 B(  6-C ,  8-H ) :   0.9435 B(  6-C ,  9-C ) :   1.0568
B(  9-C , 10-H ) :   0.9556 B(  9-C , 11-H ) :   0.9541 B(  9-C , 12-C ) :   1.0807
B( 12-C , 13-H ) :   0.9669 B( 12-C , 14-H ) :   0.9656 B( 12-C , 15-H ) :   0.9689
B( 16-S , 17-C ) :   1.1559 B( 16-S , 20-C ) :   1.1285 B( 17-C , 18-C ) :   1.6248
B( 17-C , 33-H ) :   0.9569 B( 18-C , 19-C ) :   1.2335 B( 18-C , 21-H ) :   0.9888
B( 19-C , 20-C ) :   1.5875 B( 19-C , 22-C ) :   1.0432 B( 22-C , 23-H ) :   0.9424
B( 22-C , 24-H ) :   0.9361 B( 22-C , 25-C ) :   1.0289 B( 25-C , 26-H ) :   0.9613
B( 25-C , 27-H ) :   0.9543 B( 25-C , 28-C ) :   1.0705 B( 28-C , 29-H ) :   0.9745
B( 28-C , 30-H ) :   0.9753 B( 28-C , 31-H ) :   0.9747

Dispersion correction           -0.014762257
FINAL SINGLE POINT ENERGY     -1339.863273490879

DIPOLE MOMENT
-------------
                                X             Y             Z
Electronic contribution:     -8.06312       8.10734       4.25791
Nuclear contribution   :      8.07296      -8.22420      -4.25750
                        -----------------------------------------
Total Dipole Moment    :      0.00983      -0.11686       0.00041
                        -----------------------------------------
Magnitude (a.u.)       :      0.11728
Magnitude (Debye)      :      0.29809

Rotational constants in cm-1:     0.021977     0.008192     0.006422
Rotational constants in MHz :   658.846659   245.591057   192.527725

                             ****ORCA TERMINATED NORMALLY****
TOTAL RUN TIME: 0 days 0 hours 0 minutes 34 seconds 808 msec
