                         Program Version 4.2.1 -  RELEASE  -
|  1> ! wB97X-D3 SP def2-SVP
|  2> %pal
|  3> nprocs 16
|  4> end
|  5>
|  6> * xyz 0 1
|  7> S 	 -67.3139 	 53.8341 	 133.023
|  8> C 	 -67.8511 	 55.031 	 134.171
|  9> C 	 -68.4078 	 54.5003 	 135.366
| 10> C 	 -68.2843 	 53.0324 	 135.281
| 11> C 	 -67.6968 	 52.5505 	 134.088
| 12> H 	 -68.5822 	 52.382 	 135.94
| 13> C 	 -69.1543 	 55.2346 	 136.43
| 14> H 	 -68.8992 	 56.289 	 136.496
| 15> H 	 -68.7531 	 54.8124 	 137.405
| 16> C 	 -70.6672 	 55.1128 	 136.344
| 17> H 	 -70.8602 	 55.4642 	 135.338
| 18> H 	 -71.0852 	 54.1106 	 136.293
| 19> C 	 -71.4037 	 55.8315 	 137.497
| 20> H 	 -70.8876 	 55.8513 	 138.42
| 21> H 	 -71.593 	 56.8657 	 137.172
| 22> H 	 -72.3633 	 55.3658 	 137.853
| 23> S 	 -65.7244 	 50.8513 	 133.62
| 24> C 	 -66.0025 	 49.1534 	 133.589
| 25> C 	 -67.2485 	 48.8982 	 134.041
| 26> C 	 -68.09 	 50.0384 	 134.235
| 27> C 	 -67.3829 	 51.1936 	 133.88
| 28> H 	 -67.4655 	 47.8145 	 134.224
| 29> C 	 -69.455 	 49.8327 	 134.849
| 30> H 	 -69.7972 	 50.8765 	 134.963
| 31> H 	 -69.4414 	 49.1986 	 135.748
| 32> C 	 -70.4898 	 49.2249 	 133.838
| 33> H 	 -70.0627 	 48.3566 	 133.216
| 34> H 	 -70.4973 	 49.9749 	 133.055
| 35> C 	 -71.9668 	 48.9412 	 134.38
| 36> H 	 -72.6035 	 49.908 	 134.439
| 37> H 	 -72.0417 	 48.3733 	 135.408
| 38> H 	 -72.4257 	 48.2673 	 133.686
| 39> H 	 -68.025 	 56.078 	 133.916
| 40> H 	 -65.2539 	 48.3708 	 133.319
| 41> *
| 42>
| 43>                          ****END OF INPUT****

CARTESIAN COORDINATES (ANGSTROEM)
---------------------------------
  S    -67.313900   53.834100  133.023000
  C    -67.851100   55.031000  134.171000
  C    -68.407800   54.500300  135.366000
  C    -68.284300   53.032400  135.281000
  C    -67.696800   52.550500  134.088000
  H    -68.582200   52.382000  135.940000
  C    -69.154300   55.234600  136.430000
  H    -68.899200   56.289000  136.496000
  H    -68.753100   54.812400  137.405000
  C    -70.667200   55.112800  136.344000
  H    -70.860200   55.464200  135.338000
  H    -71.085200   54.110600  136.293000
  C    -71.403700   55.831500  137.497000
  H    -70.887600   55.851300  138.420000
  H    -71.593000   56.865700  137.172000
  H    -72.363300   55.365800  137.853000
  S    -65.724400   50.851300  133.620000
  C    -66.002500   49.153400  133.589000
  C    -67.248500   48.898200  134.041000
  C    -68.090000   50.038400  134.235000
  C    -67.382900   51.193600  133.880000
  H    -67.465500   47.814500  134.224000
  C    -69.455000   49.832700  134.849000
  H    -69.797200   50.876500  134.963000
  H    -69.441400   49.198600  135.748000
  C    -70.489800   49.224900  133.838000
  H    -70.062700   48.356600  133.216000
  H    -70.497300   49.974900  133.055000
  C    -71.966800   48.941200  134.380000
  H    -72.603500   49.908000  134.439000
  H    -72.041700   48.373300  135.408000
  H    -72.425700   48.267300  133.686000
  H    -68.025000   56.078000  133.916000
  H    -65.253900   48.370800  133.319000

 Total Charge           Charge          ....    0
 Multiplicity           Mult            ....    1
 Number of Electrons    NEL             ....  134
 Basis Dimension        Dim             ....  322

ORBITAL ENERGIES
----------------

  NO   OCC          E(Eh)            E(eV)
   0   2.0000     -88.970688     -2421.0155
   1   2.0000     -88.961258     -2420.7589
   2   2.0000     -10.324444      -280.9424
   3   2.0000     -10.322166      -280.8804
   4   2.0000     -10.317366      -280.7498
   5   2.0000     -10.311224      -280.5827
   6   2.0000     -10.310555      -280.5645
   7   2.0000     -10.303479      -280.3719
   8   2.0000     -10.298910      -280.2476
   9   2.0000     -10.297832      -280.2182
  10   2.0000     -10.297267      -280.2029
  11   2.0000     -10.295981      -280.1679
  12   2.0000     -10.289371      -279.9880
  13   2.0000     -10.288488      -279.9640
  14   2.0000     -10.288378      -279.9610
  15   2.0000     -10.282384      -279.7979
  16   2.0000      -8.085848      -220.0271
  17   2.0000      -8.077575      -219.8020
  18   2.0000      -6.044335      -164.4747
  19   2.0000      -6.040182      -164.3617
  20   2.0000      -6.036718      -164.2674
  21   2.0000      -6.036020      -164.2485
  22   2.0000      -6.031951      -164.1377
  23   2.0000      -6.028186      -164.0353
  24   2.0000      -1.015512       -27.6335
  25   2.0000      -0.985016       -26.8037
  26   2.0000      -0.917268       -24.9601
  27   2.0000      -0.901729       -24.5373
  28   2.0000      -0.875310       -23.8184
  29   2.0000      -0.851473       -23.1698
  30   2.0000      -0.840566       -22.8730
  31   2.0000      -0.811579       -22.0842
  32   2.0000      -0.783131       -21.3101
  33   2.0000      -0.771115       -20.9831
  34   2.0000      -0.712210       -19.3802
  35   2.0000      -0.702366       -19.1123
  36   2.0000      -0.689887       -18.7728
  37   2.0000      -0.662910       -18.0387
  38   2.0000      -0.642616       -17.4865
  39   2.0000      -0.622686       -16.9441
  40   2.0000      -0.593364       -16.1463
  41   2.0000      -0.568643       -15.4736
  42   2.0000      -0.562413       -15.3040
  43   2.0000      -0.555675       -15.1207
  44   2.0000      -0.525285       -14.2937
  45   2.0000      -0.521851       -14.2003
  46   2.0000      -0.516353       -14.0507
  47   2.0000      -0.509107       -13.8535
  48   2.0000      -0.505941       -13.7673
  49   2.0000      -0.499806       -13.6004
  50   2.0000      -0.494808       -13.4644
  51   2.0000      -0.482836       -13.1386
  52   2.0000      -0.467406       -12.7188
  53   2.0000      -0.459872       -12.5138
  54   2.0000      -0.458684       -12.4814
  55   2.0000      -0.454187       -12.3591
  56   2.0000      -0.443483       -12.0678
  57   2.0000      -0.439049       -11.9471
  58   2.0000      -0.430523       -11.7151
  59   2.0000      -0.428061       -11.6481
  60   2.0000      -0.424671       -11.5559
  61   2.0000      -0.411602       -11.2003
  62   2.0000      -0.409164       -11.1339
  63   2.0000      -0.348761        -9.4903
  64   2.0000      -0.328799        -8.9471
  65   2.0000      -0.324853        -8.8397
  66   2.0000      -0.289845        -7.8871
  67   0.0000       0.028320         0.7706
  68   0.0000       0.075119         2.0441
  69   0.0000       0.106295         2.8924
  70   0.0000       0.116867         3.1801
  71   0.0000       0.126741         3.4488

MULLIKEN ATOMIC CHARGES
-----------------------
   0 S :    0.135409
   1 C :   -0.118182
   2 C :   -0.095754
   3 C :    0.100499
   4 C :   -0.185622
   5 H :   -0.064657
   6 C :    0.051377
   7 H :    0.024240
   8 H :    0.034799
   9 C :   -0.059120
  10 H :    0.022293
  11 H :    0.026138
  12 C :   -0.047900
  13 H :    0.022118
  14 H :    0.040387
  15 H :    0.037064
  16 S :    0.110101
  17 C :   -0.109433
  18 C :   -0.057390
  19 C :   -0.048793
  20 C :   -0.134411
  21 H :    0.031722
  22 C :    0.086327
  23 H :    0.024517
  24 H :    0.044911
  25 C :   -0.114391
  26 H :    0.037889
  27 H :    0.024040
  28 C :   -0.081813
  29 H :    0.055727
  30 H :    0.047935
  31 H :    0.037388
  32 H :    0.052439
  33 H :    0.070146
Sum of atomic charges:    0.0000000

LOEWDIN ATOMIC CHARGES
----------------------
   0 S :    0.433626
   1 C :   -0.209307
   2 C :   -0.051232
   3 C :   -0.033177
   4 C :   -0.217150
   5 H :   -0.005222
   6 C :   -0.037733
   7 H :    0.031209
   8 H :    0.037003
   9 C :   -0.042780
  10 H :    0.025307
  11 H :    0.024249
  12 C :   -0.069987
  13 H :    0.020169
  14 H :    0.029896
  15 H :    0.034145
  16 S :    0.432046
  17 C :   -0.206427
  18 C :   -0.078877
  19 C :   -0.059634
  20 C :   -0.211383
  21 H :    0.038457
  22 C :   -0.033752
  23 H :    0.034235
  24 H :    0.034333
  25 C :   -0.051804
  26 H :    0.028224
  27 H :    0.023987
  28 C :   -0.082814
  29 H :    0.036911
  30 H :    0.035776
  31 H :    0.023254
  32 H :    0.027588
  33 H :    0.040864

  Mayer bond orders larger than 0.100000
B(  0-S ,  1-C ) :   1.1514 B(  0-S ,  4-C ) :   1.1581 B(  1-C ,  2-C ) :   1.5907
B(  1-C , 32-H ) :   0.9621 B(  2-C ,  3-C ) :   1.2409 B(  2-C ,  6-C ) :   1.0432
B(  3-C ,  4-C ) :   1.5418 B(  3-C ,  5-H ) :   1.0097 B(  4-C , 20-C ) :   1.0580
B(  6-C ,  7-H ) :   0.9428 B(  6-C ,  8-H ) :   0.9301 B(  6-C ,  9-C ) :   1.0507
B(  9-C , 10-H ) :   0.9578 B(  9-C , 11-H ) :   0.9616 B(  9-C , 12-C ) :   1.0601
B( 12-C , 13-H ) :   0.9759 B( 12-C , 14-H ) :   0.9777 B( 12-C , 15-H ) :   0.9775
B( 16-S , 17-C ) :   1.1467 B( 16-S , 20-C ) :   1.1723 B( 17-C , 18-C ) :   1.6255
B( 17-C , 33-H ) :   0.9631 B( 18-C , 19-C ) :   1.2314 B( 18-C , 21-H ) :   0.9833
B( 19-C , 20-C ) :   1.5589 B( 19-C , 22-C ) :   1.0475 B( 22-C , 23-H ) :   0.9252
B( 22-C , 24-H ) :   0.9405 B( 22-C , 25-C ) :   1.0509 B( 25-C , 26-H ) :   0.9659
B( 25-C , 27-H ) :   0.9529 B( 25-C , 28-C ) :   1.0562 B( 28-C , 29-H ) :   0.9758
B( 28-C , 30-H ) :   0.9757 B( 28-C , 31-H ) :   0.9756

Dispersion correction           -0.013656910
FINAL SINGLE POINT ENERGY     -1339.845353110205

DIPOLE MOMENT
-------------
                                X             Y             Z
Electronic contribution:     28.03638      -0.20163     -14.52488
Nuclear contribution   :    -28.59003       0.09265      14.95155
                        -----------------------------------------
Total Dipole Moment    :     -0.55365      -0.10897       0.42668
                        -----------------------------------------
Magnitude (a.u.)       :      0.70743
Magnitude (Debye)      :      1.79814

Rotational constants in cm-1:     0.016241     0.008990     0.006398
Rotational constants in MHz :   486.903142   269.526128   191.803582

                             ****ORCA TERMINATED NORMALLY****
TOTAL RUN TIME: 0 days 0 hours 0 minutes 33 seconds 950 msec
