                         Program Version 4.2.1 -  RELEASE  -
|  1> ! wB97X-D3 SP def2-SVP
|  2> %pal
|  3> nprocs 16
|  4> end
|  5>
|  6> * xyz 0 1
|  7> S 	 53.884 	 19.7287 	 49.0344
|  8> C 	 54.3933 	 21.4379 	 48.9983
|  9> C 	 53.6359 	 22.2132 	 49.8606
| 10> C 	 52.5607 	 21.4962 	 50.405
| 11> C 	 52.6284 	 20.1239 	 50.2411
| 12> H 	 51.7542 	 21.9125 	 50.9875
| 13> C 	 53.7828 	 23.6885 	 50.1228
| 14> H 	 54.4669 	 24.1218 	 49.3766
| 15> H 	 54.108 	 23.8254 	 51.1759
| 16> C 	 52.4995 	 24.5412 	 49.9159
| 17> H 	 51.738 	 24.018 	 50.5446
| 18> H 	 52.4447 	 25.5604 	 50.3217
| 19> C 	 52.227 	 24.7477 	 48.4477
| 20> H 	 52.9136 	 25.4975 	 48.0795
| 21> H 	 52.4244 	 23.8207 	 47.9386
| 22> H 	 51.2418 	 25.0952 	 48.3336
| 23> S 	 52.2607 	 17.982 	 51.9449
| 24> C 	 50.6624 	 17.6174 	 52.4721
| 25> C 	 49.6891 	 18.24 	 51.7123
| 26> C 	 50.2751 	 19.1046 	 50.6481
| 27> C 	 51.687 	 19.103 	 50.6531
| 28> H 	 48.6241 	 17.9649 	 51.8317
| 29> C 	 49.4083 	 19.7088 	 49.5818
| 30> H 	 50.1299 	 20.106 	 48.8794
| 31> H 	 48.898 	 20.6277 	 50.0105
| 32> C 	 48.331 	 18.9591 	 48.7896
| 33> H 	 47.488 	 18.7297 	 49.4773
| 34> H 	 48.8448 	 18.0352 	 48.4698
| 35> C 	 47.6949 	 19.6965 	 47.57
| 36> H 	 48.5419 	 20.0616 	 46.9449
| 37> H 	 47.0337 	 20.5826 	 47.8589
| 38> H 	 46.9935 	 19.0702 	 46.927
| 39> H 	 55.3024 	 21.8999 	 48.6395
| 40> H 	 50.4529 	 16.9006 	 53.2192
| 41> *
| 42>
| 43>                          ****END OF INPUT****

CARTESIAN COORDINATES (ANGSTROEM)
---------------------------------
  S     53.884000   19.728700   49.034400
  C     54.393300   21.437900   48.998300
  C     53.635900   22.213200   49.860600
  C     52.560700   21.496200   50.405000
  C     52.628400   20.123900   50.241100
  H     51.754200   21.912500   50.987500
  C     53.782800   23.688500   50.122800
  H     54.466900   24.121800   49.376600
  H     54.108000   23.825400   51.175900
  C     52.499500   24.541200   49.915900
  H     51.738000   24.018000   50.544600
  H     52.444700   25.560400   50.321700
  C     52.227000   24.747700   48.447700
  H     52.913600   25.497500   48.079500
  H     52.424400   23.820700   47.938600
  H     51.241800   25.095200   48.333600
  S     52.260700   17.982000   51.944900
  C     50.662400   17.617400   52.472100
  C     49.689100   18.240000   51.712300
  C     50.275100   19.104600   50.648100
  C     51.687000   19.103000   50.653100
  H     48.624100   17.964900   51.831700
  C     49.408300   19.708800   49.581800
  H     50.129900   20.106000   48.879400
  H     48.898000   20.627700   50.010500
  C     48.331000   18.959100   48.789600
  H     47.488000   18.729700   49.477300
  H     48.844800   18.035200   48.469800
  C     47.694900   19.696500   47.570000
  H     48.541900   20.061600   46.944900
  H     47.033700   20.582600   47.858900
  H     46.993500   19.070200   46.927000
  H     55.302400   21.899900   48.639500
  H     50.452900   16.900600   53.219200

 Total Charge           Charge          ....    0
 Multiplicity           Mult            ....    1
 Number of Electrons    NEL             ....  134
 Basis Dimension        Dim             ....  322

ORBITAL ENERGIES
----------------

  NO   OCC          E(Eh)            E(eV)
   0   2.0000     -88.968192     -2420.9476
   1   2.0000     -88.963690     -2420.8251
   2   2.0000     -10.333206      -281.1808
   3   2.0000     -10.331811      -281.1429
   4   2.0000     -10.319900      -280.8187
   5   2.0000     -10.318220      -280.7730
   6   2.0000     -10.316807      -280.7346
   7   2.0000     -10.302240      -280.3382
   8   2.0000     -10.299659      -280.2680
   9   2.0000     -10.296637      -280.1857
  10   2.0000     -10.295979      -280.1678
  11   2.0000     -10.295969      -280.1676
  12   2.0000     -10.293473      -280.0996
  13   2.0000     -10.293451      -280.0990
  14   2.0000     -10.287735      -279.9435
  15   2.0000     -10.268607      -279.4230
  16   2.0000      -8.081676      -219.9136
  17   2.0000      -8.078529      -219.8279
  18   2.0000      -6.040308      -164.3651
  19   2.0000      -6.037031      -164.2760
  20   2.0000      -6.036423      -164.2594
  21   2.0000      -6.032942      -164.1647
  22   2.0000      -6.032297      -164.1471
  23   2.0000      -6.029347      -164.0669
  24   2.0000      -1.001530       -27.2530
  25   2.0000      -0.979584       -26.6558
  26   2.0000      -0.915239       -24.9049
  27   2.0000      -0.906118       -24.6567
  28   2.0000      -0.871640       -23.7185
  29   2.0000      -0.849452       -23.1148
  30   2.0000      -0.842527       -22.9263
  31   2.0000      -0.814399       -22.1609
  32   2.0000      -0.782434       -21.2911
  33   2.0000      -0.770779       -20.9740
  34   2.0000      -0.711562       -19.3626
  35   2.0000      -0.696451       -18.9514
  36   2.0000      -0.691776       -18.8242
  37   2.0000      -0.652661       -17.7598
  38   2.0000      -0.638062       -17.3626
  39   2.0000      -0.622565       -16.9408
  40   2.0000      -0.595059       -16.1924
  41   2.0000      -0.569189       -15.4884
  42   2.0000      -0.566325       -15.4105
  43   2.0000      -0.563423       -15.3315
  44   2.0000      -0.541195       -14.7267
  45   2.0000      -0.521980       -14.2038
  46   2.0000      -0.517708       -14.0875
  47   2.0000      -0.510369       -13.8878
  48   2.0000      -0.505350       -13.7513
  49   2.0000      -0.496454       -13.5092
  50   2.0000      -0.485526       -13.2118
  51   2.0000      -0.477778       -13.0010
  52   2.0000      -0.468997       -12.7621
  53   2.0000      -0.461944       -12.5701
  54   2.0000      -0.458701       -12.4819
  55   2.0000      -0.455470       -12.3940
  56   2.0000      -0.446546       -12.1511
  57   2.0000      -0.438612       -11.9352
  58   2.0000      -0.428260       -11.6535
  59   2.0000      -0.425164       -11.5693
  60   2.0000      -0.420549       -11.4437
  61   2.0000      -0.411235       -11.1903
  62   2.0000      -0.401111       -10.9148
  63   2.0000      -0.339004        -9.2248
  64   2.0000      -0.333802        -9.0832
  65   2.0000      -0.323892        -8.8135
  66   2.0000      -0.300639        -8.1808
  67   0.0000       0.026637         0.7248
  68   0.0000       0.056108         1.5268
  69   0.0000       0.111827         3.0430
  70   0.0000       0.114956         3.1281
  71   0.0000       0.123755         3.3675

MULLIKEN ATOMIC CHARGES
-----------------------
   0 S :    0.102766
   1 C :   -0.092165
   2 C :   -0.108609
   3 C :    0.023953
   4 C :   -0.138655
   5 H :    0.017302
   6 C :    0.060590
   7 H :    0.015818
   8 H :    0.052577
   9 C :   -0.120126
  10 H :    0.025292
  11 H :    0.029000
  12 C :   -0.008240
  13 H :    0.028186
  14 H :    0.033280
  15 H :    0.026486
  16 S :    0.096079
  17 C :   -0.073553
  18 C :   -0.039707
  19 C :   -0.054499
  20 C :   -0.144769
  21 H :    0.037526
  22 C :    0.036072
  23 H :    0.020773
  24 H :    0.034247
  25 C :   -0.067604
  26 H :    0.034091
  27 H :    0.041903
  28 C :   -0.103436
  29 H :    0.044578
  30 H :    0.043901
  31 H :    0.053055
  32 H :    0.042908
  33 H :    0.050979
Sum of atomic charges:    0.0000000

LOEWDIN ATOMIC CHARGES
----------------------
   0 S :    0.381798
   1 C :   -0.189794
   2 C :   -0.068288
   3 C :   -0.054077
   4 C :   -0.184547
   5 H :    0.031011
   6 C :   -0.031204
   7 H :    0.027669
   8 H :    0.039694
   9 C :   -0.048897
  10 H :    0.019474
  11 H :    0.026234
  12 C :   -0.055626
  13 H :    0.026404
  14 H :    0.023859
  15 H :    0.021679
  16 S :    0.397569
  17 C :   -0.175597
  18 C :   -0.080566
  19 C :   -0.038761
  20 C :   -0.204027
  21 H :    0.037542
  22 C :   -0.047608
  23 H :    0.028969
  24 H :    0.036674
  25 C :   -0.044807
  26 H :    0.024130
  27 H :    0.029253
  28 C :   -0.077775
  29 H :    0.028664
  30 H :    0.031520
  31 H :    0.036237
  32 H :    0.029621
  33 H :    0.023574

  Mayer bond orders larger than 0.100000
B(  0-S ,  1-C ) :   1.1314 B(  0-S ,  4-C ) :   1.1300 B(  1-C ,  2-C ) :   1.6309
B(  1-C ,  4-C ) :   0.1021 B(  1-C , 32-H ) :   0.9561 B(  2-C ,  3-C ) :   1.2272
B(  2-C ,  6-C ) :   1.0270 B(  3-C ,  4-C ) :   1.6066 B(  3-C ,  5-H ) :   0.9905
B(  4-C , 20-C ) :   1.0025 B(  6-C ,  7-H ) :   0.9462 B(  6-C ,  8-H ) :   0.9330
B(  6-C ,  9-C ) :   1.0633 B(  9-C , 10-H ) :   0.9552 B(  9-C , 11-H ) :   0.9565
B(  9-C , 12-C ) :   1.0712 B( 12-C , 13-H ) :   0.9702 B( 12-C , 14-H ) :   0.9795
B( 12-C , 15-H ) :   0.9709 B( 16-S , 17-C ) :   1.1770 B( 16-S , 20-C ) :   1.1125
B( 17-C , 18-C ) :   1.6091 B( 17-C , 33-H ) :   0.9693 B( 18-C , 19-C ) :   1.2136
B( 18-C , 21-H ) :   0.9852 B( 19-C , 20-C ) :   1.6004 B( 19-C , 22-C ) :   1.0583
B( 22-C , 23-H ) :   0.9376 B( 22-C , 24-H ) :   0.9230 B( 22-C , 25-C ) :   1.0628
B( 25-C , 26-H ) :   0.9493 B( 25-C , 27-H ) :   0.9558 B( 25-C , 28-C ) :   1.0774
B( 28-C , 29-H ) :   0.9753 B( 28-C , 30-H ) :   0.9741 B( 28-C , 31-H ) :   0.9745

Dispersion correction           -0.014041897
FINAL SINGLE POINT ENERGY     -1339.861008534604

DIPOLE MOMENT
-------------
                                X             Y             Z
Electronic contribution:     16.89535     -20.12743      11.29181
Nuclear contribution   :    -17.47311      20.60361     -11.22954
                        -----------------------------------------
Total Dipole Moment    :     -0.57776       0.47619       0.06226
                        -----------------------------------------
Magnitude (a.u.)       :      0.75129
Magnitude (Debye)      :      1.90963

Rotational constants in cm-1:     0.015919     0.009068     0.006998
Rotational constants in MHz :   477.237072   271.838780   209.806569

                             ****ORCA TERMINATED NORMALLY****
TOTAL RUN TIME: 0 days 0 hours 0 minutes 29 seconds 689 msec
