                         Program Version 4.2.1 -  RELEASE  -
|  1> ! wB97X-D3 SP def2-SVP
|  2> %pal
|  3> nprocs 16
|  4> end
|  5>
|  6> * xyz 0 1
|  7> S 	 -68.4661 	 51.7699 	 126.083
|  8> C 	 -67.7949 	 53.2557 	 125.451
|  9> C 	 -68.7237 	 53.9443 	 124.664
| 10> C 	 -69.9527 	 53.2283 	 124.431
| 11> C 	 -69.9242 	 52.0893 	 125.214
| 12> H 	 -70.7981 	 53.5805 	 123.859
| 13> C 	 -68.4846 	 55.3523 	 124.067
| 14> H 	 -67.4593 	 55.6017 	 124.291
| 15> H 	 -69.0026 	 56.1415 	 124.606
| 16> C 	 -68.7292 	 55.487 	 122.494
| 17> H 	 -67.7211 	 55.0622 	 122.202
| 18> H 	 -69.5339 	 54.894 	 122.098
| 19> C 	 -68.8943 	 56.8878 	 121.913
| 20> H 	 -68.0328 	 57.3421 	 121.513
| 21> H 	 -69.7465 	 57.1071 	 121.25
| 22> H 	 -69.0058 	 57.5208 	 122.801
| 23> S 	 -70.6705 	 49.5396 	 124.772
| 24> C 	 -72.2689 	 48.9135 	 125.19
| 25> C 	 -73.1054 	 50.0111 	 125.542
| 26> C 	 -72.3168 	 51.1831 	 125.743
| 27> C 	 -71.0135 	 51.12 	 125.26
| 28> H 	 -74.1648 	 49.7212 	 125.724
| 29> C 	 -72.9017 	 52.4766 	 126.242
| 30> H 	 -72.0674 	 53.1122 	 126.648
| 31> H 	 -73.5474 	 52.2754 	 127.082
| 32> C 	 -73.7548 	 53.0191 	 125.114
| 33> H 	 -74.5589 	 52.3369 	 124.962
| 34> H 	 -73.2565 	 52.9532 	 124.141
| 35> C 	 -74.3661 	 54.3988 	 125.226
| 36> H 	 -74.8135 	 54.7316 	 126.157
| 37> H 	 -75.2075 	 54.4708 	 124.567
| 38> H 	 -73.772 	 55.2254 	 124.839
| 39> H 	 -66.7632 	 53.6508 	 125.518
| 40> H 	 -72.5622 	 47.9433 	 125.324
| 41> *
| 42>
| 43>                          ****END OF INPUT****

CARTESIAN COORDINATES (ANGSTROEM)
---------------------------------
  S    -68.466100   51.769900  126.083000
  C    -67.794900   53.255700  125.451000
  C    -68.723700   53.944300  124.664000
  C    -69.952700   53.228300  124.431000
  C    -69.924200   52.089300  125.214000
  H    -70.798100   53.580500  123.859000
  C    -68.484600   55.352300  124.067000
  H    -67.459300   55.601700  124.291000
  H    -69.002600   56.141500  124.606000
  C    -68.729200   55.487000  122.494000
  H    -67.721100   55.062200  122.202000
  H    -69.533900   54.894000  122.098000
  C    -68.894300   56.887800  121.913000
  H    -68.032800   57.342100  121.513000
  H    -69.746500   57.107100  121.250000
  H    -69.005800   57.520800  122.801000
  S    -70.670500   49.539600  124.772000
  C    -72.268900   48.913500  125.190000
  C    -73.105400   50.011100  125.542000
  C    -72.316800   51.183100  125.743000
  C    -71.013500   51.120000  125.260000
  H    -74.164800   49.721200  125.724000
  C    -72.901700   52.476600  126.242000
  H    -72.067400   53.112200  126.648000
  H    -73.547400   52.275400  127.082000
  C    -73.754800   53.019100  125.114000
  H    -74.558900   52.336900  124.962000
  H    -73.256500   52.953200  124.141000
  C    -74.366100   54.398800  125.226000
  H    -74.813500   54.731600  126.157000
  H    -75.207500   54.470800  124.567000
  H    -73.772000   55.225400  124.839000
  H    -66.763200   53.650800  125.518000
  H    -72.562200   47.943300  125.324000

 Total Charge           Charge          ....    0
 Multiplicity           Mult            ....    1
 Number of Electrons    NEL             ....  134
 Basis Dimension        Dim             ....  322

ORBITAL ENERGIES
----------------

  NO   OCC          E(Eh)            E(eV)
   0   2.0000     -88.974151     -2421.1097
   1   2.0000     -88.961828     -2420.7744
   2   2.0000     -10.329501      -281.0800
   3   2.0000     -10.317883      -280.7639
   4   2.0000     -10.317014      -280.7402
   5   2.0000     -10.313217      -280.6369
   6   2.0000     -10.306345      -280.4499
   7   2.0000     -10.300693      -280.2961
   8   2.0000     -10.300400      -280.2881
   9   2.0000     -10.297463      -280.2082
  10   2.0000     -10.296457      -280.1808
  11   2.0000     -10.293280      -280.0944
  12   2.0000     -10.285794      -279.8907
  13   2.0000     -10.281270      -279.7676
  14   2.0000     -10.275733      -279.6169
  15   2.0000     -10.270725      -279.4806
  16   2.0000      -8.088823      -220.1081
  17   2.0000      -8.077235      -219.7927
  18   2.0000      -6.047304      -164.5555
  19   2.0000      -6.043365      -164.4483
  20   2.0000      -6.039574      -164.3452
  21   2.0000      -6.035656      -164.2385
  22   2.0000      -6.031357      -164.1216
  23   2.0000      -6.028344      -164.0396
  24   2.0000      -1.011634       -27.5280
  25   2.0000      -0.984939       -26.8015
  26   2.0000      -0.912159       -24.8211
  27   2.0000      -0.903633       -24.5891
  28   2.0000      -0.868638       -23.6368
  29   2.0000      -0.853465       -23.2240
  30   2.0000      -0.847252       -23.0549
  31   2.0000      -0.817470       -22.2445
  32   2.0000      -0.781849       -21.2752
  33   2.0000      -0.770317       -20.9614
  34   2.0000      -0.708370       -19.2757
  35   2.0000      -0.701957       -19.1012
  36   2.0000      -0.694016       -18.8851
  37   2.0000      -0.662376       -18.0242
  38   2.0000      -0.640260       -17.4224
  39   2.0000      -0.623978       -16.9793
  40   2.0000      -0.589560       -16.0427
  41   2.0000      -0.568843       -15.4790
  42   2.0000      -0.561483       -15.2787
  43   2.0000      -0.559787       -15.2326
  44   2.0000      -0.528308       -14.3760
  45   2.0000      -0.526968       -14.3395
  46   2.0000      -0.518163       -14.0999
  47   2.0000      -0.510445       -13.8899
  48   2.0000      -0.506409       -13.7801
  49   2.0000      -0.497927       -13.5493
  50   2.0000      -0.493606       -13.4317
  51   2.0000      -0.478194       -13.0123
  52   2.0000      -0.474459       -12.9107
  53   2.0000      -0.467467       -12.7204
  54   2.0000      -0.462796       -12.5933
  55   2.0000      -0.455473       -12.3941
  56   2.0000      -0.438790       -11.9401
  57   2.0000      -0.434144       -11.8136
  58   2.0000      -0.433028       -11.7833
  59   2.0000      -0.427694       -11.6382
  60   2.0000      -0.419183       -11.4066
  61   2.0000      -0.408770       -11.1232
  62   2.0000      -0.403486       -10.9794
  63   2.0000      -0.341009        -9.2793
  64   2.0000      -0.327837        -8.9209
  65   2.0000      -0.324724        -8.8362
  66   2.0000      -0.297512        -8.0957
  67   0.0000       0.033024         0.8986
  68   0.0000       0.066751         1.8164
  69   0.0000       0.114599         3.1184
  70   0.0000       0.118087         3.2133
  71   0.0000       0.129398         3.5211

MULLIKEN ATOMIC CHARGES
-----------------------
   0 S :    0.147059
   1 C :   -0.126046
   2 C :   -0.103600
   3 C :    0.044678
   4 C :   -0.152488
   5 H :    0.022999
   6 C :    0.081511
   7 H :    0.001042
   8 H :    0.033575
   9 C :   -0.115394
  10 H :    0.044311
  11 H :    0.041810
  12 C :   -0.029682
  13 H :    0.021505
  14 H :    0.046725
  15 H :    0.007988
  16 S :    0.109509
  17 C :   -0.082329
  18 C :   -0.067071
  19 C :   -0.065773
  20 C :   -0.162112
  21 H :    0.043331
  22 C :    0.110531
  23 H :    0.043977
  24 H :    0.013080
  25 C :   -0.078213
  26 H :    0.013676
  27 H :    0.023406
  28 C :   -0.006276
  29 H :    0.022147
  30 H :    0.007668
  31 H :    0.023466
  32 H :    0.056643
  33 H :    0.028349
Sum of atomic charges:    0.0000000

LOEWDIN ATOMIC CHARGES
----------------------
   0 S :    0.429481
   1 C :   -0.214710
   2 C :   -0.055964
   3 C :   -0.050569
   4 C :   -0.198434
   5 H :    0.035594
   6 C :   -0.031867
   7 H :    0.022640
   8 H :    0.025278
   9 C :   -0.046355
  10 H :    0.037044
  11 H :    0.022373
  12 C :   -0.075660
  13 H :    0.021382
  14 H :    0.032336
  15 H :    0.027861
  16 S :    0.428936
  17 C :   -0.175210
  18 C :   -0.074209
  19 C :   -0.057625
  20 C :   -0.230849
  21 H :    0.041460
  22 C :   -0.032046
  23 H :    0.036473
  24 H :    0.026991
  25 C :   -0.042280
  26 H :    0.023122
  27 H :    0.026208
  28 C :   -0.072482
  29 H :    0.023940
  30 H :    0.024978
  31 H :    0.024309
  32 H :    0.036891
  33 H :    0.010963

  Mayer bond orders larger than 0.100000
B(  0-S ,  1-C ) :   1.1243 B(  0-S ,  4-C ) :   1.1700 B(  1-C ,  2-C ) :   1.6301
B(  1-C , 32-H ) :   0.9574 B(  2-C ,  3-C ) :   1.2290 B(  2-C ,  6-C ) :   1.0260
B(  3-C ,  4-C ) :   1.5683 B(  3-C ,  5-H ) :   0.9935 B(  4-C , 20-C ) :   1.0121
B(  6-C ,  7-H ) :   0.9441 B(  6-C ,  8-H ) :   0.9361 B(  6-C ,  9-C ) :   1.0362
B(  9-C , 10-H ) :   0.9637 B(  9-C , 11-H ) :   0.9709 B(  9-C , 12-C ) :   1.0611
B( 12-C , 13-H ) :   0.9722 B( 12-C , 14-H ) :   0.9783 B( 12-C , 15-H ) :   0.9726
B( 16-S , 17-C ) :   1.1765 B( 16-S , 20-C ) :   1.1595 B( 17-C , 18-C ) :   1.5745
B( 17-C , 20-C ) :   0.1091 B( 17-C , 33-H ) :   0.9806 B( 18-C , 19-C ) :   1.2488
B( 18-C , 21-H ) :   0.9857 B( 19-C , 20-C ) :   1.5723 B( 19-C , 22-C ) :   1.0574
B( 22-C , 23-H ) :   0.9361 B( 22-C , 24-H ) :   0.9208 B( 22-C , 25-C ) :   1.0570
B( 25-C , 26-H ) :   0.9518 B( 25-C , 27-H ) :   0.9514 B( 25-C , 28-C ) :   1.0855
B( 28-C , 29-H ) :   0.9714 B( 28-C , 30-H ) :   0.9665 B( 28-C , 31-H ) :   0.9747

Dispersion correction           -0.014173862
FINAL SINGLE POINT ENERGY     -1339.847851993342

DIPOLE MOMENT
-------------
                                X             Y             Z
Electronic contribution:     10.85857     -27.37393       9.81893
Nuclear contribution   :    -11.17391      27.87495      -9.89195
                        -----------------------------------------
Total Dipole Moment    :     -0.31534       0.50101      -0.07302
                        -----------------------------------------
Magnitude (a.u.)       :      0.59647
Magnitude (Debye)      :      1.51611

Rotational constants in cm-1:     0.017249     0.009067     0.006824
Rotational constants in MHz :   517.123835   271.807373   204.587859

                             ****ORCA TERMINATED NORMALLY****
TOTAL RUN TIME: 0 days 0 hours 0 minutes 31 seconds 898 msec
