                         Program Version 4.2.1 -  RELEASE  -
|  1> ! wB97X-D3 SP def2-SVP
|  2> %pal
|  3> nprocs 16
|  4> end
|  5>
|  6> * xyz 0 1
|  7> S 	 11.3676 	 -7.79275 	 71.3705
|  8> C 	 11.4563 	 -6.27023 	 72.1177
|  9> C 	 10.3326 	 -5.50239 	 71.9406
| 10> C 	 9.29541 	 -6.26081 	 71.2117
| 11> C 	 9.6906 	 -7.48436 	 70.857
| 12> H 	 8.38042 	 -5.87918 	 70.8098
| 13> C 	 10.305 	 -4.03052 	 72.4465
| 14> H 	 11.2281 	 -3.76289 	 72.9105
| 15> H 	 9.47152 	 -4.03876 	 73.203
| 16> C 	 9.99948 	 -2.89206 	 71.4249
| 17> H 	 8.96886 	 -2.85372 	 71.2211
| 18> H 	 10.0076 	 -1.931 	 71.8359
| 19> C 	 10.7964 	 -2.8129 	 70.0804
| 20> H 	 11.9085 	 -2.78358 	 70.2313
| 21> H 	 10.6259 	 -3.66054 	 69.4452
| 22> H 	 10.446 	 -1.90137 	 69.533
| 23> S 	 9.3112 	 -9.05744 	 68.5551
| 24> C 	 7.93945 	 -10.175 	 68.572
| 25> C 	 7.18059 	 -10.1142 	 69.7503
| 26> C 	 7.73204 	 -9.08605 	 70.5488
| 27> C 	 8.89504 	 -8.50614 	 70.1924
| 28> H 	 6.29686 	 -10.6844 	 69.8564
| 29> C 	 7.14919 	 -8.90243 	 71.9623
| 30> H 	 6.09788 	 -8.91707 	 71.7599
| 31> H 	 7.31884 	 -7.89275 	 72.3566
| 32> C 	 7.51181 	 -9.99208 	 72.9951
| 33> H 	 8.57108 	 -9.86446 	 73.3728
| 34> H 	 7.44921 	 -10.9242 	 72.4798
| 35> C 	 6.64782 	 -10.1221 	 74.2449
| 36> H 	 5.76361 	 -10.6498 	 73.8986
| 37> H 	 6.44652 	 -9.09075 	 74.5864
| 38> H 	 6.99576 	 -10.6001 	 75.1296
| 39> H 	 12.3441 	 -5.92552 	 72.6042
| 40> H 	 7.81277 	 -10.8953 	 67.7962
| 41> *
| 42>
| 43>                          ****END OF INPUT****

CARTESIAN COORDINATES (ANGSTROEM)
---------------------------------
  S     11.367600   -7.792750   71.370500
  C     11.456300   -6.270230   72.117700
  C     10.332600   -5.502390   71.940600
  C      9.295410   -6.260810   71.211700
  C      9.690600   -7.484360   70.857000
  H      8.380420   -5.879180   70.809800
  C     10.305000   -4.030520   72.446500
  H     11.228100   -3.762890   72.910500
  H      9.471520   -4.038760   73.203000
  C      9.999480   -2.892060   71.424900
  H      8.968860   -2.853720   71.221100
  H     10.007600   -1.931000   71.835900
  C     10.796400   -2.812900   70.080400
  H     11.908500   -2.783580   70.231300
  H     10.625900   -3.660540   69.445200
  H     10.446000   -1.901370   69.533000
  S      9.311200   -9.057440   68.555100
  C      7.939450  -10.175000   68.572000
  C      7.180590  -10.114200   69.750300
  C      7.732040   -9.086050   70.548800
  C      8.895040   -8.506140   70.192400
  H      6.296860  -10.684400   69.856400
  C      7.149190   -8.902430   71.962300
  H      6.097880   -8.917070   71.759900
  H      7.318840   -7.892750   72.356600
  C      7.511810   -9.992080   72.995100
  H      8.571080   -9.864460   73.372800
  H      7.449210  -10.924200   72.479800
  C      6.647820  -10.122100   74.244900
  H      5.763610  -10.649800   73.898600
  H      6.446520   -9.090750   74.586400
  H      6.995760  -10.600100   75.129600
  H     12.344100   -5.925520   72.604200
  H      7.812770  -10.895300   67.796200

 Total Charge           Charge          ....    0
 Multiplicity           Mult            ....    1
 Number of Electrons    NEL             ....  134
 Basis Dimension        Dim             ....  322

ORBITAL ENERGIES
----------------

  NO   OCC          E(Eh)            E(eV)
   0   2.0000     -88.964636     -2420.8508
   1   2.0000     -88.962006     -2420.7792
   2   2.0000     -10.326921      -281.0098
   3   2.0000     -10.322948      -280.9017
   4   2.0000     -10.322845      -280.8989
   5   2.0000     -10.309164      -280.5266
   6   2.0000     -10.306654      -280.4583
   7   2.0000     -10.301165      -280.3089
   8   2.0000     -10.299777      -280.2712
   9   2.0000     -10.296821      -280.1907
  10   2.0000     -10.295963      -280.1674
  11   2.0000     -10.285616      -279.8858
  12   2.0000     -10.282018      -279.7879
  13   2.0000     -10.281820      -279.7825
  14   2.0000     -10.280748      -279.7534
  15   2.0000     -10.272136      -279.5190
  16   2.0000      -8.078960      -219.8397
  17   2.0000      -8.077729      -219.8062
  18   2.0000      -6.037424      -164.2867
  19   2.0000      -6.036201      -164.2534
  20   2.0000      -6.033513      -164.1802
  21   2.0000      -6.032182      -164.1440
  22   2.0000      -6.029807      -164.0794
  23   2.0000      -6.028371      -164.0403
  24   2.0000      -1.008607       -27.4456
  25   2.0000      -0.986345       -26.8398
  26   2.0000      -0.902301       -24.5529
  27   2.0000      -0.901801       -24.5392
  28   2.0000      -0.874853       -23.8060
  29   2.0000      -0.850862       -23.1531
  30   2.0000      -0.843678       -22.9576
  31   2.0000      -0.820659       -22.3313
  32   2.0000      -0.781123       -21.2554
  33   2.0000      -0.770381       -20.9631
  34   2.0000      -0.711041       -19.3484
  35   2.0000      -0.695639       -18.9293
  36   2.0000      -0.691233       -18.8094
  37   2.0000      -0.668635       -18.1945
  38   2.0000      -0.650390       -17.6980
  39   2.0000      -0.618902       -16.8412
  40   2.0000      -0.593977       -16.1629
  41   2.0000      -0.570224       -15.5166
  42   2.0000      -0.559120       -15.2144
  43   2.0000      -0.548602       -14.9282
  44   2.0000      -0.539825       -14.6894
  45   2.0000      -0.520593       -14.1660
  46   2.0000      -0.516730       -14.0609
  47   2.0000      -0.514529       -14.0010
  48   2.0000      -0.503931       -13.7127
  49   2.0000      -0.501333       -13.6420
  50   2.0000      -0.485873       -13.2213
  51   2.0000      -0.478972       -13.0335
  52   2.0000      -0.473154       -12.8752
  53   2.0000      -0.467845       -12.7307
  54   2.0000      -0.461075       -12.5465
  55   2.0000      -0.451904       -12.2969
  56   2.0000      -0.446599       -12.1526
  57   2.0000      -0.435485       -11.8501
  58   2.0000      -0.422451       -11.4955
  59   2.0000      -0.421882       -11.4800
  60   2.0000      -0.418047       -11.3756
  61   2.0000      -0.411678       -11.2023
  62   2.0000      -0.401447       -10.9239
  63   2.0000      -0.347409        -9.4535
  64   2.0000      -0.334463        -9.1012
  65   2.0000      -0.326735        -8.8909
  66   2.0000      -0.302129        -8.2213
  67   0.0000       0.037126         1.0102
  68   0.0000       0.066578         1.8117
  69   0.0000       0.115242         3.1359
  70   0.0000       0.123346         3.3564
  71   0.0000       0.129006         3.5104

MULLIKEN ATOMIC CHARGES
-----------------------
   0 S :    0.110754
   1 C :   -0.114383
   2 C :   -0.100932
   3 C :    0.058237
   4 C :   -0.163537
   5 H :    0.013246
   6 C :    0.077971
   7 H :    0.017931
   8 H :    0.043958
   9 C :   -0.041858
  10 H :   -0.000353
  11 H :    0.005726
  12 C :   -0.071849
  13 H :    0.037183
  14 H :    0.038991
  15 H :    0.040324
  16 S :    0.095994
  17 C :   -0.088284
  18 C :   -0.018061
  19 C :   -0.042306
  20 C :   -0.141660
  21 H :    0.017529
  22 C :    0.073093
  23 H :    0.005049
  24 H :    0.017383
  25 C :   -0.061777
  26 H :    0.038834
  27 H :    0.013468
  28 C :   -0.037160
  29 H :    0.026672
  30 H :    0.024994
  31 H :    0.031242
  32 H :    0.042359
  33 H :    0.051222
Sum of atomic charges:   -0.0000000

LOEWDIN ATOMIC CHARGES
----------------------
   0 S :    0.403720
   1 C :   -0.202364
   2 C :   -0.064596
   3 C :   -0.052435
   4 C :   -0.181984
   5 H :    0.032444
   6 C :   -0.023774
   7 H :    0.024479
   8 H :    0.040598
   9 C :   -0.048592
  10 H :    0.017428
  11 H :    0.020926
  12 C :   -0.067566
  13 H :    0.028102
  14 H :    0.021490
  15 H :    0.033022
  16 S :    0.383838
  17 C :   -0.157720
  18 C :   -0.064820
  19 C :   -0.054598
  20 C :   -0.196170
  21 H :    0.031719
  22 C :   -0.029224
  23 H :    0.022627
  24 H :    0.025826
  25 C :   -0.041815
  26 H :    0.030908
  27 H :    0.016075
  28 C :   -0.065952
  29 H :    0.023851
  30 H :    0.026580
  31 H :    0.023131
  32 H :    0.024402
  33 H :    0.020444

  Mayer bond orders larger than 0.100000
B(  0-S ,  1-C ) :   1.1420 B(  0-S ,  4-C ) :   1.1256 B(  1-C ,  2-C ) :   1.6453
B(  1-C , 32-H ) :   0.9685 B(  2-C ,  3-C ) :   1.1804 B(  2-C ,  6-C ) :   1.0165
B(  3-C ,  4-C ) :   1.6516 B(  3-C ,  5-H ) :   0.9980 B(  4-C , 20-C ) :   1.0115
B(  6-C ,  7-H ) :   0.9490 B(  6-C ,  8-H ) :   0.9392 B(  6-C ,  9-C ) :   1.0679
B(  9-C , 10-H ) :   0.9462 B(  9-C , 11-H ) :   0.9514 B(  9-C , 12-C ) :   1.0723
B( 12-C , 13-H ) :   0.9782 B( 12-C , 14-H ) :   0.9768 B( 12-C , 15-H ) :   0.9737
B( 16-S , 17-C ) :   1.1729 B( 16-S , 20-C ) :   1.1118 B( 17-C , 18-C ) :   1.5964
B( 17-C , 33-H ) :   0.9684 B( 18-C , 19-C ) :   1.2192 B( 18-C , 21-H ) :   1.0011
B( 19-C , 20-C ) :   1.6450 B( 19-C , 22-C ) :   1.0487 B( 22-C , 23-H ) :   0.9292
B( 22-C , 24-H ) :   0.9302 B( 22-C , 25-C ) :   1.0615 B( 25-C , 26-H ) :   0.9553
B( 25-C , 27-H ) :   0.9606 B( 25-C , 28-C ) :   1.0722 B( 28-C , 29-H ) :   0.9781
B( 28-C , 30-H ) :   0.9759 B( 28-C , 31-H ) :   0.9767

Dispersion correction           -0.014369111
FINAL SINGLE POINT ENERGY     -1339.867312392331

DIPOLE MOMENT
-------------
                                X             Y             Z
Electronic contribution:      9.69113     -12.56216     -13.85834
Nuclear contribution   :    -10.09332      12.83381      14.10546
                        -----------------------------------------
Total Dipole Moment    :     -0.40219       0.27165       0.24712
                        -----------------------------------------
Magnitude (a.u.)       :      0.54463
Magnitude (Debye)      :      1.38434

Rotational constants in cm-1:     0.018526     0.008294     0.006987
Rotational constants in MHz :   555.392646   248.643471   209.464328

                             ****ORCA TERMINATED NORMALLY****
TOTAL RUN TIME: 0 days 0 hours 0 minutes 34 seconds 140 msec
