                         Program Version 4.2.1 -  RELEASE  -
|  1> ! wB97X-D3 SP def2-SVP
|  2> %pal
|  3> nprocs 16
|  4> end
|  5>
|  6> * xyz 0 1
|  7> S 	 -18.8053 	 -6.52018 	 84.6316
|  8> C 	 -17.2548 	 -7.28307 	 84.8888
|  9> C 	 -17.2456 	 -7.98696 	 86.0817
| 10> C 	 -18.3593 	 -7.62799 	 86.9592
| 11> C 	 -19.2748 	 -6.83279 	 86.2875
| 12> H 	 -18.4667 	 -7.90452 	 88.0011
| 13> C 	 -16.1599 	 -8.89135 	 86.4839
| 14> H 	 -15.5125 	 -8.29815 	 87.1039
| 15> H 	 -15.5331 	 -9.17628 	 85.583
| 16> C 	 -16.5806 	 -10.2474 	 87.1335
| 17> H 	 -15.6801 	 -10.9132 	 87.2565
| 18> H 	 -16.9793 	 -10.0123 	 88.1485
| 19> C 	 -17.528 	 -10.9975 	 86.1502
| 20> H 	 -17.2118 	 -10.9197 	 85.0782
| 21> H 	 -17.7094 	 -12.0141 	 86.2729
| 22> H 	 -18.4554 	 -10.5815 	 86.127
| 23> S 	 -21.789 	 -6.41583 	 85.38
| 24> C 	 -23.1013 	 -5.95605 	 86.4782
| 25> C 	 -22.5882 	 -5.7414 	 87.7605
| 26> C 	 -21.1697 	 -5.97586 	 87.8929
| 27> C 	 -20.5808 	 -6.32092 	 86.6828
| 28> H 	 -23.1956 	 -5.35983 	 88.5745
| 29> C 	 -20.4876 	 -5.88115 	 89.2561
| 30> H 	 -19.5223 	 -6.31384 	 89.1552
| 31> H 	 -20.9949 	 -6.57484 	 89.9307
| 32> C 	 -20.3346 	 -4.48296 	 89.9096
| 33> H 	 -21.3451 	 -4.03176 	 89.845
| 34> H 	 -19.784 	 -3.74692 	 89.2276
| 35> C 	 -19.826 	 -4.47573 	 91.3499
| 36> H 	 -18.7474 	 -4.71584 	 91.2869
| 37> H 	 -20.197 	 -5.31791 	 91.8469
| 38> H 	 -20.0152 	 -3.60726 	 91.9778
| 39> H 	 -16.6373 	 -7.60386 	 84.0238
| 40> H 	 -24.0833 	 -5.83013 	 86.1684
| 41> *
| 42>
| 43>                          ****END OF INPUT****

CARTESIAN COORDINATES (ANGSTROEM)
---------------------------------
  S    -18.805300   -6.520180   84.631600
  C    -17.254800   -7.283070   84.888800
  C    -17.245600   -7.986960   86.081700
  C    -18.359300   -7.627990   86.959200
  C    -19.274800   -6.832790   86.287500
  H    -18.466700   -7.904520   88.001100
  C    -16.159900   -8.891350   86.483900
  H    -15.512500   -8.298150   87.103900
  H    -15.533100   -9.176280   85.583000
  C    -16.580600  -10.247400   87.133500
  H    -15.680100  -10.913200   87.256500
  H    -16.979300  -10.012300   88.148500
  C    -17.528000  -10.997500   86.150200
  H    -17.211800  -10.919700   85.078200
  H    -17.709400  -12.014100   86.272900
  H    -18.455400  -10.581500   86.127000
  S    -21.789000   -6.415830   85.380000
  C    -23.101300   -5.956050   86.478200
  C    -22.588200   -5.741400   87.760500
  C    -21.169700   -5.975860   87.892900
  C    -20.580800   -6.320920   86.682800
  H    -23.195600   -5.359830   88.574500
  C    -20.487600   -5.881150   89.256100
  H    -19.522300   -6.313840   89.155200
  H    -20.994900   -6.574840   89.930700
  C    -20.334600   -4.482960   89.909600
  H    -21.345100   -4.031760   89.845000
  H    -19.784000   -3.746920   89.227600
  C    -19.826000   -4.475730   91.349900
  H    -18.747400   -4.715840   91.286900
  H    -20.197000   -5.317910   91.846900
  H    -20.015200   -3.607260   91.977800
  H    -16.637300   -7.603860   84.023800
  H    -24.083300   -5.830130   86.168400

 Total Charge           Charge          ....    0
 Multiplicity           Mult            ....    1
 Number of Electrons    NEL             ....  134
 Basis Dimension        Dim             ....  322

ORBITAL ENERGIES
----------------

  NO   OCC          E(Eh)            E(eV)
   0   2.0000     -88.965938     -2420.8862
   1   2.0000     -88.963424     -2420.8178
   2   2.0000     -10.334468      -281.2152
   3   2.0000     -10.332263      -281.1552
   4   2.0000     -10.319893      -280.8186
   5   2.0000     -10.311085      -280.5789
   6   2.0000     -10.309040      -280.5233
   7   2.0000     -10.303998      -280.3860
   8   2.0000     -10.300555      -280.2924
   9   2.0000     -10.300169      -280.2818
  10   2.0000     -10.299604      -280.2665
  11   2.0000     -10.295095      -280.1438
  12   2.0000     -10.294899      -280.1385
  13   2.0000     -10.292752      -280.0800
  14   2.0000     -10.278377      -279.6889
  15   2.0000     -10.266952      -279.3780
  16   2.0000      -8.080072      -219.8699
  17   2.0000      -8.078544      -219.8283
  18   2.0000      -6.038781      -164.3236
  19   2.0000      -6.037174      -164.2799
  20   2.0000      -6.034604      -164.2099
  21   2.0000      -6.033112      -164.1693
  22   2.0000      -6.030699      -164.1037
  23   2.0000      -6.029038      -164.0585
  24   2.0000      -1.006277       -27.3822
  25   2.0000      -0.979631       -26.6571
  26   2.0000      -0.913231       -24.8503
  27   2.0000      -0.906584       -24.6694
  28   2.0000      -0.867676       -23.6107
  29   2.0000      -0.853712       -23.2307
  30   2.0000      -0.841135       -22.8884
  31   2.0000      -0.816869       -22.2281
  32   2.0000      -0.784813       -21.3558
  33   2.0000      -0.774711       -21.0810
  34   2.0000      -0.713895       -19.4261
  35   2.0000      -0.702175       -19.1072
  36   2.0000      -0.695450       -18.9242
  37   2.0000      -0.663760       -18.0618
  38   2.0000      -0.636529       -17.3208
  39   2.0000      -0.622871       -16.9492
  40   2.0000      -0.600481       -16.3399
  41   2.0000      -0.561432       -15.2773
  42   2.0000      -0.558797       -15.2056
  43   2.0000      -0.552782       -15.0420
  44   2.0000      -0.542005       -14.7487
  45   2.0000      -0.531623       -14.4662
  46   2.0000      -0.517215       -14.0741
  47   2.0000      -0.510527       -13.8922
  48   2.0000      -0.502786       -13.6815
  49   2.0000      -0.499917       -13.6034
  50   2.0000      -0.492658       -13.4059
  51   2.0000      -0.477042       -12.9810
  52   2.0000      -0.466489       -12.6938
  53   2.0000      -0.464914       -12.6510
  54   2.0000      -0.460928       -12.5425
  55   2.0000      -0.452505       -12.3133
  56   2.0000      -0.449544       -12.2327
  57   2.0000      -0.441530       -12.0146
  58   2.0000      -0.437632       -11.9086
  59   2.0000      -0.427520       -11.6334
  60   2.0000      -0.417744       -11.3674
  61   2.0000      -0.413954       -11.2643
  62   2.0000      -0.406339       -11.0571
  63   2.0000      -0.356525        -9.7015
  64   2.0000      -0.333494        -9.0748
  65   2.0000      -0.325173        -8.8484
  66   2.0000      -0.287663        -7.8277
  67   0.0000       0.021419         0.5829
  68   0.0000       0.068948         1.8762
  69   0.0000       0.101602         2.7647
  70   0.0000       0.114711         3.1215
  71   0.0000       0.129930         3.5356

MULLIKEN ATOMIC CHARGES
-----------------------
   0 S :    0.087938
   1 C :   -0.107158
   2 C :   -0.117269
   3 C :    0.016980
   4 C :   -0.124022
   5 H :    0.022203
   6 C :    0.026672
   7 H :    0.042298
   8 H :    0.026305
   9 C :   -0.089764
  10 H :    0.045187
  11 H :    0.041335
  12 C :   -0.012339
  13 H :    0.022428
  14 H :    0.019577
  15 H :    0.015757
  16 S :    0.079807
  17 C :   -0.061779
  18 C :   -0.031052
  19 C :   -0.065820
  20 C :   -0.113176
  21 H :    0.024946
  22 C :    0.087663
  23 H :   -0.006423
  24 H :    0.029600
  25 C :   -0.106190
  26 H :    0.018676
  27 H :    0.044201
  28 C :   -0.009235
  29 H :    0.030276
  30 H :    0.006984
  31 H :    0.049704
  32 H :    0.066462
  33 H :    0.039227
Sum of atomic charges:    0.0000000

LOEWDIN ATOMIC CHARGES
----------------------
   0 S :    0.398437
   1 C :   -0.215616
   2 C :   -0.055464
   3 C :   -0.068980
   4 C :   -0.177780
   5 H :    0.030161
   6 C :   -0.040032
   7 H :    0.032568
   8 H :    0.034831
   9 C :   -0.038803
  10 H :    0.032243
  11 H :    0.024722
  12 C :   -0.062948
  13 H :    0.034038
  14 H :    0.017860
  15 H :    0.015391
  16 S :    0.382807
  17 C :   -0.164741
  18 C :   -0.064883
  19 C :   -0.056994
  20 C :   -0.183472
  21 H :    0.031146
  22 C :   -0.029877
  23 H :    0.019991
  24 H :    0.033517
  25 C :   -0.048335
  26 H :    0.019993
  27 H :    0.033644
  28 C :   -0.065383
  29 H :    0.031828
  30 H :    0.017074
  31 H :    0.032188
  32 H :    0.034471
  33 H :    0.016399

  Mayer bond orders larger than 0.100000
B(  0-S ,  1-C ) :   1.1143 B(  0-S ,  4-C ) :   1.1568 B(  1-C ,  2-C ) :   1.6449
B(  1-C , 32-H ) :   0.9533 B(  2-C ,  3-C ) :   1.1998 B(  2-C ,  6-C ) :   1.0327
B(  3-C ,  4-C ) :   1.5848 B(  3-C ,  5-H ) :   0.9857 B(  4-C , 20-C ) :   1.0361
B(  6-C ,  7-H ) :   0.9380 B(  6-C ,  8-H ) :   0.9435 B(  6-C ,  9-C ) :   1.0661
B(  9-C , 10-H ) :   0.9617 B(  9-C , 11-H ) :   0.9553 B(  9-C , 12-C ) :   1.0579
B( 12-C , 13-H ) :   0.9725 B( 12-C , 14-H ) :   0.9768 B( 12-C , 15-H ) :   0.9700
B( 16-S , 17-C ) :   1.1421 B( 16-S , 20-C ) :   1.1274 B( 17-C , 18-C ) :   1.6028
B( 17-C , 20-C ) :   0.1004 B( 17-C , 33-H ) :   0.9813 B( 18-C , 19-C ) :   1.2312
B( 18-C , 21-H ) :   0.9868 B( 19-C , 20-C ) :   1.6199 B( 19-C , 22-C ) :   1.0443
B( 22-C , 23-H ) :   0.9280 B( 22-C , 24-H ) :   0.9309 B( 22-C , 25-C ) :   1.0556
B( 25-C , 26-H ) :   0.9583 B( 25-C , 27-H ) :   0.9544 B( 25-C , 28-C ) :   1.0704
B( 28-C , 29-H ) :   0.9731 B( 28-C , 30-H ) :   0.9708 B( 28-C , 31-H ) :   0.9747

Dispersion correction           -0.014072843
FINAL SINGLE POINT ENERGY     -1339.870947387245

DIPOLE MOMENT
-------------
                                X             Y             Z
Electronic contribution:    -10.91986       7.47451     -20.86952
Nuclear contribution   :     10.96961      -7.78240      21.48610
                        -----------------------------------------
Total Dipole Moment    :      0.04974      -0.30789       0.61658
                        -----------------------------------------
Magnitude (a.u.)       :      0.69097
Magnitude (Debye)      :      1.75631

Rotational constants in cm-1:     0.017091     0.008836     0.006917
Rotational constants in MHz :   512.368629   264.904278   207.360418

                             ****ORCA TERMINATED NORMALLY****
TOTAL RUN TIME: 0 days 0 hours 0 minutes 32 seconds 134 msec
