                         Program Version 4.2.1 -  RELEASE  -
|  1> ! wB97X-D3 SP def2-SVP
|  2> %pal
|  3> nprocs 16
|  4> end
|  5>
|  6> * xyz 0 1
|  7> S 	 2.39495 	 -4.87487 	 87.5062
|  8> C 	 0.678964 	 -4.788 	 87.5297
|  9> C 	 0.229945 	 -5.92386 	 88.3245
| 10> C 	 1.20991 	 -6.80951 	 88.8455
| 11> C 	 2.45439 	 -6.43865 	 88.3338
| 12> H 	 1.13681 	 -7.7443 	 89.3393
| 13> C 	 -1.27261 	 -6.14329 	 88.6209
| 14> H 	 -1.63755 	 -6.91426 	 87.8974
| 15> H 	 -1.78097 	 -5.16518 	 88.4786
| 16> C 	 -1.39503 	 -6.69423 	 90.0409
| 17> H 	 -0.959512 	 -7.70014 	 90.2154
| 18> H 	 -0.92008 	 -5.99663 	 90.7764
| 19> C 	 -2.82218 	 -6.90649 	 90.5038
| 20> H 	 -3.35903 	 -7.55608 	 89.8985
| 21> H 	 -2.85722 	 -7.33754 	 91.5607
| 22> H 	 -3.43957 	 -5.93105 	 90.4936
| 23> S 	 4.32609 	 -7.44744 	 86.7763
| 24> C 	 5.54316 	 -8.49737 	 87.4177
| 25> C 	 5.44962 	 -8.70449 	 88.7712
| 26> C 	 4.31322 	 -8.00329 	 89.2831
| 27> C 	 3.63924 	 -7.24027 	 88.3148
| 28> H 	 6.12538 	 -9.31299 	 89.2588
| 29> C 	 4.03536 	 -7.88217 	 90.8016
| 30> H 	 2.98104 	 -7.57781 	 90.9509
| 31> H 	 4.54501 	 -7.06674 	 91.255
| 32> C 	 4.38039 	 -9.12218 	 91.6238
| 33> H 	 5.37949 	 -9.53916 	 91.4588
| 34> H 	 3.7913 	 -10.0005 	 91.3034
| 35> C 	 4.09506 	 -8.95133 	 93.0604
| 36> H 	 3.16024 	 -8.55123 	 93.4585
| 37> H 	 4.82172 	 -8.37449 	 93.6343
| 38> H 	 4.10364 	 -9.88856 	 93.5353
| 39> H 	 0.12303 	 -3.88956 	 87.2061
| 40> H 	 6.32112 	 -8.94928 	 86.8884
| 41> *
| 42>
| 43>                          ****END OF INPUT****

CARTESIAN COORDINATES (ANGSTROEM)
---------------------------------
  S      2.394950   -4.874870   87.506200
  C      0.678964   -4.788000   87.529700
  C      0.229945   -5.923860   88.324500
  C      1.209910   -6.809510   88.845500
  C      2.454390   -6.438650   88.333800
  H      1.136810   -7.744300   89.339300
  C     -1.272610   -6.143290   88.620900
  H     -1.637550   -6.914260   87.897400
  H     -1.780970   -5.165180   88.478600
  C     -1.395030   -6.694230   90.040900
  H     -0.959512   -7.700140   90.215400
  H     -0.920080   -5.996630   90.776400
  C     -2.822180   -6.906490   90.503800
  H     -3.359030   -7.556080   89.898500
  H     -2.857220   -7.337540   91.560700
  H     -3.439570   -5.931050   90.493600
  S      4.326090   -7.447440   86.776300
  C      5.543160   -8.497370   87.417700
  C      5.449620   -8.704490   88.771200
  C      4.313220   -8.003290   89.283100
  C      3.639240   -7.240270   88.314800
  H      6.125380   -9.312990   89.258800
  C      4.035360   -7.882170   90.801600
  H      2.981040   -7.577810   90.950900
  H      4.545010   -7.066740   91.255000
  C      4.380390   -9.122180   91.623800
  H      5.379490   -9.539160   91.458800
  H      3.791300  -10.000500   91.303400
  C      4.095060   -8.951330   93.060400
  H      3.160240   -8.551230   93.458500
  H      4.821720   -8.374490   93.634300
  H      4.103640   -9.888560   93.535300
  H      0.123030   -3.889560   87.206100
  H      6.321120   -8.949280   86.888400

 Total Charge           Charge          ....    0
 Multiplicity           Mult            ....    1
 Number of Electrons    NEL             ....  134
 Basis Dimension        Dim             ....  322

ORBITAL ENERGIES
----------------

  NO   OCC          E(Eh)            E(eV)
   0   2.0000     -88.966903     -2420.9125
   1   2.0000     -88.966746     -2420.9082
   2   2.0000     -10.330200      -281.0990
   3   2.0000     -10.320224      -280.8276
   4   2.0000     -10.319578      -280.8100
   5   2.0000     -10.309615      -280.5389
   6   2.0000     -10.307771      -280.4887
   7   2.0000     -10.304690      -280.4049
   8   2.0000     -10.296390      -280.1790
   9   2.0000     -10.294018      -280.1145
  10   2.0000     -10.289017      -279.9784
  11   2.0000     -10.288761      -279.9714
  12   2.0000     -10.288471      -279.9635
  13   2.0000     -10.285989      -279.8960
  14   2.0000     -10.279485      -279.7190
  15   2.0000     -10.269431      -279.4454
  16   2.0000      -8.082608      -219.9389
  17   2.0000      -8.081553      -219.9102
  18   2.0000      -6.040940      -164.3823
  19   2.0000      -6.039949      -164.3554
  20   2.0000      -6.036851      -164.2711
  21   2.0000      -6.035860      -164.2441
  22   2.0000      -6.033566      -164.1817
  23   2.0000      -6.032649      -164.1567
  24   2.0000      -1.012527       -27.5523
  25   2.0000      -0.983597       -26.7650
  26   2.0000      -0.913157       -24.8483
  27   2.0000      -0.908940       -24.7335
  28   2.0000      -0.875136       -23.8137
  29   2.0000      -0.856747       -23.3133
  30   2.0000      -0.846552       -23.0358
  31   2.0000      -0.817277       -22.2392
  32   2.0000      -0.781278       -21.2596
  33   2.0000      -0.762867       -20.7587
  34   2.0000      -0.710485       -19.3333
  35   2.0000      -0.704074       -19.1588
  36   2.0000      -0.685971       -18.6662
  37   2.0000      -0.662233       -18.0203
  38   2.0000      -0.644612       -17.5408
  39   2.0000      -0.619165       -16.8483
  40   2.0000      -0.600984       -16.3536
  41   2.0000      -0.568420       -15.4675
  42   2.0000      -0.563810       -15.3421
  43   2.0000      -0.558673       -15.2023
  44   2.0000      -0.532330       -14.4854
  45   2.0000      -0.529798       -14.4165
  46   2.0000      -0.517594       -14.0845
  47   2.0000      -0.510591       -13.8939
  48   2.0000      -0.506873       -13.7927
  49   2.0000      -0.498972       -13.5777
  50   2.0000      -0.490747       -13.3539
  51   2.0000      -0.487461       -13.2645
  52   2.0000      -0.470352       -12.7989
  53   2.0000      -0.468514       -12.7489
  54   2.0000      -0.460600       -12.5336
  55   2.0000      -0.452183       -12.3045
  56   2.0000      -0.443561       -12.0699
  57   2.0000      -0.440497       -11.9865
  58   2.0000      -0.430486       -11.7141
  59   2.0000      -0.419117       -11.4047
  60   2.0000      -0.417671       -11.3654
  61   2.0000      -0.408651       -11.1200
  62   2.0000      -0.405572       -11.0362
  63   2.0000      -0.354847        -9.6559
  64   2.0000      -0.333014        -9.0618
  65   2.0000      -0.325367        -8.8537
  66   2.0000      -0.282050        -7.6750
  67   0.0000       0.026625         0.7245
  68   0.0000       0.071460         1.9445
  69   0.0000       0.116190         3.1617
  70   0.0000       0.123474         3.3599
  71   0.0000       0.129655         3.5281

MULLIKEN ATOMIC CHARGES
-----------------------
   0 S :    0.116480
   1 C :   -0.135012
   2 C :   -0.122005
   3 C :    0.056128
   4 C :   -0.172059
   5 H :    0.017969
   6 C :    0.080410
   7 H :    0.050203
   8 H :    0.030888
   9 C :   -0.137735
  10 H :    0.040388
  11 H :    0.043892
  12 C :   -0.046456
  13 H :    0.012226
  14 H :    0.041042
  15 H :    0.030135
  16 S :    0.132527
  17 C :   -0.062180
  18 C :   -0.018330
  19 C :   -0.016122
  20 C :   -0.151772
  21 H :   -0.010044
  22 C :    0.083592
  23 H :    0.012980
  24 H :    0.030069
  25 C :   -0.083481
  26 H :    0.028054
  27 H :    0.021878
  28 C :   -0.025981
  29 H :    0.021208
  30 H :    0.020956
  31 H :    0.009570
  32 H :    0.074036
  33 H :    0.026547
Sum of atomic charges:   -0.0000000

LOEWDIN ATOMIC CHARGES
----------------------
   0 S :    0.417276
   1 C :   -0.235658
   2 C :   -0.054241
   3 C :   -0.061906
   4 C :   -0.184138
   5 H :    0.031978
   6 C :   -0.034041
   7 H :    0.038624
   8 H :    0.033015
   9 C :   -0.054951
  10 H :    0.028675
  11 H :    0.031054
  12 C :   -0.070888
  13 H :    0.009225
  14 H :    0.033270
  15 H :    0.028038
  16 S :    0.449175
  17 C :   -0.182729
  18 C :   -0.059176
  19 C :   -0.054253
  20 C :   -0.222076
  21 H :    0.019857
  22 C :   -0.029906
  23 H :    0.031703
  24 H :    0.029197
  25 C :   -0.048115
  26 H :    0.026497
  27 H :    0.027256
  28 C :   -0.071600
  29 H :    0.027459
  30 H :    0.024016
  31 H :    0.022892
  32 H :    0.038127
  33 H :    0.016342

  Mayer bond orders larger than 0.100000
B(  0-S ,  1-C ) :   1.1432 B(  0-S ,  4-C ) :   1.1825 B(  1-C ,  2-C ) :   1.5397
B(  1-C ,  4-C ) :   0.1112 B(  1-C , 32-H ) :   0.9717 B(  2-C ,  3-C ) :   1.2753
B(  2-C ,  6-C ) :   1.0215 B(  3-C ,  4-C ) :   1.5183 B(  3-C ,  5-H ) :   0.9908
B(  4-C , 20-C ) :   1.0502 B(  6-C ,  7-H ) :   0.9322 B(  6-C ,  8-H ) :   0.9474
B(  6-C ,  9-C ) :   1.0767 B(  9-C , 10-H ) :   0.9418 B(  9-C , 11-H ) :   0.9589
B(  9-C , 12-C ) :   1.0897 B( 12-C , 13-H ) :   0.9724 B( 12-C , 14-H ) :   0.9732
B( 12-C , 15-H ) :   0.9718 B( 16-S , 17-C ) :   1.1669 B( 16-S , 20-C ) :   1.1652
B( 17-C , 18-C ) :   1.6020 B( 17-C , 33-H ) :   0.9691 B( 18-C , 19-C ) :   1.2479
B( 18-C , 21-H ) :   1.0047 B( 19-C , 20-C ) :   1.5580 B( 19-C , 22-C ) :   1.0335
B( 22-C , 23-H ) :   0.9345 B( 22-C , 24-H ) :   0.9396 B( 22-C , 25-C ) :   1.0589
B( 25-C , 26-H ) :   0.9450 B( 25-C , 27-H ) :   0.9560 B( 25-C , 28-C ) :   1.0969
B( 28-C , 29-H ) :   0.9716 B( 28-C , 30-H ) :   0.9691 B( 28-C , 31-H ) :   0.9660

Dispersion correction           -0.013452290
FINAL SINGLE POINT ENERGY     -1339.859882844268

DIPOLE MOMENT
-------------
                                X             Y             Z
Electronic contribution:     15.20764      10.00629     -25.53784
Nuclear contribution   :    -15.35966     -10.35572      25.99184
                        -----------------------------------------
Total Dipole Moment    :     -0.15202      -0.34943       0.45400
                        -----------------------------------------
Magnitude (a.u.)       :      0.59273
Magnitude (Debye)      :      1.50660

Rotational constants in cm-1:     0.015841     0.009266     0.006410
Rotational constants in MHz :   474.886459   277.772783   192.180722

                             ****ORCA TERMINATED NORMALLY****
TOTAL RUN TIME: 0 days 0 hours 0 minutes 31 seconds 859 msec
