                         Program Version 4.2.1 -  RELEASE  -
|  1> ! wB97X-D3 SP def2-SVP
|  2> %pal
|  3> nprocs 16
|  4> end
|  5>
|  6> * xyz 0 1
|  7> S 	 10.5212 	 -20.1088 	 83.6047
|  8> C 	 9.06412 	 -20.9629 	 83.7349
|  9> C 	 7.85987 	 -20.222 	 83.8269
| 10> C 	 8.25642 	 -18.8016 	 83.7412
| 11> C 	 9.63656 	 -18.6534 	 83.7865
| 12> H 	 7.63652 	 -17.9522 	 83.6644
| 13> C 	 6.4168 	 -20.6668 	 83.736
| 14> H 	 6.278 	 -21.6644 	 83.3629
| 15> H 	 5.87405 	 -20.0528 	 83.0581
| 16> C 	 5.59526 	 -20.6513 	 85.0965
| 17> H 	 4.6838 	 -21.2685 	 85.0526
| 18> H 	 6.18114 	 -21.185 	 85.8756
| 19> C 	 5.2508 	 -19.1712 	 85.4698
| 20> H 	 5.05387 	 -18.6045 	 84.5218
| 21> H 	 4.50416 	 -19.092 	 86.1846
| 22> H 	 6.05061 	 -18.5934 	 85.7925
| 23> S 	 11.6919 	 -17.076 	 82.7378
| 24> C 	 12.0766 	 -15.5458 	 83.6112
| 25> C 	 11.0207 	 -15.2068 	 84.4379
| 26> C 	 9.98981 	 -16.1882 	 84.5526
| 27> C 	 10.2711 	 -17.3199 	 83.746
| 28> H 	 11.0722 	 -14.2687 	 85.0914
| 29> C 	 8.83152 	 -16.0343 	 85.5331
| 30> H 	 9.24723 	 -15.7414 	 86.4982
| 31> H 	 8.38674 	 -16.9947 	 85.8739
| 32> C 	 7.66601 	 -15.2979 	 85.0527
| 33> H 	 6.84044 	 -15.3788 	 85.7144
| 34> H 	 7.50227 	 -15.7902 	 84.1089
| 35> C 	 7.95789 	 -13.8322 	 84.8253
| 36> H 	 7.05549 	 -13.2441 	 84.996
| 37> H 	 8.31957 	 -13.8044 	 83.7418
| 38> H 	 8.75362 	 -13.4411 	 85.4367
| 39> H 	 9.06338 	 -21.9721 	 83.4199
| 40> H 	 12.9391 	 -15.0872 	 83.3906
| 41> *
| 42>
| 43>                          ****END OF INPUT****

CARTESIAN COORDINATES (ANGSTROEM)
---------------------------------
  S     10.521200  -20.108800   83.604700
  C      9.064120  -20.962900   83.734900
  C      7.859870  -20.222000   83.826900
  C      8.256420  -18.801600   83.741200
  C      9.636560  -18.653400   83.786500
  H      7.636520  -17.952200   83.664400
  C      6.416800  -20.666800   83.736000
  H      6.278000  -21.664400   83.362900
  H      5.874050  -20.052800   83.058100
  C      5.595260  -20.651300   85.096500
  H      4.683800  -21.268500   85.052600
  H      6.181140  -21.185000   85.875600
  C      5.250800  -19.171200   85.469800
  H      5.053870  -18.604500   84.521800
  H      4.504160  -19.092000   86.184600
  H      6.050610  -18.593400   85.792500
  S     11.691900  -17.076000   82.737800
  C     12.076600  -15.545800   83.611200
  C     11.020700  -15.206800   84.437900
  C      9.989810  -16.188200   84.552600
  C     10.271100  -17.319900   83.746000
  H     11.072200  -14.268700   85.091400
  C      8.831520  -16.034300   85.533100
  H      9.247230  -15.741400   86.498200
  H      8.386740  -16.994700   85.873900
  C      7.666010  -15.297900   85.052700
  H      6.840440  -15.378800   85.714400
  H      7.502270  -15.790200   84.108900
  C      7.957890  -13.832200   84.825300
  H      7.055490  -13.244100   84.996000
  H      8.319570  -13.804400   83.741800
  H      8.753620  -13.441100   85.436700
  H      9.063380  -21.972100   83.419900
  H     12.939100  -15.087200   83.390600

 Total Charge           Charge          ....    0
 Multiplicity           Mult            ....    1
 Number of Electrons    NEL             ....  134
 Basis Dimension        Dim             ....  322

ORBITAL ENERGIES
----------------

  NO   OCC          E(Eh)            E(eV)
   0   2.0000     -88.972318     -2421.0599
   1   2.0000     -88.964424     -2420.8451
   2   2.0000     -10.331317      -281.1294
   3   2.0000     -10.325351      -280.9671
   4   2.0000     -10.315912      -280.7102
   5   2.0000     -10.312762      -280.6245
   6   2.0000     -10.311053      -280.5780
   7   2.0000     -10.306597      -280.4568
   8   2.0000     -10.304452      -280.3984
   9   2.0000     -10.295839      -280.1640
  10   2.0000     -10.295571      -280.1567
  11   2.0000     -10.294785      -280.1353
  12   2.0000     -10.286463      -279.9089
  13   2.0000     -10.275568      -279.6124
  14   2.0000     -10.275109      -279.5999
  15   2.0000     -10.272570      -279.5308
  16   2.0000      -8.088561      -220.1009
  17   2.0000      -8.078540      -219.8283
  18   2.0000      -6.046799      -164.5418
  19   2.0000      -6.043079      -164.4405
  20   2.0000      -6.039291      -164.3375
  21   2.0000      -6.037006      -164.2753
  22   2.0000      -6.033195      -164.1716
  23   2.0000      -6.029359      -164.0672
  24   2.0000      -1.007972       -27.4283
  25   2.0000      -0.980843       -26.6901
  26   2.0000      -0.922800       -25.1107
  27   2.0000      -0.907082       -24.6830
  28   2.0000      -0.866324       -23.5739
  29   2.0000      -0.852375       -23.1943
  30   2.0000      -0.843147       -22.9432
  31   2.0000      -0.812363       -22.1055
  32   2.0000      -0.787217       -21.4213
  33   2.0000      -0.775703       -21.1079
  34   2.0000      -0.709016       -19.2933
  35   2.0000      -0.702100       -19.1051
  36   2.0000      -0.689456       -18.7611
  37   2.0000      -0.665689       -18.1143
  38   2.0000      -0.646923       -17.6037
  39   2.0000      -0.616877       -16.7861
  40   2.0000      -0.606448       -16.5023
  41   2.0000      -0.567868       -15.4525
  42   2.0000      -0.565377       -15.3847
  43   2.0000      -0.550785       -14.9876
  44   2.0000      -0.545069       -14.8321
  45   2.0000      -0.537740       -14.6327
  46   2.0000      -0.515918       -14.0388
  47   2.0000      -0.511526       -13.9193
  48   2.0000      -0.505651       -13.7595
  49   2.0000      -0.494766       -13.4633
  50   2.0000      -0.486339       -13.2340
  51   2.0000      -0.479548       -13.0492
  52   2.0000      -0.473646       -12.8886
  53   2.0000      -0.469758       -12.7828
  54   2.0000      -0.460308       -12.5256
  55   2.0000      -0.453415       -12.3381
  56   2.0000      -0.444040       -12.0829
  57   2.0000      -0.438535       -11.9332
  58   2.0000      -0.432524       -11.7696
  59   2.0000      -0.427717       -11.6388
  60   2.0000      -0.419300       -11.4097
  61   2.0000      -0.415514       -11.3067
  62   2.0000      -0.403640       -10.9836
  63   2.0000      -0.347736        -9.4624
  64   2.0000      -0.333273        -9.0688
  65   2.0000      -0.330169        -8.9844
  66   2.0000      -0.287218        -7.8156
  67   0.0000       0.022302         0.6069
  68   0.0000       0.072988         1.9861
  69   0.0000       0.102725         2.7953
  70   0.0000       0.117657         3.2016
  71   0.0000       0.124184         3.3792

MULLIKEN ATOMIC CHARGES
-----------------------
   0 S :    0.140314
   1 C :   -0.104821
   2 C :   -0.054254
   3 C :    0.013745
   4 C :   -0.126379
   5 H :   -0.012922
   6 C :    0.059791
   7 H :    0.014880
   8 H :    0.025957
   9 C :   -0.088445
  10 H :    0.034060
  11 H :    0.035781
  12 C :   -0.015208
  13 H :    0.018359
  14 H :    0.026041
  15 H :    0.012243
  16 S :    0.077319
  17 C :   -0.064784
  18 C :   -0.026590
  19 C :   -0.048750
  20 C :   -0.157475
  21 H :    0.050351
  22 C :    0.025451
  23 H :    0.020790
  24 H :    0.022207
  25 C :   -0.027343
  26 H :    0.022698
  27 H :    0.025638
  28 C :   -0.057865
  29 H :    0.037082
  30 H :    0.047539
  31 H :    0.021638
  32 H :    0.037770
  33 H :    0.015182
Sum of atomic charges:    0.0000000

LOEWDIN ATOMIC CHARGES
----------------------
   0 S :    0.451551
   1 C :   -0.209876
   2 C :   -0.049759
   3 C :   -0.048907
   4 C :   -0.208915
   5 H :    0.019105
   6 C :   -0.028795
   7 H :    0.028203
   8 H :    0.026888
   9 C :   -0.034418
  10 H :    0.024775
  11 H :    0.026777
  12 C :   -0.062987
  13 H :    0.029434
  14 H :    0.016790
  15 H :    0.015922
  16 S :    0.368228
  17 C :   -0.147469
  18 C :   -0.069520
  19 C :   -0.060166
  20 C :   -0.186799
  21 H :    0.045082
  22 C :   -0.039671
  23 H :    0.026397
  24 H :    0.034816
  25 C :   -0.041379
  26 H :    0.019996
  27 H :    0.023811
  28 C :   -0.067951
  29 H :    0.026263
  30 H :    0.039495
  31 H :    0.016665
  32 H :    0.015620
  33 H :    0.000795

  Mayer bond orders larger than 0.100000
B(  0-S ,  1-C ) :   1.1678 B(  0-S ,  4-C ) :   1.1601 B(  1-C ,  2-C ) :   1.5976
B(  1-C , 32-H ) :   0.9628 B(  2-C ,  3-C ) :   1.2294 B(  2-C ,  6-C ) :   1.0339
B(  3-C ,  4-C ) :   1.5573 B(  3-C ,  5-H ) :   0.9981 B(  4-C , 20-C ) :   1.0508
B(  6-C ,  7-H ) :   0.9393 B(  6-C ,  8-H ) :   0.9499 B(  6-C ,  9-C ) :   1.0638
B(  9-C , 10-H ) :   0.9617 B(  9-C , 11-H ) :   0.9572 B(  9-C , 12-C ) :   1.0638
B( 12-C , 13-H ) :   0.9728 B( 12-C , 14-H ) :   0.9740 B( 12-C , 15-H ) :   0.9736
B( 16-S , 17-C ) :   1.1305 B( 16-S , 20-C ) :   1.1487 B( 17-C , 18-C ) :   1.5966
B( 17-C , 33-H ) :   0.9923 B( 18-C , 19-C ) :   1.2541 B( 18-C , 21-H ) :   0.9729
B( 19-C , 20-C ) :   1.5775 B( 19-C , 22-C ) :   1.0363 B( 22-C , 23-H ) :   0.9342
B( 22-C , 24-H ) :   0.9282 B( 22-C , 25-C ) :   1.0832 B( 25-C , 26-H ) :   0.9529
B( 25-C , 27-H ) :   0.9447 B( 25-C , 28-C ) :   1.0818 B( 28-C , 29-H ) :   0.9746
B( 28-C , 30-H ) :   0.9734 B( 28-C , 31-H ) :   0.9770

Dispersion correction           -0.015621127
FINAL SINGLE POINT ENERGY     -1339.847525388601

DIPOLE MOMENT
-------------
                                X             Y             Z
Electronic contribution:     26.88060      -8.30751     -11.24489
Nuclear contribution   :    -27.38709       8.39209      11.45999
                        -----------------------------------------
Total Dipole Moment    :     -0.50649       0.08458       0.21509
                        -----------------------------------------
Magnitude (a.u.)       :      0.55673
Magnitude (Debye)      :      1.41511

Rotational constants in cm-1:     0.017908     0.010400     0.006903
Rotational constants in MHz :   536.860780   311.790866   206.937881

                             ****ORCA TERMINATED NORMALLY****
TOTAL RUN TIME: 0 days 0 hours 0 minutes 36 seconds 205 msec
