                         Program Version 4.2.1 -  RELEASE  -
|  1> ! wB97X-D3 SP def2-SVP
|  2> %pal
|  3> nprocs 16
|  4> end
|  5>
|  6> * xyz 0 1
|  7> S 	 -79.2482 	 44.8449 	 120.801
|  8> C 	 -79.8663 	 43.3774 	 120.144
|  9> C 	 -80.3581 	 42.5741 	 121.126
| 10> C 	 -80.3656 	 43.1265 	 122.419
| 11> C 	 -79.8415 	 44.4603 	 122.354
| 12> H 	 -80.6735 	 42.6824 	 123.323
| 13> C 	 -80.8142 	 41.1359 	 120.848
| 14> H 	 -80.2891 	 40.8209 	 119.945
| 15> H 	 -81.9031 	 41.1937 	 120.565
| 16> C 	 -80.7251 	 40.0615 	 121.952
| 17> H 	 -81.41 	 40.2576 	 122.749
| 18> H 	 -81.2159 	 39.1962 	 121.453
| 19> C 	 -79.3306 	 39.8695 	 122.439
| 20> H 	 -79.0139 	 40.7448 	 123.027
| 21> H 	 -79.2715 	 39.0285 	 123.146
| 22> H 	 -78.595 	 39.6606 	 121.722
| 23> S 	 -81.2271 	 46.2025 	 124.061
| 24> C 	 -80.3521 	 47.1536 	 125.126
| 25> C 	 -78.9585 	 46.9714 	 125.071
| 26> C 	 -78.5974 	 45.9002 	 124.16
| 27> C 	 -79.7067 	 45.3808 	 123.479
| 28> H 	 -78.2849 	 47.4807 	 125.8
| 29> C 	 -77.1373 	 45.4476 	 124.086
| 30> H 	 -76.3872 	 46.2369 	 124.169
| 31> H 	 -76.9057 	 45.0134 	 123.153
| 32> C 	 -76.9326 	 44.3981 	 125.218
| 33> H 	 -77.615 	 43.5485 	 125.101
| 34> H 	 -77.1348 	 44.8602 	 126.165
| 35> C 	 -75.5131 	 43.8295 	 125.127
| 36> H 	 -74.7621 	 44.6085 	 125.318
| 37> H 	 -75.3729 	 43.4559 	 124.133
| 38> H 	 -75.3422 	 42.9881 	 125.791
| 39> H 	 -79.8347 	 42.9768 	 119.157
| 40> H 	 -80.9013 	 47.7509 	 125.808
| 41> *
| 42>
| 43>                          ****END OF INPUT****

CARTESIAN COORDINATES (ANGSTROEM)
---------------------------------
  S    -79.248200   44.844900  120.801000
  C    -79.866300   43.377400  120.144000
  C    -80.358100   42.574100  121.126000
  C    -80.365600   43.126500  122.419000
  C    -79.841500   44.460300  122.354000
  H    -80.673500   42.682400  123.323000
  C    -80.814200   41.135900  120.848000
  H    -80.289100   40.820900  119.945000
  H    -81.903100   41.193700  120.565000
  C    -80.725100   40.061500  121.952000
  H    -81.410000   40.257600  122.749000
  H    -81.215900   39.196200  121.453000
  C    -79.330600   39.869500  122.439000
  H    -79.013900   40.744800  123.027000
  H    -79.271500   39.028500  123.146000
  H    -78.595000   39.660600  121.722000
  S    -81.227100   46.202500  124.061000
  C    -80.352100   47.153600  125.126000
  C    -78.958500   46.971400  125.071000
  C    -78.597400   45.900200  124.160000
  C    -79.706700   45.380800  123.479000
  H    -78.284900   47.480700  125.800000
  C    -77.137300   45.447600  124.086000
  H    -76.387200   46.236900  124.169000
  H    -76.905700   45.013400  123.153000
  C    -76.932600   44.398100  125.218000
  H    -77.615000   43.548500  125.101000
  H    -77.134800   44.860200  126.165000
  C    -75.513100   43.829500  125.127000
  H    -74.762100   44.608500  125.318000
  H    -75.372900   43.455900  124.133000
  H    -75.342200   42.988100  125.791000
  H    -79.834700   42.976800  119.157000
  H    -80.901300   47.750900  125.808000

 Total Charge           Charge          ....    0
 Multiplicity           Mult            ....    1
 Number of Electrons    NEL             ....  134
 Basis Dimension        Dim             ....  322

ORBITAL ENERGIES
----------------

  NO   OCC          E(Eh)            E(eV)
   0   2.0000     -88.969928     -2420.9948
   1   2.0000     -88.962259     -2420.7861
   2   2.0000     -10.328142      -281.0430
   3   2.0000     -10.327484      -281.0251
   4   2.0000     -10.313850      -280.6541
   5   2.0000     -10.310151      -280.5535
   6   2.0000     -10.303590      -280.3749
   7   2.0000     -10.298202      -280.2283
   8   2.0000     -10.292827      -280.0821
   9   2.0000     -10.292213      -280.0654
  10   2.0000     -10.292112      -280.0626
  11   2.0000     -10.289993      -280.0049
  12   2.0000     -10.287137      -279.9272
  13   2.0000     -10.283302      -279.8229
  14   2.0000     -10.273198      -279.5479
  15   2.0000     -10.272316      -279.5239
  16   2.0000      -8.085164      -220.0085
  17   2.0000      -8.077689      -219.8051
  18   2.0000      -6.043505      -164.4521
  19   2.0000      -6.039448      -164.3417
  20   2.0000      -6.036234      -164.2543
  21   2.0000      -6.035983      -164.2474
  22   2.0000      -6.032013      -164.1394
  23   2.0000      -6.028727      -164.0500
  24   2.0000      -1.006691       -27.3935
  25   2.0000      -0.983607       -26.7653
  26   2.0000      -0.913164       -24.8485
  27   2.0000      -0.909623       -24.7521
  28   2.0000      -0.868215       -23.6253
  29   2.0000      -0.848885       -23.0993
  30   2.0000      -0.847553       -23.0631
  31   2.0000      -0.807428       -21.9712
  32   2.0000      -0.784473       -21.3466
  33   2.0000      -0.772592       -21.0233
  34   2.0000      -0.708421       -19.2771
  35   2.0000      -0.699773       -19.0418
  36   2.0000      -0.689854       -18.7719
  37   2.0000      -0.658807       -17.9271
  38   2.0000      -0.639996       -17.4152
  39   2.0000      -0.617097       -16.7921
  40   2.0000      -0.599757       -16.3202
  41   2.0000      -0.567895       -15.4532
  42   2.0000      -0.563660       -15.3380
  43   2.0000      -0.552017       -15.0212
  44   2.0000      -0.536757       -14.6059
  45   2.0000      -0.520827       -14.1724
  46   2.0000      -0.516741       -14.0612
  47   2.0000      -0.511784       -13.9263
  48   2.0000      -0.507740       -13.8163
  49   2.0000      -0.496864       -13.5204
  50   2.0000      -0.490031       -13.3344
  51   2.0000      -0.480686       -13.0801
  52   2.0000      -0.476435       -12.9645
  53   2.0000      -0.466111       -12.6835
  54   2.0000      -0.456788       -12.4298
  55   2.0000      -0.447806       -12.1854
  56   2.0000      -0.442422       -12.0389
  57   2.0000      -0.440687       -11.9917
  58   2.0000      -0.434191       -11.8149
  59   2.0000      -0.426202       -11.5975
  60   2.0000      -0.422582       -11.4990
  61   2.0000      -0.419960       -11.4277
  62   2.0000      -0.410541       -11.1714
  63   2.0000      -0.333660        -9.0793
  64   2.0000      -0.328814        -8.9475
  65   2.0000      -0.324474        -8.8294
  66   2.0000      -0.298198        -8.1144
  67   0.0000       0.037749         1.0272
  68   0.0000       0.060940         1.6583
  69   0.0000       0.112938         3.0732
  70   0.0000       0.116237         3.1630
  71   0.0000       0.131879         3.5886

MULLIKEN ATOMIC CHARGES
-----------------------
   0 S :    0.152238
   1 C :   -0.109585
   2 C :   -0.087683
   3 C :    0.048443
   4 C :   -0.175804
   5 H :   -0.001447
   6 C :    0.032279
   7 H :    0.017082
   8 H :    0.044542
   9 C :   -0.056784
  10 H :    0.022382
  11 H :    0.029025
  12 C :   -0.021425
  13 H :    0.034011
  14 H :    0.026266
  15 H :    0.022329
  16 S :    0.110034
  17 C :   -0.082786
  18 C :   -0.047122
  19 C :   -0.020856
  20 C :   -0.197089
  21 H :    0.037234
  22 C :    0.092904
  23 H :    0.023650
  24 H :   -0.000642
  25 C :   -0.081221
  26 H :    0.032628
  27 H :    0.023620
  28 C :   -0.022952
  29 H :    0.028345
  30 H :    0.020658
  31 H :    0.032532
  32 H :    0.025444
  33 H :    0.049749
Sum of atomic charges:    0.0000000

LOEWDIN ATOMIC CHARGES
----------------------
   0 S :    0.454227
   1 C :   -0.215555
   2 C :   -0.068394
   3 C :   -0.055249
   4 C :   -0.213286
   5 H :    0.024290
   6 C :   -0.034608
   7 H :    0.024918
   8 H :    0.038892
   9 C :   -0.045498
  10 H :    0.021120
  11 H :    0.032461
  12 C :   -0.064122
  13 H :    0.030971
  14 H :    0.028187
  15 H :    0.019266
  16 S :    0.412539
  17 C :   -0.195047
  18 C :   -0.084872
  19 C :   -0.041202
  20 C :   -0.198552
  21 H :    0.037613
  22 C :   -0.023485
  23 H :    0.030986
  24 H :    0.017925
  25 C :   -0.030348
  26 H :    0.026826
  27 H :    0.018238
  28 C :   -0.064083
  29 H :    0.024270
  30 H :    0.021770
  31 H :    0.024433
  32 H :    0.025913
  33 H :    0.019454

  Mayer bond orders larger than 0.100000
B(  0-S ,  1-C ) :   1.1419 B(  0-S ,  4-C ) :   1.1983 B(  1-C ,  2-C ) :   1.6028
B(  1-C , 32-H ) :   0.9686 B(  2-C ,  3-C ) :   1.2754 B(  2-C ,  6-C ) :   1.0002
B(  3-C ,  4-C ) :   1.5049 B(  3-C ,  5-H ) :   1.0012 B(  4-C , 20-C ) :   1.0329
B(  6-C ,  7-H ) :   0.9456 B(  6-C ,  8-H ) :   0.9343 B(  6-C ,  9-C ) :   1.0890
B(  9-C , 10-H ) :   0.9448 B(  9-C , 11-H ) :   0.9487 B(  9-C , 12-C ) :   1.0848
B( 12-C , 13-H ) :   0.9683 B( 12-C , 14-H ) :   0.9704 B( 12-C , 15-H ) :   0.9753
B( 16-S , 17-C ) :   1.1976 B( 16-S , 20-C ) :   1.1270 B( 17-C , 18-C ) :   1.5738
B( 17-C , 33-H ) :   0.9706 B( 18-C , 19-C ) :   1.2388 B( 18-C , 21-H ) :   0.9838
B( 19-C , 20-C ) :   1.6003 B( 19-C , 22-C ) :   1.0477 B( 22-C , 23-H ) :   0.9413
B( 22-C , 24-H ) :   0.9289 B( 22-C , 25-C ) :   1.0561 B( 25-C , 26-H ) :   0.9556
B( 25-C , 27-H ) :   0.9600 B( 25-C , 28-C ) :   1.0852 B( 28-C , 29-H ) :   0.9735
B( 28-C , 30-H ) :   0.9727 B( 28-C , 31-H ) :   0.9740

Dispersion correction           -0.014591900
FINAL SINGLE POINT ENERGY     -1339.884271613391

DIPOLE MOMENT
-------------
                                X             Y             Z
Electronic contribution:    -13.36685      21.30145      -6.69617
Nuclear contribution   :     13.59110     -21.75603       6.91410
                        -----------------------------------------
Total Dipole Moment    :      0.22425      -0.45458       0.21792
                        -----------------------------------------
Magnitude (a.u.)       :      0.55174
Magnitude (Debye)      :      1.40242

Rotational constants in cm-1:     0.017121     0.009155     0.007552
Rotational constants in MHz :   513.261199   274.452361   226.415055

                             ****ORCA TERMINATED NORMALLY****
TOTAL RUN TIME: 0 days 0 hours 0 minutes 35 seconds 134 msec
