                         Program Version 4.2.1 -  RELEASE  -
|  1> ! wB97X-D3 SP def2-SVP
|  2> %pal
|  3> nprocs 16
|  4> end
|  5>
|  6> * xyz 0 1
|  7> S 	 -39.3395 	 61.7292 	 107.63
|  8> C 	 -38.3664 	 61.649 	 109.102
|  9> C 	 -37.0876 	 61.2761 	 108.848
| 10> C 	 -36.8054 	 61.1596 	 107.461
| 11> C 	 -37.9703 	 61.2192 	 106.723
| 12> H 	 -35.9043 	 61.0767 	 106.92
| 13> C 	 -35.9779 	 61.2273 	 109.86
| 14> H 	 -34.9975 	 60.953 	 109.349
| 15> H 	 -36.1893 	 60.262 	 110.439
| 16> C 	 -35.869 	 62.1484 	 111.027
| 17> H 	 -36.6064 	 61.8415 	 111.735
| 18> H 	 -34.8699 	 62.0724 	 111.493
| 19> C 	 -35.9499 	 63.5688 	 110.591
| 20> H 	 -35.4308 	 64.2865 	 111.218
| 21> H 	 -35.499 	 63.6338 	 109.595
| 22> H 	 -36.965 	 63.8657 	 110.485
| 23> S 	 -37.3312 	 59.41 	 104.793
| 24> C 	 -38.0455 	 59.5643 	 103.223
| 25> C 	 -38.6597 	 60.7863 	 103.043
| 26> C 	 -38.6913 	 61.5759 	 104.235
| 27> C 	 -38.1266 	 60.9183 	 105.309
| 28> H 	 -39.0175 	 60.9625 	 102.046
| 29> C 	 -39.0086 	 63.0433 	 104.171
| 30> H 	 -38.4523 	 63.6591 	 103.43
| 31> H 	 -38.701 	 63.473 	 105.141
| 32> C 	 -40.4914 	 63.371 	 104.1
| 33> H 	 -40.9127 	 62.9681 	 105.039
| 34> H 	 -41.0361 	 62.8781 	 103.241
| 35> C 	 -40.7706 	 64.9126 	 104.055
| 36> H 	 -40.1569 	 65.3934 	 103.352
| 37> H 	 -40.6338 	 65.3805 	 105.061
| 38> H 	 -41.8217 	 65.0661 	 103.819
| 39> H 	 -38.6558 	 61.7144 	 110.148
| 40> H 	 -37.9398 	 58.8036 	 102.488
| 41> *
| 42>
| 43>                          ****END OF INPUT****

CARTESIAN COORDINATES (ANGSTROEM)
---------------------------------
  S    -39.339500   61.729200  107.630000
  C    -38.366400   61.649000  109.102000
  C    -37.087600   61.276100  108.848000
  C    -36.805400   61.159600  107.461000
  C    -37.970300   61.219200  106.723000
  H    -35.904300   61.076700  106.920000
  C    -35.977900   61.227300  109.860000
  H    -34.997500   60.953000  109.349000
  H    -36.189300   60.262000  110.439000
  C    -35.869000   62.148400  111.027000
  H    -36.606400   61.841500  111.735000
  H    -34.869900   62.072400  111.493000
  C    -35.949900   63.568800  110.591000
  H    -35.430800   64.286500  111.218000
  H    -35.499000   63.633800  109.595000
  H    -36.965000   63.865700  110.485000
  S    -37.331200   59.410000  104.793000
  C    -38.045500   59.564300  103.223000
  C    -38.659700   60.786300  103.043000
  C    -38.691300   61.575900  104.235000
  C    -38.126600   60.918300  105.309000
  H    -39.017500   60.962500  102.046000
  C    -39.008600   63.043300  104.171000
  H    -38.452300   63.659100  103.430000
  H    -38.701000   63.473000  105.141000
  C    -40.491400   63.371000  104.100000
  H    -40.912700   62.968100  105.039000
  H    -41.036100   62.878100  103.241000
  C    -40.770600   64.912600  104.055000
  H    -40.156900   65.393400  103.352000
  H    -40.633800   65.380500  105.061000
  H    -41.821700   65.066100  103.819000
  H    -38.655800   61.714400  110.148000
  H    -37.939800   58.803600  102.488000

 Total Charge           Charge          ....    0
 Multiplicity           Mult            ....    1
 Number of Electrons    NEL             ....  134
 Basis Dimension        Dim             ....  322

ORBITAL ENERGIES
----------------

  NO   OCC          E(Eh)            E(eV)
   0   2.0000     -88.971164     -2421.0284
   1   2.0000     -88.964119     -2420.8368
   2   2.0000     -10.327895      -281.0363
   3   2.0000     -10.326713      -281.0041
   4   2.0000     -10.313476      -280.6439
   5   2.0000     -10.309286      -280.5299
   6   2.0000     -10.304366      -280.3960
   7   2.0000     -10.298875      -280.2466
   8   2.0000     -10.294732      -280.1339
   9   2.0000     -10.292687      -280.0783
  10   2.0000     -10.290891      -280.0294
  11   2.0000     -10.288445      -279.9628
  12   2.0000     -10.287696      -279.9425
  13   2.0000     -10.281574      -279.7759
  14   2.0000     -10.275384      -279.6074
  15   2.0000     -10.265243      -279.3315
  16   2.0000      -8.085642      -220.0215
  17   2.0000      -8.079002      -219.8408
  18   2.0000      -6.044201      -164.4711
  19   2.0000      -6.040276      -164.3643
  20   2.0000      -6.037409      -164.2862
  21   2.0000      -6.036286      -164.2557
  22   2.0000      -6.033639      -164.1837
  23   2.0000      -6.029710      -164.0767
  24   2.0000      -1.011584       -27.5266
  25   2.0000      -0.987463       -26.8702
  26   2.0000      -0.923221       -25.1221
  27   2.0000      -0.907170       -24.6853
  28   2.0000      -0.872031       -23.7292
  29   2.0000      -0.854949       -23.2643
  30   2.0000      -0.846615       -23.0376
  31   2.0000      -0.812625       -22.1126
  32   2.0000      -0.786023       -21.3888
  33   2.0000      -0.774156       -21.0659
  34   2.0000      -0.706012       -19.2116
  35   2.0000      -0.703786       -19.1510
  36   2.0000      -0.689460       -18.7612
  37   2.0000      -0.662556       -18.0291
  38   2.0000      -0.639069       -17.3900
  39   2.0000      -0.608744       -16.5648
  40   2.0000      -0.596936       -16.2434
  41   2.0000      -0.581622       -15.8267
  42   2.0000      -0.562882       -15.3168
  43   2.0000      -0.557796       -15.1784
  44   2.0000      -0.551281       -15.0011
  45   2.0000      -0.523859       -14.2549
  46   2.0000      -0.518261       -14.1026
  47   2.0000      -0.510764       -13.8986
  48   2.0000      -0.504373       -13.7247
  49   2.0000      -0.496014       -13.4972
  50   2.0000      -0.492371       -13.3981
  51   2.0000      -0.475331       -12.9344
  52   2.0000      -0.471727       -12.8363
  53   2.0000      -0.466610       -12.6971
  54   2.0000      -0.460806       -12.5392
  55   2.0000      -0.447141       -12.1673
  56   2.0000      -0.439745       -11.9661
  57   2.0000      -0.435079       -11.8391
  58   2.0000      -0.432709       -11.7746
  59   2.0000      -0.424048       -11.5389
  60   2.0000      -0.417533       -11.3617
  61   2.0000      -0.413582       -11.2541
  62   2.0000      -0.411012       -11.1842
  63   2.0000      -0.347622        -9.4593
  64   2.0000      -0.332221        -9.0402
  65   2.0000      -0.329988        -8.9794
  66   2.0000      -0.288731        -7.8568
  67   0.0000       0.026721         0.7271
  68   0.0000       0.068577         1.8661
  69   0.0000       0.093581         2.5465
  70   0.0000       0.114266         3.1093
  71   0.0000       0.135848         3.6966

MULLIKEN ATOMIC CHARGES
-----------------------
   0 S :    0.127296
   1 C :   -0.117768
   2 C :   -0.055153
   3 C :    0.014176
   4 C :   -0.155547
   5 H :    0.002889
   6 C :    0.000407
   7 H :    0.035699
   8 H :    0.038784
   9 C :   -0.048871
  10 H :    0.022884
  11 H :    0.033160
  12 C :   -0.023067
  13 H :    0.028795
  14 H :    0.025622
  15 H :    0.020955
  16 S :    0.102935
  17 C :   -0.091717
  18 C :   -0.022154
  19 C :    0.015388
  20 C :   -0.158797
  21 H :    0.015085
  22 C :    0.035028
  23 H :    0.040965
  24 H :    0.016464
  25 C :   -0.118803
  26 H :    0.026741
  27 H :    0.038491
  28 C :   -0.028262
  29 H :    0.021689
  30 H :    0.037564
  31 H :    0.032866
  32 H :    0.039769
  33 H :    0.046485
Sum of atomic charges:    0.0000000

LOEWDIN ATOMIC CHARGES
----------------------
   0 S :    0.422859
   1 C :   -0.205734
   2 C :   -0.059610
   3 C :   -0.067879
   4 C :   -0.194042
   5 H :    0.025780
   6 C :   -0.050060
   7 H :    0.036835
   8 H :    0.047215
   9 C :   -0.047649
  10 H :    0.018375
  11 H :    0.036396
  12 C :   -0.064422
  13 H :    0.022283
  14 H :    0.029968
  15 H :    0.019602
  16 S :    0.402668
  17 C :   -0.180346
  18 C :   -0.065026
  19 C :   -0.059674
  20 C :   -0.183838
  21 H :    0.031625
  22 C :   -0.039245
  23 H :    0.034168
  24 H :    0.028591
  25 C :   -0.045270
  26 H :    0.021569
  27 H :    0.023654
  28 C :   -0.063333
  29 H :    0.014351
  30 H :    0.030819
  31 H :    0.027327
  32 H :    0.030751
  33 H :    0.021292

  Mayer bond orders larger than 0.100000
B(  0-S ,  1-C ) :   1.1109 B(  0-S ,  4-C ) :   1.1622 B(  1-C ,  2-C ) :   1.6529
B(  1-C , 32-H ) :   0.9586 B(  2-C ,  3-C ) :   1.2065 B(  2-C ,  6-C ) :   1.0210
B(  3-C ,  4-C ) :   1.5695 B(  3-C ,  5-H ) :   1.0027 B(  4-C , 20-C ) :   1.0415
B(  6-C ,  7-H ) :   0.9453 B(  6-C ,  8-H ) :   0.9246 B(  6-C ,  9-C ) :   1.0868
B(  9-C , 10-H ) :   0.9525 B(  9-C , 11-H ) :   0.9461 B(  9-C , 12-C ) :   1.0895
B( 12-C , 13-H ) :   0.9766 B( 12-C , 14-H ) :   0.9730 B( 12-C , 15-H ) :   0.9673
B( 16-S , 17-C ) :   1.1549 B( 16-S , 20-C ) :   1.1336 B( 17-C , 18-C ) :   1.6226
B( 17-C , 33-H ) :   0.9718 B( 18-C , 19-C ) :   1.1976 B( 18-C , 21-H ) :   0.9993
B( 19-C , 20-C ) :   1.5942 B( 19-C , 22-C ) :   1.0437 B( 22-C , 23-H ) :   0.9485
B( 22-C , 24-H ) :   0.9314 B( 22-C , 25-C ) :   1.0490 B( 25-C , 26-H ) :   0.9519
B( 25-C , 27-H ) :   0.9646 B( 25-C , 28-C ) :   1.0780 B( 28-C , 29-H ) :   0.9760
B( 28-C , 30-H ) :   0.9753 B( 28-C , 31-H ) :   0.9752

Dispersion correction           -0.014410186
FINAL SINGLE POINT ENERGY     -1339.865751086651

DIPOLE MOMENT
-------------
                                X             Y             Z
Electronic contribution:     -1.26395     -18.01357      -7.61536
Nuclear contribution   :      1.50233      18.21992       7.61872
                        -----------------------------------------
Total Dipole Moment    :      0.23838       0.20635       0.00336
                        -----------------------------------------
Magnitude (a.u.)       :      0.31531
Magnitude (Debye)      :      0.80144

Rotational constants in cm-1:     0.020170     0.008304     0.006480
Rotational constants in MHz :   604.672991   248.953611   194.267281

                             ****ORCA TERMINATED NORMALLY****
TOTAL RUN TIME: 0 days 0 hours 0 minutes 30 seconds 109 msec
