                         Program Version 4.2.1 -  RELEASE  -
|  1> ! wB97X-D3 SP def2-SVP
|  2> %pal
|  3> nprocs 16
|  4> end
|  5>
|  6> * xyz 0 1
|  7> S 	 12.4167 	 -17.1316 	 79.8166
|  8> C 	 13.6784 	 -17.2868 	 78.5112
|  9> C 	 13.7148 	 -16.0811 	 77.8256
| 10> C 	 12.7589 	 -15.153 	 78.251
| 11> C 	 11.9972 	 -15.5254 	 79.316
| 12> H 	 12.6019 	 -14.1953 	 77.9283
| 13> C 	 14.6912 	 -15.844 	 76.6938
| 14> H 	 14.3037 	 -15.8568 	 75.6836
| 15> H 	 15.3729 	 -16.6349 	 76.7702
| 16> C 	 15.7056 	 -14.6821 	 76.9069
| 17> H 	 15.1078 	 -13.6988 	 77.0788
| 18> H 	 16.2136 	 -14.8064 	 77.8324
| 19> C 	 16.6188 	 -14.4726 	 75.7023
| 20> H 	 17.4256 	 -15.18 	 75.5834
| 21> H 	 16.0327 	 -14.3568 	 74.7712
| 22> H 	 17.1431 	 -13.5483 	 75.9793
| 23> S 	 11.2826 	 -13.8482 	 81.3947
| 24> C 	 9.65042 	 -13.2974 	 81.3984
| 25> C 	 8.82757 	 -13.8042 	 80.4186
| 26> C 	 9.58704 	 -14.7144 	 79.5764
| 27> C 	 10.9107 	 -14.8117 	 80.0017
| 28> H 	 7.74341 	 -13.5496 	 80.3679
| 29> C 	 8.98258 	 -15.5191 	 78.3648
| 30> H 	 9.6292 	 -15.6649 	 77.4672
| 31> H 	 8.0753 	 -15.0244 	 78.0036
| 32> C 	 8.46942 	 -16.9159 	 78.8329
| 33> H 	 7.52149 	 -16.7333 	 79.3684
| 34> H 	 9.12954 	 -17.375 	 79.6613
| 35> C 	 8.20494 	 -17.8839 	 77.6236
| 36> H 	 7.31752 	 -17.5016 	 77.0415
| 37> H 	 7.886 	 -18.8425 	 78.1256
| 38> H 	 9.07047 	 -18.0491 	 76.9239
| 39> H 	 14.2863 	 -18.1418 	 78.3378
| 40> H 	 9.30804 	 -12.659 	 82.1964
| 41> *
| 42>
| 43>                          ****END OF INPUT****

CARTESIAN COORDINATES (ANGSTROEM)
---------------------------------
  S     12.416700  -17.131600   79.816600
  C     13.678400  -17.286800   78.511200
  C     13.714800  -16.081100   77.825600
  C     12.758900  -15.153000   78.251000
  C     11.997200  -15.525400   79.316000
  H     12.601900  -14.195300   77.928300
  C     14.691200  -15.844000   76.693800
  H     14.303700  -15.856800   75.683600
  H     15.372900  -16.634900   76.770200
  C     15.705600  -14.682100   76.906900
  H     15.107800  -13.698800   77.078800
  H     16.213600  -14.806400   77.832400
  C     16.618800  -14.472600   75.702300
  H     17.425600  -15.180000   75.583400
  H     16.032700  -14.356800   74.771200
  H     17.143100  -13.548300   75.979300
  S     11.282600  -13.848200   81.394700
  C      9.650420  -13.297400   81.398400
  C      8.827570  -13.804200   80.418600
  C      9.587040  -14.714400   79.576400
  C     10.910700  -14.811700   80.001700
  H      7.743410  -13.549600   80.367900
  C      8.982580  -15.519100   78.364800
  H      9.629200  -15.664900   77.467200
  H      8.075300  -15.024400   78.003600
  C      8.469420  -16.915900   78.832900
  H      7.521490  -16.733300   79.368400
  H      9.129540  -17.375000   79.661300
  C      8.204940  -17.883900   77.623600
  H      7.317520  -17.501600   77.041500
  H      7.886000  -18.842500   78.125600
  H      9.070470  -18.049100   76.923900
  H     14.286300  -18.141800   78.337800
  H      9.308040  -12.659000   82.196400

 Total Charge           Charge          ....    0
 Multiplicity           Mult            ....    1
 Number of Electrons    NEL             ....  134
 Basis Dimension        Dim             ....  322

ORBITAL ENERGIES
----------------

  NO   OCC          E(Eh)            E(eV)
   0   2.0000     -88.969387     -2420.9801
   1   2.0000     -88.960682     -2420.7432
   2   2.0000     -10.323191      -280.9083
   3   2.0000     -10.323003      -280.9032
   4   2.0000     -10.316788      -280.7341
   5   2.0000     -10.315486      -280.6986
   6   2.0000     -10.312104      -280.6066
   7   2.0000     -10.301538      -280.3191
   8   2.0000     -10.299281      -280.2577
   9   2.0000     -10.297574      -280.2112
  10   2.0000     -10.291677      -280.0508
  11   2.0000     -10.290018      -280.0056
  12   2.0000     -10.289130      -279.9815
  13   2.0000     -10.283640      -279.8321
  14   2.0000     -10.280573      -279.7486
  15   2.0000     -10.280343      -279.7424
  16   2.0000      -8.084913      -220.0017
  17   2.0000      -8.074678      -219.7231
  18   2.0000      -6.043164      -164.4429
  19   2.0000      -6.039463      -164.3421
  20   2.0000      -6.035755      -164.2412
  21   2.0000      -6.033123      -164.1696
  22   2.0000      -6.029173      -164.0621
  23   2.0000      -6.025653      -163.9664
  24   2.0000      -1.006578       -27.3904
  25   2.0000      -0.983467       -26.7615
  26   2.0000      -0.910458       -24.7748
  27   2.0000      -0.895992       -24.3812
  28   2.0000      -0.867466       -23.6049
  29   2.0000      -0.845085       -22.9959
  30   2.0000      -0.842524       -22.9262
  31   2.0000      -0.816085       -22.2068
  32   2.0000      -0.780679       -21.2434
  33   2.0000      -0.766946       -20.8697
  34   2.0000      -0.702069       -19.1043
  35   2.0000      -0.689924       -18.7738
  36   2.0000      -0.683058       -18.5870
  37   2.0000      -0.659520       -17.9464
  38   2.0000      -0.649328       -17.6691
  39   2.0000      -0.620024       -16.8717
  40   2.0000      -0.597447       -16.2574
  41   2.0000      -0.573861       -15.6156
  42   2.0000      -0.557593       -15.1729
  43   2.0000      -0.550299       -14.9744
  44   2.0000      -0.523768       -14.2524
  45   2.0000      -0.518337       -14.1047
  46   2.0000      -0.510318       -13.8865
  47   2.0000      -0.508386       -13.8339
  48   2.0000      -0.502844       -13.6831
  49   2.0000      -0.495748       -13.4900
  50   2.0000      -0.489997       -13.3335
  51   2.0000      -0.475005       -12.9255
  52   2.0000      -0.473495       -12.8845
  53   2.0000      -0.465828       -12.6758
  54   2.0000      -0.459761       -12.5107
  55   2.0000      -0.448857       -12.2140
  56   2.0000      -0.447518       -12.1776
  57   2.0000      -0.438655       -11.9364
  58   2.0000      -0.435547       -11.8518
  59   2.0000      -0.417330       -11.3561
  60   2.0000      -0.416862       -11.3434
  61   2.0000      -0.408823       -11.1246
  62   2.0000      -0.399401       -10.8683
  63   2.0000      -0.337883        -9.1943
  64   2.0000      -0.329643        -8.9700
  65   2.0000      -0.319097        -8.6831
  66   2.0000      -0.313324        -8.5260
  67   0.0000       0.049167         1.3379
  68   0.0000       0.053953         1.4681
  69   0.0000       0.117400         3.1946
  70   0.0000       0.119972         3.2646
  71   0.0000       0.128225         3.4892

MULLIKEN ATOMIC CHARGES
-----------------------
   0 S :    0.089975
   1 C :   -0.122016
   2 C :   -0.067559
   3 C :    0.096173
   4 C :   -0.175837
   5 H :   -0.033476
   6 C :    0.112987
   7 H :    0.035185
   8 H :   -0.010335
   9 C :   -0.130506
  10 H :    0.032594
  11 H :    0.025801
  12 C :   -0.035455
  13 H :    0.032752
  14 H :    0.042469
  15 H :    0.034481
  16 S :    0.137220
  17 C :   -0.095253
  18 C :   -0.040899
  19 C :   -0.009194
  20 C :   -0.195138
  21 H :    0.040373
  22 C :    0.070010
  23 H :    0.042599
  24 H :    0.018986
  25 C :   -0.122572
  26 H :    0.026016
  27 H :    0.047159
  28 C :   -0.084076
  29 H :    0.039256
  30 H :    0.047029
  31 H :    0.058206
  32 H :    0.040649
  33 H :    0.052397
Sum of atomic charges:   -0.0000000

LOEWDIN ATOMIC CHARGES
----------------------
   0 S :    0.384557
   1 C :   -0.171763
   2 C :   -0.060145
   3 C :   -0.057559
   4 C :   -0.191025
   5 H :    0.018249
   6 C :   -0.031391
   7 H :    0.029002
   8 H :    0.022149
   9 C :   -0.039961
  10 H :    0.025108
  11 H :    0.019681
  12 C :   -0.067148
  13 H :    0.021808
  14 H :    0.030323
  15 H :    0.033327
  16 S :    0.430342
  17 C :   -0.188004
  18 C :   -0.077199
  19 C :   -0.040857
  20 C :   -0.221510
  21 H :    0.042950
  22 C :   -0.034591
  23 H :    0.033680
  24 H :    0.028490
  25 C :   -0.050831
  26 H :    0.022211
  27 H :    0.026774
  28 C :   -0.078500
  29 H :    0.028807
  30 H :    0.034411
  31 H :    0.031397
  32 H :    0.023577
  33 H :    0.023640

  Mayer bond orders larger than 0.100000
B(  0-S ,  1-C ) :   1.1284 B(  0-S ,  4-C ) :   1.1623 B(  1-C ,  2-C ) :   1.6042
B(  1-C ,  4-C ) :   0.1039 B(  1-C , 32-H ) :   0.9763 B(  2-C ,  3-C ) :   1.2168
B(  2-C ,  6-C ) :   1.0243 B(  3-C ,  4-C ) :   1.6075 B(  3-C ,  5-H ) :   1.0163
B(  4-C , 20-C ) :   0.9836 B(  6-C ,  7-H ) :   0.9439 B(  6-C ,  8-H ) :   0.9333
B(  6-C ,  9-C ) :   1.0504 B(  9-C , 10-H ) :   0.9601 B(  9-C , 11-H ) :   0.9561
B(  9-C , 12-C ) :   1.0798 B( 12-C , 13-H ) :   0.9755 B( 12-C , 14-H ) :   0.9730
B( 12-C , 15-H ) :   0.9715 B( 16-S , 17-C ) :   1.1689 B( 16-S , 20-C ) :   1.1536
B( 17-C , 18-C ) :   1.6193 B( 17-C , 33-H ) :   0.9653 B( 18-C , 19-C ) :   1.2337
B( 18-C , 21-H ) :   0.9841 B( 19-C , 20-C ) :   1.6178 B( 19-C , 22-C ) :   1.0359
B( 22-C , 23-H ) :   0.9473 B( 22-C , 24-H ) :   0.9364 B( 22-C , 25-C ) :   1.0421
B( 25-C , 26-H ) :   0.9557 B( 25-C , 27-H ) :   0.9622 B( 25-C , 28-C ) :   1.0679
B( 28-C , 29-H ) :   0.9734 B( 28-C , 30-H ) :   0.9742 B( 28-C , 31-H ) :   0.9763

Dispersion correction           -0.014308809
FINAL SINGLE POINT ENERGY     -1339.874407487463

DIPOLE MOMENT
-------------
                                X             Y             Z
Electronic contribution:     -2.53068       3.46224      21.22748
Nuclear contribution   :      2.45463      -3.31140     -21.61805
                        -----------------------------------------
Total Dipole Moment    :     -0.07605       0.15084      -0.39057
                        -----------------------------------------
Magnitude (a.u.)       :      0.42554
Magnitude (Debye)      :      1.08163

Rotational constants in cm-1:     0.018519     0.008093     0.006784
Rotational constants in MHz :   555.175447   242.615156   203.371210

                             ****ORCA TERMINATED NORMALLY****
TOTAL RUN TIME: 0 days 0 hours 0 minutes 29 seconds 403 msec
