                         Program Version 4.2.1 -  RELEASE  -
|  1> ! wB97X-D3 SP def2-SVP
|  2> %pal
|  3> nprocs 16
|  4> end
|  5>
|  6> * xyz 0 1
|  7> S 	 -16.7951 	 31.0167 	 37.6083
|  8> C 	 -17.9603 	 32.1131 	 38.2003
|  9> C 	 -17.6241 	 33.4164 	 37.8766
| 10> C 	 -16.6127 	 33.4001 	 36.8273
| 11> C 	 -16.1041 	 32.1689 	 36.5218
| 12> H 	 -16.2874 	 34.3353 	 36.3708
| 13> C 	 -18.4628 	 34.6438 	 38.3247
| 14> H 	 -17.7374 	 35.4922 	 38.3056
| 15> H 	 -18.8531 	 34.4807 	 39.3396
| 16> C 	 -19.7106 	 34.9265 	 37.3889
| 17> H 	 -20.5474 	 34.2458 	 37.3894
| 18> H 	 -20.2101 	 35.7078 	 37.8587
| 19> C 	 -19.3277 	 35.1954 	 35.9683
| 20> H 	 -18.8564 	 34.2746 	 35.591
| 21> H 	 -20.1854 	 35.5731 	 35.4469
| 22> H 	 -18.4835 	 35.9269 	 35.8858
| 23> S 	 -13.9166 	 30.6281 	 35.7782
| 24> C 	 -13.1571 	 30.7335 	 34.2113
| 25> C 	 -13.8589 	 31.6244 	 33.4213
| 26> C 	 -14.9525 	 32.2736 	 34.1198
| 27> C 	 -15.166 	 31.8058 	 35.4101
| 28> H 	 -13.6124 	 31.7673 	 32.381
| 29> C 	 -15.8204 	 33.3954 	 33.4193
| 30> H 	 -16.6 	 33.5854 	 34.0515
| 31> H 	 -16.3384 	 32.936 	 32.5356
| 32> C 	 -15.1066 	 34.69 	 33.1312
| 33> H 	 -14.4465 	 34.4554 	 32.3691
| 34> H 	 -14.5332 	 35.1055 	 33.9214
| 35> C 	 -15.9165 	 35.8982 	 32.6264
| 36> H 	 -16.4209 	 36.3096 	 33.5186
| 37> H 	 -16.5856 	 35.4678 	 31.834
| 38> H 	 -15.1864 	 36.607 	 32.1364
| 39> H 	 -18.9001 	 31.7964 	 38.7082
| 40> H 	 -12.3337 	 30.1156 	 33.8629
| 41> *
| 42>
| 43>                          ****END OF INPUT****

CARTESIAN COORDINATES (ANGSTROEM)
---------------------------------
  S    -16.795100   31.016700   37.608300
  C    -17.960300   32.113100   38.200300
  C    -17.624100   33.416400   37.876600
  C    -16.612700   33.400100   36.827300
  C    -16.104100   32.168900   36.521800
  H    -16.287400   34.335300   36.370800
  C    -18.462800   34.643800   38.324700
  H    -17.737400   35.492200   38.305600
  H    -18.853100   34.480700   39.339600
  C    -19.710600   34.926500   37.388900
  H    -20.547400   34.245800   37.389400
  H    -20.210100   35.707800   37.858700
  C    -19.327700   35.195400   35.968300
  H    -18.856400   34.274600   35.591000
  H    -20.185400   35.573100   35.446900
  H    -18.483500   35.926900   35.885800
  S    -13.916600   30.628100   35.778200
  C    -13.157100   30.733500   34.211300
  C    -13.858900   31.624400   33.421300
  C    -14.952500   32.273600   34.119800
  C    -15.166000   31.805800   35.410100
  H    -13.612400   31.767300   32.381000
  C    -15.820400   33.395400   33.419300
  H    -16.600000   33.585400   34.051500
  H    -16.338400   32.936000   32.535600
  C    -15.106600   34.690000   33.131200
  H    -14.446500   34.455400   32.369100
  H    -14.533200   35.105500   33.921400
  C    -15.916500   35.898200   32.626400
  H    -16.420900   36.309600   33.518600
  H    -16.585600   35.467800   31.834000
  H    -15.186400   36.607000   32.136400
  H    -18.900100   31.796400   38.708200
  H    -12.333700   30.115600   33.862900

 Total Charge           Charge          ....    0
 Multiplicity           Mult            ....    1
 Number of Electrons    NEL             ....  134
 Basis Dimension        Dim             ....  322

ORBITAL ENERGIES
----------------

  NO   OCC          E(Eh)            E(eV)
   0   2.0000     -88.964980     -2420.8602
   1   2.0000     -88.962620     -2420.7960
   2   2.0000     -10.334658      -281.2203
   3   2.0000     -10.333216      -281.1811
   4   2.0000     -10.319551      -280.8093
   5   2.0000     -10.315368      -280.6954
   6   2.0000     -10.309674      -280.5405
   7   2.0000     -10.305665      -280.4314
   8   2.0000     -10.305198      -280.4187
   9   2.0000     -10.298803      -280.2447
  10   2.0000     -10.296201      -280.1739
  11   2.0000     -10.288649      -279.9684
  12   2.0000     -10.287521      -279.9377
  13   2.0000     -10.282109      -279.7904
  14   2.0000     -10.277607      -279.6679
  15   2.0000     -10.272544      -279.5301
  16   2.0000      -8.081123      -219.8985
  17   2.0000      -8.077610      -219.8029
  18   2.0000      -6.039596      -164.3458
  19   2.0000      -6.036191      -164.2531
  20   2.0000      -6.035433      -164.2325
  21   2.0000      -6.032009      -164.1393
  22   2.0000      -6.031811      -164.1339
  23   2.0000      -6.028337      -164.0394
  24   2.0000      -1.010077       -27.4856
  25   2.0000      -0.986802       -26.8522
  26   2.0000      -0.910810       -24.7844
  27   2.0000      -0.909237       -24.7416
  28   2.0000      -0.869490       -23.6600
  29   2.0000      -0.850002       -23.1297
  30   2.0000      -0.842415       -22.9233
  31   2.0000      -0.818582       -22.2747
  32   2.0000      -0.781958       -21.2781
  33   2.0000      -0.772666       -21.0253
  34   2.0000      -0.708090       -19.2681
  35   2.0000      -0.697044       -18.9675
  36   2.0000      -0.693979       -18.8841
  37   2.0000      -0.660694       -17.9784
  38   2.0000      -0.638988       -17.3877
  39   2.0000      -0.620168       -16.8756
  40   2.0000      -0.592723       -16.1288
  41   2.0000      -0.574457       -15.6318
  42   2.0000      -0.569907       -15.5079
  43   2.0000      -0.556672       -15.1478
  44   2.0000      -0.540634       -14.7114
  45   2.0000      -0.525963       -14.3122
  46   2.0000      -0.518474       -14.1084
  47   2.0000      -0.514703       -14.0058
  48   2.0000      -0.508729       -13.8432
  49   2.0000      -0.501604       -13.6494
  50   2.0000      -0.494146       -13.4464
  51   2.0000      -0.479157       -13.0385
  52   2.0000      -0.470591       -12.8054
  53   2.0000      -0.469013       -12.7625
  54   2.0000      -0.457957       -12.4616
  55   2.0000      -0.450286       -12.2529
  56   2.0000      -0.446078       -12.1384
  57   2.0000      -0.435649       -11.8546
  58   2.0000      -0.433173       -11.7872
  59   2.0000      -0.428291       -11.6544
  60   2.0000      -0.414998       -11.2927
  61   2.0000      -0.407721       -11.0946
  62   2.0000      -0.406110       -11.0508
  63   2.0000      -0.355734        -9.6800
  64   2.0000      -0.330917        -9.0047
  65   2.0000      -0.327092        -8.9006
  66   2.0000      -0.291276        -7.9260
  67   0.0000       0.029780         0.8104
  68   0.0000       0.069382         1.8880
  69   0.0000       0.109877         2.9899
  70   0.0000       0.119088         3.2405
  71   0.0000       0.124643         3.3917

MULLIKEN ATOMIC CHARGES
-----------------------
   0 S :    0.122417
   1 C :   -0.148570
   2 C :   -0.096497
   3 C :   -0.018953
   4 C :   -0.102918
   5 H :    0.012397
   6 C :    0.039490
   7 H :    0.041759
   8 H :    0.035461
   9 C :   -0.031694
  10 H :    0.016315
  11 H :    0.004177
  12 C :   -0.064108
  13 H :    0.060037
  14 H :    0.039871
  15 H :    0.020544
  16 S :    0.083976
  17 C :   -0.086507
  18 C :   -0.030336
  19 C :   -0.089173
  20 C :   -0.117724
  21 H :    0.020521
  22 C :    0.128020
  23 H :   -0.033841
  24 H :    0.034683
  25 C :   -0.058351
  26 H :    0.003496
  27 H :    0.021249
  28 C :   -0.079000
  29 H :    0.047503
  30 H :    0.037513
  31 H :    0.050300
  32 H :    0.072191
  33 H :    0.065752
Sum of atomic charges:    0.0000000

LOEWDIN ATOMIC CHARGES
----------------------
   0 S :    0.428856
   1 C :   -0.209406
   2 C :   -0.070211
   3 C :   -0.068835
   4 C :   -0.202188
   5 H :    0.029062
   6 C :   -0.025053
   7 H :    0.036032
   8 H :    0.033343
   9 C :   -0.040798
  10 H :    0.024620
  11 H :    0.013827
  12 C :   -0.066178
  13 H :    0.030791
  14 H :    0.026649
  15 H :    0.022149
  16 S :    0.398676
  17 C :   -0.185676
  18 C :   -0.072606
  19 C :   -0.054922
  20 C :   -0.189586
  21 H :    0.030773
  22 C :   -0.024140
  23 H :    0.008605
  24 H :    0.038168
  25 C :   -0.044430
  26 H :    0.011923
  27 H :    0.021063
  28 C :   -0.065499
  29 H :    0.026240
  30 H :    0.028341
  31 H :    0.035946
  32 H :    0.039767
  33 H :    0.034700

  Mayer bond orders larger than 0.100000
B(  0-S ,  1-C ) :   1.1659 B(  0-S ,  4-C ) :   1.1530 B(  1-C ,  2-C ) :   1.5856
B(  1-C , 32-H ) :   0.9655 B(  2-C ,  3-C ) :   1.2376 B(  2-C ,  6-C ) :   1.0298
B(  3-C ,  4-C ) :   1.5695 B(  3-C ,  5-H ) :   0.9987 B(  4-C , 20-C ) :   1.0081
B(  6-C ,  7-H ) :   0.9444 B(  6-C ,  8-H ) :   0.9435 B(  6-C ,  9-C ) :   1.0618
B(  9-C , 10-H ) :   0.9525 B(  9-C , 11-H ) :   0.9510 B(  9-C , 12-C ) :   1.0813
B( 12-C , 13-H ) :   0.9686 B( 12-C , 14-H ) :   0.9685 B( 12-C , 15-H ) :   0.9744
B( 16-S , 17-C ) :   1.1547 B( 16-S , 20-C ) :   1.1377 B( 17-C , 18-C ) :   1.6034
B( 17-C , 33-H ) :   0.9682 B( 18-C , 19-C ) :   1.2365 B( 18-C , 21-H ) :   0.9934
B( 19-C , 20-C ) :   1.6247 B( 19-C , 22-C ) :   1.0316 B( 22-C , 23-H ) :   0.9297
B( 22-C , 24-H ) :   0.9308 B( 22-C , 25-C ) :   1.0597 B( 25-C , 26-H ) :   0.9530
B( 25-C , 27-H ) :   0.9557 B( 25-C , 28-C ) :   1.0838 B( 28-C , 29-H ) :   0.9780
B( 28-C , 30-H ) :   0.9747 B( 28-C , 31-H ) :   0.9739

Dispersion correction           -0.015042902
FINAL SINGLE POINT ENERGY     -1339.861226678923

DIPOLE MOMENT
-------------
                                X             Y             Z
Electronic contribution:     13.53739     -26.54092      11.80122
Nuclear contribution   :    -13.91765      27.09999     -12.09466
                        -----------------------------------------
Total Dipole Moment    :     -0.38026       0.55907      -0.29344
                        -----------------------------------------
Magnitude (a.u.)       :      0.73707
Magnitude (Debye)      :      1.87347

Rotational constants in cm-1:     0.016709     0.010491     0.006754
Rotational constants in MHz :   500.919082   314.498052   202.468547

                             ****ORCA TERMINATED NORMALLY****
TOTAL RUN TIME: 0 days 0 hours 0 minutes 35 seconds 579 msec
