                         Program Version 4.2.1 -  RELEASE  -
|  1> ! wB97X-D3 SP def2-SVP
|  2> %pal
|  3> nprocs 16
|  4> end
|  5>
|  6> * xyz 0 1
|  7> S 	 -5.53009 	 43.6715 	 40.0698
|  8> C 	 -7.02472 	 42.7879 	 39.7757
|  9> C 	 -8.08031 	 43.4671 	 40.3134
| 10> C 	 -7.68218 	 44.5921 	 41.1008
| 11> C 	 -6.28473 	 44.8496 	 41.0038
| 12> H 	 -8.19395 	 45.2501 	 41.8374
| 13> C 	 -9.52466 	 42.9771 	 40.24
| 14> H 	 -10.067 	 43.0743 	 41.2107
| 15> H 	 -9.5018 	 41.9463 	 39.9496
| 16> C 	 -10.3954 	 43.7424 	 39.2974
| 17> H 	 -11.4943 	 43.6535 	 39.3684
| 18> H 	 -10.1692 	 44.8418 	 39.5697
| 19> C 	 -10.0039 	 43.5693 	 37.7832
| 20> H 	 -10.7002 	 44.2164 	 37.1548
| 21> H 	 -9.02628 	 44.0522 	 37.6789
| 22> H 	 -9.90977 	 42.5082 	 37.4961
| 23> S 	 -4.69764 	 45.6264 	 43.0632
| 24> C 	 -4.47786 	 47.2804 	 43.3623
| 25> C 	 -5.18627 	 48.0622 	 42.5028
| 26> C 	 -5.7975 	 47.3243 	 41.4694
| 27> C 	 -5.62266 	 45.961 	 41.5997
| 28> H 	 -5.30269 	 49.0803 	 42.7469
| 29> C 	 -6.71463 	 48.047 	 40.4681
| 30> H 	 -7.00394 	 47.3169 	 39.7089
| 31> H 	 -6.15378 	 48.8631 	 39.9494
| 32> C 	 -7.99571 	 48.4749 	 41.1619
| 33> H 	 -7.68143 	 49.2412 	 41.8856
| 34> H 	 -8.48145 	 47.6237 	 41.7541
| 35> C 	 -9.11932 	 49.0673 	 40.219
| 36> H 	 -9.21842 	 48.3902 	 39.3874
| 37> H 	 -8.84739 	 50.0273 	 39.8798
| 38> H 	 -10.0461 	 49.2523 	 40.804
| 39> H 	 -7.12107 	 41.848 	 39.2918
| 40> H 	 -3.96235 	 47.7202 	 44.2494
| 41> *
| 42>
| 43>                          ****END OF INPUT****

CARTESIAN COORDINATES (ANGSTROEM)
---------------------------------
  S     -5.530090   43.671500   40.069800
  C     -7.024720   42.787900   39.775700
  C     -8.080310   43.467100   40.313400
  C     -7.682180   44.592100   41.100800
  C     -6.284730   44.849600   41.003800
  H     -8.193950   45.250100   41.837400
  C     -9.524660   42.977100   40.240000
  H    -10.067000   43.074300   41.210700
  H     -9.501800   41.946300   39.949600
  C    -10.395400   43.742400   39.297400
  H    -11.494300   43.653500   39.368400
  H    -10.169200   44.841800   39.569700
  C    -10.003900   43.569300   37.783200
  H    -10.700200   44.216400   37.154800
  H     -9.026280   44.052200   37.678900
  H     -9.909770   42.508200   37.496100
  S     -4.697640   45.626400   43.063200
  C     -4.477860   47.280400   43.362300
  C     -5.186270   48.062200   42.502800
  C     -5.797500   47.324300   41.469400
  C     -5.622660   45.961000   41.599700
  H     -5.302690   49.080300   42.746900
  C     -6.714630   48.047000   40.468100
  H     -7.003940   47.316900   39.708900
  H     -6.153780   48.863100   39.949400
  C     -7.995710   48.474900   41.161900
  H     -7.681430   49.241200   41.885600
  H     -8.481450   47.623700   41.754100
  C     -9.119320   49.067300   40.219000
  H     -9.218420   48.390200   39.387400
  H     -8.847390   50.027300   39.879800
  H    -10.046100   49.252300   40.804000
  H     -7.121070   41.848000   39.291800
  H     -3.962350   47.720200   44.249400

 Total Charge           Charge          ....    0
 Multiplicity           Mult            ....    1
 Number of Electrons    NEL             ....  134
 Basis Dimension        Dim             ....  322

ORBITAL ENERGIES
----------------

  NO   OCC          E(Eh)            E(eV)
   0   2.0000     -88.968015     -2420.9428
   1   2.0000     -88.963335     -2420.8154
   2   2.0000     -10.324628      -280.9474
   3   2.0000     -10.321932      -280.8741
   4   2.0000     -10.314678      -280.6766
   5   2.0000     -10.313398      -280.6418
   6   2.0000     -10.304626      -280.4031
   7   2.0000     -10.303584      -280.3748
   8   2.0000     -10.299828      -280.2726
   9   2.0000     -10.294465      -280.1266
  10   2.0000     -10.294102      -280.1168
  11   2.0000     -10.291941      -280.0579
  12   2.0000     -10.291299      -280.0405
  13   2.0000     -10.284429      -279.8535
  14   2.0000     -10.281997      -279.7874
  15   2.0000     -10.278881      -279.7026
  16   2.0000      -8.083609      -219.9662
  17   2.0000      -8.079253      -219.8477
  18   2.0000      -6.041966      -164.4103
  19   2.0000      -6.037763      -164.2959
  20   2.0000      -6.037554      -164.2902
  21   2.0000      -6.034697      -164.2125
  22   2.0000      -6.033631      -164.1834
  23   2.0000      -6.030110      -164.0876
  24   2.0000      -1.015447       -27.6317
  25   2.0000      -0.992596       -27.0099
  26   2.0000      -0.916060       -24.9273
  27   2.0000      -0.907868       -24.7043
  28   2.0000      -0.873600       -23.7719
  29   2.0000      -0.848780       -23.0965
  30   2.0000      -0.842515       -22.9260
  31   2.0000      -0.811521       -22.0826
  32   2.0000      -0.784285       -21.3415
  33   2.0000      -0.776448       -21.1282
  34   2.0000      -0.709967       -19.3192
  35   2.0000      -0.692549       -18.8452
  36   2.0000      -0.687136       -18.6979
  37   2.0000      -0.659451       -17.9446
  38   2.0000      -0.645034       -17.5523
  39   2.0000      -0.615693       -16.7539
  40   2.0000      -0.596946       -16.2437
  41   2.0000      -0.574008       -15.6196
  42   2.0000      -0.563841       -15.3429
  43   2.0000      -0.549340       -14.9483
  44   2.0000      -0.541154       -14.7255
  45   2.0000      -0.524540       -14.2734
  46   2.0000      -0.519536       -14.1373
  47   2.0000      -0.515566       -14.0293
  48   2.0000      -0.511029       -13.9058
  49   2.0000      -0.504655       -13.7324
  50   2.0000      -0.486344       -13.2341
  51   2.0000      -0.480760       -13.0821
  52   2.0000      -0.470721       -12.8090
  53   2.0000      -0.466942       -12.7061
  54   2.0000      -0.462196       -12.5770
  55   2.0000      -0.449009       -12.2181
  56   2.0000      -0.442535       -12.0420
  57   2.0000      -0.435018       -11.8374
  58   2.0000      -0.431500       -11.7417
  59   2.0000      -0.418030       -11.3752
  60   2.0000      -0.417517       -11.3612
  61   2.0000      -0.414612       -11.2822
  62   2.0000      -0.409470       -11.1422
  63   2.0000      -0.337033        -9.1711
  64   2.0000      -0.334071        -9.0905
  65   2.0000      -0.326502        -8.8846
  66   2.0000      -0.306213        -8.3325
  67   0.0000       0.037291         1.0147
  68   0.0000       0.063727         1.7341
  69   0.0000       0.117269         3.1910
  70   0.0000       0.119894         3.2625
  71   0.0000       0.125822         3.4238

MULLIKEN ATOMIC CHARGES
-----------------------
   0 S :    0.132386
   1 C :   -0.111700
   2 C :   -0.079679
   3 C :    0.021275
   4 C :   -0.190949
   5 H :    0.033646
   6 C :    0.103423
   7 H :    0.038927
   8 H :    0.008523
   9 C :   -0.123271
  10 H :    0.042007
  11 H :    0.028474
  12 C :   -0.079399
  13 H :    0.044807
  14 H :    0.039403
  15 H :    0.038698
  16 S :    0.116105
  17 C :   -0.090863
  18 C :   -0.047740
  19 C :   -0.014129
  20 C :   -0.183634
  21 H :    0.006320
  22 C :    0.088781
  23 H :    0.021329
  24 H :    0.042878
  25 C :   -0.142034
  26 H :    0.026968
  27 H :    0.041376
  28 C :   -0.007928
  29 H :    0.033804
  30 H :    0.015801
  31 H :    0.040861
  32 H :    0.036858
  33 H :    0.068677
Sum of atomic charges:   -0.0000000

LOEWDIN ATOMIC CHARGES
----------------------
   0 S :    0.442396
   1 C :   -0.191959
   2 C :   -0.062046
   3 C :   -0.067254
   4 C :   -0.228633
   5 H :    0.037980
   6 C :   -0.032045
   7 H :    0.040267
   8 H :    0.021223
   9 C :   -0.052417
  10 H :    0.023592
  11 H :    0.029206
  12 C :   -0.076220
  13 H :    0.033536
  14 H :    0.025810
  15 H :    0.023222
  16 S :    0.425815
  17 C :   -0.198860
  18 C :   -0.078512
  19 C :   -0.044047
  20 C :   -0.210220
  21 H :    0.025467
  22 C :   -0.032827
  23 H :    0.027052
  24 H :    0.036953
  25 C :   -0.044863
  26 H :    0.019864
  27 H :    0.029852
  28 C :   -0.059753
  29 H :    0.023330
  30 H :    0.016321
  31 H :    0.032970
  32 H :    0.024937
  33 H :    0.039864

  Mayer bond orders larger than 0.100000
B(  0-S ,  1-C ) :   1.1426 B(  0-S ,  4-C ) :   1.1904 B(  1-C ,  2-C ) :   1.5953
B(  1-C , 32-H ) :   0.9753 B(  2-C ,  3-C ) :   1.2369 B(  2-C ,  6-C ) :   1.0243
B(  3-C ,  4-C ) :   1.5397 B(  3-C ,  5-H ) :   0.9889 B(  4-C , 20-C ) :   1.0235
B(  6-C ,  7-H ) :   0.9413 B(  6-C ,  8-H ) :   0.9416 B(  6-C ,  9-C ) :   1.0605
B(  9-C , 10-H ) :   0.9628 B(  9-C , 11-H ) :   0.9556 B(  9-C , 12-C ) :   1.0647
B( 12-C , 13-H ) :   0.9746 B( 12-C , 14-H ) :   0.9760 B( 12-C , 15-H ) :   0.9768
B( 16-S , 17-C ) :   1.1775 B( 16-S , 20-C ) :   1.1488 B( 17-C , 18-C ) :   1.6065
B( 17-C , 33-H ) :   0.9581 B( 18-C , 19-C ) :   1.2368 B( 18-C , 21-H ) :   1.0001
B( 19-C , 20-C ) :   1.6031 B( 19-C , 22-C ) :   1.0450 B( 22-C , 23-H ) :   0.9265
B( 22-C , 24-H ) :   0.9371 B( 22-C , 25-C ) :   1.0588 B( 25-C , 26-H ) :   0.9564
B( 25-C , 27-H ) :   0.9534 B( 25-C , 28-C ) :   1.0771 B( 28-C , 29-H ) :   0.9765
B( 28-C , 30-H ) :   0.9740 B( 28-C , 31-H ) :   0.9752

Dispersion correction           -0.015085907
FINAL SINGLE POINT ENERGY     -1339.877627072857

DIPOLE MOMENT
-------------
                                X             Y             Z
Electronic contribution:     26.31910      -9.39635      11.83184
Nuclear contribution   :    -26.86471       9.75399     -11.73849
                        -----------------------------------------
Total Dipole Moment    :     -0.54561       0.35764       0.09336
                        -----------------------------------------
Magnitude (a.u.)       :      0.65902
Magnitude (Debye)      :      1.67509

Rotational constants in cm-1:     0.018165     0.009831     0.007094
Rotational constants in MHz :   544.560062   294.738276   212.683799

                             ****ORCA TERMINATED NORMALLY****
TOTAL RUN TIME: 0 days 0 hours 0 minutes 36 seconds 269 msec
