                         Program Version 4.2.1 -  RELEASE  -
|  1> ! wB97X-D3 SP def2-SVP
|  2> %pal
|  3> nprocs 16
|  4> end
|  5>
|  6> * xyz 0 1
|  7> S 	 40.9865 	 20.721 	 85.4546
|  8> C 	 40.1329 	 22.0831 	 84.9773
|  9> C 	 40.9389 	 23.2336 	 85.0891
| 10> C 	 42.3601 	 22.9069 	 85.2075
| 11> C 	 42.5138 	 21.5919 	 85.5247
| 12> H 	 43.2354 	 23.5099 	 85.3143
| 13> C 	 40.4483 	 24.6119 	 84.8876
| 14> H 	 39.4175 	 24.6991 	 84.6316
| 15> H 	 40.9982 	 25.034 	 84.0373
| 16> C 	 40.5369 	 25.46 	 86.1391
| 17> H 	 39.8961 	 25.0622 	 86.9476
| 18> H 	 41.569 	 25.4173 	 86.5249
| 19> C 	 40.0485 	 26.8649 	 85.9057
| 20> H 	 39.0228 	 26.9441 	 85.5625
| 21> H 	 39.9809 	 27.4533 	 86.8837
| 22> H 	 40.68 	 27.3228 	 85.0923
| 23> S 	 44.385 	 19.9349 	 84.5469
| 24> C 	 45.8926 	 19.7508 	 85.3123
| 25> C 	 46.0536 	 20.695 	 86.2985
| 26> C 	 44.8396 	 21.4797 	 86.4595
| 27> C 	 43.7779 	 20.958 	 85.771
| 28> H 	 46.9216 	 20.6654 	 86.9098
| 29> C 	 44.6767 	 22.386 	 87.5758
| 30> H 	 45.1015 	 21.9337 	 88.4672
| 31> H 	 43.6506 	 22.4867 	 87.8448
| 32> C 	 45.2501 	 23.7968 	 87.4198
| 33> H 	 44.5815 	 24.4592 	 86.8203
| 34> H 	 46.1701 	 23.7575 	 86.8789
| 35> C 	 45.4983 	 24.3982 	 88.8251
| 36> H 	 46.2978 	 23.8926 	 89.349
| 37> H 	 44.5441 	 24.3183 	 89.3647
| 38> H 	 45.727 	 25.4487 	 88.7997
| 39> H 	 39.0896 	 22.09 	 84.7398
| 40> H 	 46.7645 	 19.3015 	 84.9445
| 41> *
| 42>
| 43>                          ****END OF INPUT****

CARTESIAN COORDINATES (ANGSTROEM)
---------------------------------
  S     40.986500   20.721000   85.454600
  C     40.132900   22.083100   84.977300
  C     40.938900   23.233600   85.089100
  C     42.360100   22.906900   85.207500
  C     42.513800   21.591900   85.524700
  H     43.235400   23.509900   85.314300
  C     40.448300   24.611900   84.887600
  H     39.417500   24.699100   84.631600
  H     40.998200   25.034000   84.037300
  C     40.536900   25.460000   86.139100
  H     39.896100   25.062200   86.947600
  H     41.569000   25.417300   86.524900
  C     40.048500   26.864900   85.905700
  H     39.022800   26.944100   85.562500
  H     39.980900   27.453300   86.883700
  H     40.680000   27.322800   85.092300
  S     44.385000   19.934900   84.546900
  C     45.892600   19.750800   85.312300
  C     46.053600   20.695000   86.298500
  C     44.839600   21.479700   86.459500
  C     43.777900   20.958000   85.771000
  H     46.921600   20.665400   86.909800
  C     44.676700   22.386000   87.575800
  H     45.101500   21.933700   88.467200
  H     43.650600   22.486700   87.844800
  C     45.250100   23.796800   87.419800
  H     44.581500   24.459200   86.820300
  H     46.170100   23.757500   86.878900
  C     45.498300   24.398200   88.825100
  H     46.297800   23.892600   89.349000
  H     44.544100   24.318300   89.364700
  H     45.727000   25.448700   88.799700
  H     39.089600   22.090000   84.739800
  H     46.764500   19.301500   84.944500

 Total Charge           Charge          ....    0
 Multiplicity           Mult            ....    1
 Number of Electrons    NEL             ....  134
 Basis Dimension        Dim             ....  322

ORBITAL ENERGIES
----------------

  NO   OCC          E(Eh)            E(eV)
   0   2.0000     -88.963732     -2420.8262
   1   2.0000     -88.960613     -2420.7414
   2   2.0000     -10.323221      -280.9091
   3   2.0000     -10.315747      -280.7057
   4   2.0000     -10.309918      -280.5471
   5   2.0000     -10.307382      -280.4781
   6   2.0000     -10.303571      -280.3744
   7   2.0000     -10.296764      -280.1892
   8   2.0000     -10.293589      -280.1028
   9   2.0000     -10.290245      -280.0118
  10   2.0000     -10.287042      -279.9246
  11   2.0000     -10.284891      -279.8661
  12   2.0000     -10.284487      -279.8551
  13   2.0000     -10.283362      -279.8245
  14   2.0000     -10.278024      -279.6793
  15   2.0000     -10.277637      -279.6687
  16   2.0000      -8.079736      -219.8608
  17   2.0000      -8.077316      -219.7949
  18   2.0000      -6.038133      -164.3060
  19   2.0000      -6.035705      -164.2399
  20   2.0000      -6.034000      -164.1935
  21   2.0000      -6.031562      -164.1271
  22   2.0000      -6.030606      -164.1011
  23   2.0000      -6.028025      -164.0309
  24   2.0000      -1.019522       -27.7426
  25   2.0000      -0.993078       -27.0230
  26   2.0000      -0.919084       -25.0096
  27   2.0000      -0.917400       -24.9637
  28   2.0000      -0.881013       -23.9736
  29   2.0000      -0.853949       -23.2371
  30   2.0000      -0.849653       -23.1202
  31   2.0000      -0.821303       -22.3488
  32   2.0000      -0.779130       -21.2012
  33   2.0000      -0.766959       -20.8700
  34   2.0000      -0.707758       -19.2591
  35   2.0000      -0.700823       -19.0704
  36   2.0000      -0.693121       -18.8608
  37   2.0000      -0.667146       -18.1540
  38   2.0000      -0.650695       -17.7063
  39   2.0000      -0.622507       -16.9393
  40   2.0000      -0.603676       -16.4269
  41   2.0000      -0.574290       -15.6272
  42   2.0000      -0.569161       -15.4877
  43   2.0000      -0.561367       -15.2756
  44   2.0000      -0.529817       -14.4171
  45   2.0000      -0.523267       -14.2388
  46   2.0000      -0.521136       -14.1808
  47   2.0000      -0.518647       -14.1131
  48   2.0000      -0.511448       -13.9172
  49   2.0000      -0.502543       -13.6749
  50   2.0000      -0.500904       -13.6303
  51   2.0000      -0.479876       -13.0581
  52   2.0000      -0.469923       -12.7873
  53   2.0000      -0.468783       -12.7562
  54   2.0000      -0.456358       -12.4181
  55   2.0000      -0.450383       -12.2555
  56   2.0000      -0.445564       -12.1244
  57   2.0000      -0.439740       -11.9659
  58   2.0000      -0.435956       -11.8630
  59   2.0000      -0.428646       -11.6640
  60   2.0000      -0.422228       -11.4894
  61   2.0000      -0.413825       -11.2607
  62   2.0000      -0.405082       -11.0228
  63   2.0000      -0.350149        -9.5280
  64   2.0000      -0.325237        -8.8502
  65   2.0000      -0.322533        -8.7766
  66   2.0000      -0.297917        -8.1067
  67   0.0000       0.033032         0.8988
  68   0.0000       0.072153         1.9634
  69   0.0000       0.110505         3.0070
  70   0.0000       0.115430         3.1410
  71   0.0000       0.128034         3.4840

MULLIKEN ATOMIC CHARGES
-----------------------
   0 S :    0.125619
   1 C :   -0.102205
   2 C :   -0.098465
   3 C :    0.058681
   4 C :   -0.179816
   5 H :   -0.004965
   6 C :    0.079309
   7 H :   -0.003367
   8 H :    0.032273
   9 C :   -0.088966
  10 H :    0.029460
  11 H :    0.028194
  12 C :   -0.062018
  13 H :    0.024370
  14 H :    0.045999
  15 H :    0.035907
  16 S :    0.115493
  17 C :   -0.047692
  18 C :   -0.043258
  19 C :   -0.034381
  20 C :   -0.113516
  21 H :    0.012809
  22 C :    0.031746
  23 H :    0.022494
  24 H :    0.020028
  25 C :   -0.076848
  26 H :    0.036053
  27 H :    0.020741
  28 C :   -0.046626
  29 H :    0.037429
  30 H :    0.031204
  31 H :    0.027168
  32 H :    0.046928
  33 H :    0.040218
Sum of atomic charges:   -0.0000000

LOEWDIN ATOMIC CHARGES
----------------------
   0 S :    0.428428
   1 C :   -0.217417
   2 C :   -0.056789
   3 C :   -0.051547
   4 C :   -0.196580
   5 H :    0.028945
   6 C :   -0.038208
   7 H :    0.023830
   8 H :    0.033738
   9 C :   -0.045389
  10 H :    0.028088
  11 H :    0.021464
  12 C :   -0.075640
  13 H :    0.021174
  14 H :    0.036030
  15 H :    0.029272
  16 S :    0.445742
  17 C :   -0.191588
  18 C :   -0.065324
  19 C :   -0.057010
  20 C :   -0.215779
  21 H :    0.026560
  22 C :   -0.038989
  23 H :    0.033581
  24 H :    0.028152
  25 C :   -0.036049
  26 H :    0.022446
  27 H :    0.016343
  28 C :   -0.061418
  29 H :    0.024317
  30 H :    0.027441
  31 H :    0.022167
  32 H :    0.026895
  33 H :    0.023114

  Mayer bond orders larger than 0.100000
B(  0-S ,  1-C ) :   1.1573 B(  0-S ,  4-C ) :   1.1449 B(  1-C ,  2-C ) :   1.5896
B(  1-C , 32-H ) :   0.9736 B(  2-C ,  3-C ) :   1.2057 B(  2-C ,  6-C ) :   1.0524
B(  3-C ,  4-C ) :   1.5982 B(  3-C ,  5-H ) :   0.9891 B(  4-C , 20-C ) :   1.0216
B(  6-C ,  7-H ) :   0.9373 B(  6-C ,  8-H ) :   0.9366 B(  6-C ,  9-C ) :   1.0561
B(  9-C , 10-H ) :   0.9506 B(  9-C , 11-H ) :   0.9557 B(  9-C , 12-C ) :   1.0901
B( 12-C , 13-H ) :   0.9699 B( 12-C , 14-H ) :   0.9718 B( 12-C , 15-H ) :   0.9716
B( 16-S , 17-C ) :   1.1743 B( 16-S , 20-C ) :   1.1556 B( 17-C , 18-C ) :   1.6077
B( 17-C , 33-H ) :   0.9684 B( 18-C , 19-C ) :   1.2195 B( 18-C , 21-H ) :   0.9978
B( 19-C , 20-C ) :   1.5744 B( 19-C , 22-C ) :   1.0723 B( 22-C , 23-H ) :   0.9469
B( 22-C , 24-H ) :   0.9318 B( 22-C , 25-C ) :   1.0405 B( 25-C , 26-H ) :   0.9444
B( 25-C , 27-H ) :   0.9624 B( 25-C , 28-C ) :   1.0823 B( 28-C , 29-H ) :   0.9771
B( 28-C , 30-H ) :   0.9739 B( 28-C , 31-H ) :   0.9733

Dispersion correction           -0.014446278
FINAL SINGLE POINT ENERGY     -1339.864565272432

DIPOLE MOMENT
-------------
                                X             Y             Z
Electronic contribution:     -0.12569     -29.73125     -12.66951
Nuclear contribution   :      0.28460      30.33979      12.91241
                        -----------------------------------------
Total Dipole Moment    :      0.15891       0.60854       0.24290
                        -----------------------------------------
Magnitude (a.u.)       :      0.67422
Magnitude (Debye)      :      1.71374

Rotational constants in cm-1:     0.017335     0.009794     0.006797
Rotational constants in MHz :   519.685957   293.626682   203.754482

                             ****ORCA TERMINATED NORMALLY****
TOTAL RUN TIME: 0 days 0 hours 0 minutes 29 seconds 988 msec
