                         Program Version 4.2.1 -  RELEASE  -
|  1> ! wB97X-D3 SP def2-SVP
|  2> %pal
|  3> nprocs 16
|  4> end
|  5>
|  6> * xyz 0 1
|  7> S 	 -86.9829 	 47.1318 	 129.758
|  8> C 	 -85.8812 	 46.1055 	 130.708
|  9> C 	 -84.9652 	 45.4896 	 129.857
| 10> C 	 -84.9283 	 46.0895 	 128.582
| 11> C 	 -85.8386 	 47.1131 	 128.453
| 12> H 	 -84.2055 	 45.8399 	 127.841
| 13> C 	 -83.8019 	 44.5574 	 130.268
| 14> H 	 -83.0714 	 44.813 	 129.509
| 15> H 	 -84.1832 	 43.5917 	 129.984
| 16> C 	 -83.3179 	 44.6857 	 131.677
| 17> H 	 -84.1328 	 44.3235 	 132.349
| 18> H 	 -82.5981 	 43.9221 	 131.94
| 19> C 	 -82.7785 	 46.034 	 131.936
| 20> H 	 -83.0414 	 46.0166 	 133
| 21> H 	 -81.7018 	 46.2141 	 131.656
| 22> H 	 -83.4577 	 46.8569 	 131.759
| 23> S 	 -85.3594 	 49.7489 	 128.231
| 24> C 	 -85.8185 	 50.5329 	 126.741
| 25> C 	 -86 	 49.6391 	 125.708
| 26> C 	 -86.0001 	 48.2755 	 126.127
| 27> C 	 -85.8614 	 48.1869 	 127.495
| 28> H 	 -86.2329 	 50.1021 	 124.744
| 29> C 	 -86.174 	 47.0688 	 125.207
| 30> H 	 -85.7171 	 46.1955 	 125.761
| 31> H 	 -85.5565 	 47.2891 	 124.35
| 32> C 	 -87.6294 	 46.691 	 124.83
| 33> H 	 -87.6616 	 45.8191 	 124.155
| 34> H 	 -88.0669 	 47.4726 	 124.247
| 35> C 	 -88.5077 	 46.249 	 126.015
| 36> H 	 -88.5457 	 47.117 	 126.653
| 37> H 	 -88.0422 	 45.464 	 126.651
| 38> H 	 -89.505 	 45.9993 	 125.708
| 39> H 	 -85.9718 	 45.7301 	 131.655
| 40> H 	 -86.0027 	 51.6515 	 126.647
| 41> *
| 42>
| 43>                          ****END OF INPUT****

CARTESIAN COORDINATES (ANGSTROEM)
---------------------------------
  S    -86.982900   47.131800  129.758000
  C    -85.881200   46.105500  130.708000
  C    -84.965200   45.489600  129.857000
  C    -84.928300   46.089500  128.582000
  C    -85.838600   47.113100  128.453000
  H    -84.205500   45.839900  127.841000
  C    -83.801900   44.557400  130.268000
  H    -83.071400   44.813000  129.509000
  H    -84.183200   43.591700  129.984000
  C    -83.317900   44.685700  131.677000
  H    -84.132800   44.323500  132.349000
  H    -82.598100   43.922100  131.940000
  C    -82.778500   46.034000  131.936000
  H    -83.041400   46.016600  133.000000
  H    -81.701800   46.214100  131.656000
  H    -83.457700   46.856900  131.759000
  S    -85.359400   49.748900  128.231000
  C    -85.818500   50.532900  126.741000
  C    -86.000000   49.639100  125.708000
  C    -86.000100   48.275500  126.127000
  C    -85.861400   48.186900  127.495000
  H    -86.232900   50.102100  124.744000
  C    -86.174000   47.068800  125.207000
  H    -85.717100   46.195500  125.761000
  H    -85.556500   47.289100  124.350000
  C    -87.629400   46.691000  124.830000
  H    -87.661600   45.819100  124.155000
  H    -88.066900   47.472600  124.247000
  C    -88.507700   46.249000  126.015000
  H    -88.545700   47.117000  126.653000
  H    -88.042200   45.464000  126.651000
  H    -89.505000   45.999300  125.708000
  H    -85.971800   45.730100  131.655000
  H    -86.002700   51.651500  126.647000

 Total Charge           Charge          ....    0
 Multiplicity           Mult            ....    1
 Number of Electrons    NEL             ....  134
 Basis Dimension        Dim             ....  322

ORBITAL ENERGIES
----------------

  NO   OCC          E(Eh)            E(eV)
   0   2.0000     -88.964580     -2420.8493
   1   2.0000     -88.960233     -2420.7310
   2   2.0000     -10.323709      -280.9224
   3   2.0000     -10.322698      -280.8949
   4   2.0000     -10.318497      -280.7806
   5   2.0000     -10.305968      -280.4396
   6   2.0000     -10.305498      -280.4269
   7   2.0000     -10.296759      -280.1891
   8   2.0000     -10.296180      -280.1733
   9   2.0000     -10.292967      -280.0859
  10   2.0000     -10.288940      -279.9763
  11   2.0000     -10.287141      -279.9273
  12   2.0000     -10.285852      -279.8923
  13   2.0000     -10.284459      -279.8543
  14   2.0000     -10.274472      -279.5826
  15   2.0000     -10.270212      -279.4667
  16   2.0000      -8.078939      -219.8391
  17   2.0000      -8.074814      -219.7269
  18   2.0000      -6.037467      -164.2878
  19   2.0000      -6.033681      -164.1848
  20   2.0000      -6.033313      -164.1748
  21   2.0000      -6.029558      -164.0726
  22   2.0000      -6.029506      -164.0712
  23   2.0000      -6.025363      -163.9585
  24   2.0000      -1.006641       -27.3921
  25   2.0000      -0.981306       -26.7027
  26   2.0000      -0.922105       -25.0918
  27   2.0000      -0.903307       -24.5802
  28   2.0000      -0.868128       -23.6230
  29   2.0000      -0.851570       -23.1724
  30   2.0000      -0.845027       -22.9944
  31   2.0000      -0.809393       -22.0247
  32   2.0000      -0.786584       -21.4040
  33   2.0000      -0.773530       -21.0488
  34   2.0000      -0.710680       -19.3386
  35   2.0000      -0.703838       -19.1524
  36   2.0000      -0.690455       -18.7882
  37   2.0000      -0.653956       -17.7950
  38   2.0000      -0.637813       -17.3558
  39   2.0000      -0.610660       -16.6169
  40   2.0000      -0.587143       -15.9770
  41   2.0000      -0.576122       -15.6771
  42   2.0000      -0.560584       -15.2543
  43   2.0000      -0.553949       -15.0737
  44   2.0000      -0.549140       -14.9429
  45   2.0000      -0.536970       -14.6117
  46   2.0000      -0.520026       -14.1506
  47   2.0000      -0.510814       -13.9000
  48   2.0000      -0.500226       -13.6118
  49   2.0000      -0.495304       -13.4779
  50   2.0000      -0.485753       -13.2180
  51   2.0000      -0.477348       -12.9893
  52   2.0000      -0.469022       -12.7627
  53   2.0000      -0.461373       -12.5546
  54   2.0000      -0.460153       -12.5214
  55   2.0000      -0.445689       -12.1278
  56   2.0000      -0.439956       -11.9718
  57   2.0000      -0.437423       -11.9029
  58   2.0000      -0.433960       -11.8087
  59   2.0000      -0.428412       -11.6577
  60   2.0000      -0.412590       -11.2272
  61   2.0000      -0.404421       -11.0049
  62   2.0000      -0.399921       -10.8824
  63   2.0000      -0.338008        -9.1977
  64   2.0000      -0.327937        -8.9236
  65   2.0000      -0.318834        -8.6759
  66   2.0000      -0.296362        -8.0644
  67   0.0000       0.024611         0.6697
  68   0.0000       0.065123         1.7721
  69   0.0000       0.101214         2.7542
  70   0.0000       0.107623         2.9286
  71   0.0000       0.136989         3.7276

MULLIKEN ATOMIC CHARGES
-----------------------
   0 S :    0.127588
   1 C :   -0.079371
   2 C :   -0.139129
   3 C :    0.055940
   4 C :   -0.186621
   5 H :    0.007625
   6 C :    0.109734
   7 H :    0.011770
   8 H :    0.026079
   9 C :   -0.092510
  10 H :    0.027398
  11 H :    0.024049
  12 C :   -0.035567
  13 H :    0.017359
  14 H :    0.066863
  15 H :    0.037094
  16 S :    0.106609
  17 C :   -0.116979
  18 C :   -0.057692
  19 C :   -0.004360
  20 C :   -0.184926
  21 H :    0.023103
  22 C :    0.074791
  23 H :    0.027264
  24 H :    0.029863
  25 C :   -0.056221
  26 H :    0.026797
  27 H :    0.019808
  28 C :   -0.047149
  29 H :    0.023559
  30 H :    0.040724
  31 H :    0.034080
  32 H :    0.002838
  33 H :    0.079591
Sum of atomic charges:   -0.0000000

LOEWDIN ATOMIC CHARGES
----------------------
   0 S :    0.404367
   1 C :   -0.188093
   2 C :   -0.053937
   3 C :   -0.057177
   4 C :   -0.200485
   5 H :    0.026759
   6 C :   -0.031001
   7 H :    0.026947
   8 H :    0.029257
   9 C :   -0.052257
  10 H :    0.027918
  11 H :    0.029955
  12 C :   -0.081363
  13 H :    0.040404
  14 H :    0.039649
  15 H :    0.030129
  16 S :    0.384801
  17 C :   -0.190900
  18 C :   -0.081704
  19 C :   -0.053715
  20 C :   -0.186619
  21 H :    0.034876
  22 C :   -0.028565
  23 H :    0.036067
  24 H :    0.032165
  25 C :   -0.038383
  26 H :    0.024318
  27 H :    0.018163
  28 C :   -0.064219
  29 H :    0.020078
  30 H :    0.030710
  31 H :    0.023632
  32 H :    0.005771
  33 H :    0.042453

  Mayer bond orders larger than 0.100000
B(  0-S ,  1-C ) :   1.1176 B(  0-S ,  4-C ) :   1.1596 B(  1-C ,  2-C ) :   1.6231
B(  1-C , 32-H ) :   0.9693 B(  2-C ,  3-C ) :   1.2420 B(  2-C ,  6-C ) :   0.9913
B(  3-C ,  4-C ) :   1.5738 B(  3-C ,  5-H ) :   0.9945 B(  4-C , 20-C ) :   1.0360
B(  6-C ,  7-H ) :   0.9474 B(  6-C ,  8-H ) :   0.9211 B(  6-C ,  9-C ) :   1.0859
B(  9-C , 10-H ) :   0.9526 B(  9-C , 11-H ) :   0.9415 B(  9-C , 12-C ) :   1.0639
B( 12-C , 13-H ) :   0.9620 B( 12-C , 14-H ) :   0.9719 B( 12-C , 15-H ) :   0.9653
B( 16-S , 17-C ) :   1.1445 B( 16-S , 20-C ) :   1.1335 B( 17-C , 18-C ) :   1.6481
B( 17-C , 20-C ) :   0.1003 B( 17-C , 33-H ) :   0.9564 B( 18-C , 19-C ) :   1.1874
B( 18-C , 21-H ) :   0.9912 B( 19-C , 20-C ) :   1.6180 B( 19-C , 22-C ) :   1.0337
B( 22-C , 23-H ) :   0.9348 B( 22-C , 24-H ) :   0.9323 B( 22-C , 25-C ) :   1.0737
B( 25-C , 26-H ) :   0.9566 B( 25-C , 27-H ) :   0.9571 B( 25-C , 28-C ) :   1.0712
B( 28-C , 29-H ) :   0.9757 B( 28-C , 30-H ) :   0.9733 B( 28-C , 31-H ) :   0.9733

Dispersion correction           -0.015667775
FINAL SINGLE POINT ENERGY     -1339.837699687057

DIPOLE MOMENT
-------------
                                X             Y             Z
Electronic contribution:     -4.22178      14.97576       1.43266
Nuclear contribution   :      4.47326     -15.33656      -1.62596
                        -----------------------------------------
Total Dipole Moment    :      0.25148      -0.36080      -0.19330
                        -----------------------------------------
Magnitude (a.u.)       :      0.48040
Magnitude (Debye)      :      1.22108

Rotational constants in cm-1:     0.022213     0.008676     0.007499
Rotational constants in MHz :   665.935491   260.099749   224.823751

                             ****ORCA TERMINATED NORMALLY****
TOTAL RUN TIME: 0 days 0 hours 0 minutes 39 seconds 957 msec
