                         Program Version 4.2.1 -  RELEASE  -
|  1> ! wB97X-D3 SP def2-SVP
|  2> %pal
|  3> nprocs 16
|  4> end
|  5>
|  6> * xyz 0 1
|  7> S 	 -7.30118 	 62.4633 	 53.1095
|  8> C 	 -7.27473 	 62.1925 	 54.8646
|  9> C 	 -6.09331 	 61.7212 	 55.3182
| 10> C 	 -5.17868 	 61.741 	 54.2497
| 11> C 	 -5.62649 	 62.2681 	 53.0159
| 12> H 	 -4.19403 	 61.4259 	 54.3894
| 13> C 	 -5.7076 	 61.3782 	 56.7423
| 14> H 	 -6.0214 	 62.0765 	 57.5018
| 15> H 	 -4.67542 	 61.5006 	 56.6996
| 16> C 	 -6.14839 	 59.9734 	 57.1937
| 17> H 	 -7.22092 	 60.0046 	 57.0393
| 18> H 	 -5.75826 	 59.2466 	 56.4738
| 19> C 	 -5.77976 	 59.5281 	 58.594
| 20> H 	 -6.55334 	 59.9156 	 59.3176
| 21> H 	 -5.93684 	 58.4988 	 58.6724
| 22> H 	 -4.75134 	 59.641 	 58.8893
| 23> S 	 -4.00351 	 60.7604 	 51.456
| 24> C 	 -3.3919 	 61.4006 	 49.938
| 25> C 	 -3.88804 	 62.6263 	 49.7032
| 26> C 	 -4.74149 	 63.1769 	 50.7926
| 27> C 	 -4.90729 	 62.2304 	 51.7957
| 28> H 	 -3.65363 	 63.1364 	 48.7612
| 29> C 	 -5.39254 	 64.4984 	 50.7127
| 30> H 	 -6.3434 	 64.4121 	 51.1678
| 31> H 	 -5.60671 	 64.7967 	 49.7066
| 32> C 	 -4.71266 	 65.6628 	 51.4491
| 33> H 	 -3.83116 	 65.9514 	 50.8277
| 34> H 	 -4.32023 	 65.3709 	 52.3918
| 35> C 	 -5.69377 	 66.825 	 51.5947
| 36> H 	 -6.59489 	 66.636 	 52.246
| 37> H 	 -6.08712 	 67.0376 	 50.558
| 38> H 	 -5.07437 	 67.7455 	 51.8511
| 39> H 	 -8.10674 	 62.3375 	 55.6035
| 40> H 	 -2.98175 	 60.7834 	 49.1476
| 41> *
| 42>
| 43>                          ****END OF INPUT****

CARTESIAN COORDINATES (ANGSTROEM)
---------------------------------
  S     -7.301180   62.463300   53.109500
  C     -7.274730   62.192500   54.864600
  C     -6.093310   61.721200   55.318200
  C     -5.178680   61.741000   54.249700
  C     -5.626490   62.268100   53.015900
  H     -4.194030   61.425900   54.389400
  C     -5.707600   61.378200   56.742300
  H     -6.021400   62.076500   57.501800
  H     -4.675420   61.500600   56.699600
  C     -6.148390   59.973400   57.193700
  H     -7.220920   60.004600   57.039300
  H     -5.758260   59.246600   56.473800
  C     -5.779760   59.528100   58.594000
  H     -6.553340   59.915600   59.317600
  H     -5.936840   58.498800   58.672400
  H     -4.751340   59.641000   58.889300
  S     -4.003510   60.760400   51.456000
  C     -3.391900   61.400600   49.938000
  C     -3.888040   62.626300   49.703200
  C     -4.741490   63.176900   50.792600
  C     -4.907290   62.230400   51.795700
  H     -3.653630   63.136400   48.761200
  C     -5.392540   64.498400   50.712700
  H     -6.343400   64.412100   51.167800
  H     -5.606710   64.796700   49.706600
  C     -4.712660   65.662800   51.449100
  H     -3.831160   65.951400   50.827700
  H     -4.320230   65.370900   52.391800
  C     -5.693770   66.825000   51.594700
  H     -6.594890   66.636000   52.246000
  H     -6.087120   67.037600   50.558000
  H     -5.074370   67.745500   51.851100
  H     -8.106740   62.337500   55.603500
  H     -2.981750   60.783400   49.147600

 Total Charge           Charge          ....    0
 Multiplicity           Mult            ....    1
 Number of Electrons    NEL             ....  134
 Basis Dimension        Dim             ....  322

ORBITAL ENERGIES
----------------

  NO   OCC          E(Eh)            E(eV)
   0   2.0000     -88.969629     -2420.9867
   1   2.0000     -88.961069     -2420.7537
   2   2.0000     -10.324636      -280.9476
   3   2.0000     -10.323802      -280.9249
   4   2.0000     -10.313351      -280.6405
   5   2.0000     -10.313153      -280.6352
   6   2.0000     -10.305532      -280.4278
   7   2.0000     -10.295580      -280.1570
   8   2.0000     -10.294360      -280.1238
   9   2.0000     -10.287535      -279.9381
  10   2.0000     -10.286690      -279.9151
  11   2.0000     -10.286664      -279.9144
  12   2.0000     -10.286018      -279.8968
  13   2.0000     -10.281987      -279.7871
  14   2.0000     -10.280403      -279.7440
  15   2.0000     -10.277021      -279.6520
  16   2.0000      -8.084568      -219.9923
  17   2.0000      -8.075751      -219.7524
  18   2.0000      -6.043049      -164.4397
  19   2.0000      -6.039128      -164.3330
  20   2.0000      -6.035257      -164.2277
  21   2.0000      -6.034427      -164.2051
  22   2.0000      -6.030260      -164.0917
  23   2.0000      -6.026325      -163.9846
  24   2.0000      -1.012945       -27.5636
  25   2.0000      -0.984870       -26.7997
  26   2.0000      -0.917789       -24.9743
  27   2.0000      -0.912202       -24.8223
  28   2.0000      -0.877006       -23.8645
  29   2.0000      -0.853750       -23.2317
  30   2.0000      -0.845042       -22.9948
  31   2.0000      -0.809419       -22.0254
  32   2.0000      -0.792633       -21.5686
  33   2.0000      -0.769468       -20.9383
  34   2.0000      -0.708651       -19.2834
  35   2.0000      -0.704538       -19.1714
  36   2.0000      -0.692959       -18.8564
  37   2.0000      -0.662669       -18.0321
  38   2.0000      -0.633880       -17.2487
  39   2.0000      -0.621025       -16.8989
  40   2.0000      -0.598392       -16.2831
  41   2.0000      -0.571927       -15.5629
  42   2.0000      -0.567881       -15.4528
  43   2.0000      -0.562366       -15.3027
  44   2.0000      -0.525902       -14.3105
  45   2.0000      -0.523195       -14.2369
  46   2.0000      -0.518686       -14.1142
  47   2.0000      -0.516839       -14.0639
  48   2.0000      -0.508805       -13.8453
  49   2.0000      -0.499681       -13.5970
  50   2.0000      -0.491882       -13.3848
  51   2.0000      -0.481719       -13.1082
  52   2.0000      -0.472277       -12.8513
  53   2.0000      -0.464010       -12.6264
  54   2.0000      -0.458262       -12.4699
  55   2.0000      -0.449430       -12.2296
  56   2.0000      -0.439199       -11.9512
  57   2.0000      -0.433106       -11.7854
  58   2.0000      -0.431153       -11.7323
  59   2.0000      -0.428678       -11.6649
  60   2.0000      -0.420553       -11.4438
  61   2.0000      -0.417477       -11.3601
  62   2.0000      -0.415265       -11.2999
  63   2.0000      -0.351408        -9.5623
  64   2.0000      -0.331785        -9.0283
  65   2.0000      -0.325127        -8.8472
  66   2.0000      -0.291444        -7.9306
  67   0.0000       0.027212         0.7405
  68   0.0000       0.074000         2.0136
  69   0.0000       0.109026         2.9668
  70   0.0000       0.116330         3.1655
  71   0.0000       0.127316         3.4645

MULLIKEN ATOMIC CHARGES
-----------------------
   0 S :    0.124691
   1 C :   -0.144954
   2 C :   -0.078646
   3 C :   -0.001608
   4 C :   -0.127326
   5 H :   -0.018856
   6 C :    0.118018
   7 H :    0.022676
   8 H :   -0.004043
   9 C :   -0.095963
  10 H :    0.021978
  11 H :    0.028133
  12 C :   -0.002527
  13 H :    0.035588
  14 H :    0.014513
  15 H :    0.034885
  16 S :    0.096650
  17 C :   -0.084241
  18 C :   -0.036375
  19 C :   -0.043447
  20 C :   -0.142326
  21 H :    0.024862
  22 C :    0.089997
  23 H :   -0.007181
  24 H :    0.012029
  25 C :   -0.053479
  26 H :    0.028104
  27 H :    0.026906
  28 C :   -0.085746
  29 H :    0.059698
  30 H :    0.024979
  31 H :    0.046783
  32 H :    0.051947
  33 H :    0.064281
Sum of atomic charges:   -0.0000000

LOEWDIN ATOMIC CHARGES
----------------------
   0 S :    0.433568
   1 C :   -0.194930
   2 C :   -0.064722
   3 C :   -0.060982
   4 C :   -0.220006
   5 H :    0.013198
   6 C :   -0.023573
   7 H :    0.030678
   8 H :    0.019869
   9 C :   -0.039209
  10 H :    0.023889
  11 H :    0.025000
  12 C :   -0.067145
  13 H :    0.035128
  14 H :    0.022553
  15 H :    0.026420
  16 S :    0.395633
  17 C :   -0.187057
  18 C :   -0.068839
  19 C :   -0.048218
  20 C :   -0.194093
  21 H :    0.033457
  22 C :   -0.037281
  23 H :    0.018466
  24 H :    0.028111
  25 C :   -0.034935
  26 H :    0.026939
  27 H :    0.018764
  28 C :   -0.076370
  29 H :    0.033932
  30 H :    0.026021
  31 H :    0.035066
  32 H :    0.036223
  33 H :    0.034442

  Mayer bond orders larger than 0.100000
B(  0-S ,  1-C ) :   1.1432 B(  0-S ,  4-C ) :   1.1698 B(  1-C ,  2-C ) :   1.6049
B(  1-C , 32-H ) :   0.9548 B(  2-C ,  3-C ) :   1.2870 B(  2-C ,  6-C ) :   1.0082
B(  3-C ,  4-C ) :   1.5068 B(  3-C ,  5-H ) :   1.0054 B(  4-C , 20-C ) :   1.0810
B(  6-C ,  7-H ) :   0.9422 B(  6-C ,  8-H ) :   0.9312 B(  6-C ,  9-C ) :   1.0552
B(  9-C , 10-H ) :   0.9587 B(  9-C , 11-H ) :   0.9564 B(  9-C , 12-C ) :   1.0907
B( 12-C , 13-H ) :   0.9697 B( 12-C , 14-H ) :   0.9683 B( 12-C , 15-H ) :   0.9731
B( 16-S , 17-C ) :   1.1279 B( 16-S , 20-C ) :   1.1252 B( 17-C , 18-C ) :   1.6654
B( 17-C , 33-H ) :   0.9607 B( 18-C , 19-C ) :   1.2003 B( 18-C , 21-H ) :   0.9839
B( 19-C , 20-C ) :   1.5975 B( 19-C , 22-C ) :   1.0661 B( 22-C , 23-H ) :   0.9225
B( 22-C , 24-H ) :   0.9241 B( 22-C , 25-C ) :   1.0579 B( 25-C , 26-H ) :   0.9523
B( 25-C , 27-H ) :   0.9578 B( 25-C , 28-C ) :   1.0795 B( 28-C , 29-H ) :   0.9730
B( 28-C , 30-H ) :   0.9705 B( 28-C , 31-H ) :   0.9721

Dispersion correction           -0.013700415
FINAL SINGLE POINT ENERGY     -1339.869002384141

DIPOLE MOMENT
-------------
                                X             Y             Z
Electronic contribution:      0.24296      -8.41987     -14.77167
Nuclear contribution   :     -0.20160       8.50096      14.94243
                        -----------------------------------------
Total Dipole Moment    :      0.04136       0.08108       0.17076
                        -----------------------------------------
Magnitude (a.u.)       :      0.19351
Magnitude (Debye)      :      0.49185

Rotational constants in cm-1:     0.020870     0.007668     0.006245
Rotational constants in MHz :   625.669081   229.871972   187.210224

                             ****ORCA TERMINATED NORMALLY****
TOTAL RUN TIME: 0 days 0 hours 0 minutes 33 seconds 116 msec
