                         Program Version 4.2.1 -  RELEASE  -
|  1> ! wB97X-D3 SP def2-SVP
|  2> %pal
|  3> nprocs 16
|  4> end
|  5>
|  6> * xyz 0 1
|  7> S 	 -57.4153 	 34.7982 	 91.7102
|  8> C 	 -57.888 	 33.3362 	 90.9305
|  9> C 	 -57.8577 	 32.2939 	 91.87
| 10> C 	 -57.4223 	 32.7301 	 93.2058
| 11> C 	 -57.1925 	 34.0694 	 93.3225
| 12> H 	 -57.3441 	 32.1384 	 94.1002
| 13> C 	 -58.4022 	 30.9531 	 91.5576
| 14> H 	 -58.4673 	 30.7137 	 90.4923
| 15> H 	 -59.5446 	 31.0499 	 91.7298
| 16> C 	 -58.0286 	 29.8503 	 92.5244
| 17> H 	 -58.3085 	 30.1448 	 93.5369
| 18> H 	 -58.5579 	 28.9194 	 92.3854
| 19> C 	 -56.5868 	 29.3866 	 92.5416
| 20> H 	 -56.4041 	 28.6602 	 93.3631
| 21> H 	 -56.2938 	 29.0093 	 91.5711
| 22> H 	 -55.8023 	 30.1309 	 92.7295
| 23> S 	 -57.413 	 36.4011 	 94.66
| 24> C 	 -56.1074 	 36.858 	 95.844
| 25> C 	 -55.476 	 35.7 	 96.2663
| 26> C 	 -55.7295 	 34.5291 	 95.4657
| 27> C 	 -56.6863 	 34.8154 	 94.4423
| 28> H 	 -54.8698 	 35.696 	 97.1218
| 29> C 	 -54.9732 	 33.2772 	 95.5754
| 30> H 	 -54.0216 	 33.5672 	 95.9455
| 31> H 	 -54.7762 	 32.7868 	 94.597
| 32> C 	 -55.6089 	 32.2448 	 96.5594
| 33> H 	 -55.1341 	 31.2174 	 96.3335
| 34> H 	 -56.7163 	 32.2465 	 96.2573
| 35> C 	 -55.53 	 32.6446 	 98.0753
| 36> H 	 -54.6113 	 33.1263 	 98.2198
| 37> H 	 -55.6667 	 31.8456 	 98.8123
| 38> H 	 -56.315 	 33.4159 	 98.2702
| 39> H 	 -58.1254 	 33.2356 	 89.822
| 40> H 	 -56.2291 	 37.7851 	 96.4021
| 41> *
| 42>
| 43>                          ****END OF INPUT****

CARTESIAN COORDINATES (ANGSTROEM)
---------------------------------
  S    -57.415300   34.798200   91.710200
  C    -57.888000   33.336200   90.930500
  C    -57.857700   32.293900   91.870000
  C    -57.422300   32.730100   93.205800
  C    -57.192500   34.069400   93.322500
  H    -57.344100   32.138400   94.100200
  C    -58.402200   30.953100   91.557600
  H    -58.467300   30.713700   90.492300
  H    -59.544600   31.049900   91.729800
  C    -58.028600   29.850300   92.524400
  H    -58.308500   30.144800   93.536900
  H    -58.557900   28.919400   92.385400
  C    -56.586800   29.386600   92.541600
  H    -56.404100   28.660200   93.363100
  H    -56.293800   29.009300   91.571100
  H    -55.802300   30.130900   92.729500
  S    -57.413000   36.401100   94.660000
  C    -56.107400   36.858000   95.844000
  C    -55.476000   35.700000   96.266300
  C    -55.729500   34.529100   95.465700
  C    -56.686300   34.815400   94.442300
  H    -54.869800   35.696000   97.121800
  C    -54.973200   33.277200   95.575400
  H    -54.021600   33.567200   95.945500
  H    -54.776200   32.786800   94.597000
  C    -55.608900   32.244800   96.559400
  H    -55.134100   31.217400   96.333500
  H    -56.716300   32.246500   96.257300
  C    -55.530000   32.644600   98.075300
  H    -54.611300   33.126300   98.219800
  H    -55.666700   31.845600   98.812300
  H    -56.315000   33.415900   98.270200
  H    -58.125400   33.235600   89.822000
  H    -56.229100   37.785100   96.402100

 Total Charge           Charge          ....    0
 Multiplicity           Mult            ....    1
 Number of Electrons    NEL             ....  134
 Basis Dimension        Dim             ....  322

ORBITAL ENERGIES
----------------

  NO   OCC          E(Eh)            E(eV)
   0   2.0000     -88.963895     -2420.8306
   1   2.0000     -88.962226     -2420.7852
   2   2.0000     -10.333388      -281.1858
   3   2.0000     -10.330067      -281.0954
   4   2.0000     -10.323619      -280.9200
   5   2.0000     -10.320035      -280.8224
   6   2.0000     -10.308637      -280.5123
   7   2.0000     -10.308042      -280.4961
   8   2.0000     -10.304985      -280.4129
   9   2.0000     -10.299332      -280.2591
  10   2.0000     -10.297543      -280.2104
  11   2.0000     -10.297358      -280.2054
  12   2.0000     -10.291297      -280.0404
  13   2.0000     -10.285958      -279.8951
  14   2.0000     -10.282790      -279.8089
  15   2.0000     -10.275176      -279.6017
  16   2.0000      -8.077758      -219.8070
  17   2.0000      -8.076890      -219.7833
  18   2.0000      -6.036311      -164.2564
  19   2.0000      -6.035552      -164.2357
  20   2.0000      -6.032556      -164.1542
  21   2.0000      -6.031206      -164.1175
  22   2.0000      -6.028337      -164.0394
  23   2.0000      -6.027648      -164.0206
  24   2.0000      -1.003385       -27.3035
  25   2.0000      -0.978688       -26.6315
  26   2.0000      -0.915957       -24.9245
  27   2.0000      -0.908428       -24.7196
  28   2.0000      -0.874756       -23.8033
  29   2.0000      -0.846071       -23.0227
  30   2.0000      -0.840888       -22.8817
  31   2.0000      -0.821211       -22.3463
  32   2.0000      -0.783271       -21.3139
  33   2.0000      -0.769631       -20.9427
  34   2.0000      -0.712873       -19.3982
  35   2.0000      -0.697663       -18.9844
  36   2.0000      -0.686183       -18.6720
  37   2.0000      -0.666300       -18.1309
  38   2.0000      -0.642325       -17.4785
  39   2.0000      -0.623424       -16.9642
  40   2.0000      -0.597830       -16.2678
  41   2.0000      -0.565845       -15.3974
  42   2.0000      -0.551652       -15.0112
  43   2.0000      -0.548050       -14.9132
  44   2.0000      -0.542140       -14.7524
  45   2.0000      -0.539348       -14.6764
  46   2.0000      -0.523039       -14.2326
  47   2.0000      -0.508551       -13.8384
  48   2.0000      -0.502888       -13.6843
  49   2.0000      -0.502091       -13.6626
  50   2.0000      -0.492141       -13.3918
  51   2.0000      -0.488219       -13.2851
  52   2.0000      -0.479007       -13.0344
  53   2.0000      -0.466284       -12.6882
  54   2.0000      -0.450801       -12.2669
  55   2.0000      -0.446318       -12.1449
  56   2.0000      -0.436934       -11.8896
  57   2.0000      -0.433094       -11.7851
  58   2.0000      -0.429880       -11.6976
  59   2.0000      -0.425534       -11.5794
  60   2.0000      -0.421050       -11.4574
  61   2.0000      -0.417231       -11.3534
  62   2.0000      -0.408850       -11.1254
  63   2.0000      -0.355222        -9.6661
  64   2.0000      -0.328421        -8.9368
  65   2.0000      -0.321457        -8.7473
  66   2.0000      -0.286140        -7.7863
  67   0.0000       0.017093         0.4651
  68   0.0000       0.070251         1.9116
  69   0.0000       0.095244         2.5917
  70   0.0000       0.117690         3.2025
  71   0.0000       0.122268         3.3271

MULLIKEN ATOMIC CHARGES
-----------------------
   0 S :    0.109168
   1 C :   -0.146163
   2 C :   -0.074532
   3 C :    0.014620
   4 C :   -0.108640
   5 H :   -0.005409
   6 C :    0.033987
   7 H :    0.021680
   8 H :    0.053043
   9 C :   -0.052387
  10 H :    0.022123
  11 H :    0.024443
  12 C :   -0.061078
  13 H :    0.035255
  14 H :    0.023901
  15 H :    0.022587
  16 S :    0.081956
  17 C :   -0.093085
  18 C :   -0.013670
  19 C :   -0.030985
  20 C :   -0.162562
  21 H :    0.004905
  22 C :    0.052153
  23 H :    0.011619
  24 H :    0.048159
  25 C :   -0.140019
  26 H :    0.050775
  27 H :    0.052721
  28 C :   -0.034211
  29 H :    0.014501
  30 H :    0.048116
  31 H :    0.042592
  32 H :    0.083841
  33 H :    0.070596
Sum of atomic charges:   -0.0000000

LOEWDIN ATOMIC CHARGES
----------------------
   0 S :    0.403521
   1 C :   -0.217928
   2 C :   -0.064032
   3 C :   -0.064578
   4 C :   -0.189585
   5 H :    0.026841
   6 C :   -0.046499
   7 H :    0.030874
   8 H :    0.052386
   9 C :   -0.047295
  10 H :    0.023992
  11 H :    0.028721
  12 C :   -0.073399
  13 H :    0.030356
  14 H :    0.022194
  15 H :    0.020707
  16 S :    0.374877
  17 C :   -0.168491
  18 C :   -0.055763
  19 C :   -0.055728
  20 C :   -0.183440
  21 H :    0.023084
  22 C :   -0.039582
  23 H :    0.023690
  24 H :    0.041640
  25 C :   -0.045310
  26 H :    0.031214
  27 H :    0.027473
  28 C :   -0.067919
  29 H :    0.013118
  30 H :    0.030998
  31 H :    0.034144
  32 H :    0.049707
  33 H :    0.030010

  Mayer bond orders larger than 0.100000
B(  0-S ,  1-C ) :   1.1441 B(  0-S ,  4-C ) :   1.1362 B(  1-C ,  2-C ) :   1.5861
B(  1-C , 32-H ) :   0.9626 B(  2-C ,  3-C ) :   1.2149 B(  2-C ,  6-C ) :   1.0373
B(  3-C ,  4-C ) :   1.5784 B(  3-C ,  5-H ) :   0.9974 B(  4-C , 20-C ) :   1.0709
B(  6-C ,  7-H ) :   0.9452 B(  6-C ,  8-H ) :   0.9261 B(  6-C ,  9-C ) :   1.0811
B(  9-C , 10-H ) :   0.9434 B(  9-C , 11-H ) :   0.9502 B(  9-C , 12-C ) :   1.0825
B( 12-C , 13-H ) :   0.9739 B( 12-C , 14-H ) :   0.9726 B( 12-C , 15-H ) :   0.9734
B( 16-S , 17-C ) :   1.1232 B( 16-S , 20-C ) :   1.1574 B( 17-C , 18-C ) :   1.6083
B( 17-C , 20-C ) :   0.1046 B( 17-C , 33-H ) :   0.9658 B( 18-C , 19-C ) :   1.2438
B( 18-C , 21-H ) :   0.9890 B( 19-C , 20-C ) :   1.5424 B( 19-C , 22-C ) :   1.0541
B( 22-C , 23-H ) :   0.9314 B( 22-C , 24-H ) :   0.9360 B( 22-C , 25-C ) :   1.0507
B( 25-C , 26-H ) :   0.9592 B( 25-C , 27-H ) :   0.9538 B( 25-C , 28-C ) :   1.0595
B( 28-C , 29-H ) :   0.9774 B( 28-C , 30-H ) :   0.9757 B( 28-C , 31-H ) :   0.9730

Dispersion correction           -0.015193591
FINAL SINGLE POINT ENERGY     -1339.865618688765

DIPOLE MOMENT
-------------
                                X             Y             Z
Electronic contribution:     -5.76391      27.19759      -9.90144
Nuclear contribution   :      5.83786     -27.84728      10.23272
                        -----------------------------------------
Total Dipole Moment    :      0.07395      -0.64969       0.33129
                        -----------------------------------------
Magnitude (a.u.)       :      0.73302
Magnitude (Debye)      :      1.86318

Rotational constants in cm-1:     0.017775     0.010279     0.006925
Rotational constants in MHz :   532.876904   308.170718   207.613558

                             ****ORCA TERMINATED NORMALLY****
TOTAL RUN TIME: 0 days 0 hours 0 minutes 29 seconds 845 msec
