                         Program Version 4.2.1 -  RELEASE  -
|  1> ! wB97X-D3 SP def2-SVP
|  2> %pal
|  3> nprocs 16
|  4> end
|  5>
|  6> * xyz 0 1
|  7> S 	 -44.1511 	 27.8223 	 82.4484
|  8> C 	 -44.3765 	 26.1996 	 82.9839
|  9> C 	 -45.5663 	 25.6928 	 82.5958
| 10> C 	 -46.333 	 26.5733 	 81.7336
| 11> C 	 -45.6251 	 27.7449 	 81.5262
| 12> H 	 -47.3279 	 26.4451 	 81.3378
| 13> C 	 -46.0782 	 24.3951 	 83.0267
| 14> H 	 -47.1633 	 24.4564 	 83.4273
| 15> H 	 -45.5602 	 23.994 	 83.8817
| 16> C 	 -46.0577 	 23.3851 	 81.9032
| 17> H 	 -46.3565 	 22.3929 	 82.2575
| 18> H 	 -46.7198 	 23.6391 	 81.1583
| 19> C 	 -44.642 	 23.2431 	 81.3257
| 20> H 	 -43.8172 	 23.1385 	 82.0649
| 21> H 	 -44.6324 	 22.3558 	 80.7215
| 22> H 	 -44.4147 	 24.0358 	 80.6265
| 23> S 	 -47.3557 	 29.8926 	 81.2664
| 24> C 	 -47.5102 	 30.67 	 79.7093
| 25> C 	 -46.339 	 30.4428 	 78.9963
| 26> C 	 -45.515 	 29.4055 	 79.5263
| 27> C 	 -46.0282 	 28.8819 	 80.6998
| 28> H 	 -46.1663 	 30.9973 	 78.0657
| 29> C 	 -44.2536 	 28.9656 	 78.8127
| 30> H 	 -43.8551 	 28.1749 	 79.4119
| 31> H 	 -43.4987 	 29.8155 	 78.752
| 32> C 	 -44.5324 	 28.3295 	 77.4406
| 33> H 	 -45.0242 	 28.9722 	 76.7022
| 34> H 	 -45.2413 	 27.475 	 77.6122
| 35> C 	 -43.3269 	 27.5984 	 76.7932
| 36> H 	 -43.6982 	 27.0629 	 75.8955
| 37> H 	 -42.7988 	 26.8591 	 77.4665
| 38> H 	 -42.5636 	 28.3739 	 76.454
| 39> H 	 -43.6473 	 25.589 	 83.4663
| 40> H 	 -48.2652 	 31.3299 	 79.3491
| 41> *
| 42>
| 43>                          ****END OF INPUT****

CARTESIAN COORDINATES (ANGSTROEM)
---------------------------------
  S    -44.151100   27.822300   82.448400
  C    -44.376500   26.199600   82.983900
  C    -45.566300   25.692800   82.595800
  C    -46.333000   26.573300   81.733600
  C    -45.625100   27.744900   81.526200
  H    -47.327900   26.445100   81.337800
  C    -46.078200   24.395100   83.026700
  H    -47.163300   24.456400   83.427300
  H    -45.560200   23.994000   83.881700
  C    -46.057700   23.385100   81.903200
  H    -46.356500   22.392900   82.257500
  H    -46.719800   23.639100   81.158300
  C    -44.642000   23.243100   81.325700
  H    -43.817200   23.138500   82.064900
  H    -44.632400   22.355800   80.721500
  H    -44.414700   24.035800   80.626500
  S    -47.355700   29.892600   81.266400
  C    -47.510200   30.670000   79.709300
  C    -46.339000   30.442800   78.996300
  C    -45.515000   29.405500   79.526300
  C    -46.028200   28.881900   80.699800
  H    -46.166300   30.997300   78.065700
  C    -44.253600   28.965600   78.812700
  H    -43.855100   28.174900   79.411900
  H    -43.498700   29.815500   78.752000
  C    -44.532400   28.329500   77.440600
  H    -45.024200   28.972200   76.702200
  H    -45.241300   27.475000   77.612200
  C    -43.326900   27.598400   76.793200
  H    -43.698200   27.062900   75.895500
  H    -42.798800   26.859100   77.466500
  H    -42.563600   28.373900   76.454000
  H    -43.647300   25.589000   83.466300
  H    -48.265200   31.329900   79.349100

 Total Charge           Charge          ....    0
 Multiplicity           Mult            ....    1
 Number of Electrons    NEL             ....  134
 Basis Dimension        Dim             ....  322

ORBITAL ENERGIES
----------------

  NO   OCC          E(Eh)            E(eV)
   0   2.0000     -88.965914     -2420.8856
   1   2.0000     -88.962304     -2420.7874
   2   2.0000     -10.329118      -281.0696
   3   2.0000     -10.324025      -280.9310
   4   2.0000     -10.315655      -280.7032
   5   2.0000     -10.306173      -280.4452
   6   2.0000     -10.301760      -280.3252
   7   2.0000     -10.297857      -280.2189
   8   2.0000     -10.295213      -280.1470
   9   2.0000     -10.292826      -280.0820
  10   2.0000     -10.292394      -280.0703
  11   2.0000     -10.289098      -279.9806
  12   2.0000     -10.288207      -279.9564
  13   2.0000     -10.287726      -279.9432
  14   2.0000     -10.278032      -279.6795
  15   2.0000     -10.272831      -279.5380
  16   2.0000      -8.081202      -219.9007
  17   2.0000      -8.076969      -219.7855
  18   2.0000      -6.039636      -164.3468
  19   2.0000      -6.035655      -164.2385
  20   2.0000      -6.035519      -164.2348
  21   2.0000      -6.031977      -164.1384
  22   2.0000      -6.031608      -164.1284
  23   2.0000      -6.027555      -164.0181
  24   2.0000      -1.009365       -27.4662
  25   2.0000      -0.987352       -26.8672
  26   2.0000      -0.920673       -25.0528
  27   2.0000      -0.904118       -24.6023
  28   2.0000      -0.869051       -23.6481
  29   2.0000      -0.848053       -23.0767
  30   2.0000      -0.843440       -22.9512
  31   2.0000      -0.814673       -22.1684
  32   2.0000      -0.781509       -21.2659
  33   2.0000      -0.769942       -20.9512
  34   2.0000      -0.710274       -19.3275
  35   2.0000      -0.694260       -18.8918
  36   2.0000      -0.689249       -18.7554
  37   2.0000      -0.658454       -17.9174
  38   2.0000      -0.643910       -17.5217
  39   2.0000      -0.620880       -16.8950
  40   2.0000      -0.594152       -16.1677
  41   2.0000      -0.571908       -15.5624
  42   2.0000      -0.560647       -15.2560
  43   2.0000      -0.548704       -14.9310
  44   2.0000      -0.546775       -14.8785
  45   2.0000      -0.526199       -14.3186
  46   2.0000      -0.515102       -14.0166
  47   2.0000      -0.510655       -13.8956
  48   2.0000      -0.508318       -13.8320
  49   2.0000      -0.497610       -13.5407
  50   2.0000      -0.486654       -13.2425
  51   2.0000      -0.475930       -12.9507
  52   2.0000      -0.475022       -12.9260
  53   2.0000      -0.464831       -12.6487
  54   2.0000      -0.457865       -12.4591
  55   2.0000      -0.449648       -12.2355
  56   2.0000      -0.437854       -11.9146
  57   2.0000      -0.435955       -11.8629
  58   2.0000      -0.431917       -11.7531
  59   2.0000      -0.425178       -11.5697
  60   2.0000      -0.420202       -11.4343
  61   2.0000      -0.417479       -11.3602
  62   2.0000      -0.408322       -11.1110
  63   2.0000      -0.335537        -9.1304
  64   2.0000      -0.325479        -8.8567
  65   2.0000      -0.322659        -8.7800
  66   2.0000      -0.307481        -8.3670
  67   0.0000       0.033568         0.9134
  68   0.0000       0.066831         1.8186
  69   0.0000       0.103196         2.8081
  70   0.0000       0.115626         3.1463
  71   0.0000       0.134112         3.6494

MULLIKEN ATOMIC CHARGES
-----------------------
   0 S :    0.127940
   1 C :   -0.108487
   2 C :   -0.077764
   3 C :    0.051728
   4 C :   -0.184026
   5 H :    0.019108
   6 C :    0.045565
   7 H :    0.041123
   8 H :    0.012007
   9 C :   -0.038913
  10 H :    0.024029
  11 H :    0.012747
  12 C :   -0.060697
  13 H :    0.030528
  14 H :    0.021188
  15 H :    0.039329
  16 S :    0.111502
  17 C :   -0.087704
  18 C :   -0.049715
  19 C :   -0.009444
  20 C :   -0.186350
  21 H :    0.025513
  22 C :    0.108377
  23 H :    0.005854
  24 H :    0.050386
  25 C :   -0.119290
  26 H :    0.034818
  27 H :    0.034610
  28 C :   -0.083527
  29 H :    0.042907
  30 H :    0.045859
  31 H :    0.036820
  32 H :    0.034454
  33 H :    0.049525
Sum of atomic charges:   -0.0000000

LOEWDIN ATOMIC CHARGES
----------------------
   0 S :    0.421564
   1 C :   -0.199217
   2 C :   -0.064077
   3 C :   -0.047716
   4 C :   -0.197709
   5 H :    0.035285
   6 C :   -0.038868
   7 H :    0.041178
   8 H :    0.024607
   9 C :   -0.032303
  10 H :    0.024127
  11 H :    0.012830
  12 C :   -0.065769
  13 H :    0.025379
  14 H :    0.022429
  15 H :    0.025355
  16 S :    0.399797
  17 C :   -0.182081
  18 C :   -0.073026
  19 C :   -0.054611
  20 C :   -0.204036
  21 H :    0.032365
  22 C :   -0.032926
  23 H :    0.022691
  24 H :    0.040327
  25 C :   -0.048942
  26 H :    0.021201
  27 H :    0.031223
  28 C :   -0.076667
  29 H :    0.029152
  30 H :    0.029886
  31 H :    0.026731
  32 H :    0.024665
  33 H :    0.027155

  Mayer bond orders larger than 0.100000
B(  0-S ,  1-C ) :   1.1267 B(  0-S ,  4-C ) :   1.1610 B(  1-C ,  2-C ) :   1.6364
B(  1-C , 32-H ) :   0.9666 B(  2-C ,  3-C ) :   1.1963 B(  2-C ,  6-C ) :   1.0409
B(  3-C ,  4-C ) :   1.5933 B(  3-C ,  5-H ) :   0.9990 B(  4-C , 20-C ) :   1.0105
B(  6-C ,  7-H ) :   0.9381 B(  6-C ,  8-H ) :   0.9430 B(  6-C ,  9-C ) :   1.0735
B(  9-C , 10-H ) :   0.9579 B(  9-C , 11-H ) :   0.9547 B(  9-C , 12-C ) :   1.0753
B( 12-C , 13-H ) :   0.9771 B( 12-C , 14-H ) :   0.9729 B( 12-C , 15-H ) :   0.9706
B( 16-S , 17-C ) :   1.1505 B( 16-S , 20-C ) :   1.1438 B( 17-C , 18-C ) :   1.6083
B( 17-C , 20-C ) :   0.1031 B( 17-C , 33-H ) :   0.9734 B( 18-C , 19-C ) :   1.2306
B( 18-C , 21-H ) :   0.9862 B( 19-C , 20-C ) :   1.5939 B( 19-C , 22-C ) :   1.0533
B( 22-C , 23-H ) :   0.9195 B( 22-C , 24-H ) :   0.9349 B( 22-C , 25-C ) :   1.0592
B( 25-C , 26-H ) :   0.9579 B( 25-C , 27-H ) :   0.9540 B( 25-C , 28-C ) :   1.0840
B( 28-C , 29-H ) :   0.9754 B( 28-C , 30-H ) :   0.9737 B( 28-C , 31-H ) :   0.9738

Dispersion correction           -0.014710645
FINAL SINGLE POINT ENERGY     -1339.882210478892

DIPOLE MOMENT
-------------
                                X             Y             Z
Electronic contribution:     -7.65064      20.04074      14.63536
Nuclear contribution   :      7.62849     -20.44045     -14.99523
                        -----------------------------------------
Total Dipole Moment    :     -0.02214      -0.39971      -0.35987
                        -----------------------------------------
Magnitude (a.u.)       :      0.53830
Magnitude (Debye)      :      1.36824

Rotational constants in cm-1:     0.017725     0.009178     0.007321
Rotational constants in MHz :   531.384360   275.163827   219.464325

                             ****ORCA TERMINATED NORMALLY****
TOTAL RUN TIME: 0 days 0 hours 0 minutes 30 seconds 574 msec
