                         Program Version 4.2.1 -  RELEASE  -
|  1> ! wB97X-D3 SP def2-SVP
|  2> %pal
|  3> nprocs 16
|  4> end
|  5>
|  6> * xyz 0 1
|  7> S 	 -68.7961 	 39.3471 	 125.22
|  8> C 	 -69.511 	 40.9538 	 125.132
|  9> C 	 -68.8237 	 41.8176 	 124.365
| 10> C 	 -67.6909 	 41.1574 	 123.791
| 11> C 	 -67.5087 	 39.8533 	 124.177
| 12> H 	 -67.0029 	 41.5681 	 123.147
| 13> C 	 -69.3097 	 43.2306 	 124.121
| 14> H 	 -70.3557 	 43.3843 	 124.545
| 15> H 	 -69.4893 	 43.3265 	 123.052
| 16> C 	 -68.4535 	 44.3325 	 124.677
| 17> H 	 -68.4537 	 44.3119 	 125.767
| 18> H 	 -67.4108 	 44.3324 	 124.389
| 19> C 	 -68.9127 	 45.7367 	 124.454
| 20> H 	 -68.2656 	 46.5129 	 124.961
| 21> H 	 -68.8787 	 45.8812 	 123.394
| 22> H 	 -69.8915 	 45.9725 	 124.812
| 23> S 	 -67.4322 	 37.7335 	 122.503
| 24> C 	 -65.9257 	 37.0555 	 122.022
| 25> C 	 -64.8487 	 37.6399 	 122.684
| 26> C 	 -65.301 	 38.737 	 123.478
| 27> C 	 -66.7014 	 38.8382 	 123.617
| 28> H 	 -63.8621 	 37.3349 	 122.499
| 29> C 	 -64.285 	 39.6094 	 124.198
| 30> H 	 -63.8642 	 38.9911 	 124.941
| 31> H 	 -64.7054 	 40.4278 	 124.777
| 32> C 	 -63.1686 	 40.1193 	 123.235
| 33> H 	 -62.5226 	 39.3688 	 122.853
| 34> H 	 -62.4881 	 40.7804 	 123.889
| 35> C 	 -63.5969 	 40.9663 	 122.087
| 36> H 	 -63.6696 	 40.2917 	 121.254
| 37> H 	 -62.7572 	 41.5873 	 121.666
| 38> H 	 -64.3923 	 41.6722 	 122.249
| 39> H 	 -70.3339 	 41.2743 	 125.804
| 40> H 	 -65.7681 	 36.4724 	 121.122
| 41> *
| 42>
| 43>                          ****END OF INPUT****

CARTESIAN COORDINATES (ANGSTROEM)
---------------------------------
  S    -68.796100   39.347100  125.220000
  C    -69.511000   40.953800  125.132000
  C    -68.823700   41.817600  124.365000
  C    -67.690900   41.157400  123.791000
  C    -67.508700   39.853300  124.177000
  H    -67.002900   41.568100  123.147000
  C    -69.309700   43.230600  124.121000
  H    -70.355700   43.384300  124.545000
  H    -69.489300   43.326500  123.052000
  C    -68.453500   44.332500  124.677000
  H    -68.453700   44.311900  125.767000
  H    -67.410800   44.332400  124.389000
  C    -68.912700   45.736700  124.454000
  H    -68.265600   46.512900  124.961000
  H    -68.878700   45.881200  123.394000
  H    -69.891500   45.972500  124.812000
  S    -67.432200   37.733500  122.503000
  C    -65.925700   37.055500  122.022000
  C    -64.848700   37.639900  122.684000
  C    -65.301000   38.737000  123.478000
  C    -66.701400   38.838200  123.617000
  H    -63.862100   37.334900  122.499000
  C    -64.285000   39.609400  124.198000
  H    -63.864200   38.991100  124.941000
  H    -64.705400   40.427800  124.777000
  C    -63.168600   40.119300  123.235000
  H    -62.522600   39.368800  122.853000
  H    -62.488100   40.780400  123.889000
  C    -63.596900   40.966300  122.087000
  H    -63.669600   40.291700  121.254000
  H    -62.757200   41.587300  121.666000
  H    -64.392300   41.672200  122.249000
  H    -70.333900   41.274300  125.804000
  H    -65.768100   36.472400  121.122000

 Total Charge           Charge          ....    0
 Multiplicity           Mult            ....    1
 Number of Electrons    NEL             ....  134
 Basis Dimension        Dim             ....  322

ORBITAL ENERGIES
----------------

  NO   OCC          E(Eh)            E(eV)
   0   2.0000     -88.964306     -2420.8418
   1   2.0000     -88.960465     -2420.7373
   2   2.0000     -10.321956      -280.8747
   3   2.0000     -10.319186      -280.7993
   4   2.0000     -10.316338      -280.7218
   5   2.0000     -10.310042      -280.5505
   6   2.0000     -10.304224      -280.3922
   7   2.0000     -10.299108      -280.2530
   8   2.0000     -10.298004      -280.2229
   9   2.0000     -10.291388      -280.0429
  10   2.0000     -10.288345      -279.9601
  11   2.0000     -10.288235      -279.9571
  12   2.0000     -10.287156      -279.9277
  13   2.0000     -10.281078      -279.7624
  14   2.0000     -10.274945      -279.5955
  15   2.0000     -10.273793      -279.5641
  16   2.0000      -8.079809      -219.8628
  17   2.0000      -8.075932      -219.7573
  18   2.0000      -6.038219      -164.3083
  19   2.0000      -6.034317      -164.2021
  20   2.0000      -6.034031      -164.1943
  21   2.0000      -6.030790      -164.1061
  22   2.0000      -6.030428      -164.0963
  23   2.0000      -6.026679      -163.9943
  24   2.0000      -1.012794       -27.5595
  25   2.0000      -0.987198       -26.8630
  26   2.0000      -0.919835       -25.0300
  27   2.0000      -0.909977       -24.7617
  28   2.0000      -0.879376       -23.9290
  29   2.0000      -0.851371       -23.1670
  30   2.0000      -0.848236       -23.0817
  31   2.0000      -0.818700       -22.2780
  32   2.0000      -0.788475       -21.4555
  33   2.0000      -0.773400       -21.0453
  34   2.0000      -0.709518       -19.3070
  35   2.0000      -0.694925       -18.9099
  36   2.0000      -0.692340       -18.8395
  37   2.0000      -0.659349       -17.9418
  38   2.0000      -0.646007       -17.5787
  39   2.0000      -0.623156       -16.9569
  40   2.0000      -0.600813       -16.3490
  41   2.0000      -0.576871       -15.6975
  42   2.0000      -0.567600       -15.4452
  43   2.0000      -0.559641       -15.2286
  44   2.0000      -0.537865       -14.6360
  45   2.0000      -0.531375       -14.4594
  46   2.0000      -0.528395       -14.3783
  47   2.0000      -0.514475       -13.9996
  48   2.0000      -0.507174       -13.8009
  49   2.0000      -0.498084       -13.5536
  50   2.0000      -0.493552       -13.4302
  51   2.0000      -0.476562       -12.9679
  52   2.0000      -0.469187       -12.7672
  53   2.0000      -0.467132       -12.7113
  54   2.0000      -0.460848       -12.5403
  55   2.0000      -0.450022       -12.2457
  56   2.0000      -0.443781       -12.0759
  57   2.0000      -0.438200       -11.9240
  58   2.0000      -0.431291       -11.7360
  59   2.0000      -0.429386       -11.6842
  60   2.0000      -0.426866       -11.6156
  61   2.0000      -0.408533       -11.1168
  62   2.0000      -0.395052       -10.7499
  63   2.0000      -0.344589        -9.3767
  64   2.0000      -0.332608        -9.0507
  65   2.0000      -0.325134        -8.8473
  66   2.0000      -0.294668        -8.0183
  67   0.0000       0.040770         1.1094
  68   0.0000       0.059353         1.6151
  69   0.0000       0.118482         3.2241
  70   0.0000       0.125382         3.4118
  71   0.0000       0.129777         3.5314

MULLIKEN ATOMIC CHARGES
-----------------------
   0 S :    0.097637
   1 C :   -0.138975
   2 C :   -0.054676
   3 C :    0.084448
   4 C :   -0.181807
   5 H :   -0.039994
   6 C :    0.064781
   7 H :    0.023446
   8 H :    0.032168
   9 C :   -0.065082
  10 H :    0.021749
  11 H :    0.027064
  12 C :   -0.049329
  13 H :    0.039817
  14 H :    0.018484
  15 H :    0.019400
  16 S :    0.124200
  17 C :   -0.095117
  18 C :   -0.018072
  19 C :   -0.059712
  20 C :   -0.129877
  21 H :    0.002224
  22 C :    0.117148
  23 H :    0.025613
  24 H :    0.022357
  25 C :   -0.119001
  26 H :    0.021110
  27 H :    0.031642
  28 C :   -0.030641
  29 H :    0.021812
  30 H :    0.024142
  31 H :    0.039486
  32 H :    0.057977
  33 H :    0.065581
Sum of atomic charges:    0.0000000

LOEWDIN ATOMIC CHARGES
----------------------
   0 S :    0.401591
   1 C :   -0.190258
   2 C :   -0.065474
   3 C :   -0.045807
   4 C :   -0.199167
   5 H :    0.014792
   6 C :   -0.030365
   7 H :    0.039286
   8 H :    0.031915
   9 C :   -0.049989
  10 H :    0.026422
  11 H :    0.023923
  12 C :   -0.063058
  13 H :    0.034940
  14 H :    0.017568
  15 H :    0.016824
  16 S :    0.437291
  17 C :   -0.191938
  18 C :   -0.067338
  19 C :   -0.046290
  20 C :   -0.228590
  21 H :    0.023215
  22 C :   -0.027138
  23 H :    0.031009
  24 H :    0.030354
  25 C :   -0.044560
  26 H :    0.017032
  27 H :    0.029053
  28 C :   -0.073089
  29 H :    0.025877
  30 H :    0.034236
  31 H :    0.022232
  32 H :    0.032968
  33 H :    0.032533

  Mayer bond orders larger than 0.100000
B(  0-S ,  1-C ) :   1.1324 B(  0-S ,  4-C ) :   1.1474 B(  1-C ,  2-C ) :   1.6504
B(  1-C , 32-H ) :   0.9565 B(  2-C ,  3-C ) :   1.2135 B(  2-C ,  6-C ) :   1.0190
B(  3-C ,  4-C ) :   1.5932 B(  3-C ,  5-H ) :   1.0160 B(  4-C , 20-C ) :   1.0247
B(  6-C ,  7-H ) :   0.9395 B(  6-C ,  8-H ) :   0.9361 B(  6-C ,  9-C ) :   1.0625
B(  9-C , 10-H ) :   0.9518 B(  9-C , 11-H ) :   0.9551 B(  9-C , 12-C ) :   1.0912
B( 12-C , 13-H ) :   0.9729 B( 12-C , 14-H ) :   0.9746 B( 12-C , 15-H ) :   0.9731
B( 16-S , 17-C ) :   1.1923 B( 16-S , 20-C ) :   1.1424 B( 17-C , 18-C ) :   1.5678
B( 17-C , 33-H ) :   0.9638 B( 18-C , 19-C ) :   1.2631 B( 18-C , 21-H ) :   1.0006
B( 19-C , 20-C ) :   1.5645 B( 19-C , 22-C ) :   1.0405 B( 22-C , 23-H ) :   0.9339
B( 22-C , 24-H ) :   0.9388 B( 22-C , 25-C ) :   1.0691 B( 25-C , 26-H ) :   0.9567
B( 25-C , 27-H ) :   0.9592 B( 25-C , 28-C ) :   1.0832 B( 28-C , 29-H ) :   0.9700
B( 28-C , 30-H ) :   0.9666 B( 28-C , 31-H ) :   0.9746

Dispersion correction           -0.014246207
FINAL SINGLE POINT ENERGY     -1339.865089142345

DIPOLE MOMENT
-------------
                                X             Y             Z
Electronic contribution:    -11.58875     -26.84420       1.95291
Nuclear contribution   :     12.01503      27.41575      -2.18477
                        -----------------------------------------
Total Dipole Moment    :      0.42629       0.57155      -0.23185
                        -----------------------------------------
Magnitude (a.u.)       :      0.74976
Magnitude (Debye)      :      1.90574

Rotational constants in cm-1:     0.019349     0.008453     0.006549
Rotational constants in MHz :   580.058921   253.429116   196.320450

                             ****ORCA TERMINATED NORMALLY****
TOTAL RUN TIME: 0 days 0 hours 0 minutes 34 seconds 278 msec
