                         Program Version 4.2.1 -  RELEASE  -
|  1> ! wB97X-D3 SP def2-SVP
|  2> %pal
|  3> nprocs 16
|  4> end
|  5>
|  6> * xyz 0 1
|  7> S 	 -34.7697 	 42.7634 	 96.3277
|  8> C 	 -33.326 	 41.836 	 96.1537
|  9> C 	 -33.239 	 40.7546 	 97.015
| 10> C 	 -34.3846 	 40.6964 	 97.8457
| 11> C 	 -35.3099 	 41.7138 	 97.5677
| 12> H 	 -34.6753 	 40.0926 	 98.6679
| 13> C 	 -32.1625 	 39.6876 	 96.9967
| 14> H 	 -32.5118 	 39.1032 	 97.8417
| 15> H 	 -31.1885 	 40.1168 	 97.141
| 16> C 	 -32.1462 	 38.8402 	 95.6525
| 17> H 	 -33.233 	 38.5533 	 95.5384
| 18> H 	 -31.9054 	 39.4988 	 94.7839
| 19> C 	 -31.221 	 37.624 	 95.7233
| 20> H 	 -31.4744 	 36.9654 	 96.5817
| 21> H 	 -31.3062 	 36.9586 	 94.8908
| 22> H 	 -30.1186 	 37.8133 	 95.7714
| 23> S 	 -36.7447 	 43.0784 	 99.4117
| 24> C 	 -38.1672 	 42.3546 	 100.069
| 25> C 	 -38.5098 	 41.216 	 99.394
| 26> C 	 -37.6846 	 40.8872 	 98.2892
| 27> C 	 -36.6331 	 41.82 	 98.1699
| 28> H 	 -39.4094 	 40.7562 	 99.7441
| 29> C 	 -37.7718 	 39.5875 	 97.4146
| 30> H 	 -37.0296 	 39.7045 	 96.6003
| 31> H 	 -38.7206 	 39.6283 	 96.8892
| 32> C 	 -37.6637 	 38.3159 	 98.3117
| 33> H 	 -38.4504 	 38.2751 	 99.0236
| 34> H 	 -36.7704 	 38.3801 	 98.914
| 35> C 	 -37.6609 	 37.0252 	 97.4111
| 36> H 	 -36.984 	 37.0723 	 96.5912
| 37> H 	 -38.6241 	 36.9674 	 96.9907
| 38> H 	 -37.4056 	 36.1019 	 97.8739
| 39> H 	 -32.6713 	 41.9193 	 95.2964
| 40> H 	 -38.7073 	 42.6382 	 100.923
| 41> *
| 42>
| 43>                          ****END OF INPUT****

CARTESIAN COORDINATES (ANGSTROEM)
---------------------------------
  S    -34.769700   42.763400   96.327700
  C    -33.326000   41.836000   96.153700
  C    -33.239000   40.754600   97.015000
  C    -34.384600   40.696400   97.845700
  C    -35.309900   41.713800   97.567700
  H    -34.675300   40.092600   98.667900
  C    -32.162500   39.687600   96.996700
  H    -32.511800   39.103200   97.841700
  H    -31.188500   40.116800   97.141000
  C    -32.146200   38.840200   95.652500
  H    -33.233000   38.553300   95.538400
  H    -31.905400   39.498800   94.783900
  C    -31.221000   37.624000   95.723300
  H    -31.474400   36.965400   96.581700
  H    -31.306200   36.958600   94.890800
  H    -30.118600   37.813300   95.771400
  S    -36.744700   43.078400   99.411700
  C    -38.167200   42.354600  100.069000
  C    -38.509800   41.216000   99.394000
  C    -37.684600   40.887200   98.289200
  C    -36.633100   41.820000   98.169900
  H    -39.409400   40.756200   99.744100
  C    -37.771800   39.587500   97.414600
  H    -37.029600   39.704500   96.600300
  H    -38.720600   39.628300   96.889200
  C    -37.663700   38.315900   98.311700
  H    -38.450400   38.275100   99.023600
  H    -36.770400   38.380100   98.914000
  C    -37.660900   37.025200   97.411100
  H    -36.984000   37.072300   96.591200
  H    -38.624100   36.967400   96.990700
  H    -37.405600   36.101900   97.873900
  H    -32.671300   41.919300   95.296400
  H    -38.707300   42.638200  100.923000

 Total Charge           Charge          ....    0
 Multiplicity           Mult            ....    1
 Number of Electrons    NEL             ....  134
 Basis Dimension        Dim             ....  322

ORBITAL ENERGIES
----------------

  NO   OCC          E(Eh)            E(eV)
   0   2.0000     -88.967480     -2420.9282
   1   2.0000     -88.962009     -2420.7793
   2   2.0000     -10.324413      -280.9416
   3   2.0000     -10.322538      -280.8906
   4   2.0000     -10.310208      -280.5550
   5   2.0000     -10.309086      -280.5245
   6   2.0000     -10.307238      -280.4742
   7   2.0000     -10.299903      -280.2746
   8   2.0000     -10.298872      -280.2466
   9   2.0000     -10.298817      -280.2450
  10   2.0000     -10.292517      -280.0736
  11   2.0000     -10.290169      -280.0097
  12   2.0000     -10.290119      -280.0084
  13   2.0000     -10.288567      -279.9661
  14   2.0000     -10.283252      -279.8215
  15   2.0000     -10.271511      -279.5020
  16   2.0000      -8.083157      -219.9539
  17   2.0000      -8.077078      -219.7885
  18   2.0000      -6.041359      -164.3937
  19   2.0000      -6.037451      -164.2874
  20   2.0000      -6.035430      -164.2324
  21   2.0000      -6.034280      -164.2011
  22   2.0000      -6.031460      -164.1244
  23   2.0000      -6.028053      -164.0317
  24   2.0000      -1.008228       -27.4353
  25   2.0000      -0.985454       -26.8156
  26   2.0000      -0.907538       -24.6954
  27   2.0000      -0.902254       -24.5516
  28   2.0000      -0.867399       -23.6031
  29   2.0000      -0.852824       -23.2065
  30   2.0000      -0.846527       -23.0352
  31   2.0000      -0.812311       -22.1041
  32   2.0000      -0.783659       -21.3245
  33   2.0000      -0.771464       -20.9926
  34   2.0000      -0.711980       -19.3740
  35   2.0000      -0.704769       -19.1777
  36   2.0000      -0.697624       -18.9833
  37   2.0000      -0.656327       -17.8596
  38   2.0000      -0.644939       -17.5497
  39   2.0000      -0.613565       -16.6960
  40   2.0000      -0.591568       -16.0974
  41   2.0000      -0.567335       -15.4380
  42   2.0000      -0.562840       -15.3157
  43   2.0000      -0.560185       -15.2434
  44   2.0000      -0.526511       -14.3271
  45   2.0000      -0.520479       -14.1630
  46   2.0000      -0.514272       -13.9940
  47   2.0000      -0.512224       -13.9383
  48   2.0000      -0.505355       -13.7514
  49   2.0000      -0.500463       -13.6183
  50   2.0000      -0.485910       -13.2223
  51   2.0000      -0.479271       -13.0416
  52   2.0000      -0.471434       -12.8284
  53   2.0000      -0.464623       -12.6430
  54   2.0000      -0.462917       -12.5966
  55   2.0000      -0.448345       -12.2001
  56   2.0000      -0.446441       -12.1483
  57   2.0000      -0.441061       -12.0019
  58   2.0000      -0.433272       -11.7899
  59   2.0000      -0.430531       -11.7153
  60   2.0000      -0.425007       -11.5650
  61   2.0000      -0.421113       -11.4591
  62   2.0000      -0.414979       -11.2921
  63   2.0000      -0.339000        -9.2247
  64   2.0000      -0.332438        -9.0461
  65   2.0000      -0.325185        -8.8487
  66   2.0000      -0.296860        -8.0780
  67   0.0000       0.040409         1.0996
  68   0.0000       0.057105         1.5539
  69   0.0000       0.124544         3.3890
  70   0.0000       0.125804         3.4233
  71   0.0000       0.132215         3.5977

MULLIKEN ATOMIC CHARGES
-----------------------
   0 S :    0.135127
   1 C :   -0.120010
   2 C :   -0.098375
   3 C :    0.045551
   4 C :   -0.196100
   5 H :    0.002092
   6 C :    0.100122
   7 H :    0.021162
   8 H :    0.035080
   9 C :   -0.107199
  10 H :    0.041317
  11 H :    0.039152
  12 C :   -0.044405
  13 H :    0.029891
  14 H :    0.026613
  15 H :    0.038180
  16 S :    0.106422
  17 C :   -0.066237
  18 C :   -0.057999
  19 C :   -0.017845
  20 C :   -0.180352
  21 H :    0.008846
  22 C :    0.070130
  23 H :    0.040302
  24 H :    0.028591
  25 C :   -0.066212
  26 H :    0.025598
  27 H :    0.025098
  28 C :   -0.004968
  29 H :    0.016906
  30 H :    0.017697
  31 H :    0.026453
  32 H :    0.043506
  33 H :    0.035868
Sum of atomic charges:   -0.0000000

LOEWDIN ATOMIC CHARGES
----------------------
   0 S :    0.441768
   1 C :   -0.210126
   2 C :   -0.065207
   3 C :   -0.061322
   4 C :   -0.218767
   5 H :    0.027869
   6 C :   -0.025402
   7 H :    0.031177
   8 H :    0.028523
   9 C :   -0.041802
  10 H :    0.031913
  11 H :    0.025770
  12 C :   -0.077129
  13 H :    0.029526
  14 H :    0.023051
  15 H :    0.030884
  16 S :    0.408749
  17 C :   -0.181868
  18 C :   -0.078575
  19 C :   -0.046939
  20 C :   -0.204267
  21 H :    0.027649
  22 C :   -0.024473
  23 H :    0.034812
  24 H :    0.030083
  25 C :   -0.028227
  26 H :    0.019642
  27 H :    0.020056
  28 C :   -0.057660
  29 H :    0.021640
  30 H :    0.020609
  31 H :    0.022121
  32 H :    0.023855
  33 H :    0.022068

  Mayer bond orders larger than 0.100000
B(  0-S ,  1-C ) :   1.1620 B(  0-S ,  4-C ) :   1.1835 B(  1-C ,  2-C ) :   1.5854
B(  1-C , 32-H ) :   0.9682 B(  2-C ,  3-C ) :   1.2541 B(  2-C ,  6-C ) :   1.0144
B(  3-C ,  4-C ) :   1.5564 B(  3-C ,  5-H ) :   1.0009 B(  4-C , 20-C ) :   0.9896
B(  6-C ,  7-H ) :   0.9433 B(  6-C ,  8-H ) :   0.9366 B(  6-C ,  9-C ) :   1.0541
B(  9-C , 10-H ) :   0.9577 B(  9-C , 11-H ) :   0.9566 B(  9-C , 12-C ) :   1.0811
B( 12-C , 13-H ) :   0.9730 B( 12-C , 14-H ) :   0.9736 B( 12-C , 15-H ) :   0.9735
B( 16-S , 17-C ) :   1.1615 B( 16-S , 20-C ) :   1.1537 B( 17-C , 18-C ) :   1.6244
B( 17-C , 33-H ) :   0.9701 B( 18-C , 19-C ) :   1.2287 B( 18-C , 21-H ) :   0.9949
B( 19-C , 20-C ) :   1.5949 B( 19-C , 22-C ) :   1.0286 B( 22-C , 23-H ) :   0.9417
B( 22-C , 24-H ) :   0.9349 B( 22-C , 25-C ) :   1.0475 B( 25-C , 26-H ) :   0.9577
B( 25-C , 27-H ) :   0.9612 B( 25-C , 28-C ) :   1.0734 B( 28-C , 29-H ) :   0.9768
B( 28-C , 30-H ) :   0.9753 B( 28-C , 31-H ) :   0.9765

Dispersion correction           -0.014437070
FINAL SINGLE POINT ENERGY     -1339.877104042966

DIPOLE MOMENT
-------------
                                X             Y             Z
Electronic contribution:     -7.04891      30.79421       6.71581
Nuclear contribution   :      7.02105     -31.59397      -6.73024
                        -----------------------------------------
Total Dipole Moment    :     -0.02786      -0.79976      -0.01443
                        -----------------------------------------
Magnitude (a.u.)       :      0.80038
Magnitude (Debye)      :      2.03440

Rotational constants in cm-1:     0.017535     0.009015     0.006585
Rotational constants in MHz :   525.672618   270.249864   197.404137

                             ****ORCA TERMINATED NORMALLY****
TOTAL RUN TIME: 0 days 0 hours 0 minutes 29 seconds 970 msec
