                         Program Version 4.2.1 -  RELEASE  -
|  1> ! wB97X-D3 SP def2-SVP
|  2> %pal
|  3> nprocs 16
|  4> end
|  5>
|  6> * xyz 0 1
|  7> S 	 -31.4811 	 61.8058 	 108.414
|  8> C 	 -30.9777 	 62.8089 	 109.789
|  9> C 	 -30.2256 	 63.8966 	 109.345
| 10> C 	 -30.0208 	 63.9133 	 107.986
| 11> C 	 -30.7377 	 62.8733 	 107.308
| 12> H 	 -29.5623 	 64.63 	 107.348
| 13> C 	 -29.6047 	 64.96 	 110.29
| 14> H 	 -30.0052 	 64.8338 	 111.334
| 15> H 	 -29.9748 	 65.8906 	 109.997
| 16> C 	 -28.0554 	 65.1337 	 110.265
| 17> H 	 -27.8378 	 65.2961 	 109.229
| 18> H 	 -27.8268 	 65.9632 	 110.921
| 19> C 	 -27.3998 	 63.8022 	 110.658
| 20> H 	 -27.5787 	 62.969 	 109.98
| 21> H 	 -26.2929 	 63.9434 	 110.742
| 22> H 	 -27.753 	 63.4771 	 111.682
| 23> S 	 -32.5755 	 62.2227 	 105.307
| 24> C 	 -32.0368 	 62.2937 	 103.616
| 25> C 	 -30.6939 	 62.5627 	 103.504
| 26> C 	 -30.1108 	 62.7958 	 104.763
| 27> C 	 -30.8942 	 62.6122 	 105.878
| 28> H 	 -30.1929 	 62.4963 	 102.535
| 29> C 	 -28.6403 	 63.2412 	 104.927
| 30> H 	 -28.0043 	 62.5959 	 104.288
| 31> H 	 -28.4024 	 63.1914 	 105.985
| 32> C 	 -28.379 	 64.7893 	 104.679
| 33> H 	 -29.0058 	 65.3691 	 105.388
| 34> H 	 -28.7856 	 65.1247 	 103.722
| 35> C 	 -26.909 	 65.2626 	 104.855
| 36> H 	 -26.3101 	 64.9653 	 104.005
| 37> H 	 -26.2725 	 64.8918 	 105.639
| 38> H 	 -26.7674 	 66.3458 	 104.949
| 39> H 	 -31.214 	 62.6177 	 110.845
| 40> H 	 -32.6414 	 62.0258 	 102.761
| 41> *
| 42>
| 43>                          ****END OF INPUT****

CARTESIAN COORDINATES (ANGSTROEM)
---------------------------------
  S    -31.481100   61.805800  108.414000
  C    -30.977700   62.808900  109.789000
  C    -30.225600   63.896600  109.345000
  C    -30.020800   63.913300  107.986000
  C    -30.737700   62.873300  107.308000
  H    -29.562300   64.630000  107.348000
  C    -29.604700   64.960000  110.290000
  H    -30.005200   64.833800  111.334000
  H    -29.974800   65.890600  109.997000
  C    -28.055400   65.133700  110.265000
  H    -27.837800   65.296100  109.229000
  H    -27.826800   65.963200  110.921000
  C    -27.399800   63.802200  110.658000
  H    -27.578700   62.969000  109.980000
  H    -26.292900   63.943400  110.742000
  H    -27.753000   63.477100  111.682000
  S    -32.575500   62.222700  105.307000
  C    -32.036800   62.293700  103.616000
  C    -30.693900   62.562700  103.504000
  C    -30.110800   62.795800  104.763000
  C    -30.894200   62.612200  105.878000
  H    -30.192900   62.496300  102.535000
  C    -28.640300   63.241200  104.927000
  H    -28.004300   62.595900  104.288000
  H    -28.402400   63.191400  105.985000
  C    -28.379000   64.789300  104.679000
  H    -29.005800   65.369100  105.388000
  H    -28.785600   65.124700  103.722000
  C    -26.909000   65.262600  104.855000
  H    -26.310100   64.965300  104.005000
  H    -26.272500   64.891800  105.639000
  H    -26.767400   66.345800  104.949000
  H    -31.214000   62.617700  110.845000
  H    -32.641400   62.025800  102.761000

 Total Charge           Charge          ....    0
 Multiplicity           Mult            ....    1
 Number of Electrons    NEL             ....  134
 Basis Dimension        Dim             ....  322

ORBITAL ENERGIES
----------------

  NO   OCC          E(Eh)            E(eV)
   0   2.0000     -88.972359     -2421.0610
   1   2.0000     -88.965617     -2420.8775
   2   2.0000     -10.334972      -281.2289
   3   2.0000     -10.332377      -281.1583
   4   2.0000     -10.322130      -280.8794
   5   2.0000     -10.317930      -280.7652
   6   2.0000     -10.305151      -280.4174
   7   2.0000     -10.303734      -280.3789
   8   2.0000     -10.297908      -280.2203
   9   2.0000     -10.297762      -280.2164
  10   2.0000     -10.296679      -280.1869
  11   2.0000     -10.294688      -280.1327
  12   2.0000     -10.291872      -280.0561
  13   2.0000     -10.288517      -279.9648
  14   2.0000     -10.280529      -279.7474
  15   2.0000     -10.279806      -279.7277
  16   2.0000      -8.087056      -220.0600
  17   2.0000      -8.079103      -219.8436
  18   2.0000      -6.045407      -164.5039
  19   2.0000      -6.041393      -164.3947
  20   2.0000      -6.038163      -164.3068
  21   2.0000      -6.037804      -164.2970
  22   2.0000      -6.033834      -164.1890
  23   2.0000      -6.029666      -164.0755
  24   2.0000      -1.007699       -27.4209
  25   2.0000      -0.983563       -26.7641
  26   2.0000      -0.911320       -24.7983
  27   2.0000      -0.898440       -24.4478
  28   2.0000      -0.869225       -23.6528
  29   2.0000      -0.851046       -23.1581
  30   2.0000      -0.844402       -22.9773
  31   2.0000      -0.811731       -22.0883
  32   2.0000      -0.783261       -21.3136
  33   2.0000      -0.773179       -21.0393
  34   2.0000      -0.711026       -19.3480
  35   2.0000      -0.700688       -19.0667
  36   2.0000      -0.693942       -18.8831
  37   2.0000      -0.663206       -18.0467
  38   2.0000      -0.643296       -17.5050
  39   2.0000      -0.622103       -16.9283
  40   2.0000      -0.591746       -16.1022
  41   2.0000      -0.571671       -15.5560
  42   2.0000      -0.559236       -15.2176
  43   2.0000      -0.549381       -14.9494
  44   2.0000      -0.542794       -14.7702
  45   2.0000      -0.519876       -14.1466
  46   2.0000      -0.515816       -14.0361
  47   2.0000      -0.510489       -13.8911
  48   2.0000      -0.506427       -13.7806
  49   2.0000      -0.498037       -13.5523
  50   2.0000      -0.489679       -13.3248
  51   2.0000      -0.481295       -13.0967
  52   2.0000      -0.469441       -12.7741
  53   2.0000      -0.466861       -12.7039
  54   2.0000      -0.460957       -12.5433
  55   2.0000      -0.452263       -12.3067
  56   2.0000      -0.445895       -12.1334
  57   2.0000      -0.432636       -11.7726
  58   2.0000      -0.428387       -11.6570
  59   2.0000      -0.426143       -11.5959
  60   2.0000      -0.421197       -11.4614
  61   2.0000      -0.420218       -11.4347
  62   2.0000      -0.410467       -11.1694
  63   2.0000      -0.350971        -9.5504
  64   2.0000      -0.339565        -9.2400
  65   2.0000      -0.332981        -9.0609
  66   2.0000      -0.287193        -7.8149
  67   0.0000       0.019742         0.5372
  68   0.0000       0.069125         1.8810
  69   0.0000       0.108328         2.9478
  70   0.0000       0.122419         3.3312
  71   0.0000       0.126583         3.4445

MULLIKEN ATOMIC CHARGES
-----------------------
   0 S :    0.123257
   1 C :   -0.135529
   2 C :   -0.064938
   3 C :    0.040279
   4 C :   -0.165953
   5 H :   -0.016827
   6 C :    0.065676
   7 H :    0.021285
   8 H :    0.013768
   9 C :   -0.047475
  10 H :    0.026453
  11 H :    0.040658
  12 C :   -0.082488
  13 H :    0.051820
  14 H :    0.036904
  15 H :    0.027258
  16 S :    0.080663
  17 C :   -0.087723
  18 C :   -0.025283
  19 C :   -0.055274
  20 C :   -0.115400
  21 H :    0.029605
  22 C :    0.054676
  23 H :    0.036951
  24 H :    0.023547
  25 C :   -0.074140
  26 H :    0.029125
  27 H :    0.024606
  28 C :   -0.049159
  29 H :    0.023028
  30 H :    0.022023
  31 H :    0.035276
  32 H :    0.054597
  33 H :    0.058736
Sum of atomic charges:   -0.0000000

LOEWDIN ATOMIC CHARGES
----------------------
   0 S :    0.432738
   1 C :   -0.201922
   2 C :   -0.060722
   3 C :   -0.069026
   4 C :   -0.198507
   5 H :    0.023708
   6 C :   -0.026115
   7 H :    0.029281
   8 H :    0.020385
   9 C :   -0.032478
  10 H :    0.021142
  11 H :    0.028370
  12 C :   -0.072774
  13 H :    0.028379
  14 H :    0.026716
  15 H :    0.026174
  16 S :    0.362814
  17 C :   -0.165237
  18 C :   -0.075467
  19 C :   -0.058823
  20 C :   -0.180579
  21 H :    0.039444
  22 C :   -0.026063
  23 H :    0.031404
  24 H :    0.027730
  25 C :   -0.039238
  26 H :    0.021803
  27 H :    0.022251
  28 C :   -0.077695
  29 H :    0.024971
  30 H :    0.024003
  31 H :    0.030469
  32 H :    0.032884
  33 H :    0.029980

  Mayer bond orders larger than 0.100000
B(  0-S ,  1-C ) :   1.1427 B(  0-S ,  4-C ) :   1.2003 B(  1-C ,  2-C ) :   1.5661
B(  1-C ,  4-C ) :   0.1169 B(  1-C , 32-H ) :   0.9670 B(  2-C ,  3-C ) :   1.2891
B(  2-C ,  6-C ) :   1.0115 B(  3-C ,  4-C ) :   1.4966 B(  3-C ,  5-H ) :   0.9943
B(  4-C , 20-C ) :   1.0366 B(  6-C ,  7-H ) :   0.9462 B(  6-C ,  8-H ) :   0.9363
B(  6-C ,  9-C ) :   1.0734 B(  9-C , 10-H ) :   0.9524 B(  9-C , 11-H ) :   0.9556
B(  9-C , 12-C ) :   1.0761 B( 12-C , 13-H ) :   0.9731 B( 12-C , 14-H ) :   0.9756
B( 12-C , 15-H ) :   0.9765 B( 16-S , 17-C ) :   1.1529 B( 16-S , 20-C ) :   1.1003
B( 17-C , 18-C ) :   1.6186 B( 17-C , 20-C ) :   0.1010 B( 17-C , 33-H ) :   0.9630
B( 18-C , 19-C ) :   1.2269 B( 18-C , 21-H ) :   0.9907 B( 19-C , 20-C ) :   1.6322
B( 19-C , 22-C ) :   1.0454 B( 22-C , 23-H ) :   0.9415 B( 22-C , 24-H ) :   0.9348
B( 22-C , 25-C ) :   1.0467 B( 25-C , 26-H ) :   0.9554 B( 25-C , 27-H ) :   0.9547
B( 25-C , 28-C ) :   1.0660 B( 28-C , 29-H ) :   0.9744 B( 28-C , 30-H ) :   0.9759
B( 28-C , 31-H ) :   0.9762

Dispersion correction           -0.014750392
FINAL SINGLE POINT ENERGY     -1339.877824379661

DIPOLE MOMENT
-------------
                                X             Y             Z
Electronic contribution:    -26.31529     -16.37459      -5.49914
Nuclear contribution   :     26.82686      16.77937       5.37661
                        -----------------------------------------
Total Dipole Moment    :      0.51158       0.40478      -0.12253
                        -----------------------------------------
Magnitude (a.u.)       :      0.66376
Magnitude (Debye)      :      1.68714

Rotational constants in cm-1:     0.017566     0.010008     0.006822
Rotational constants in MHz :   526.606184   300.040541   204.530206

                             ****ORCA TERMINATED NORMALLY****
TOTAL RUN TIME: 0 days 0 hours 0 minutes 30 seconds 13 msec
