                         Program Version 4.2.1 -  RELEASE  -
|  1> ! wB97X-D3 SP def2-SVP
|  2> %pal
|  3> nprocs 16
|  4> end
|  5>
|  6> * xyz 0 1
|  7> S 	 50.7042 	 23.0473 	 88.1493
|  8> C 	 49.0938 	 22.3709 	 88.4693
|  9> C 	 48.7655 	 22.4677 	 89.7936
| 10> C 	 49.7921 	 23.0081 	 90.6022
| 11> C 	 50.9198 	 23.3627 	 89.9006
| 12> H 	 49.8444 	 23.1549 	 91.714
| 13> C 	 47.3789 	 22.0396 	 90.3384
| 14> H 	 47.565 	 21.0267 	 90.7114
| 15> H 	 46.6196 	 21.8004 	 89.5582
| 16> C 	 46.8054 	 22.903 	 91.4494
| 17> H 	 47.6688 	 23.1061 	 92.1367
| 18> H 	 46.4304 	 23.8972 	 91.1091
| 19> C 	 45.6201 	 22.2243 	 92.1026
| 20> H 	 44.6949 	 22.1435 	 91.4654
| 21> H 	 45.7795 	 21.234 	 92.3542
| 22> H 	 45.2891 	 22.7114 	 93.0217
| 23> S 	 53.1585 	 24.917 	 89.3069
| 24> C 	 54.3074 	 25.359 	 90.466
| 25> C 	 53.95 	 24.8646 	 91.7061
| 26> C 	 52.7594 	 24.078 	 91.7179
| 27> C 	 52.1411 	 24.0836 	 90.4507
| 28> H 	 54.7435 	 24.9799 	 92.5405
| 29> C 	 52.3669 	 23.2813 	 92.9348
| 30> H 	 53.2443 	 22.9507 	 93.4182
| 31> H 	 51.9301 	 22.3901 	 92.5661
| 32> C 	 51.3929 	 24.0086 	 93.975
| 33> H 	 50.5131 	 24.3218 	 93.4208
| 34> H 	 51.8425 	 24.9511 	 94.2385
| 35> C 	 51.0608 	 23.2686 	 95.2523
| 36> H 	 51.9342 	 23.15 	 95.9098
| 37> H 	 50.6143 	 22.2104 	 95.0184
| 38> H 	 50.3013 	 23.7592 	 95.882
| 39> H 	 48.4947 	 21.9174 	 87.6766
| 40> H 	 55.181 	 25.9231 	 90.2232
| 41> *
| 42>
| 43>                          ****END OF INPUT****

CARTESIAN COORDINATES (ANGSTROEM)
---------------------------------
  S     50.704200   23.047300   88.149300
  C     49.093800   22.370900   88.469300
  C     48.765500   22.467700   89.793600
  C     49.792100   23.008100   90.602200
  C     50.919800   23.362700   89.900600
  H     49.844400   23.154900   91.714000
  C     47.378900   22.039600   90.338400
  H     47.565000   21.026700   90.711400
  H     46.619600   21.800400   89.558200
  C     46.805400   22.903000   91.449400
  H     47.668800   23.106100   92.136700
  H     46.430400   23.897200   91.109100
  C     45.620100   22.224300   92.102600
  H     44.694900   22.143500   91.465400
  H     45.779500   21.234000   92.354200
  H     45.289100   22.711400   93.021700
  S     53.158500   24.917000   89.306900
  C     54.307400   25.359000   90.466000
  C     53.950000   24.864600   91.706100
  C     52.759400   24.078000   91.717900
  C     52.141100   24.083600   90.450700
  H     54.743500   24.979900   92.540500
  C     52.366900   23.281300   92.934800
  H     53.244300   22.950700   93.418200
  H     51.930100   22.390100   92.566100
  C     51.392900   24.008600   93.975000
  H     50.513100   24.321800   93.420800
  H     51.842500   24.951100   94.238500
  C     51.060800   23.268600   95.252300
  H     51.934200   23.150000   95.909800
  H     50.614300   22.210400   95.018400
  H     50.301300   23.759200   95.882000
  H     48.494700   21.917400   87.676600
  H     55.181000   25.923100   90.223200

 Total Charge           Charge          ....    0
 Multiplicity           Mult            ....    1
 Number of Electrons    NEL             ....  134
 Basis Dimension        Dim             ....  322

ORBITAL ENERGIES
----------------

  NO   OCC          E(Eh)            E(eV)
   0   2.0000     -88.965808     -2420.8827
   1   2.0000     -88.965712     -2420.8801
   2   2.0000     -10.338957      -281.3373
   3   2.0000     -10.335125      -281.2331
   4   2.0000     -10.315466      -280.6981
   5   2.0000     -10.313197      -280.6364
   6   2.0000     -10.308047      -280.4962
   7   2.0000     -10.304244      -280.3927
   8   2.0000     -10.299865      -280.2736
   9   2.0000     -10.298422      -280.2343
  10   2.0000     -10.296339      -280.1776
  11   2.0000     -10.293266      -280.0940
  12   2.0000     -10.291650      -280.0500
  13   2.0000     -10.291448      -280.0445
  14   2.0000     -10.290482      -280.0182
  15   2.0000     -10.275655      -279.6148
  16   2.0000      -8.081746      -219.9155
  17   2.0000      -8.079573      -219.8563
  18   2.0000      -6.040087      -164.3591
  19   2.0000      -6.038218      -164.3083
  20   2.0000      -6.035940      -164.2463
  21   2.0000      -6.034352      -164.2031
  22   2.0000      -6.032749      -164.1594
  23   2.0000      -6.030117      -164.0878
  24   2.0000      -1.007336       -27.4110
  25   2.0000      -0.985954       -26.8292
  26   2.0000      -0.911007       -24.7898
  27   2.0000      -0.907945       -24.7064
  28   2.0000      -0.866002       -23.5651
  29   2.0000      -0.856061       -23.2946
  30   2.0000      -0.844120       -22.9697
  31   2.0000      -0.816246       -22.2112
  32   2.0000      -0.783813       -21.3286
  33   2.0000      -0.773091       -21.0369
  34   2.0000      -0.708635       -19.2830
  35   2.0000      -0.703606       -19.1461
  36   2.0000      -0.690643       -18.7933
  37   2.0000      -0.659300       -17.9405
  38   2.0000      -0.639652       -17.4058
  39   2.0000      -0.621960       -16.9244
  40   2.0000      -0.598322       -16.2812
  41   2.0000      -0.563478       -15.3330
  42   2.0000      -0.562157       -15.2971
  43   2.0000      -0.556606       -15.1460
  44   2.0000      -0.524555       -14.2739
  45   2.0000      -0.523168       -14.2361
  46   2.0000      -0.518639       -14.1129
  47   2.0000      -0.507895       -13.8205
  48   2.0000      -0.505892       -13.7660
  49   2.0000      -0.505285       -13.7495
  50   2.0000      -0.493824       -13.4376
  51   2.0000      -0.479446       -13.0464
  52   2.0000      -0.475723       -12.9451
  53   2.0000      -0.467616       -12.7245
  54   2.0000      -0.458307       -12.4712
  55   2.0000      -0.454109       -12.3569
  56   2.0000      -0.446014       -12.1367
  57   2.0000      -0.440879       -11.9969
  58   2.0000      -0.430863       -11.7244
  59   2.0000      -0.429070       -11.6756
  60   2.0000      -0.421684       -11.4746
  61   2.0000      -0.417649       -11.3648
  62   2.0000      -0.407827       -11.0975
  63   2.0000      -0.358956        -9.7677
  64   2.0000      -0.335393        -9.1265
  65   2.0000      -0.329256        -8.9595
  66   2.0000      -0.285762        -7.7760
  67   0.0000       0.023071         0.6278
  68   0.0000       0.083038         2.2596
  69   0.0000       0.104182         2.8349
  70   0.0000       0.122377         3.3300
  71   0.0000       0.128412         3.4943

MULLIKEN ATOMIC CHARGES
-----------------------
   0 S :    0.088129
   1 C :   -0.143533
   2 C :   -0.027500
   3 C :   -0.031240
   4 C :   -0.105915
   5 H :    0.022931
   6 C :    0.045754
   7 H :    0.032648
   8 H :    0.022597
   9 C :   -0.078102
  10 H :    0.036432
  11 H :    0.043676
  12 C :   -0.032466
  13 H :    0.031882
  14 H :    0.003409
  15 H :    0.031026
  16 S :    0.104854
  17 C :   -0.093105
  18 C :   -0.060269
  19 C :   -0.072837
  20 C :   -0.134895
  21 H :    0.048640
  22 C :    0.095636
  23 H :    0.006517
  24 H :    0.013648
  25 C :   -0.052373
  26 H :    0.024012
  27 H :    0.019571
  28 C :   -0.071835
  29 H :    0.039289
  30 H :    0.040112
  31 H :    0.042864
  32 H :    0.055410
  33 H :    0.055033
Sum of atomic charges:   -0.0000000

LOEWDIN ATOMIC CHARGES
----------------------
   0 S :    0.367091
   1 C :   -0.187748
   2 C :   -0.062024
   3 C :   -0.080647
   4 C :   -0.166480
   5 H :    0.040410
   6 C :   -0.035437
   7 H :    0.033783
   8 H :    0.031288
   9 C :   -0.045100
  10 H :    0.028195
  11 H :    0.031985
  12 C :   -0.066500
  13 H :    0.032664
  14 H :    0.011231
  15 H :    0.028078
  16 S :    0.435543
  17 C :   -0.203595
  18 C :   -0.085682
  19 C :   -0.060693
  20 C :   -0.196396
  21 H :    0.045999
  22 C :   -0.023963
  23 H :    0.025703
  24 H :    0.024170
  25 C :   -0.040636
  26 H :    0.019984
  27 H :    0.023881
  28 C :   -0.075904
  29 H :    0.026857
  30 H :    0.033598
  31 H :    0.030415
  32 H :    0.032318
  33 H :    0.027614

  Mayer bond orders larger than 0.100000
B(  0-S ,  1-C ) :   1.1159 B(  0-S ,  4-C ) :   1.1395 B(  1-C ,  2-C ) :   1.6363
B(  1-C , 32-H ) :   0.9697 B(  2-C ,  3-C ) :   1.2201 B(  2-C ,  6-C ) :   1.0014
B(  3-C ,  4-C ) :   1.6074 B(  3-C ,  5-H ) :   0.9742 B(  4-C , 20-C ) :   1.0410
B(  6-C ,  7-H ) :   0.9368 B(  6-C ,  8-H ) :   0.9483 B(  6-C ,  9-C ) :   1.0596
B(  9-C , 10-H ) :   0.9504 B(  9-C , 11-H ) :   0.9543 B(  9-C , 12-C ) :   1.0853
B( 12-C , 13-H ) :   0.9718 B( 12-C , 14-H ) :   0.9740 B( 12-C , 15-H ) :   0.9717
B( 16-S , 17-C ) :   1.1845 B( 16-S , 20-C ) :   1.1621 B( 17-C , 18-C ) :   1.5766
B( 17-C , 33-H ) :   0.9729 B( 18-C , 19-C ) :   1.2795 B( 18-C , 21-H ) :   0.9762
B( 19-C , 20-C ) :   1.5479 B( 19-C , 22-C ) :   1.0487 B( 22-C , 23-H ) :   0.9311
B( 22-C , 24-H ) :   0.9280 B( 22-C , 25-C ) :   1.0490 B( 25-C , 26-H ) :   0.9528
B( 25-C , 27-H ) :   0.9499 B( 25-C , 28-C ) :   1.0837 B( 28-C , 29-H ) :   0.9736
B( 28-C , 30-H ) :   0.9726 B( 28-C , 31-H ) :   0.9725

Dispersion correction           -0.013796125
FINAL SINGLE POINT ENERGY     -1339.882952205172

DIPOLE MOMENT
-------------
                                X             Y             Z
Electronic contribution:     19.73146       6.97480     -26.85590
Nuclear contribution   :    -19.92560      -7.16642      27.48751
                        -----------------------------------------
Total Dipole Moment    :     -0.19414      -0.19162       0.63161
                        -----------------------------------------
Magnitude (a.u.)       :      0.68799
Magnitude (Debye)      :      1.74874

Rotational constants in cm-1:     0.016324     0.009561     0.006296
Rotational constants in MHz :   489.392149   286.644505   188.749250

                             ****ORCA TERMINATED NORMALLY****
TOTAL RUN TIME: 0 days 0 hours 0 minutes 30 seconds 196 msec
