                         Program Version 4.2.1 -  RELEASE  -
|  1> ! wB97X-D3 SP def2-SVP
|  2> %pal
|  3> nprocs 16
|  4> end
|  5>
|  6> * xyz 0 1
|  7> S 	 -39.358 	 20.5207 	 80.4781
|  8> C 	 -40.2402 	 19.1188 	 81.02
|  9> C 	 -41.2474 	 19.5281 	 81.8431
| 10> C 	 -41.4404 	 20.9705 	 81.9318
| 11> C 	 -40.4944 	 21.7039 	 81.1853
| 12> H 	 -42.2761 	 21.4529 	 82.4637
| 13> C 	 -42.3203 	 18.6167 	 82.5205
| 14> H 	 -42.3649 	 17.6573 	 82.0604
| 15> H 	 -43.2977 	 18.9917 	 82.4991
| 16> C 	 -41.9243 	 18.3349 	 83.9926
| 17> H 	 -42.249 	 17.3243 	 84.2705
| 18> H 	 -40.8209 	 18.2979 	 84.0156
| 19> C 	 -42.4932 	 19.3905 	 85.0145
| 20> H 	 -43.5336 	 19.0458 	 85.3045
| 21> H 	 -41.8052 	 19.4335 	 85.8829
| 22> H 	 -42.5685 	 20.4035 	 84.593
| 23> S 	 -38.7433 	 23.8582 	 81.2555
| 24> C 	 -39.3348 	 25.4368 	 80.9762
| 25> C 	 -40.6441 	 25.5127 	 80.5729
| 26> C 	 -41.2674 	 24.1859 	 80.7008
| 27> C 	 -40.3881 	 23.1806 	 81.0762
| 28> H 	 -41.0691 	 26.454 	 80.2683
| 29> C 	 -42.6582 	 23.9898 	 80.2289
| 30> H 	 -43.1994 	 24.9364 	 80.0403
| 31> H 	 -43.3003 	 23.4665 	 80.9916
| 32> C 	 -42.8918 	 23.1454 	 78.905
| 33> H 	 -42.7102 	 22.0888 	 79.1866
| 34> H 	 -42.1871 	 23.4383 	 78.2011
| 35> C 	 -44.2839 	 23.3145 	 78.2811
| 36> H 	 -44.5536 	 22.7507 	 77.3722
| 37> H 	 -44.2873 	 24.3074 	 77.8474
| 38> H 	 -45.0074 	 23.0674 	 78.9825
| 39> H 	 -39.9561 	 18.071 	 80.8324
| 40> H 	 -38.7377 	 26.2171 	 81.0987
| 41> *
| 42>
| 43>                          ****END OF INPUT****

CARTESIAN COORDINATES (ANGSTROEM)
---------------------------------
  S    -39.358000   20.520700   80.478100
  C    -40.240200   19.118800   81.020000
  C    -41.247400   19.528100   81.843100
  C    -41.440400   20.970500   81.931800
  C    -40.494400   21.703900   81.185300
  H    -42.276100   21.452900   82.463700
  C    -42.320300   18.616700   82.520500
  H    -42.364900   17.657300   82.060400
  H    -43.297700   18.991700   82.499100
  C    -41.924300   18.334900   83.992600
  H    -42.249000   17.324300   84.270500
  H    -40.820900   18.297900   84.015600
  C    -42.493200   19.390500   85.014500
  H    -43.533600   19.045800   85.304500
  H    -41.805200   19.433500   85.882900
  H    -42.568500   20.403500   84.593000
  S    -38.743300   23.858200   81.255500
  C    -39.334800   25.436800   80.976200
  C    -40.644100   25.512700   80.572900
  C    -41.267400   24.185900   80.700800
  C    -40.388100   23.180600   81.076200
  H    -41.069100   26.454000   80.268300
  C    -42.658200   23.989800   80.228900
  H    -43.199400   24.936400   80.040300
  H    -43.300300   23.466500   80.991600
  C    -42.891800   23.145400   78.905000
  H    -42.710200   22.088800   79.186600
  H    -42.187100   23.438300   78.201100
  C    -44.283900   23.314500   78.281100
  H    -44.553600   22.750700   77.372200
  H    -44.287300   24.307400   77.847400
  H    -45.007400   23.067400   78.982500
  H    -39.956100   18.071000   80.832400
  H    -38.737700   26.217100   81.098700

 Total Charge           Charge          ....    0
 Multiplicity           Mult            ....    1
 Number of Electrons    NEL             ....  134
 Basis Dimension        Dim             ....  322

ORBITAL ENERGIES
----------------

  NO   OCC          E(Eh)            E(eV)
   0   2.0000     -88.966898     -2420.9124
   1   2.0000     -88.965159     -2420.8650
   2   2.0000     -10.341118      -281.3961
   3   2.0000     -10.334821      -281.2248
   4   2.0000     -10.317866      -280.7634
   5   2.0000     -10.311987      -280.6034
   6   2.0000     -10.308408      -280.5060
   7   2.0000     -10.305040      -280.4144
   8   2.0000     -10.301372      -280.3146
   9   2.0000     -10.298771      -280.2438
  10   2.0000     -10.295034      -280.1421
  11   2.0000     -10.287390      -279.9341
  12   2.0000     -10.286307      -279.9046
  13   2.0000     -10.286190      -279.9014
  14   2.0000     -10.279863      -279.7293
  15   2.0000     -10.272214      -279.5212
  16   2.0000      -8.080983      -219.8947
  17   2.0000      -8.080500      -219.8816
  18   2.0000      -6.039765      -164.3504
  19   2.0000      -6.038963      -164.3285
  20   2.0000      -6.035458      -164.2332
  21   2.0000      -6.035005      -164.2208
  22   2.0000      -6.031591      -164.1279
  23   2.0000      -6.031200      -164.1173
  24   2.0000      -1.002845       -27.2888
  25   2.0000      -0.983272       -26.7562
  26   2.0000      -0.905180       -24.6312
  27   2.0000      -0.903029       -24.5727
  28   2.0000      -0.868631       -23.6367
  29   2.0000      -0.852992       -23.2111
  30   2.0000      -0.834998       -22.7215
  31   2.0000      -0.815873       -22.2010
  32   2.0000      -0.780745       -21.2452
  33   2.0000      -0.772355       -21.0168
  34   2.0000      -0.708873       -19.2894
  35   2.0000      -0.694472       -18.8975
  36   2.0000      -0.690425       -18.7874
  37   2.0000      -0.670221       -18.2376
  38   2.0000      -0.640554       -17.4304
  39   2.0000      -0.617323       -16.7982
  40   2.0000      -0.600843       -16.3498
  41   2.0000      -0.574542       -15.6341
  42   2.0000      -0.566812       -15.4237
  43   2.0000      -0.540189       -14.6993
  44   2.0000      -0.536203       -14.5908
  45   2.0000      -0.525936       -14.3114
  46   2.0000      -0.515958       -14.0399
  47   2.0000      -0.509476       -13.8636
  48   2.0000      -0.509224       -13.8567
  49   2.0000      -0.503004       -13.6874
  50   2.0000      -0.488925       -13.3043
  51   2.0000      -0.479761       -13.0550
  52   2.0000      -0.470244       -12.7960
  53   2.0000      -0.465071       -12.6552
  54   2.0000      -0.459984       -12.5168
  55   2.0000      -0.455072       -12.3831
  56   2.0000      -0.437209       -11.8970
  57   2.0000      -0.432147       -11.7593
  58   2.0000      -0.429894       -11.6980
  59   2.0000      -0.424226       -11.5438
  60   2.0000      -0.417899       -11.3716
  61   2.0000      -0.410313       -11.1652
  62   2.0000      -0.404997       -11.0205
  63   2.0000      -0.353579        -9.6214
  64   2.0000      -0.329975        -8.9791
  65   2.0000      -0.327587        -8.9141
  66   2.0000      -0.293491        -7.9863
  67   0.0000       0.027909         0.7594
  68   0.0000       0.064141         1.7454
  69   0.0000       0.110368         3.0033
  70   0.0000       0.118871         3.2346
  71   0.0000       0.129596         3.5265

MULLIKEN ATOMIC CHARGES
-----------------------
   0 S :    0.101224
   1 C :   -0.125844
   2 C :   -0.086132
   3 C :    0.015081
   4 C :   -0.133337
   5 H :    0.030303
   6 C :    0.088917
   7 H :    0.008771
   8 H :    0.014222
   9 C :   -0.093276
  10 H :    0.027085
  11 H :    0.031812
  12 C :   -0.074127
  13 H :    0.044154
  14 H :    0.046554
  15 H :    0.031764
  16 S :    0.098287
  17 C :   -0.028753
  18 C :   -0.021625
  19 C :   -0.014579
  20 C :   -0.147237
  21 H :    0.022086
  22 C :    0.004781
  23 H :    0.016154
  24 H :    0.032372
  25 C :   -0.058873
  26 H :    0.044583
  27 H :    0.016889
  28 C :   -0.039651
  29 H :    0.032281
  30 H :    0.025589
  31 H :    0.023939
  32 H :    0.063460
  33 H :    0.003128
Sum of atomic charges:    0.0000000

LOEWDIN ATOMIC CHARGES
----------------------
   0 S :    0.392170
   1 C :   -0.203796
   2 C :   -0.061407
   3 C :   -0.069134
   4 C :   -0.183297
   5 H :    0.032868
   6 C :   -0.022823
   7 H :    0.024984
   8 H :    0.019676
   9 C :   -0.041583
  10 H :    0.020878
  11 H :    0.023810
  12 C :   -0.072459
  13 H :    0.031325
  14 H :    0.031074
  15 H :    0.021973
  16 S :    0.406365
  17 C :   -0.162297
  18 C :   -0.063465
  19 C :   -0.050162
  20 C :   -0.185119
  21 H :    0.034046
  22 C :   -0.042107
  23 H :    0.028188
  24 H :    0.033929
  25 C :   -0.030569
  26 H :    0.026542
  27 H :    0.012695
  28 C :   -0.065765
  29 H :    0.032691
  30 H :    0.026666
  31 H :    0.015328
  32 H :    0.040290
  33 H :   -0.001514

  Mayer bond orders larger than 0.100000
B(  0-S ,  1-C ) :   1.1249 B(  0-S ,  4-C ) :   1.1453 B(  1-C ,  2-C ) :   1.6285
B(  1-C , 32-H ) :   0.9656 B(  2-C ,  3-C ) :   1.2308 B(  2-C ,  6-C ) :   1.0289
B(  3-C ,  4-C ) :   1.5657 B(  3-C ,  5-H ) :   0.9853 B(  4-C , 20-C ) :   1.0541
B(  6-C ,  7-H ) :   0.9439 B(  6-C ,  8-H ) :   0.9549 B(  6-C ,  9-C ) :   1.0533
B(  9-C , 10-H ) :   0.9621 B(  9-C , 11-H ) :   0.9628 B(  9-C , 12-C ) :   1.0625
B( 12-C , 13-H ) :   0.9766 B( 12-C , 14-H ) :   0.9770 B( 12-C , 15-H ) :   0.9781
B( 16-S , 17-C ) :   1.1729 B( 16-S , 20-C ) :   1.1183 B( 17-C , 18-C ) :   1.6120
B( 17-C , 33-H ) :   0.9813 B( 18-C , 19-C ) :   1.2081 B( 18-C , 21-H ) :   0.9970
B( 19-C , 20-C ) :   1.6075 B( 19-C , 22-C ) :   1.0690 B( 22-C , 23-H ) :   0.9411
B( 22-C , 24-H ) :   0.9285 B( 22-C , 25-C ) :   1.0446 B( 25-C , 26-H ) :   0.9547
B( 25-C , 27-H ) :   0.9616 B( 25-C , 28-C ) :   1.0856 B( 28-C , 29-H ) :   0.9723
B( 28-C , 30-H ) :   0.9727 B( 28-C , 31-H ) :   0.9770

Dispersion correction           -0.014343499
FINAL SINGLE POINT ENERGY     -1339.862539644479

DIPOLE MOMENT
-------------
                                X             Y             Z
Electronic contribution:     24.37235       7.03214      -4.04675
Nuclear contribution   :    -24.92046      -7.04113       4.03783
                        -----------------------------------------
Total Dipole Moment    :     -0.54812      -0.00899      -0.00892
                        -----------------------------------------
Magnitude (a.u.)       :      0.54826
Magnitude (Debye)      :      1.39357

Rotational constants in cm-1:     0.017155     0.008616     0.007322
Rotational constants in MHz :   514.307744   258.296411   219.515650

                             ****ORCA TERMINATED NORMALLY****
TOTAL RUN TIME: 0 days 0 hours 0 minutes 30 seconds 157 msec
