                         Program Version 4.2.1 -  RELEASE  -
|  1> ! wB97X-D3 SP def2-SVP
|  2> %pal
|  3> nprocs 16
|  4> end
|  5>
|  6> * xyz 0 1
|  7> S 	 7.82171 	 24.6623 	 39.2531
|  8> C 	 6.69722 	 24.3934 	 40.6304
|  9> C 	 7.00925 	 25.3795 	 41.5531
| 10> C 	 8.26714 	 26.0461 	 41.3215
| 11> C 	 8.86908 	 25.6622 	 40.1464
| 12> H 	 8.93802 	 26.6477 	 41.9464
| 13> C 	 6.2729 	 25.7862 	 42.8999
| 14> H 	 6.83763 	 26.6395 	 43.3359
| 15> H 	 6.29459 	 24.9955 	 43.6405
| 16> C 	 4.84967 	 26.2984 	 42.7285
| 17> H 	 4.78809 	 26.9673 	 41.8596
| 18> H 	 4.16603 	 25.4723 	 42.4354
| 19> C 	 4.29213 	 26.9651 	 43.8912
| 20> H 	 3.28399 	 27.4 	 43.6894
| 21> H 	 4.13163 	 26.2301 	 44.6674
| 22> H 	 4.90182 	 27.7612 	 44.3108
| 23> S 	 11.5251 	 26.2587 	 40.7471
| 24> C 	 12.5082 	 27.0434 	 39.4688
| 25> C 	 11.8371 	 26.9397 	 38.2723
| 26> C 	 10.4903 	 26.4804 	 38.296
| 27> C 	 10.1455 	 26.0918 	 39.5814
| 28> H 	 12.2406 	 27.3312 	 37.3904
| 29> C 	 9.56393 	 26.3924 	 37.1042
| 30> H 	 8.73724 	 27.1012 	 37.2732
| 31> H 	 9.08511 	 25.4465 	 37.0242
| 32> C 	 10.2399 	 26.876 	 35.843
| 33> H 	 11.2288 	 26.4428 	 35.7516
| 34> H 	 10.4878 	 27.9695 	 35.9445
| 35> C 	 9.36664 	 26.7011 	 34.6022
| 36> H 	 8.57982 	 27.4308 	 34.6244
| 37> H 	 8.94688 	 25.6275 	 34.453
| 38> H 	 9.89218 	 26.9184 	 33.7384
| 39> H 	 5.68918 	 23.8904 	 40.6281
| 40> H 	 13.5728 	 27.3306 	 39.6086
| 41> *
| 42>
| 43>                          ****END OF INPUT****

CARTESIAN COORDINATES (ANGSTROEM)
---------------------------------
  S      7.821710   24.662300   39.253100
  C      6.697220   24.393400   40.630400
  C      7.009250   25.379500   41.553100
  C      8.267140   26.046100   41.321500
  C      8.869080   25.662200   40.146400
  H      8.938020   26.647700   41.946400
  C      6.272900   25.786200   42.899900
  H      6.837630   26.639500   43.335900
  H      6.294590   24.995500   43.640500
  C      4.849670   26.298400   42.728500
  H      4.788090   26.967300   41.859600
  H      4.166030   25.472300   42.435400
  C      4.292130   26.965100   43.891200
  H      3.283990   27.400000   43.689400
  H      4.131630   26.230100   44.667400
  H      4.901820   27.761200   44.310800
  S     11.525100   26.258700   40.747100
  C     12.508200   27.043400   39.468800
  C     11.837100   26.939700   38.272300
  C     10.490300   26.480400   38.296000
  C     10.145500   26.091800   39.581400
  H     12.240600   27.331200   37.390400
  C      9.563930   26.392400   37.104200
  H      8.737240   27.101200   37.273200
  H      9.085110   25.446500   37.024200
  C     10.239900   26.876000   35.843000
  H     11.228800   26.442800   35.751600
  H     10.487800   27.969500   35.944500
  C      9.366640   26.701100   34.602200
  H      8.579820   27.430800   34.624400
  H      8.946880   25.627500   34.453000
  H      9.892180   26.918400   33.738400
  H      5.689180   23.890400   40.628100
  H     13.572800   27.330600   39.608600

 Total Charge           Charge          ....    0
 Multiplicity           Mult            ....    1
 Number of Electrons    NEL             ....  134
 Basis Dimension        Dim             ....  322

ORBITAL ENERGIES
----------------

  NO   OCC          E(Eh)            E(eV)
   0   2.0000     -88.967271     -2420.9225
   1   2.0000     -88.964333     -2420.8426
   2   2.0000     -10.332232      -281.1543
   3   2.0000     -10.326816      -281.0070
   4   2.0000     -10.325199      -280.9630
   5   2.0000     -10.322886      -280.9000
   6   2.0000     -10.310791      -280.5709
   7   2.0000     -10.304621      -280.4030
   8   2.0000     -10.296156      -280.1726
   9   2.0000     -10.292577      -280.0753
  10   2.0000     -10.292249      -280.0663
  11   2.0000     -10.291292      -280.0403
  12   2.0000     -10.289521      -279.9921
  13   2.0000     -10.280801      -279.7548
  14   2.0000     -10.279060      -279.7075
  15   2.0000     -10.273715      -279.5620
  16   2.0000      -8.080258      -219.8750
  17   2.0000      -8.078962      -219.8397
  18   2.0000      -6.038943      -164.3280
  19   2.0000      -6.037661      -164.2931
  20   2.0000      -6.035067      -164.2225
  21   2.0000      -6.033419      -164.1777
  22   2.0000      -6.030898      -164.1091
  23   2.0000      -6.029578      -164.0732
  24   2.0000      -1.006703       -27.3938
  25   2.0000      -0.980377       -26.6774
  26   2.0000      -0.915629       -24.9155
  27   2.0000      -0.915030       -24.8992
  28   2.0000      -0.872451       -23.7406
  29   2.0000      -0.851829       -23.1795
  30   2.0000      -0.843271       -22.9466
  31   2.0000      -0.812119       -22.0989
  32   2.0000      -0.785712       -21.3803
  33   2.0000      -0.775277       -21.0964
  34   2.0000      -0.711462       -19.3599
  35   2.0000      -0.699595       -19.0369
  36   2.0000      -0.693086       -18.8598
  37   2.0000      -0.657235       -17.8843
  38   2.0000      -0.633788       -17.2463
  39   2.0000      -0.611663       -16.6442
  40   2.0000      -0.603104       -16.4113
  41   2.0000      -0.572564       -15.5803
  42   2.0000      -0.568357       -15.4658
  43   2.0000      -0.563616       -15.3368
  44   2.0000      -0.533228       -14.5099
  45   2.0000      -0.520778       -14.1711
  46   2.0000      -0.516326       -14.0499
  47   2.0000      -0.515867       -14.0375
  48   2.0000      -0.509981       -13.8773
  49   2.0000      -0.500768       -13.6266
  50   2.0000      -0.488149       -13.2832
  51   2.0000      -0.483449       -13.1553
  52   2.0000      -0.472203       -12.8493
  53   2.0000      -0.469263       -12.7693
  54   2.0000      -0.457620       -12.4525
  55   2.0000      -0.456765       -12.4292
  56   2.0000      -0.445383       -12.1195
  57   2.0000      -0.434058       -11.8113
  58   2.0000      -0.426235       -11.5984
  59   2.0000      -0.421628       -11.4731
  60   2.0000      -0.419983       -11.4283
  61   2.0000      -0.409943       -11.1551
  62   2.0000      -0.408608       -11.1188
  63   2.0000      -0.352585        -9.5943
  64   2.0000      -0.334193        -9.0939
  65   2.0000      -0.328508        -8.9392
  66   2.0000      -0.290582        -7.9071
  67   0.0000       0.020155         0.5484
  68   0.0000       0.073763         2.0072
  69   0.0000       0.095858         2.6084
  70   0.0000       0.114487         3.1153
  71   0.0000       0.129754         3.5308

MULLIKEN ATOMIC CHARGES
-----------------------
   0 S :    0.071795
   1 C :   -0.115564
   2 C :   -0.083559
   3 C :    0.008392
   4 C :   -0.147789
   5 H :    0.020335
   6 C :    0.052989
   7 H :    0.023689
   8 H :    0.038098
   9 C :   -0.086671
  10 H :    0.027115
  11 H :    0.023129
  12 C :   -0.038492
  13 H :    0.036532
  14 H :    0.020134
  15 H :    0.029162
  16 S :    0.085736
  17 C :   -0.101494
  18 C :   -0.012631
  19 C :   -0.057614
  20 C :   -0.135806
  21 H :   -0.002992
  22 C :    0.102168
  23 H :    0.037364
  24 H :    0.040351
  25 C :   -0.151925
  26 H :    0.033420
  27 H :    0.037264
  28 C :    0.008478
  29 H :    0.025303
  30 H :    0.046159
  31 H :    0.011915
  32 H :    0.077262
  33 H :    0.077745
Sum of atomic charges:    0.0000000

LOEWDIN ATOMIC CHARGES
----------------------
   0 S :    0.413435
   1 C :   -0.203553
   2 C :   -0.053214
   3 C :   -0.080891
   4 C :   -0.198867
   5 H :    0.031358
   6 C :   -0.026347
   7 H :    0.032190
   8 H :    0.028732
   9 C :   -0.055531
  10 H :    0.024505
  11 H :    0.024223
  12 C :   -0.066986
  13 H :    0.033647
  14 H :    0.022877
  15 H :    0.023132
  16 S :    0.363812
  17 C :   -0.176818
  18 C :   -0.065936
  19 C :   -0.054518
  20 C :   -0.168785
  21 H :    0.020215
  22 C :   -0.035799
  23 H :    0.041671
  24 H :    0.019451
  25 C :   -0.047258
  26 H :    0.018648
  27 H :    0.031456
  28 C :   -0.059790
  29 H :    0.024278
  30 H :    0.037589
  31 H :    0.016050
  32 H :    0.046153
  33 H :    0.040872

  Mayer bond orders larger than 0.100000
B(  0-S ,  1-C ) :   1.1062 B(  0-S ,  4-C ) :   1.1593 B(  1-C ,  2-C ) :   1.6340
B(  1-C , 32-H ) :   0.9621 B(  2-C ,  3-C ) :   1.2200 B(  2-C ,  6-C ) :   1.0017
B(  3-C ,  4-C ) :   1.5868 B(  3-C ,  5-H ) :   0.9839 B(  4-C , 20-C ) :   1.0348
B(  6-C ,  7-H ) :   0.9498 B(  6-C ,  8-H ) :   0.9448 B(  6-C ,  9-C ) :   1.0593
B(  9-C , 10-H ) :   0.9557 B(  9-C , 11-H ) :   0.9460 B(  9-C , 12-C ) :   1.1072
B( 12-C , 13-H ) :   0.9683 B( 12-C , 14-H ) :   0.9688 B( 12-C , 15-H ) :   0.9712
B( 16-S , 17-C ) :   1.1279 B( 16-S , 20-C ) :   1.1325 B( 17-C , 18-C ) :   1.6072
B( 17-C , 20-C ) :   0.1033 B( 17-C , 33-H ) :   0.9602 B( 18-C , 19-C ) :   1.2567
B( 18-C , 21-H ) :   0.9814 B( 19-C , 20-C ) :   1.5987 B( 19-C , 22-C ) :   1.0246
B( 22-C , 23-H ) :   0.9137 B( 22-C , 24-H ) :   0.9323 B( 22-C , 25-C ) :   1.0859
B( 25-C , 26-H ) :   0.9514 B( 25-C , 27-H ) :   0.9464 B( 25-C , 28-C ) :   1.0852
B( 28-C , 29-H ) :   0.9703 B( 28-C , 30-H ) :   0.9733 B( 28-C , 31-H ) :   0.9681

Dispersion correction           -0.013136735
FINAL SINGLE POINT ENERGY     -1339.865537106045

DIPOLE MOMENT
-------------
                                X             Y             Z
Electronic contribution:     15.79942      -7.88734       3.52412
Nuclear contribution   :    -16.00858       8.24783      -3.72858
                        -----------------------------------------
Total Dipole Moment    :     -0.20916       0.36049      -0.20446
                        -----------------------------------------
Magnitude (a.u.)       :      0.46422
Magnitude (Debye)      :      1.17996

Rotational constants in cm-1:     0.021251     0.007074     0.005865
Rotational constants in MHz :   637.090949   212.086645   175.822585

                             ****ORCA TERMINATED NORMALLY****
TOTAL RUN TIME: 0 days 0 hours 0 minutes 32 seconds 194 msec
