                         Program Version 4.2.1 -  RELEASE  -
|  1> ! wB97X-D3 SP def2-SVP
|  2> %pal
|  3> nprocs 16
|  4> end
|  5>
|  6> * xyz 0 1
|  7> S 	 11.4863 	 -10.621 	 92.6833
|  8> C 	 11.4066 	 -9.2104 	 93.6394
|  9> C 	 10.1624 	 -9.0361 	 94.139
| 10> C 	 9.22317 	 -10.0302 	 93.814
| 11> C 	 9.87911 	 -11.0363 	 93.1319
| 12> H 	 8.15753 	 -9.99211 	 94.0068
| 13> C 	 9.66535 	 -7.82538 	 94.9087
| 14> H 	 8.73813 	 -7.4779 	 94.5847
| 15> H 	 10.3519 	 -6.95131 	 94.6728
| 16> C 	 9.65404 	 -8.05381 	 96.4917
| 17> H 	 9.07044 	 -7.17709 	 96.8316
| 18> H 	 9.07057 	 -8.94335 	 96.8509
| 19> C 	 10.9378 	 -8.34136 	 97.2248
| 20> H 	 11.6108 	 -7.51182 	 97.1207
| 21> H 	 10.7556 	 -8.45125 	 98.274
| 22> H 	 11.3916 	 -9.28062 	 96.9037
| 23> S 	 9.1534 	 -12.6993 	 91.022
| 24> C 	 7.95127 	 -13.9319 	 91.208
| 25> C 	 7.65515 	 -14.0344 	 92.5508
| 26> C 	 8.30202 	 -13.0858 	 93.4063
| 27> C 	 9.18743 	 -12.3 	 92.6708
| 28> H 	 7.02497 	 -14.8293 	 92.9036
| 29> C 	 8.26671 	 -13.1004 	 94.9278
| 30> H 	 9.25905 	 -12.7971 	 95.2508
| 31> H 	 8.18586 	 -14.1252 	 95.182
| 32> C 	 7.15184 	 -12.2716 	 95.5848
| 33> H 	 6.16319 	 -12.4659 	 95.2442
| 34> H 	 7.27048 	 -11.21 	 95.3345
| 35> C 	 6.98497 	 -12.4939 	 97.0919
| 36> H 	 6.31483 	 -11.6925 	 97.4898
| 37> H 	 7.99974 	 -12.4888 	 97.4827
| 38> H 	 6.60519 	 -13.4972 	 97.3208
| 39> H 	 12.198 	 -8.39675 	 93.5701
| 40> H 	 7.65602 	 -14.6642 	 90.4558
| 41> *
| 42>
| 43>                          ****END OF INPUT****

CARTESIAN COORDINATES (ANGSTROEM)
---------------------------------
  S     11.486300  -10.621000   92.683300
  C     11.406600   -9.210400   93.639400
  C     10.162400   -9.036100   94.139000
  C      9.223170  -10.030200   93.814000
  C      9.879110  -11.036300   93.131900
  H      8.157530   -9.992110   94.006800
  C      9.665350   -7.825380   94.908700
  H      8.738130   -7.477900   94.584700
  H     10.351900   -6.951310   94.672800
  C      9.654040   -8.053810   96.491700
  H      9.070440   -7.177090   96.831600
  H      9.070570   -8.943350   96.850900
  C     10.937800   -8.341360   97.224800
  H     11.610800   -7.511820   97.120700
  H     10.755600   -8.451250   98.274000
  H     11.391600   -9.280620   96.903700
  S      9.153400  -12.699300   91.022000
  C      7.951270  -13.931900   91.208000
  C      7.655150  -14.034400   92.550800
  C      8.302020  -13.085800   93.406300
  C      9.187430  -12.300000   92.670800
  H      7.024970  -14.829300   92.903600
  C      8.266710  -13.100400   94.927800
  H      9.259050  -12.797100   95.250800
  H      8.185860  -14.125200   95.182000
  C      7.151840  -12.271600   95.584800
  H      6.163190  -12.465900   95.244200
  H      7.270480  -11.210000   95.334500
  C      6.984970  -12.493900   97.091900
  H      6.314830  -11.692500   97.489800
  H      7.999740  -12.488800   97.482700
  H      6.605190  -13.497200   97.320800
  H     12.198000   -8.396750   93.570100
  H      7.656020  -14.664200   90.455800

 Total Charge           Charge          ....    0
 Multiplicity           Mult            ....    1
 Number of Electrons    NEL             ....  134
 Basis Dimension        Dim             ....  322

ORBITAL ENERGIES
----------------

  NO   OCC          E(Eh)            E(eV)
   0   2.0000     -88.967657     -2420.9330
   1   2.0000     -88.962863     -2420.8026
   2   2.0000     -10.330565      -281.1090
   3   2.0000     -10.322695      -280.8948
   4   2.0000     -10.315122      -280.6887
   5   2.0000     -10.311765      -280.5974
   6   2.0000     -10.299362      -280.2599
   7   2.0000     -10.294683      -280.1326
   8   2.0000     -10.293943      -280.1124
   9   2.0000     -10.291743      -280.0526
  10   2.0000     -10.291548      -280.0473
  11   2.0000     -10.291497      -280.0459
  12   2.0000     -10.288731      -279.9706
  13   2.0000     -10.281238      -279.7667
  14   2.0000     -10.280108      -279.7360
  15   2.0000     -10.271346      -279.4975
  16   2.0000      -8.083807      -219.9716
  17   2.0000      -8.078876      -219.8374
  18   2.0000      -6.042111      -164.4142
  19   2.0000      -6.038191      -164.3075
  20   2.0000      -6.037255      -164.2821
  21   2.0000      -6.034636      -164.2108
  22   2.0000      -6.033010      -164.1665
  23   2.0000      -6.029893      -164.0817
  24   2.0000      -1.015968       -27.6459
  25   2.0000      -0.994819       -27.0704
  26   2.0000      -0.909114       -24.7382
  27   2.0000      -0.905092       -24.6288
  28   2.0000      -0.866202       -23.5705
  29   2.0000      -0.857023       -23.3208
  30   2.0000      -0.850629       -23.1468
  31   2.0000      -0.816764       -22.2253
  32   2.0000      -0.783924       -21.3317
  33   2.0000      -0.772354       -21.0168
  34   2.0000      -0.701104       -19.0780
  35   2.0000      -0.695858       -18.9353
  36   2.0000      -0.690279       -18.7834
  37   2.0000      -0.662710       -18.0333
  38   2.0000      -0.640001       -17.4153
  39   2.0000      -0.621577       -16.9140
  40   2.0000      -0.595434       -16.2026
  41   2.0000      -0.570073       -15.5125
  42   2.0000      -0.561502       -15.2793
  43   2.0000      -0.545789       -14.8517
  44   2.0000      -0.540585       -14.7101
  45   2.0000      -0.534465       -14.5435
  46   2.0000      -0.515260       -14.0209
  47   2.0000      -0.514264       -13.9938
  48   2.0000      -0.505834       -13.7644
  49   2.0000      -0.502551       -13.6751
  50   2.0000      -0.493468       -13.4280
  51   2.0000      -0.479723       -13.0539
  52   2.0000      -0.473479       -12.8840
  53   2.0000      -0.461965       -12.5707
  54   2.0000      -0.457477       -12.4486
  55   2.0000      -0.453001       -12.3268
  56   2.0000      -0.446924       -12.1614
  57   2.0000      -0.443830       -12.0772
  58   2.0000      -0.439673       -11.9641
  59   2.0000      -0.418627       -11.3914
  60   2.0000      -0.416334       -11.3290
  61   2.0000      -0.409005       -11.1296
  62   2.0000      -0.405462       -11.0332
  63   2.0000      -0.347687        -9.4610
  64   2.0000      -0.333416        -9.0727
  65   2.0000      -0.326443        -8.8830
  66   2.0000      -0.297663        -8.0998
  67   0.0000       0.033613         0.9147
  68   0.0000       0.079100         2.1524
  69   0.0000       0.111904         3.0451
  70   0.0000       0.122564         3.3351
  71   0.0000       0.132176         3.5967

MULLIKEN ATOMIC CHARGES
-----------------------
   0 S :    0.121485
   1 C :   -0.140900
   2 C :   -0.084252
   3 C :    0.018688
   4 C :   -0.150380
   5 H :    0.034711
   6 C :    0.079608
   7 H :    0.010308
   8 H :    0.021505
   9 C :   -0.116602
  10 H :    0.031841
  11 H :    0.031032
  12 C :   -0.019338
  13 H :    0.018902
  14 H :    0.027934
  15 H :    0.042460
  16 S :    0.109012
  17 C :   -0.101716
  18 C :   -0.030728
  19 C :   -0.063574
  20 C :   -0.140460
  21 H :    0.010445
  22 C :    0.098291
  23 H :    0.031745
  24 H :    0.007176
  25 C :   -0.063840
  26 H :    0.012825
  27 H :    0.008522
  28 C :   -0.048125
  29 H :    0.048281
  30 H :    0.023823
  31 H :    0.032367
  32 H :    0.072801
  33 H :    0.066152
Sum of atomic charges:    0.0000000

LOEWDIN ATOMIC CHARGES
----------------------
   0 S :    0.435173
   1 C :   -0.226241
   2 C :   -0.070763
   3 C :   -0.056005
   4 C :   -0.195970
   5 H :    0.035803
   6 C :   -0.025271
   7 H :    0.019841
   8 H :    0.032871
   9 C :   -0.047257
  10 H :    0.023987
  11 H :    0.028107
  12 C :   -0.062856
  13 H :    0.017469
  14 H :    0.026961
  15 H :    0.030000
  16 S :    0.434202
  17 C :   -0.202066
  18 C :   -0.069557
  19 C :   -0.062909
  20 C :   -0.217364
  21 H :    0.026905
  22 C :   -0.023588
  23 H :    0.034116
  24 H :    0.026014
  25 C :   -0.043873
  26 H :    0.018581
  27 H :    0.019135
  28 C :   -0.064575
  29 H :    0.034332
  30 H :    0.021183
  31 H :    0.024060
  32 H :    0.043493
  33 H :    0.036063

  Mayer bond orders larger than 0.100000
B(  0-S ,  1-C ) :   1.1358 B(  0-S ,  4-C ) :   1.1876 B(  1-C ,  2-C ) :   1.6170
B(  1-C , 32-H ) :   0.9563 B(  2-C ,  3-C ) :   1.2568 B(  2-C ,  6-C ) :   1.0245
B(  3-C ,  4-C ) :   1.5398 B(  3-C ,  5-H ) :   0.9933 B(  4-C , 20-C ) :   0.9840
B(  6-C ,  7-H ) :   0.9434 B(  6-C ,  8-H ) :   0.9441 B(  6-C ,  9-C ) :   1.0535
B(  9-C , 10-H ) :   0.9587 B(  9-C , 11-H ) :   0.9617 B(  9-C , 12-C ) :   1.0776
B( 12-C , 13-H ) :   0.9748 B( 12-C , 14-H ) :   0.9708 B( 12-C , 15-H ) :   0.9707
B( 16-S , 17-C ) :   1.1629 B( 16-S , 20-C ) :   1.1798 B( 17-C , 18-C ) :   1.5782
B( 17-C , 33-H ) :   0.9682 B( 18-C , 19-C ) :   1.2769 B( 18-C , 21-H ) :   0.9902
B( 19-C , 20-C ) :   1.5695 B( 19-C , 22-C ) :   1.0330 B( 22-C , 23-H ) :   0.9334
B( 22-C , 24-H ) :   0.9384 B( 22-C , 25-C ) :   1.0565 B( 25-C , 26-H ) :   0.9552
B( 25-C , 27-H ) :   0.9478 B( 25-C , 28-C ) :   1.0832 B( 28-C , 29-H ) :   0.9732
B( 28-C , 30-H ) :   0.9745 B( 28-C , 31-H ) :   0.9759

Dispersion correction           -0.015085096
FINAL SINGLE POINT ENERGY     -1339.877796302194

DIPOLE MOMENT
-------------
                                X             Y             Z
Electronic contribution:      9.38944      -8.62937     -29.00143
Nuclear contribution   :     -9.74426       8.75360      29.43032
                        -----------------------------------------
Total Dipole Moment    :     -0.35482       0.12424       0.42889
                        -----------------------------------------
Magnitude (a.u.)       :      0.57033
Magnitude (Debye)      :      1.44966

Rotational constants in cm-1:     0.018153     0.010142     0.007061
Rotational constants in MHz :   544.221790   304.059349   211.695800

                             ****ORCA TERMINATED NORMALLY****
TOTAL RUN TIME: 0 days 0 hours 0 minutes 35 seconds 698 msec
