                         Program Version 4.2.1 -  RELEASE  -
|  1> ! wB97X-D3 SP def2-SVP
|  2> %pal
|  3> nprocs 16
|  4> end
|  5>
|  6> * xyz 0 1
|  7> S 	 -3.53323 	 -21.2034 	 83.267
|  8> C 	 -1.82405 	 -20.9855 	 82.7407
|  9> C 	 -0.919044 	 -21.1292 	 83.7914
| 10> C 	 -1.62217 	 -21.1638 	 85.0325
| 11> C 	 -3.02685 	 -21.2969 	 84.9292
| 12> H 	 -1.20377 	 -21.169 	 86.0412
| 13> C 	 0.544109 	 -21.0825 	 83.6343
| 14> H 	 0.770879 	 -19.9881 	 83.447
| 15> H 	 0.764674 	 -21.6718 	 82.7412
| 16> C 	 1.47558 	 -21.5571 	 84.8766
| 17> H 	 2.5175 	 -21.3604 	 84.6348
| 18> H 	 1.17915 	 -20.8541 	 85.6379
| 19> C 	 1.45821 	 -23.0482 	 85.3451
| 20> H 	 1.72342 	 -23.7162 	 84.5323
| 21> H 	 2.0895 	 -23.1181 	 86.164
| 22> H 	 0.370477 	 -23.331 	 85.5744
| 23> S 	 -4.53391 	 -23.2671 	 85.952
| 24> C 	 -5.25579 	 -22.9759 	 87.5006
| 25> C 	 -4.98821 	 -21.7559 	 88.0836
| 26> C 	 -4.2823 	 -20.9487 	 87.1734
| 27> C 	 -3.94211 	 -21.6418 	 85.9758
| 28> H 	 -5.24303 	 -21.5434 	 89.0969
| 29> C 	 -3.87568 	 -19.5306 	 87.5394
| 30> H 	 -4.67152 	 -18.8994 	 87.1647
| 31> H 	 -3.00013 	 -19.359 	 86.894
| 32> C 	 -3.381 	 -19.3012 	 88.9928
| 33> H 	 -2.44753 	 -19.8466 	 89.0924
| 34> H 	 -4.07325 	 -19.7468 	 89.7015
| 35> C 	 -3.03544 	 -17.7946 	 89.3494
| 36> H 	 -2.2093 	 -17.3612 	 88.7585
| 37> H 	 -2.95869 	 -17.59 	 90.4281
| 38> H 	 -3.91143 	 -17.1288 	 89.0189
| 39> H 	 -1.44307 	 -21.1717 	 81.7305
| 40> H 	 -5.63777 	 -23.6804 	 88.193
| 41> *
| 42>
| 43>                          ****END OF INPUT****

CARTESIAN COORDINATES (ANGSTROEM)
---------------------------------
  S     -3.533230  -21.203400   83.267000
  C     -1.824050  -20.985500   82.740700
  C     -0.919044  -21.129200   83.791400
  C     -1.622170  -21.163800   85.032500
  C     -3.026850  -21.296900   84.929200
  H     -1.203770  -21.169000   86.041200
  C      0.544109  -21.082500   83.634300
  H      0.770879  -19.988100   83.447000
  H      0.764674  -21.671800   82.741200
  C      1.475580  -21.557100   84.876600
  H      2.517500  -21.360400   84.634800
  H      1.179150  -20.854100   85.637900
  C      1.458210  -23.048200   85.345100
  H      1.723420  -23.716200   84.532300
  H      2.089500  -23.118100   86.164000
  H      0.370477  -23.331000   85.574400
  S     -4.533910  -23.267100   85.952000
  C     -5.255790  -22.975900   87.500600
  C     -4.988210  -21.755900   88.083600
  C     -4.282300  -20.948700   87.173400
  C     -3.942110  -21.641800   85.975800
  H     -5.243030  -21.543400   89.096900
  C     -3.875680  -19.530600   87.539400
  H     -4.671520  -18.899400   87.164700
  H     -3.000130  -19.359000   86.894000
  C     -3.381000  -19.301200   88.992800
  H     -2.447530  -19.846600   89.092400
  H     -4.073250  -19.746800   89.701500
  C     -3.035440  -17.794600   89.349400
  H     -2.209300  -17.361200   88.758500
  H     -2.958690  -17.590000   90.428100
  H     -3.911430  -17.128800   89.018900
  H     -1.443070  -21.171700   81.730500
  H     -5.637770  -23.680400   88.193000

 Total Charge           Charge          ....    0
 Multiplicity           Mult            ....    1
 Number of Electrons    NEL             ....  134
 Basis Dimension        Dim             ....  322

ORBITAL ENERGIES
----------------

  NO   OCC          E(Eh)            E(eV)
   0   2.0000     -88.972529     -2421.0656
   1   2.0000     -88.967063     -2420.9168
   2   2.0000     -10.327838      -281.0348
   3   2.0000     -10.322354      -280.8855
   4   2.0000     -10.312294      -280.6118
   5   2.0000     -10.310102      -280.5521
   6   2.0000     -10.304130      -280.3896
   7   2.0000     -10.301772      -280.3255
   8   2.0000     -10.300896      -280.3016
   9   2.0000     -10.295362      -280.1510
  10   2.0000     -10.295114      -280.1443
  11   2.0000     -10.295097      -280.1438
  12   2.0000     -10.291294      -280.0403
  13   2.0000     -10.290226      -280.0113
  14   2.0000     -10.288430      -279.9624
  15   2.0000     -10.281755      -279.7808
  16   2.0000      -8.087468      -220.0712
  17   2.0000      -8.080907      -219.8927
  18   2.0000      -6.045792      -164.5144
  19   2.0000      -6.042046      -164.4124
  20   2.0000      -6.039433      -164.3413
  21   2.0000      -6.038312      -164.3108
  22   2.0000      -6.035529      -164.2351
  23   2.0000      -6.031715      -164.1313
  24   2.0000      -1.007335       -27.4110
  25   2.0000      -0.980220       -26.6732
  26   2.0000      -0.907599       -24.6970
  27   2.0000      -0.903570       -24.5874
  28   2.0000      -0.869002       -23.6468
  29   2.0000      -0.848842       -23.0982
  30   2.0000      -0.843365       -22.9491
  31   2.0000      -0.812143       -22.0995
  32   2.0000      -0.784267       -21.3410
  33   2.0000      -0.766821       -20.8663
  34   2.0000      -0.713935       -19.4272
  35   2.0000      -0.703467       -19.1423
  36   2.0000      -0.692525       -18.8446
  37   2.0000      -0.656817       -17.8729
  38   2.0000      -0.633579       -17.2406
  39   2.0000      -0.616086       -16.7645
  40   2.0000      -0.591150       -16.0860
  41   2.0000      -0.564619       -15.3641
  42   2.0000      -0.560585       -15.2543
  43   2.0000      -0.550826       -14.9887
  44   2.0000      -0.537124       -14.6159
  45   2.0000      -0.521239       -14.1836
  46   2.0000      -0.519432       -14.1344
  47   2.0000      -0.512656       -13.9501
  48   2.0000      -0.505188       -13.7469
  49   2.0000      -0.489226       -13.3125
  50   2.0000      -0.488172       -13.2838
  51   2.0000      -0.481545       -13.1035
  52   2.0000      -0.472754       -12.8643
  53   2.0000      -0.464780       -12.6473
  54   2.0000      -0.459842       -12.5129
  55   2.0000      -0.454704       -12.3731
  56   2.0000      -0.445930       -12.1344
  57   2.0000      -0.436577       -11.8799
  58   2.0000      -0.427657       -11.6371
  59   2.0000      -0.422752       -11.5037
  60   2.0000      -0.420709       -11.4481
  61   2.0000      -0.419714       -11.4210
  62   2.0000      -0.414841       -11.2884
  63   2.0000      -0.342087        -9.3086
  64   2.0000      -0.328451        -8.9376
  65   2.0000      -0.324789        -8.8380
  66   2.0000      -0.291798        -7.9402
  67   0.0000       0.031386         0.8541
  68   0.0000       0.055221         1.5026
  69   0.0000       0.113507         3.0887
  70   0.0000       0.118029         3.2117
  71   0.0000       0.124244         3.3809

MULLIKEN ATOMIC CHARGES
-----------------------
   0 S :    0.111424
   1 C :   -0.116625
   2 C :   -0.104907
   3 C :    0.047701
   4 C :   -0.201936
   5 H :    0.015056
   6 C :    0.018695
   7 H :    0.065648
   8 H :    0.030295
   9 C :   -0.097062
  10 H :    0.031856
  11 H :    0.031608
  12 C :   -0.037487
  13 H :    0.036014
  14 H :    0.035744
  15 H :    0.043923
  16 S :    0.145681
  17 C :   -0.054015
  18 C :   -0.066422
  19 C :   -0.039407
  20 C :   -0.175807
  21 H :    0.014697
  22 C :    0.091908
  23 H :    0.044340
  24 H :    0.020151
  25 C :   -0.085579
  26 H :    0.033567
  27 H :    0.032686
  28 C :   -0.077869
  29 H :    0.042631
  30 H :    0.046761
  31 H :    0.029905
  32 H :    0.051821
  33 H :    0.035003
Sum of atomic charges:    0.0000000

LOEWDIN ATOMIC CHARGES
----------------------
   0 S :    0.396891
   1 C :   -0.202852
   2 C :   -0.063358
   3 C :   -0.067524
   4 C :   -0.204809
   5 H :    0.029564
   6 C :   -0.037775
   7 H :    0.050716
   8 H :    0.030077
   9 C :   -0.038966
  10 H :    0.025053
  11 H :    0.019512
  12 C :   -0.061325
  13 H :    0.026515
  14 H :    0.018753
  15 H :    0.034820
  16 S :    0.441002
  17 C :   -0.187976
  18 C :   -0.068401
  19 C :   -0.045989
  20 C :   -0.224815
  21 H :    0.029188
  22 C :   -0.035076
  23 H :    0.034584
  24 H :    0.032616
  25 C :   -0.038116
  26 H :    0.026624
  27 H :    0.018770
  28 C :   -0.076296
  29 H :    0.028497
  30 H :    0.029419
  31 H :    0.030644
  32 H :    0.028417
  33 H :    0.021618

  Mayer bond orders larger than 0.100000
B(  0-S ,  1-C ) :   1.1237 B(  0-S ,  4-C ) :   1.1645 B(  1-C ,  2-C ) :   1.6176
B(  1-C ,  4-C ) :   0.1072 B(  1-C , 32-H ) :   0.9596 B(  2-C ,  3-C ) :   1.2453
B(  2-C ,  6-C ) :   1.0144 B(  3-C ,  4-C ) :   1.5565 B(  3-C ,  5-H ) :   0.9823
B(  4-C , 20-C ) :   1.0404 B(  6-C ,  7-H ) :   0.9397 B(  6-C ,  8-H ) :   0.9391
B(  6-C ,  9-C ) :   1.0698 B(  9-C , 10-H ) :   0.9587 B(  9-C , 11-H ) :   0.9524
B(  9-C , 12-C ) :   1.0717 B( 12-C , 13-H ) :   0.9748 B( 12-C , 14-H ) :   0.9748
B( 12-C , 15-H ) :   0.9754 B( 16-S , 17-C ) :   1.1683 B( 16-S , 20-C ) :   1.1600
B( 17-C , 18-C ) :   1.6130 B( 17-C , 33-H ) :   0.9586 B( 18-C , 19-C ) :   1.2643
B( 18-C , 21-H ) :   0.9912 B( 19-C , 20-C ) :   1.5603 B( 19-C , 22-C ) :   1.0292
B( 22-C , 23-H ) :   0.9297 B( 22-C , 24-H ) :   0.9317 B( 22-C , 25-C ) :   1.0574
B( 25-C , 26-H ) :   0.9583 B( 25-C , 27-H ) :   0.9577 B( 25-C , 28-C ) :   1.0719
B( 28-C , 29-H ) :   0.9765 B( 28-C , 30-H ) :   0.9765 B( 28-C , 31-H ) :   0.9765

Dispersion correction           -0.014089687
FINAL SINGLE POINT ENERGY     -1339.858044991952

DIPOLE MOMENT
-------------
                                X             Y             Z
Electronic contribution:    -19.56169     -11.13628     -14.22722
Nuclear contribution   :     20.15393      11.19195      14.73896
                        -----------------------------------------
Total Dipole Moment    :      0.59224       0.05567       0.51175
                        -----------------------------------------
Magnitude (a.u.)       :      0.78468
Magnitude (Debye)      :      1.99451

Rotational constants in cm-1:     0.015407     0.008990     0.007434
Rotational constants in MHz :   461.901353   269.519317   222.867381

                             ****ORCA TERMINATED NORMALLY****
TOTAL RUN TIME: 0 days 0 hours 0 minutes 33 seconds 542 msec
