                         Program Version 4.2.1 -  RELEASE  -
|  1> ! wB97X-D3 SP def2-SVP
|  2> %pal
|  3> nprocs 16
|  4> end
|  5>
|  6> * xyz 0 1
|  7> S 	 -95.5538 	 48.7202 	 122.682
|  8> C 	 -94.2974 	 47.7532 	 123.428
|  9> C 	 -94.7379 	 47.1846 	 124.575
| 10> C 	 -96.1468 	 47.3271 	 124.842
| 11> C 	 -96.7488 	 48.0872 	 123.851
| 12> H 	 -96.6915 	 46.9208 	 125.718
| 13> C 	 -93.9163 	 46.1936 	 125.445
| 14> H 	 -94.3854 	 46.1679 	 126.475
| 15> H 	 -92.995 	 46.7459 	 125.539
| 16> C 	 -93.6763 	 44.7633 	 124.953
| 17> H 	 -92.9393 	 44.7791 	 124.107
| 18> H 	 -93.1696 	 44.1214 	 125.669
| 19> C 	 -94.9307 	 44.013 	 124.469
| 20> H 	 -95.2587 	 44.5047 	 123.505
| 21> H 	 -94.5562 	 43.0308 	 124.173
| 22> H 	 -95.788 	 43.9673 	 125.093
| 23> S 	 -98.5203 	 50.1659 	 122.966
| 24> C 	 -100.198 	 49.8476 	 123.256
| 25> C 	 -100.405 	 48.6477 	 123.917
| 26> C 	 -99.2613 	 47.8987 	 124.162
| 27> C 	 -98.125 	 48.5699 	 123.75
| 28> H 	 -101.462 	 48.2903 	 124.147
| 29> C 	 -99.2177 	 46.5636 	 124.751
| 30> H 	 -98.7953 	 46.5801 	 125.77
| 31> H 	 -98.4206 	 46.1485 	 124.178
| 32> C 	 -100.505 	 45.6786 	 124.602
| 33> H 	 -100.713 	 45.6181 	 123.536
| 34> H 	 -101.321 	 46.1836 	 125.085
| 35> C 	 -100.425 	 44.2946 	 125.258
| 36> H 	 -100.847 	 44.28 	 126.291
| 37> H 	 -99.4389 	 43.8339 	 125.096
| 38> H 	 -101.07 	 43.622 	 124.716
| 39> H 	 -93.3138 	 47.651 	 122.898
| 40> H 	 -100.933 	 50.6118 	 122.992
| 41> *
| 42>
| 43>                          ****END OF INPUT****

CARTESIAN COORDINATES (ANGSTROEM)
---------------------------------
  S    -95.553800   48.720200  122.682000
  C    -94.297400   47.753200  123.428000
  C    -94.737900   47.184600  124.575000
  C    -96.146800   47.327100  124.842000
  C    -96.748800   48.087200  123.851000
  H    -96.691500   46.920800  125.718000
  C    -93.916300   46.193600  125.445000
  H    -94.385400   46.167900  126.475000
  H    -92.995000   46.745900  125.539000
  C    -93.676300   44.763300  124.953000
  H    -92.939300   44.779100  124.107000
  H    -93.169600   44.121400  125.669000
  C    -94.930700   44.013000  124.469000
  H    -95.258700   44.504700  123.505000
  H    -94.556200   43.030800  124.173000
  H    -95.788000   43.967300  125.093000
  S    -98.520300   50.165900  122.966000
  C    -100.198000   49.847600  123.256000
  C    -100.405000   48.647700  123.917000
  C    -99.261300   47.898700  124.162000
  C    -98.125000   48.569900  123.750000
  H    -101.462000   48.290300  124.147000
  C    -99.217700   46.563600  124.751000
  H    -98.795300   46.580100  125.770000
  H    -98.420600   46.148500  124.178000
  C    -100.505000   45.678600  124.602000
  H    -100.713000   45.618100  123.536000
  H    -101.321000   46.183600  125.085000
  C    -100.425000   44.294600  125.258000
  H    -100.847000   44.280000  126.291000
  H    -99.438900   43.833900  125.096000
  H    -101.070000   43.622000  124.716000
  H    -93.313800   47.651000  122.898000
  H    -100.933000   50.611800  122.992000

 Total Charge           Charge          ....    0
 Multiplicity           Mult            ....    1
 Number of Electrons    NEL             ....  134
 Basis Dimension        Dim             ....  322

ORBITAL ENERGIES
----------------

  NO   OCC          E(Eh)            E(eV)
   0   2.0000     -88.967565     -2420.9305
   1   2.0000     -88.962954     -2420.8051
   2   2.0000     -10.333916      -281.2001
   3   2.0000     -10.326364      -280.9947
   4   2.0000     -10.318220      -280.7730
   5   2.0000     -10.316511      -280.7265
   6   2.0000     -10.301902      -280.3290
   7   2.0000     -10.299914      -280.2749
   8   2.0000     -10.296050      -280.1698
   9   2.0000     -10.295102      -280.1440
  10   2.0000     -10.294050      -280.1153
  11   2.0000     -10.291239      -280.0389
  12   2.0000     -10.289759      -279.9986
  13   2.0000     -10.288210      -279.9564
  14   2.0000     -10.283007      -279.8149
  15   2.0000     -10.276860      -279.6476
  16   2.0000      -8.081552      -219.9102
  17   2.0000      -8.077584      -219.8022
  18   2.0000      -6.040027      -164.3575
  19   2.0000      -6.036296      -164.2560
  20   2.0000      -6.036220      -164.2539
  21   2.0000      -6.032285      -164.1468
  22   2.0000      -6.032222      -164.1451
  23   2.0000      -6.028122      -164.0335
  24   2.0000      -1.004856       -27.3435
  25   2.0000      -0.983159       -26.7531
  26   2.0000      -0.913087       -24.8464
  27   2.0000      -0.904514       -24.6131
  28   2.0000      -0.868939       -23.6450
  29   2.0000      -0.856092       -23.2955
  30   2.0000      -0.842902       -22.9365
  31   2.0000      -0.810472       -22.0541
  32   2.0000      -0.787026       -21.4161
  33   2.0000      -0.770124       -20.9562
  34   2.0000      -0.711284       -19.3550
  35   2.0000      -0.698926       -19.0188
  36   2.0000      -0.696796       -18.9608
  37   2.0000      -0.650486       -17.7006
  38   2.0000      -0.634895       -17.2764
  39   2.0000      -0.614541       -16.7225
  40   2.0000      -0.596021       -16.2186
  41   2.0000      -0.574209       -15.6250
  42   2.0000      -0.562410       -15.3040
  43   2.0000      -0.550977       -14.9928
  44   2.0000      -0.539018       -14.6674
  45   2.0000      -0.527554       -14.3555
  46   2.0000      -0.520351       -14.1595
  47   2.0000      -0.511272       -13.9124
  48   2.0000      -0.500593       -13.6218
  49   2.0000      -0.495132       -13.4732
  50   2.0000      -0.485385       -13.2080
  51   2.0000      -0.482183       -13.1209
  52   2.0000      -0.471537       -12.8312
  53   2.0000      -0.463523       -12.6131
  54   2.0000      -0.460184       -12.5223
  55   2.0000      -0.451800       -12.2941
  56   2.0000      -0.440886       -11.9971
  57   2.0000      -0.437001       -11.8914
  58   2.0000      -0.431926       -11.7533
  59   2.0000      -0.426119       -11.5953
  60   2.0000      -0.419675       -11.4199
  61   2.0000      -0.418204       -11.3799
  62   2.0000      -0.404573       -11.0090
  63   2.0000      -0.356837        -9.7100
  64   2.0000      -0.335451        -9.1281
  65   2.0000      -0.331247        -9.0137
  66   2.0000      -0.280849        -7.6423
  67   0.0000       0.019604         0.5334
  68   0.0000       0.073028         1.9872
  69   0.0000       0.098540         2.6814
  70   0.0000       0.125524         3.4157
  71   0.0000       0.128540         3.4978

MULLIKEN ATOMIC CHARGES
-----------------------
   0 S :    0.082756
   1 C :   -0.154582
   2 C :   -0.072368
   3 C :   -0.014335
   4 C :   -0.147143
   5 H :    0.027539
   6 C :    0.056706
   7 H :    0.030373
   8 H :    0.027515
   9 C :   -0.066643
  10 H :    0.023754
  11 H :    0.029881
  12 C :   -0.057517
  13 H :    0.043945
  14 H :    0.030262
  15 H :    0.031314
  16 S :    0.104024
  17 C :   -0.105009
  18 C :   -0.053838
  19 C :   -0.052350
  20 C :   -0.124611
  21 H :    0.037685
  22 C :    0.048802
  23 H :    0.046699
  24 H :    0.029380
  25 C :   -0.073982
  26 H :    0.036884
  27 H :    0.029500
  28 C :   -0.036353
  29 H :    0.047886
  30 H :    0.033795
  31 H :    0.020887
  32 H :    0.073443
  33 H :    0.065704
Sum of atomic charges:   -0.0000000

LOEWDIN ATOMIC CHARGES
----------------------
   0 S :    0.377440
   1 C :   -0.199097
   2 C :   -0.067759
   3 C :   -0.071000
   4 C :   -0.166197
   5 H :    0.038659
   6 C :   -0.036753
   7 H :    0.033314
   8 H :    0.029349
   9 C :   -0.044710
  10 H :    0.027330
  11 H :    0.023601
  12 C :   -0.067382
  13 H :    0.033827
  14 H :    0.027673
  15 H :    0.015848
  16 S :    0.382429
  17 C :   -0.188091
  18 C :   -0.081523
  19 C :   -0.059978
  20 C :   -0.180967
  21 H :    0.041809
  22 C :   -0.038281
  23 H :    0.033147
  24 H :    0.034343
  25 C :   -0.035233
  26 H :    0.027783
  27 H :    0.020362
  28 C :   -0.070155
  29 H :    0.034076
  30 H :    0.028199
  31 H :    0.026361
  32 H :    0.040412
  33 H :    0.031165

  Mayer bond orders larger than 0.100000
B(  0-S ,  1-C ) :   1.1195 B(  0-S ,  4-C ) :   1.1372 B(  1-C ,  2-C ) :   1.6360
B(  1-C , 32-H ) :   0.9674 B(  2-C ,  3-C ) :   1.2097 B(  2-C ,  6-C ) :   1.0091
B(  3-C ,  4-C ) :   1.5623 B(  3-C ,  5-H ) :   0.9865 B(  4-C , 20-C ) :   1.0882
B(  6-C ,  7-H ) :   0.9440 B(  6-C ,  8-H ) :   0.9405 B(  6-C ,  9-C ) :   1.0724
B(  9-C , 10-H ) :   0.9529 B(  9-C , 11-H ) :   0.9576 B(  9-C , 12-C ) :   1.0782
B( 12-C , 13-H ) :   0.9709 B( 12-C , 14-H ) :   0.9727 B( 12-C , 15-H ) :   0.9794
B( 16-S , 17-C ) :   1.1620 B( 16-S , 20-C ) :   1.1214 B( 17-C , 18-C ) :   1.5790
B( 17-C , 20-C ) :   0.1040 B( 17-C , 33-H ) :   0.9653 B( 18-C , 19-C ) :   1.2722
B( 18-C , 21-H ) :   0.9772 B( 19-C , 20-C ) :   1.5802 B( 19-C , 22-C ) :   1.0451
B( 22-C , 23-H ) :   0.9173 B( 22-C , 24-H ) :   0.9120 B( 22-C , 25-C ) :   1.0680
B( 25-C , 26-H ) :   0.9591 B( 25-C , 27-H ) :   0.9499 B( 25-C , 28-C ) :   1.0881
B( 28-C , 29-H ) :   0.9750 B( 28-C , 30-H ) :   0.9734 B( 28-C , 31-H ) :   0.9707

Dispersion correction           -0.014504183
FINAL SINGLE POINT ENERGY     -1339.879492382066

DIPOLE MOMENT
-------------
                                X             Y             Z
Electronic contribution:      1.28631      29.05046     -11.90297
Nuclear contribution   :     -1.44037     -29.68884      12.19582
                        -----------------------------------------
Total Dipole Moment    :     -0.15406      -0.63838       0.29285
                        -----------------------------------------
Magnitude (a.u.)       :      0.71905
Magnitude (Debye)      :      1.82767

Rotational constants in cm-1:     0.016606     0.010191     0.006650
Rotational constants in MHz :   497.826176   305.508336   199.370803

                             ****ORCA TERMINATED NORMALLY****
TOTAL RUN TIME: 0 days 0 hours 0 minutes 32 seconds 633 msec
