                         Program Version 4.2.1 -  RELEASE  -
|  1> ! wB97X-D3 SP def2-SVP
|  2> %pal
|  3> nprocs 16
|  4> end
|  5>
|  6> * xyz 0 1
|  7> S 	 -49.1005 	 48.344 	 104.49
|  8> C 	 -48.5464 	 49.79 	 105.279
|  9> C 	 -47.2216 	 49.9028 	 105.513
| 10> C 	 -46.6173 	 48.6478 	 105.295
| 11> C 	 -47.4685 	 47.7286 	 104.675
| 12> H 	 -45.5979 	 48.3648 	 105.514
| 13> C 	 -46.6008 	 51.0853 	 106.171
| 14> H 	 -47.2992 	 51.6486 	 106.825
| 15> H 	 -46.3259 	 51.7748 	 105.398
| 16> C 	 -45.3161 	 50.7726 	 106.926
| 17> H 	 -45.472 	 49.9016 	 107.534
| 18> H 	 -44.4552 	 50.5925 	 106.253
| 19> C 	 -44.849 	 51.8549 	 107.913
| 20> H 	 -44.3468 	 52.6497 	 107.314
| 21> H 	 -45.585 	 52.4037 	 108.458
| 22> H 	 -44.0439 	 51.5023 	 108.579
| 23> S 	 -47.4795 	 45.8891 	 102.585
| 24> C 	 -46.7038 	 44.3306 	 102.756
| 25> C 	 -46.1701 	 44.2493 	 104.021
| 26> C 	 -46.4163 	 45.4179 	 104.866
| 27> C 	 -47.1603 	 46.3879 	 104.25
| 28> H 	 -45.6561 	 43.3461 	 104.35
| 29> C 	 -45.9868 	 45.4862 	 106.25
| 30> H 	 -45.4851 	 46.4595 	 106.501
| 31> H 	 -45.2206 	 44.7197 	 106.351
| 32> C 	 -47.1298 	 45.4409 	 107.308
| 33> H 	 -47.5629 	 44.4526 	 107.2
| 34> H 	 -47.8878 	 46.2511 	 107.154
| 35> C 	 -46.6639 	 45.7268 	 108.736
| 36> H 	 -47.4233 	 45.5256 	 109.444
| 37> H 	 -46.4173 	 46.8217 	 108.824
| 38> H 	 -45.8599 	 45.126 	 108.998
| 39> H 	 -49.298 	 50.5464 	 105.475
| 40> H 	 -46.5621 	 43.5235 	 102.065
| 41> *
| 42>
| 43>                          ****END OF INPUT****

CARTESIAN COORDINATES (ANGSTROEM)
---------------------------------
  S    -49.100500   48.344000  104.490000
  C    -48.546400   49.790000  105.279000
  C    -47.221600   49.902800  105.513000
  C    -46.617300   48.647800  105.295000
  C    -47.468500   47.728600  104.675000
  H    -45.597900   48.364800  105.514000
  C    -46.600800   51.085300  106.171000
  H    -47.299200   51.648600  106.825000
  H    -46.325900   51.774800  105.398000
  C    -45.316100   50.772600  106.926000
  H    -45.472000   49.901600  107.534000
  H    -44.455200   50.592500  106.253000
  C    -44.849000   51.854900  107.913000
  H    -44.346800   52.649700  107.314000
  H    -45.585000   52.403700  108.458000
  H    -44.043900   51.502300  108.579000
  S    -47.479500   45.889100  102.585000
  C    -46.703800   44.330600  102.756000
  C    -46.170100   44.249300  104.021000
  C    -46.416300   45.417900  104.866000
  C    -47.160300   46.387900  104.250000
  H    -45.656100   43.346100  104.350000
  C    -45.986800   45.486200  106.250000
  H    -45.485100   46.459500  106.501000
  H    -45.220600   44.719700  106.351000
  C    -47.129800   45.440900  107.308000
  H    -47.562900   44.452600  107.200000
  H    -47.887800   46.251100  107.154000
  C    -46.663900   45.726800  108.736000
  H    -47.423300   45.525600  109.444000
  H    -46.417300   46.821700  108.824000
  H    -45.859900   45.126000  108.998000
  H    -49.298000   50.546400  105.475000
  H    -46.562100   43.523500  102.065000

 Total Charge           Charge          ....    0
 Multiplicity           Mult            ....    1
 Number of Electrons    NEL             ....  134
 Basis Dimension        Dim             ....  322

ORBITAL ENERGIES
----------------

  NO   OCC          E(Eh)            E(eV)
   0   2.0000     -88.968188     -2420.9475
   1   2.0000     -88.960972     -2420.7511
   2   2.0000     -10.328413      -281.0504
   3   2.0000     -10.320320      -280.8302
   4   2.0000     -10.315279      -280.6930
   5   2.0000     -10.309237      -280.5286
   6   2.0000     -10.298466      -280.2355
   7   2.0000     -10.297034      -280.1965
   8   2.0000     -10.294688      -280.1327
   9   2.0000     -10.294340      -280.1232
  10   2.0000     -10.293398      -280.0976
  11   2.0000     -10.289529      -279.9923
  12   2.0000     -10.286561      -279.9115
  13   2.0000     -10.283980      -279.8413
  14   2.0000     -10.281497      -279.7738
  15   2.0000     -10.269315      -279.4423
  16   2.0000      -8.083333      -219.9587
  17   2.0000      -8.075477      -219.7449
  18   2.0000      -6.041566      -164.3994
  19   2.0000      -6.037977      -164.3017
  20   2.0000      -6.034218      -164.1994
  21   2.0000      -6.034170      -164.1981
  22   2.0000      -6.029890      -164.0817
  23   2.0000      -6.026119      -163.9790
  24   2.0000      -1.010208       -27.4892
  25   2.0000      -0.986054       -26.8319
  26   2.0000      -0.919030       -25.0081
  27   2.0000      -0.908500       -24.7215
  28   2.0000      -0.872817       -23.7505
  29   2.0000      -0.855515       -23.2797
  30   2.0000      -0.846738       -23.0409
  31   2.0000      -0.817207       -22.2373
  32   2.0000      -0.785313       -21.3694
  33   2.0000      -0.769870       -20.9492
  34   2.0000      -0.716031       -19.4842
  35   2.0000      -0.696184       -18.9441
  36   2.0000      -0.686383       -18.6774
  37   2.0000      -0.662448       -18.0261
  38   2.0000      -0.644793       -17.5457
  39   2.0000      -0.626146       -17.0383
  40   2.0000      -0.592173       -16.1138
  41   2.0000      -0.577761       -15.7217
  42   2.0000      -0.567638       -15.4462
  43   2.0000      -0.565653       -15.3922
  44   2.0000      -0.529225       -14.4009
  45   2.0000      -0.524457       -14.2712
  46   2.0000      -0.516804       -14.0630
  47   2.0000      -0.511973       -13.9315
  48   2.0000      -0.504548       -13.7294
  49   2.0000      -0.500447       -13.6179
  50   2.0000      -0.488544       -13.2940
  51   2.0000      -0.482702       -13.1350
  52   2.0000      -0.475702       -12.9445
  53   2.0000      -0.470373       -12.7995
  54   2.0000      -0.456107       -12.4113
  55   2.0000      -0.448793       -12.2123
  56   2.0000      -0.442832       -12.0501
  57   2.0000      -0.437665       -11.9095
  58   2.0000      -0.436500       -11.8778
  59   2.0000      -0.428635       -11.6638
  60   2.0000      -0.419251       -11.4084
  61   2.0000      -0.416966       -11.3462
  62   2.0000      -0.410401       -11.1676
  63   2.0000      -0.347494        -9.4558
  64   2.0000      -0.337854        -9.1935
  65   2.0000      -0.322666        -8.7802
  66   2.0000      -0.288022        -7.8375
  67   0.0000       0.029847         0.8122
  68   0.0000       0.069960         1.9037
  69   0.0000       0.113611         3.0915
  70   0.0000       0.116225         3.1626
  71   0.0000       0.133858         3.6424

MULLIKEN ATOMIC CHARGES
-----------------------
   0 S :    0.123790
   1 C :   -0.151565
   2 C :   -0.032898
   3 C :   -0.001100
   4 C :   -0.165771
   5 H :    0.018049
   6 C :    0.099506
   7 H :    0.032261
   8 H :    0.030921
   9 C :   -0.119855
  10 H :    0.030954
  11 H :    0.043834
  12 C :   -0.046170
  13 H :    0.020620
  14 H :    0.028542
  15 H :    0.039488
  16 S :    0.094083
  17 C :   -0.072623
  18 C :   -0.047010
  19 C :   -0.035269
  20 C :   -0.120747
  21 H :    0.018233
  22 C :    0.050435
  23 H :    0.011081
  24 H :    0.013290
  25 C :   -0.089679
  26 H :    0.027863
  27 H :    0.050521
  28 C :   -0.016242
  29 H :    0.025233
  30 H :    0.035555
  31 H :    0.012030
  32 H :    0.042068
  33 H :    0.050573
Sum of atomic charges:    0.0000000

LOEWDIN ATOMIC CHARGES
----------------------
   0 S :    0.412390
   1 C :   -0.187727
   2 C :   -0.066051
   3 C :   -0.052742
   4 C :   -0.190832
   5 H :    0.030232
   6 C :   -0.029373
   7 H :    0.036249
   8 H :    0.035128
   9 C :   -0.044489
  10 H :    0.018882
  11 H :    0.030892
  12 C :   -0.068183
  13 H :    0.026556
  14 H :    0.018847
  15 H :    0.031187
  16 S :    0.393030
  17 C :   -0.187064
  18 C :   -0.072851
  19 C :   -0.065004
  20 C :   -0.195715
  21 H :    0.029956
  22 C :   -0.041305
  23 H :    0.030580
  24 H :    0.027856
  25 C :   -0.034843
  26 H :    0.020225
  27 H :    0.033858
  28 C :   -0.059739
  29 H :    0.023043
  30 H :    0.031121
  31 H :    0.012029
  32 H :    0.020686
  33 H :    0.033171

  Mayer bond orders larger than 0.100000
B(  0-S ,  1-C ) :   1.1483 B(  0-S ,  4-C ) :   1.1503 B(  1-C ,  2-C ) :   1.6201
B(  1-C ,  4-C ) :   0.1027 B(  1-C , 32-H ) :   0.9687 B(  2-C ,  3-C ) :   1.2414
B(  2-C ,  6-C ) :   1.0146 B(  3-C ,  4-C ) :   1.5639 B(  3-C ,  5-H ) :   0.9905
B(  4-C , 20-C ) :   1.0438 B(  6-C ,  7-H ) :   0.9491 B(  6-C ,  8-H ) :   0.9108
B(  6-C ,  9-C ) :   1.0841 B(  9-C , 10-H ) :   0.9610 B(  9-C , 11-H ) :   0.9444
B(  9-C , 12-C ) :   1.0840 B( 12-C , 13-H ) :   0.9738 B( 12-C , 14-H ) :   0.9766
B( 12-C , 15-H ) :   0.9740 B( 16-S , 17-C ) :   1.1421 B( 16-S , 20-C ) :   1.1202
B( 17-C , 18-C ) :   1.6225 B( 17-C , 33-H ) :   0.9679 B( 18-C , 19-C ) :   1.2291
B( 18-C , 21-H ) :   0.9850 B( 19-C , 20-C ) :   1.5987 B( 19-C , 22-C ) :   1.0821
B( 22-C , 23-H ) :   0.9234 B( 22-C , 24-H ) :   0.9246 B( 22-C , 25-C ) :   1.0538
B( 25-C , 26-H ) :   0.9555 B( 25-C , 27-H ) :   0.9573 B( 25-C , 28-C ) :   1.0879
B( 28-C , 29-H ) :   0.9716 B( 28-C , 30-H ) :   0.9719 B( 28-C , 31-H ) :   0.9736

Dispersion correction           -0.014642311
FINAL SINGLE POINT ENERGY     -1339.882138385047

DIPOLE MOMENT
-------------
                                X             Y             Z
Electronic contribution:    -14.55126      -9.23670     -25.83868
Nuclear contribution   :     14.96962       9.43964      26.40815
                        -----------------------------------------
Total Dipole Moment    :      0.41835       0.20294       0.56947
                        -----------------------------------------
Magnitude (a.u.)       :      0.73519
Magnitude (Debye)      :      1.86869

Rotational constants in cm-1:     0.018649     0.008948     0.007278
Rotational constants in MHz :   559.097863   268.251849   218.190750

                             ****ORCA TERMINATED NORMALLY****
TOTAL RUN TIME: 0 days 0 hours 0 minutes 31 seconds 824 msec
