                         Program Version 4.2.1 -  RELEASE  -
|  1> ! wB97X-D3 SP def2-SVP
|  2> %pal
|  3> nprocs 16
|  4> end
|  5>
|  6> * xyz 0 1
|  7> S 	 -109.016 	 43.2026 	 131.599
|  8> C 	 -108.493 	 42.7451 	 133.246
|  9> C 	 -109.238 	 43.3937 	 134.226
| 10> C 	 -110.341 	 44.163 	 133.626
| 11> C 	 -110.425 	 44.0599 	 132.278
| 12> H 	 -111.049 	 44.79 	 134.065
| 13> C 	 -109.158 	 43.3924 	 135.768
| 14> H 	 -109.439 	 44.4321 	 136.143
| 15> H 	 -108.11 	 43.2297 	 135.856
| 16> C 	 -109.929 	 42.3555 	 136.626
| 17> H 	 -109.55 	 42.5212 	 137.635
| 18> H 	 -110.975 	 42.5266 	 136.446
| 19> C 	 -109.626 	 40.8904 	 136.274
| 20> H 	 -109.944 	 40.1666 	 137.043
| 21> H 	 -110.086 	 40.6549 	 135.287
| 22> H 	 -108.537 	 40.7598 	 136.237
| 23> S 	 -110.939 	 45.4676 	 129.955
| 24> C 	 -112.542 	 46.185 	 129.688
| 25> C 	 -113.381 	 45.8124 	 130.722
| 26> C 	 -112.766 	 45.0207 	 131.75
| 27> C 	 -111.46 	 44.7211 	 131.454
| 28> H 	 -114.425 	 46.0805 	 130.657
| 29> C 	 -113.571 	 44.526 	 132.975
| 30> H 	 -113.261 	 45.1132 	 133.871
| 31> H 	 -113.35 	 43.4889 	 133.098
| 32> C 	 -115.061 	 44.5967 	 132.827
| 33> H 	 -115.536 	 44.1985 	 131.949
| 34> H 	 -115.238 	 45.6637 	 132.924
| 35> C 	 -115.798 	 43.9405 	 133.971
| 36> H 	 -116.875 	 44.2203 	 133.672
| 37> H 	 -115.703 	 44.5602 	 134.86
| 38> H 	 -115.61 	 42.8606 	 134.192
| 39> H 	 -107.539 	 42.2029 	 133.356
| 40> H 	 -112.768 	 46.7849 	 128.878
| 41> *
| 42>
| 43>                          ****END OF INPUT****

CARTESIAN COORDINATES (ANGSTROEM)
---------------------------------
  S    -109.016000   43.202600  131.599000
  C    -108.493000   42.745100  133.246000
  C    -109.238000   43.393700  134.226000
  C    -110.341000   44.163000  133.626000
  C    -110.425000   44.059900  132.278000
  H    -111.049000   44.790000  134.065000
  C    -109.158000   43.392400  135.768000
  H    -109.439000   44.432100  136.143000
  H    -108.110000   43.229700  135.856000
  C    -109.929000   42.355500  136.626000
  H    -109.550000   42.521200  137.635000
  H    -110.975000   42.526600  136.446000
  C    -109.626000   40.890400  136.274000
  H    -109.944000   40.166600  137.043000
  H    -110.086000   40.654900  135.287000
  H    -108.537000   40.759800  136.237000
  S    -110.939000   45.467600  129.955000
  C    -112.542000   46.185000  129.688000
  C    -113.381000   45.812400  130.722000
  C    -112.766000   45.020700  131.750000
  C    -111.460000   44.721100  131.454000
  H    -114.425000   46.080500  130.657000
  C    -113.571000   44.526000  132.975000
  H    -113.261000   45.113200  133.871000
  H    -113.350000   43.488900  133.098000
  C    -115.061000   44.596700  132.827000
  H    -115.536000   44.198500  131.949000
  H    -115.238000   45.663700  132.924000
  C    -115.798000   43.940500  133.971000
  H    -116.875000   44.220300  133.672000
  H    -115.703000   44.560200  134.860000
  H    -115.610000   42.860600  134.192000
  H    -107.539000   42.202900  133.356000
  H    -112.768000   46.784900  128.878000

 Total Charge           Charge          ....    0
 Multiplicity           Mult            ....    1
 Number of Electrons    NEL             ....  134
 Basis Dimension        Dim             ....  322

ORBITAL ENERGIES
----------------

  NO   OCC          E(Eh)            E(eV)
   0   2.0000     -88.964219     -2420.8395
   1   2.0000     -88.963087     -2420.8087
   2   2.0000     -10.329359      -281.0761
   3   2.0000     -10.327339      -281.0212
   4   2.0000     -10.323767      -280.9240
   5   2.0000     -10.315848      -280.7085
   6   2.0000     -10.311334      -280.5857
   7   2.0000     -10.304057      -280.3876
   8   2.0000     -10.298061      -280.2245
   9   2.0000     -10.295002      -280.1412
  10   2.0000     -10.293709      -280.1061
  11   2.0000     -10.289635      -279.9952
  12   2.0000     -10.287852      -279.9467
  13   2.0000     -10.286781      -279.9175
  14   2.0000     -10.282870      -279.8111
  15   2.0000     -10.280414      -279.7443
  16   2.0000      -8.078102      -219.8163
  17   2.0000      -8.077639      -219.8037
  18   2.0000      -6.036845      -164.2709
  19   2.0000      -6.036214      -164.2537
  20   2.0000      -6.032908      -164.1638
  21   2.0000      -6.032131      -164.1426
  22   2.0000      -6.028495      -164.0437
  23   2.0000      -6.028391      -164.0409
  24   2.0000      -1.001931       -27.2639
  25   2.0000      -0.976986       -26.5851
  26   2.0000      -0.919267       -25.0145
  27   2.0000      -0.907132       -24.6843
  28   2.0000      -0.868777       -23.6406
  29   2.0000      -0.852552       -23.1991
  30   2.0000      -0.841183       -22.8898
  31   2.0000      -0.814819       -22.1724
  32   2.0000      -0.780975       -21.2514
  33   2.0000      -0.774201       -21.0671
  34   2.0000      -0.703081       -19.1318
  35   2.0000      -0.699237       -19.0272
  36   2.0000      -0.693975       -18.8840
  37   2.0000      -0.655177       -17.8283
  38   2.0000      -0.643361       -17.5067
  39   2.0000      -0.616451       -16.7745
  40   2.0000      -0.600136       -16.3305
  41   2.0000      -0.587607       -15.9896
  42   2.0000      -0.568185       -15.4611
  43   2.0000      -0.548450       -14.9241
  44   2.0000      -0.540188       -14.6993
  45   2.0000      -0.531432       -14.4610
  46   2.0000      -0.518146       -14.0995
  47   2.0000      -0.512556       -13.9474
  48   2.0000      -0.502454       -13.6725
  49   2.0000      -0.496944       -13.5225
  50   2.0000      -0.489797       -13.3280
  51   2.0000      -0.483023       -13.1437
  52   2.0000      -0.472421       -12.8552
  53   2.0000      -0.465517       -12.6674
  54   2.0000      -0.456447       -12.4206
  55   2.0000      -0.447157       -12.1678
  56   2.0000      -0.440660       -11.9910
  57   2.0000      -0.431813       -11.7502
  58   2.0000      -0.429421       -11.6851
  59   2.0000      -0.424939       -11.5632
  60   2.0000      -0.420318       -11.4374
  61   2.0000      -0.413376       -11.2485
  62   2.0000      -0.410582       -11.1725
  63   2.0000      -0.355055        -9.6615
  64   2.0000      -0.332309        -9.0426
  65   2.0000      -0.325928        -8.8690
  66   2.0000      -0.290978        -7.9179
  67   0.0000       0.026393         0.7182
  68   0.0000       0.073516         2.0005
  69   0.0000       0.100051         2.7225
  70   0.0000       0.122697         3.3387
  71   0.0000       0.129779         3.5315

MULLIKEN ATOMIC CHARGES
-----------------------
   0 S :    0.084649
   1 C :   -0.144485
   2 C :   -0.066449
   3 C :    0.011319
   4 C :   -0.113238
   5 H :   -0.019991
   6 C :    0.036789
   7 H :    0.044970
   8 H :    0.014415
   9 C :   -0.029785
  10 H :    0.038164
  11 H :    0.031199
  12 C :   -0.082472
  13 H :    0.040770
  14 H :    0.052683
  15 H :    0.020245
  16 S :    0.085605
  17 C :   -0.061874
  18 C :   -0.038734
  19 C :   -0.061155
  20 C :   -0.126372
  21 H :    0.021300
  22 C :    0.079170
  23 H :    0.046544
  24 H :    0.026816
  25 C :   -0.112110
  26 H :    0.039722
  27 H :    0.026780
  28 C :   -0.057405
  29 H :    0.035836
  30 H :    0.020908
  31 H :    0.058961
  32 H :    0.065251
  33 H :    0.031971
Sum of atomic charges:   -0.0000000

LOEWDIN ATOMIC CHARGES
----------------------
   0 S :    0.361225
   1 C :   -0.187908
   2 C :   -0.056578
   3 C :   -0.059540
   4 C :   -0.172578
   5 H :    0.020554
   6 C :   -0.034850
   7 H :    0.041072
   8 H :    0.022989
   9 C :   -0.034988
  10 H :    0.029616
  11 H :    0.022328
  12 C :   -0.071894
  13 H :    0.028581
  14 H :    0.031986
  15 H :    0.021415
  16 S :    0.387768
  17 C :   -0.162166
  18 C :   -0.069132
  19 C :   -0.062045
  20 C :   -0.189942
  21 H :    0.031220
  22 C :   -0.030626
  23 H :    0.035978
  24 H :    0.027960
  25 C :   -0.050476
  26 H :    0.024119
  27 H :    0.026651
  28 C :   -0.070388
  29 H :    0.039537
  30 H :    0.021017
  31 H :    0.031089
  32 H :    0.033087
  33 H :    0.014919

  Mayer bond orders larger than 0.100000
B(  0-S ,  1-C ) :   1.1155 B(  0-S ,  4-C ) :   1.1159 B(  1-C ,  2-C ) :   1.6444
B(  1-C , 32-H ) :   0.9666 B(  2-C ,  3-C ) :   1.1703 B(  2-C ,  6-C ) :   1.0084
B(  3-C ,  4-C ) :   1.6375 B(  3-C ,  5-H ) :   1.0011 B(  4-C , 20-C ) :   1.0384
B(  6-C ,  7-H ) :   0.9457 B(  6-C ,  8-H ) :   0.9364 B(  6-C ,  9-C ) :   1.0691
B(  9-C , 10-H ) :   0.9523 B(  9-C , 11-H ) :   0.9569 B(  9-C , 12-C ) :   1.0808
B( 12-C , 13-H ) :   0.9744 B( 12-C , 14-H ) :   0.9740 B( 12-C , 15-H ) :   0.9760
B( 16-S , 17-C ) :   1.1447 B( 16-S , 20-C ) :   1.1342 B( 17-C , 18-C ) :   1.6007
B( 17-C , 33-H ) :   0.9785 B( 18-C , 19-C ) :   1.2419 B( 18-C , 21-H ) :   0.9866
B( 19-C , 20-C ) :   1.6332 B( 19-C , 22-C ) :   1.0096 B( 22-C , 23-H ) :   0.9260
B( 22-C , 24-H ) :   0.9380 B( 22-C , 25-C ) :   1.0891 B( 25-C , 26-H ) :   0.9606
B( 25-C , 27-H ) :   0.9399 B( 25-C , 28-C ) :   1.0878 B( 28-C , 29-H ) :   0.9723
B( 28-C , 30-H ) :   0.9706 B( 28-C , 31-H ) :   0.9732

Dispersion correction           -0.013710825
FINAL SINGLE POINT ENERGY     -1339.866083096516

DIPOLE MOMENT
-------------
                                X             Y             Z
Electronic contribution:     15.11469       8.14432     -25.58618
Nuclear contribution   :    -15.58240      -8.04576      26.23515
                        -----------------------------------------
Total Dipole Moment    :     -0.46771       0.09856       0.64898
                        -----------------------------------------
Magnitude (a.u.)       :      0.80600
Magnitude (Debye)      :      2.04869

Rotational constants in cm-1:     0.016613     0.009274     0.006328
Rotational constants in MHz :   498.043935   278.015352   189.723592

                             ****ORCA TERMINATED NORMALLY****
TOTAL RUN TIME: 0 days 0 hours 0 minutes 33 seconds 653 msec
