                         Program Version 4.2.1 -  RELEASE  -
|  1> ! wB97X-D3 SP def2-SVP
|  2> %pal
|  3> nprocs 16
|  4> end
|  5>
|  6> * xyz 0 1
|  7> S 	 -100.232 	 41.2805 	 119.76
|  8> C 	 -98.7992 	 40.438 	 119.121
|  9> C 	 -97.6094 	 41.0657 	 119.525
| 10> C 	 -97.8746 	 42.3066 	 120.097
| 11> C 	 -99.2189 	 42.6899 	 120.204
| 12> H 	 -97.1661 	 42.9703 	 120.533
| 13> C 	 -96.2027 	 40.4989 	 119.399
| 14> H 	 -95.5335 	 41.2757 	 118.967
| 15> H 	 -96.183 	 39.6672 	 118.707
| 16> C 	 -95.5846 	 39.94 	 120.77
| 17> H 	 -95.6834 	 40.7955 	 121.534
| 18> H 	 -96.135 	 39.1698 	 121.221
| 19> C 	 -94.0898 	 39.7195 	 120.681
| 20> H 	 -93.5623 	 39.5156 	 121.566
| 21> H 	 -93.9329 	 38.8299 	 120.084
| 22> H 	 -93.6311 	 40.5449 	 120.1
| 23> S 	 -99.0259 	 45.418 	 120.331
| 24> C 	 -100.108 	 46.3159 	 121.273
| 25> C 	 -100.915 	 45.5347 	 122.068
| 26> C 	 -100.784 	 44.1025 	 121.793
| 27> C 	 -99.7843 	 43.884 	 120.842
| 28> H 	 -101.387 	 46.0386 	 122.932
| 29> C 	 -101.398 	 43.0603 	 122.784
| 30> H 	 -100.771 	 42.9254 	 123.64
| 31> H 	 -101.398 	 42.0728 	 122.377
| 32> C 	 -102.945 	 43.3479 	 123.071
| 33> H 	 -103.549 	 43.3216 	 122.141
| 34> H 	 -103.114 	 44.3431 	 123.441
| 35> C 	 -103.476 	 42.3561 	 124.093
| 36> H 	 -103.368 	 41.3034 	 123.8
| 37> H 	 -104.514 	 42.6436 	 124.052
| 38> H 	 -103.071 	 42.4855 	 125.177
| 39> H 	 -98.8936 	 39.5018 	 118.671
| 40> H 	 -99.952 	 47.4258 	 121.394
| 41> *
| 42>
| 43>                          ****END OF INPUT****

CARTESIAN COORDINATES (ANGSTROEM)
---------------------------------
  S    -100.232000   41.280500  119.760000
  C    -98.799200   40.438000  119.121000
  C    -97.609400   41.065700  119.525000
  C    -97.874600   42.306600  120.097000
  C    -99.218900   42.689900  120.204000
  H    -97.166100   42.970300  120.533000
  C    -96.202700   40.498900  119.399000
  H    -95.533500   41.275700  118.967000
  H    -96.183000   39.667200  118.707000
  C    -95.584600   39.940000  120.770000
  H    -95.683400   40.795500  121.534000
  H    -96.135000   39.169800  121.221000
  C    -94.089800   39.719500  120.681000
  H    -93.562300   39.515600  121.566000
  H    -93.932900   38.829900  120.084000
  H    -93.631100   40.544900  120.100000
  S    -99.025900   45.418000  120.331000
  C    -100.108000   46.315900  121.273000
  C    -100.915000   45.534700  122.068000
  C    -100.784000   44.102500  121.793000
  C    -99.784300   43.884000  120.842000
  H    -101.387000   46.038600  122.932000
  C    -101.398000   43.060300  122.784000
  H    -100.771000   42.925400  123.640000
  H    -101.398000   42.072800  122.377000
  C    -102.945000   43.347900  123.071000
  H    -103.549000   43.321600  122.141000
  H    -103.114000   44.343100  123.441000
  C    -103.476000   42.356100  124.093000
  H    -103.368000   41.303400  123.800000
  H    -104.514000   42.643600  124.052000
  H    -103.071000   42.485500  125.177000
  H    -98.893600   39.501800  118.671000
  H    -99.952000   47.425800  121.394000

 Total Charge           Charge          ....    0
 Multiplicity           Mult            ....    1
 Number of Electrons    NEL             ....  134
 Basis Dimension        Dim             ....  322

ORBITAL ENERGIES
----------------

  NO   OCC          E(Eh)            E(eV)
   0   2.0000     -88.966793     -2420.9095
   1   2.0000     -88.963843     -2420.8292
   2   2.0000     -10.334610      -281.2190
   3   2.0000     -10.332378      -281.1583
   4   2.0000     -10.316637      -280.7300
   5   2.0000     -10.315578      -280.7011
   6   2.0000     -10.311743      -280.5968
   7   2.0000     -10.304148      -280.3901
   8   2.0000     -10.301645      -280.3220
   9   2.0000     -10.297107      -280.1985
  10   2.0000     -10.293244      -280.0934
  11   2.0000     -10.292401      -280.0705
  12   2.0000     -10.291074      -280.0344
  13   2.0000     -10.289650      -279.9956
  14   2.0000     -10.282842      -279.8104
  15   2.0000     -10.275486      -279.6102
  16   2.0000      -8.080102      -219.8708
  17   2.0000      -8.079377      -219.8510
  18   2.0000      -6.038646      -164.3199
  19   2.0000      -6.037787      -164.2965
  20   2.0000      -6.034912      -164.2183
  21   2.0000      -6.033830      -164.1889
  22   2.0000      -6.030828      -164.1072
  23   2.0000      -6.030130      -164.0882
  24   2.0000      -1.001242       -27.2452
  25   2.0000      -0.980378       -26.6774
  26   2.0000      -0.905053       -24.6278
  27   2.0000      -0.901321       -24.5262
  28   2.0000      -0.867562       -23.6076
  29   2.0000      -0.851029       -23.1577
  30   2.0000      -0.847142       -23.0519
  31   2.0000      -0.809841       -22.0369
  32   2.0000      -0.782162       -21.2837
  33   2.0000      -0.768534       -20.9129
  34   2.0000      -0.704092       -19.1593
  35   2.0000      -0.700730       -19.0678
  36   2.0000      -0.693699       -18.8765
  37   2.0000      -0.659079       -17.9345
  38   2.0000      -0.636574       -17.3221
  39   2.0000      -0.619989       -16.8708
  40   2.0000      -0.597131       -16.2488
  41   2.0000      -0.568903       -15.4806
  42   2.0000      -0.556386       -15.1400
  43   2.0000      -0.554761       -15.0958
  44   2.0000      -0.529298       -14.4029
  45   2.0000      -0.524049       -14.2601
  46   2.0000      -0.516182       -14.0460
  47   2.0000      -0.509554       -13.8657
  48   2.0000      -0.502092       -13.6626
  49   2.0000      -0.495960       -13.4958
  50   2.0000      -0.488672       -13.2975
  51   2.0000      -0.477235       -12.9862
  52   2.0000      -0.471281       -12.8242
  53   2.0000      -0.462626       -12.5887
  54   2.0000      -0.460207       -12.5229
  55   2.0000      -0.452588       -12.3155
  56   2.0000      -0.447015       -12.1639
  57   2.0000      -0.443754       -12.0752
  58   2.0000      -0.436838       -11.8870
  59   2.0000      -0.425705       -11.5840
  60   2.0000      -0.419851       -11.4247
  61   2.0000      -0.406431       -11.0595
  62   2.0000      -0.404540       -11.0081
  63   2.0000      -0.351258        -9.5582
  64   2.0000      -0.331690        -9.0258
  65   2.0000      -0.328477        -8.9383
  66   2.0000      -0.283873        -7.7246
  67   0.0000       0.022448         0.6108
  68   0.0000       0.071562         1.9473
  69   0.0000       0.094698         2.5769
  70   0.0000       0.119180         3.2431
  71   0.0000       0.131692         3.5835

MULLIKEN ATOMIC CHARGES
-----------------------
   0 S :    0.095140
   1 C :   -0.109854
   2 C :   -0.043742
   3 C :    0.014718
   4 C :   -0.125389
   5 H :    0.001622
   6 C :    0.054718
   7 H :    0.038265
   8 H :    0.018463
   9 C :   -0.088453
  10 H :    0.028242
  11 H :    0.025241
  12 C :   -0.016712
  13 H :    0.030979
  14 H :    0.016223
  15 H :    0.031115
  16 S :    0.106183
  17 C :   -0.114088
  18 C :   -0.055545
  19 C :   -0.023144
  20 C :   -0.169596
  21 H :    0.040793
  22 C :    0.078190
  23 H :    0.039985
  24 H :    0.002829
  25 C :   -0.110623
  26 H :    0.041057
  27 H :    0.024589
  28 C :   -0.060901
  29 H :    0.039650
  30 H :    0.031837
  31 H :    0.050047
  32 H :    0.028298
  33 H :    0.079864
Sum of atomic charges:    0.0000000

LOEWDIN ATOMIC CHARGES
----------------------
   0 S :    0.383457
   1 C :   -0.174012
   2 C :   -0.062327
   3 C :   -0.063775
   4 C :   -0.178812
   5 H :    0.024136
   6 C :   -0.025597
   7 H :    0.035385
   8 H :    0.025928
   9 C :   -0.036666
  10 H :    0.027765
  11 H :    0.016411
  12 C :   -0.064868
  13 H :    0.021021
  14 H :    0.022073
  15 H :    0.030393
  16 S :    0.416232
  17 C :   -0.211387
  18 C :   -0.081092
  19 C :   -0.057405
  20 C :   -0.187309
  21 H :    0.038230
  22 C :   -0.026340
  23 H :    0.031982
  24 H :    0.018320
  25 C :   -0.037780
  26 H :    0.031978
  27 H :    0.017112
  28 C :   -0.073700
  29 H :    0.024387
  30 H :    0.027385
  31 H :    0.035723
  32 H :    0.013040
  33 H :    0.040110

  Mayer bond orders larger than 0.100000
B(  0-S ,  1-C ) :   1.1499 B(  0-S ,  4-C ) :   1.1389 B(  1-C ,  2-C ) :   1.5686
B(  1-C ,  4-C ) :   0.1078 B(  1-C , 32-H ) :   0.9784 B(  2-C ,  3-C ) :   1.2689
B(  2-C ,  6-C ) :   1.0333 B(  3-C ,  4-C ) :   1.5467 B(  3-C ,  5-H ) :   0.9925
B(  4-C , 20-C ) :   1.0558 B(  6-C ,  7-H ) :   0.9438 B(  6-C ,  8-H ) :   0.9416
B(  6-C ,  9-C ) :   1.0421 B(  9-C , 10-H ) :   0.9616 B(  9-C , 11-H ) :   0.9605
B(  9-C , 12-C ) :   1.0746 B( 12-C , 13-H ) :   0.9740 B( 12-C , 14-H ) :   0.9723
B( 12-C , 15-H ) :   0.9731 B( 16-S , 17-C ) :   1.1660 B( 16-S , 20-C ) :   1.1419
B( 17-C , 18-C ) :   1.6273 B( 17-C , 33-H ) :   0.9555 B( 18-C , 19-C ) :   1.2142
B( 18-C , 21-H ) :   0.9800 B( 19-C , 20-C ) :   1.5957 B( 19-C , 22-C ) :   1.0352
B( 22-C , 23-H ) :   0.9480 B( 22-C , 24-H ) :   0.9341 B( 22-C , 25-C ) :   1.0404
B( 25-C , 26-H ) :   0.9591 B( 25-C , 27-H ) :   0.9602 B( 25-C , 28-C ) :   1.0778
B( 28-C , 29-H ) :   0.9738 B( 28-C , 30-H ) :   0.9734 B( 28-C , 31-H ) :   0.9737

Dispersion correction           -0.013395758
FINAL SINGLE POINT ENERGY     -1339.861947229845

DIPOLE MOMENT
-------------
                                X             Y             Z
Electronic contribution:     -4.85783      12.57719     -12.99180
Nuclear contribution   :      5.13334     -12.77048      13.51773
                        -----------------------------------------
Total Dipole Moment    :      0.27552      -0.19329       0.52592
                        -----------------------------------------
Magnitude (a.u.)       :      0.62439
Magnitude (Debye)      :      1.58709

Rotational constants in cm-1:     0.019144     0.007207     0.006151
Rotational constants in MHz :   573.935990   216.060173   184.401013

                             ****ORCA TERMINATED NORMALLY****
TOTAL RUN TIME: 0 days 0 hours 0 minutes 31 seconds 991 msec
