                         Program Version 4.2.1 -  RELEASE  -
|  1> ! wB97X-D3 SP def2-SVP
|  2> %pal
|  3> nprocs 16
|  4> end
|  5>
|  6> * xyz 0 1
|  7> S 	 38.4558 	 15.4006 	 79.55
|  8> C 	 37.3102 	 15.0174 	 78.2238
|  9> C 	 36.023 	 15.374 	 78.5699
| 10> C 	 35.9691 	 15.7576 	 79.9311
| 11> C 	 37.0985 	 15.6313 	 80.6411
| 12> H 	 35.0872 	 16.0094 	 80.4654
| 13> C 	 34.7422 	 15.3283 	 77.6999
| 14> H 	 35.1824 	 15.1401 	 76.7153
| 15> H 	 34.3807 	 16.4007 	 77.8421
| 16> C 	 33.8584 	 14.2151 	 78.0168
| 17> H 	 34.5049 	 13.3832 	 78.3895
| 18> H 	 33.2765 	 14.3338 	 78.865
| 19> C 	 32.9027 	 13.8646 	 76.9344
| 20> H 	 33.4243 	 13.767 	 75.9544
| 21> H 	 32.5772 	 12.8011 	 77.0912
| 22> H 	 32.0756 	 14.5884 	 76.8359
| 23> S 	 38.9568 	 16.1245 	 82.7411
| 24> C 	 38.2799 	 16.3035 	 84.3799
| 25> C 	 36.9477 	 16.0443 	 84.4354
| 26> C 	 36.3561 	 15.7002 	 83.1907
| 27> C 	 37.2468 	 15.7959 	 82.1283
| 28> H 	 36.3972 	 16.0143 	 85.3431
| 29> C 	 34.8692 	 15.5543 	 83.1182
| 30> H 	 34.503 	 15.2156 	 84.1111
| 31> H 	 34.6228 	 14.7344 	 82.4439
| 32> C 	 33.9409 	 16.7298 	 82.8383
| 33> H 	 34.1912 	 17.2485 	 81.9449
| 34> H 	 34.2289 	 17.4643 	 83.5916
| 35> C 	 32.453 	 16.3048 	 82.9284
| 36> H 	 32.0507 	 16.0133 	 83.938
| 37> H 	 32.3568 	 15.4032 	 82.2706
| 38> H 	 31.8324 	 17.0754 	 82.5001
| 39> H 	 37.5269 	 14.6286 	 77.179
| 40> H 	 38.7714 	 16.6418 	 85.2818
| 41> *
| 42>
| 43>                          ****END OF INPUT****

CARTESIAN COORDINATES (ANGSTROEM)
---------------------------------
  S     38.455800   15.400600   79.550000
  C     37.310200   15.017400   78.223800
  C     36.023000   15.374000   78.569900
  C     35.969100   15.757600   79.931100
  C     37.098500   15.631300   80.641100
  H     35.087200   16.009400   80.465400
  C     34.742200   15.328300   77.699900
  H     35.182400   15.140100   76.715300
  H     34.380700   16.400700   77.842100
  C     33.858400   14.215100   78.016800
  H     34.504900   13.383200   78.389500
  H     33.276500   14.333800   78.865000
  C     32.902700   13.864600   76.934400
  H     33.424300   13.767000   75.954400
  H     32.577200   12.801100   77.091200
  H     32.075600   14.588400   76.835900
  S     38.956800   16.124500   82.741100
  C     38.279900   16.303500   84.379900
  C     36.947700   16.044300   84.435400
  C     36.356100   15.700200   83.190700
  C     37.246800   15.795900   82.128300
  H     36.397200   16.014300   85.343100
  C     34.869200   15.554300   83.118200
  H     34.503000   15.215600   84.111100
  H     34.622800   14.734400   82.443900
  C     33.940900   16.729800   82.838300
  H     34.191200   17.248500   81.944900
  H     34.228900   17.464300   83.591600
  C     32.453000   16.304800   82.928400
  H     32.050700   16.013300   83.938000
  H     32.356800   15.403200   82.270600
  H     31.832400   17.075400   82.500100
  H     37.526900   14.628600   77.179000
  H     38.771400   16.641800   85.281800

 Total Charge           Charge          ....    0
 Multiplicity           Mult            ....    1
 Number of Electrons    NEL             ....  134
 Basis Dimension        Dim             ....  322

ORBITAL ENERGIES
----------------

  NO   OCC          E(Eh)            E(eV)
   0   2.0000     -88.968400     -2420.9532
   1   2.0000     -88.966025     -2420.8886
   2   2.0000     -10.341237      -281.3994
   3   2.0000     -10.330847      -281.1166
   4   2.0000     -10.321251      -280.8555
   5   2.0000     -10.319372      -280.8044
   6   2.0000     -10.304864      -280.4096
   7   2.0000     -10.299600      -280.2664
   8   2.0000     -10.297782      -280.2169
   9   2.0000     -10.293500      -280.1004
  10   2.0000     -10.291839      -280.0552
  11   2.0000     -10.289753      -279.9984
  12   2.0000     -10.289631      -279.9951
  13   2.0000     -10.284301      -279.8501
  14   2.0000     -10.283219      -279.8206
  15   2.0000     -10.277681      -279.6699
  16   2.0000      -8.081293      -219.9032
  17   2.0000      -8.080012      -219.8683
  18   2.0000      -6.040089      -164.3592
  19   2.0000      -6.038855      -164.3256
  20   2.0000      -6.036285      -164.2557
  21   2.0000      -6.034916      -164.2184
  22   2.0000      -6.031645      -164.1294
  23   2.0000      -6.030168      -164.0892
  24   2.0000      -1.003229       -27.2992
  25   2.0000      -0.981380       -26.7047
  26   2.0000      -0.925792       -25.1921
  27   2.0000      -0.913699       -24.8630
  28   2.0000      -0.868476       -23.6324
  29   2.0000      -0.854308       -23.2469
  30   2.0000      -0.845217       -22.9995
  31   2.0000      -0.817099       -22.2344
  32   2.0000      -0.783034       -21.3074
  33   2.0000      -0.773736       -21.0544
  34   2.0000      -0.712835       -19.3972
  35   2.0000      -0.702941       -19.1280
  36   2.0000      -0.694552       -18.8997
  37   2.0000      -0.665334       -18.1046
  38   2.0000      -0.639590       -17.4041
  39   2.0000      -0.622821       -16.9478
  40   2.0000      -0.600097       -16.3295
  41   2.0000      -0.577083       -15.7032
  42   2.0000      -0.567884       -15.4529
  43   2.0000      -0.562040       -15.2939
  44   2.0000      -0.532342       -14.4857
  45   2.0000      -0.520461       -14.1625
  46   2.0000      -0.519825       -14.1452
  47   2.0000      -0.510718       -13.8974
  48   2.0000      -0.509016       -13.8510
  49   2.0000      -0.496217       -13.5027
  50   2.0000      -0.493266       -13.4224
  51   2.0000      -0.478991       -13.0340
  52   2.0000      -0.472418       -12.8551
  53   2.0000      -0.462211       -12.5774
  54   2.0000      -0.459313       -12.4985
  55   2.0000      -0.458825       -12.4853
  56   2.0000      -0.442511       -12.0413
  57   2.0000      -0.439908       -11.9705
  58   2.0000      -0.438312       -11.9271
  59   2.0000      -0.421187       -11.4611
  60   2.0000      -0.420093       -11.4313
  61   2.0000      -0.418000       -11.3744
  62   2.0000      -0.409668       -11.1476
  63   2.0000      -0.359093        -9.7714
  64   2.0000      -0.337519        -9.1843
  65   2.0000      -0.329142        -8.9564
  66   2.0000      -0.285298        -7.7633
  67   0.0000       0.018788         0.5112
  68   0.0000       0.074279         2.0212
  69   0.0000       0.087348         2.3769
  70   0.0000       0.116931         3.1819
  71   0.0000       0.130514         3.5515

MULLIKEN ATOMIC CHARGES
-----------------------
   0 S :    0.092814
   1 C :   -0.145455
   2 C :   -0.116075
   3 C :    0.001783
   4 C :   -0.075982
   5 H :   -0.037015
   6 C :    0.094901
   7 H :    0.009096
   8 H :    0.055322
   9 C :   -0.050370
  10 H :    0.036519
  11 H :    0.004963
  12 C :   -0.054294
  13 H :    0.024294
  14 H :    0.037928
  15 H :    0.046029
  16 S :    0.079570
  17 C :   -0.061342
  18 C :   -0.024009
  19 C :   -0.027454
  20 C :   -0.126307
  21 H :    0.006764
  22 C :   -0.003380
  23 H :    0.013968
  24 H :    0.026904
  25 C :   -0.031465
  26 H :    0.024406
  27 H :    0.017855
  28 C :   -0.058461
  29 H :    0.050002
  30 H :    0.030544
  31 H :    0.039738
  32 H :    0.064935
  33 H :    0.053273
Sum of atomic charges:    0.0000000

LOEWDIN ATOMIC CHARGES
----------------------
   0 S :    0.371042
   1 C :   -0.197530
   2 C :   -0.062688
   3 C :   -0.072965
   4 C :   -0.175029
   5 H :    0.022156
   6 C :   -0.028276
   7 H :    0.029957
   8 H :    0.044561
   9 C :   -0.058701
  10 H :    0.037291
  11 H :    0.016805
  12 C :   -0.065924
  13 H :    0.024006
  14 H :    0.035366
  15 H :    0.029807
  16 S :    0.346469
  17 C :   -0.167129
  18 C :   -0.066847
  19 C :   -0.060077
  20 C :   -0.148714
  21 H :    0.028193
  22 C :   -0.041637
  23 H :    0.032900
  24 H :    0.025690
  25 C :   -0.040034
  26 H :    0.016490
  27 H :    0.025776
  28 C :   -0.065659
  29 H :    0.033098
  30 H :    0.029106
  31 H :    0.026880
  32 H :    0.042695
  33 H :    0.032923

  Mayer bond orders larger than 0.100000
B(  0-S ,  1-C ) :   1.1107 B(  0-S ,  4-C ) :   1.1172 B(  1-C ,  2-C ) :   1.6537
B(  1-C , 32-H ) :   0.9545 B(  2-C ,  3-C ) :   1.2058 B(  2-C ,  6-C ) :   1.0062
B(  3-C ,  4-C ) :   1.6159 B(  3-C ,  5-H ) :   0.9988 B(  4-C , 20-C ) :   1.0558
B(  6-C ,  7-H ) :   0.9334 B(  6-C ,  8-H ) :   0.9336 B(  6-C ,  9-C ) :   1.0717
B(  9-C , 10-H ) :   0.9481 B(  9-C , 11-H ) :   0.9369 B(  9-C , 12-C ) :   1.0957
B( 12-C , 13-H ) :   0.9750 B( 12-C , 14-H ) :   0.9705 B( 12-C , 15-H ) :   0.9720
B( 16-S , 17-C ) :   1.1241 B( 16-S , 20-C ) :   1.1055 B( 17-C , 18-C ) :   1.6537
B( 17-C , 33-H ) :   0.9610 B( 18-C , 19-C ) :   1.2204 B( 18-C , 21-H ) :   0.9886
B( 19-C , 20-C ) :   1.6205 B( 19-C , 22-C ) :   1.0622 B( 22-C , 23-H ) :   0.9321
B( 22-C , 24-H ) :   0.9258 B( 22-C , 25-C ) :   1.0567 B( 25-C , 26-H ) :   0.9514
B( 25-C , 27-H ) :   0.9441 B( 25-C , 28-C ) :   1.0681 B( 28-C , 29-H ) :   0.9754
B( 28-C , 30-H ) :   0.9741 B( 28-C , 31-H ) :   0.9735

Dispersion correction           -0.014101720
FINAL SINGLE POINT ENERGY     -1339.856473619635

DIPOLE MOMENT
-------------
                                X             Y             Z
Electronic contribution:     33.03188       3.51183       6.26923
Nuclear contribution   :    -33.96563      -3.50795      -6.15707
                        -----------------------------------------
Total Dipole Moment    :     -0.93376       0.00388       0.11216
                        -----------------------------------------
Magnitude (a.u.)       :      0.94048
Magnitude (Debye)      :      2.39050

Rotational constants in cm-1:     0.017352     0.009510     0.006370
Rotational constants in MHz :   520.198910   285.113557   190.980436

                             ****ORCA TERMINATED NORMALLY****
TOTAL RUN TIME: 0 days 0 hours 0 minutes 31 seconds 104 msec
