                         Program Version 4.2.1 -  RELEASE  -
|  1> ! wB97X-D3 SP def2-SVP
|  2> %pal
|  3> nprocs 16
|  4> end
|  5>
|  6> * xyz 0 1
|  7> S 	 -72.5984 	 39.3002 	 118.634
|  8> C 	 -71.05 	 39.8011 	 117.98
|  9> C 	 -70.118 	 38.8166 	 118.19
| 10> C 	 -70.5885 	 37.7477 	 118.978
| 11> C 	 -71.9601 	 37.775 	 119.247
| 12> H 	 -69.9412 	 36.8884 	 119.178
| 13> C 	 -68.7654 	 38.8314 	 117.507
| 14> H 	 -67.9794 	 38.6495 	 118.213
| 15> H 	 -68.5359 	 39.7711 	 117.022
| 16> C 	 -68.5988 	 37.7546 	 116.434
| 17> H 	 -67.5465 	 37.8344 	 116.144
| 18> H 	 -68.8308 	 36.7338 	 116.745
| 19> C 	 -69.2716 	 38.0134 	 115.089
| 20> H 	 -68.6781 	 37.772 	 114.154
| 21> H 	 -70.0655 	 37.2376 	 114.942
| 22> H 	 -69.7422 	 39.0205 	 115.056
| 23> S 	 -74.4506 	 36.553 	 119.135
| 24> C 	 -74.915 	 35.3177 	 120.314
| 25> C 	 -73.8777 	 35.05 	 121.144
| 26> C 	 -72.7002 	 35.8162 	 120.865
| 27> C 	 -72.846 	 36.778 	 119.854
| 28> H 	 -73.9649 	 34.3093 	 121.936
| 29> C 	 -71.4027 	 35.6033 	 121.648
| 30> H 	 -71.6777 	 35.3374 	 122.644
| 31> H 	 -70.7415 	 36.5126 	 121.608
| 32> C 	 -70.5879 	 34.4384 	 121.032
| 33> H 	 -70.4428 	 34.5984 	 119.967
| 34> H 	 -71.129 	 33.5095 	 120.991
| 35> C 	 -69.1371 	 34.2198 	 121.501
| 36> H 	 -68.4139 	 34.9799 	 121.177
| 37> H 	 -68.7115 	 33.3279 	 121.209
| 38> H 	 -69.1456 	 34.2137 	 122.582
| 39> H 	 -70.896 	 40.7411 	 117.395
| 40> H 	 -75.9042 	 34.8826 	 120.408
| 41> *
| 42>
| 43>                          ****END OF INPUT****

CARTESIAN COORDINATES (ANGSTROEM)
---------------------------------
  S    -72.598400   39.300200  118.634000
  C    -71.050000   39.801100  117.980000
  C    -70.118000   38.816600  118.190000
  C    -70.588500   37.747700  118.978000
  C    -71.960100   37.775000  119.247000
  H    -69.941200   36.888400  119.178000
  C    -68.765400   38.831400  117.507000
  H    -67.979400   38.649500  118.213000
  H    -68.535900   39.771100  117.022000
  C    -68.598800   37.754600  116.434000
  H    -67.546500   37.834400  116.144000
  H    -68.830800   36.733800  116.745000
  C    -69.271600   38.013400  115.089000
  H    -68.678100   37.772000  114.154000
  H    -70.065500   37.237600  114.942000
  H    -69.742200   39.020500  115.056000
  S    -74.450600   36.553000  119.135000
  C    -74.915000   35.317700  120.314000
  C    -73.877700   35.050000  121.144000
  C    -72.700200   35.816200  120.865000
  C    -72.846000   36.778000  119.854000
  H    -73.964900   34.309300  121.936000
  C    -71.402700   35.603300  121.648000
  H    -71.677700   35.337400  122.644000
  H    -70.741500   36.512600  121.608000
  C    -70.587900   34.438400  121.032000
  H    -70.442800   34.598400  119.967000
  H    -71.129000   33.509500  120.991000
  C    -69.137100   34.219800  121.501000
  H    -68.413900   34.979900  121.177000
  H    -68.711500   33.327900  121.209000
  H    -69.145600   34.213700  122.582000
  H    -70.896000   40.741100  117.395000
  H    -75.904200   34.882600  120.408000

 Total Charge           Charge          ....    0
 Multiplicity           Mult            ....    1
 Number of Electrons    NEL             ....  134
 Basis Dimension        Dim             ....  322

ORBITAL ENERGIES
----------------

  NO   OCC          E(Eh)            E(eV)
   0   2.0000     -88.966692     -2420.9068
   1   2.0000     -88.964111     -2420.8365
   2   2.0000     -10.339771      -281.3595
   3   2.0000     -10.334323      -281.2112
   4   2.0000     -10.319948      -280.8201
   5   2.0000     -10.318159      -280.7714
   6   2.0000     -10.307968      -280.4941
   7   2.0000     -10.299464      -280.2627
   8   2.0000     -10.298644      -280.2403
   9   2.0000     -10.296396      -280.1792
  10   2.0000     -10.296045      -280.1696
  11   2.0000     -10.292170      -280.0642
  12   2.0000     -10.285403      -279.8800
  13   2.0000     -10.284096      -279.8445
  14   2.0000     -10.281307      -279.7686
  15   2.0000     -10.272897      -279.5397
  16   2.0000      -8.081154      -219.8994
  17   2.0000      -8.078407      -219.8246
  18   2.0000      -6.039692      -164.3484
  19   2.0000      -6.037093      -164.2776
  20   2.0000      -6.035589      -164.2367
  21   2.0000      -6.032915      -164.1640
  22   2.0000      -6.031983      -164.1386
  23   2.0000      -6.029036      -164.0584
  24   2.0000      -1.006127       -27.3781
  25   2.0000      -0.985508       -26.8170
  26   2.0000      -0.914633       -24.8884
  27   2.0000      -0.905990       -24.6532
  28   2.0000      -0.871576       -23.7168
  29   2.0000      -0.850101       -23.1324
  30   2.0000      -0.843905       -22.9638
  31   2.0000      -0.818327       -22.2678
  32   2.0000      -0.784328       -21.3427
  33   2.0000      -0.774161       -21.0660
  34   2.0000      -0.711002       -19.3473
  35   2.0000      -0.698930       -19.0189
  36   2.0000      -0.687953       -18.7202
  37   2.0000      -0.662526       -18.0282
  38   2.0000      -0.639158       -17.3924
  39   2.0000      -0.627591       -17.0776
  40   2.0000      -0.596346       -16.2274
  41   2.0000      -0.572822       -15.5873
  42   2.0000      -0.562635       -15.3101
  43   2.0000      -0.555053       -15.1038
  44   2.0000      -0.540119       -14.6974
  45   2.0000      -0.525126       -14.2894
  46   2.0000      -0.519601       -14.1391
  47   2.0000      -0.515233       -14.0202
  48   2.0000      -0.507895       -13.8205
  49   2.0000      -0.502810       -13.6822
  50   2.0000      -0.488170       -13.2838
  51   2.0000      -0.483082       -13.1453
  52   2.0000      -0.473274       -12.8784
  53   2.0000      -0.469038       -12.7632
  54   2.0000      -0.455750       -12.4016
  55   2.0000      -0.454060       -12.3556
  56   2.0000      -0.443883       -12.0787
  57   2.0000      -0.436904       -11.8888
  58   2.0000      -0.431504       -11.7418
  59   2.0000      -0.429247       -11.6804
  60   2.0000      -0.421473       -11.4689
  61   2.0000      -0.407014       -11.0754
  62   2.0000      -0.397652       -10.8207
  63   2.0000      -0.358380        -9.7520
  64   2.0000      -0.332791        -9.0557
  65   2.0000      -0.329908        -8.9772
  66   2.0000      -0.289437        -7.8760
  67   0.0000       0.020497         0.5577
  68   0.0000       0.076624         2.0850
  69   0.0000       0.112882         3.0717
  70   0.0000       0.122717         3.3393
  71   0.0000       0.129858         3.5336

MULLIKEN ATOMIC CHARGES
-----------------------
   0 S :    0.102801
   1 C :   -0.145307
   2 C :   -0.074457
   3 C :    0.021227
   4 C :   -0.125035
   5 H :    0.007976
   6 C :    0.099236
   7 H :    0.021783
   8 H :    0.012336
   9 C :   -0.089629
  10 H :    0.031521
  11 H :    0.035585
  12 C :   -0.091787
  13 H :    0.041832
  14 H :    0.031490
  15 H :    0.037498
  16 S :    0.086256
  17 C :   -0.087890
  18 C :   -0.019199
  19 C :   -0.065740
  20 C :   -0.125504
  21 H :    0.021277
  22 C :    0.088919
  23 H :    0.017189
  24 H :    0.039581
  25 C :   -0.093639
  26 H :    0.017157
  27 H :    0.017643
  28 C :   -0.007128
  29 H :    0.028834
  30 H :    0.014841
  31 H :    0.018437
  32 H :    0.069317
  33 H :    0.062579
Sum of atomic charges:    0.0000000

LOEWDIN ATOMIC CHARGES
----------------------
   0 S :    0.402358
   1 C :   -0.201913
   2 C :   -0.069260
   3 C :   -0.067735
   4 C :   -0.182110
   5 H :    0.031244
   6 C :   -0.023539
   7 H :    0.029820
   8 H :    0.028916
   9 C :   -0.046494
  10 H :    0.028749
  11 H :    0.023426
  12 C :   -0.083023
  13 H :    0.032326
  14 H :    0.029960
  15 H :    0.026186
  16 S :    0.385328
  17 C :   -0.174066
  18 C :   -0.073919
  19 C :   -0.052834
  20 C :   -0.190183
  21 H :    0.034379
  22 C :   -0.024698
  23 H :    0.024390
  24 H :    0.037713
  25 C :   -0.046460
  26 H :    0.021006
  27 H :    0.021814
  28 C :   -0.060461
  29 H :    0.025794
  30 H :    0.017027
  31 H :    0.021603
  32 H :    0.040253
  33 H :    0.034401

  Mayer bond orders larger than 0.100000
B(  0-S ,  1-C ) :   1.1340 B(  0-S ,  4-C ) :   1.1624 B(  1-C ,  2-C ) :   1.5974
B(  1-C ,  4-C ) :   0.1018 B(  1-C , 32-H ) :   0.9634 B(  2-C ,  3-C ) :   1.2764
B(  2-C ,  6-C ) :   1.0313 B(  3-C ,  4-C ) :   1.5284 B(  3-C ,  5-H ) :   0.9879
B(  4-C , 20-C ) :   1.0613 B(  6-C ,  7-H ) :   0.9322 B(  6-C ,  8-H ) :   0.9427
B(  6-C ,  9-C ) :   1.0851 B(  9-C , 10-H ) :   0.9597 B(  9-C , 11-H ) :   0.9626
B(  9-C , 12-C ) :   1.0515 B( 12-C , 13-H ) :   0.9794 B( 12-C , 14-H ) :   0.9777
B( 12-C , 15-H ) :   0.9765 B( 16-S , 17-C ) :   1.1440 B( 16-S , 20-C ) :   1.1278
B( 17-C , 18-C ) :   1.6134 B( 17-C , 33-H ) :   0.9669 B( 18-C , 19-C ) :   1.2425
B( 18-C , 21-H ) :   0.9892 B( 19-C , 20-C ) :   1.5883 B( 19-C , 22-C ) :   1.0543
B( 22-C , 23-H ) :   0.9284 B( 22-C , 24-H ) :   0.9388 B( 22-C , 25-C ) :   1.0546
B( 25-C , 26-H ) :   0.9541 B( 25-C , 27-H ) :   0.9535 B( 25-C , 28-C ) :   1.0824
B( 28-C , 29-H ) :   0.9753 B( 28-C , 30-H ) :   0.9716 B( 28-C , 31-H ) :   0.9731

Dispersion correction           -0.014416682
FINAL SINGLE POINT ENERGY     -1339.881902492969

DIPOLE MOMENT
-------------
                                X             Y             Z
Electronic contribution:    -25.56560      10.40764       3.13481
Nuclear contribution   :     26.11811     -10.82849      -3.09673
                        -----------------------------------------
Total Dipole Moment    :      0.55251      -0.42085       0.03808
                        -----------------------------------------
Magnitude (a.u.)       :      0.69558
Magnitude (Debye)      :      1.76803

Rotational constants in cm-1:     0.017196     0.009444     0.007063
Rotational constants in MHz :   515.511363   283.135658   211.742640

                             ****ORCA TERMINATED NORMALLY****
TOTAL RUN TIME: 0 days 0 hours 0 minutes 33 seconds 705 msec
