                         Program Version 4.2.1 -  RELEASE  -
|  1> ! wB97X-D3 SP def2-SVP
|  2> %pal
|  3> nprocs 16
|  4> end
|  5>
|  6> * xyz 0 1
|  7> S 	 -69.337 	 36.6355 	 115.712
|  8> C 	 -70.7743 	 37.0166 	 116.565
|  9> C 	 -71.8343 	 37.3713 	 115.767
| 10> C 	 -71.4121 	 37.3694 	 114.355
| 11> C 	 -70.0778 	 37.111 	 114.151
| 12> H 	 -72.0176 	 37.5633 	 113.541
| 13> C 	 -73.1721 	 37.7735 	 116.315
| 14> H 	 -73.0504 	 37.9063 	 117.382
| 15> H 	 -73.7871 	 36.909 	 116.168
| 16> C 	 -73.7085 	 39.0594 	 115.73
| 17> H 	 -73.2785 	 39.9949 	 116.159
| 18> H 	 -73.4841 	 39.0983 	 114.693
| 19> C 	 -75.2119 	 39.2347 	 115.97
| 20> H 	 -75.5929 	 39.3515 	 117.014
| 21> H 	 -75.4721 	 40.2063 	 115.606
| 22> H 	 -75.8289 	 38.4522 	 115.508
| 23> S 	 -68.8148 	 35.49 	 112.382
| 24> C 	 -68.1468 	 36.1686 	 110.96
| 25> C 	 -68.5388 	 37.4486 	 110.752
| 26> C 	 -69.3616 	 37.9948 	 111.818
| 27> C 	 -69.4213 	 37.0966 	 112.907
| 28> H 	 -68.1785 	 37.987 	 109.863
| 29> C 	 -69.9521 	 39.3473 	 111.776
| 30> H 	 -70.8088 	 39.5376 	 112.459
| 31> H 	 -70.2715 	 39.6204 	 110.761
| 32> C 	 -68.8485 	 40.3082 	 112.286
| 33> H 	 -68.0394 	 40.2807 	 111.577
| 34> H 	 -68.5405 	 39.9403 	 113.292
| 35> C 	 -69.3036 	 41.7686 	 112.613
| 36> H 	 -68.6136 	 42.337 	 113.235
| 37> H 	 -70.1237 	 41.7019 	 113.337
| 38> H 	 -69.5964 	 42.3499 	 111.751
| 39> H 	 -70.8203 	 36.9901 	 117.69
| 40> H 	 -67.6474 	 35.6227 	 110.147
| 41> *
| 42>
| 43>                          ****END OF INPUT****

CARTESIAN COORDINATES (ANGSTROEM)
---------------------------------
  S    -69.337000   36.635500  115.712000
  C    -70.774300   37.016600  116.565000
  C    -71.834300   37.371300  115.767000
  C    -71.412100   37.369400  114.355000
  C    -70.077800   37.111000  114.151000
  H    -72.017600   37.563300  113.541000
  C    -73.172100   37.773500  116.315000
  H    -73.050400   37.906300  117.382000
  H    -73.787100   36.909000  116.168000
  C    -73.708500   39.059400  115.730000
  H    -73.278500   39.994900  116.159000
  H    -73.484100   39.098300  114.693000
  C    -75.211900   39.234700  115.970000
  H    -75.592900   39.351500  117.014000
  H    -75.472100   40.206300  115.606000
  H    -75.828900   38.452200  115.508000
  S    -68.814800   35.490000  112.382000
  C    -68.146800   36.168600  110.960000
  C    -68.538800   37.448600  110.752000
  C    -69.361600   37.994800  111.818000
  C    -69.421300   37.096600  112.907000
  H    -68.178500   37.987000  109.863000
  C    -69.952100   39.347300  111.776000
  H    -70.808800   39.537600  112.459000
  H    -70.271500   39.620400  110.761000
  C    -68.848500   40.308200  112.286000
  H    -68.039400   40.280700  111.577000
  H    -68.540500   39.940300  113.292000
  C    -69.303600   41.768600  112.613000
  H    -68.613600   42.337000  113.235000
  H    -70.123700   41.701900  113.337000
  H    -69.596400   42.349900  111.751000
  H    -70.820300   36.990100  117.690000
  H    -67.647400   35.622700  110.147000

 Total Charge           Charge          ....    0
 Multiplicity           Mult            ....    1
 Number of Electrons    NEL             ....  134
 Basis Dimension        Dim             ....  322

ORBITAL ENERGIES
----------------

  NO   OCC          E(Eh)            E(eV)
   0   2.0000     -88.962886     -2420.8032
   1   2.0000     -88.960873     -2420.7484
   2   2.0000     -10.326294      -280.9927
   3   2.0000     -10.325532      -280.9720
   4   2.0000     -10.313682      -280.6496
   5   2.0000     -10.312833      -280.6265
   6   2.0000     -10.309930      -280.5475
   7   2.0000     -10.300696      -280.2962
   8   2.0000     -10.294032      -280.1148
   9   2.0000     -10.293495      -280.1002
  10   2.0000     -10.293030      -280.0876
  11   2.0000     -10.288526      -279.9650
  12   2.0000     -10.287996      -279.9506
  13   2.0000     -10.287519      -279.9376
  14   2.0000     -10.279305      -279.7141
  15   2.0000     -10.276644      -279.6417
  16   2.0000      -8.077814      -219.8085
  17   2.0000      -8.076002      -219.7592
  18   2.0000      -6.036402      -164.2588
  19   2.0000      -6.034492      -164.2069
  20   2.0000      -6.032328      -164.1480
  21   2.0000      -6.030598      -164.1009
  22   2.0000      -6.028443      -164.0423
  23   2.0000      -6.026599      -163.9921
  24   2.0000      -1.005449       -27.3597
  25   2.0000      -0.982706       -26.7408
  26   2.0000      -0.917002       -24.9529
  27   2.0000      -0.910985       -24.7892
  28   2.0000      -0.876962       -23.8633
  29   2.0000      -0.848618       -23.0921
  30   2.0000      -0.843542       -22.9539
  31   2.0000      -0.816511       -22.2184
  32   2.0000      -0.783988       -21.3334
  33   2.0000      -0.768863       -20.9218
  34   2.0000      -0.714692       -19.4478
  35   2.0000      -0.696314       -18.9477
  36   2.0000      -0.689659       -18.7666
  37   2.0000      -0.658237       -17.9115
  38   2.0000      -0.642701       -17.4888
  39   2.0000      -0.623044       -16.9539
  40   2.0000      -0.598450       -16.2846
  41   2.0000      -0.570590       -15.5266
  42   2.0000      -0.569075       -15.4853
  43   2.0000      -0.558667       -15.2021
  44   2.0000      -0.531677       -14.4677
  45   2.0000      -0.522077       -14.2064
  46   2.0000      -0.516504       -14.0548
  47   2.0000      -0.507933       -13.8216
  48   2.0000      -0.505073       -13.7437
  49   2.0000      -0.500446       -13.6178
  50   2.0000      -0.492664       -13.4061
  51   2.0000      -0.488341       -13.2884
  52   2.0000      -0.468881       -12.7589
  53   2.0000      -0.465302       -12.6615
  54   2.0000      -0.457964       -12.4618
  55   2.0000      -0.446975       -12.1628
  56   2.0000      -0.443133       -12.0583
  57   2.0000      -0.442424       -12.0390
  58   2.0000      -0.433392       -11.7932
  59   2.0000      -0.426249       -11.5988
  60   2.0000      -0.421702       -11.4751
  61   2.0000      -0.418265       -11.3816
  62   2.0000      -0.408653       -11.1200
  63   2.0000      -0.347198        -9.4477
  64   2.0000      -0.325376        -8.8539
  65   2.0000      -0.323858        -8.8126
  66   2.0000      -0.292087        -7.9481
  67   0.0000       0.030354         0.8260
  68   0.0000       0.066575         1.8116
  69   0.0000       0.108627         2.9559
  70   0.0000       0.126327         3.4375
  71   0.0000       0.131423         3.5762

MULLIKEN ATOMIC CHARGES
-----------------------
   0 S :    0.112241
   1 C :   -0.142947
   2 C :   -0.107941
   3 C :    0.056980
   4 C :   -0.162783
   5 H :   -0.011315
   6 C :    0.122908
   7 H :    0.015009
   8 H :    0.036132
   9 C :   -0.074848
  10 H :    0.035293
  11 H :    0.021882
  12 C :   -0.060912
  13 H :    0.031178
  14 H :    0.018214
  15 H :    0.036505
  16 S :    0.098734
  17 C :   -0.071334
  18 C :   -0.060810
  19 C :   -0.012618
  20 C :   -0.174743
  21 H :    0.026408
  22 C :    0.073259
  23 H :    0.019571
  24 H :    0.029364
  25 C :   -0.101549
  26 H :    0.026853
  27 H :    0.041558
  28 C :   -0.031138
  29 H :    0.030895
  30 H :    0.017866
  31 H :    0.033551
  32 H :    0.066132
  33 H :    0.062402
Sum of atomic charges:   -0.0000000

LOEWDIN ATOMIC CHARGES
----------------------
   0 S :    0.395072
   1 C :   -0.211367
   2 C :   -0.065361
   3 C :   -0.044984
   4 C :   -0.193397
   5 H :    0.016400
   6 C :   -0.029372
   7 H :    0.031943
   8 H :    0.033876
   9 C :   -0.037663
  10 H :    0.033882
  11 H :    0.018025
  12 C :   -0.071039
  13 H :    0.029206
  14 H :    0.022134
  15 H :    0.023808
  16 S :    0.399339
  17 C :   -0.197031
  18 C :   -0.079940
  19 C :   -0.040275
  20 C :   -0.189515
  21 H :    0.035039
  22 C :   -0.036627
  23 H :    0.031344
  24 H :    0.031885
  25 C :   -0.032353
  26 H :    0.017152
  27 H :    0.033289
  28 C :   -0.071842
  29 H :    0.027862
  30 H :    0.024890
  31 H :    0.019966
  32 H :    0.038372
  33 H :    0.037281

  Mayer bond orders larger than 0.100000
B(  0-S ,  1-C ) :   1.1401 B(  0-S ,  4-C ) :   1.1180 B(  1-C ,  2-C ) :   1.6473
B(  1-C , 32-H ) :   0.9551 B(  2-C ,  3-C ) :   1.1973 B(  2-C ,  6-C ) :   1.0204
B(  3-C ,  4-C ) :   1.5986 B(  3-C ,  5-H ) :   1.0026 B(  4-C , 20-C ) :   1.0828
B(  6-C ,  7-H ) :   0.9364 B(  6-C ,  8-H ) :   0.9339 B(  6-C ,  9-C ) :   1.0605
B(  9-C , 10-H ) :   0.9536 B(  9-C , 11-H ) :   0.9606 B(  9-C , 12-C ) :   1.0847
B( 12-C , 13-H ) :   0.9740 B( 12-C , 14-H ) :   0.9720 B( 12-C , 15-H ) :   0.9768
B( 16-S , 17-C ) :   1.1482 B( 16-S , 20-C ) :   1.1330 B( 17-C , 18-C ) :   1.6442
B( 17-C , 33-H ) :   0.9589 B( 18-C , 19-C ) :   1.2098 B( 18-C , 21-H ) :   0.9842
B( 19-C , 20-C ) :   1.5858 B( 19-C , 22-C ) :   1.0728 B( 22-C , 23-H ) :   0.9318
B( 22-C , 24-H ) :   0.9277 B( 22-C , 25-C ) :   1.0554 B( 25-C , 26-H ) :   0.9606
B( 25-C , 27-H ) :   0.9593 B( 25-C , 28-C ) :   1.0777 B( 28-C , 29-H ) :   0.9747
B( 28-C , 30-H ) :   0.9708 B( 28-C , 31-H ) :   0.9760

Dispersion correction           -0.014021336
FINAL SINGLE POINT ENERGY     -1339.875747561558

DIPOLE MOMENT
-------------
                                X             Y             Z
Electronic contribution:     17.54360     -24.46300      -1.61343
Nuclear contribution   :    -18.04728      25.00160       1.47021
                        -----------------------------------------
Total Dipole Moment    :     -0.50368       0.53860      -0.14322
                        -----------------------------------------
Magnitude (a.u.)       :      0.75120
Magnitude (Debye)      :      1.90940

Rotational constants in cm-1:     0.017198     0.008874     0.006961
Rotational constants in MHz :   515.572392   266.029003   208.692637

                             ****ORCA TERMINATED NORMALLY****
TOTAL RUN TIME: 0 days 0 hours 0 minutes 33 seconds 193 msec
