                         Program Version 4.2.1 -  RELEASE  -
|  1> ! wB97X-D3 SP def2-SVP
|  2> %pal
|  3> nprocs 16
|  4> end
|  5>
|  6> * xyz 0 1
|  7> S 	 -4.3263 	 6.78108 	 81.9192
|  8> C 	 -6.03827 	 6.54119 	 81.9509
|  9> C 	 -6.61646 	 7.67154 	 81.4222
| 10> C 	 -5.68636 	 8.74588 	 81.2486
| 11> C 	 -4.43909 	 8.46049 	 81.7205
| 12> H 	 -5.92138 	 9.74279 	 80.856
| 13> C 	 -8.0332 	 7.74777 	 80.8739
| 14> H 	 -8.43424 	 8.77859 	 80.7313
| 15> H 	 -8.65284 	 7.34383 	 81.7685
| 16> C 	 -8.33176 	 6.85137 	 79.6243
| 17> H 	 -9.26488 	 7.15182 	 79.2306
| 18> H 	 -7.46785 	 6.93018 	 78.959
| 19> C 	 -8.45653 	 5.36747 	 79.8689
| 20> H 	 -7.5204 	 4.93119 	 80.2929
| 21> H 	 -9.1464 	 5.32414 	 80.6404
| 22> H 	 -8.64042 	 4.69792 	 78.9957
| 23> S 	 -1.89202 	 8.94108 	 80.7186
| 24> C 	 -1.0171 	 10.3855 	 81.1283
| 25> C 	 -1.828 	 11.1891 	 81.8297
| 26> C 	 -3.06973 	 10.6039 	 82.2642
| 27> C 	 -3.26271 	 9.34584 	 81.7378
| 28> H 	 -1.54937 	 12.2218 	 82.0868
| 29> C 	 -4.07234 	 11.443 	 83.0173
| 30> H 	 -3.68652 	 11.5815 	 84.0181
| 31> H 	 -4.99517 	 10.921 	 83.0715
| 32> C 	 -4.27178 	 12.8125 	 82.5221
| 33> H 	 -4.84893 	 12.7798 	 81.579
| 34> H 	 -3.39399 	 13.2762 	 82.1427
| 35> C 	 -5.00013 	 13.7478 	 83.5078
| 36> H 	 -4.4656 	 13.8448 	 84.4566
| 37> H 	 -5.92337 	 13.1513 	 83.7153
| 38> H 	 -5.28211 	 14.7379 	 83.0942
| 39> H 	 -6.45967 	 5.54699 	 82.1306
| 40> H 	 -0.112423 	 10.6806 	 80.768
| 41> *
| 42>
| 43>                          ****END OF INPUT****

CARTESIAN COORDINATES (ANGSTROEM)
---------------------------------
  S     -4.326300    6.781080   81.919200
  C     -6.038270    6.541190   81.950900
  C     -6.616460    7.671540   81.422200
  C     -5.686360    8.745880   81.248600
  C     -4.439090    8.460490   81.720500
  H     -5.921380    9.742790   80.856000
  C     -8.033200    7.747770   80.873900
  H     -8.434240    8.778590   80.731300
  H     -8.652840    7.343830   81.768500
  C     -8.331760    6.851370   79.624300
  H     -9.264880    7.151820   79.230600
  H     -7.467850    6.930180   78.959000
  C     -8.456530    5.367470   79.868900
  H     -7.520400    4.931190   80.292900
  H     -9.146400    5.324140   80.640400
  H     -8.640420    4.697920   78.995700
  S     -1.892020    8.941080   80.718600
  C     -1.017100   10.385500   81.128300
  C     -1.828000   11.189100   81.829700
  C     -3.069730   10.603900   82.264200
  C     -3.262710    9.345840   81.737800
  H     -1.549370   12.221800   82.086800
  C     -4.072340   11.443000   83.017300
  H     -3.686520   11.581500   84.018100
  H     -4.995170   10.921000   83.071500
  C     -4.271780   12.812500   82.522100
  H     -4.848930   12.779800   81.579000
  H     -3.393990   13.276200   82.142700
  C     -5.000130   13.747800   83.507800
  H     -4.465600   13.844800   84.456600
  H     -5.923370   13.151300   83.715300
  H     -5.282110   14.737900   83.094200
  H     -6.459670    5.546990   82.130600
  H     -0.112423   10.680600   80.768000

 Total Charge           Charge          ....    0
 Multiplicity           Mult            ....    1
 Number of Electrons    NEL             ....  134
 Basis Dimension        Dim             ....  322

ORBITAL ENERGIES
----------------

  NO   OCC          E(Eh)            E(eV)
   0   2.0000     -88.962006     -2420.7793
   1   2.0000     -88.961365     -2420.7618
   2   2.0000     -10.328375      -281.0494
   3   2.0000     -10.326271      -280.9921
   4   2.0000     -10.315740      -280.7056
   5   2.0000     -10.308047      -280.4962
   6   2.0000     -10.304280      -280.3937
   7   2.0000     -10.304048      -280.3874
   8   2.0000     -10.301523      -280.3187
   9   2.0000     -10.294052      -280.1154
  10   2.0000     -10.290019      -280.0057
  11   2.0000     -10.285156      -279.8733
  12   2.0000     -10.285051      -279.8705
  13   2.0000     -10.282960      -279.8136
  14   2.0000     -10.280289      -279.7409
  15   2.0000     -10.275107      -279.5999
  16   2.0000      -8.078566      -219.8290
  17   2.0000      -8.076577      -219.7748
  18   2.0000      -6.036963      -164.2741
  19   2.0000      -6.035245      -164.2274
  20   2.0000      -6.032930      -164.1644
  21   2.0000      -6.031009      -164.1121
  22   2.0000      -6.029194      -164.0627
  23   2.0000      -6.027132      -164.0066
  24   2.0000      -1.017614       -27.6907
  25   2.0000      -0.994686       -27.0668
  26   2.0000      -0.920981       -25.0612
  27   2.0000      -0.912656       -24.8346
  28   2.0000      -0.875120       -23.8132
  29   2.0000      -0.852795       -23.2057
  30   2.0000      -0.844984       -22.9932
  31   2.0000      -0.820712       -22.3327
  32   2.0000      -0.781848       -21.2752
  33   2.0000      -0.775746       -21.1091
  34   2.0000      -0.707123       -19.2418
  35   2.0000      -0.704986       -19.1836
  36   2.0000      -0.695613       -18.9286
  37   2.0000      -0.658637       -17.9224
  38   2.0000      -0.646617       -17.5953
  39   2.0000      -0.619481       -16.8569
  40   2.0000      -0.608100       -16.5472
  41   2.0000      -0.580866       -15.8062
  42   2.0000      -0.568801       -15.4779
  43   2.0000      -0.551934       -15.0189
  44   2.0000      -0.545049       -14.8315
  45   2.0000      -0.532228       -14.4827
  46   2.0000      -0.521847       -14.2002
  47   2.0000      -0.517388       -14.0788
  48   2.0000      -0.508672       -13.8417
  49   2.0000      -0.504813       -13.7367
  50   2.0000      -0.490852       -13.3568
  51   2.0000      -0.487753       -13.2724
  52   2.0000      -0.469386       -12.7726
  53   2.0000      -0.463606       -12.6153
  54   2.0000      -0.459458       -12.5025
  55   2.0000      -0.452328       -12.3085
  56   2.0000      -0.447628       -12.1806
  57   2.0000      -0.440350       -11.9825
  58   2.0000      -0.435606       -11.8534
  59   2.0000      -0.418984       -11.4011
  60   2.0000      -0.415332       -11.3018
  61   2.0000      -0.412846       -11.2341
  62   2.0000      -0.407843       -11.0980
  63   2.0000      -0.349954        -9.5227
  64   2.0000      -0.326547        -8.8858
  65   2.0000      -0.325369        -8.8537
  66   2.0000      -0.300594        -8.1796
  67   0.0000       0.032278         0.8783
  68   0.0000       0.068233         1.8567
  69   0.0000       0.110582         3.0091
  70   0.0000       0.126342         3.4379
  71   0.0000       0.132714         3.6113

MULLIKEN ATOMIC CHARGES
-----------------------
   0 S :    0.107107
   1 C :   -0.130877
   2 C :   -0.077050
   3 C :    0.033746
   4 C :   -0.163846
   5 H :    0.018649
   6 C :   -0.007997
   7 H :    0.036497
   8 H :    0.038864
   9 C :   -0.019844
  10 H :    0.026657
  11 H :    0.036041
  12 C :   -0.055161
  13 H :    0.018681
  14 H :    0.004750
  15 H :    0.049800
  16 S :    0.091102
  17 C :   -0.026102
  18 C :   -0.056687
  19 C :   -0.051421
  20 C :   -0.137636
  21 H :    0.026069
  22 C :    0.135301
  23 H :    0.019363
  24 H :    0.014408
  25 C :   -0.096441
  26 H :    0.018088
  27 H :    0.011019
  28 C :   -0.055505
  29 H :    0.036638
  30 H :    0.029529
  31 H :    0.046085
  32 H :    0.064453
  33 H :    0.015719
Sum of atomic charges:    0.0000000

LOEWDIN ATOMIC CHARGES
----------------------
   0 S :    0.436818
   1 C :   -0.200420
   2 C :   -0.069979
   3 C :   -0.065943
   4 C :   -0.211136
   5 H :    0.033935
   6 C :   -0.040462
   7 H :    0.033035
   8 H :    0.039022
   9 C :   -0.033349
  10 H :    0.020784
  11 H :    0.027699
  12 C :   -0.067692
  13 H :    0.022805
  14 H :    0.010144
  15 H :    0.035182
  16 S :    0.398943
  17 C :   -0.167955
  18 C :   -0.071579
  19 C :   -0.055053
  20 C :   -0.194019
  21 H :    0.032043
  22 C :   -0.028488
  23 H :    0.033675
  24 H :    0.025724
  25 C :   -0.047524
  26 H :    0.025215
  27 H :    0.013173
  28 C :   -0.064425
  29 H :    0.023605
  30 H :    0.030158
  31 H :    0.030809
  32 H :    0.031698
  33 H :    0.013556

  Mayer bond orders larger than 0.100000
B(  0-S ,  1-C ) :   1.1527 B(  0-S ,  4-C ) :   1.1804 B(  1-C ,  2-C ) :   1.5647
B(  1-C ,  4-C ) :   0.1001 B(  1-C , 32-H ) :   0.9732 B(  2-C ,  3-C ) :   1.2644
B(  2-C ,  6-C ) :   1.0162 B(  3-C ,  4-C ) :   1.5380 B(  3-C ,  5-H ) :   0.9994
B(  4-C , 20-C ) :   1.0111 B(  6-C ,  7-H ) :   0.9501 B(  6-C ,  8-H ) :   0.9416
B(  6-C ,  9-C ) :   1.0552 B(  9-C , 10-H ) :   0.9560 B(  9-C , 11-H ) :   0.9574
B(  9-C , 12-C ) :   1.0777 B( 12-C , 13-H ) :   0.9687 B( 12-C , 14-H ) :   0.9754
B( 12-C , 15-H ) :   0.9701 B( 16-S , 17-C ) :   1.1379 B( 16-S , 20-C ) :   1.1401
B( 17-C , 18-C ) :   1.6303 B( 17-C , 33-H ) :   0.9786 B( 18-C , 19-C ) :   1.2300
B( 18-C , 21-H ) :   0.9813 B( 19-C , 20-C ) :   1.6280 B( 19-C , 22-C ) :   1.0509
B( 22-C , 23-H ) :   0.9189 B( 22-C , 24-H ) :   0.9278 B( 22-C , 25-C ) :   1.0649
B( 25-C , 26-H ) :   0.9459 B( 25-C , 27-H ) :   0.9508 B( 25-C , 28-C ) :   1.0782
B( 28-C , 29-H ) :   0.9757 B( 28-C , 30-H ) :   0.9742 B( 28-C , 31-H ) :   0.9733

Dispersion correction           -0.013879461
FINAL SINGLE POINT ENERGY     -1339.860435442511

DIPOLE MOMENT
-------------
                                X             Y             Z
Electronic contribution:     21.42160     -10.68872      -0.88473
Nuclear contribution   :    -21.88065      11.14160       0.74335
                        -----------------------------------------
Total Dipole Moment    :     -0.45906       0.45288      -0.14138
                        -----------------------------------------
Magnitude (a.u.)       :      0.66017
Magnitude (Debye)      :      1.67801

Rotational constants in cm-1:     0.020442     0.007859     0.006221
Rotational constants in MHz :   612.827704   235.607432   186.510736

                             ****ORCA TERMINATED NORMALLY****
TOTAL RUN TIME: 0 days 0 hours 0 minutes 34 seconds 108 msec
