                         Program Version 4.2.1 -  RELEASE  -
|  1> ! wB97X-D3 SP def2-SVP
|  2> %pal
|  3> nprocs 16
|  4> end
|  5>
|  6> * xyz 0 1
|  7> S 	 -44.363 	 29.9129 	 88.9746
|  8> C 	 -44.752 	 29.4731 	 90.5861
|  9> C 	 -45.9144 	 30.064 	 91.0574
| 10> C 	 -46.4851 	 30.9357 	 90.1018
| 11> C 	 -45.7276 	 31.1055 	 88.9857
| 12> H 	 -47.4577 	 31.4357 	 90.1481
| 13> C 	 -46.5192 	 29.9292 	 92.357
| 14> H 	 -46.6319 	 30.8076 	 92.9612
| 15> H 	 -45.7933 	 29.2113 	 92.8256
| 16> C 	 -47.9143 	 29.2068 	 92.3889
| 17> H 	 -48.6038 	 29.8925 	 91.7742
| 18> H 	 -47.7714 	 28.2355 	 91.858
| 19> C 	 -48.2459 	 28.8215 	 93.8461
| 20> H 	 -47.5357 	 28.0981 	 94.128
| 21> H 	 -48.0809 	 29.6636 	 94.5306
| 22> H 	 -49.2933 	 28.4299 	 93.922
| 23> S 	 -46.1754 	 31.1868 	 86.2054
| 24> C 	 -46.6652 	 32.7309 	 85.4467
| 25> C 	 -46.6708 	 33.7096 	 86.4263
| 26> C 	 -46.3098 	 33.3146 	 87.777
| 27> C 	 -45.9683 	 31.9874 	 87.8098
| 28> H 	 -46.9289 	 34.6785 	 86.0831
| 29> C 	 -46.436 	 34.3225 	 88.8933
| 30> H 	 -45.4357 	 34.2435 	 89.3608
| 31> H 	 -47.0647 	 33.8602 	 89.6006
| 32> C 	 -46.7956 	 35.7956 	 88.558
| 33> H 	 -47.7757 	 35.7608 	 88.0578
| 34> H 	 -45.996 	 36.1081 	 87.9306
| 35> C 	 -46.6528 	 36.6747 	 89.7604
| 36> H 	 -45.6874 	 36.6711 	 90.2522
| 37> H 	 -47.3979 	 36.5562 	 90.5267
| 38> H 	 -46.8385 	 37.6858 	 89.4091
| 39> H 	 -44.1471 	 28.8606 	 91.2646
| 40> H 	 -46.8827 	 32.9601 	 84.4165
| 41> *
| 42>
| 43>                          ****END OF INPUT****

CARTESIAN COORDINATES (ANGSTROEM)
---------------------------------
  S    -44.363000   29.912900   88.974600
  C    -44.752000   29.473100   90.586100
  C    -45.914400   30.064000   91.057400
  C    -46.485100   30.935700   90.101800
  C    -45.727600   31.105500   88.985700
  H    -47.457700   31.435700   90.148100
  C    -46.519200   29.929200   92.357000
  H    -46.631900   30.807600   92.961200
  H    -45.793300   29.211300   92.825600
  C    -47.914300   29.206800   92.388900
  H    -48.603800   29.892500   91.774200
  H    -47.771400   28.235500   91.858000
  C    -48.245900   28.821500   93.846100
  H    -47.535700   28.098100   94.128000
  H    -48.080900   29.663600   94.530600
  H    -49.293300   28.429900   93.922000
  S    -46.175400   31.186800   86.205400
  C    -46.665200   32.730900   85.446700
  C    -46.670800   33.709600   86.426300
  C    -46.309800   33.314600   87.777000
  C    -45.968300   31.987400   87.809800
  H    -46.928900   34.678500   86.083100
  C    -46.436000   34.322500   88.893300
  H    -45.435700   34.243500   89.360800
  H    -47.064700   33.860200   89.600600
  C    -46.795600   35.795600   88.558000
  H    -47.775700   35.760800   88.057800
  H    -45.996000   36.108100   87.930600
  C    -46.652800   36.674700   89.760400
  H    -45.687400   36.671100   90.252200
  H    -47.397900   36.556200   90.526700
  H    -46.838500   37.685800   89.409100
  H    -44.147100   28.860600   91.264600
  H    -46.882700   32.960100   84.416500

 Total Charge           Charge          ....    0
 Multiplicity           Mult            ....    1
 Number of Electrons    NEL             ....  134
 Basis Dimension        Dim             ....  322

ORBITAL ENERGIES
----------------

  NO   OCC          E(Eh)            E(eV)
   0   2.0000     -88.965167     -2420.8653
   1   2.0000     -88.962407     -2420.7902
   2   2.0000     -10.331391      -281.1314
   3   2.0000     -10.328762      -281.0599
   4   2.0000     -10.318914      -280.7919
   5   2.0000     -10.314251      -280.6650
   6   2.0000     -10.305055      -280.4148
   7   2.0000     -10.297408      -280.2067
   8   2.0000     -10.293440      -280.0987
   9   2.0000     -10.291403      -280.0433
  10   2.0000     -10.291064      -280.0341
  11   2.0000     -10.289729      -279.9978
  12   2.0000     -10.288969      -279.9771
  13   2.0000     -10.287833      -279.9462
  14   2.0000     -10.282427      -279.7991
  15   2.0000     -10.277216      -279.6573
  16   2.0000      -8.079723      -219.8605
  17   2.0000      -8.075662      -219.7499
  18   2.0000      -6.038203      -164.3079
  19   2.0000      -6.034533      -164.2080
  20   2.0000      -6.034352      -164.2031
  21   2.0000      -6.030429      -164.0963
  22   2.0000      -6.030393      -164.0953
  23   2.0000      -6.026107      -163.9787
  24   2.0000      -1.001635       -27.2559
  25   2.0000      -0.978914       -26.6376
  26   2.0000      -0.914779       -24.8924
  27   2.0000      -0.912451       -24.8291
  28   2.0000      -0.867594       -23.6084
  29   2.0000      -0.854665       -23.2566
  30   2.0000      -0.848905       -23.0999
  31   2.0000      -0.816961       -22.2306
  32   2.0000      -0.781354       -21.2617
  33   2.0000      -0.767879       -20.8951
  34   2.0000      -0.712395       -19.3853
  35   2.0000      -0.703403       -19.1406
  36   2.0000      -0.690696       -18.7948
  37   2.0000      -0.651220       -17.7206
  38   2.0000      -0.641816       -17.4647
  39   2.0000      -0.620154       -16.8753
  40   2.0000      -0.591706       -16.1011
  41   2.0000      -0.581902       -15.8344
  42   2.0000      -0.580000       -15.7826
  43   2.0000      -0.555515       -15.1163
  44   2.0000      -0.531971       -14.4757
  45   2.0000      -0.521414       -14.1884
  46   2.0000      -0.517350       -14.0778
  47   2.0000      -0.507793       -13.8177
  48   2.0000      -0.502419       -13.6715
  49   2.0000      -0.498560       -13.5665
  50   2.0000      -0.497862       -13.5475
  51   2.0000      -0.485630       -13.2147
  52   2.0000      -0.469693       -12.7810
  53   2.0000      -0.465655       -12.6711
  54   2.0000      -0.462409       -12.5828
  55   2.0000      -0.444925       -12.1070
  56   2.0000      -0.442794       -12.0490
  57   2.0000      -0.435530       -11.8514
  58   2.0000      -0.428629       -11.6636
  59   2.0000      -0.426708       -11.6113
  60   2.0000      -0.420574       -11.4444
  61   2.0000      -0.419061       -11.4032
  62   2.0000      -0.412901       -11.2356
  63   2.0000      -0.348203        -9.4751
  64   2.0000      -0.326805        -8.8928
  65   2.0000      -0.325160        -8.8481
  66   2.0000      -0.292192        -7.9509
  67   0.0000       0.031837         0.8663
  68   0.0000       0.064913         1.7664
  69   0.0000       0.108281         2.9465
  70   0.0000       0.123417         3.3583
  71   0.0000       0.130786         3.5589

MULLIKEN ATOMIC CHARGES
-----------------------
   0 S :    0.107815
   1 C :   -0.102255
   2 C :   -0.069660
   3 C :    0.019707
   4 C :   -0.173562
   5 H :    0.029370
   6 C :    0.025216
   7 H :    0.036800
   8 H :    0.006780
   9 C :   -0.127377
  10 H :    0.047190
  11 H :    0.039099
  12 C :   -0.018827
  13 H :    0.022597
  14 H :    0.026660
  15 H :    0.052371
  16 S :    0.087612
  17 C :   -0.076213
  18 C :   -0.062619
  19 C :   -0.032528
  20 C :   -0.147783
  21 H :    0.004968
  22 C :    0.070487
  23 H :    0.033403
  24 H :    0.009648
  25 C :   -0.060318
  26 H :    0.049234
  27 H :    0.032273
  28 C :   -0.011035
  29 H :    0.035023
  30 H :    0.021108
  31 H :    0.023973
  32 H :    0.047935
  33 H :    0.052910
Sum of atomic charges:    0.0000000

LOEWDIN ATOMIC CHARGES
----------------------
   0 S :    0.390951
   1 C :   -0.204582
   2 C :   -0.074084
   3 C :   -0.058507
   4 C :   -0.170242
   5 H :    0.036614
   6 C :   -0.040106
   7 H :    0.026996
   8 H :    0.031711
   9 C :   -0.042743
  10 H :    0.026732
  11 H :    0.029037
  12 C :   -0.063235
  13 H :    0.021237
  14 H :    0.023927
  15 H :    0.034727
  16 S :    0.362044
  17 C :   -0.172729
  18 C :   -0.073465
  19 C :   -0.051376
  20 C :   -0.189024
  21 H :    0.021415
  22 C :   -0.034885
  23 H :    0.041803
  24 H :    0.022312
  25 C :   -0.036686
  26 H :    0.031717
  27 H :    0.027696
  28 C :   -0.060190
  29 H :    0.029168
  30 H :    0.021097
  31 H :    0.028695
  32 H :    0.031491
  33 H :    0.032483

  Mayer bond orders larger than 0.100000
B(  0-S ,  1-C ) :   1.1388 B(  0-S ,  4-C ) :   1.1296 B(  1-C ,  2-C ) :   1.6274
B(  1-C , 32-H ) :   0.9544 B(  2-C ,  3-C ) :   1.2086 B(  2-C ,  6-C ) :   1.0423
B(  3-C ,  4-C ) :   1.6256 B(  3-C ,  5-H ) :   0.9838 B(  4-C , 20-C ) :   1.0130
B(  6-C ,  7-H ) :   0.9403 B(  6-C ,  8-H ) :   0.9357 B(  6-C ,  9-C ) :   1.0482
B(  9-C , 10-H ) :   0.9584 B(  9-C , 11-H ) :   0.9569 B(  9-C , 12-C ) :   1.0680
B( 12-C , 13-H ) :   0.9734 B( 12-C , 14-H ) :   0.9737 B( 12-C , 15-H ) :   0.9737
B( 16-S , 17-C ) :   1.1267 B( 16-S , 20-C ) :   1.1194 B( 17-C , 18-C ) :   1.6473
B( 17-C , 33-H ) :   0.9638 B( 18-C , 19-C ) :   1.2079 B( 18-C , 21-H ) :   0.9856
B( 19-C , 20-C ) :   1.6422 B( 19-C , 22-C ) :   1.0128 B( 22-C , 23-H ) :   0.9223
B( 22-C , 24-H ) :   0.9222 B( 22-C , 25-C ) :   1.0845 B( 25-C , 26-H ) :   0.9459
B( 25-C , 27-H ) :   0.9461 B( 25-C , 28-C ) :   1.0920 B( 28-C , 29-H ) :   0.9716
B( 28-C , 30-H ) :   0.9723 B( 28-C , 31-H ) :   0.9694

Dispersion correction           -0.013284889
FINAL SINGLE POINT ENERGY     -1339.864184063741

DIPOLE MOMENT
-------------
                                X             Y             Z
Electronic contribution:     12.19549     -11.95840     -22.70983
Nuclear contribution   :    -12.57325      12.50703      23.24941
                        -----------------------------------------
Total Dipole Moment    :     -0.37776       0.54863       0.53958
                        -----------------------------------------
Magnitude (a.u.)       :      0.85723
Magnitude (Debye)      :      2.17891

Rotational constants in cm-1:     0.016679     0.007982     0.006203
Rotational constants in MHz :   500.033516   239.279383   185.959574

                             ****ORCA TERMINATED NORMALLY****
TOTAL RUN TIME: 0 days 0 hours 0 minutes 29 seconds 98 msec
