                         Program Version 4.2.1 -  RELEASE  -
|  1> ! wB97X-D3 SP def2-SVP
|  2> %pal
|  3> nprocs 16
|  4> end
|  5>
|  6> * xyz 0 1
|  7> S 	 36.5649 	 6.46127 	 89.259
|  8> C 	 36.4383 	 5.73135 	 87.6882
|  9> C 	 37.5193 	 5.99077 	 86.8456
| 10> C 	 38.6374 	 6.57659 	 87.5732
| 11> C 	 38.2558 	 6.95504 	 88.8838
| 12> H 	 39.6324 	 6.74756 	 87.2946
| 13> C 	 37.6031 	 5.52943 	 85.4251
| 14> H 	 38.3757 	 5.94673 	 84.8446
| 15> H 	 36.676 	 5.85045 	 84.9523
| 16> C 	 38.0138 	 3.99957 	 85.2539
| 17> H 	 37.2409 	 3.49342 	 85.7837
| 18> H 	 37.8909 	 3.76511 	 84.1914
| 19> C 	 39.3146 	 3.5553 	 85.9337
| 20> H 	 39.3761 	 2.5942 	 86.3648
| 21> H 	 40.0115 	 3.69089 	 85.1637
| 22> H 	 39.6231 	 4.13425 	 86.7673
| 23> S 	 39.5772 	 6.22906 	 91.1102
| 24> C 	 40.5457 	 7.39719 	 92.0018
| 25> C 	 40.527 	 8.66519 	 91.441
| 26> C 	 39.6469 	 8.71205 	 90.2942
| 27> C 	 39.157 	 7.44659 	 89.8905
| 28> H 	 41.1962 	 9.46569 	 91.8759
| 29> C 	 39.3685 	 9.99344 	 89.4102
| 30> H 	 38.7431 	 9.63648 	 88.5269
| 31> H 	 40.3706 	 10.1182 	 88.9206
| 32> C 	 38.7394 	 11.2218 	 90.0801
| 33> H 	 39.4649 	 11.5875 	 90.8231
| 34> H 	 37.8577 	 10.9236 	 90.5943
| 35> C 	 38.3413 	 12.3326 	 89.0796
| 36> H 	 37.9066 	 13.0913 	 89.6638
| 37> H 	 37.5413 	 11.9653 	 88.4755
| 38> H 	 39.1977 	 12.676 	 88.527
| 39> H 	 35.5186 	 5.28443 	 87.3613
| 40> H 	 41.0625 	 7.26515 	 92.9337
| 41> *
| 42>
| 43>                          ****END OF INPUT****

CARTESIAN COORDINATES (ANGSTROEM)
---------------------------------
  S     36.564900    6.461270   89.259000
  C     36.438300    5.731350   87.688200
  C     37.519300    5.990770   86.845600
  C     38.637400    6.576590   87.573200
  C     38.255800    6.955040   88.883800
  H     39.632400    6.747560   87.294600
  C     37.603100    5.529430   85.425100
  H     38.375700    5.946730   84.844600
  H     36.676000    5.850450   84.952300
  C     38.013800    3.999570   85.253900
  H     37.240900    3.493420   85.783700
  H     37.890900    3.765110   84.191400
  C     39.314600    3.555300   85.933700
  H     39.376100    2.594200   86.364800
  H     40.011500    3.690890   85.163700
  H     39.623100    4.134250   86.767300
  S     39.577200    6.229060   91.110200
  C     40.545700    7.397190   92.001800
  C     40.527000    8.665190   91.441000
  C     39.646900    8.712050   90.294200
  C     39.157000    7.446590   89.890500
  H     41.196200    9.465690   91.875900
  C     39.368500    9.993440   89.410200
  H     38.743100    9.636480   88.526900
  H     40.370600   10.118200   88.920600
  C     38.739400   11.221800   90.080100
  H     39.464900   11.587500   90.823100
  H     37.857700   10.923600   90.594300
  C     38.341300   12.332600   89.079600
  H     37.906600   13.091300   89.663800
  H     37.541300   11.965300   88.475500
  H     39.197700   12.676000   88.527000
  H     35.518600    5.284430   87.361300
  H     41.062500    7.265150   92.933700

 Total Charge           Charge          ....    0
 Multiplicity           Mult            ....    1
 Number of Electrons    NEL             ....  134
 Basis Dimension        Dim             ....  322

ORBITAL ENERGIES
----------------

  NO   OCC          E(Eh)            E(eV)
   0   2.0000     -88.968259     -2420.9494
   1   2.0000     -88.962612     -2420.7957
   2   2.0000     -10.331595      -281.1370
   3   2.0000     -10.324583      -280.9462
   4   2.0000     -10.316993      -280.7397
   5   2.0000     -10.314788      -280.6797
   6   2.0000     -10.312715      -280.6232
   7   2.0000     -10.305189      -280.4184
   8   2.0000     -10.300399      -280.2881
   9   2.0000     -10.299398      -280.2609
  10   2.0000     -10.297668      -280.2138
  11   2.0000     -10.288322      -279.9595
  12   2.0000     -10.285718      -279.8886
  13   2.0000     -10.284574      -279.8575
  14   2.0000     -10.270636      -279.4782
  15   2.0000     -10.265413      -279.3361
  16   2.0000      -8.082344      -219.9318
  17   2.0000      -8.076890      -219.7833
  18   2.0000      -6.040785      -164.3781
  19   2.0000      -6.037000      -164.2751
  20   2.0000      -6.035414      -164.2320
  21   2.0000      -6.033147      -164.1703
  22   2.0000      -6.031432      -164.1236
  23   2.0000      -6.027663      -164.0211
  24   2.0000      -0.997076       -27.1318
  25   2.0000      -0.974090       -26.5063
  26   2.0000      -0.907501       -24.6944
  27   2.0000      -0.899575       -24.4787
  28   2.0000      -0.868258       -23.6265
  29   2.0000      -0.847583       -23.0639
  30   2.0000      -0.843852       -22.9624
  31   2.0000      -0.814395       -22.1608
  32   2.0000      -0.783195       -21.3118
  33   2.0000      -0.767272       -20.8785
  34   2.0000      -0.704875       -19.1806
  35   2.0000      -0.703386       -19.1401
  36   2.0000      -0.693284       -18.8652
  37   2.0000      -0.651190       -17.7198
  38   2.0000      -0.647095       -17.6083
  39   2.0000      -0.607955       -16.5433
  40   2.0000      -0.584923       -15.9166
  41   2.0000      -0.576038       -15.6748
  42   2.0000      -0.564379       -15.3575
  43   2.0000      -0.547193       -14.8899
  44   2.0000      -0.542263       -14.7557
  45   2.0000      -0.525231       -14.2923
  46   2.0000      -0.514014       -13.9870
  47   2.0000      -0.512571       -13.9478
  48   2.0000      -0.501839       -13.6557
  49   2.0000      -0.495900       -13.4941
  50   2.0000      -0.488342       -13.2885
  51   2.0000      -0.474890       -12.9224
  52   2.0000      -0.471748       -12.8369
  53   2.0000      -0.465919       -12.6783
  54   2.0000      -0.457686       -12.4543
  55   2.0000      -0.449373       -12.2281
  56   2.0000      -0.445141       -12.1129
  57   2.0000      -0.437504       -11.9051
  58   2.0000      -0.435447       -11.8491
  59   2.0000      -0.427083       -11.6215
  60   2.0000      -0.418887       -11.3985
  61   2.0000      -0.407050       -11.0764
  62   2.0000      -0.399883       -10.8814
  63   2.0000      -0.338339        -9.2067
  64   2.0000      -0.326034        -8.8718
  65   2.0000      -0.317413        -8.6373
  66   2.0000      -0.301809        -8.2127
  67   0.0000       0.034977         0.9518
  68   0.0000       0.052574         1.4306
  69   0.0000       0.110622         3.0102
  70   0.0000       0.123270         3.3544
  71   0.0000       0.126251         3.4355

MULLIKEN ATOMIC CHARGES
-----------------------
   0 S :    0.124053
   1 C :   -0.120000
   2 C :   -0.078351
   3 C :    0.068501
   4 C :   -0.185775
   5 H :    0.004208
   6 C :    0.066526
   7 H :    0.007527
   8 H :    0.033398
   9 C :   -0.068099
  10 H :    0.010844
  11 H :    0.037214
  12 C :   -0.010677
  13 H :    0.029172
  14 H :    0.018743
  15 H :    0.021698
  16 S :    0.104654
  17 C :   -0.080876
  18 C :   -0.064728
  19 C :   -0.019250
  20 C :   -0.189244
  21 H :    0.047779
  22 C :    0.005988
  23 H :    0.031593
  24 H :    0.041162
  25 C :   -0.070672
  26 H :    0.029421
  27 H :    0.027423
  28 C :   -0.004677
  29 H :    0.021712
  30 H :    0.028634
  31 H :    0.035131
  32 H :    0.046888
  33 H :    0.050080
Sum of atomic charges:    0.0000000

LOEWDIN ATOMIC CHARGES
----------------------
   0 S :    0.394976
   1 C :   -0.193950
   2 C :   -0.061028
   3 C :   -0.038598
   4 C :   -0.194689
   5 H :    0.025079
   6 C :   -0.033327
   7 H :    0.021435
   8 H :    0.033876
   9 C :   -0.030005
  10 H :    0.013448
  11 H :    0.024937
  12 C :   -0.059779
  13 H :    0.027326
  14 H :    0.021024
  15 H :    0.026901
  16 S :    0.395085
  17 C :   -0.179478
  18 C :   -0.087449
  19 C :   -0.046686
  20 C :   -0.209244
  21 H :    0.045026
  22 C :   -0.042864
  23 H :    0.033467
  24 H :    0.035178
  25 C :   -0.038180
  26 H :    0.023347
  27 H :    0.023335
  28 C :   -0.051512
  29 H :    0.022308
  30 H :    0.024765
  31 H :    0.024575
  32 H :    0.022951
  33 H :    0.027750

  Mayer bond orders larger than 0.100000
B(  0-S ,  1-C ) :   1.1472 B(  0-S ,  4-C ) :   1.1360 B(  1-C ,  2-C ) :   1.6074
B(  1-C , 32-H ) :   0.9661 B(  2-C ,  3-C ) :   1.2066 B(  2-C ,  6-C ) :   1.0422
B(  3-C ,  4-C ) :   1.5819 B(  3-C ,  5-H ) :   0.9949 B(  4-C , 20-C ) :   1.0537
B(  6-C ,  7-H ) :   0.9460 B(  6-C ,  8-H ) :   0.9395 B(  6-C ,  9-C ) :   1.0481
B(  9-C , 10-H ) :   0.9619 B(  9-C , 11-H ) :   0.9657 B(  9-C , 12-C ) :   1.0556
B( 12-C , 13-H ) :   0.9743 B( 12-C , 14-H ) :   0.9779 B( 12-C , 15-H ) :   0.9712
B( 16-S , 17-C ) :   1.1568 B( 16-S , 20-C ) :   1.1272 B( 17-C , 18-C ) :   1.6317
B( 17-C , 20-C ) :   0.1021 B( 17-C , 33-H ) :   0.9637 B( 18-C , 19-C ) :   1.2244
B( 18-C , 21-H ) :   0.9795 B( 19-C , 20-C ) :   1.6006 B( 19-C , 22-C ) :   1.0205
B( 22-C , 23-H ) :   0.9408 B( 22-C , 24-H ) :   0.9421 B( 22-C , 25-C ) :   1.0525
B( 25-C , 26-H ) :   0.9554 B( 25-C , 27-H ) :   0.9556 B( 25-C , 28-C ) :   1.0926
B( 28-C , 29-H ) :   0.9730 B( 28-C , 30-H ) :   0.9740 B( 28-C , 31-H ) :   0.9763

Dispersion correction           -0.014108525
FINAL SINGLE POINT ENERGY     -1339.853297040435

DIPOLE MOMENT
-------------
                                X             Y             Z
Electronic contribution:     -3.27870      -8.31341      16.32314
Nuclear contribution   :      3.44309       8.58109     -16.65144
                        -----------------------------------------
Total Dipole Moment    :      0.16439       0.26768      -0.32830
                        -----------------------------------------
Magnitude (a.u.)       :      0.45438
Magnitude (Debye)      :      1.15493

Rotational constants in cm-1:     0.018872     0.008025     0.006797
Rotational constants in MHz :   565.758381   240.593175   203.763330

                             ****ORCA TERMINATED NORMALLY****
TOTAL RUN TIME: 0 days 0 hours 0 minutes 29 seconds 352 msec
