                         Program Version 4.2.1 -  RELEASE  -
|  1> ! wB97X-D3 SP def2-SVP
|  2> %pal
|  3> nprocs 16
|  4> end
|  5>
|  6> * xyz 0 1
|  7> S 	 -5.27074 	 64.5177 	 53.3701
|  8> C 	 -5.96416 	 63.4787 	 52.2233
|  9> C 	 -6.36008 	 64.1401 	 51.0909
| 10> C 	 -6.14971 	 65.5428 	 51.1155
| 11> C 	 -5.57797 	 65.8673 	 52.3754
| 12> H 	 -6.20325 	 66.2345 	 50.3621
| 13> C 	 -7.08677 	 63.4947 	 49.8774
| 14> H 	 -7.86972 	 64.2413 	 49.5247
| 15> H 	 -7.53218 	 62.6541 	 50.2183
| 16> C 	 -6.15465 	 63.186 	 48.6646
| 17> H 	 -5.50721 	 62.3188 	 48.96
| 18> H 	 -6.8451 	 62.8065 	 47.9076
| 19> C 	 -5.42872 	 64.3561 	 47.9879
| 20> H 	 -4.55157 	 64.7191 	 48.6549
| 21> H 	 -4.93609 	 63.865 	 47.1142
| 22> H 	 -6.15034 	 65.0857 	 47.7015
| 23> S 	 -3.78485 	 67.5162 	 53.6326
| 24> C 	 -4.22769 	 69.1678 	 54.0655
| 25> C 	 -5.45818 	 69.457 	 53.565
| 26> C 	 -6.10909 	 68.3798 	 52.9444
| 27> C 	 -5.34624 	 67.2268 	 52.8797
| 28> H 	 -5.89876 	 70.4694 	 53.5651
| 29> C 	 -7.55276 	 68.6242 	 52.5202
| 30> H 	 -7.78363 	 67.5902 	 52.1106
| 31> H 	 -7.6504 	 69.326 	 51.6879
| 32> C 	 -8.47747 	 68.8268 	 53.8137
| 33> H 	 -8.16359 	 69.7101 	 54.3906
| 34> H 	 -8.26627 	 68.0616 	 54.5692
| 35> C 	 -9.88437 	 68.959 	 53.41
| 36> H 	 -10.4367 	 68.856 	 54.378
| 37> H 	 -10.2584 	 68.1688 	 52.7172
| 38> H 	 -10.2322 	 69.908 	 52.9923
| 39> H 	 -6.01069 	 62.4647 	 52.3311
| 40> H 	 -3.59518 	 69.8472 	 54.615
| 41> *
| 42>
| 43>                          ****END OF INPUT****

CARTESIAN COORDINATES (ANGSTROEM)
---------------------------------
  S     -5.270740   64.517700   53.370100
  C     -5.964160   63.478700   52.223300
  C     -6.360080   64.140100   51.090900
  C     -6.149710   65.542800   51.115500
  C     -5.577970   65.867300   52.375400
  H     -6.203250   66.234500   50.362100
  C     -7.086770   63.494700   49.877400
  H     -7.869720   64.241300   49.524700
  H     -7.532180   62.654100   50.218300
  C     -6.154650   63.186000   48.664600
  H     -5.507210   62.318800   48.960000
  H     -6.845100   62.806500   47.907600
  C     -5.428720   64.356100   47.987900
  H     -4.551570   64.719100   48.654900
  H     -4.936090   63.865000   47.114200
  H     -6.150340   65.085700   47.701500
  S     -3.784850   67.516200   53.632600
  C     -4.227690   69.167800   54.065500
  C     -5.458180   69.457000   53.565000
  C     -6.109090   68.379800   52.944400
  C     -5.346240   67.226800   52.879700
  H     -5.898760   70.469400   53.565100
  C     -7.552760   68.624200   52.520200
  H     -7.783630   67.590200   52.110600
  H     -7.650400   69.326000   51.687900
  C     -8.477470   68.826800   53.813700
  H     -8.163590   69.710100   54.390600
  H     -8.266270   68.061600   54.569200
  C     -9.884370   68.959000   53.410000
  H    -10.436700   68.856000   54.378000
  H    -10.258400   68.168800   52.717200
  H    -10.232200   69.908000   52.992300
  H     -6.010690   62.464700   52.331100
  H     -3.595180   69.847200   54.615000

 Total Charge           Charge          ....    0
 Multiplicity           Mult            ....    1
 Number of Electrons    NEL             ....  134
 Basis Dimension        Dim             ....  322

ORBITAL ENERGIES
----------------

  NO   OCC          E(Eh)            E(eV)
   0   2.0000     -88.968917     -2420.9673
   1   2.0000     -88.959947     -2420.7232
   2   2.0000     -10.327987      -281.0388
   3   2.0000     -10.324522      -280.9445
   4   2.0000     -10.313965      -280.6573
   5   2.0000     -10.300671      -280.2955
   6   2.0000     -10.297270      -280.2030
   7   2.0000     -10.295167      -280.1457
   8   2.0000     -10.294988      -280.1409
   9   2.0000     -10.289724      -279.9976
  10   2.0000     -10.289275      -279.9854
  11   2.0000     -10.289088      -279.9803
  12   2.0000     -10.288541      -279.9654
  13   2.0000     -10.286456      -279.9087
  14   2.0000     -10.286230      -279.9025
  15   2.0000     -10.277728      -279.6712
  16   2.0000      -8.085237      -220.0105
  17   2.0000      -8.074707      -219.7239
  18   2.0000      -6.043502      -164.4520
  19   2.0000      -6.039437      -164.3414
  20   2.0000      -6.036249      -164.2547
  21   2.0000      -6.033239      -164.1728
  22   2.0000      -6.029195      -164.0627
  23   2.0000      -6.025464      -163.9612
  24   2.0000      -1.011997       -27.5378
  25   2.0000      -0.987893       -26.8819
  26   2.0000      -0.907151       -24.6848
  27   2.0000      -0.903219       -24.5778
  28   2.0000      -0.868535       -23.6340
  29   2.0000      -0.854577       -23.2542
  30   2.0000      -0.848056       -23.0768
  31   2.0000      -0.814352       -22.1597
  32   2.0000      -0.781818       -21.2743
  33   2.0000      -0.765659       -20.8346
  34   2.0000      -0.701770       -19.0961
  35   2.0000      -0.697481       -18.9794
  36   2.0000      -0.690640       -18.7933
  37   2.0000      -0.663127       -18.0446
  38   2.0000      -0.650801       -17.7092
  39   2.0000      -0.612205       -16.6589
  40   2.0000      -0.591493       -16.0953
  41   2.0000      -0.571568       -15.5532
  42   2.0000      -0.553702       -15.0670
  43   2.0000      -0.552865       -15.0442
  44   2.0000      -0.536738       -14.6054
  45   2.0000      -0.526300       -14.3213
  46   2.0000      -0.523743       -14.2518
  47   2.0000      -0.514122       -13.9900
  48   2.0000      -0.506402       -13.7799
  49   2.0000      -0.500585       -13.6216
  50   2.0000      -0.488826       -13.3016
  51   2.0000      -0.485809       -13.2195
  52   2.0000      -0.474553       -12.9133
  53   2.0000      -0.462854       -12.5949
  54   2.0000      -0.460672       -12.5355
  55   2.0000      -0.448899       -12.2152
  56   2.0000      -0.437877       -11.9152
  57   2.0000      -0.436487       -11.8774
  58   2.0000      -0.428916       -11.6714
  59   2.0000      -0.427315       -11.6278
  60   2.0000      -0.412033       -11.2120
  61   2.0000      -0.407595       -11.0912
  62   2.0000      -0.403449       -10.9784
  63   2.0000      -0.344410        -9.3719
  64   2.0000      -0.332860        -9.0576
  65   2.0000      -0.327600        -8.9144
  66   2.0000      -0.290121        -7.8946
  67   0.0000       0.032690         0.8895
  68   0.0000       0.077354         2.1049
  69   0.0000       0.112872         3.0714
  70   0.0000       0.118673         3.2293
  71   0.0000       0.142269         3.8713

MULLIKEN ATOMIC CHARGES
-----------------------
   0 S :    0.142871
   1 C :   -0.087003
   2 C :   -0.090489
   3 C :    0.059184
   4 C :   -0.163266
   5 H :   -0.013011
   6 C :    0.100902
   7 H :    0.032175
   8 H :   -0.008781
   9 C :   -0.105325
  10 H :    0.034852
  11 H :    0.027668
  12 C :   -0.066440
  13 H :    0.062380
  14 H :    0.044538
  15 H :    0.037200
  16 S :    0.082368
  17 C :   -0.085266
  18 C :   -0.032388
  19 C :   -0.048912
  20 C :   -0.164426
  21 H :    0.028648
  22 C :    0.037481
  23 H :    0.027641
  24 H :    0.044309
  25 C :   -0.081648
  26 H :    0.025968
  27 H :    0.039922
  28 C :   -0.038899
  29 H :    0.031456
  30 H :    0.036088
  31 H :    0.033336
  32 H :    0.003223
  33 H :    0.053645
Sum of atomic charges:    0.0000000

LOEWDIN ATOMIC CHARGES
----------------------
   0 S :    0.458723
   1 C :   -0.210572
   2 C :   -0.056434
   3 C :   -0.051005
   4 C :   -0.204969
   5 H :    0.018293
   6 C :   -0.022360
   7 H :    0.035316
   8 H :    0.010893
   9 C :   -0.046260
  10 H :    0.026370
  11 H :    0.022386
  12 C :   -0.071735
  13 H :    0.039245
  14 H :    0.035348
  15 H :    0.020787
  16 S :    0.386449
  17 C :   -0.177078
  18 C :   -0.075960
  19 C :   -0.067798
  20 C :   -0.199962
  21 H :    0.036433
  22 C :   -0.035917
  23 H :    0.034955
  24 H :    0.030704
  25 C :   -0.042071
  26 H :    0.024311
  27 H :    0.032796
  28 C :   -0.074758
  29 H :    0.033661
  30 H :    0.028365
  31 H :    0.025145
  32 H :    0.008477
  33 H :    0.028221

  Mayer bond orders larger than 0.100000
B(  0-S ,  1-C ) :   1.1474 B(  0-S ,  4-C ) :   1.2035 B(  1-C ,  2-C ) :   1.5966
B(  1-C , 32-H ) :   0.9797 B(  2-C ,  3-C ) :   1.2564 B(  2-C ,  6-C ) :   1.0079
B(  3-C ,  4-C ) :   1.5165 B(  3-C ,  5-H ) :   1.0133 B(  4-C , 20-C ) :   1.0191
B(  6-C ,  7-H ) :   0.9467 B(  6-C ,  8-H ) :   0.9356 B(  6-C ,  9-C ) :   1.0765
B(  9-C , 10-H ) :   0.9549 B(  9-C , 11-H ) :   0.9566 B(  9-C , 12-C ) :   1.0790
B( 12-C , 13-H ) :   0.9694 B( 12-C , 14-H ) :   0.9716 B( 12-C , 15-H ) :   0.9725
B( 16-S , 17-C ) :   1.1441 B( 16-S , 20-C ) :   1.1381 B( 17-C , 18-C ) :   1.6028
B( 17-C , 33-H ) :   0.9710 B( 18-C , 19-C ) :   1.2517 B( 18-C , 21-H ) :   0.9827
B( 19-C , 20-C ) :   1.6071 B( 19-C , 22-C ) :   1.0321 B( 22-C , 23-H ) :   0.9347
B( 22-C , 24-H ) :   0.9433 B( 22-C , 25-C ) :   1.0453 B( 25-C , 26-H ) :   0.9515
B( 25-C , 27-H ) :   0.9554 B( 25-C , 28-C ) :   1.0914 B( 28-C , 29-H ) :   0.9690
B( 28-C , 30-H ) :   0.9719 B( 28-C , 31-H ) :   0.9726

Dispersion correction           -0.014165364
FINAL SINGLE POINT ENERGY     -1339.865615882950

DIPOLE MOMENT
-------------
                                X             Y             Z
Electronic contribution:     18.62144      -1.68806      15.65368
Nuclear contribution   :    -19.07940       1.76014     -15.99178
                        -----------------------------------------
Total Dipole Moment    :     -0.45796       0.07208      -0.33810
                        -----------------------------------------
Magnitude (a.u.)       :      0.57378
Magnitude (Debye)      :      1.45844

Rotational constants in cm-1:     0.018057     0.008432     0.007078
Rotational constants in MHz :   541.322123   252.776982   212.183970

                             ****ORCA TERMINATED NORMALLY****
TOTAL RUN TIME: 0 days 0 hours 0 minutes 33 seconds 653 msec
