                         Program Version 4.2.1 -  RELEASE  -
|  1> ! wB97X-D3 SP def2-SVP
|  2> %pal
|  3> nprocs 16
|  4> end
|  5>
|  6> * xyz 0 1
|  7> S 	 -31.9806 	 60.0354 	 109.548
|  8> C 	 -31.3787 	 61.3726 	 110.445
|  9> C 	 -32.3353 	 62.3937 	 110.588
| 10> C 	 -33.5324 	 62.0316 	 109.931
| 11> C 	 -33.5101 	 60.8257 	 109.298
| 12> H 	 -34.3752 	 62.5917 	 109.818
| 13> C 	 -32.0823 	 63.8127 	 111.099
| 14> H 	 -32.5796 	 64.6068 	 110.537
| 15> H 	 -31.018 	 64.0406 	 110.915
| 16> C 	 -32.2585 	 64.0182 	 112.572
| 17> H 	 -31.5932 	 63.3288 	 113.09
| 18> H 	 -31.9717 	 65.0413 	 112.813
| 19> C 	 -33.6799 	 63.8062 	 112.986
| 20> H 	 -34.3996 	 64.4106 	 112.393
| 21> H 	 -34.0459 	 62.7811 	 112.883
| 22> H 	 -33.6363 	 64.1464 	 114.027
| 23> S 	 -34.9469 	 58.4459 	 109.236
| 24> C 	 -36.3221 	 58.3173 	 108.124
| 25> C 	 -36.5629 	 59.4833 	 107.459
| 26> C 	 -35.6021 	 60.474 	 107.766
| 27> C 	 -34.609 	 60.0963 	 108.694
| 28> H 	 -37.4007 	 59.6994 	 106.84
| 29> C 	 -35.5806 	 61.7773 	 107.029
| 30> H 	 -35.4599 	 61.4707 	 105.93
| 31> H 	 -34.6509 	 62.285 	 107.249
| 32> C 	 -36.8104 	 62.6407 	 107.235
| 33> H 	 -37.606 	 61.9326 	 107.085
| 34> H 	 -37.0197 	 63.3618 	 106.469
| 35> C 	 -36.96 	 63.1565 	 108.635
| 36> H 	 -36.965 	 62.2561 	 109.181
| 37> H 	 -37.9835 	 63.5002 	 108.782
| 38> H 	 -36.2039 	 63.8529 	 108.983
| 39> H 	 -30.3674 	 61.5093 	 110.707
| 40> H 	 -36.9272 	 57.3657 	 107.992
| 41> *
| 42>
| 43>                          ****END OF INPUT****

CARTESIAN COORDINATES (ANGSTROEM)
---------------------------------
  S    -31.980600   60.035400  109.548000
  C    -31.378700   61.372600  110.445000
  C    -32.335300   62.393700  110.588000
  C    -33.532400   62.031600  109.931000
  C    -33.510100   60.825700  109.298000
  H    -34.375200   62.591700  109.818000
  C    -32.082300   63.812700  111.099000
  H    -32.579600   64.606800  110.537000
  H    -31.018000   64.040600  110.915000
  C    -32.258500   64.018200  112.572000
  H    -31.593200   63.328800  113.090000
  H    -31.971700   65.041300  112.813000
  C    -33.679900   63.806200  112.986000
  H    -34.399600   64.410600  112.393000
  H    -34.045900   62.781100  112.883000
  H    -33.636300   64.146400  114.027000
  S    -34.946900   58.445900  109.236000
  C    -36.322100   58.317300  108.124000
  C    -36.562900   59.483300  107.459000
  C    -35.602100   60.474000  107.766000
  C    -34.609000   60.096300  108.694000
  H    -37.400700   59.699400  106.840000
  C    -35.580600   61.777300  107.029000
  H    -35.459900   61.470700  105.930000
  H    -34.650900   62.285000  107.249000
  C    -36.810400   62.640700  107.235000
  H    -37.606000   61.932600  107.085000
  H    -37.019700   63.361800  106.469000
  C    -36.960000   63.156500  108.635000
  H    -36.965000   62.256100  109.181000
  H    -37.983500   63.500200  108.782000
  H    -36.203900   63.852900  108.983000
  H    -30.367400   61.509300  110.707000
  H    -36.927200   57.365700  107.992000

 Total Charge           Charge          ....    0
 Multiplicity           Mult            ....    1
 Number of Electrons    NEL             ....  134
 Basis Dimension        Dim             ....  322

ORBITAL ENERGIES
----------------

  NO   OCC          E(Eh)            E(eV)
   0   2.0000     -88.968497     -2420.9559
   1   2.0000     -88.965935     -2420.8862
   2   2.0000     -10.328464      -281.0518
   3   2.0000     -10.325282      -280.9652
   4   2.0000     -10.324692      -280.9492
   5   2.0000     -10.313401      -280.6419
   6   2.0000     -10.303442      -280.3709
   7   2.0000     -10.300111      -280.2803
   8   2.0000     -10.291660      -280.0503
   9   2.0000     -10.289542      -279.9927
  10   2.0000     -10.289528      -279.9923
  11   2.0000     -10.284115      -279.8450
  12   2.0000     -10.279891      -279.7301
  13   2.0000     -10.279624      -279.7228
  14   2.0000     -10.273259      -279.5496
  15   2.0000     -10.271021      -279.4887
  16   2.0000      -8.083853      -219.9728
  17   2.0000      -8.080015      -219.8684
  18   2.0000      -6.042208      -164.4168
  19   2.0000      -6.038571      -164.3179
  20   2.0000      -6.038177      -164.3071
  21   2.0000      -6.034839      -164.2163
  22   2.0000      -6.034608      -164.2100
  23   2.0000      -6.030759      -164.1053
  24   2.0000      -1.010321       -27.4922
  25   2.0000      -0.986025       -26.8311
  26   2.0000      -0.920154       -25.0387
  27   2.0000      -0.917279       -24.9604
  28   2.0000      -0.872972       -23.7548
  29   2.0000      -0.855212       -23.2715
  30   2.0000      -0.848995       -23.1023
  31   2.0000      -0.818094       -22.2615
  32   2.0000      -0.784627       -21.3508
  33   2.0000      -0.771152       -20.9841
  34   2.0000      -0.707801       -19.2602
  35   2.0000      -0.698974       -19.0200
  36   2.0000      -0.692530       -18.8447
  37   2.0000      -0.661482       -17.9998
  38   2.0000      -0.650512       -17.7013
  39   2.0000      -0.619436       -16.8557
  40   2.0000      -0.598032       -16.2733
  41   2.0000      -0.580061       -15.7843
  42   2.0000      -0.560312       -15.2469
  43   2.0000      -0.553994       -15.0749
  44   2.0000      -0.549343       -14.9484
  45   2.0000      -0.539933       -14.6923
  46   2.0000      -0.522576       -14.2200
  47   2.0000      -0.511678       -13.9235
  48   2.0000      -0.504958       -13.7406
  49   2.0000      -0.494436       -13.4543
  50   2.0000      -0.494136       -13.4461
  51   2.0000      -0.480096       -13.0641
  52   2.0000      -0.472009       -12.8440
  53   2.0000      -0.470055       -12.7909
  54   2.0000      -0.463360       -12.6087
  55   2.0000      -0.447092       -12.1660
  56   2.0000      -0.441246       -12.0069
  57   2.0000      -0.437332       -11.9004
  58   2.0000      -0.432348       -11.7648
  59   2.0000      -0.421444       -11.4681
  60   2.0000      -0.419240       -11.4081
  61   2.0000      -0.416543       -11.3347
  62   2.0000      -0.411023       -11.1845
  63   2.0000      -0.352456        -9.5908
  64   2.0000      -0.333201        -9.0669
  65   2.0000      -0.330653        -8.9975
  66   2.0000      -0.288937        -7.8624
  67   0.0000       0.028866         0.7855
  68   0.0000       0.067523         1.8374
  69   0.0000       0.108726         2.9586
  70   0.0000       0.115624         3.1463
  71   0.0000       0.128385         3.4935

MULLIKEN ATOMIC CHARGES
-----------------------
   0 S :    0.122469
   1 C :   -0.094266
   2 C :   -0.074352
   3 C :    0.097488
   4 C :   -0.172669
   5 H :   -0.077993
   6 C :    0.043067
   7 H :    0.028439
   8 H :    0.015939
   9 C :   -0.048667
  10 H :    0.025301
  11 H :    0.024021
  12 C :   -0.063829
  13 H :    0.024043
  14 H :    0.048116
  15 H :    0.037565
  16 S :    0.100420
  17 C :   -0.113066
  18 C :   -0.004955
  19 C :   -0.082436
  20 C :   -0.128189
  21 H :    0.015336
  22 C :    0.040089
  23 H :    0.045531
  24 H :    0.019603
  25 C :   -0.045888
  26 H :   -0.003497
  27 H :    0.021207
  28 C :   -0.020431
  29 H :    0.025507
  30 H :    0.027300
  31 H :    0.054619
  32 H :    0.032821
  33 H :    0.081357
Sum of atomic charges:    0.0000000

LOEWDIN ATOMIC CHARGES
----------------------
   0 S :    0.430449
   1 C :   -0.195392
   2 C :   -0.058139
   3 C :   -0.049103
   4 C :   -0.198256
   5 H :    0.012052
   6 C :   -0.035626
   7 H :    0.029344
   8 H :    0.031032
   9 C :   -0.041572
  10 H :    0.024386
  11 H :    0.024057
  12 C :   -0.069323
  13 H :    0.023886
  14 H :    0.027468
  15 H :    0.030230
  16 S :    0.387839
  17 C :   -0.180739
  18 C :   -0.072785
  19 C :   -0.062289
  20 C :   -0.196269
  21 H :    0.029382
  22 C :   -0.036451
  23 H :    0.043464
  24 H :    0.023942
  25 C :   -0.040958
  26 H :    0.020306
  27 H :    0.018886
  28 C :   -0.061679
  29 H :    0.024987
  30 H :    0.030867
  31 H :    0.023241
  32 H :    0.018901
  33 H :    0.043859

  Mayer bond orders larger than 0.100000
B(  0-S ,  1-C ) :   1.1682 B(  0-S ,  4-C ) :   1.1532 B(  1-C ,  2-C ) :   1.5812
B(  1-C ,  4-C ) :   0.1012 B(  1-C , 32-H ) :   0.9693 B(  2-C ,  3-C ) :   1.2539
B(  2-C ,  6-C ) :   1.0057 B(  3-C ,  4-C ) :   1.5616 B(  3-C ,  5-H ) :   1.0095
B(  4-C , 20-C ) :   1.0373 B(  6-C ,  7-H ) :   0.9506 B(  6-C ,  8-H ) :   0.9391
B(  6-C ,  9-C ) :   1.0914 B(  9-C , 10-H ) :   0.9495 B(  9-C , 11-H ) :   0.9523
B(  9-C , 12-C ) :   1.0827 B( 12-C , 13-H ) :   0.9725 B( 12-C , 14-H ) :   0.9718
B( 12-C , 15-H ) :   0.9745 B( 16-S , 17-C ) :   1.1526 B( 16-S , 20-C ) :   1.1318
B( 17-C , 18-C ) :   1.5973 B( 17-C , 33-H ) :   0.9573 B( 18-C , 19-C ) :   1.2554
B( 18-C , 21-H ) :   0.9906 B( 19-C , 20-C ) :   1.5755 B( 19-C , 22-C ) :   1.0437
B( 22-C , 23-H ) :   0.9369 B( 22-C , 24-H ) :   0.9383 B( 22-C , 25-C ) :   1.0592
B( 25-C , 26-H ) :   0.9528 B( 25-C , 27-H ) :   0.9534 B( 25-C , 28-C ) :   1.0844
B( 28-C , 29-H ) :   0.9654 B( 28-C , 30-H ) :   0.9633 B( 28-C , 31-H ) :   0.9669

Dispersion correction           -0.015264701
FINAL SINGLE POINT ENERGY     -1339.879709841276

DIPOLE MOMENT
-------------
                                X             Y             Z
Electronic contribution:      8.52386     -25.15450      -5.58841
Nuclear contribution   :     -8.74732      25.71544       5.47686
                        -----------------------------------------
Total Dipole Moment    :     -0.22346       0.56094      -0.11155
                        -----------------------------------------
Magnitude (a.u.)       :      0.61403
Magnitude (Debye)      :      1.56074

Rotational constants in cm-1:     0.019144     0.009490     0.007377
Rotational constants in MHz :   573.913228   284.508183   221.157019

                             ****ORCA TERMINATED NORMALLY****
TOTAL RUN TIME: 0 days 0 hours 0 minutes 31 seconds 939 msec
