                         Program Version 4.2.1 -  RELEASE  -
|  1> ! wB97X-D3 SP def2-SVP
|  2> %pal
|  3> nprocs 16
|  4> end
|  5>
|  6> * xyz 0 1
|  7> S 	 -81.1976 	 43.7426 	 138.412
|  8> C 	 -80.83 	 43.5689 	 140.086
|  9> C 	 -79.5712 	 44.0258 	 140.514
| 10> C 	 -78.9938 	 44.8106 	 139.444
| 11> C 	 -79.6504 	 44.7201 	 138.2
| 12> H 	 -78.1278 	 45.3937 	 139.563
| 13> C 	 -78.9673 	 43.8669 	 141.904
| 14> H 	 -79.4284 	 43.057 	 142.493
| 15> H 	 -79.4074 	 44.6632 	 142.534
| 16> C 	 -77.3715 	 43.7787 	 141.871
| 17> H 	 -76.9524 	 44.7126 	 141.586
| 18> H 	 -76.9974 	 43.7243 	 142.933
| 19> C 	 -76.8694 	 42.4171 	 141.208
| 20> H 	 -75.8412 	 42.1597 	 141.534
| 21> H 	 -77.5667 	 41.6203 	 141.378
| 22> H 	 -76.6871 	 42.3752 	 140.085
| 23> S 	 -80.6566 	 46.3339 	 136.14
| 24> C 	 -79.4684 	 46.7085 	 134.934
| 25> C 	 -78.2818 	 46.0311 	 135.009
| 26> C 	 -78.2506 	 45.2534 	 136.192
| 27> C 	 -79.3554 	 45.3359 	 136.94
| 28> H 	 -77.5739 	 46.0702 	 134.232
| 29> C 	 -77.0843 	 44.3369 	 136.54
| 30> H 	 -76.6081 	 44.6078 	 137.513
| 31> H 	 -76.2992 	 44.5759 	 135.806
| 32> C 	 -77.2481 	 42.8279 	 136.54
| 33> H 	 -77.9067 	 42.5489 	 137.365
| 34> H 	 -76.3221 	 42.3188 	 136.737
| 35> C 	 -77.7967 	 42.2154 	 135.228
| 36> H 	 -78.3477 	 41.3012 	 135.424
| 37> H 	 -77.0418 	 42.1149 	 134.451
| 38> H 	 -78.5955 	 42.8189 	 134.76
| 39> H 	 -81.4324 	 43.037 	 140.751
| 40> H 	 -79.6619 	 47.3417 	 134.024
| 41> *
| 42>
| 43>                          ****END OF INPUT****

CARTESIAN COORDINATES (ANGSTROEM)
---------------------------------
  S    -81.197600   43.742600  138.412000
  C    -80.830000   43.568900  140.086000
  C    -79.571200   44.025800  140.514000
  C    -78.993800   44.810600  139.444000
  C    -79.650400   44.720100  138.200000
  H    -78.127800   45.393700  139.563000
  C    -78.967300   43.866900  141.904000
  H    -79.428400   43.057000  142.493000
  H    -79.407400   44.663200  142.534000
  C    -77.371500   43.778700  141.871000
  H    -76.952400   44.712600  141.586000
  H    -76.997400   43.724300  142.933000
  C    -76.869400   42.417100  141.208000
  H    -75.841200   42.159700  141.534000
  H    -77.566700   41.620300  141.378000
  H    -76.687100   42.375200  140.085000
  S    -80.656600   46.333900  136.140000
  C    -79.468400   46.708500  134.934000
  C    -78.281800   46.031100  135.009000
  C    -78.250600   45.253400  136.192000
  C    -79.355400   45.335900  136.940000
  H    -77.573900   46.070200  134.232000
  C    -77.084300   44.336900  136.540000
  H    -76.608100   44.607800  137.513000
  H    -76.299200   44.575900  135.806000
  C    -77.248100   42.827900  136.540000
  H    -77.906700   42.548900  137.365000
  H    -76.322100   42.318800  136.737000
  C    -77.796700   42.215400  135.228000
  H    -78.347700   41.301200  135.424000
  H    -77.041800   42.114900  134.451000
  H    -78.595500   42.818900  134.760000
  H    -81.432400   43.037000  140.751000
  H    -79.661900   47.341700  134.024000

 Total Charge           Charge          ....    0
 Multiplicity           Mult            ....    1
 Number of Electrons    NEL             ....  134
 Basis Dimension        Dim             ....  322

ORBITAL ENERGIES
----------------

  NO   OCC          E(Eh)            E(eV)
   0   2.0000     -88.965974     -2420.8872
   1   2.0000     -88.965750     -2420.8811
   2   2.0000     -10.332995      -281.1751
   3   2.0000     -10.321152      -280.8528
   4   2.0000     -10.319264      -280.8015
   5   2.0000     -10.308386      -280.5055
   6   2.0000     -10.304667      -280.4043
   7   2.0000     -10.304360      -280.3959
   8   2.0000     -10.304172      -280.3908
   9   2.0000     -10.298208      -280.2285
  10   2.0000     -10.296645      -280.1859
  11   2.0000     -10.291286      -280.0401
  12   2.0000     -10.289972      -280.0044
  13   2.0000     -10.288545      -279.9655
  14   2.0000     -10.279809      -279.7278
  15   2.0000     -10.270628      -279.4780
  16   2.0000      -8.080266      -219.8752
  17   2.0000      -8.079504      -219.8545
  18   2.0000      -6.038703      -164.3215
  19   2.0000      -6.037951      -164.3010
  20   2.0000      -6.035159      -164.2250
  21   2.0000      -6.034303      -164.2017
  22   2.0000      -6.030788      -164.1061
  23   2.0000      -6.030253      -164.0915
  24   2.0000      -1.002520       -27.2799
  25   2.0000      -0.975871       -26.5548
  26   2.0000      -0.904569       -24.6146
  27   2.0000      -0.899077       -24.4651
  28   2.0000      -0.866647       -23.5827
  29   2.0000      -0.849479       -23.1155
  30   2.0000      -0.839540       -22.8451
  31   2.0000      -0.811003       -22.0685
  32   2.0000      -0.783780       -21.3277
  33   2.0000      -0.769848       -20.9486
  34   2.0000      -0.717423       -19.5221
  35   2.0000      -0.702273       -19.1098
  36   2.0000      -0.686140       -18.6708
  37   2.0000      -0.663040       -18.0422
  38   2.0000      -0.640995       -17.4423
  39   2.0000      -0.621233       -16.9046
  40   2.0000      -0.590205       -16.0603
  41   2.0000      -0.561139       -15.2694
  42   2.0000      -0.552137       -15.0244
  43   2.0000      -0.548633       -14.9291
  44   2.0000      -0.541629       -14.7385
  45   2.0000      -0.526603       -14.3296
  46   2.0000      -0.515948       -14.0397
  47   2.0000      -0.496603       -13.5133
  48   2.0000      -0.491216       -13.3667
  49   2.0000      -0.489706       -13.3256
  50   2.0000      -0.486426       -13.2363
  51   2.0000      -0.477950       -13.0057
  52   2.0000      -0.475383       -12.9358
  53   2.0000      -0.465424       -12.6648
  54   2.0000      -0.457487       -12.4489
  55   2.0000      -0.445449       -12.1213
  56   2.0000      -0.441029       -12.0010
  57   2.0000      -0.439100       -11.9485
  58   2.0000      -0.430834       -11.7236
  59   2.0000      -0.427372       -11.6294
  60   2.0000      -0.420798       -11.4505
  61   2.0000      -0.413941       -11.2639
  62   2.0000      -0.409638       -11.1468
  63   2.0000      -0.345041        -9.3890
  64   2.0000      -0.336489        -9.1563
  65   2.0000      -0.324713        -8.8359
  66   2.0000      -0.286290        -7.7903
  67   0.0000       0.026608         0.7240
  68   0.0000       0.061470         1.6727
  69   0.0000       0.101630         2.7655
  70   0.0000       0.122201         3.3252
  71   0.0000       0.126538         3.4433

MULLIKEN ATOMIC CHARGES
-----------------------
   0 S :    0.100191
   1 C :   -0.082734
   2 C :   -0.095451
   3 C :    0.060112
   4 C :   -0.175997
   5 H :   -0.004368
   6 C :    0.034143
   7 H :    0.020136
   8 H :    0.044196
   9 C :   -0.066339
  10 H :    0.031230
  11 H :    0.036267
  12 C :   -0.072541
  13 H :    0.037933
  14 H :    0.039467
  15 H :    0.041588
  16 S :    0.111174
  17 C :   -0.092597
  18 C :   -0.023062
  19 C :   -0.016205
  20 C :   -0.160179
  21 H :    0.000726
  22 C :    0.063931
  23 H :    0.032616
  24 H :    0.007271
  25 C :   -0.048496
  26 H :    0.040754
  27 H :    0.024867
  28 C :   -0.067217
  29 H :    0.031860
  30 H :    0.029891
  31 H :    0.031070
  32 H :    0.018816
  33 H :    0.066945
Sum of atomic charges:    0.0000000

LOEWDIN ATOMIC CHARGES
----------------------
   0 S :    0.374491
   1 C :   -0.193313
   2 C :   -0.063298
   3 C :   -0.044114
   4 C :   -0.166312
   5 H :    0.021565
   6 C :   -0.042519
   7 H :    0.032370
   8 H :    0.040053
   9 C :   -0.038188
  10 H :    0.018177
  11 H :    0.033915
  12 C :   -0.074102
  13 H :    0.029630
  14 H :    0.025768
  15 H :    0.032988
  16 S :    0.377442
  17 C :   -0.181278
  18 C :   -0.069883
  19 C :   -0.050944
  20 C :   -0.181754
  21 H :    0.026359
  22 C :   -0.033602
  23 H :    0.035792
  24 H :    0.026585
  25 C :   -0.039658
  26 H :    0.025596
  27 H :    0.024341
  28 C :   -0.072690
  29 H :    0.028435
  30 H :    0.021580
  31 H :    0.027695
  32 H :    0.010936
  33 H :    0.037937

  Mayer bond orders larger than 0.100000
B(  0-S ,  1-C ) :   1.1506 B(  0-S ,  4-C ) :   1.1066 B(  1-C ,  2-C ) :   1.6196
B(  1-C ,  4-C ) :   0.1011 B(  1-C , 32-H ) :   0.9655 B(  2-C ,  3-C ) :   1.2260
B(  2-C ,  6-C ) :   1.0151 B(  3-C ,  4-C ) :   1.5942 B(  3-C ,  5-H ) :   0.9911
B(  4-C , 20-C ) :   1.0888 B(  6-C ,  7-H ) :   0.9426 B(  6-C ,  8-H ) :   0.9381
B(  6-C ,  9-C ) :   1.0662 B(  9-C , 10-H ) :   0.9602 B(  9-C , 11-H ) :   0.9593
B(  9-C , 12-C ) :   1.0428 B( 12-C , 13-H ) :   0.9784 B( 12-C , 14-H ) :   0.9790
B( 12-C , 15-H ) :   0.9753 B( 16-S , 17-C ) :   1.1535 B( 16-S , 20-C ) :   1.0908
B( 17-C , 18-C ) :   1.6436 B( 17-C , 33-H ) :   0.9522 B( 18-C , 19-C ) :   1.2073
B( 18-C , 21-H ) :   0.9984 B( 19-C , 20-C ) :   1.6491 B( 19-C , 22-C ) :   1.0346
B( 22-C , 23-H ) :   0.9289 B( 22-C , 24-H ) :   0.9335 B( 22-C , 25-C ) :   1.0814
B( 25-C , 26-H ) :   0.9527 B( 25-C , 27-H ) :   0.9529 B( 25-C , 28-C ) :   1.0710
B( 28-C , 29-H ) :   0.9743 B( 28-C , 30-H ) :   0.9773 B( 28-C , 31-H ) :   0.9758

Dispersion correction           -0.016015594
FINAL SINGLE POINT ENERGY     -1339.864792023819

DIPOLE MOMENT
-------------
                                X             Y             Z
Electronic contribution:    -21.21886      14.10125      -8.74957
Nuclear contribution   :     21.81704     -14.25926       9.03598
                        -----------------------------------------
Total Dipole Moment    :      0.59818      -0.15801       0.28642
                        -----------------------------------------
Magnitude (a.u.)       :      0.68178
Magnitude (Debye)      :      1.73294

Rotational constants in cm-1:     0.019440     0.009645     0.007906
Rotational constants in MHz :   582.791901   289.160287   237.019496

                             ****ORCA TERMINATED NORMALLY****
TOTAL RUN TIME: 0 days 0 hours 0 minutes 35 seconds 632 msec
