                         Program Version 4.2.1 -  RELEASE  -
|  1> ! wB97X-D3 SP def2-SVP
|  2> %pal
|  3> nprocs 16
|  4> end
|  5>
|  6> * xyz 0 1
|  7> S 	 8.19025 	 18.3127 	 49.1923
|  8> C 	 8.38263 	 16.6668 	 49.7552
|  9> C 	 7.7077 	 16.4936 	 50.9292
| 10> C 	 6.76201 	 17.5132 	 51.2239
| 11> C 	 6.76952 	 18.4924 	 50.2036
| 12> H 	 6.01683 	 17.5424 	 52.0361
| 13> C 	 7.89779 	 15.2267 	 51.731
| 14> H 	 7.22164 	 14.4564 	 51.2077
| 15> H 	 7.59196 	 15.5115 	 52.7363
| 16> C 	 9.38539 	 14.6563 	 51.7271
| 17> H 	 9.83534 	 14.4235 	 50.7395
| 18> H 	 10.0141 	 15.3993 	 52.2119
| 19> C 	 9.46918 	 13.2954 	 52.4139
| 20> H 	 10.4345 	 12.8257 	 52.2396
| 21> H 	 9.39194 	 13.4619 	 53.5142
| 22> H 	 8.71862 	 12.681 	 51.999
| 23> S 	 6.52757 	 21.2452 	 49.7174
| 24> C 	 5.00234 	 22.0136 	 49.7495
| 25> C 	 3.96539 	 21.0871 	 49.8613
| 26> C 	 4.46504 	 19.7655 	 50.0164
| 27> C 	 5.8621 	 19.6515 	 49.9672
| 28> H 	 2.92469 	 21.4036 	 49.8225
| 29> C 	 3.48475 	 18.5495 	 50.0282
| 30> H 	 3.97978 	 17.6454 	 50.4549
| 31> H 	 3.1916 	 18.2252 	 49.0508
| 32> C 	 2.16171 	 18.7152 	 50.8916
| 33> H 	 1.5095 	 17.8373 	 50.7291
| 34> H 	 1.52472 	 19.3269 	 50.3734
| 35> C 	 2.20334 	 19.1049 	 52.4281
| 36> H 	 2.65455 	 18.2187 	 52.8556
| 37> H 	 1.21207 	 19.3366 	 52.8307
| 38> H 	 2.93913 	 19.8868 	 52.7274
| 39> H 	 9.01591 	 15.9373 	 49.3452
| 40> H 	 4.89473 	 23.0118 	 49.5055
| 41> *
| 42>
| 43>                          ****END OF INPUT****

CARTESIAN COORDINATES (ANGSTROEM)
---------------------------------
  S      8.190250   18.312700   49.192300
  C      8.382630   16.666800   49.755200
  C      7.707700   16.493600   50.929200
  C      6.762010   17.513200   51.223900
  C      6.769520   18.492400   50.203600
  H      6.016830   17.542400   52.036100
  C      7.897790   15.226700   51.731000
  H      7.221640   14.456400   51.207700
  H      7.591960   15.511500   52.736300
  C      9.385390   14.656300   51.727100
  H      9.835340   14.423500   50.739500
  H     10.014100   15.399300   52.211900
  C      9.469180   13.295400   52.413900
  H     10.434500   12.825700   52.239600
  H      9.391940   13.461900   53.514200
  H      8.718620   12.681000   51.999000
  S      6.527570   21.245200   49.717400
  C      5.002340   22.013600   49.749500
  C      3.965390   21.087100   49.861300
  C      4.465040   19.765500   50.016400
  C      5.862100   19.651500   49.967200
  H      2.924690   21.403600   49.822500
  C      3.484750   18.549500   50.028200
  H      3.979780   17.645400   50.454900
  H      3.191600   18.225200   49.050800
  C      2.161710   18.715200   50.891600
  H      1.509500   17.837300   50.729100
  H      1.524720   19.326900   50.373400
  C      2.203340   19.104900   52.428100
  H      2.654550   18.218700   52.855600
  H      1.212070   19.336600   52.830700
  H      2.939130   19.886800   52.727400
  H      9.015910   15.937300   49.345200
  H      4.894730   23.011800   49.505500

 Total Charge           Charge          ....    0
 Multiplicity           Mult            ....    1
 Number of Electrons    NEL             ....  134
 Basis Dimension        Dim             ....  322

ORBITAL ENERGIES
----------------

  NO   OCC          E(Eh)            E(eV)
   0   2.0000     -88.965266     -2420.8680
   1   2.0000     -88.963806     -2420.8282
   2   2.0000     -10.336724      -281.2766
   3   2.0000     -10.330360      -281.1034
   4   2.0000     -10.311852      -280.5998
   5   2.0000     -10.307275      -280.4752
   6   2.0000     -10.304134      -280.3897
   7   2.0000     -10.302599      -280.3480
   8   2.0000     -10.301864      -280.3280
   9   2.0000     -10.297032      -280.1965
  10   2.0000     -10.296982      -280.1951
  11   2.0000     -10.295416      -280.1525
  12   2.0000     -10.292102      -280.0623
  13   2.0000     -10.285032      -279.8700
  14   2.0000     -10.283206      -279.8203
  15   2.0000     -10.276885      -279.6483
  16   2.0000      -8.080928      -219.8932
  17   2.0000      -8.078732      -219.8335
  18   2.0000      -6.039324      -164.3384
  19   2.0000      -6.037188      -164.2802
  20   2.0000      -6.035177      -164.2255
  21   2.0000      -6.033477      -164.1792
  22   2.0000      -6.031893      -164.1362
  23   2.0000      -6.029289      -164.0653
  24   2.0000      -1.006477       -27.3876
  25   2.0000      -0.987411       -26.8688
  26   2.0000      -0.907813       -24.7029
  27   2.0000      -0.894777       -24.3481
  28   2.0000      -0.866798       -23.5868
  29   2.0000      -0.850055       -23.1312
  30   2.0000      -0.842402       -22.9229
  31   2.0000      -0.815063       -22.1790
  32   2.0000      -0.782300       -21.2875
  33   2.0000      -0.768881       -20.9223
  34   2.0000      -0.708253       -19.2725
  35   2.0000      -0.704973       -19.1833
  36   2.0000      -0.693410       -18.8686
  37   2.0000      -0.657552       -17.8929
  38   2.0000      -0.637623       -17.3506
  39   2.0000      -0.613457       -16.6930
  40   2.0000      -0.596385       -16.2285
  41   2.0000      -0.574519       -15.6335
  42   2.0000      -0.564946       -15.3730
  43   2.0000      -0.548848       -14.9349
  44   2.0000      -0.525470       -14.2988
  45   2.0000      -0.523062       -14.2333
  46   2.0000      -0.518120       -14.0988
  47   2.0000      -0.513579       -13.9752
  48   2.0000      -0.509051       -13.8520
  49   2.0000      -0.499215       -13.5843
  50   2.0000      -0.493758       -13.4358
  51   2.0000      -0.483004       -13.1432
  52   2.0000      -0.471338       -12.8258
  53   2.0000      -0.464457       -12.6385
  54   2.0000      -0.455362       -12.3910
  55   2.0000      -0.449035       -12.2189
  56   2.0000      -0.441689       -12.0190
  57   2.0000      -0.435695       -11.8559
  58   2.0000      -0.431067       -11.7299
  59   2.0000      -0.429016       -11.6741
  60   2.0000      -0.419553       -11.4166
  61   2.0000      -0.414821       -11.2879
  62   2.0000      -0.403186       -10.9713
  63   2.0000      -0.346701        -9.4342
  64   2.0000      -0.333037        -9.0624
  65   2.0000      -0.327485        -8.9113
  66   2.0000      -0.284793        -7.7496
  67   0.0000       0.023728         0.6457
  68   0.0000       0.066686         1.8146
  69   0.0000       0.105512         2.8711
  70   0.0000       0.121991         3.3195
  71   0.0000       0.130287         3.5453

MULLIKEN ATOMIC CHARGES
-----------------------
   0 S :    0.104634
   1 C :   -0.093059
   2 C :   -0.100466
   3 C :    0.043607
   4 C :   -0.166638
   5 H :    0.026355
   6 C :    0.047025
   7 H :    0.060275
   8 H :    0.029980
   9 C :   -0.120404
  10 H :    0.034814
  11 H :    0.037368
  12 C :   -0.030398
  13 H :    0.032212
  14 H :    0.036401
  15 H :    0.024556
  16 S :    0.106982
  17 C :   -0.069249
  18 C :   -0.037456
  19 C :   -0.035794
  20 C :   -0.135904
  21 H :    0.028290
  22 C :    0.064982
  23 H :    0.022448
  24 H :    0.036997
  25 C :   -0.082605
  26 H :    0.015444
  27 H :   -0.007869
  28 C :   -0.052697
  29 H :    0.026394
  30 H :    0.046394
  31 H :    0.046679
  32 H :    0.023734
  33 H :    0.036969
Sum of atomic charges:   -0.0000000

LOEWDIN ATOMIC CHARGES
----------------------
   0 S :    0.398531
   1 C :   -0.187399
   2 C :   -0.070631
   3 C :   -0.065717
   4 C :   -0.178534
   5 H :    0.037050
   6 C :   -0.032191
   7 H :    0.045415
   8 H :    0.030841
   9 C :   -0.043724
  10 H :    0.024448
  11 H :    0.024003
  12 C :   -0.062809
  13 H :    0.025646
  14 H :    0.028724
  15 H :    0.018416
  16 S :    0.428235
  17 C :   -0.185249
  18 C :   -0.069120
  19 C :   -0.061508
  20 C :   -0.208025
  21 H :    0.035791
  22 C :   -0.025064
  23 H :    0.029167
  24 H :    0.032000
  25 C :   -0.049014
  26 H :    0.030277
  27 H :    0.002874
  28 C :   -0.069287
  29 H :    0.023798
  30 H :    0.030332
  31 H :    0.031990
  32 H :    0.016354
  33 H :    0.014379

  Mayer bond orders larger than 0.100000
B(  0-S ,  1-C ) :   1.1246 B(  0-S ,  4-C ) :   1.1683 B(  1-C ,  2-C ) :   1.6135
B(  1-C ,  4-C ) :   0.1040 B(  1-C , 32-H ) :   0.9802 B(  2-C ,  3-C ) :   1.2313
B(  2-C ,  6-C ) :   1.0148 B(  3-C ,  4-C ) :   1.5503 B(  3-C ,  5-H ) :   0.9928
B(  4-C , 20-C ) :   1.0251 B(  6-C ,  7-H ) :   0.9361 B(  6-C ,  8-H ) :   0.9447
B(  6-C ,  9-C ) :   1.0627 B(  9-C , 10-H ) :   0.9555 B(  9-C , 11-H ) :   0.9609
B(  9-C , 12-C ) :   1.0828 B( 12-C , 13-H ) :   0.9755 B( 12-C , 14-H ) :   0.9753
B( 12-C , 15-H ) :   0.9742 B( 16-S , 17-C ) :   1.1865 B( 16-S , 20-C ) :   1.1553
B( 17-C , 18-C ) :   1.5593 B( 17-C , 20-C ) :   0.1050 B( 17-C , 33-H ) :   0.9760
B( 18-C , 19-C ) :   1.2712 B( 18-C , 21-H ) :   0.9954 B( 19-C , 20-C ) :   1.5760
B( 19-C , 22-C ) :   1.0243 B( 22-C , 23-H ) :   0.9438 B( 22-C , 24-H ) :   0.9406
B( 22-C , 25-C ) :   1.0697 B( 25-C , 26-H ) :   0.9502 B( 25-C , 27-H ) :   0.9518
B( 25-C , 28-C ) :   1.0543 B( 28-C , 29-H ) :   0.9787 B( 28-C , 30-H ) :   0.9755
B( 28-C , 31-H ) :   0.9773

Dispersion correction           -0.013737963
FINAL SINGLE POINT ENERGY     -1339.853990231784

DIPOLE MOMENT
-------------
                                X             Y             Z
Electronic contribution:      9.47916      21.40048     -14.58896
Nuclear contribution   :     -9.83594     -21.83171      14.78178
                        -----------------------------------------
Total Dipole Moment    :     -0.35678      -0.43123       0.19282
                        -----------------------------------------
Magnitude (a.u.)       :      0.59197
Magnitude (Debye)      :      1.50467

Rotational constants in cm-1:     0.021229     0.007346     0.005805
Rotational constants in MHz :   636.423441   220.214925   174.039070

                             ****ORCA TERMINATED NORMALLY****
TOTAL RUN TIME: 0 days 0 hours 0 minutes 34 seconds 47 msec
