                         Program Version 4.2.1 -  RELEASE  -
|  1> ! wB97X-D3 SP def2-SVP
|  2> %pal
|  3> nprocs 16
|  4> end
|  5>
|  6> * xyz 0 1
|  7> S 	 -0.967327 	 -28.9857 	 83.7963
|  8> C 	 -0.326907 	 -30.0561 	 82.5942
|  9> C 	 0.909835 	 -29.6497 	 82.1167
| 10> C 	 1.26536 	 -28.3706 	 82.6964
| 11> C 	 0.355737 	 -27.8753 	 83.6419
| 12> H 	 2.19014 	 -27.7807 	 82.6586
| 13> C 	 1.7605 	 -30.3972 	 81.0566
| 14> H 	 2.72939 	 -30.7586 	 81.4971
| 15> H 	 2.01034 	 -29.6787 	 80.227
| 16> C 	 1.08837 	 -31.6264 	 80.4408
| 17> H 	 0.96024 	 -32.345 	 81.1673
| 18> H 	 0.168176 	 -31.3291 	 80.0241
| 19> C 	 1.91489 	 -32.1764 	 79.2777
| 20> H 	 2.73439 	 -32.8889 	 79.6533
| 21> H 	 1.351 	 -32.8714 	 78.635
| 22> H 	 2.42119 	 -31.4272 	 78.743
| 23> S 	 1.85151 	 -26.2926 	 85.3667
| 24> C 	 1.02901 	 -24.8462 	 85.928
| 25> C 	 -0.235655 	 -24.6359 	 85.4269
| 26> C 	 -0.561698 	 -25.5825 	 84.456
| 27> C 	 0.410039 	 -26.5943 	 84.3465
| 28> H 	 -0.763257 	 -23.7235 	 85.6798
| 29> C 	 -1.8665 	 -25.5606 	 83.8011
| 30> H 	 -2.48537 	 -24.9447 	 84.431
| 31> H 	 -2.28949 	 -26.5783 	 83.7257
| 32> C 	 -1.80998 	 -25.0607 	 82.376
| 33> H 	 -2.83036 	 -24.9944 	 81.9693
| 34> H 	 -1.25499 	 -25.9235 	 82.0455
| 35> C 	 -1.02807 	 -23.8174 	 82.0493
| 36> H 	 0.0138124 	 -23.97 	 82.1922
| 37> H 	 -1.25963 	 -22.9494 	 82.6213
| 38> H 	 -1.10297 	 -23.6151 	 80.9386
| 39> H 	 -0.805507 	 -30.8795 	 82.1246
| 40> H 	 1.40074 	 -24.2199 	 86.7279
| 41> *
| 42>
| 43>                          ****END OF INPUT****

CARTESIAN COORDINATES (ANGSTROEM)
---------------------------------
  S     -0.967327  -28.985700   83.796300
  C     -0.326907  -30.056100   82.594200
  C      0.909835  -29.649700   82.116700
  C      1.265360  -28.370600   82.696400
  C      0.355737  -27.875300   83.641900
  H      2.190140  -27.780700   82.658600
  C      1.760500  -30.397200   81.056600
  H      2.729390  -30.758600   81.497100
  H      2.010340  -29.678700   80.227000
  C      1.088370  -31.626400   80.440800
  H      0.960240  -32.345000   81.167300
  H      0.168176  -31.329100   80.024100
  C      1.914890  -32.176400   79.277700
  H      2.734390  -32.888900   79.653300
  H      1.351000  -32.871400   78.635000
  H      2.421190  -31.427200   78.743000
  S      1.851510  -26.292600   85.366700
  C      1.029010  -24.846200   85.928000
  C     -0.235655  -24.635900   85.426900
  C     -0.561698  -25.582500   84.456000
  C      0.410039  -26.594300   84.346500
  H     -0.763257  -23.723500   85.679800
  C     -1.866500  -25.560600   83.801100
  H     -2.485370  -24.944700   84.431000
  H     -2.289490  -26.578300   83.725700
  C     -1.809980  -25.060700   82.376000
  H     -2.830360  -24.994400   81.969300
  H     -1.254990  -25.923500   82.045500
  C     -1.028070  -23.817400   82.049300
  H      0.013812  -23.970000   82.192200
  H     -1.259630  -22.949400   82.621300
  H     -1.102970  -23.615100   80.938600
  H     -0.805507  -30.879500   82.124600
  H      1.400740  -24.219900   86.727900

 Total Charge           Charge          ....    0
 Multiplicity           Mult            ....    1
 Number of Electrons    NEL             ....  134
 Basis Dimension        Dim             ....  322

ORBITAL ENERGIES
----------------

  NO   OCC          E(Eh)            E(eV)
   0   2.0000     -88.971965     -2421.0503
   1   2.0000     -88.967928     -2420.9404
   2   2.0000     -10.328972      -281.0656
   3   2.0000     -10.328455      -281.0515
   4   2.0000     -10.317556      -280.7550
   5   2.0000     -10.310389      -280.5600
   6   2.0000     -10.307073      -280.4697
   7   2.0000     -10.302815      -280.3538
   8   2.0000     -10.299630      -280.2672
   9   2.0000     -10.296403      -280.1794
  10   2.0000     -10.291218      -280.0383
  11   2.0000     -10.281927      -279.7855
  12   2.0000     -10.280400      -279.7439
  13   2.0000     -10.278974      -279.7051
  14   2.0000     -10.276537      -279.6388
  15   2.0000     -10.268696      -279.4254
  16   2.0000      -8.085761      -220.0247
  17   2.0000      -8.082561      -219.9377
  18   2.0000      -6.044068      -164.4674
  19   2.0000      -6.041066      -164.3858
  20   2.0000      -6.040603      -164.3732
  21   2.0000      -6.036942      -164.2736
  22   2.0000      -6.036596      -164.2641
  23   2.0000      -6.033480      -164.1794
  24   2.0000      -1.005809       -27.3694
  25   2.0000      -0.984776       -26.7971
  26   2.0000      -0.918902       -25.0046
  27   2.0000      -0.914723       -24.8909
  28   2.0000      -0.869316       -23.6553
  29   2.0000      -0.853710       -23.2306
  30   2.0000      -0.844702       -22.9855
  31   2.0000      -0.812277       -22.1032
  32   2.0000      -0.785981       -21.3876
  33   2.0000      -0.771124       -20.9833
  34   2.0000      -0.714532       -19.4434
  35   2.0000      -0.706431       -19.2230
  36   2.0000      -0.681570       -18.5465
  37   2.0000      -0.665430       -18.1073
  38   2.0000      -0.638945       -17.3866
  39   2.0000      -0.605354       -16.4725
  40   2.0000      -0.591006       -16.0821
  41   2.0000      -0.580018       -15.7831
  42   2.0000      -0.575344       -15.6559
  43   2.0000      -0.563473       -15.3329
  44   2.0000      -0.542682       -14.7671
  45   2.0000      -0.521701       -14.1962
  46   2.0000      -0.519907       -14.1474
  47   2.0000      -0.509425       -13.8622
  48   2.0000      -0.498807       -13.5732
  49   2.0000      -0.491044       -13.3620
  50   2.0000      -0.485595       -13.2137
  51   2.0000      -0.482791       -13.1374
  52   2.0000      -0.476689       -12.9714
  53   2.0000      -0.469225       -12.7683
  54   2.0000      -0.459036       -12.4910
  55   2.0000      -0.450967       -12.2714
  56   2.0000      -0.443759       -12.0753
  57   2.0000      -0.437531       -11.9058
  58   2.0000      -0.433823       -11.8049
  59   2.0000      -0.425610       -11.5814
  60   2.0000      -0.420222       -11.4348
  61   2.0000      -0.419605       -11.4180
  62   2.0000      -0.406728       -11.0676
  63   2.0000      -0.342720        -9.3259
  64   2.0000      -0.335055        -9.1173
  65   2.0000      -0.329280        -8.9602
  66   2.0000      -0.290942        -7.9169
  67   0.0000       0.027127         0.7382
  68   0.0000       0.068621         1.8673
  69   0.0000       0.100218         2.7271
  70   0.0000       0.126111         3.4317
  71   0.0000       0.126877         3.4525

MULLIKEN ATOMIC CHARGES
-----------------------
   0 S :    0.126702
   1 C :   -0.110876
   2 C :   -0.082883
   3 C :    0.022623
   4 C :   -0.176065
   5 H :    0.016193
   6 C :    0.022191
   7 H :    0.047593
   8 H :    0.043680
   9 C :   -0.062007
  10 H :    0.024990
  11 H :    0.024647
  12 C :   -0.043610
  13 H :    0.028823
  14 H :    0.035214
  15 H :    0.023865
  16 S :    0.117549
  17 C :   -0.083216
  18 C :   -0.048342
  19 C :   -0.047875
  20 C :   -0.174398
  21 H :    0.025600
  22 C :    0.108311
  23 H :    0.004251
  24 H :    0.029351
  25 C :   -0.080789
  26 H :    0.037602
  27 H :    0.027115
  28 C :   -0.031291
  29 H :    0.026983
  30 H :    0.020741
  31 H :    0.039639
  32 H :    0.036543
  33 H :    0.051146
Sum of atomic charges:    0.0000000

LOEWDIN ATOMIC CHARGES
----------------------
   0 S :    0.429085
   1 C :   -0.206841
   2 C :   -0.062234
   3 C :   -0.070252
   4 C :   -0.207436
   5 H :    0.031209
   6 C :   -0.030813
   7 H :    0.038059
   8 H :    0.036572
   9 C :   -0.037336
  10 H :    0.015914
  11 H :    0.018394
  12 C :   -0.062110
  13 H :    0.031996
  14 H :    0.028543
  15 H :    0.016239
  16 S :    0.395948
  17 C :   -0.174092
  18 C :   -0.070180
  19 C :   -0.049634
  20 C :   -0.194768
  21 H :    0.036463
  22 C :   -0.034441
  23 H :    0.020345
  24 H :    0.027547
  25 C :   -0.041008
  26 H :    0.026375
  27 H :    0.029695
  28 C :   -0.068340
  29 H :    0.023620
  30 H :    0.017334
  31 H :    0.037113
  32 H :    0.023136
  33 H :    0.025897

  Mayer bond orders larger than 0.100000
B(  0-S ,  1-C ) :   1.1379 B(  0-S ,  4-C ) :   1.1507 B(  1-C ,  2-C ) :   1.6279
B(  1-C , 32-H ) :   0.9573 B(  2-C ,  3-C ) :   1.2365 B(  2-C ,  6-C ) :   1.0054
B(  3-C ,  4-C ) :   1.5809 B(  3-C ,  5-H ) :   0.9879 B(  4-C , 20-C ) :   1.0383
B(  6-C ,  7-H ) :   0.9399 B(  6-C ,  8-H ) :   0.9437 B(  6-C ,  9-C ) :   1.0885
B(  9-C , 10-H ) :   0.9495 B(  9-C , 11-H ) :   0.9514 B(  9-C , 12-C ) :   1.0878
B( 12-C , 13-H ) :   0.9727 B( 12-C , 14-H ) :   0.9742 B( 12-C , 15-H ) :   0.9755
B( 16-S , 17-C ) :   1.1574 B( 16-S , 20-C ) :   1.1343 B( 17-C , 18-C ) :   1.6240
B( 17-C , 20-C ) :   0.1034 B( 17-C , 33-H ) :   0.9611 B( 18-C , 19-C ) :   1.2471
B( 18-C , 21-H ) :   0.9846 B( 19-C , 20-C ) :   1.5577 B( 19-C , 22-C ) :   1.0526
B( 22-C , 23-H ) :   0.9224 B( 22-C , 24-H ) :   0.9327 B( 22-C , 25-C ) :   1.0432
B( 25-C , 26-H ) :   0.9570 B( 25-C , 27-H ) :   0.9599 B( 25-C , 28-C ) :   1.0949
B( 28-C , 29-H ) :   0.9636 B( 28-C , 30-H ) :   0.9755 B( 28-C , 31-H ) :   0.9710

Dispersion correction           -0.014513456
FINAL SINGLE POINT ENERGY     -1339.870545480786

DIPOLE MOMENT
-------------
                                X             Y             Z
Electronic contribution:      1.50622       3.54846      21.63866
Nuclear contribution   :     -1.50068      -3.50022     -21.94499
                        -----------------------------------------
Total Dipole Moment    :      0.00553       0.04825      -0.30633
                        -----------------------------------------
Magnitude (a.u.)       :      0.31015
Magnitude (Debye)      :      0.78835

Rotational constants in cm-1:     0.023937     0.007117     0.006487
Rotational constants in MHz :   717.627616   213.367012   194.475606

                             ****ORCA TERMINATED NORMALLY****
TOTAL RUN TIME: 0 days 0 hours 0 minutes 34 seconds 204 msec
