                         Program Version 4.2.1 -  RELEASE  -
|  1> ! wB97X-D3 SP def2-SVP
|  2> %pal
|  3> nprocs 16
|  4> end
|  5>
|  6> * xyz 0 1
|  7> S 	 -0.642765 	 26.0162 	 34.2276
|  8> C 	 -2.34855 	 26.5143 	 34.141
|  9> C 	 -3.08559 	 25.9083 	 35.1426
| 10> C 	 -2.29619 	 25.0256 	 35.9479
| 11> C 	 -0.949993 	 24.9551 	 35.6525
| 12> H 	 -2.76031 	 24.5086 	 36.777
| 13> C 	 -4.60002 	 26.1017 	 35.2841
| 14> H 	 -4.61767 	 27.1996 	 35.3406
| 15> H 	 -5.03503 	 25.7616 	 36.2625
| 16> C 	 -5.45665 	 25.7833 	 34.0392
| 17> H 	 -5.2808 	 26.4726 	 33.2546
| 18> H 	 -5.0483 	 24.8898 	 33.5992
| 19> C 	 -6.93007 	 25.9394 	 34.2038
| 20> H 	 -7.40425 	 25.0119 	 34.5196
| 21> H 	 -7.12745 	 26.6601 	 35.0633
| 22> H 	 -7.35898 	 26.3466 	 33.3247
| 23> S 	 1.34878 	 25.1004 	 37.1287
| 24> C 	 2.37115 	 23.6341 	 37.1848
| 25> C 	 1.66636 	 22.5063 	 36.8984
| 26> C 	 0.343004 	 22.8608 	 36.4038
| 27> C 	 0.10079 	 24.2081 	 36.3549
| 28> H 	 2.08722 	 21.4567 	 36.9497
| 29> C 	 -0.647017 	 21.8007 	 35.8352
| 30> H 	 -1.40789 	 22.3433 	 35.2114
| 31> H 	 -1.17294 	 21.4268 	 36.7099
| 32> C 	 0.1293 	 20.6264 	 35.1076
| 33> H 	 -0.610343 	 19.8424 	 34.8482
| 34> H 	 0.873209 	 20.302 	 35.8156
| 35> C 	 0.938946 	 21.0643 	 33.8398
| 36> H 	 1.36855 	 20.2177 	 33.2874
| 37> H 	 1.77592 	 21.6519 	 34.2811
| 38> H 	 0.423335 	 21.7577 	 33.2008
| 39> H 	 -2.85573 	 27.1643 	 33.463
| 40> H 	 3.36833 	 23.5343 	 37.4758
| 41> *
| 42>
| 43>                          ****END OF INPUT****

CARTESIAN COORDINATES (ANGSTROEM)
---------------------------------
  S     -0.642765   26.016200   34.227600
  C     -2.348550   26.514300   34.141000
  C     -3.085590   25.908300   35.142600
  C     -2.296190   25.025600   35.947900
  C     -0.949993   24.955100   35.652500
  H     -2.760310   24.508600   36.777000
  C     -4.600020   26.101700   35.284100
  H     -4.617670   27.199600   35.340600
  H     -5.035030   25.761600   36.262500
  C     -5.456650   25.783300   34.039200
  H     -5.280800   26.472600   33.254600
  H     -5.048300   24.889800   33.599200
  C     -6.930070   25.939400   34.203800
  H     -7.404250   25.011900   34.519600
  H     -7.127450   26.660100   35.063300
  H     -7.358980   26.346600   33.324700
  S      1.348780   25.100400   37.128700
  C      2.371150   23.634100   37.184800
  C      1.666360   22.506300   36.898400
  C      0.343004   22.860800   36.403800
  C      0.100790   24.208100   36.354900
  H      2.087220   21.456700   36.949700
  C     -0.647017   21.800700   35.835200
  H     -1.407890   22.343300   35.211400
  H     -1.172940   21.426800   36.709900
  C      0.129300   20.626400   35.107600
  H     -0.610343   19.842400   34.848200
  H      0.873209   20.302000   35.815600
  C      0.938946   21.064300   33.839800
  H      1.368550   20.217700   33.287400
  H      1.775920   21.651900   34.281100
  H      0.423335   21.757700   33.200800
  H     -2.855730   27.164300   33.463000
  H      3.368330   23.534300   37.475800

 Total Charge           Charge          ....    0
 Multiplicity           Mult            ....    1
 Number of Electrons    NEL             ....  134
 Basis Dimension        Dim             ....  322

ORBITAL ENERGIES
----------------

  NO   OCC          E(Eh)            E(eV)
   0   2.0000     -88.968509     -2420.9562
   1   2.0000     -88.964377     -2420.8438
   2   2.0000     -10.334959      -281.2285
   3   2.0000     -10.321922      -280.8738
   4   2.0000     -10.316426      -280.7242
   5   2.0000     -10.315536      -280.7000
   6   2.0000     -10.304740      -280.4062
   7   2.0000     -10.301777      -280.3256
   8   2.0000     -10.301297      -280.3125
   9   2.0000     -10.298656      -280.2407
  10   2.0000     -10.296354      -280.1780
  11   2.0000     -10.295209      -280.1469
  12   2.0000     -10.291449      -280.0446
  13   2.0000     -10.280632      -279.7502
  14   2.0000     -10.280312      -279.7415
  15   2.0000     -10.275575      -279.6126
  16   2.0000      -8.081529      -219.9096
  17   2.0000      -8.079278      -219.8483
  18   2.0000      -6.040238      -164.3632
  19   2.0000      -6.037977      -164.3017
  20   2.0000      -6.036257      -164.2549
  21   2.0000      -6.033883      -164.1903
  22   2.0000      -6.032166      -164.1436
  23   2.0000      -6.029682      -164.0760
  24   2.0000      -1.004100       -27.3229
  25   2.0000      -0.980076       -26.6692
  26   2.0000      -0.914176       -24.8760
  27   2.0000      -0.897123       -24.4120
  28   2.0000      -0.873243       -23.7622
  29   2.0000      -0.847462       -23.0606
  30   2.0000      -0.838024       -22.8038
  31   2.0000      -0.819983       -22.3129
  32   2.0000      -0.779335       -21.2068
  33   2.0000      -0.767935       -20.8966
  34   2.0000      -0.708508       -19.2795
  35   2.0000      -0.702858       -19.1257
  36   2.0000      -0.695283       -18.9196
  37   2.0000      -0.655070       -17.8254
  38   2.0000      -0.636638       -17.3238
  39   2.0000      -0.617296       -16.7975
  40   2.0000      -0.594157       -16.1678
  41   2.0000      -0.575963       -15.6728
  42   2.0000      -0.565787       -15.3958
  43   2.0000      -0.543643       -14.7933
  44   2.0000      -0.535166       -14.5626
  45   2.0000      -0.523489       -14.2449
  46   2.0000      -0.521712       -14.1965
  47   2.0000      -0.515942       -14.0395
  48   2.0000      -0.504840       -13.7374
  49   2.0000      -0.498530       -13.5657
  50   2.0000      -0.486904       -13.2493
  51   2.0000      -0.480265       -13.0687
  52   2.0000      -0.468377       -12.7452
  53   2.0000      -0.458350       -12.4723
  54   2.0000      -0.457331       -12.4446
  55   2.0000      -0.449252       -12.2248
  56   2.0000      -0.443967       -12.0809
  57   2.0000      -0.436564       -11.8795
  58   2.0000      -0.432962       -11.7815
  59   2.0000      -0.424066       -11.5394
  60   2.0000      -0.422083       -11.4855
  61   2.0000      -0.409121       -11.1328
  62   2.0000      -0.407071       -11.0770
  63   2.0000      -0.341976        -9.3056
  64   2.0000      -0.328841        -8.9482
  65   2.0000      -0.326749        -8.8913
  66   2.0000      -0.301639        -8.2080
  67   0.0000       0.032200         0.8762
  68   0.0000       0.062250         1.6939
  69   0.0000       0.109258         2.9731
  70   0.0000       0.120402         3.2763
  71   0.0000       0.127275         3.4633

MULLIKEN ATOMIC CHARGES
-----------------------
   0 S :    0.116515
   1 C :   -0.109243
   2 C :   -0.106902
   3 C :    0.049325
   4 C :   -0.157095
   5 H :    0.007471
   6 C :    0.042265
   7 H :    0.031912
   8 H :    0.035578
   9 C :   -0.056896
  10 H :    0.004914
  11 H :    0.026919
  12 C :   -0.035186
  13 H :    0.037254
  14 H :    0.031133
  15 H :    0.032279
  16 S :    0.113838
  17 C :   -0.064635
  18 C :   -0.057551
  19 C :   -0.060708
  20 C :   -0.181171
  21 H :    0.052407
  22 C :    0.072595
  23 H :    0.046008
  24 H :    0.039505
  25 C :   -0.101512
  26 H :    0.042039
  27 H :    0.025162
  28 C :   -0.053977
  29 H :    0.044195
  30 H :    0.030979
  31 H :    0.036419
  32 H :    0.035037
  33 H :    0.031124
Sum of atomic charges:   -0.0000000

LOEWDIN ATOMIC CHARGES
----------------------
   0 S :    0.381138
   1 C :   -0.185281
   2 C :   -0.066275
   3 C :   -0.059240
   4 C :   -0.182177
   5 H :    0.030464
   6 C :   -0.039286
   7 H :    0.037326
   8 H :    0.032968
   9 C :   -0.048463
  10 H :    0.019553
  11 H :    0.021927
  12 C :   -0.059727
  13 H :    0.025583
  14 H :    0.035112
  15 H :    0.023102
  16 S :    0.399852
  17 C :   -0.159156
  18 C :   -0.078627
  19 C :   -0.051001
  20 C :   -0.219863
  21 H :    0.045574
  22 C :   -0.030531
  23 H :    0.034870
  24 H :    0.032946
  25 C :   -0.039942
  26 H :    0.025576
  27 H :    0.016894
  28 C :   -0.069130
  29 H :    0.028267
  30 H :    0.029607
  31 H :    0.022504
  32 H :    0.026158
  33 H :    0.019276

  Mayer bond orders larger than 0.100000
B(  0-S ,  1-C ) :   1.1322 B(  0-S ,  4-C ) :   1.1280 B(  1-C ,  2-C ) :   1.6193
B(  1-C , 32-H ) :   0.9694 B(  2-C ,  3-C ) :   1.2520 B(  2-C ,  6-C ) :   1.0090
B(  3-C ,  4-C ) :   1.5741 B(  3-C ,  5-H ) :   0.9961 B(  4-C , 20-C ) :   1.0290
B(  6-C ,  7-H ) :   0.9285 B(  6-C ,  8-H ) :   0.9542 B(  6-C ,  9-C ) :   1.0645
B(  9-C , 10-H ) :   0.9515 B(  9-C , 11-H ) :   0.9608 B(  9-C , 12-C ) :   1.0728
B( 12-C , 13-H ) :   0.9745 B( 12-C , 14-H ) :   0.9708 B( 12-C , 15-H ) :   0.9795
B( 16-S , 17-C ) :   1.1359 B( 16-S , 20-C ) :   1.1270 B( 17-C , 18-C ) :   1.6560
B( 17-C , 33-H ) :   0.9684 B( 18-C , 19-C ) :   1.2096 B( 18-C , 21-H ) :   0.9714
B( 19-C , 20-C ) :   1.6427 B( 19-C , 22-C ) :   1.0164 B( 22-C , 23-H ) :   0.9399
B( 22-C , 24-H ) :   0.9353 B( 22-C , 25-C ) :   1.0628 B( 25-C , 26-H ) :   0.9590
B( 25-C , 27-H ) :   0.9569 B( 25-C , 28-C ) :   1.0662 B( 28-C , 29-H ) :   0.9755
B( 28-C , 30-H ) :   0.9713 B( 28-C , 31-H ) :   0.9788

Dispersion correction           -0.014254116
FINAL SINGLE POINT ENERGY     -1339.861880566464

DIPOLE MOMENT
-------------
                                X             Y             Z
Electronic contribution:     19.80536      11.94280       8.34752
Nuclear contribution   :    -20.27958     -12.30029      -8.36928
                        -----------------------------------------
Total Dipole Moment    :     -0.47422      -0.35750      -0.02176
                        -----------------------------------------
Magnitude (a.u.)       :      0.59428
Magnitude (Debye)      :      1.51053

Rotational constants in cm-1:     0.022144     0.007260     0.006313
Rotational constants in MHz :   663.851218   217.640623   189.246699

                             ****ORCA TERMINATED NORMALLY****
TOTAL RUN TIME: 0 days 0 hours 0 minutes 34 seconds 105 msec
