                         Program Version 4.2.1 -  RELEASE  -
|  1> ! wB97X-D3 SP def2-SVP
|  2> %pal
|  3> nprocs 16
|  4> end
|  5>
|  6> * xyz 0 1
|  7> S 	 69.1984 	 21.7307 	 79.6913
|  8> C 	 69.091 	 19.96 	 79.6989
|  9> C 	 68.8973 	 19.4158 	 78.4043
| 10> C 	 68.6754 	 20.4684 	 77.4429
| 11> C 	 68.9195 	 21.7435 	 77.9802
| 12> H 	 68.3089 	 20.3245 	 76.4178
| 13> C 	 68.7681 	 17.9594 	 78.1138
| 14> H 	 68.2175 	 17.8689 	 77.1931
| 15> H 	 68.2173 	 17.4788 	 78.9214
| 16> C 	 70.1259 	 17.402 	 77.7784
| 17> H 	 69.9714 	 16.4631 	 77.2789
| 18> H 	 70.5753 	 18.0994 	 77.0911
| 19> C 	 71.0537 	 17.0153 	 78.9205
| 20> H 	 70.8212 	 16.1114 	 79.4789
| 21> H 	 71.9481 	 16.7652 	 78.3916
| 22> H 	 71.0703 	 17.8632 	 79.5797
| 23> S 	 67.4976 	 23.9729 	 77.2309
| 24> C 	 67.9642 	 24.8505 	 75.8281
| 25> C 	 69.2314 	 24.5313 	 75.5343
| 26> C 	 69.7306 	 23.4366 	 76.2614
| 27> C 	 68.8701 	 22.9767 	 77.2055
| 28> H 	 69.8661 	 24.9519 	 74.713
| 29> C 	 71.0734 	 22.8185 	 75.9353
| 30> H 	 71.3986 	 22.1189 	 76.7216
| 31> H 	 71.7216 	 23.7043 	 75.8262
| 32> C 	 71.1035 	 21.9681 	 74.5996
| 33> H 	 70.6714 	 20.9359 	 74.7517
| 34> H 	 72.1847 	 21.8955 	 74.4697
| 35> C 	 70.4986 	 22.6566 	 73.3278
| 36> H 	 70.9237 	 23.5856 	 72.9884
| 37> H 	 69.3869 	 22.7648 	 73.4305
| 38> H 	 70.5223 	 21.9219 	 72.5265
| 39> H 	 69.3 	 19.3245 	 80.5543
| 40> H 	 67.3535 	 25.618 	 75.426
| 41> *
| 42>
| 43>                          ****END OF INPUT****

CARTESIAN COORDINATES (ANGSTROEM)
---------------------------------
  S     69.198400   21.730700   79.691300
  C     69.091000   19.960000   79.698900
  C     68.897300   19.415800   78.404300
  C     68.675400   20.468400   77.442900
  C     68.919500   21.743500   77.980200
  H     68.308900   20.324500   76.417800
  C     68.768100   17.959400   78.113800
  H     68.217500   17.868900   77.193100
  H     68.217300   17.478800   78.921400
  C     70.125900   17.402000   77.778400
  H     69.971400   16.463100   77.278900
  H     70.575300   18.099400   77.091100
  C     71.053700   17.015300   78.920500
  H     70.821200   16.111400   79.478900
  H     71.948100   16.765200   78.391600
  H     71.070300   17.863200   79.579700
  S     67.497600   23.972900   77.230900
  C     67.964200   24.850500   75.828100
  C     69.231400   24.531300   75.534300
  C     69.730600   23.436600   76.261400
  C     68.870100   22.976700   77.205500
  H     69.866100   24.951900   74.713000
  C     71.073400   22.818500   75.935300
  H     71.398600   22.118900   76.721600
  H     71.721600   23.704300   75.826200
  C     71.103500   21.968100   74.599600
  H     70.671400   20.935900   74.751700
  H     72.184700   21.895500   74.469700
  C     70.498600   22.656600   73.327800
  H     70.923700   23.585600   72.988400
  H     69.386900   22.764800   73.430500
  H     70.522300   21.921900   72.526500
  H     69.300000   19.324500   80.554300
  H     67.353500   25.618000   75.426000

 Total Charge           Charge          ....    0
 Multiplicity           Mult            ....    1
 Number of Electrons    NEL             ....  134
 Basis Dimension        Dim             ....  322

ORBITAL ENERGIES
----------------

  NO   OCC          E(Eh)            E(eV)
   0   2.0000     -88.970740     -2421.0169
   1   2.0000     -88.955969     -2420.6150
   2   2.0000     -10.329374      -281.0766
   3   2.0000     -10.316737      -280.7327
   4   2.0000     -10.312283      -280.6115
   5   2.0000     -10.309042      -280.5233
   6   2.0000     -10.303650      -280.3766
   7   2.0000     -10.299573      -280.2656
   8   2.0000     -10.295743      -280.1614
   9   2.0000     -10.291836      -280.0551
  10   2.0000     -10.288962      -279.9769
  11   2.0000     -10.287573      -279.9391
  12   2.0000     -10.286460      -279.9088
  13   2.0000     -10.281142      -279.7641
  14   2.0000     -10.279672      -279.7241
  15   2.0000     -10.271450      -279.5004
  16   2.0000      -8.084936      -220.0023
  17   2.0000      -8.072927      -219.6755
  18   2.0000      -6.043362      -164.4482
  19   2.0000      -6.039533      -164.3441
  20   2.0000      -6.035824      -164.2431
  21   2.0000      -6.031271      -164.1192
  22   2.0000      -6.027056      -164.0045
  23   2.0000      -6.023777      -163.9153
  24   2.0000      -1.016169       -27.6514
  25   2.0000      -0.985397       -26.8140
  26   2.0000      -0.922359       -25.0987
  27   2.0000      -0.900998       -24.5174
  28   2.0000      -0.869707       -23.6659
  29   2.0000      -0.850503       -23.1434
  30   2.0000      -0.842339       -22.9212
  31   2.0000      -0.813275       -22.1304
  32   2.0000      -0.787592       -21.4315
  33   2.0000      -0.776250       -21.1228
  34   2.0000      -0.705972       -19.2105
  35   2.0000      -0.694805       -18.9066
  36   2.0000      -0.690201       -18.7813
  37   2.0000      -0.662795       -18.0356
  38   2.0000      -0.639324       -17.3969
  39   2.0000      -0.615485       -16.7482
  40   2.0000      -0.593430       -16.1481
  41   2.0000      -0.578594       -15.7443
  42   2.0000      -0.557730       -15.1766
  43   2.0000      -0.551140       -14.9973
  44   2.0000      -0.544201       -14.8085
  45   2.0000      -0.531294       -14.4573
  46   2.0000      -0.523939       -14.2571
  47   2.0000      -0.520537       -14.1645
  48   2.0000      -0.501936       -13.6584
  49   2.0000      -0.495569       -13.4851
  50   2.0000      -0.488250       -13.2860
  51   2.0000      -0.478370       -13.0171
  52   2.0000      -0.477083       -12.9821
  53   2.0000      -0.466312       -12.6890
  54   2.0000      -0.460945       -12.5429
  55   2.0000      -0.446789       -12.1578
  56   2.0000      -0.442500       -12.0410
  57   2.0000      -0.439052       -11.9472
  58   2.0000      -0.433174       -11.7873
  59   2.0000      -0.430121       -11.7042
  60   2.0000      -0.423469       -11.5232
  61   2.0000      -0.404616       -11.0101
  62   2.0000      -0.403548       -10.9811
  63   2.0000      -0.337471        -9.1830
  64   2.0000      -0.330904        -9.0044
  65   2.0000      -0.318525        -8.6675
  66   2.0000      -0.304589        -8.2883
  67   0.0000       0.043226         1.1762
  68   0.0000       0.062044         1.6883
  69   0.0000       0.113329         3.0838
  70   0.0000       0.120588         3.2814
  71   0.0000       0.125649         3.4191

MULLIKEN ATOMIC CHARGES
-----------------------
   0 S :    0.129207
   1 C :   -0.121066
   2 C :   -0.133568
   3 C :    0.039640
   4 C :   -0.184802
   5 H :    0.027878
   6 C :    0.101303
   7 H :    0.012033
   8 H :    0.034391
   9 C :   -0.079142
  10 H :    0.017741
  11 H :    0.025018
  12 C :   -0.014724
  13 H :    0.028677
  14 H :    0.029462
  15 H :    0.021467
  16 S :    0.104636
  17 C :   -0.085092
  18 C :   -0.018493
  19 C :   -0.053151
  20 C :   -0.174020
  21 H :    0.025367
  22 C :    0.068828
  23 H :    0.040741
  24 H :    0.029831
  25 C :   -0.087545
  26 H :    0.043073
  27 H :    0.034199
  28 C :   -0.071428
  29 H :    0.038154
  30 H :    0.046278
  31 H :    0.026671
  32 H :    0.050886
  33 H :    0.047554
Sum of atomic charges:   -0.0000000

LOEWDIN ATOMIC CHARGES
----------------------
   0 S :    0.413928
   1 C :   -0.203919
   2 C :   -0.055987
   3 C :   -0.061356
   4 C :   -0.199900
   5 H :    0.035826
   6 C :   -0.032247
   7 H :    0.032167
   8 H :    0.032722
   9 C :   -0.036184
  10 H :    0.020311
  11 H :    0.024685
  12 C :   -0.059601
  13 H :    0.024641
  14 H :    0.028478
  15 H :    0.018631
  16 S :    0.432332
  17 C :   -0.183896
  18 C :   -0.077678
  19 C :   -0.066491
  20 C :   -0.229305
  21 H :    0.037226
  22 C :   -0.031586
  23 H :    0.035605
  24 H :    0.033365
  25 C :   -0.038457
  26 H :    0.029974
  27 H :    0.024729
  28 C :   -0.076423
  29 H :    0.020432
  30 H :    0.032678
  31 H :    0.026416
  32 H :    0.024509
  33 H :    0.024374

  Mayer bond orders larger than 0.100000
B(  0-S ,  1-C ) :   1.1348 B(  0-S ,  4-C ) :   1.1723 B(  1-C ,  2-C ) :   1.5975
B(  1-C ,  4-C ) :   0.1018 B(  1-C , 32-H ) :   0.9623 B(  2-C ,  3-C ) :   1.2486
B(  2-C ,  6-C ) :   1.0306 B(  3-C ,  4-C ) :   1.5734 B(  3-C ,  5-H ) :   0.9846
B(  4-C , 20-C ) :   0.9966 B(  6-C ,  7-H ) :   0.9290 B(  6-C ,  8-H ) :   0.9449
B(  6-C ,  9-C ) :   1.0705 B(  9-C , 10-H ) :   0.9531 B(  9-C , 11-H ) :   0.9531
B(  9-C , 12-C ) :   1.0810 B( 12-C , 13-H ) :   0.9759 B( 12-C , 14-H ) :   0.9713
B( 12-C , 15-H ) :   0.9728 B( 16-S , 17-C ) :   1.1730 B( 16-S , 20-C ) :   1.1561
B( 17-C , 18-C ) :   1.5636 B( 17-C , 33-H ) :   0.9794 B( 18-C , 19-C ) :   1.2744
B( 18-C , 21-H ) :   0.9774 B( 19-C , 20-C ) :   1.6090 B( 19-C , 22-C ) :   1.0390
B( 22-C , 23-H ) :   0.9319 B( 22-C , 24-H ) :   0.9341 B( 22-C , 25-C ) :   1.0690
B( 25-C , 26-H ) :   0.9533 B( 25-C , 27-H ) :   0.9578 B( 25-C , 28-C ) :   1.0855
B( 28-C , 29-H ) :   0.9744 B( 28-C , 30-H ) :   0.9649 B( 28-C , 31-H ) :   0.9701

Dispersion correction           -0.015291115
FINAL SINGLE POINT ENERGY     -1339.875010172948

DIPOLE MOMENT
-------------
                                X             Y             Z
Electronic contribution:    -13.95027      19.09715      13.97329
Nuclear contribution   :     14.19561     -19.55422     -14.51144
                        -----------------------------------------
Total Dipole Moment    :      0.24534      -0.45708      -0.53815
                        -----------------------------------------
Magnitude (a.u.)       :      0.74748
Magnitude (Debye)      :      1.89993

Rotational constants in cm-1:     0.020651     0.008942     0.007035
Rotational constants in MHz :   619.102516   268.076310   210.902222

                             ****ORCA TERMINATED NORMALLY****
TOTAL RUN TIME: 0 days 0 hours 0 minutes 31 seconds 758 msec
