                         Program Version 4.2.1 -  RELEASE  -
|  1> ! wB97X-D3 SP def2-SVP
|  2> %pal
|  3> nprocs 16
|  4> end
|  5>
|  6> * xyz 0 1
|  7> S 	 11.5195 	 20.8967 	 39.4876
|  8> C 	 11.6361 	 21.608 	 37.8831
|  9> C 	 10.844 	 20.9802 	 36.9532
| 10> C 	 10.1478 	 19.8828 	 37.5413
| 11> C 	 10.333 	 19.7666 	 38.9226
| 12> H 	 9.28393 	 19.394 	 37.0954
| 13> C 	 10.72 	 21.5069 	 35.526
| 14> H 	 11.6305 	 21.2016 	 34.9384
| 15> H 	 10.6762 	 22.5852 	 35.6377
| 16> C 	 9.5466 	 20.9677 	 34.6407
| 17> H 	 9.66896 	 21.4874 	 33.7377
| 18> H 	 9.73283 	 19.8865 	 34.4362
| 19> C 	 8.1658 	 21.1391 	 35.2829
| 20> H 	 8.13632 	 22.0972 	 35.8496
| 21> H 	 7.49107 	 21.2097 	 34.4556
| 22> H 	 7.86064 	 20.3073 	 35.9599
| 23> S 	 10.4846 	 18.1926 	 41.1816
| 24> C 	 9.04333 	 17.5896 	 41.8935
| 25> C 	 7.91226 	 17.9143 	 41.1714
| 26> C 	 8.24012 	 18.8047 	 40.0848
| 27> C 	 9.58269 	 18.9705 	 39.8679
| 28> H 	 6.99552 	 17.4317 	 41.5722
| 29> C 	 7.09191 	 19.4732 	 39.3422
| 30> H 	 7.44186 	 20.1463 	 38.5237
| 31> H 	 6.50062 	 20.0379 	 40.082
| 32> C 	 6.01546 	 18.5367 	 38.7634
| 33> H 	 5.5583 	 17.952 	 39.553
| 34> H 	 6.44287 	 17.8179 	 38.1002
| 35> C 	 4.88003 	 19.3158 	 38.0513
| 36> H 	 4.26021 	 18.5885 	 37.5252
| 37> H 	 5.18409 	 19.8761 	 37.2195
| 38> H 	 4.26076 	 19.8741 	 38.7432
| 39> H 	 12.3112 	 22.3942 	 37.6797
| 40> H 	 9.11257 	 16.9282 	 42.755
| 41> *
| 42>
| 43>                          ****END OF INPUT****

CARTESIAN COORDINATES (ANGSTROEM)
---------------------------------
  S     11.519500   20.896700   39.487600
  C     11.636100   21.608000   37.883100
  C     10.844000   20.980200   36.953200
  C     10.147800   19.882800   37.541300
  C     10.333000   19.766600   38.922600
  H      9.283930   19.394000   37.095400
  C     10.720000   21.506900   35.526000
  H     11.630500   21.201600   34.938400
  H     10.676200   22.585200   35.637700
  C      9.546600   20.967700   34.640700
  H      9.668960   21.487400   33.737700
  H      9.732830   19.886500   34.436200
  C      8.165800   21.139100   35.282900
  H      8.136320   22.097200   35.849600
  H      7.491070   21.209700   34.455600
  H      7.860640   20.307300   35.959900
  S     10.484600   18.192600   41.181600
  C      9.043330   17.589600   41.893500
  C      7.912260   17.914300   41.171400
  C      8.240120   18.804700   40.084800
  C      9.582690   18.970500   39.867900
  H      6.995520   17.431700   41.572200
  C      7.091910   19.473200   39.342200
  H      7.441860   20.146300   38.523700
  H      6.500620   20.037900   40.082000
  C      6.015460   18.536700   38.763400
  H      5.558300   17.952000   39.553000
  H      6.442870   17.817900   38.100200
  C      4.880030   19.315800   38.051300
  H      4.260210   18.588500   37.525200
  H      5.184090   19.876100   37.219500
  H      4.260760   19.874100   38.743200
  H     12.311200   22.394200   37.679700
  H      9.112570   16.928200   42.755000

 Total Charge           Charge          ....    0
 Multiplicity           Mult            ....    1
 Number of Electrons    NEL             ....  134
 Basis Dimension        Dim             ....  322

ORBITAL ENERGIES
----------------

  NO   OCC          E(Eh)            E(eV)
   0   2.0000     -88.965154     -2420.8649
   1   2.0000     -88.960191     -2420.7299
   2   2.0000     -10.327628      -281.0290
   3   2.0000     -10.325123      -280.9609
   4   2.0000     -10.316369      -280.7227
   5   2.0000     -10.307480      -280.4808
   6   2.0000     -10.307109      -280.4707
   7   2.0000     -10.300238      -280.2837
   8   2.0000     -10.297803      -280.2175
   9   2.0000     -10.297287      -280.2034
  10   2.0000     -10.293641      -280.1042
  11   2.0000     -10.293359      -280.0965
  12   2.0000     -10.289505      -279.9917
  13   2.0000     -10.284281      -279.8495
  14   2.0000     -10.283057      -279.8162
  15   2.0000     -10.274799      -279.5915
  16   2.0000      -8.080090      -219.8704
  17   2.0000      -8.075793      -219.7535
  18   2.0000      -6.038459      -164.3148
  19   2.0000      -6.034599      -164.2098
  20   2.0000      -6.034234      -164.1999
  21   2.0000      -6.030948      -164.1104
  22   2.0000      -6.030184      -164.0896
  23   2.0000      -6.026577      -163.9915
  24   2.0000      -1.007825       -27.4243
  25   2.0000      -0.984657       -26.7939
  26   2.0000      -0.910743       -24.7826
  27   2.0000      -0.907704       -24.6999
  28   2.0000      -0.871620       -23.7180
  29   2.0000      -0.851997       -23.1840
  30   2.0000      -0.841129       -22.8883
  31   2.0000      -0.816119       -22.2077
  32   2.0000      -0.785003       -21.3610
  33   2.0000      -0.774272       -21.0690
  34   2.0000      -0.710877       -19.3439
  35   2.0000      -0.699598       -19.0370
  36   2.0000      -0.691826       -18.8255
  37   2.0000      -0.657504       -17.8916
  38   2.0000      -0.638783       -17.3822
  39   2.0000      -0.622390       -16.9361
  40   2.0000      -0.596639       -16.2354
  41   2.0000      -0.572739       -15.5850
  42   2.0000      -0.565922       -15.3995
  43   2.0000      -0.551982       -15.0202
  44   2.0000      -0.537823       -14.6349
  45   2.0000      -0.524936       -14.2842
  46   2.0000      -0.518753       -14.1160
  47   2.0000      -0.506792       -13.7905
  48   2.0000      -0.504015       -13.7149
  49   2.0000      -0.500627       -13.6228
  50   2.0000      -0.494888       -13.4666
  51   2.0000      -0.483898       -13.1675
  52   2.0000      -0.473751       -12.8914
  53   2.0000      -0.468421       -12.7464
  54   2.0000      -0.459708       -12.5093
  55   2.0000      -0.448956       -12.2167
  56   2.0000      -0.441841       -12.0231
  57   2.0000      -0.431440       -11.7401
  58   2.0000      -0.429404       -11.6847
  59   2.0000      -0.428318       -11.6551
  60   2.0000      -0.424991       -11.5646
  61   2.0000      -0.417503       -11.3608
  62   2.0000      -0.414979       -11.2921
  63   2.0000      -0.346170        -9.4198
  64   2.0000      -0.332431        -9.0459
  65   2.0000      -0.327691        -8.9169
  66   2.0000      -0.290037        -7.8923
  67   0.0000       0.030926         0.8415
  68   0.0000       0.072683         1.9778
  69   0.0000       0.110515         3.0073
  70   0.0000       0.118079         3.2131
  71   0.0000       0.123326         3.3559

MULLIKEN ATOMIC CHARGES
-----------------------
   0 S :    0.117709
   1 C :   -0.120311
   2 C :   -0.085700
   3 C :    0.044554
   4 C :   -0.155436
   5 H :    0.001327
   6 C :    0.024446
   7 H :    0.051251
   8 H :    0.038060
   9 C :   -0.070455
  10 H :    0.023820
  11 H :    0.038642
  12 C :   -0.061135
  13 H :    0.041888
  14 H :    0.030627
  15 H :    0.047186
  16 S :    0.087498
  17 C :   -0.103295
  18 C :   -0.054148
  19 C :   -0.002551
  20 C :   -0.149604
  21 H :    0.041164
  22 C :    0.059392
  23 H :    0.026274
  24 H :    0.031703
  25 C :   -0.096197
  26 H :    0.025586
  27 H :    0.020387
  28 C :   -0.018789
  29 H :    0.021298
  30 H :    0.015434
  31 H :    0.036474
  32 H :    0.029766
  33 H :    0.063136
Sum of atomic charges:    0.0000000

LOEWDIN ATOMIC CHARGES
----------------------
   0 S :    0.413273
   1 C :   -0.187971
   2 C :   -0.064752
   3 C :   -0.068430
   4 C :   -0.195657
   5 H :    0.027395
   6 C :   -0.034408
   7 H :    0.041426
   8 H :    0.030002
   9 C :   -0.040479
  10 H :    0.020622
  11 H :    0.029780
  12 C :   -0.069268
  13 H :    0.031747
  14 H :    0.024294
  15 H :    0.026443
  16 S :    0.396825
  17 C :   -0.184422
  18 C :   -0.082379
  19 C :   -0.051887
  20 C :   -0.196436
  21 H :    0.043127
  22 C :   -0.033441
  23 H :    0.029731
  24 H :    0.036349
  25 C :   -0.037052
  26 H :    0.020835
  27 H :    0.017004
  28 C :   -0.060764
  29 H :    0.030032
  30 H :    0.017134
  31 H :    0.025323
  32 H :    0.017204
  33 H :    0.028802

  Mayer bond orders larger than 0.100000
B(  0-S ,  1-C ) :   1.1397 B(  0-S ,  4-C ) :   1.1682 B(  1-C ,  2-C ) :   1.6130
B(  1-C ,  4-C ) :   0.1017 B(  1-C , 32-H ) :   0.9781 B(  2-C ,  3-C ) :   1.2539
B(  2-C ,  6-C ) :   0.9983 B(  3-C ,  4-C ) :   1.5631 B(  3-C ,  5-H ) :   0.9874
B(  4-C , 20-C ) :   1.0423 B(  6-C ,  7-H ) :   0.9381 B(  6-C ,  8-H ) :   0.9472
B(  6-C ,  9-C ) :   1.0917 B(  9-C , 10-H ) :   0.9547 B(  9-C , 11-H ) :   0.9499
B(  9-C , 12-C ) :   1.0723 B( 12-C , 13-H ) :   0.9778 B( 12-C , 14-H ) :   0.9720
B( 12-C , 15-H ) :   0.9701 B( 16-S , 17-C ) :   1.1695 B( 16-S , 20-C ) :   1.1158
B( 17-C , 18-C ) :   1.6299 B( 17-C , 33-H ) :   0.9644 B( 18-C , 19-C ) :   1.1856
B( 18-C , 21-H ) :   0.9889 B( 19-C , 20-C ) :   1.6289 B( 19-C , 22-C ) :   1.0470
B( 22-C , 23-H ) :   0.9403 B( 22-C , 24-H ) :   0.9309 B( 22-C , 25-C ) :   1.0582
B( 25-C , 26-H ) :   0.9508 B( 25-C , 27-H ) :   0.9578 B( 25-C , 28-C ) :   1.0928
B( 28-C , 29-H ) :   0.9693 B( 28-C , 30-H ) :   0.9731 B( 28-C , 31-H ) :   0.9749

Dispersion correction           -0.014973885
FINAL SINGLE POINT ENERGY     -1339.885064820976

DIPOLE MOMENT
-------------
                                X             Y             Z
Electronic contribution:     23.58152      -4.06091      21.72709
Nuclear contribution   :    -24.18841       4.16657     -22.18558
                        -----------------------------------------
Total Dipole Moment    :     -0.60689       0.10567      -0.45849
                        -----------------------------------------
Magnitude (a.u.)       :      0.76792
Magnitude (Debye)      :      1.95189

Rotational constants in cm-1:     0.015929     0.011037     0.006910
Rotational constants in MHz :   477.546134   330.875078   207.150750

                             ****ORCA TERMINATED NORMALLY****
TOTAL RUN TIME: 0 days 0 hours 0 minutes 36 seconds 465 msec
