                         Program Version 4.2.1 -  RELEASE  -
|  1> ! wB97X-D3 SP def2-SVP
|  2> %pal
|  3> nprocs 16
|  4> end
|  5>
|  6> * xyz 0 1
|  7> S 	 0.883485 	 -4.27402 	 78.0972
|  8> C 	 -0.36306 	 -3.12388 	 77.8466
|  9> C 	 -0.320883 	 -2.04268 	 78.7023
| 10> C 	 0.604415 	 -2.33132 	 79.7254
| 11> C 	 1.26297 	 -3.5302 	 79.6262
| 12> H 	 0.761538 	 -1.74602 	 80.6202
| 13> C 	 -1.26669 	 -0.805192 	 78.6867
| 14> H 	 -1.89745 	 -0.968939 	 79.5974
| 15> H 	 -1.99085 	 -0.818765 	 77.8805
| 16> C 	 -0.660945 	 0.566431 	 78.8126
| 17> H 	 -1.41422 	 1.2715 	 79.1934
| 18> H 	 0.162454 	 0.581168 	 79.5265
| 19> C 	 -0.124224 	 1.03307 	 77.4574
| 20> H 	 0.490056 	 1.86153 	 77.6204
| 21> H 	 0.477715 	 0.212045 	 77.0213
| 22> H 	 -0.881645 	 1.34234 	 76.7874
| 23> S 	 3.86237 	 -4.39346 	 79.9906
| 24> C 	 4.39814 	 -4.57747 	 81.5523
| 25> C 	 3.35795 	 -4.63465 	 82.4469
| 26> C 	 2.07018 	 -4.28154 	 81.8852
| 27> C 	 2.21205 	 -4.06322 	 80.5419
| 28> H 	 3.59023 	 -4.8237 	 83.472
| 29> C 	 0.797448 	 -4.12376 	 82.7349
| 30> H 	 0.744621 	 -4.96027 	 83.4126
| 31> H 	 -0.0648114 	 -4.13517 	 82.028
| 32> C 	 0.720199 	 -2.86948 	 83.5515
| 33> H 	 -0.329795 	 -2.75468 	 83.9508
| 34> H 	 0.766026 	 -2.05883 	 82.8498
| 35> C 	 1.86417 	 -2.45585 	 84.5113
| 36> H 	 1.9529 	 -3.09614 	 85.407
| 37> H 	 1.68243 	 -1.52541 	 84.9238
| 38> H 	 2.84711 	 -2.50032 	 84.1376
| 39> H 	 -1.11484 	 -3.37747 	 77.0058
| 40> H 	 5.48645 	 -4.73516 	 81.8021
| 41> *
| 42>
| 43>                          ****END OF INPUT****

CARTESIAN COORDINATES (ANGSTROEM)
---------------------------------
  S      0.883485   -4.274020   78.097200
  C     -0.363060   -3.123880   77.846600
  C     -0.320883   -2.042680   78.702300
  C      0.604415   -2.331320   79.725400
  C      1.262970   -3.530200   79.626200
  H      0.761538   -1.746020   80.620200
  C     -1.266690   -0.805192   78.686700
  H     -1.897450   -0.968939   79.597400
  H     -1.990850   -0.818765   77.880500
  C     -0.660945    0.566431   78.812600
  H     -1.414220    1.271500   79.193400
  H      0.162454    0.581168   79.526500
  C     -0.124224    1.033070   77.457400
  H      0.490056    1.861530   77.620400
  H      0.477715    0.212045   77.021300
  H     -0.881645    1.342340   76.787400
  S      3.862370   -4.393460   79.990600
  C      4.398140   -4.577470   81.552300
  C      3.357950   -4.634650   82.446900
  C      2.070180   -4.281540   81.885200
  C      2.212050   -4.063220   80.541900
  H      3.590230   -4.823700   83.472000
  C      0.797448   -4.123760   82.734900
  H      0.744621   -4.960270   83.412600
  H     -0.064811   -4.135170   82.028000
  C      0.720199   -2.869480   83.551500
  H     -0.329795   -2.754680   83.950800
  H      0.766026   -2.058830   82.849800
  C      1.864170   -2.455850   84.511300
  H      1.952900   -3.096140   85.407000
  H      1.682430   -1.525410   84.923800
  H      2.847110   -2.500320   84.137600
  H     -1.114840   -3.377470   77.005800
  H      5.486450   -4.735160   81.802100

 Total Charge           Charge          ....    0
 Multiplicity           Mult            ....    1
 Number of Electrons    NEL             ....  134
 Basis Dimension        Dim             ....  322

ORBITAL ENERGIES
----------------

  NO   OCC          E(Eh)            E(eV)
   0   2.0000     -88.962417     -2420.7904
   1   2.0000     -88.961253     -2420.7588
   2   2.0000     -10.320637      -280.8388
   3   2.0000     -10.319695      -280.8132
   4   2.0000     -10.317696      -280.7588
   5   2.0000     -10.313822      -280.6534
   6   2.0000     -10.304412      -280.3973
   7   2.0000     -10.303283      -280.3666
   8   2.0000     -10.296655      -280.1862
   9   2.0000     -10.294056      -280.1155
  10   2.0000     -10.290269      -280.0125
  11   2.0000     -10.289127      -279.9814
  12   2.0000     -10.288515      -279.9647
  13   2.0000     -10.285737      -279.8891
  14   2.0000     -10.270851      -279.4841
  15   2.0000     -10.266553      -279.3671
  16   2.0000      -8.078522      -219.8277
  17   2.0000      -8.077961      -219.8125
  18   2.0000      -6.036779      -164.2691
  19   2.0000      -6.036328      -164.2568
  20   2.0000      -6.032991      -164.1660
  21   2.0000      -6.032275      -164.1465
  22   2.0000      -6.029323      -164.0662
  23   2.0000      -6.028665      -164.0483
  24   2.0000      -1.014908       -27.6170
  25   2.0000      -0.992611       -27.0103
  26   2.0000      -0.914175       -24.8760
  27   2.0000      -0.912922       -24.8419
  28   2.0000      -0.874288       -23.7906
  29   2.0000      -0.852930       -23.2094
  30   2.0000      -0.845593       -23.0098
  31   2.0000      -0.810637       -22.0585
  32   2.0000      -0.794752       -21.6263
  33   2.0000      -0.777467       -21.1560
  34   2.0000      -0.709377       -19.3031
  35   2.0000      -0.697887       -18.9905
  36   2.0000      -0.685103       -18.6426
  37   2.0000      -0.661520       -18.0009
  38   2.0000      -0.640598       -17.4316
  39   2.0000      -0.624062       -16.9816
  40   2.0000      -0.595640       -16.2082
  41   2.0000      -0.566794       -15.4233
  42   2.0000      -0.556343       -15.1389
  43   2.0000      -0.551106       -14.9964
  44   2.0000      -0.547304       -14.8929
  45   2.0000      -0.536333       -14.5944
  46   2.0000      -0.517476       -14.0812
  47   2.0000      -0.513454       -13.9718
  48   2.0000      -0.502579       -13.6759
  49   2.0000      -0.496162       -13.5012
  50   2.0000      -0.484431       -13.1820
  51   2.0000      -0.479680       -13.0528
  52   2.0000      -0.479439       -13.0462
  53   2.0000      -0.473132       -12.8746
  54   2.0000      -0.457681       -12.4541
  55   2.0000      -0.449612       -12.2346
  56   2.0000      -0.446877       -12.1601
  57   2.0000      -0.438294       -11.9266
  58   2.0000      -0.433959       -11.8086
  59   2.0000      -0.427658       -11.6372
  60   2.0000      -0.424420       -11.5491
  61   2.0000      -0.418632       -11.3916
  62   2.0000      -0.405200       -11.0261
  63   2.0000      -0.347828        -9.4649
  64   2.0000      -0.332446        -9.0463
  65   2.0000      -0.329207        -8.9582
  66   2.0000      -0.288280        -7.8445
  67   0.0000       0.039775         1.0823
  68   0.0000       0.064432         1.7533
  69   0.0000       0.119073         3.2401
  70   0.0000       0.122044         3.3210
  71   0.0000       0.127752         3.4763

MULLIKEN ATOMIC CHARGES
-----------------------
   0 S :    0.114697
   1 C :   -0.180339
   2 C :   -0.039454
   3 C :    0.014985
   4 C :   -0.170689
   5 H :   -0.000259
   6 C :    0.061154
   7 H :    0.036460
   8 H :    0.015442
   9 C :   -0.076472
  10 H :    0.030737
  11 H :    0.026934
  12 C :   -0.021559
  13 H :    0.017184
  14 H :    0.041080
  15 H :    0.022158
  16 S :    0.119039
  17 C :   -0.111991
  18 C :   -0.038903
  19 C :   -0.045288
  20 C :   -0.166343
  21 H :    0.006991
  22 C :    0.106748
  23 H :    0.024605
  24 H :    0.040955
  25 C :   -0.071455
  26 H :    0.037509
  27 H :    0.003236
  28 C :   -0.014773
  29 H :    0.013863
  30 H :    0.016094
  31 H :    0.029831
  32 H :    0.080260
  33 H :    0.077563
Sum of atomic charges:    0.0000000

LOEWDIN ATOMIC CHARGES
----------------------
   0 S :    0.415012
   1 C :   -0.212413
   2 C :   -0.068945
   3 C :   -0.060552
   4 C :   -0.199393
   5 H :    0.026607
   6 C :   -0.030567
   7 H :    0.037495
   8 H :    0.026984
   9 C :   -0.041672
  10 H :    0.027506
  11 H :    0.023008
  12 C :   -0.057464
  13 H :    0.017417
  14 H :    0.032725
  15 H :    0.018736
  16 S :    0.424075
  17 C :   -0.216831
  18 C :   -0.077270
  19 C :   -0.048560
  20 C :   -0.197664
  21 H :    0.023885
  22 C :   -0.026800
  23 H :    0.028958
  24 H :    0.040440
  25 C :   -0.044648
  26 H :    0.034128
  27 H :    0.017487
  28 C :   -0.060402
  29 H :    0.022964
  30 H :    0.019510
  31 H :    0.021760
  32 H :    0.041757
  33 H :    0.042729

  Mayer bond orders larger than 0.100000
B(  0-S ,  1-C ) :   1.1641 B(  0-S ,  4-C ) :   1.1447 B(  1-C ,  2-C ) :   1.5905
B(  1-C , 32-H ) :   0.9566 B(  2-C ,  3-C ) :   1.2385 B(  2-C ,  6-C ) :   1.0131
B(  3-C ,  4-C ) :   1.5838 B(  3-C ,  5-H ) :   0.9953 B(  4-C , 20-C ) :   1.0468
B(  6-C ,  7-H ) :   0.9378 B(  6-C ,  8-H ) :   0.9467 B(  6-C ,  9-C ) :   1.0748
B(  9-C , 10-H ) :   0.9516 B(  9-C , 11-H ) :   0.9581 B(  9-C , 12-C ) :   1.0783
B( 12-C , 13-H ) :   0.9731 B( 12-C , 14-H ) :   0.9773 B( 12-C , 15-H ) :   0.9745
B( 16-S , 17-C ) :   1.1742 B( 16-S , 20-C ) :   1.1339 B( 17-C , 18-C ) :   1.6100
B( 17-C , 33-H ) :   0.9591 B( 18-C , 19-C ) :   1.2103 B( 18-C , 21-H ) :   0.9941
B( 19-C , 20-C ) :   1.6254 B( 19-C , 22-C ) :   1.0399 B( 22-C , 23-H ) :   0.9326
B( 22-C , 24-H ) :   0.9253 B( 22-C , 25-C ) :   1.0848 B( 25-C , 26-H ) :   0.9513
B( 25-C , 27-H ) :   0.9444 B( 25-C , 28-C ) :   1.0764 B( 28-C , 29-H ) :   0.9727
B( 28-C , 30-H ) :   0.9707 B( 28-C , 31-H ) :   0.9673

Dispersion correction           -0.014854917
FINAL SINGLE POINT ENERGY     -1339.874590195251

DIPOLE MOMENT
-------------
                                X             Y             Z
Electronic contribution:     11.98779     -20.48793     -12.21439
Nuclear contribution   :    -12.30084      20.92942      12.65556
                        -----------------------------------------
Total Dipole Moment    :     -0.31305       0.44150       0.44117
                        -----------------------------------------
Magnitude (a.u.)       :      0.69825
Magnitude (Debye)      :      1.77481

Rotational constants in cm-1:     0.018602     0.008971     0.007186
Rotational constants in MHz :   557.685098   268.949965   215.429529

                             ****ORCA TERMINATED NORMALLY****
TOTAL RUN TIME: 0 days 0 hours 0 minutes 36 seconds 14 msec
