                         Program Version 4.2.1 -  RELEASE  -
|  1> ! wB97X-D3 SP def2-SVP
|  2> %pal
|  3> nprocs 16
|  4> end
|  5>
|  6> * xyz 0 1
|  7> S 	 -42.9799 	 -3.41526 	 96.0369
|  8> C 	 -42.359 	 -5.04814 	 95.7469
|  9> C 	 -41.5746 	 -5.37688 	 96.8502
| 10> C 	 -41.4275 	 -4.39212 	 97.8812
| 11> C 	 -41.9786 	 -3.22763 	 97.4241
| 12> H 	 -40.8926 	 -4.57076 	 98.8238
| 13> C 	 -41.0147 	 -6.78158 	 97.0528
| 14> H 	 -41.9127 	 -7.39034 	 96.8647
| 15> H 	 -40.7156 	 -6.90397 	 98.1345
| 16> C 	 -39.7823 	 -7.04524 	 96.1018
| 17> H 	 -40.1093 	 -7.14384 	 95.0562
| 18> H 	 -39.1533 	 -6.19853 	 96.1796
| 19> C 	 -38.9398 	 -8.28359 	 96.3349
| 20> H 	 -38.6182 	 -8.4316 	 97.3846
| 21> H 	 -39.4014 	 -9.18754 	 95.9574
| 22> H 	 -38.0196 	 -8.19155 	 95.7456
| 23> S 	 -43.4644 	 -1.0869 	 98.1591
| 24> C 	 -42.6859 	 0.178229 	 99.0498
| 25> C 	 -41.3792 	 -0.109939 	 99.3373
| 26> C 	 -40.9178 	 -1.31958 	 98.7395
| 27> C 	 -41.9494 	 -2.0221 	 98.1674
| 28> H 	 -40.8927 	 0.684036 	 99.878
| 29> C 	 -39.4894 	 -1.85492 	 98.8741
| 30> H 	 -39.1449 	 -2.14321 	 97.9343
| 31> H 	 -39.4748 	 -2.72735 	 99.5364
| 32> C 	 -38.426 	 -0.803023 	 99.3866
| 33> H 	 -38.5817 	 -0.428493 	 100.39
| 34> H 	 -38.5402 	 0.055457 	 98.7122
| 35> C 	 -37.0486 	 -1.40028 	 99.0756
| 36> H 	 -36.2964 	 -0.686519 	 99.2374
| 37> H 	 -36.7975 	 -1.95174 	 98.1259
| 38> H 	 -36.9346 	 -2.22917 	 99.8222
| 39> H 	 -42.6259 	 -5.75358 	 94.9381
| 40> H 	 -43.2042 	 1.03226 	 99.4499
| 41> *
| 42>
| 43>                          ****END OF INPUT****

CARTESIAN COORDINATES (ANGSTROEM)
---------------------------------
  S    -42.979900   -3.415260   96.036900
  C    -42.359000   -5.048140   95.746900
  C    -41.574600   -5.376880   96.850200
  C    -41.427500   -4.392120   97.881200
  C    -41.978600   -3.227630   97.424100
  H    -40.892600   -4.570760   98.823800
  C    -41.014700   -6.781580   97.052800
  H    -41.912700   -7.390340   96.864700
  H    -40.715600   -6.903970   98.134500
  C    -39.782300   -7.045240   96.101800
  H    -40.109300   -7.143840   95.056200
  H    -39.153300   -6.198530   96.179600
  C    -38.939800   -8.283590   96.334900
  H    -38.618200   -8.431600   97.384600
  H    -39.401400   -9.187540   95.957400
  H    -38.019600   -8.191550   95.745600
  S    -43.464400   -1.086900   98.159100
  C    -42.685900    0.178229   99.049800
  C    -41.379200   -0.109939   99.337300
  C    -40.917800   -1.319580   98.739500
  C    -41.949400   -2.022100   98.167400
  H    -40.892700    0.684036   99.878000
  C    -39.489400   -1.854920   98.874100
  H    -39.144900   -2.143210   97.934300
  H    -39.474800   -2.727350   99.536400
  C    -38.426000   -0.803023   99.386600
  H    -38.581700   -0.428493  100.390000
  H    -38.540200    0.055457   98.712200
  C    -37.048600   -1.400280   99.075600
  H    -36.296400   -0.686519   99.237400
  H    -36.797500   -1.951740   98.125900
  H    -36.934600   -2.229170   99.822200
  H    -42.625900   -5.753580   94.938100
  H    -43.204200    1.032260   99.449900

 Total Charge           Charge          ....    0
 Multiplicity           Mult            ....    1
 Number of Electrons    NEL             ....  134
 Basis Dimension        Dim             ....  322

ORBITAL ENERGIES
----------------

  NO   OCC          E(Eh)            E(eV)
   0   2.0000     -88.966277     -2420.8955
   1   2.0000     -88.961388     -2420.7624
   2   2.0000     -10.322933      -280.9013
   3   2.0000     -10.319728      -280.8141
   4   2.0000     -10.314512      -280.6722
   5   2.0000     -10.311508      -280.5904
   6   2.0000     -10.303848      -280.3820
   7   2.0000     -10.298637      -280.2402
   8   2.0000     -10.295154      -280.1454
   9   2.0000     -10.292628      -280.0766
  10   2.0000     -10.292057      -280.0611
  11   2.0000     -10.291563      -280.0477
  12   2.0000     -10.290443      -280.0172
  13   2.0000     -10.285751      -279.8895
  14   2.0000     -10.281914      -279.7851
  15   2.0000     -10.277193      -279.6566
  16   2.0000      -8.081076      -219.8973
  17   2.0000      -8.076431      -219.7709
  18   2.0000      -6.039686      -164.3482
  19   2.0000      -6.035642      -164.2382
  20   2.0000      -6.034883      -164.2175
  21   2.0000      -6.031639      -164.1292
  22   2.0000      -6.030979      -164.1113
  23   2.0000      -6.027159      -164.0073
  24   2.0000      -1.012051       -27.5393
  25   2.0000      -0.983892       -26.7731
  26   2.0000      -0.908308       -24.7163
  27   2.0000      -0.905923       -24.6514
  28   2.0000      -0.872266       -23.7356
  29   2.0000      -0.855680       -23.2842
  30   2.0000      -0.844742       -22.9866
  31   2.0000      -0.815703       -22.1964
  32   2.0000      -0.780260       -21.2320
  33   2.0000      -0.766759       -20.8646
  34   2.0000      -0.708496       -19.2792
  35   2.0000      -0.704283       -19.1645
  36   2.0000      -0.697640       -18.9837
  37   2.0000      -0.653376       -17.7793
  38   2.0000      -0.633862       -17.2483
  39   2.0000      -0.617927       -16.8147
  40   2.0000      -0.597390       -16.2558
  41   2.0000      -0.571090       -15.5401
  42   2.0000      -0.566251       -15.4085
  43   2.0000      -0.557888       -15.1809
  44   2.0000      -0.528179       -14.3725
  45   2.0000      -0.522339       -14.2136
  46   2.0000      -0.518720       -14.1151
  47   2.0000      -0.514244       -13.9933
  48   2.0000      -0.504144       -13.7185
  49   2.0000      -0.501597       -13.6491
  50   2.0000      -0.487097       -13.2546
  51   2.0000      -0.482852       -13.1391
  52   2.0000      -0.476839       -12.9755
  53   2.0000      -0.468776       -12.7560
  54   2.0000      -0.457024       -12.4362
  55   2.0000      -0.454683       -12.3726
  56   2.0000      -0.449526       -12.2322
  57   2.0000      -0.435681       -11.8555
  58   2.0000      -0.427821       -11.6416
  59   2.0000      -0.421534       -11.4705
  60   2.0000      -0.417476       -11.3601
  61   2.0000      -0.412543       -11.2259
  62   2.0000      -0.408220       -11.1082
  63   2.0000      -0.350996        -9.5511
  64   2.0000      -0.333198        -9.0668
  65   2.0000      -0.328084        -8.9276
  66   2.0000      -0.284725        -7.7478
  67   0.0000       0.025113         0.6834
  68   0.0000       0.075348         2.0503
  69   0.0000       0.101029         2.7491
  70   0.0000       0.130606         3.5540
  71   0.0000       0.132338         3.6011

MULLIKEN ATOMIC CHARGES
-----------------------
   0 S :    0.111024
   1 C :   -0.129418
   2 C :   -0.108883
   3 C :   -0.001796
   4 C :   -0.114223
   5 H :    0.030296
   6 C :    0.042459
   7 H :    0.039716
   8 H :    0.024306
   9 C :   -0.061936
  10 H :    0.029130
  11 H :    0.023323
  12 C :   -0.044556
  13 H :    0.030365
  14 H :    0.028153
  15 H :    0.029438
  16 S :    0.089379
  17 C :   -0.084016
  18 C :   -0.044845
  19 C :   -0.021505
  20 C :   -0.151451
  21 H :    0.014999
  22 C :    0.073197
  23 H :    0.016305
  24 H :    0.040552
  25 C :   -0.091053
  26 H :    0.043589
  27 H :    0.031496
  28 C :   -0.051695
  29 H :    0.026769
  30 H :    0.047051
  31 H :    0.022943
  32 H :    0.060726
  33 H :    0.050161
Sum of atomic charges:   -0.0000000

LOEWDIN ATOMIC CHARGES
----------------------
   0 S :    0.409340
   1 C :   -0.212423
   2 C :   -0.059117
   3 C :   -0.067777
   4 C :   -0.195237
   5 H :    0.038856
   6 C :   -0.036149
   7 H :    0.032442
   8 H :    0.029911
   9 C :   -0.038881
  10 H :    0.027769
  11 H :    0.020073
  12 C :   -0.069590
  13 H :    0.024053
  14 H :    0.022302
  15 H :    0.029466
  16 S :    0.387987
  17 C :   -0.183027
  18 C :   -0.076696
  19 C :   -0.052654
  20 C :   -0.183221
  21 H :    0.032305
  22 C :   -0.020357
  23 H :    0.025171
  24 H :    0.029629
  25 C :   -0.037259
  26 H :    0.024625
  27 H :    0.024238
  28 C :   -0.071186
  29 H :    0.016924
  30 H :    0.035784
  31 H :    0.027879
  32 H :    0.038103
  33 H :    0.026713

  Mayer bond orders larger than 0.100000
B(  0-S ,  1-C ) :   1.1038 B(  0-S ,  4-C ) :   1.1665 B(  1-C ,  2-C ) :   1.6073
B(  1-C , 32-H ) :   0.9699 B(  2-C ,  3-C ) :   1.2477 B(  2-C ,  6-C ) :   1.0155
B(  3-C ,  4-C ) :   1.5262 B(  3-C ,  5-H ) :   0.9945 B(  4-C , 20-C ) :   1.0883
B(  6-C ,  7-H ) :   0.9439 B(  6-C ,  8-H ) :   0.9492 B(  6-C ,  9-C ) :   1.0489
B(  9-C , 10-H ) :   0.9545 B(  9-C , 11-H ) :   0.9603 B(  9-C , 12-C ) :   1.0963
B( 12-C , 13-H ) :   0.9735 B( 12-C , 14-H ) :   0.9753 B( 12-C , 15-H ) :   0.9717
B( 16-S , 17-C ) :   1.1516 B( 16-S , 20-C ) :   1.1195 B( 17-C , 18-C ) :   1.6377
B( 17-C , 33-H ) :   0.9622 B( 18-C , 19-C ) :   1.2079 B( 18-C , 21-H ) :   0.9912
B( 19-C , 20-C ) :   1.6242 B( 19-C , 22-C ) :   1.0284 B( 22-C , 23-H ) :   0.9266
B( 22-C , 24-H ) :   0.9374 B( 22-C , 25-C ) :   1.0769 B( 25-C , 26-H ) :   0.9514
B( 25-C , 27-H ) :   0.9580 B( 25-C , 28-C ) :   1.0731 B( 28-C , 29-H ) :   0.9736
B( 28-C , 30-H ) :   0.9758 B( 28-C , 31-H ) :   0.9730

Dispersion correction           -0.013448875
FINAL SINGLE POINT ENERGY     -1339.868104071895

DIPOLE MOMENT
-------------
                                X             Y             Z
Electronic contribution:    -28.26336      14.45559      -3.67733
Nuclear contribution   :     28.87335     -14.65435       3.94337
                        -----------------------------------------
Total Dipole Moment    :      0.60999      -0.19876       0.26604
                        -----------------------------------------
Magnitude (a.u.)       :      0.69453
Magnitude (Debye)      :      1.76535

Rotational constants in cm-1:     0.017060     0.008838     0.006121
Rotational constants in MHz :   511.440274   264.953440   183.493442

                             ****ORCA TERMINATED NORMALLY****
TOTAL RUN TIME: 0 days 0 hours 0 minutes 29 seconds 94 msec
