                         Program Version 4.2.1 -  RELEASE  -
|  1> ! wB97X-D3 SP def2-SVP
|  2> %pal
|  3> nprocs 16
|  4> end
|  5>
|  6> * xyz 0 1
|  7> S 	 53.4504 	 19.2494 	 48.2893
|  8> C 	 53.5258 	 19.7418 	 46.662
|  9> C 	 54.7569 	 19.5234 	 46.1304
| 10> C 	 55.5713 	 18.6981 	 46.9624
| 11> C 	 54.9003 	 18.2555 	 48.1033
| 12> H 	 56.5832 	 18.3742 	 46.7907
| 13> C 	 55.1713 	 20.1247 	 44.7564
| 14> H 	 56.0977 	 20.6306 	 44.8076
| 15> H 	 54.5612 	 21.0473 	 44.5881
| 16> C 	 55.2349 	 19.1655 	 43.5217
| 17> H 	 55.3852 	 19.8103 	 42.6487
| 18> H 	 56.0765 	 18.5023 	 43.6599
| 19> C 	 53.9671 	 18.2982 	 43.2419
| 20> H 	 53.4826 	 17.9322 	 44.2028
| 21> H 	 53.2655 	 18.9224 	 42.7786
| 22> H 	 54.1959 	 17.5453 	 42.5214
| 23> S 	 55.6206 	 18.1018 	 50.7603
| 24> C 	 56.1282 	 16.5155 	 51.3759
| 25> C 	 56.1199 	 15.5877 	 50.4138
| 26> C 	 55.7664 	 16.0823 	 49.1095
| 27> C 	 55.3661 	 17.3922 	 49.1861
| 28> H 	 56.3588 	 14.5122 	 50.6719
| 29> C 	 55.6963 	 15.1506 	 47.8681
| 30> H 	 56.4004 	 15.5777 	 47.1783
| 31> H 	 54.7673 	 15.066 	 47.3443
| 32> C 	 56.1218 	 13.7381 	 48.0617
| 33> H 	 55.605 	 13.31 	 48.8415
| 34> H 	 57.1808 	 13.7444 	 48.379
| 35> C 	 55.8975 	 12.7624 	 46.9058
| 36> H 	 56.4102 	 11.7951 	 47.0448
| 37> H 	 56.4387 	 13.0943 	 46.0006
| 38> H 	 54.8736 	 12.4706 	 46.7788
| 39> H 	 52.8297 	 20.413 	 46.1013
| 40> H 	 56.2577 	 16.0946 	 52.3483
| 41> *
| 42>
| 43>                          ****END OF INPUT****

CARTESIAN COORDINATES (ANGSTROEM)
---------------------------------
  S     53.450400   19.249400   48.289300
  C     53.525800   19.741800   46.662000
  C     54.756900   19.523400   46.130400
  C     55.571300   18.698100   46.962400
  C     54.900300   18.255500   48.103300
  H     56.583200   18.374200   46.790700
  C     55.171300   20.124700   44.756400
  H     56.097700   20.630600   44.807600
  H     54.561200   21.047300   44.588100
  C     55.234900   19.165500   43.521700
  H     55.385200   19.810300   42.648700
  H     56.076500   18.502300   43.659900
  C     53.967100   18.298200   43.241900
  H     53.482600   17.932200   44.202800
  H     53.265500   18.922400   42.778600
  H     54.195900   17.545300   42.521400
  S     55.620600   18.101800   50.760300
  C     56.128200   16.515500   51.375900
  C     56.119900   15.587700   50.413800
  C     55.766400   16.082300   49.109500
  C     55.366100   17.392200   49.186100
  H     56.358800   14.512200   50.671900
  C     55.696300   15.150600   47.868100
  H     56.400400   15.577700   47.178300
  H     54.767300   15.066000   47.344300
  C     56.121800   13.738100   48.061700
  H     55.605000   13.310000   48.841500
  H     57.180800   13.744400   48.379000
  C     55.897500   12.762400   46.905800
  H     56.410200   11.795100   47.044800
  H     56.438700   13.094300   46.000600
  H     54.873600   12.470600   46.778800
  H     52.829700   20.413000   46.101300
  H     56.257700   16.094600   52.348300

 Total Charge           Charge          ....    0
 Multiplicity           Mult            ....    1
 Number of Electrons    NEL             ....  134
 Basis Dimension        Dim             ....  322

ORBITAL ENERGIES
----------------

  NO   OCC          E(Eh)            E(eV)
   0   2.0000     -88.968057     -2420.9439
   1   2.0000     -88.964669     -2420.8517
   2   2.0000     -10.330047      -281.0949
   3   2.0000     -10.325584      -280.9734
   4   2.0000     -10.310820      -280.5717
   5   2.0000     -10.309901      -280.5467
   6   2.0000     -10.304912      -280.4109
   7   2.0000     -10.299665      -280.2681
   8   2.0000     -10.297083      -280.1979
   9   2.0000     -10.294802      -280.1358
  10   2.0000     -10.292370      -280.0696
  11   2.0000     -10.289265      -279.9851
  12   2.0000     -10.286430      -279.9080
  13   2.0000     -10.280418      -279.7444
  14   2.0000     -10.277164      -279.6559
  15   2.0000     -10.272386      -279.5258
  16   2.0000      -8.082307      -219.9308
  17   2.0000      -8.080108      -219.8709
  18   2.0000      -6.041072      -164.3859
  19   2.0000      -6.038523      -164.3166
  20   2.0000      -6.037003      -164.2752
  21   2.0000      -6.034731      -164.2134
  22   2.0000      -6.032696      -164.1580
  23   2.0000      -6.030696      -164.1036
  24   2.0000      -1.010116       -27.4867
  25   2.0000      -0.989002       -26.9121
  26   2.0000      -0.915472       -24.9112
  27   2.0000      -0.901775       -24.5385
  28   2.0000      -0.872158       -23.7326
  29   2.0000      -0.849540       -23.1172
  30   2.0000      -0.843037       -22.9402
  31   2.0000      -0.819255       -22.2931
  32   2.0000      -0.786901       -21.4127
  33   2.0000      -0.777648       -21.1609
  34   2.0000      -0.709847       -19.3159
  35   2.0000      -0.702014       -19.1028
  36   2.0000      -0.689585       -18.7646
  37   2.0000      -0.647782       -17.6270
  38   2.0000      -0.638732       -17.3808
  39   2.0000      -0.617667       -16.8076
  40   2.0000      -0.599833       -16.3223
  41   2.0000      -0.580564       -15.7980
  42   2.0000      -0.569621       -15.5002
  43   2.0000      -0.545754       -14.8507
  44   2.0000      -0.541367       -14.7313
  45   2.0000      -0.519796       -14.1444
  46   2.0000      -0.512604       -13.9487
  47   2.0000      -0.511379       -13.9153
  48   2.0000      -0.502191       -13.6653
  49   2.0000      -0.495576       -13.4853
  50   2.0000      -0.487663       -13.2700
  51   2.0000      -0.481468       -13.1014
  52   2.0000      -0.467060       -12.7093
  53   2.0000      -0.465552       -12.6683
  54   2.0000      -0.462196       -12.5770
  55   2.0000      -0.455744       -12.4014
  56   2.0000      -0.442715       -12.0469
  57   2.0000      -0.438852       -11.9418
  58   2.0000      -0.433310       -11.7910
  59   2.0000      -0.420240       -11.4353
  60   2.0000      -0.419763       -11.4223
  61   2.0000      -0.414764       -11.2863
  62   2.0000      -0.412618       -11.2279
  63   2.0000      -0.347592        -9.4585
  64   2.0000      -0.332379        -9.0445
  65   2.0000      -0.328448        -8.9375
  66   2.0000      -0.297172        -8.0865
  67   0.0000       0.030812         0.8384
  68   0.0000       0.065421         1.7802
  69   0.0000       0.109521         2.9802
  70   0.0000       0.125520         3.4156
  71   0.0000       0.135822         3.6959

MULLIKEN ATOMIC CHARGES
-----------------------
   0 S :    0.114454
   1 C :   -0.108014
   2 C :   -0.109345
   3 C :    0.059544
   4 C :   -0.190918
   5 H :    0.012589
   6 C :    0.059291
   7 H :    0.016188
   8 H :    0.015559
   9 C :   -0.070177
  10 H :    0.032364
  11 H :    0.030020
  12 C :   -0.045085
  13 H :    0.055805
  14 H :    0.010741
  15 H :    0.032044
  16 S :    0.115880
  17 C :   -0.040947
  18 C :   -0.093820
  19 C :   -0.039515
  20 C :   -0.163311
  21 H :    0.041030
  22 C :    0.133501
  23 H :    0.013947
  24 H :    0.032138
  25 C :   -0.102405
  26 H :    0.012065
  27 H :    0.024198
  28 C :   -0.034084
  29 H :    0.024343
  30 H :    0.028454
  31 H :    0.038160
  32 H :    0.059189
  33 H :    0.036117
Sum of atomic charges:    0.0000000

LOEWDIN ATOMIC CHARGES
----------------------
   0 S :    0.415659
   1 C :   -0.214352
   2 C :   -0.071896
   3 C :   -0.051623
   4 C :   -0.188014
   5 H :    0.030423
   6 C :   -0.035727
   7 H :    0.027074
   8 H :    0.030914
   9 C :   -0.035559
  10 H :    0.027103
  11 H :    0.019404
  12 C :   -0.067101
  13 H :    0.036059
  14 H :    0.014983
  15 H :    0.023812
  16 S :    0.395436
  17 C :   -0.184608
  18 C :   -0.076801
  19 C :   -0.053112
  20 C :   -0.200831
  21 H :    0.042419
  22 C :   -0.026838
  23 H :    0.030656
  24 H :    0.031612
  25 C :   -0.045928
  26 H :    0.010904
  27 H :    0.025012
  28 C :   -0.064826
  29 H :    0.031947
  30 H :    0.027116
  31 H :    0.024497
  32 H :    0.039939
  33 H :    0.032247

  Mayer bond orders larger than 0.100000
B(  0-S ,  1-C ) :   1.1506 B(  0-S ,  4-C ) :   1.1494 B(  1-C ,  2-C ) :   1.6163
B(  1-C , 32-H ) :   0.9580 B(  2-C ,  3-C ) :   1.2387 B(  2-C ,  6-C ) :   1.0164
B(  3-C ,  4-C ) :   1.5643 B(  3-C ,  5-H ) :   1.0009 B(  4-C , 20-C ) :   1.0380
B(  6-C ,  7-H ) :   0.9390 B(  6-C ,  8-H ) :   0.9439 B(  6-C ,  9-C ) :   1.0617
B(  9-C , 10-H ) :   0.9566 B(  9-C , 11-H ) :   0.9626 B(  9-C , 12-C ) :   1.0748
B( 12-C , 13-H ) :   0.9737 B( 12-C , 14-H ) :   0.9765 B( 12-C , 15-H ) :   0.9752
B( 16-S , 17-C ) :   1.1122 B( 16-S , 20-C ) :   1.1372 B( 17-C , 18-C ) :   1.6832
B( 17-C , 33-H ) :   0.9515 B( 18-C , 19-C ) :   1.2232 B( 18-C , 21-H ) :   0.9685
B( 19-C , 20-C ) :   1.6525 B( 19-C , 22-C ) :   1.0122 B( 22-C , 23-H ) :   0.9150
B( 22-C , 24-H ) :   0.9392 B( 22-C , 25-C ) :   1.0982 B( 25-C , 26-H ) :   0.9429
B( 25-C , 27-H ) :   0.9461 B( 25-C , 28-C ) :   1.0947 B( 28-C , 29-H ) :   0.9680
B( 28-C , 30-H ) :   0.9726 B( 28-C , 31-H ) :   0.9728

Dispersion correction           -0.013791563
FINAL SINGLE POINT ENERGY     -1339.857548849641

DIPOLE MOMENT
-------------
                                X             Y             Z
Electronic contribution:     -4.24328      15.66547      25.57092
Nuclear contribution   :      4.51191     -15.99824     -26.08454
                        -----------------------------------------
Total Dipole Moment    :      0.26863      -0.33277      -0.51363
                        -----------------------------------------
Magnitude (a.u.)       :      0.66836
Magnitude (Debye)      :      1.69884

Rotational constants in cm-1:     0.016643     0.009121     0.006426
Rotational constants in MHz :   498.957133   273.431097   192.650268

                             ****ORCA TERMINATED NORMALLY****
TOTAL RUN TIME: 0 days 0 hours 0 minutes 30 seconds 124 msec
