                         Program Version 4.2.1 -  RELEASE  -
|  1> ! wB97X-D3 SP def2-SVP
|  2> %pal
|  3> nprocs 16
|  4> end
|  5>
|  6> * xyz 0 1
|  7> S 	 7.76003 	 -7.84875 	 63.1824
|  8> C 	 6.75712 	 -6.36399 	 63.0066
|  9> C 	 7.58374 	 -5.26144 	 62.9757
| 10> C 	 8.96402 	 -5.58002 	 63.2418
| 11> C 	 9.20586 	 -6.95634 	 63.3224
| 12> H 	 9.79078 	 -4.93891 	 63.1603
| 13> C 	 7.15963 	 -3.82248 	 62.7669
| 14> H 	 6.22239 	 -3.74463 	 62.192
| 15> H 	 7.76531 	 -3.34544 	 62.0229
| 16> C 	 6.9954 	 -2.90102 	 64.0313
| 17> H 	 6.39426 	 -2.07491 	 63.8294
| 18> H 	 6.43958 	 -3.43469 	 64.7877
| 19> C 	 8.29101 	 -2.38525 	 64.6385
| 20> H 	 9.10394 	 -3.08088 	 64.5121
| 21> H 	 8.5913 	 -1.43294 	 64.1174
| 22> H 	 8.1755 	 -2.14554 	 65.7393
| 23> S 	 11.3324 	 -8.22602 	 62.246
| 24> C 	 12.6558 	 -8.71076 	 63.2742
| 25> C 	 12.3113 	 -8.46672 	 64.5561
| 26> C 	 11.0554 	 -7.90722 	 64.7515
| 27> C 	 10.4648 	 -7.57651 	 63.5918
| 28> H 	 13.1047 	 -8.81382 	 65.2645
| 29> C 	 10.5058 	 -7.64758 	 66.1463
| 30> H 	 9.62709 	 -7.01418 	 66.2703
| 31> H 	 11.4013 	 -7.13452 	 66.6141
| 32> C 	 10.1212 	 -8.95522 	 66.9005
| 33> H 	 10.9426 	 -9.67398 	 66.8733
| 34> H 	 9.30563 	 -9.44978 	 66.3996
| 35> C 	 9.82263 	 -8.54996 	 68.3233
| 36> H 	 10.4404 	 -7.79247 	 68.827
| 37> H 	 9.89668 	 -9.44889 	 68.9591
| 38> H 	 8.77917 	 -8.20295 	 68.4923
| 39> H 	 5.6596 	 -6.2705 	 62.86
| 40> H 	 13.6805 	 -8.91625 	 62.9261
| 41> *
| 42>
| 43>                          ****END OF INPUT****

CARTESIAN COORDINATES (ANGSTROEM)
---------------------------------
  S      7.760030   -7.848750   63.182400
  C      6.757120   -6.363990   63.006600
  C      7.583740   -5.261440   62.975700
  C      8.964020   -5.580020   63.241800
  C      9.205860   -6.956340   63.322400
  H      9.790780   -4.938910   63.160300
  C      7.159630   -3.822480   62.766900
  H      6.222390   -3.744630   62.192000
  H      7.765310   -3.345440   62.022900
  C      6.995400   -2.901020   64.031300
  H      6.394260   -2.074910   63.829400
  H      6.439580   -3.434690   64.787700
  C      8.291010   -2.385250   64.638500
  H      9.103940   -3.080880   64.512100
  H      8.591300   -1.432940   64.117400
  H      8.175500   -2.145540   65.739300
  S     11.332400   -8.226020   62.246000
  C     12.655800   -8.710760   63.274200
  C     12.311300   -8.466720   64.556100
  C     11.055400   -7.907220   64.751500
  C     10.464800   -7.576510   63.591800
  H     13.104700   -8.813820   65.264500
  C     10.505800   -7.647580   66.146300
  H      9.627090   -7.014180   66.270300
  H     11.401300   -7.134520   66.614100
  C     10.121200   -8.955220   66.900500
  H     10.942600   -9.673980   66.873300
  H      9.305630   -9.449780   66.399600
  C      9.822630   -8.549960   68.323300
  H     10.440400   -7.792470   68.827000
  H      9.896680   -9.448890   68.959100
  H      8.779170   -8.202950   68.492300
  H      5.659600   -6.270500   62.860000
  H     13.680500   -8.916250   62.926100

 Total Charge           Charge          ....    0
 Multiplicity           Mult            ....    1
 Number of Electrons    NEL             ....  134
 Basis Dimension        Dim             ....  322

ORBITAL ENERGIES
----------------

  NO   OCC          E(Eh)            E(eV)
   0   2.0000     -88.968067     -2420.9442
   1   2.0000     -88.958582     -2420.6861
   2   2.0000     -10.324477      -280.9433
   3   2.0000     -10.319744      -280.8145
   4   2.0000     -10.315659      -280.7033
   5   2.0000     -10.313062      -280.6327
   6   2.0000     -10.303557      -280.3740
   7   2.0000     -10.295828      -280.1637
   8   2.0000     -10.293260      -280.0938
   9   2.0000     -10.292756      -280.0801
  10   2.0000     -10.290704      -280.0243
  11   2.0000     -10.289309      -279.9863
  12   2.0000     -10.284588      -279.8579
  13   2.0000     -10.281021      -279.7608
  14   2.0000     -10.279932      -279.7312
  15   2.0000     -10.277740      -279.6715
  16   2.0000      -8.082526      -219.9367
  17   2.0000      -8.074456      -219.7171
  18   2.0000      -6.041116      -164.3871
  19   2.0000      -6.036946      -164.2737
  20   2.0000      -6.033328      -164.1752
  21   2.0000      -6.032922      -164.1641
  22   2.0000      -6.028789      -164.0517
  23   2.0000      -6.025192      -163.9538
  24   2.0000      -1.016806       -27.6687
  25   2.0000      -0.987281       -26.8653
  26   2.0000      -0.908905       -24.7326
  27   2.0000      -0.908302       -24.7162
  28   2.0000      -0.873679       -23.7740
  29   2.0000      -0.851494       -23.1703
  30   2.0000      -0.844807       -22.9884
  31   2.0000      -0.814774       -22.1711
  32   2.0000      -0.781704       -21.2713
  33   2.0000      -0.769734       -20.9455
  34   2.0000      -0.707103       -19.2413
  35   2.0000      -0.703006       -19.1298
  36   2.0000      -0.698039       -18.9946
  37   2.0000      -0.658802       -17.9269
  38   2.0000      -0.642740       -17.4898
  39   2.0000      -0.617014       -16.7898
  40   2.0000      -0.601260       -16.3611
  41   2.0000      -0.572781       -15.5862
  42   2.0000      -0.557221       -15.1627
  43   2.0000      -0.546370       -14.8675
  44   2.0000      -0.536170       -14.5899
  45   2.0000      -0.521888       -14.2013
  46   2.0000      -0.517697       -14.0873
  47   2.0000      -0.510294       -13.8858
  48   2.0000      -0.508836       -13.8461
  49   2.0000      -0.501226       -13.6391
  50   2.0000      -0.489094       -13.3089
  51   2.0000      -0.483866       -13.1667
  52   2.0000      -0.469463       -12.7747
  53   2.0000      -0.464434       -12.6379
  54   2.0000      -0.462076       -12.5737
  55   2.0000      -0.446855       -12.1596
  56   2.0000      -0.439090       -11.9482
  57   2.0000      -0.433334       -11.7916
  58   2.0000      -0.430800       -11.7227
  59   2.0000      -0.422665       -11.5013
  60   2.0000      -0.420585       -11.4447
  61   2.0000      -0.415957       -11.3188
  62   2.0000      -0.403518       -10.9803
  63   2.0000      -0.335603        -9.1322
  64   2.0000      -0.331563        -9.0223
  65   2.0000      -0.321653        -8.7526
  66   2.0000      -0.312571        -8.5055
  67   0.0000       0.048232         1.3125
  68   0.0000       0.054109         1.4724
  69   0.0000       0.114928         3.1273
  70   0.0000       0.128156         3.4873
  71   0.0000       0.129547         3.5252

MULLIKEN ATOMIC CHARGES
-----------------------
   0 S :    0.122480
   1 C :   -0.136526
   2 C :   -0.063090
   3 C :    0.056701
   4 C :   -0.171153
   5 H :    0.004433
   6 C :    0.041888
   7 H :    0.011253
   8 H :    0.020530
   9 C :   -0.019389
  10 H :    0.014046
  11 H :    0.020385
  12 C :   -0.079373
  13 H :    0.027044
  14 H :    0.033593
  15 H :    0.043153
  16 S :    0.099854
  17 C :   -0.108207
  18 C :   -0.071080
  19 C :    0.048281
  20 C :   -0.205116
  21 H :    0.033772
  22 C :    0.033130
  23 H :    0.034439
  24 H :    0.039437
  25 C :   -0.053591
  26 H :    0.024274
  27 H :    0.033585
  28 C :   -0.059315
  29 H :    0.033280
  30 H :    0.027858
  31 H :    0.034227
  32 H :    0.060067
  33 H :    0.069133
Sum of atomic charges:    0.0000000

LOEWDIN ATOMIC CHARGES
----------------------
   0 S :    0.412843
   1 C :   -0.194079
   2 C :   -0.060560
   3 C :   -0.057043
   4 C :   -0.208912
   5 H :    0.022935
   6 C :   -0.036374
   7 H :    0.032691
   8 H :    0.028575
   9 C :   -0.035040
  10 H :    0.017231
  11 H :    0.023504
  12 C :   -0.071639
  13 H :    0.018647
  14 H :    0.028351
  15 H :    0.033779
  16 S :    0.408503
  17 C :   -0.189762
  18 C :   -0.082252
  19 C :   -0.062381
  20 C :   -0.211359
  21 H :    0.041886
  22 C :   -0.027521
  23 H :    0.031028
  24 H :    0.038373
  25 C :   -0.035454
  26 H :    0.020953
  27 H :    0.027307
  28 C :   -0.075393
  29 H :    0.026824
  30 H :    0.027522
  31 H :    0.029025
  32 H :    0.039869
  33 H :    0.037923

  Mayer bond orders larger than 0.100000
B(  0-S ,  1-C ) :   1.1233 B(  0-S ,  4-C ) :   1.1701 B(  1-C ,  2-C ) :   1.6259
B(  1-C , 32-H ) :   0.9624 B(  2-C ,  3-C ) :   1.2285 B(  2-C ,  6-C ) :   1.0328
B(  3-C ,  4-C ) :   1.5812 B(  3-C ,  5-H ) :   0.9919 B(  4-C , 20-C ) :   1.0055
B(  6-C ,  7-H ) :   0.9375 B(  6-C ,  8-H ) :   0.9428 B(  6-C ,  9-C ) :   1.0619
B(  9-C , 10-H ) :   0.9565 B(  9-C , 11-H ) :   0.9571 B(  9-C , 12-C ) :   1.0743
B( 12-C , 13-H ) :   0.9777 B( 12-C , 14-H ) :   0.9763 B( 12-C , 15-H ) :   0.9740
B( 16-S , 17-C ) :   1.1492 B( 16-S , 20-C ) :   1.1508 B( 17-C , 18-C ) :   1.6387
B( 17-C , 20-C ) :   0.1012 B( 17-C , 33-H ) :   0.9613 B( 18-C , 19-C ) :   1.2160
B( 18-C , 21-H ) :   0.9826 B( 19-C , 20-C ) :   1.6237 B( 19-C , 22-C ) :   1.0238
B( 22-C , 23-H ) :   0.9440 B( 22-C , 24-H ) :   0.9417 B( 22-C , 25-C ) :   1.0575
B( 25-C , 26-H ) :   0.9611 B( 25-C , 27-H ) :   0.9501 B( 25-C , 28-C ) :   1.0791
B( 28-C , 29-H ) :   0.9755 B( 28-C , 30-H ) :   0.9729 B( 28-C , 31-H ) :   0.9723

Dispersion correction           -0.014281693
FINAL SINGLE POINT ENERGY     -1339.871427212910

DIPOLE MOMENT
-------------
                                X             Y             Z
Electronic contribution:      4.29386     -15.18348     -19.79839
Nuclear contribution   :     -4.25226      15.56016      20.17060
                        -----------------------------------------
Total Dipole Moment    :      0.04160       0.37668       0.37221
                        -----------------------------------------
Magnitude (a.u.)       :      0.53118
Magnitude (Debye)      :      1.35016

Rotational constants in cm-1:     0.017373     0.008706     0.007456
Rotational constants in MHz :   520.841907   261.009812   223.531077

                             ****ORCA TERMINATED NORMALLY****
TOTAL RUN TIME: 0 days 0 hours 0 minutes 32 seconds 981 msec
