                         Program Version 4.2.1 -  RELEASE  -
|  1> ! wB97X-D3 SP def2-SVP
|  2> %pal
|  3> nprocs 16
|  4> end
|  5>
|  6> * xyz 0 1
|  7> S 	 -6.15643 	 58.683 	 48.6042
|  8> C 	 -6.10411 	 57.8092 	 50.1435
|  9> C 	 -5.36445 	 56.6171 	 50.0317
| 10> C 	 -4.96989 	 56.3716 	 48.6923
| 11> C 	 -5.21693 	 57.408 	 47.8438
| 12> H 	 -4.40761 	 55.5664 	 48.2528
| 13> C 	 -5.07779 	 55.7056 	 51.2141
| 14> H 	 -4.30197 	 56.2572 	 51.8378
| 15> H 	 -4.56762 	 54.7613 	 50.8806
| 16> C 	 -6.24129 	 55.4125 	 52.1256
| 17> H 	 -6.5736 	 56.3451 	 52.5185
| 18> H 	 -7.07223 	 54.9326 	 51.6282
| 19> C 	 -5.96428 	 54.5521 	 53.3617
| 20> H 	 -5.39882 	 55.2351 	 53.9431
| 21> H 	 -6.87287 	 54.3124 	 53.898
| 22> H 	 -5.33802 	 53.5867 	 53.2568
| 23> S 	 -5.92121 	 58.2205 	 45.3408
| 24> C 	 -4.84148 	 58.0447 	 44.0297
| 25> C 	 -3.67203 	 57.5028 	 44.4118
| 26> C 	 -3.6325 	 57.2624 	 45.8255
| 27> C 	 -4.82351 	 57.6111 	 46.4439
| 28> H 	 -2.93439 	 57.4234 	 43.6455
| 29> C 	 -2.42306 	 56.5579 	 46.4905
| 30> H 	 -2.62463 	 56.5338 	 47.5153
| 31> H 	 -1.53893 	 57.2152 	 46.2526
| 32> C 	 -2.07938 	 55.1947 	 45.8629
| 33> H 	 -2.04667 	 55.417 	 44.7547
| 34> H 	 -2.94661 	 54.5006 	 46.0131
| 35> C 	 -0.779004 	 54.5971 	 46.285
| 36> H 	 0.0657453 	 55.3369 	 46.1937
| 37> H 	 -0.481197 	 53.7351 	 45.6516
| 38> H 	 -0.812934 	 54.2965 	 47.3185
| 39> H 	 -6.52386 	 58.3123 	 51.0527
| 40> H 	 -5.07529 	 58.2117 	 42.9837
| 41> *
| 42>
| 43>                          ****END OF INPUT****

CARTESIAN COORDINATES (ANGSTROEM)
---------------------------------
  S     -6.156430   58.683000   48.604200
  C     -6.104110   57.809200   50.143500
  C     -5.364450   56.617100   50.031700
  C     -4.969890   56.371600   48.692300
  C     -5.216930   57.408000   47.843800
  H     -4.407610   55.566400   48.252800
  C     -5.077790   55.705600   51.214100
  H     -4.301970   56.257200   51.837800
  H     -4.567620   54.761300   50.880600
  C     -6.241290   55.412500   52.125600
  H     -6.573600   56.345100   52.518500
  H     -7.072230   54.932600   51.628200
  C     -5.964280   54.552100   53.361700
  H     -5.398820   55.235100   53.943100
  H     -6.872870   54.312400   53.898000
  H     -5.338020   53.586700   53.256800
  S     -5.921210   58.220500   45.340800
  C     -4.841480   58.044700   44.029700
  C     -3.672030   57.502800   44.411800
  C     -3.632500   57.262400   45.825500
  C     -4.823510   57.611100   46.443900
  H     -2.934390   57.423400   43.645500
  C     -2.423060   56.557900   46.490500
  H     -2.624630   56.533800   47.515300
  H     -1.538930   57.215200   46.252600
  C     -2.079380   55.194700   45.862900
  H     -2.046670   55.417000   44.754700
  H     -2.946610   54.500600   46.013100
  C     -0.779004   54.597100   46.285000
  H      0.065745   55.336900   46.193700
  H     -0.481197   53.735100   45.651600
  H     -0.812934   54.296500   47.318500
  H     -6.523860   58.312300   51.052700
  H     -5.075290   58.211700   42.983700

 Total Charge           Charge          ....    0
 Multiplicity           Mult            ....    1
 Number of Electrons    NEL             ....  134
 Basis Dimension        Dim             ....  322

ORBITAL ENERGIES
----------------

  NO   OCC          E(Eh)            E(eV)
   0   2.0000     -88.964444     -2420.8456
   1   2.0000     -88.963622     -2420.8232
   2   2.0000     -10.328484      -281.0524
   3   2.0000     -10.320630      -280.8386
   4   2.0000     -10.320411      -280.8327
   5   2.0000     -10.308859      -280.5183
   6   2.0000     -10.308836      -280.5177
   7   2.0000     -10.302376      -280.3419
   8   2.0000     -10.301143      -280.3083
   9   2.0000     -10.292866      -280.0831
  10   2.0000     -10.291747      -280.0527
  11   2.0000     -10.290729      -280.0250
  12   2.0000     -10.287825      -279.9460
  13   2.0000     -10.282140      -279.7912
  14   2.0000     -10.282098      -279.7901
  15   2.0000     -10.280255      -279.7400
  16   2.0000      -8.080820      -219.8903
  17   2.0000      -8.079064      -219.8425
  18   2.0000      -6.039206      -164.3352
  19   2.0000      -6.037469      -164.2879
  20   2.0000      -6.034880      -164.2174
  21   2.0000      -6.033634      -164.1835
  22   2.0000      -6.031655      -164.1297
  23   2.0000      -6.029901      -164.0820
  24   2.0000      -1.018697       -27.7202
  25   2.0000      -0.988613       -26.9015
  26   2.0000      -0.915274       -24.9059
  27   2.0000      -0.910772       -24.7834
  28   2.0000      -0.873644       -23.7731
  29   2.0000      -0.855945       -23.2915
  30   2.0000      -0.848444       -23.0873
  31   2.0000      -0.820807       -22.3353
  32   2.0000      -0.783483       -21.3197
  33   2.0000      -0.769713       -20.9450
  34   2.0000      -0.702313       -19.1109
  35   2.0000      -0.697327       -18.9752
  36   2.0000      -0.691745       -18.8233
  37   2.0000      -0.662310       -18.0224
  38   2.0000      -0.641377       -17.4527
  39   2.0000      -0.620074       -16.8731
  40   2.0000      -0.595351       -16.2003
  41   2.0000      -0.574737       -15.6394
  42   2.0000      -0.569845       -15.5063
  43   2.0000      -0.564913       -15.3721
  44   2.0000      -0.529012       -14.3952
  45   2.0000      -0.524184       -14.2638
  46   2.0000      -0.522699       -14.2234
  47   2.0000      -0.516612       -14.0577
  48   2.0000      -0.505223       -13.7478
  49   2.0000      -0.498870       -13.5749
  50   2.0000      -0.490312       -13.3421
  51   2.0000      -0.481493       -13.1021
  52   2.0000      -0.477132       -12.9834
  53   2.0000      -0.462481       -12.5848
  54   2.0000      -0.459268       -12.4973
  55   2.0000      -0.453278       -12.3343
  56   2.0000      -0.448416       -12.2020
  57   2.0000      -0.437370       -11.9014
  58   2.0000      -0.428088       -11.6489
  59   2.0000      -0.425230       -11.5711
  60   2.0000      -0.420141       -11.4326
  61   2.0000      -0.417698       -11.3661
  62   2.0000      -0.412468       -11.2238
  63   2.0000      -0.354737        -9.6529
  64   2.0000      -0.335099        -9.1185
  65   2.0000      -0.328509        -8.9392
  66   2.0000      -0.289609        -7.8807
  67   0.0000       0.032454         0.8831
  68   0.0000       0.078569         2.1380
  69   0.0000       0.107265         2.9188
  70   0.0000       0.122261         3.3269
  71   0.0000       0.131499         3.5783

MULLIKEN ATOMIC CHARGES
-----------------------
   0 S :    0.098416
   1 C :   -0.159669
   2 C :   -0.053681
   3 C :    0.031069
   4 C :   -0.159970
   5 H :    0.004939
   6 C :    0.044747
   7 H :    0.044064
   8 H :    0.027898
   9 C :   -0.065343
  10 H :    0.016220
  11 H :    0.032177
  12 C :   -0.059456
  13 H :    0.013773
  14 H :    0.037973
  15 H :    0.044725
  16 S :    0.121268
  17 C :   -0.089480
  18 C :   -0.042433
  19 C :   -0.051341
  20 C :   -0.130440
  21 H :    0.013407
  22 C :    0.086622
  23 H :    0.008830
  24 H :    0.031345
  25 C :   -0.114942
  26 H :    0.030810
  27 H :    0.037380
  28 C :   -0.029069
  29 H :    0.028539
  30 H :    0.043336
  31 H :    0.029640
  32 H :    0.075853
  33 H :    0.052793
Sum of atomic charges:   -0.0000000

LOEWDIN ATOMIC CHARGES
----------------------
   0 S :    0.391185
   1 C :   -0.201292
   2 C :   -0.057546
   3 C :   -0.070118
   4 C :   -0.176387
   5 H :    0.033076
   6 C :   -0.037160
   7 H :    0.041464
   8 H :    0.031977
   9 C :   -0.040672
  10 H :    0.020022
  11 H :    0.022608
  12 C :   -0.067590
  13 H :    0.017372
  14 H :    0.027088
  15 H :    0.032911
  16 S :    0.451197
  17 C :   -0.195864
  18 C :   -0.073187
  19 C :   -0.055247
  20 C :   -0.232467
  21 H :    0.029770
  22 C :   -0.027675
  23 H :    0.013885
  24 H :    0.037447
  25 C :   -0.051583
  26 H :    0.028189
  27 H :    0.026100
  28 C :   -0.069578
  29 H :    0.029353
  30 H :    0.032698
  31 H :    0.022645
  32 H :    0.035370
  33 H :    0.032011

  Mayer bond orders larger than 0.100000
B(  0-S ,  1-C ) :   1.1373 B(  0-S ,  4-C ) :   1.1591 B(  1-C ,  2-C ) :   1.5927
B(  1-C ,  4-C ) :   0.1062 B(  1-C , 32-H ) :   0.9656 B(  2-C ,  3-C ) :   1.2290
B(  2-C ,  6-C ) :   1.0162 B(  3-C ,  4-C ) :   1.5989 B(  3-C ,  5-H ) :   0.9927
B(  4-C , 20-C ) :   1.0051 B(  6-C ,  7-H ) :   0.9321 B(  6-C ,  8-H ) :   0.9461
B(  6-C ,  9-C ) :   1.0723 B(  9-C , 10-H ) :   0.9486 B(  9-C , 11-H ) :   0.9616
B(  9-C , 12-C ) :   1.0768 B( 12-C , 13-H ) :   0.9778 B( 12-C , 14-H ) :   0.9742
B( 12-C , 15-H ) :   0.9758 B( 16-S , 17-C ) :   1.1611 B( 16-S , 20-C ) :   1.1680
B( 17-C , 18-C ) :   1.6285 B( 17-C , 33-H ) :   0.9649 B( 18-C , 19-C ) :   1.2264
B( 18-C , 21-H ) :   0.9936 B( 19-C , 20-C ) :   1.5864 B( 19-C , 22-C ) :   1.0450
B( 22-C , 23-H ) :   0.9345 B( 22-C , 24-H ) :   0.9272 B( 22-C , 25-C ) :   1.0617
B( 25-C , 26-H ) :   0.9497 B( 25-C , 27-H ) :   0.9518 B( 25-C , 28-C ) :   1.0906
B( 28-C , 29-H ) :   0.9697 B( 28-C , 30-H ) :   0.9714 B( 28-C , 31-H ) :   0.9722

Dispersion correction           -0.013455011
FINAL SINGLE POINT ENERGY     -1339.884303723268

DIPOLE MOMENT
-------------
                                X             Y             Z
Electronic contribution:    -14.89094      20.91687     -15.57901
Nuclear contribution   :     15.31107     -21.31285      15.70754
                        -----------------------------------------
Total Dipole Moment    :      0.42013      -0.39598       0.12853
                        -----------------------------------------
Magnitude (a.u.)       :      0.59146
Magnitude (Debye)      :      1.50338

Rotational constants in cm-1:     0.018739     0.008031     0.005884
Rotational constants in MHz :   561.769928   240.750231   176.394819

                             ****ORCA TERMINATED NORMALLY****
TOTAL RUN TIME: 0 days 0 hours 0 minutes 33 seconds 222 msec
