                         Program Version 4.2.1 -  RELEASE  -
|  1> ! wB97X-D3 SP def2-SVP
|  2> %pal
|  3> nprocs 16
|  4> end
|  5>
|  6> * xyz 0 1
|  7> S 	 0.100042 	 -23.1152 	 61.0686
|  8> C 	 0.399654 	 -23.1516 	 59.362
|  9> C 	 1.63179 	 -22.6047 	 59.0336
| 10> C 	 2.33488 	 -22.1567 	 60.2214
| 11> C 	 1.64888 	 -22.3704 	 61.382
| 12> H 	 3.30736 	 -21.6624 	 60.2352
| 13> C 	 2.15187 	 -22.5382 	 57.5829
| 14> H 	 1.41573 	 -22.1873 	 56.844
| 15> H 	 2.31064 	 -23.5475 	 57.421
| 16> C 	 3.42236 	 -21.7118 	 57.2557
| 17> H 	 4.29949 	 -22.138 	 57.8424
| 18> H 	 3.79473 	 -22.0271 	 56.245
| 19> C 	 3.42518 	 -20.2254 	 57.4376
| 20> H 	 3.24889 	 -19.9118 	 58.4856
| 21> H 	 4.3787 	 -19.8473 	 57.1352
| 22> H 	 2.72323 	 -19.7752 	 56.7205
| 23> S 	 0.71697 	 -20.9435 	 63.4832
| 24> C 	 1.91878 	 -20.1222 	 64.5634
| 25> C 	 3.2082 	 -20.5662 	 64.3566
| 26> C 	 3.27904 	 -21.6274 	 63.3222
| 27> C 	 2.00639 	 -21.8687 	 62.7397
| 28> H 	 4.02975 	 -20.0257 	 64.7467
| 29> C 	 4.64354 	 -22.2188 	 62.9298
| 30> H 	 5.45596 	 -21.519 	 63.308
| 31> H 	 4.8229 	 -22.2163 	 61.8508
| 32> C 	 4.96474 	 -23.5691 	 63.5495
| 33> H 	 4.68942 	 -23.6268 	 64.5736
| 34> H 	 6.04193 	 -23.7848 	 63.5882
| 35> C 	 4.32338 	 -24.6939 	 62.7859
| 36> H 	 4.99471 	 -24.9129 	 61.9102
| 37> H 	 3.37196 	 -24.389 	 62.3558
| 38> H 	 4.20705 	 -25.5528 	 63.4301
| 39> H 	 -0.254109 	 -23.4325 	 58.5385
| 40> H 	 1.72767 	 -19.385 	 65.2862
| 41> *
| 42>
| 43>                          ****END OF INPUT****

CARTESIAN COORDINATES (ANGSTROEM)
---------------------------------
  S      0.100042  -23.115200   61.068600
  C      0.399654  -23.151600   59.362000
  C      1.631790  -22.604700   59.033600
  C      2.334880  -22.156700   60.221400
  C      1.648880  -22.370400   61.382000
  H      3.307360  -21.662400   60.235200
  C      2.151870  -22.538200   57.582900
  H      1.415730  -22.187300   56.844000
  H      2.310640  -23.547500   57.421000
  C      3.422360  -21.711800   57.255700
  H      4.299490  -22.138000   57.842400
  H      3.794730  -22.027100   56.245000
  C      3.425180  -20.225400   57.437600
  H      3.248890  -19.911800   58.485600
  H      4.378700  -19.847300   57.135200
  H      2.723230  -19.775200   56.720500
  S      0.716970  -20.943500   63.483200
  C      1.918780  -20.122200   64.563400
  C      3.208200  -20.566200   64.356600
  C      3.279040  -21.627400   63.322200
  C      2.006390  -21.868700   62.739700
  H      4.029750  -20.025700   64.746700
  C      4.643540  -22.218800   62.929800
  H      5.455960  -21.519000   63.308000
  H      4.822900  -22.216300   61.850800
  C      4.964740  -23.569100   63.549500
  H      4.689420  -23.626800   64.573600
  H      6.041930  -23.784800   63.588200
  C      4.323380  -24.693900   62.785900
  H      4.994710  -24.912900   61.910200
  H      3.371960  -24.389000   62.355800
  H      4.207050  -25.552800   63.430100
  H     -0.254109  -23.432500   58.538500
  H      1.727670  -19.385000   65.286200

 Total Charge           Charge          ....    0
 Multiplicity           Mult            ....    1
 Number of Electrons    NEL             ....  134
 Basis Dimension        Dim             ....  322

ORBITAL ENERGIES
----------------

  NO   OCC          E(Eh)            E(eV)
   0   2.0000     -88.968148     -2420.9464
   1   2.0000     -88.968104     -2420.9452
   2   2.0000     -10.335769      -281.2506
   3   2.0000     -10.331413      -281.1320
   4   2.0000     -10.320336      -280.8306
   5   2.0000     -10.316697      -280.7316
   6   2.0000     -10.311049      -280.5779
   7   2.0000     -10.304921      -280.4112
   8   2.0000     -10.299243      -280.2566
   9   2.0000     -10.299170      -280.2547
  10   2.0000     -10.295453      -280.1535
  11   2.0000     -10.295238      -280.1477
  12   2.0000     -10.292965      -280.0858
  13   2.0000     -10.279315      -279.7144
  14   2.0000     -10.276682      -279.6427
  15   2.0000     -10.267803      -279.4011
  16   2.0000      -8.082846      -219.9454
  17   2.0000      -8.081891      -219.9194
  18   2.0000      -6.041414      -164.3952
  19   2.0000      -6.040573      -164.3723
  20   2.0000      -6.037362      -164.2850
  21   2.0000      -6.036595      -164.2641
  22   2.0000      -6.033546      -164.1811
  23   2.0000      -6.032430      -164.1508
  24   2.0000      -1.003792       -27.3146
  25   2.0000      -0.975994       -26.5581
  26   2.0000      -0.910696       -24.7813
  27   2.0000      -0.908451       -24.7202
  28   2.0000      -0.870086       -23.6762
  29   2.0000      -0.848354       -23.0849
  30   2.0000      -0.843098       -22.9419
  31   2.0000      -0.819532       -22.3006
  32   2.0000      -0.785966       -21.3872
  33   2.0000      -0.770237       -20.9592
  34   2.0000      -0.705425       -19.1956
  35   2.0000      -0.690987       -18.8027
  36   2.0000      -0.687560       -18.7095
  37   2.0000      -0.662052       -18.0153
  38   2.0000      -0.637144       -17.3376
  39   2.0000      -0.622206       -16.9311
  40   2.0000      -0.595826       -16.2133
  41   2.0000      -0.570099       -15.5132
  42   2.0000      -0.558760       -15.2046
  43   2.0000      -0.551092       -14.9960
  44   2.0000      -0.539222       -14.6730
  45   2.0000      -0.534812       -14.5530
  46   2.0000      -0.516472       -14.0539
  47   2.0000      -0.507999       -13.8234
  48   2.0000      -0.499695       -13.5974
  49   2.0000      -0.499351       -13.5880
  50   2.0000      -0.492976       -13.4146
  51   2.0000      -0.479330       -13.0432
  52   2.0000      -0.474718       -12.9177
  53   2.0000      -0.468428       -12.7466
  54   2.0000      -0.456471       -12.4212
  55   2.0000      -0.447755       -12.1840
  56   2.0000      -0.444016       -12.0823
  57   2.0000      -0.440708       -11.9923
  58   2.0000      -0.433173       -11.7872
  59   2.0000      -0.419142       -11.4054
  60   2.0000      -0.414211       -11.2713
  61   2.0000      -0.409186       -11.1345
  62   2.0000      -0.407338       -11.0842
  63   2.0000      -0.352283        -9.5861
  64   2.0000      -0.333121        -9.0647
  65   2.0000      -0.325590        -8.8597
  66   2.0000      -0.290536        -7.9059
  67   0.0000       0.026125         0.7109
  68   0.0000       0.072054         1.9607
  69   0.0000       0.097414         2.6508
  70   0.0000       0.115033         3.1302
  71   0.0000       0.133429         3.6308

MULLIKEN ATOMIC CHARGES
-----------------------
   0 S :    0.112742
   1 C :   -0.117231
   2 C :   -0.106709
   3 C :    0.013640
   4 C :   -0.141468
   5 H :    0.015927
   6 C :    0.085897
   7 H :    0.036790
   8 H :    0.029850
   9 C :   -0.130372
  10 H :    0.018394
  11 H :    0.027282
  12 C :   -0.012430
  13 H :    0.047613
  14 H :    0.024152
  15 H :    0.029650
  16 S :    0.094963
  17 C :   -0.074355
  18 C :   -0.015567
  19 C :   -0.070654
  20 C :   -0.104980
  21 H :    0.020831
  22 C :    0.030401
  23 H :    0.023776
  24 H :    0.025574
  25 C :   -0.042534
  26 H :    0.016403
  27 H :    0.023831
  28 C :   -0.046085
  29 H :    0.028817
  30 H :    0.037387
  31 H :    0.031978
  32 H :    0.045327
  33 H :    0.041159
Sum of atomic charges:    0.0000000

LOEWDIN ATOMIC CHARGES
----------------------
   0 S :    0.409768
   1 C :   -0.211633
   2 C :   -0.055972
   3 C :   -0.068666
   4 C :   -0.197027
   5 H :    0.030868
   6 C :   -0.031477
   7 H :    0.034448
   8 H :    0.029891
   9 C :   -0.056344
  10 H :    0.023295
  11 H :    0.030623
  12 C :   -0.064851
  13 H :    0.031115
  14 H :    0.025907
  15 H :    0.027480
  16 S :    0.383018
  17 C :   -0.158776
  18 C :   -0.059435
  19 C :   -0.049379
  20 C :   -0.196658
  21 H :    0.028631
  22 C :   -0.036212
  23 H :    0.036739
  24 H :    0.026647
  25 C :   -0.043938
  26 H :    0.019318
  27 H :    0.025105
  28 C :   -0.062986
  29 H :    0.028415
  30 H :    0.024358
  31 H :    0.023906
  32 H :    0.033082
  33 H :    0.020743

  Mayer bond orders larger than 0.100000
B(  0-S ,  1-C ) :   1.1310 B(  0-S ,  4-C ) :   1.1433 B(  1-C ,  2-C ) :   1.6422
B(  1-C , 32-H ) :   0.9665 B(  2-C ,  3-C ) :   1.2412 B(  2-C ,  6-C ) :   0.9845
B(  3-C ,  4-C ) :   1.5923 B(  3-C ,  5-H ) :   0.9835 B(  4-C , 20-C ) :   1.0066
B(  6-C ,  7-H ) :   0.9458 B(  6-C ,  8-H ) :   0.9345 B(  6-C ,  9-C ) :   1.0895
B(  9-C , 10-H ) :   0.9456 B(  9-C , 11-H ) :   0.9498 B(  9-C , 12-C ) :   1.0853
B( 12-C , 13-H ) :   0.9722 B( 12-C , 14-H ) :   0.9673 B( 12-C , 15-H ) :   0.9710
B( 16-S , 17-C ) :   1.1259 B( 16-S , 20-C ) :   1.1328 B( 17-C , 18-C ) :   1.6621
B( 17-C , 33-H ) :   0.9703 B( 18-C , 19-C ) :   1.2167 B( 18-C , 21-H ) :   0.9870
B( 19-C , 20-C ) :   1.6144 B( 19-C , 22-C ) :   1.0376 B( 22-C , 23-H ) :   0.9341
B( 22-C , 24-H ) :   0.9428 B( 22-C , 25-C ) :   1.0706 B( 25-C , 26-H ) :   0.9530
B( 25-C , 27-H ) :   0.9541 B( 25-C , 28-C ) :   1.0793 B( 28-C , 29-H ) :   0.9747
B( 28-C , 30-H ) :   0.9777 B( 28-C , 31-H ) :   0.9733

Dispersion correction           -0.014853228
FINAL SINGLE POINT ENERGY     -1339.868680465532

DIPOLE MOMENT
-------------
                                X             Y             Z
Electronic contribution:    -21.95021       2.41925      13.72209
Nuclear contribution   :     22.64630      -2.15222     -14.12139
                        -----------------------------------------
Total Dipole Moment    :      0.69609       0.26703      -0.39930
                        -----------------------------------------
Magnitude (a.u.)       :      0.84575
Magnitude (Debye)      :      2.14972

Rotational constants in cm-1:     0.017028     0.009287     0.008182
Rotational constants in MHz :   510.491140   278.403444   245.287786

                             ****ORCA TERMINATED NORMALLY****
TOTAL RUN TIME: 0 days 0 hours 0 minutes 36 seconds 11 msec
