                         Program Version 4.2.1 -  RELEASE  -
|  1> ! wB97X-D3 SP def2-SVP
|  2> %pal
|  3> nprocs 16
|  4> end
|  5>
|  6> * xyz 0 1
|  7> S 	 42.197 	 11.4185 	 84.0447
|  8> C 	 42.8309 	 10.923 	 82.5317
|  9> C 	 42.7623 	 9.53945 	 82.3505
| 10> C 	 42.0961 	 8.94303 	 83.4708
| 11> C 	 41.7592 	 9.79706 	 84.4441
| 12> H 	 41.8642 	 7.90799 	 83.5635
| 13> C 	 43.0216 	 8.73335 	 81.0583
| 14> H 	 43.1766 	 9.44971 	 80.2757
| 15> H 	 42.1061 	 8.23174 	 80.7638
| 16> C 	 44.2246 	 7.79717 	 81.0506
| 17> H 	 44.2463 	 7.08896 	 81.9149
| 18> H 	 44.1539 	 7.08212 	 80.2074
| 19> C 	 45.5365 	 8.52355 	 81.2025
| 20> H 	 45.601 	 8.88731 	 82.2428
| 21> H 	 46.3845 	 7.83203 	 81.2431
| 22> H 	 45.6521 	 9.3157 	 80.5135
| 23> S 	 39.8155 	 10.4194 	 86.2837
| 24> C 	 39.7136 	 9.54999 	 87.7118
| 25> C 	 40.7468 	 8.64913 	 87.8495
| 26> C 	 41.553 	 8.55399 	 86.7073
| 27> C 	 41.1604 	 9.40614 	 85.7176
| 28> H 	 40.8138 	 8.1217 	 88.7563
| 29> C 	 42.6441 	 7.46454 	 86.6493
| 30> H 	 42.5137 	 6.77319 	 85.8163
| 31> H 	 42.5816 	 6.80164 	 87.4742
| 32> C 	 44.0419 	 8.14035 	 86.7692
| 33> H 	 44.1566 	 8.54032 	 87.7694
| 34> H 	 44.2193 	 8.97651 	 86.1028
| 35> C 	 45.1444 	 7.18804 	 86.6047
| 36> H 	 45.0192 	 6.35363 	 87.3188
| 37> H 	 46.118 	 7.73908 	 86.7403
| 38> H 	 45.0271 	 6.76591 	 85.599
| 39> H 	 43.1342 	 11.6492 	 81.7822
| 40> H 	 38.9447 	 9.84453 	 88.4681
| 41> *
| 42>
| 43>                          ****END OF INPUT****

CARTESIAN COORDINATES (ANGSTROEM)
---------------------------------
  S     42.197000   11.418500   84.044700
  C     42.830900   10.923000   82.531700
  C     42.762300    9.539450   82.350500
  C     42.096100    8.943030   83.470800
  C     41.759200    9.797060   84.444100
  H     41.864200    7.907990   83.563500
  C     43.021600    8.733350   81.058300
  H     43.176600    9.449710   80.275700
  H     42.106100    8.231740   80.763800
  C     44.224600    7.797170   81.050600
  H     44.246300    7.088960   81.914900
  H     44.153900    7.082120   80.207400
  C     45.536500    8.523550   81.202500
  H     45.601000    8.887310   82.242800
  H     46.384500    7.832030   81.243100
  H     45.652100    9.315700   80.513500
  S     39.815500   10.419400   86.283700
  C     39.713600    9.549990   87.711800
  C     40.746800    8.649130   87.849500
  C     41.553000    8.553990   86.707300
  C     41.160400    9.406140   85.717600
  H     40.813800    8.121700   88.756300
  C     42.644100    7.464540   86.649300
  H     42.513700    6.773190   85.816300
  H     42.581600    6.801640   87.474200
  C     44.041900    8.140350   86.769200
  H     44.156600    8.540320   87.769400
  H     44.219300    8.976510   86.102800
  C     45.144400    7.188040   86.604700
  H     45.019200    6.353630   87.318800
  H     46.118000    7.739080   86.740300
  H     45.027100    6.765910   85.599000
  H     43.134200   11.649200   81.782200
  H     38.944700    9.844530   88.468100

 Total Charge           Charge          ....    0
 Multiplicity           Mult            ....    1
 Number of Electrons    NEL             ....  134
 Basis Dimension        Dim             ....  322

ORBITAL ENERGIES
----------------

  NO   OCC          E(Eh)            E(eV)
   0   2.0000     -88.964798     -2420.8552
   1   2.0000     -88.961437     -2420.7638
   2   2.0000     -10.322074      -280.8779
   3   2.0000     -10.319571      -280.8098
   4   2.0000     -10.313655      -280.6488
   5   2.0000     -10.313171      -280.6357
   6   2.0000     -10.302355      -280.3413
   7   2.0000     -10.301538      -280.3191
   8   2.0000     -10.292878      -280.0834
   9   2.0000     -10.291709      -280.0516
  10   2.0000     -10.287977      -279.9501
  11   2.0000     -10.285275      -279.8766
  12   2.0000     -10.282793      -279.8090
  13   2.0000     -10.275701      -279.6160
  14   2.0000     -10.275513      -279.6109
  15   2.0000     -10.271940      -279.5137
  16   2.0000      -8.080685      -219.8866
  17   2.0000      -8.077782      -219.8076
  18   2.0000      -6.039098      -164.3322
  19   2.0000      -6.035991      -164.2477
  20   2.0000      -6.035009      -164.2209
  21   2.0000      -6.032033      -164.1400
  22   2.0000      -6.031503      -164.1255
  23   2.0000      -6.028797      -164.0519
  24   2.0000      -1.014713       -27.6117
  25   2.0000      -0.993114       -27.0240
  26   2.0000      -0.914535       -24.8857
  27   2.0000      -0.912171       -24.8214
  28   2.0000      -0.870653       -23.6917
  29   2.0000      -0.859845       -23.3976
  30   2.0000      -0.849396       -23.1132
  31   2.0000      -0.812632       -22.1128
  32   2.0000      -0.785024       -21.3616
  33   2.0000      -0.774714       -21.0810
  34   2.0000      -0.701240       -19.0817
  35   2.0000      -0.693423       -18.8690
  36   2.0000      -0.687580       -18.7100
  37   2.0000      -0.664713       -18.0878
  38   2.0000      -0.644092       -17.5266
  39   2.0000      -0.624663       -16.9979
  40   2.0000      -0.601860       -16.3775
  41   2.0000      -0.570098       -15.5132
  42   2.0000      -0.563560       -15.3353
  43   2.0000      -0.556656       -15.1474
  44   2.0000      -0.539267       -14.6742
  45   2.0000      -0.533921       -14.5287
  46   2.0000      -0.516833       -14.0637
  47   2.0000      -0.511650       -13.9227
  48   2.0000      -0.501509       -13.6468
  49   2.0000      -0.499622       -13.5954
  50   2.0000      -0.494518       -13.4565
  51   2.0000      -0.482451       -13.1282
  52   2.0000      -0.470934       -12.8148
  53   2.0000      -0.466329       -12.6894
  54   2.0000      -0.457307       -12.4440
  55   2.0000      -0.448209       -12.1964
  56   2.0000      -0.443330       -12.0636
  57   2.0000      -0.439926       -11.9710
  58   2.0000      -0.432628       -11.7724
  59   2.0000      -0.425544       -11.5796
  60   2.0000      -0.418852       -11.3975
  61   2.0000      -0.413142       -11.2422
  62   2.0000      -0.406734       -11.0678
  63   2.0000      -0.347605        -9.4588
  64   2.0000      -0.334753        -9.1091
  65   2.0000      -0.330028        -8.9805
  66   2.0000      -0.293886        -7.9970
  67   0.0000       0.037096         1.0094
  68   0.0000       0.073171         1.9911
  69   0.0000       0.118906         3.2356
  70   0.0000       0.123184         3.3520
  71   0.0000       0.125608         3.4180

MULLIKEN ATOMIC CHARGES
-----------------------
   0 S :    0.121889
   1 C :   -0.135063
   2 C :   -0.078196
   3 C :    0.007897
   4 C :   -0.110876
   5 H :   -0.003371
   6 C :    0.084291
   7 H :    0.005925
   8 H :    0.034451
   9 C :   -0.084156
  10 H :    0.019974
  11 H :    0.030792
  12 C :   -0.032228
  13 H :    0.034532
  14 H :    0.026887
  15 H :    0.025411
  16 S :    0.103035
  17 C :   -0.106078
  18 C :   -0.029261
  19 C :    0.007557
  20 C :   -0.192664
  21 H :   -0.001671
  22 C :    0.086011
  23 H :    0.028991
  24 H :   -0.002173
  25 C :   -0.086707
  26 H :    0.018287
  27 H :    0.040523
  28 C :   -0.032818
  29 H :    0.022108
  30 H :    0.046640
  31 H :    0.023718
  32 H :    0.052189
  33 H :    0.074153
Sum of atomic charges:   -0.0000000

LOEWDIN ATOMIC CHARGES
----------------------
   0 S :    0.424536
   1 C :   -0.207887
   2 C :   -0.061026
   3 C :   -0.062824
   4 C :   -0.204120
   5 H :    0.026777
   6 C :   -0.027725
   7 H :    0.025277
   8 H :    0.033682
   9 C :   -0.049571
  10 H :    0.025011
  11 H :    0.024538
  12 C :   -0.063717
  13 H :    0.032860
  14 H :    0.028549
  15 H :    0.014757
  16 S :    0.423842
  17 C :   -0.206152
  18 C :   -0.075864
  19 C :   -0.047900
  20 C :   -0.191233
  21 H :    0.024232
  22 C :   -0.019492
  23 H :    0.027904
  24 H :    0.024067
  25 C :   -0.042658
  26 H :    0.022965
  27 H :    0.024577
  28 C :   -0.067077
  29 H :    0.021915
  30 H :    0.034361
  31 H :    0.022170
  32 H :    0.027839
  33 H :    0.037387

  Mayer bond orders larger than 0.100000
B(  0-S ,  1-C ) :   1.1543 B(  0-S ,  4-C ) :   1.1420 B(  1-C ,  2-C ) :   1.5967
B(  1-C , 32-H ) :   0.9663 B(  2-C ,  3-C ) :   1.2284 B(  2-C ,  6-C ) :   1.0153
B(  3-C ,  4-C ) :   1.5999 B(  3-C ,  5-H ) :   1.0081 B(  4-C , 20-C ) :   1.0256
B(  6-C ,  7-H ) :   0.9416 B(  6-C ,  8-H ) :   0.9464 B(  6-C ,  9-C ) :   1.0676
B(  9-C , 10-H ) :   0.9572 B(  9-C , 11-H ) :   0.9565 B(  9-C , 12-C ) :   1.0746
B( 12-C , 13-H ) :   0.9693 B( 12-C , 14-H ) :   0.9698 B( 12-C , 15-H ) :   0.9793
B( 16-S , 17-C ) :   1.1940 B( 16-S , 20-C ) :   1.1433 B( 17-C , 18-C ) :   1.5711
B( 17-C , 20-C ) :   0.1004 B( 17-C , 33-H ) :   0.9614 B( 18-C , 19-C ) :   1.2613
B( 18-C , 21-H ) :   1.0052 B( 19-C , 20-C ) :   1.5965 B( 19-C , 22-C ) :   1.0263
B( 22-C , 23-H ) :   0.9492 B( 22-C , 24-H ) :   0.9284 B( 22-C , 25-C ) :   1.0489
B( 25-C , 26-H ) :   0.9486 B( 25-C , 27-H ) :   0.9616 B( 25-C , 28-C ) :   1.0978
B( 28-C , 29-H ) :   0.9680 B( 28-C , 30-H ) :   0.9703 B( 28-C , 31-H ) :   0.9732

Dispersion correction           -0.014790347
FINAL SINGLE POINT ENERGY     -1339.885906672663

DIPOLE MOMENT
-------------
                                X             Y             Z
Electronic contribution:    -22.53062      18.41758       7.69111
Nuclear contribution   :     22.74811     -18.86918      -7.67457
                        -----------------------------------------
Total Dipole Moment    :      0.21749      -0.45159       0.01654
                        -----------------------------------------
Magnitude (a.u.)       :      0.50151
Magnitude (Debye)      :      1.27474

Rotational constants in cm-1:     0.019318     0.009521     0.007215
Rotational constants in MHz :   579.145109   285.417718   216.305530

                             ****ORCA TERMINATED NORMALLY****
TOTAL RUN TIME: 0 days 0 hours 0 minutes 30 seconds 611 msec
