                         Program Version 4.2.1 -  RELEASE  -
|  1> ! wB97X-D3 SP def2-SVP
|  2> %pal
|  3> nprocs 16
|  4> end
|  5>
|  6> * xyz 0 1
|  7> S 	 -45.0285 	 56.4841 	 105.69
|  8> C 	 -43.3846 	 55.9304 	 105.556
|  9> C 	 -42.6625 	 55.9935 	 106.722
| 10> C 	 -43.5266 	 56.3549 	 107.786
| 11> C 	 -44.8411 	 56.6197 	 107.451
| 12> H 	 -43.1848 	 56.5545 	 108.779
| 13> C 	 -41.1441 	 55.9105 	 106.744
| 14> H 	 -40.8769 	 55.0964 	 106.072
| 15> H 	 -40.8765 	 55.6309 	 107.755
| 16> C 	 -40.2968 	 57.1206 	 106.308
| 17> H 	 -40.696 	 58.0596 	 106.784
| 18> H 	 -39.3142 	 57.025 	 106.715
| 19> C 	 -40.0182 	 57.0455 	 104.772
| 20> H 	 -39.6203 	 56.0939 	 104.473
| 21> H 	 -40.9062 	 57.2339 	 104.128
| 22> H 	 -39.2346 	 57.7144 	 104.511
| 23> S 	 -47.0168 	 55.959 	 109.085
| 24> C 	 -47.9275 	 57.3204 	 109.814
| 25> C 	 -47.3209 	 58.5717 	 109.599
| 26> C 	 -46.1709 	 58.4047 	 108.774
| 27> C 	 -45.93 	 57.1093 	 108.286
| 28> H 	 -47.7564 	 59.4786 	 110.051
| 29> C 	 -45.5512 	 59.6857 	 108.264
| 30> H 	 -44.4261 	 59.6529 	 108.436
| 31> H 	 -45.8121 	 60.5955 	 108.806
| 32> C 	 -45.7669 	 59.918 	 106.832
| 33> H 	 -45.4557 	 59.1124 	 106.173
| 34> H 	 -45.2268 	 60.8393 	 106.598
| 35> C 	 -47.2663 	 60.0612 	 106.542
| 36> H 	 -47.3368 	 60.2458 	 105.5
| 37> H 	 -47.6987 	 60.8874 	 107.182
| 38> H 	 -47.8496 	 59.1726 	 106.522
| 39> H 	 -42.9076 	 55.9472 	 104.574
| 40> H 	 -48.778 	 57.3075 	 110.429
| 41> *
| 42>
| 43>                          ****END OF INPUT****

CARTESIAN COORDINATES (ANGSTROEM)
---------------------------------
  S    -45.028500   56.484100  105.690000
  C    -43.384600   55.930400  105.556000
  C    -42.662500   55.993500  106.722000
  C    -43.526600   56.354900  107.786000
  C    -44.841100   56.619700  107.451000
  H    -43.184800   56.554500  108.779000
  C    -41.144100   55.910500  106.744000
  H    -40.876900   55.096400  106.072000
  H    -40.876500   55.630900  107.755000
  C    -40.296800   57.120600  106.308000
  H    -40.696000   58.059600  106.784000
  H    -39.314200   57.025000  106.715000
  C    -40.018200   57.045500  104.772000
  H    -39.620300   56.093900  104.473000
  H    -40.906200   57.233900  104.128000
  H    -39.234600   57.714400  104.511000
  S    -47.016800   55.959000  109.085000
  C    -47.927500   57.320400  109.814000
  C    -47.320900   58.571700  109.599000
  C    -46.170900   58.404700  108.774000
  C    -45.930000   57.109300  108.286000
  H    -47.756400   59.478600  110.051000
  C    -45.551200   59.685700  108.264000
  H    -44.426100   59.652900  108.436000
  H    -45.812100   60.595500  108.806000
  C    -45.766900   59.918000  106.832000
  H    -45.455700   59.112400  106.173000
  H    -45.226800   60.839300  106.598000
  C    -47.266300   60.061200  106.542000
  H    -47.336800   60.245800  105.500000
  H    -47.698700   60.887400  107.182000
  H    -47.849600   59.172600  106.522000
  H    -42.907600   55.947200  104.574000
  H    -48.778000   57.307500  110.429000

 Total Charge           Charge          ....    0
 Multiplicity           Mult            ....    1
 Number of Electrons    NEL             ....  134
 Basis Dimension        Dim             ....  322

ORBITAL ENERGIES
----------------

  NO   OCC          E(Eh)            E(eV)
   0   2.0000     -88.969274     -2420.9770
   1   2.0000     -88.966901     -2420.9124
   2   2.0000     -10.330177      -281.0984
   3   2.0000     -10.327617      -281.0287
   4   2.0000     -10.319062      -280.7959
   5   2.0000     -10.311816      -280.5988
   6   2.0000     -10.304013      -280.3865
   7   2.0000     -10.299711      -280.2694
   8   2.0000     -10.296863      -280.1919
   9   2.0000     -10.294883      -280.1380
  10   2.0000     -10.294715      -280.1334
  11   2.0000     -10.293001      -280.0868
  12   2.0000     -10.284390      -279.8525
  13   2.0000     -10.282292      -279.7954
  14   2.0000     -10.273008      -279.5428
  15   2.0000     -10.265014      -279.3252
  16   2.0000      -8.082538      -219.9370
  17   2.0000      -8.080990      -219.8949
  18   2.0000      -6.041111      -164.3870
  19   2.0000      -6.039347      -164.3390
  20   2.0000      -6.037257      -164.2821
  21   2.0000      -6.035648      -164.2383
  22   2.0000      -6.033307      -164.1746
  23   2.0000      -6.031876      -164.1357
  24   2.0000      -1.002425       -27.2774
  25   2.0000      -0.979677       -26.6584
  26   2.0000      -0.913648       -24.8616
  27   2.0000      -0.911272       -24.7970
  28   2.0000      -0.867229       -23.5985
  29   2.0000      -0.849902       -23.1270
  30   2.0000      -0.841414       -22.8960
  31   2.0000      -0.812517       -22.1097
  32   2.0000      -0.785648       -21.3786
  33   2.0000      -0.772511       -21.0211
  34   2.0000      -0.713744       -19.4220
  35   2.0000      -0.700474       -19.0609
  36   2.0000      -0.680912       -18.5286
  37   2.0000      -0.659758       -17.9529
  38   2.0000      -0.643569       -17.5124
  39   2.0000      -0.619150       -16.8479
  40   2.0000      -0.595391       -16.2014
  41   2.0000      -0.571819       -15.5600
  42   2.0000      -0.556185       -15.1346
  43   2.0000      -0.549432       -14.9508
  44   2.0000      -0.544197       -14.8084
  45   2.0000      -0.538809       -14.6617
  46   2.0000      -0.517014       -14.0687
  47   2.0000      -0.513710       -13.9788
  48   2.0000      -0.493200       -13.4206
  49   2.0000      -0.489319       -13.3150
  50   2.0000      -0.481863       -13.1122
  51   2.0000      -0.479427       -13.0459
  52   2.0000      -0.471427       -12.8282
  53   2.0000      -0.468100       -12.7377
  54   2.0000      -0.462678       -12.5901
  55   2.0000      -0.446512       -12.1502
  56   2.0000      -0.444622       -12.0988
  57   2.0000      -0.440292       -11.9810
  58   2.0000      -0.435299       -11.8451
  59   2.0000      -0.428560       -11.6617
  60   2.0000      -0.413290       -11.2462
  61   2.0000      -0.408981       -11.1289
  62   2.0000      -0.400839       -10.9074
  63   2.0000      -0.336826        -9.1655
  64   2.0000      -0.331575        -9.0226
  65   2.0000      -0.315693        -8.5905
  66   2.0000      -0.309382        -8.4187
  67   0.0000       0.039277         1.0688
  68   0.0000       0.043269         1.1774
  69   0.0000       0.108389         2.9494
  70   0.0000       0.112699         3.0667
  71   0.0000       0.128612         3.4997

MULLIKEN ATOMIC CHARGES
-----------------------
   0 S :    0.104592
   1 C :   -0.123121
   2 C :   -0.096166
   3 C :    0.073142
   4 C :   -0.193204
   5 H :   -0.000160
   6 C :    0.071375
   7 H :    0.023619
   8 H :    0.016989
   9 C :   -0.046022
  10 H :    0.042786
  11 H :    0.024228
  12 C :   -0.058810
  13 H :    0.022127
  14 H :    0.042840
  15 H :    0.026399
  16 S :    0.119239
  17 C :   -0.071259
  18 C :   -0.054578
  19 C :    0.000953
  20 C :   -0.173121
  21 H :    0.036994
  22 C :    0.056694
  23 H :    0.025187
  24 H :    0.014627
  25 C :   -0.056506
  26 H :    0.026176
  27 H :    0.025050
  28 C :   -0.040253
  29 H :    0.010579
  30 H :    0.031044
  31 H :    0.030426
  32 H :    0.054077
  33 H :    0.034056
Sum of atomic charges:    0.0000000

LOEWDIN ATOMIC CHARGES
----------------------
   0 S :    0.411132
   1 C :   -0.194704
   2 C :   -0.068973
   3 C :   -0.046888
   4 C :   -0.192657
   5 H :    0.028358
   6 C :   -0.029334
   7 H :    0.032951
   8 H :    0.027527
   9 C :   -0.037065
  10 H :    0.032570
  11 H :    0.024172
  12 C :   -0.064727
  13 H :    0.023133
  14 H :    0.026283
  15 H :    0.022421
  16 S :    0.393579
  17 C :   -0.163487
  18 C :   -0.070204
  19 C :   -0.044055
  20 C :   -0.212408
  21 H :    0.040335
  22 C :   -0.041671
  23 H :    0.033729
  24 H :    0.026880
  25 C :   -0.042194
  26 H :    0.012138
  27 H :    0.025366
  28 C :   -0.068317
  29 H :    0.021678
  30 H :    0.026853
  31 H :    0.024037
  32 H :    0.025043
  33 H :    0.018500

  Mayer bond orders larger than 0.100000
B(  0-S ,  1-C ) :   1.1592 B(  0-S ,  4-C ) :   1.1446 B(  1-C ,  2-C ) :   1.6080
B(  1-C , 32-H ) :   0.9578 B(  2-C ,  3-C ) :   1.2505 B(  2-C ,  6-C ) :   1.0286
B(  3-C ,  4-C ) :   1.5921 B(  3-C ,  5-H ) :   1.0006 B(  4-C , 20-C ) :   1.0255
B(  6-C ,  7-H ) :   0.9393 B(  6-C ,  8-H ) :   0.9358 B(  6-C ,  9-C ) :   1.0675
B(  9-C , 10-H ) :   0.9576 B(  9-C , 11-H ) :   0.9527 B(  9-C , 12-C ) :   1.0723
B( 12-C , 13-H ) :   0.9719 B( 12-C , 14-H ) :   0.9766 B( 12-C , 15-H ) :   0.9736
B( 16-S , 17-C ) :   1.1597 B( 16-S , 20-C ) :   1.1247 B( 17-C , 18-C ) :   1.6129
B( 17-C , 20-C ) :   0.1060 B( 17-C , 33-H ) :   0.9686 B( 18-C , 19-C ) :   1.2410
B( 18-C , 21-H ) :   0.9855 B( 19-C , 20-C ) :   1.5868 B( 19-C , 22-C ) :   1.0440
B( 22-C , 23-H ) :   0.9195 B( 22-C , 24-H ) :   0.9420 B( 22-C , 25-C ) :   1.0953
B( 25-C , 26-H ) :   0.9456 B( 25-C , 27-H ) :   0.9499 B( 25-C , 28-C ) :   1.0801
B( 28-C , 29-H ) :   0.9676 B( 28-C , 30-H ) :   0.9740 B( 28-C , 31-H ) :   0.9676

Dispersion correction           -0.015726302
FINAL SINGLE POINT ENERGY     -1339.861316300203

DIPOLE MOMENT
-------------
                                X             Y             Z
Electronic contribution:    -16.44747     -14.37308       8.33012
Nuclear contribution   :     17.03982      14.87731      -8.27799
                        -----------------------------------------
Total Dipole Moment    :      0.59235       0.50423       0.05213
                        -----------------------------------------
Magnitude (a.u.)       :      0.77964
Magnitude (Debye)      :      1.98170

Rotational constants in cm-1:     0.023825     0.008070     0.007221
Rotational constants in MHz :   714.254143   241.930269   216.485639

                             ****ORCA TERMINATED NORMALLY****
TOTAL RUN TIME: 0 days 0 hours 0 minutes 31 seconds 775 msec
