                         Program Version 4.2.1 -  RELEASE  -
|  1> ! wB97X-D3 SP def2-SVP
|  2> %pal
|  3> nprocs 16
|  4> end
|  5>
|  6> * xyz 0 1
|  7> S 	 -39.8405 	 20.9042 	 74.6944
|  8> C 	 -38.2325 	 21.4992 	 75.0931
|  9> C 	 -37.3989 	 20.361 	 75.2354
| 10> C 	 -38.104 	 19.1834 	 75.3161
| 11> C 	 -39.4266 	 19.2578 	 75.0683
| 12> H 	 -37.6985 	 18.1657 	 75.5658
| 13> C 	 -35.918 	 20.4661 	 75.3923
| 14> H 	 -35.5711 	 19.7302 	 76.1184
| 15> H 	 -35.7576 	 21.403 	 75.89
| 16> C 	 -34.9699 	 20.2479 	 74.2119
| 17> H 	 -34.9878 	 21.0972 	 73.5284
| 18> H 	 -33.8769 	 20.2812 	 74.4864
| 19> C 	 -35.2314 	 18.9896 	 73.3923
| 20> H 	 -35.2477 	 18.1184 	 74.0458
| 21> H 	 -36.1333 	 19.0105 	 72.873
| 22> H 	 -34.324 	 18.9524 	 72.7647
| 23> S 	 -42.0168 	 18.4697 	 76.0391
| 24> C 	 -42.5393 	 16.864 	 75.6924
| 25> C 	 -41.5658 	 16.1342 	 75.0239
| 26> C 	 -40.383 	 16.9113 	 74.6306
| 27> C 	 -40.4292 	 18.1909 	 75.1916
| 28> H 	 -41.8021 	 15.1735 	 74.6083
| 29> C 	 -39.4749 	 16.4577 	 73.5334
| 30> H 	 -38.6297 	 16.1098 	 74.1225
| 31> H 	 -39.1938 	 17.2599 	 72.7792
| 32> C 	 -39.9707 	 15.2585 	 72.7213
| 33> H 	 -40.935 	 15.4098 	 72.3659
| 34> H 	 -39.9943 	 14.3136 	 73.324
| 35> C 	 -39 	 14.8006 	 71.6158
| 36> H 	 -39.1464 	 13.7569 	 71.1966
| 37> H 	 -37.998 	 14.8031 	 71.9517
| 38> H 	 -38.9995 	 15.4863 	 70.7759
| 39> H 	 -37.93 	 22.5729 	 75.0983
| 40> H 	 -43.5773 	 16.5737 	 75.7758
| 41> *
| 42>
| 43>                          ****END OF INPUT****

CARTESIAN COORDINATES (ANGSTROEM)
---------------------------------
  S    -39.840500   20.904200   74.694400
  C    -38.232500   21.499200   75.093100
  C    -37.398900   20.361000   75.235400
  C    -38.104000   19.183400   75.316100
  C    -39.426600   19.257800   75.068300
  H    -37.698500   18.165700   75.565800
  C    -35.918000   20.466100   75.392300
  H    -35.571100   19.730200   76.118400
  H    -35.757600   21.403000   75.890000
  C    -34.969900   20.247900   74.211900
  H    -34.987800   21.097200   73.528400
  H    -33.876900   20.281200   74.486400
  C    -35.231400   18.989600   73.392300
  H    -35.247700   18.118400   74.045800
  H    -36.133300   19.010500   72.873000
  H    -34.324000   18.952400   72.764700
  S    -42.016800   18.469700   76.039100
  C    -42.539300   16.864000   75.692400
  C    -41.565800   16.134200   75.023900
  C    -40.383000   16.911300   74.630600
  C    -40.429200   18.190900   75.191600
  H    -41.802100   15.173500   74.608300
  C    -39.474900   16.457700   73.533400
  H    -38.629700   16.109800   74.122500
  H    -39.193800   17.259900   72.779200
  C    -39.970700   15.258500   72.721300
  H    -40.935000   15.409800   72.365900
  H    -39.994300   14.313600   73.324000
  C    -39.000000   14.800600   71.615800
  H    -39.146400   13.756900   71.196600
  H    -37.998000   14.803100   71.951700
  H    -38.999500   15.486300   70.775900
  H    -37.930000   22.572900   75.098300
  H    -43.577300   16.573700   75.775800

 Total Charge           Charge          ....    0
 Multiplicity           Mult            ....    1
 Number of Electrons    NEL             ....  134
 Basis Dimension        Dim             ....  322

ORBITAL ENERGIES
----------------

  NO   OCC          E(Eh)            E(eV)
   0   2.0000     -88.965383     -2420.8712
   1   2.0000     -88.964968     -2420.8599
   2   2.0000     -10.331870      -281.1445
   3   2.0000     -10.324731      -280.9502
   4   2.0000     -10.322416      -280.8872
   5   2.0000     -10.319176      -280.7991
   6   2.0000     -10.309840      -280.5450
   7   2.0000     -10.299948      -280.2758
   8   2.0000     -10.299609      -280.2666
   9   2.0000     -10.296216      -280.1743
  10   2.0000     -10.289198      -279.9833
  11   2.0000     -10.287643      -279.9410
  12   2.0000     -10.287459      -279.9360
  13   2.0000     -10.284954      -279.8678
  14   2.0000     -10.279930      -279.7311
  15   2.0000     -10.272613      -279.5320
  16   2.0000      -8.079710      -219.8601
  17   2.0000      -8.079530      -219.8552
  18   2.0000      -6.038161      -164.3067
  19   2.0000      -6.038133      -164.3059
  20   2.0000      -6.034111      -164.1965
  21   2.0000      -6.034094      -164.1960
  22   2.0000      -6.030652      -164.1024
  23   2.0000      -6.030238      -164.0911
  24   2.0000      -1.007564       -27.4172
  25   2.0000      -0.982051       -26.7230
  26   2.0000      -0.914319       -24.8799
  27   2.0000      -0.912434       -24.8286
  28   2.0000      -0.869061       -23.6483
  29   2.0000      -0.853474       -23.2242
  30   2.0000      -0.844674       -22.9847
  31   2.0000      -0.815866       -22.2009
  32   2.0000      -0.785966       -21.3872
  33   2.0000      -0.771812       -21.0021
  34   2.0000      -0.710396       -19.3309
  35   2.0000      -0.699248       -19.0275
  36   2.0000      -0.697085       -18.9687
  37   2.0000      -0.649574       -17.6758
  38   2.0000      -0.640819       -17.4376
  39   2.0000      -0.615838       -16.7578
  40   2.0000      -0.599451       -16.3119
  41   2.0000      -0.577728       -15.7208
  42   2.0000      -0.570485       -15.5237
  43   2.0000      -0.555605       -15.1188
  44   2.0000      -0.544079       -14.8051
  45   2.0000      -0.525480       -14.2990
  46   2.0000      -0.516775       -14.0622
  47   2.0000      -0.513555       -13.9745
  48   2.0000      -0.501761       -13.6536
  49   2.0000      -0.498560       -13.5665
  50   2.0000      -0.488875       -13.3030
  51   2.0000      -0.482845       -13.1389
  52   2.0000      -0.471098       -12.8192
  53   2.0000      -0.466559       -12.6957
  54   2.0000      -0.459811       -12.5121
  55   2.0000      -0.455290       -12.3891
  56   2.0000      -0.442952       -12.0533
  57   2.0000      -0.433578       -11.7983
  58   2.0000      -0.428800       -11.6682
  59   2.0000      -0.427480       -11.6323
  60   2.0000      -0.423294       -11.5184
  61   2.0000      -0.414595       -11.2817
  62   2.0000      -0.406704       -11.0670
  63   2.0000      -0.345692        -9.4067
  64   2.0000      -0.330492        -8.9931
  65   2.0000      -0.327018        -8.8986
  66   2.0000      -0.290790        -7.9128
  67   0.0000       0.020794         0.5658
  68   0.0000       0.073264         1.9936
  69   0.0000       0.109992         2.9930
  70   0.0000       0.122374         3.3300
  71   0.0000       0.128759         3.5037

MULLIKEN ATOMIC CHARGES
-----------------------
   0 S :    0.105284
   1 C :   -0.143499
   2 C :   -0.089720
   3 C :    0.010072
   4 C :   -0.154752
   5 H :    0.023994
   6 C :    0.088069
   7 H :    0.018531
   8 H :    0.012040
   9 C :   -0.085363
  10 H :    0.015154
  11 H :    0.031020
  12 C :   -0.034201
  13 H :    0.019389
  14 H :    0.040302
  15 H :    0.037964
  16 S :    0.104750
  17 C :   -0.092955
  18 C :   -0.019608
  19 C :   -0.063298
  20 C :   -0.154552
  21 H :    0.016435
  22 C :    0.072747
  23 H :    0.033920
  24 H :    0.065197
  25 C :   -0.101836
  26 H :    0.027798
  27 H :    0.036120
  28 C :   -0.042734
  29 H :    0.043426
  30 H :    0.014786
  31 H :    0.024466
  32 H :    0.073325
  33 H :    0.067729
Sum of atomic charges:   -0.0000000

LOEWDIN ATOMIC CHARGES
----------------------
   0 S :    0.407955
   1 C :   -0.198014
   2 C :   -0.068112
   3 C :   -0.071438
   4 C :   -0.199297
   5 H :    0.041068
   6 C :   -0.037904
   7 H :    0.030655
   8 H :    0.029083
   9 C :   -0.044221
  10 H :    0.018076
  11 H :    0.030098
  12 C :   -0.058623
  13 H :    0.020444
  14 H :    0.017671
  15 H :    0.034455
  16 S :    0.386135
  17 C :   -0.188202
  18 C :   -0.073070
  19 C :   -0.049001
  20 C :   -0.185649
  21 H :    0.026271
  22 C :   -0.035721
  23 H :    0.038550
  24 H :    0.046185
  25 C :   -0.041699
  26 H :    0.013269
  27 H :    0.030487
  28 C :   -0.066073
  29 H :    0.035192
  30 H :    0.018636
  31 H :    0.020096
  32 H :    0.040215
  33 H :    0.032484

  Mayer bond orders larger than 0.100000
B(  0-S ,  1-C ) :   1.1556 B(  0-S ,  4-C ) :   1.1557 B(  1-C ,  2-C ) :   1.5446
B(  1-C ,  4-C ) :   0.1064 B(  1-C , 32-H ) :   0.9687 B(  2-C ,  3-C ) :   1.2774
B(  2-C ,  6-C ) :   1.0289 B(  3-C ,  4-C ) :   1.5636 B(  3-C ,  5-H ) :   0.9873
B(  4-C , 20-C ) :   1.0502 B(  6-C ,  7-H ) :   0.9400 B(  6-C ,  8-H ) :   0.9353
B(  6-C ,  9-C ) :   1.0693 B(  9-C , 10-H ) :   0.9523 B(  9-C , 11-H ) :   0.9578
B(  9-C , 12-C ) :   1.0782 B( 12-C , 13-H ) :   0.9757 B( 12-C , 14-H ) :   0.9734
B( 12-C , 15-H ) :   0.9728 B( 16-S , 17-C ) :   1.1607 B( 16-S , 20-C ) :   1.1153
B( 17-C , 18-C ) :   1.6102 B( 17-C , 33-H ) :   0.9639 B( 18-C , 19-C ) :   1.2418
B( 18-C , 21-H ) :   0.9766 B( 19-C , 20-C ) :   1.6075 B( 19-C , 22-C ) :   1.0266
B( 22-C , 23-H ) :   0.9046 B( 22-C , 24-H ) :   0.9459 B( 22-C , 25-C ) :   1.0920
B( 25-C , 26-H ) :   0.9572 B( 25-C , 27-H ) :   0.9452 B( 25-C , 28-C ) :   1.0748
B( 28-C , 29-H ) :   0.9769 B( 28-C , 30-H ) :   0.9721 B( 28-C , 31-H ) :   0.9741

Dispersion correction           -0.014255825
FINAL SINGLE POINT ENERGY     -1339.865599954047

DIPOLE MOMENT
-------------
                                X             Y             Z
Electronic contribution:    -22.84662      14.14463      14.64796
Nuclear contribution   :     23.29391     -14.51642     -15.02398
                        -----------------------------------------
Total Dipole Moment    :      0.44729      -0.37178      -0.37602
                        -----------------------------------------
Magnitude (a.u.)       :      0.69259
Magnitude (Debye)      :      1.76043

Rotational constants in cm-1:     0.016605     0.009650     0.006612
Rotational constants in MHz :   497.818040   289.305573   198.226665

                             ****ORCA TERMINATED NORMALLY****
TOTAL RUN TIME: 0 days 0 hours 0 minutes 28 seconds 849 msec
