                         Program Version 4.2.1 -  RELEASE  -
|  1> ! wB97X-D3 SP def2-SVP
|  2> %pal
|  3> nprocs 16
|  4> end
|  5>
|  6> * xyz 0 1
|  7> S 	 -4.7082 	 34.3499 	 51.4768
|  8> C 	 -3.23 	 33.8761 	 52.2773
|  9> C 	 -2.85169 	 32.5936 	 51.9701
| 10> C 	 -3.61052 	 32.0795 	 50.8466
| 11> C 	 -4.66098 	 32.9015 	 50.4867
| 12> H 	 -3.40951 	 31.1301 	 50.3837
| 13> C 	 -1.72729 	 31.8065 	 52.5698
| 14> H 	 -2.03926 	 30.7354 	 52.6075
| 15> H 	 -1.64926 	 32.2718 	 53.4976
| 16> C 	 -0.475606 	 31.9393 	 51.7091
| 17> H 	 -0.598778 	 31.4624 	 50.7157
| 18> H 	 -0.25225 	 33.0709 	 51.5476
| 19> C 	 0.740637 	 31.424 	 52.515
| 20> H 	 0.686498 	 30.358 	 52.7661
| 21> H 	 1.66743 	 31.4737 	 51.9808
| 22> H 	 0.980636 	 32.0697 	 53.396
| 23> S 	 -7.38529 	 32.9836 	 49.8646
| 24> C 	 -7.88855 	 32.9038 	 48.2507
| 25> C 	 -6.81267 	 32.6408 	 47.4326
| 26> C 	 -5.5464 	 32.5256 	 48.0824
| 27> C 	 -5.65357 	 32.7911 	 49.3953
| 28> H 	 -7.032 	 32.5845 	 46.348
| 29> C 	 -4.2213 	 32.2593 	 47.392
| 30> H 	 -4.4438 	 31.3047 	 46.8256
| 31> H 	 -3.41031 	 31.9597 	 48.1448
| 32> C 	 -3.69437 	 33.4471 	 46.5566
| 33> H 	 -4.49873 	 33.9358 	 45.8889
| 34> H 	 -2.73536 	 33.2412 	 46.0497
| 35> C 	 -3.34655 	 34.6079 	 47.4979
| 36> H 	 -2.50697 	 34.2159 	 48.0744
| 37> H 	 -4.12626 	 34.974 	 48.1433
| 38> H 	 -3.13412 	 35.5352 	 46.9165
| 39> H 	 -2.77544 	 34.2974 	 53.2354
| 40> H 	 -8.90748 	 33.0021 	 47.9514
| 41> *
| 42>
| 43>                          ****END OF INPUT****

CARTESIAN COORDINATES (ANGSTROEM)
---------------------------------
  S     -4.708200   34.349900   51.476800
  C     -3.230000   33.876100   52.277300
  C     -2.851690   32.593600   51.970100
  C     -3.610520   32.079500   50.846600
  C     -4.660980   32.901500   50.486700
  H     -3.409510   31.130100   50.383700
  C     -1.727290   31.806500   52.569800
  H     -2.039260   30.735400   52.607500
  H     -1.649260   32.271800   53.497600
  C     -0.475606   31.939300   51.709100
  H     -0.598778   31.462400   50.715700
  H     -0.252250   33.070900   51.547600
  C      0.740637   31.424000   52.515000
  H      0.686498   30.358000   52.766100
  H      1.667430   31.473700   51.980800
  H      0.980636   32.069700   53.396000
  S     -7.385290   32.983600   49.864600
  C     -7.888550   32.903800   48.250700
  C     -6.812670   32.640800   47.432600
  C     -5.546400   32.525600   48.082400
  C     -5.653570   32.791100   49.395300
  H     -7.032000   32.584500   46.348000
  C     -4.221300   32.259300   47.392000
  H     -4.443800   31.304700   46.825600
  H     -3.410310   31.959700   48.144800
  C     -3.694370   33.447100   46.556600
  H     -4.498730   33.935800   45.888900
  H     -2.735360   33.241200   46.049700
  C     -3.346550   34.607900   47.497900
  H     -2.506970   34.215900   48.074400
  H     -4.126260   34.974000   48.143300
  H     -3.134120   35.535200   46.916500
  H     -2.775440   34.297400   53.235400
  H     -8.907480   33.002100   47.951400

 Total Charge           Charge          ....    0
 Multiplicity           Mult            ....    1
 Number of Electrons    NEL             ....  134
 Basis Dimension        Dim             ....  322

ORBITAL ENERGIES
----------------

  NO   OCC          E(Eh)            E(eV)
   0   2.0000     -88.967022     -2420.9158
   1   2.0000     -88.960264     -2420.7319
   2   2.0000     -10.332399      -281.1589
   3   2.0000     -10.325653      -280.9753
   4   2.0000     -10.314350      -280.6677
   5   2.0000     -10.312627      -280.6208
   6   2.0000     -10.303491      -280.3722
   7   2.0000     -10.301847      -280.3275
   8   2.0000     -10.300112      -280.2803
   9   2.0000     -10.297579      -280.2114
  10   2.0000     -10.294796      -280.1356
  11   2.0000     -10.294420      -280.1254
  12   2.0000     -10.293930      -280.1121
  13   2.0000     -10.290784      -280.0265
  14   2.0000     -10.281053      -279.7617
  15   2.0000     -10.268557      -279.4216
  16   2.0000      -8.081438      -219.9071
  17   2.0000      -8.075777      -219.7531
  18   2.0000      -6.040097      -164.3594
  19   2.0000      -6.036008      -164.2481
  20   2.0000      -6.034232      -164.1998
  21   2.0000      -6.032014      -164.1394
  22   2.0000      -6.030199      -164.0901
  23   2.0000      -6.026512      -163.9897
  24   2.0000      -1.008435       -27.4409
  25   2.0000      -0.987436       -26.8695
  26   2.0000      -0.917414       -24.9641
  27   2.0000      -0.908718       -24.7275
  28   2.0000      -0.866464       -23.5777
  29   2.0000      -0.851307       -23.1652
  30   2.0000      -0.842062       -22.9137
  31   2.0000      -0.813340       -22.1321
  32   2.0000      -0.781145       -21.2560
  33   2.0000      -0.771532       -20.9945
  34   2.0000      -0.705591       -19.2001
  35   2.0000      -0.694672       -18.9030
  36   2.0000      -0.689131       -18.7522
  37   2.0000      -0.656612       -17.8673
  38   2.0000      -0.634125       -17.2554
  39   2.0000      -0.622296       -16.9335
  40   2.0000      -0.598214       -16.2782
  41   2.0000      -0.575349       -15.6560
  42   2.0000      -0.557355       -15.1664
  43   2.0000      -0.549592       -14.9551
  44   2.0000      -0.547981       -14.9113
  45   2.0000      -0.522621       -14.2212
  46   2.0000      -0.518546       -14.1104
  47   2.0000      -0.510553       -13.8928
  48   2.0000      -0.501362       -13.6427
  49   2.0000      -0.493641       -13.4327
  50   2.0000      -0.490959       -13.3597
  51   2.0000      -0.472940       -12.8694
  52   2.0000      -0.470382       -12.7997
  53   2.0000      -0.462657       -12.5895
  54   2.0000      -0.458545       -12.4776
  55   2.0000      -0.444289       -12.0897
  56   2.0000      -0.441166       -12.0047
  57   2.0000      -0.438693       -11.9375
  58   2.0000      -0.429255       -11.6806
  59   2.0000      -0.425763       -11.5856
  60   2.0000      -0.418997       -11.4015
  61   2.0000      -0.414936       -11.2910
  62   2.0000      -0.404736       -11.0134
  63   2.0000      -0.348559        -9.4848
  64   2.0000      -0.332405        -9.0452
  65   2.0000      -0.326590        -8.8870
  66   2.0000      -0.296198        -8.0600
  67   0.0000       0.034333         0.9343
  68   0.0000       0.071476         1.9450
  69   0.0000       0.111931         3.0458
  70   0.0000       0.119021         3.2387
  71   0.0000       0.122445         3.3319

MULLIKEN ATOMIC CHARGES
-----------------------
   0 S :    0.116529
   1 C :   -0.125112
   2 C :   -0.144166
   3 C :    0.033578
   4 C :   -0.135746
   5 H :    0.009694
   6 C :    0.114523
   7 H :    0.041630
   8 H :    0.001353
   9 C :   -0.114816
  10 H :    0.040815
  11 H :    0.045789
  12 C :   -0.041962
  13 H :    0.031135
  14 H :    0.020599
  15 H :    0.038377
  16 S :    0.094453
  17 C :   -0.076745
  18 C :   -0.067596
  19 C :   -0.010912
  20 C :   -0.174019
  21 H :    0.026586
  22 C :    0.045947
  23 H :    0.044799
  24 H :    0.028822
  25 C :   -0.078549
  26 H :    0.045724
  27 H :    0.044629
  28 C :   -0.074389
  29 H :    0.030302
  30 H :    0.038805
  31 H :    0.033852
  32 H :    0.064002
  33 H :    0.052067
Sum of atomic charges:    0.0000000

LOEWDIN ATOMIC CHARGES
----------------------
   0 S :    0.408298
   1 C :   -0.222414
   2 C :   -0.060143
   3 C :   -0.064650
   4 C :   -0.183613
   5 H :    0.026592
   6 C :   -0.028094
   7 H :    0.039601
   8 H :    0.021944
   9 C :   -0.041978
  10 H :    0.026715
  11 H :    0.036917
  12 C :   -0.075465
  13 H :    0.024527
  14 H :    0.020864
  15 H :    0.031906
  16 S :    0.395968
  17 C :   -0.193307
  18 C :   -0.080052
  19 C :   -0.060853
  20 C :   -0.182610
  21 H :    0.035027
  22 C :   -0.038052
  23 H :    0.038263
  24 H :    0.036645
  25 C :   -0.046897
  26 H :    0.032833
  27 H :    0.029524
  28 C :   -0.069579
  29 H :    0.023160
  30 H :    0.020453
  31 H :    0.028667
  32 H :    0.042175
  33 H :    0.027628

  Mayer bond orders larger than 0.100000
B(  0-S ,  1-C ) :   1.1196 B(  0-S ,  4-C ) :   1.1535 B(  1-C ,  2-C ) :   1.6582
B(  1-C , 32-H ) :   0.9464 B(  2-C ,  3-C ) :   1.2079 B(  2-C ,  6-C ) :   1.0269
B(  3-C ,  4-C ) :   1.5962 B(  3-C ,  5-H ) :   0.9925 B(  4-C , 20-C ) :   1.0048
B(  6-C ,  7-H ) :   0.9347 B(  6-C ,  8-H ) :   0.9318 B(  6-C ,  9-C ) :   1.0644
B(  9-C , 10-H ) :   0.9553 B(  9-C , 11-H ) :   0.9562 B(  9-C , 12-C ) :   1.0790
B( 12-C , 13-H ) :   0.9722 B( 12-C , 14-H ) :   0.9731 B( 12-C , 15-H ) :   0.9753
B( 16-S , 17-C ) :   1.1582 B( 16-S , 20-C ) :   1.1328 B( 17-C , 18-C ) :   1.6148
B( 17-C , 33-H ) :   0.9729 B( 18-C , 19-C ) :   1.2065 B( 18-C , 21-H ) :   0.9895
B( 19-C , 20-C ) :   1.6385 B( 19-C , 22-C ) :   1.0292 B( 22-C , 23-H ) :   0.9302
B( 22-C , 24-H ) :   0.9368 B( 22-C , 25-C ) :   1.0621 B( 25-C , 26-H ) :   0.9605
B( 25-C , 27-H ) :   0.9587 B( 25-C , 28-C ) :   1.0590 B( 28-C , 29-H ) :   0.9774
B( 28-C , 30-H ) :   0.9753 B( 28-C , 31-H ) :   0.9730

Dispersion correction           -0.015271840
FINAL SINGLE POINT ENERGY     -1339.875697144680

DIPOLE MOMENT
-------------
                                X             Y             Z
Electronic contribution:    -26.74122       4.75025       5.11466
Nuclear contribution   :     27.22904      -5.06956      -5.30384
                        -----------------------------------------
Total Dipole Moment    :      0.48782      -0.31931      -0.18918
                        -----------------------------------------
Magnitude (a.u.)       :      0.61295
Magnitude (Debye)      :      1.55801

Rotational constants in cm-1:     0.022202     0.008352     0.007062
Rotational constants in MHz :   665.605444   250.384232   211.724997

                             ****ORCA TERMINATED NORMALLY****
TOTAL RUN TIME: 0 days 0 hours 0 minutes 36 seconds 438 msec
