                         Program Version 4.2.1 -  RELEASE  -
|  1> ! wB97X-D3 SP def2-SVP
|  2> %pal
|  3> nprocs 16
|  4> end
|  5>
|  6> * xyz 0 1
|  7> S 	 -40.3984 	 34.0894 	 87.8944
|  8> C 	 -41.9835 	 34.8095 	 87.961
|  9> C 	 -42.9554 	 33.8003 	 87.855
| 10> C 	 -42.4082 	 32.5809 	 87.4907
| 11> C 	 -41.0286 	 32.6044 	 87.2503
| 12> H 	 -43.0089 	 31.6035 	 87.3703
| 13> C 	 -44.4665 	 33.8623 	 88.1631
| 14> H 	 -44.5845 	 34.5798 	 88.9323
| 15> H 	 -44.8662 	 32.9451 	 88.6507
| 16> C 	 -45.3749 	 34.0958 	 86.9498
| 17> H 	 -46.3571 	 34.1449 	 87.4215
| 18> H 	 -45.1055 	 35.034 	 86.3835
| 19> C 	 -45.4144 	 32.8793 	 86.0195
| 20> H 	 -46.2048 	 33.0069 	 85.3212
| 21> H 	 -44.5325 	 32.7123 	 85.3935
| 22> H 	 -45.6543 	 31.9857 	 86.5654
| 23> S 	 -38.5228 	 32.1652 	 86.5474
| 24> C 	 -37.8785 	 30.6406 	 86.0907
| 25> C 	 -38.8364 	 29.6934 	 86.248
| 26> C 	 -40.144 	 30.1953 	 86.6282
| 27> C 	 -40.1193 	 31.5308 	 86.8051
| 28> H 	 -38.4623 	 28.723 	 85.967
| 29> C 	 -41.3407 	 29.2867 	 86.7243
| 30> H 	 -42.0829 	 29.692 	 86.0572
| 31> H 	 -41.7808 	 29.3681 	 87.7324
| 32> C 	 -41.2412 	 27.8101 	 86.5125
| 33> H 	 -42.0835 	 27.3146 	 87.0792
| 34> H 	 -40.3827 	 27.3974 	 87.1364
| 35> C 	 -40.9934 	 27.2308 	 85.1119
| 36> H 	 -40.1538 	 27.6235 	 84.482
| 37> H 	 -41.8618 	 27.4547 	 84.4422
| 38> H 	 -40.8595 	 26.105 	 85.1604
| 39> H 	 -42.1785 	 35.8239 	 88.3028
| 40> H 	 -36.9359 	 30.5172 	 85.5952
| 41> *
| 42>
| 43>                          ****END OF INPUT****

CARTESIAN COORDINATES (ANGSTROEM)
---------------------------------
  S    -40.398400   34.089400   87.894400
  C    -41.983500   34.809500   87.961000
  C    -42.955400   33.800300   87.855000
  C    -42.408200   32.580900   87.490700
  C    -41.028600   32.604400   87.250300
  H    -43.008900   31.603500   87.370300
  C    -44.466500   33.862300   88.163100
  H    -44.584500   34.579800   88.932300
  H    -44.866200   32.945100   88.650700
  C    -45.374900   34.095800   86.949800
  H    -46.357100   34.144900   87.421500
  H    -45.105500   35.034000   86.383500
  C    -45.414400   32.879300   86.019500
  H    -46.204800   33.006900   85.321200
  H    -44.532500   32.712300   85.393500
  H    -45.654300   31.985700   86.565400
  S    -38.522800   32.165200   86.547400
  C    -37.878500   30.640600   86.090700
  C    -38.836400   29.693400   86.248000
  C    -40.144000   30.195300   86.628200
  C    -40.119300   31.530800   86.805100
  H    -38.462300   28.723000   85.967000
  C    -41.340700   29.286700   86.724300
  H    -42.082900   29.692000   86.057200
  H    -41.780800   29.368100   87.732400
  C    -41.241200   27.810100   86.512500
  H    -42.083500   27.314600   87.079200
  H    -40.382700   27.397400   87.136400
  C    -40.993400   27.230800   85.111900
  H    -40.153800   27.623500   84.482000
  H    -41.861800   27.454700   84.442200
  H    -40.859500   26.105000   85.160400
  H    -42.178500   35.823900   88.302800
  H    -36.935900   30.517200   85.595200

 Total Charge           Charge          ....    0
 Multiplicity           Mult            ....    1
 Number of Electrons    NEL             ....  134
 Basis Dimension        Dim             ....  322

ORBITAL ENERGIES
----------------

  NO   OCC          E(Eh)            E(eV)
   0   2.0000     -88.967480     -2420.9282
   1   2.0000     -88.956216     -2420.6217
   2   2.0000     -10.331804      -281.1427
   3   2.0000     -10.325284      -280.9653
   4   2.0000     -10.315333      -280.6945
   5   2.0000     -10.309502      -280.5358
   6   2.0000     -10.305621      -280.4302
   7   2.0000     -10.299445      -280.2622
   8   2.0000     -10.297883      -280.2196
   9   2.0000     -10.294598      -280.1303
  10   2.0000     -10.293074      -280.0888
  11   2.0000     -10.291331      -280.0414
  12   2.0000     -10.291173      -280.0371
  13   2.0000     -10.290718      -280.0247
  14   2.0000     -10.290480      -280.0182
  15   2.0000     -10.272003      -279.5154
  16   2.0000      -8.082323      -219.9312
  17   2.0000      -8.072648      -219.6679
  18   2.0000      -6.040828      -164.3793
  19   2.0000      -6.036936      -164.2734
  20   2.0000      -6.032930      -164.1644
  21   2.0000      -6.031188      -164.1170
  22   2.0000      -6.026867      -163.9994
  23   2.0000      -6.023311      -163.9026
  24   2.0000      -1.015178       -27.6244
  25   2.0000      -0.990201       -26.9447
  26   2.0000      -0.914955       -24.8972
  27   2.0000      -0.911014       -24.7899
  28   2.0000      -0.872094       -23.7309
  29   2.0000      -0.852928       -23.2093
  30   2.0000      -0.839852       -22.8535
  31   2.0000      -0.815338       -22.1865
  32   2.0000      -0.788106       -21.4455
  33   2.0000      -0.780038       -21.2259
  34   2.0000      -0.705350       -19.1935
  35   2.0000      -0.698882       -19.0176
  36   2.0000      -0.693919       -18.8825
  37   2.0000      -0.660222       -17.9656
  38   2.0000      -0.633221       -17.2308
  39   2.0000      -0.619852       -16.8670
  40   2.0000      -0.601520       -16.3682
  41   2.0000      -0.576721       -15.6934
  42   2.0000      -0.557604       -15.1732
  43   2.0000      -0.549096       -14.9417
  44   2.0000      -0.539210       -14.6727
  45   2.0000      -0.528248       -14.3744
  46   2.0000      -0.519670       -14.1409
  47   2.0000      -0.509721       -13.8702
  48   2.0000      -0.504060       -13.7162
  49   2.0000      -0.502361       -13.6699
  50   2.0000      -0.494205       -13.4480
  51   2.0000      -0.484099       -13.1730
  52   2.0000      -0.469764       -12.7829
  53   2.0000      -0.466270       -12.6879
  54   2.0000      -0.463697       -12.6178
  55   2.0000      -0.447721       -12.1831
  56   2.0000      -0.441383       -12.0107
  57   2.0000      -0.438838       -11.9414
  58   2.0000      -0.432186       -11.7604
  59   2.0000      -0.429587       -11.6897
  60   2.0000      -0.413346       -11.2477
  61   2.0000      -0.412620       -11.2280
  62   2.0000      -0.400763       -10.9053
  63   2.0000      -0.361025        -9.8240
  64   2.0000      -0.332925        -9.0593
  65   2.0000      -0.325417        -8.8550
  66   2.0000      -0.282295        -7.6816
  67   0.0000       0.019355         0.5267
  68   0.0000       0.083290         2.2664
  69   0.0000       0.096004         2.6124
  70   0.0000       0.127458         3.4683
  71   0.0000       0.134738         3.6664

MULLIKEN ATOMIC CHARGES
-----------------------
   0 S :    0.110688
   1 C :   -0.118775
   2 C :   -0.076887
   3 C :   -0.043902
   4 C :   -0.104354
   5 H :    0.036789
   6 C :    0.049169
   7 H :    0.010356
   8 H :    0.025415
   9 C :   -0.061258
  10 H :    0.029673
  11 H :    0.045229
  12 C :   -0.041263
  13 H :    0.020762
  14 H :    0.045768
  15 H :    0.014590
  16 S :    0.066293
  17 C :   -0.079284
  18 C :   -0.049368
  19 C :   -0.043291
  20 C :   -0.106540
  21 H :    0.012338
  22 C :    0.062012
  23 H :    0.036045
  24 H :    0.041097
  25 C :   -0.091862
  26 H :    0.038833
  27 H :    0.027910
  28 C :   -0.087626
  29 H :    0.044839
  30 H :    0.031588
  31 H :    0.048357
  32 H :    0.050929
  33 H :    0.055727
Sum of atomic charges:    0.0000000

LOEWDIN ATOMIC CHARGES
----------------------
   0 S :    0.419900
   1 C :   -0.205840
   2 C :   -0.064948
   3 C :   -0.082109
   4 C :   -0.194929
   5 H :    0.042114
   6 C :   -0.031614
   7 H :    0.020634
   8 H :    0.034213
   9 C :   -0.036375
  10 H :    0.026531
  11 H :    0.031243
  12 C :   -0.066593
  13 H :    0.022403
  14 H :    0.028154
  15 H :    0.019420
  16 S :    0.407285
  17 C :   -0.188648
  18 C :   -0.074121
  19 C :   -0.060131
  20 C :   -0.186319
  21 H :    0.030172
  22 C :   -0.040322
  23 H :    0.031808
  24 H :    0.041369
  25 C :   -0.057059
  26 H :    0.037244
  27 H :    0.029856
  28 C :   -0.083556
  29 H :    0.030009
  30 H :    0.025534
  31 H :    0.035436
  32 H :    0.029056
  33 H :    0.030183

  Mayer bond orders larger than 0.100000
B(  0-S ,  1-C ) :   1.1470 B(  0-S ,  4-C ) :   1.1732 B(  1-C ,  2-C ) :   1.5641
B(  1-C ,  4-C ) :   0.1165 B(  1-C , 32-H ) :   0.9714 B(  2-C ,  3-C ) :   1.3038
B(  2-C ,  6-C ) :   1.0057 B(  3-C ,  4-C ) :   1.5241 B(  3-C ,  5-H ) :   0.9782
B(  4-C , 20-C ) :   1.0616 B(  6-C ,  7-H ) :   0.9399 B(  6-C ,  8-H ) :   0.9489
B(  6-C ,  9-C ) :   1.0766 B(  9-C , 10-H ) :   0.9531 B(  9-C , 11-H ) :   0.9542
B(  9-C , 12-C ) :   1.0883 B( 12-C , 13-H ) :   0.9705 B( 12-C , 14-H ) :   0.9708
B( 12-C , 15-H ) :   0.9703 B( 16-S , 17-C ) :   1.1531 B( 16-S , 20-C ) :   1.1339
B( 17-C , 18-C ) :   1.6359 B( 17-C , 33-H ) :   0.9676 B( 18-C , 19-C ) :   1.1968
B( 18-C , 21-H ) :   0.9917 B( 19-C , 20-C ) :   1.6295 B( 19-C , 22-C ) :   1.0307
B( 22-C , 23-H ) :   0.9296 B( 22-C , 24-H ) :   0.9221 B( 22-C , 25-C ) :   1.0930
B( 25-C , 26-H ) :   0.9507 B( 25-C , 27-H ) :   0.9446 B( 25-C , 28-C ) :   1.0674
B( 28-C , 29-H ) :   0.9743 B( 28-C , 30-H ) :   0.9716 B( 28-C , 31-H ) :   0.9737

Dispersion correction           -0.014116740
FINAL SINGLE POINT ENERGY     -1339.864772705538

DIPOLE MOMENT
-------------
                                X             Y             Z
Electronic contribution:     23.28736      16.19526       6.15331
Nuclear contribution   :    -23.82708     -16.67010      -6.16640
                        -----------------------------------------
Total Dipole Moment    :     -0.53972      -0.47484      -0.01309
                        -----------------------------------------
Magnitude (a.u.)       :      0.71899
Magnitude (Debye)      :      1.82752

Rotational constants in cm-1:     0.018237     0.009123     0.006428
Rotational constants in MHz :   546.717067   273.512886   192.719611

                             ****ORCA TERMINATED NORMALLY****
TOTAL RUN TIME: 0 days 0 hours 0 minutes 30 seconds 356 msec
