                         Program Version 4.2.1 -  RELEASE  -
|  1> ! wB97X-D3 SP def2-SVP
|  2> %pal
|  3> nprocs 16
|  4> end
|  5>
|  6> * xyz 0 1
|  7> S 	 8.40023 	 -8.46367 	 64.165
|  8> C 	 6.78239 	 -8.23818 	 64.7793
|  9> C 	 6.29805 	 -9.47981 	 65.2137
| 10> C 	 7.1909 	 -10.5666 	 64.9538
| 11> C 	 8.3308 	 -10.2044 	 64.3006
| 12> H 	 7.19668 	 -11.6395 	 65.161
| 13> C 	 4.91118 	 -9.66334 	 65.8245
| 14> H 	 4.30754 	 -10.3991 	 65.1771
| 15> H 	 4.23991 	 -8.70867 	 65.8657
| 16> C 	 4.89456 	 -10.3195 	 67.1783
| 17> H 	 3.87808 	 -10.5269 	 67.6327
| 18> H 	 5.43854 	 -11.2453 	 67.194
| 19> C 	 5.58771 	 -9.30009 	 68.2534
| 20> H 	 5.65438 	 -9.75048 	 69.2385
| 21> H 	 6.55635 	 -9.06842 	 67.9196
| 22> H 	 5.0713 	 -8.32963 	 68.2266
| 23> S 	 11.0558 	 -10.4194 	 64.6505
| 24> C 	 11.9797 	 -11.5755 	 63.784
| 25> C 	 11.1393 	 -12.4117 	 63.1218
| 26> C 	 9.73296 	 -12.0891 	 63.218
| 27> C 	 9.55887 	 -10.9077 	 63.9561
| 28> H 	 11.6143 	 -13.1553 	 62.5269
| 29> C 	 8.68523 	 -12.921 	 62.5668
| 30> H 	 9.18657 	 -13.4039 	 61.7386
| 31> H 	 7.94643 	 -12.2258 	 62.0937
| 32> C 	 7.99441 	 -13.953 	 63.4882
| 33> H 	 7.06402 	 -13.5259 	 63.8768
| 34> H 	 8.5425 	 -14.1533 	 64.502
| 35> C 	 7.70294 	 -15.3017 	 62.9192
| 36> H 	 8.65012 	 -15.7767 	 62.6664
| 37> H 	 6.96803 	 -15.2562 	 62.2091
| 38> H 	 7.25134 	 -15.95 	 63.7339
| 39> H 	 6.2607 	 -7.28719 	 64.8647
| 40> H 	 13.0142 	 -11.8357 	 63.8876
| 41> *
| 42>
| 43>                          ****END OF INPUT****

CARTESIAN COORDINATES (ANGSTROEM)
---------------------------------
  S      8.400230   -8.463670   64.165000
  C      6.782390   -8.238180   64.779300
  C      6.298050   -9.479810   65.213700
  C      7.190900  -10.566600   64.953800
  C      8.330800  -10.204400   64.300600
  H      7.196680  -11.639500   65.161000
  C      4.911180   -9.663340   65.824500
  H      4.307540  -10.399100   65.177100
  H      4.239910   -8.708670   65.865700
  C      4.894560  -10.319500   67.178300
  H      3.878080  -10.526900   67.632700
  H      5.438540  -11.245300   67.194000
  C      5.587710   -9.300090   68.253400
  H      5.654380   -9.750480   69.238500
  H      6.556350   -9.068420   67.919600
  H      5.071300   -8.329630   68.226600
  S     11.055800  -10.419400   64.650500
  C     11.979700  -11.575500   63.784000
  C     11.139300  -12.411700   63.121800
  C      9.732960  -12.089100   63.218000
  C      9.558870  -10.907700   63.956100
  H     11.614300  -13.155300   62.526900
  C      8.685230  -12.921000   62.566800
  H      9.186570  -13.403900   61.738600
  H      7.946430  -12.225800   62.093700
  C      7.994410  -13.953000   63.488200
  H      7.064020  -13.525900   63.876800
  H      8.542500  -14.153300   64.502000
  C      7.702940  -15.301700   62.919200
  H      8.650120  -15.776700   62.666400
  H      6.968030  -15.256200   62.209100
  H      7.251340  -15.950000   63.733900
  H      6.260700   -7.287190   64.864700
  H     13.014200  -11.835700   63.887600

 Total Charge           Charge          ....    0
 Multiplicity           Mult            ....    1
 Number of Electrons    NEL             ....  134
 Basis Dimension        Dim             ....  322

ORBITAL ENERGIES
----------------

  NO   OCC          E(Eh)            E(eV)
   0   2.0000     -88.965271     -2420.8681
   1   2.0000     -88.962398     -2420.7899
   2   2.0000     -10.329110      -281.0694
   3   2.0000     -10.326417      -280.9961
   4   2.0000     -10.319704      -280.8134
   5   2.0000     -10.310932      -280.5747
   6   2.0000     -10.310505      -280.5631
   7   2.0000     -10.305607      -280.4298
   8   2.0000     -10.304770      -280.4070
   9   2.0000     -10.298259      -280.2299
  10   2.0000     -10.294182      -280.1189
  11   2.0000     -10.293094      -280.0893
  12   2.0000     -10.291587      -280.0483
  13   2.0000     -10.288630      -279.9679
  14   2.0000     -10.276193      -279.6294
  15   2.0000     -10.271179      -279.4930
  16   2.0000      -8.080983      -219.8947
  17   2.0000      -8.077598      -219.8026
  18   2.0000      -6.039489      -164.3429
  19   2.0000      -6.036019      -164.2484
  20   2.0000      -6.035190      -164.2259
  21   2.0000      -6.031956      -164.1379
  22   2.0000      -6.031817      -164.1341
  23   2.0000      -6.028468      -164.0430
  24   2.0000      -1.013820       -27.5875
  25   2.0000      -0.989734       -26.9320
  26   2.0000      -0.913283       -24.8517
  27   2.0000      -0.907452       -24.6930
  28   2.0000      -0.871542       -23.7159
  29   2.0000      -0.857777       -23.3413
  30   2.0000      -0.840602       -22.8739
  31   2.0000      -0.819059       -22.2877
  32   2.0000      -0.782333       -21.2884
  33   2.0000      -0.771296       -20.9880
  34   2.0000      -0.710536       -19.3347
  35   2.0000      -0.696622       -18.9560
  36   2.0000      -0.688491       -18.7348
  37   2.0000      -0.659966       -17.9586
  38   2.0000      -0.648302       -17.6412
  39   2.0000      -0.618365       -16.8266
  40   2.0000      -0.595219       -16.1967
  41   2.0000      -0.570733       -15.5304
  42   2.0000      -0.566349       -15.4111
  43   2.0000      -0.544846       -14.8260
  44   2.0000      -0.534981       -14.5576
  45   2.0000      -0.531981       -14.4759
  46   2.0000      -0.524871       -14.2825
  47   2.0000      -0.514800       -14.0084
  48   2.0000      -0.512827       -13.9547
  49   2.0000      -0.508368       -13.8334
  50   2.0000      -0.485812       -13.2196
  51   2.0000      -0.477182       -12.9848
  52   2.0000      -0.474597       -12.9144
  53   2.0000      -0.464543       -12.6408
  54   2.0000      -0.460086       -12.5196
  55   2.0000      -0.450606       -12.2616
  56   2.0000      -0.446373       -12.1464
  57   2.0000      -0.432925       -11.7805
  58   2.0000      -0.429391       -11.6843
  59   2.0000      -0.423197       -11.5158
  60   2.0000      -0.415956       -11.3187
  61   2.0000      -0.411065       -11.1857
  62   2.0000      -0.401555       -10.9269
  63   2.0000      -0.352801        -9.6002
  64   2.0000      -0.329223        -8.9586
  65   2.0000      -0.327405        -8.9091
  66   2.0000      -0.296980        -8.0812
  67   0.0000       0.032343         0.8801
  68   0.0000       0.068352         1.8599
  69   0.0000       0.118626         3.2280
  70   0.0000       0.124715         3.3937
  71   0.0000       0.128002         3.4831

MULLIKEN ATOMIC CHARGES
-----------------------
   0 S :    0.096014
   1 C :   -0.111157
   2 C :   -0.060635
   3 C :    0.045480
   4 C :   -0.182386
   5 H :    0.013532
   6 C :    0.007209
   7 H :    0.048457
   8 H :    0.042216
   9 C :   -0.100437
  10 H :    0.043853
  11 H :    0.032842
  12 C :   -0.059578
  13 H :    0.038755
  14 H :    0.026328
  15 H :    0.024560
  16 S :    0.123852
  17 C :   -0.080121
  18 C :   -0.046391
  19 C :   -0.047586
  20 C :   -0.149016
  21 H :    0.006008
  22 C :    0.098773
  23 H :    0.015802
  24 H :    0.046478
  25 C :   -0.133789
  26 H :    0.028175
  27 H :    0.046264
  28 C :   -0.012771
  29 H :    0.038062
  30 H :    0.018958
  31 H :    0.031359
  32 H :    0.057543
  33 H :    0.053345
Sum of atomic charges:    0.0000000

LOEWDIN ATOMIC CHARGES
----------------------
   0 S :    0.408565
   1 C :   -0.195839
   2 C :   -0.063815
   3 C :   -0.068420
   4 C :   -0.187403
   5 H :    0.037542
   6 C :   -0.046358
   7 H :    0.038978
   8 H :    0.038810
   9 C :   -0.043370
  10 H :    0.030371
  11 H :    0.017874
  12 C :   -0.065536
  13 H :    0.023211
  14 H :    0.015330
  15 H :    0.023943
  16 S :    0.434511
  17 C :   -0.199262
  18 C :   -0.071885
  19 C :   -0.053805
  20 C :   -0.218585
  21 H :    0.025521
  22 C :   -0.036545
  23 H :    0.029662
  24 H :    0.043058
  25 C :   -0.054483
  26 H :    0.019774
  27 H :    0.034504
  28 C :   -0.058543
  29 H :    0.026959
  30 H :    0.011326
  31 H :    0.036685
  32 H :    0.033991
  33 H :    0.033234

  Mayer bond orders larger than 0.100000
B(  0-S ,  1-C ) :   1.1464 B(  0-S ,  4-C ) :   1.1528 B(  1-C ,  2-C ) :   1.5904
B(  1-C ,  4-C ) :   0.1009 B(  1-C , 32-H ) :   0.9750 B(  2-C ,  3-C ) :   1.2013
B(  2-C ,  6-C ) :   1.0186 B(  3-C ,  4-C ) :   1.6077 B(  3-C ,  5-H ) :   0.9879
B(  4-C , 20-C ) :   1.0198 B(  6-C ,  7-H ) :   0.9417 B(  6-C ,  8-H ) :   0.9513
B(  6-C ,  9-C ) :   1.0665 B(  9-C , 10-H ) :   0.9602 B(  9-C , 11-H ) :   0.9575
B(  9-C , 12-C ) :   1.0568 B( 12-C , 13-H ) :   0.9785 B( 12-C , 14-H ) :   0.9794
B( 12-C , 15-H ) :   0.9762 B( 16-S , 17-C ) :   1.1532 B( 16-S , 20-C ) :   1.1646
B( 17-C , 18-C ) :   1.6204 B( 17-C , 33-H ) :   0.9659 B( 18-C , 19-C ) :   1.2467
B( 18-C , 21-H ) :   0.9926 B( 19-C , 20-C ) :   1.5605 B( 19-C , 22-C ) :   1.0599
B( 22-C , 23-H ) :   0.9422 B( 22-C , 24-H ) :   0.9249 B( 22-C , 25-C ) :   1.0212
B( 25-C , 26-H ) :   0.9433 B( 25-C , 27-H ) :   0.9668 B( 25-C , 28-C ) :   1.0992
B( 28-C , 29-H ) :   0.9739 B( 28-C , 30-H ) :   0.9734 B( 28-C , 31-H ) :   0.9686

Dispersion correction           -0.014492939
FINAL SINGLE POINT ENERGY     -1339.867603075051

DIPOLE MOMENT
-------------
                                X             Y             Z
Electronic contribution:     19.47311      16.24344      -6.48926
Nuclear contribution   :    -19.76376     -16.83276       6.49391
                        -----------------------------------------
Total Dipole Moment    :     -0.29065      -0.58932       0.00465
                        -----------------------------------------
Magnitude (a.u.)       :      0.65711
Magnitude (Debye)      :      1.67025

Rotational constants in cm-1:     0.017804     0.009136     0.006994
Rotational constants in MHz :   533.737256   273.894288   209.660872

                             ****ORCA TERMINATED NORMALLY****
TOTAL RUN TIME: 0 days 0 hours 0 minutes 35 seconds 40 msec
