                         Program Version 4.2.1 -  RELEASE  -
|  1> ! wB97X-D3 SP def2-SVP
|  2> %pal
|  3> nprocs 16
|  4> end
|  5>
|  6> * xyz 0 1
|  7> S 	 10.17 	 -7.51578 	 63.2436
|  8> C 	 8.56495 	 -7.10287 	 63.8353
|  9> C 	 8.11062 	 -8.11334 	 64.7105
| 10> C 	 9.09049 	 -9.16368 	 64.9558
| 11> C 	 10.1906 	 -9.04258 	 64.1257
| 12> H 	 9.05259 	 -9.9787 	 65.7034
| 13> C 	 6.76689 	 -8.01939 	 65.4435
| 14> H 	 6.43195 	 -9.04075 	 65.4996
| 15> H 	 6.04254 	 -7.50208 	 64.852
| 16> C 	 6.87931 	 -7.42752 	 66.8699
| 17> H 	 7.6006 	 -8.04649 	 67.3783
| 18> H 	 7.33349 	 -6.42306 	 66.9269
| 19> C 	 5.55961 	 -7.37426 	 67.6438
| 20> H 	 5.54274 	 -6.71667 	 68.4941
| 21> H 	 4.80288 	 -7.15322 	 66.8813
| 22> H 	 5.23026 	 -8.31788 	 68.1283
| 23> S 	 12.9516 	 -9.02403 	 64.1925
| 24> C 	 13.8713 	 -10.5314 	 64.243
| 25> C 	 12.9396 	 -11.6372 	 64.1763
| 26> C 	 11.5408 	 -11.2342 	 64.0123
| 27> C 	 11.3876 	 -9.84184 	 64.0982
| 28> H 	 13.3281 	 -12.6806 	 64.1334
| 29> C 	 10.3885 	 -12.1456 	 63.8953
| 30> H 	 9.50837 	 -11.6489 	 64.2208
| 31> H 	 10.4832 	 -13.0804 	 64.4436
| 32> C 	 10.1156 	 -12.5842 	 62.4149
| 33> H 	 11.0081 	 -13.0953 	 61.968
| 34> H 	 9.97107 	 -11.6089 	 61.919
| 35> C 	 8.86867 	 -13.4662 	 62.3531
| 36> H 	 8.81589 	 -13.9886 	 61.4128
| 37> H 	 7.91186 	 -12.9831 	 62.5868
| 38> H 	 8.84818 	 -14.2322 	 63.1529
| 39> H 	 8.14266 	 -6.12999 	 63.5088
| 40> H 	 14.9726 	 -10.6326 	 64.3626
| 41> *
| 42>
| 43>                          ****END OF INPUT****

CARTESIAN COORDINATES (ANGSTROEM)
---------------------------------
  S     10.170000   -7.515780   63.243600
  C      8.564950   -7.102870   63.835300
  C      8.110620   -8.113340   64.710500
  C      9.090490   -9.163680   64.955800
  C     10.190600   -9.042580   64.125700
  H      9.052590   -9.978700   65.703400
  C      6.766890   -8.019390   65.443500
  H      6.431950   -9.040750   65.499600
  H      6.042540   -7.502080   64.852000
  C      6.879310   -7.427520   66.869900
  H      7.600600   -8.046490   67.378300
  H      7.333490   -6.423060   66.926900
  C      5.559610   -7.374260   67.643800
  H      5.542740   -6.716670   68.494100
  H      4.802880   -7.153220   66.881300
  H      5.230260   -8.317880   68.128300
  S     12.951600   -9.024030   64.192500
  C     13.871300  -10.531400   64.243000
  C     12.939600  -11.637200   64.176300
  C     11.540800  -11.234200   64.012300
  C     11.387600   -9.841840   64.098200
  H     13.328100  -12.680600   64.133400
  C     10.388500  -12.145600   63.895300
  H      9.508370  -11.648900   64.220800
  H     10.483200  -13.080400   64.443600
  C     10.115600  -12.584200   62.414900
  H     11.008100  -13.095300   61.968000
  H      9.971070  -11.608900   61.919000
  C      8.868670  -13.466200   62.353100
  H      8.815890  -13.988600   61.412800
  H      7.911860  -12.983100   62.586800
  H      8.848180  -14.232200   63.152900
  H      8.142660   -6.129990   63.508800
  H     14.972600  -10.632600   64.362600

 Total Charge           Charge          ....    0
 Multiplicity           Mult            ....    1
 Number of Electrons    NEL             ....  134
 Basis Dimension        Dim             ....  322

ORBITAL ENERGIES
----------------

  NO   OCC          E(Eh)            E(eV)
   0   2.0000     -88.968097     -2420.9450
   1   2.0000     -88.964660     -2420.8515
   2   2.0000     -10.332412      -281.1592
   3   2.0000     -10.330843      -281.1165
   4   2.0000     -10.328345      -281.0485
   5   2.0000     -10.323640      -280.9205
   6   2.0000     -10.313011      -280.6313
   7   2.0000     -10.308697      -280.5139
   8   2.0000     -10.307908      -280.4924
   9   2.0000     -10.304733      -280.4060
  10   2.0000     -10.292046      -280.0608
  11   2.0000     -10.289358      -279.9877
  12   2.0000     -10.286862      -279.9198
  13   2.0000     -10.284707      -279.8611
  14   2.0000     -10.279069      -279.7077
  15   2.0000     -10.277881      -279.6754
  16   2.0000      -8.081965      -219.9214
  17   2.0000      -8.079353      -219.8504
  18   2.0000      -6.040616      -164.3735
  19   2.0000      -6.037845      -164.2981
  20   2.0000      -6.036436      -164.2598
  21   2.0000      -6.033814      -164.1884
  22   2.0000      -6.032754      -164.1596
  23   2.0000      -6.030179      -164.0895
  24   2.0000      -1.002471       -27.2786
  25   2.0000      -0.974360       -26.5137
  26   2.0000      -0.909761       -24.7558
  27   2.0000      -0.908394       -24.7187
  28   2.0000      -0.866470       -23.5779
  29   2.0000      -0.850839       -23.1525
  30   2.0000      -0.842637       -22.9293
  31   2.0000      -0.811359       -22.0782
  32   2.0000      -0.780010       -21.2252
  33   2.0000      -0.766469       -20.8567
  34   2.0000      -0.705224       -19.1901
  35   2.0000      -0.698436       -19.0054
  36   2.0000      -0.693321       -18.8662
  37   2.0000      -0.660463       -17.9721
  38   2.0000      -0.645341       -17.5606
  39   2.0000      -0.619110       -16.8468
  40   2.0000      -0.593777       -16.1575
  41   2.0000      -0.566666       -15.4198
  42   2.0000      -0.560507       -15.2522
  43   2.0000      -0.555554       -15.1174
  44   2.0000      -0.529561       -14.4101
  45   2.0000      -0.524032       -14.2596
  46   2.0000      -0.517098       -14.0710
  47   2.0000      -0.509857       -13.8739
  48   2.0000      -0.504752       -13.7350
  49   2.0000      -0.502302       -13.6683
  50   2.0000      -0.497856       -13.5473
  51   2.0000      -0.473609       -12.8876
  52   2.0000      -0.469202       -12.7676
  53   2.0000      -0.463570       -12.6144
  54   2.0000      -0.453345       -12.3362
  55   2.0000      -0.451966       -12.2986
  56   2.0000      -0.445408       -12.1202
  57   2.0000      -0.438602       -11.9350
  58   2.0000      -0.434025       -11.8104
  59   2.0000      -0.423682       -11.5290
  60   2.0000      -0.418000       -11.3744
  61   2.0000      -0.414433       -11.2773
  62   2.0000      -0.412141       -11.2149
  63   2.0000      -0.349810        -9.5188
  64   2.0000      -0.328961        -8.9515
  65   2.0000      -0.326632        -8.8881
  66   2.0000      -0.287737        -7.8297
  67   0.0000       0.022544         0.6134
  68   0.0000       0.067045         1.8244
  69   0.0000       0.106067         2.8862
  70   0.0000       0.111348         3.0299
  71   0.0000       0.130836         3.5602

MULLIKEN ATOMIC CHARGES
-----------------------
   0 S :    0.092025
   1 C :   -0.142101
   2 C :   -0.095472
   3 C :    0.023692
   4 C :   -0.161109
   5 H :    0.044761
   6 C :    0.087225
   7 H :    0.018849
   8 H :    0.016610
   9 C :   -0.068968
  10 H :    0.017458
  11 H :    0.033703
  12 C :   -0.041156
  13 H :    0.033382
  14 H :    0.028417
  15 H :    0.026925
  16 S :    0.109300
  17 C :   -0.121689
  18 C :   -0.049218
  19 C :   -0.027400
  20 C :   -0.147425
  21 H :    0.037701
  22 C :    0.076301
  23 H :   -0.002841
  24 H :    0.019820
  25 C :   -0.103514
  26 H :    0.040669
  27 H :    0.041390
  28 C :   -0.026015
  29 H :    0.037764
  30 H :    0.030397
  31 H :    0.014152
  32 H :    0.073663
  33 H :    0.082705
Sum of atomic charges:   -0.0000000

LOEWDIN ATOMIC CHARGES
----------------------
   0 S :    0.392787
   1 C :   -0.197973
   2 C :   -0.056227
   3 C :   -0.066521
   4 C :   -0.187940
   5 H :    0.040810
   6 C :   -0.027430
   7 H :    0.029196
   8 H :    0.023591
   9 C :   -0.042046
  10 H :    0.020371
  11 H :    0.029003
  12 C :   -0.070800
  13 H :    0.024952
  14 H :    0.026430
  15 H :    0.026672
  16 S :    0.398717
  17 C :   -0.195790
  18 C :   -0.072129
  19 C :   -0.053042
  20 C :   -0.200581
  21 H :    0.036085
  22 C :   -0.033993
  23 H :    0.022960
  24 H :    0.027770
  25 C :   -0.036300
  26 H :    0.027809
  27 H :    0.028995
  28 C :   -0.072225
  29 H :    0.025933
  30 H :    0.028275
  31 H :    0.024192
  32 H :    0.036619
  33 H :    0.041830

  Mayer bond orders larger than 0.100000
B(  0-S ,  1-C ) :   1.1377 B(  0-S ,  4-C ) :   1.1491 B(  1-C ,  2-C ) :   1.5895
B(  1-C , 32-H ) :   0.9720 B(  2-C ,  3-C ) :   1.2313 B(  2-C ,  6-C ) :   1.0324
B(  3-C ,  4-C ) :   1.5779 B(  3-C ,  5-H ) :   0.9766 B(  4-C , 20-C ) :   1.0612
B(  6-C ,  7-H ) :   0.9373 B(  6-C ,  8-H ) :   0.9401 B(  6-C ,  9-C ) :   1.0614
B(  9-C , 10-H ) :   0.9553 B(  9-C , 11-H ) :   0.9586 B(  9-C , 12-C ) :   1.0732
B( 12-C , 13-H ) :   0.9756 B( 12-C , 14-H ) :   0.9754 B( 12-C , 15-H ) :   0.9747
B( 16-S , 17-C ) :   1.1565 B( 16-S , 20-C ) :   1.1360 B( 17-C , 18-C ) :   1.5838
B( 17-C , 20-C ) :   0.1043 B( 17-C , 33-H ) :   0.9654 B( 18-C , 19-C ) :   1.2454
B( 18-C , 21-H ) :   0.9812 B( 19-C , 20-C ) :   1.5609 B( 19-C , 22-C ) :   1.0728
B( 22-C , 23-H ) :   0.9254 B( 22-C , 24-H ) :   0.9308 B( 22-C , 25-C ) :   1.0492
B( 25-C , 26-H ) :   0.9607 B( 25-C , 27-H ) :   0.9566 B( 25-C , 28-C ) :   1.0783
B( 28-C , 29-H ) :   0.9749 B( 28-C , 30-H ) :   0.9716 B( 28-C , 31-H ) :   0.9695

Dispersion correction           -0.013700166
FINAL SINGLE POINT ENERGY     -1339.882505451754

DIPOLE MOMENT
-------------
                                X             Y             Z
Electronic contribution:     23.55086      11.90623      -7.28350
Nuclear contribution   :    -23.93183     -12.26181       7.57449
                        -----------------------------------------
Total Dipole Moment    :     -0.38097      -0.35557       0.29099
                        -----------------------------------------
Magnitude (a.u.)       :      0.59686
Magnitude (Debye)      :      1.51711

Rotational constants in cm-1:     0.017961     0.008012     0.006590
Rotational constants in MHz :   538.452572   240.201691   197.557604

                             ****ORCA TERMINATED NORMALLY****
TOTAL RUN TIME: 0 days 0 hours 0 minutes 33 seconds 988 msec
