                         Program Version 4.2.1 -  RELEASE  -
|  1> ! wB97X-D3 SP def2-SVP
|  2> %pal
|  3> nprocs 16
|  4> end
|  5>
|  6> * xyz 0 1
|  7> S 	 -16.6876 	 40.8438 	 58.8796
|  8> C 	 -15.2299 	 41.1794 	 57.996
|  9> C 	 -15.449 	 41.3748 	 56.6294
| 10> C 	 -16.835 	 41.3992 	 56.3431
| 11> C 	 -17.6496 	 41.0499 	 57.4306
| 12> H 	 -17.2685 	 41.5629 	 55.3604
| 13> C 	 -14.4243 	 41.6766 	 55.6025
| 14> H 	 -14.8289 	 41.0495 	 54.7981
| 15> H 	 -13.3874 	 41.3129 	 55.7952
| 16> C 	 -14.3615 	 43.1243 	 55.1198
| 17> H 	 -13.7674 	 43.1359 	 54.2182
| 18> H 	 -15.3436 	 43.5357 	 54.8173
| 19> C 	 -13.7252 	 44.0841 	 56.2062
| 20> H 	 -12.7776 	 43.7036 	 56.581
| 21> H 	 -13.5486 	 45.1158 	 55.9558
| 22> H 	 -14.2983 	 44.0244 	 57.1487
| 23> S 	 -19.6752 	 42.3513 	 58.5209
| 24> C 	 -21.2984 	 41.6325 	 58.427
| 25> C 	 -21.4286 	 40.6612 	 57.4691
| 26> C 	 -20.1382 	 40.35 	 56.8921
| 27> C 	 -19.0898 	 41.0272 	 57.5228
| 28> H 	 -22.4241 	 40.272 	 57.1661
| 29> C 	 -19.9581 	 39.2693 	 55.8974
| 30> H 	 -20.5454 	 38.3532 	 56.2359
| 31> H 	 -18.8672 	 39.0429 	 55.9084
| 32> C 	 -20.2235 	 39.6796 	 54.3846
| 33> H 	 -19.6634 	 40.5595 	 54.2031
| 34> H 	 -21.1898 	 40.068 	 54.0453
| 35> C 	 -19.8523 	 38.6106 	 53.3197
| 36> H 	 -19.4401 	 39.109 	 52.4256
| 37> H 	 -20.5941 	 37.9539 	 53.0291
| 38> H 	 -19.0197 	 37.9956 	 53.6343
| 39> H 	 -14.2519 	 41.1764 	 58.4581
| 40> H 	 -22.0395 	 41.9824 	 59.1406
| 41> *
| 42>
| 43>                          ****END OF INPUT****

CARTESIAN COORDINATES (ANGSTROEM)
---------------------------------
  S    -16.687600   40.843800   58.879600
  C    -15.229900   41.179400   57.996000
  C    -15.449000   41.374800   56.629400
  C    -16.835000   41.399200   56.343100
  C    -17.649600   41.049900   57.430600
  H    -17.268500   41.562900   55.360400
  C    -14.424300   41.676600   55.602500
  H    -14.828900   41.049500   54.798100
  H    -13.387400   41.312900   55.795200
  C    -14.361500   43.124300   55.119800
  H    -13.767400   43.135900   54.218200
  H    -15.343600   43.535700   54.817300
  C    -13.725200   44.084100   56.206200
  H    -12.777600   43.703600   56.581000
  H    -13.548600   45.115800   55.955800
  H    -14.298300   44.024400   57.148700
  S    -19.675200   42.351300   58.520900
  C    -21.298400   41.632500   58.427000
  C    -21.428600   40.661200   57.469100
  C    -20.138200   40.350000   56.892100
  C    -19.089800   41.027200   57.522800
  H    -22.424100   40.272000   57.166100
  C    -19.958100   39.269300   55.897400
  H    -20.545400   38.353200   56.235900
  H    -18.867200   39.042900   55.908400
  C    -20.223500   39.679600   54.384600
  H    -19.663400   40.559500   54.203100
  H    -21.189800   40.068000   54.045300
  C    -19.852300   38.610600   53.319700
  H    -19.440100   39.109000   52.425600
  H    -20.594100   37.953900   53.029100
  H    -19.019700   37.995600   53.634300
  H    -14.251900   41.176400   58.458100
  H    -22.039500   41.982400   59.140600

 Total Charge           Charge          ....    0
 Multiplicity           Mult            ....    1
 Number of Electrons    NEL             ....  134
 Basis Dimension        Dim             ....  322

ORBITAL ENERGIES
----------------

  NO   OCC          E(Eh)            E(eV)
   0   2.0000     -88.967819     -2420.9374
   1   2.0000     -88.960145     -2420.7286
   2   2.0000     -10.328959      -281.0653
   3   2.0000     -10.324006      -280.9305
   4   2.0000     -10.317322      -280.7486
   5   2.0000     -10.313760      -280.6517
   6   2.0000     -10.305797      -280.4350
   7   2.0000     -10.300470      -280.2901
   8   2.0000     -10.299948      -280.2758
   9   2.0000     -10.298766      -280.2437
  10   2.0000     -10.296848      -280.1915
  11   2.0000     -10.295516      -280.1552
  12   2.0000     -10.293164      -280.0912
  13   2.0000     -10.288733      -279.9707
  14   2.0000     -10.276972      -279.6506
  15   2.0000     -10.272401      -279.5262
  16   2.0000      -8.082606      -219.9389
  17   2.0000      -8.075019      -219.7324
  18   2.0000      -6.040975      -164.3833
  19   2.0000      -6.037059      -164.2767
  20   2.0000      -6.033554      -164.1813
  21   2.0000      -6.033504      -164.1800
  22   2.0000      -6.029759      -164.0781
  23   2.0000      -6.025525      -163.9629
  24   2.0000      -1.006356       -27.3844
  25   2.0000      -0.981607       -26.7109
  26   2.0000      -0.914118       -24.8744
  27   2.0000      -0.900907       -24.5149
  28   2.0000      -0.867260       -23.5993
  29   2.0000      -0.850719       -23.1492
  30   2.0000      -0.846354       -23.0305
  31   2.0000      -0.810828       -22.0637
  32   2.0000      -0.782767       -21.3002
  33   2.0000      -0.768142       -20.9022
  34   2.0000      -0.712537       -19.3891
  35   2.0000      -0.704726       -19.1766
  36   2.0000      -0.693291       -18.8654
  37   2.0000      -0.661503       -18.0004
  38   2.0000      -0.641645       -17.4601
  39   2.0000      -0.621768       -16.9192
  40   2.0000      -0.593260       -16.1434
  41   2.0000      -0.565423       -15.3859
  42   2.0000      -0.556204       -15.1351
  43   2.0000      -0.549882       -14.9630
  44   2.0000      -0.535236       -14.5645
  45   2.0000      -0.520299       -14.1581
  46   2.0000      -0.517321       -14.0770
  47   2.0000      -0.511835       -13.9278
  48   2.0000      -0.505816       -13.7640
  49   2.0000      -0.492415       -13.3993
  50   2.0000      -0.484440       -13.1823
  51   2.0000      -0.478115       -13.0102
  52   2.0000      -0.469969       -12.7885
  53   2.0000      -0.459387       -12.5005
  54   2.0000      -0.458737       -12.4829
  55   2.0000      -0.454584       -12.3699
  56   2.0000      -0.445534       -12.1236
  57   2.0000      -0.441089       -12.0026
  58   2.0000      -0.433956       -11.8085
  59   2.0000      -0.426223       -11.5981
  60   2.0000      -0.424516       -11.5517
  61   2.0000      -0.414389       -11.2761
  62   2.0000      -0.413639       -11.2557
  63   2.0000      -0.341105        -9.2819
  64   2.0000      -0.325361        -8.8535
  65   2.0000      -0.324363        -8.8264
  66   2.0000      -0.296418        -8.0659
  67   0.0000       0.029545         0.8040
  68   0.0000       0.064348         1.7510
  69   0.0000       0.103579         2.8185
  70   0.0000       0.116910         3.1813
  71   0.0000       0.128301         3.4912

MULLIKEN ATOMIC CHARGES
-----------------------
   0 S :    0.128377
   1 C :   -0.123745
   2 C :   -0.073102
   3 C :    0.043147
   4 C :   -0.186157
   5 H :    0.012722
   6 C :    0.037787
   7 H :    0.031058
   8 H :    0.035376
   9 C :   -0.051237
  10 H :    0.029689
  11 H :    0.033462
  12 C :   -0.057227
  13 H :    0.008213
  14 H :    0.039937
  15 H :    0.035096
  16 S :    0.092919
  17 C :   -0.096579
  18 C :   -0.024389
  19 C :   -0.013421
  20 C :   -0.169494
  21 H :    0.038325
  22 C :    0.032392
  23 H :    0.049249
  24 H :    0.033787
  25 C :   -0.061318
  26 H :    0.006763
  27 H :    0.021608
  28 C :   -0.032105
  29 H :    0.028346
  30 H :    0.027573
  31 H :    0.015912
  32 H :    0.045842
  33 H :    0.061196
Sum of atomic charges:   -0.0000000

LOEWDIN ATOMIC CHARGES
----------------------
   0 S :    0.421562
   1 C :   -0.201247
   2 C :   -0.068074
   3 C :   -0.055805
   4 C :   -0.208262
   5 H :    0.030794
   6 C :   -0.037964
   7 H :    0.038286
   8 H :    0.035651
   9 C :   -0.033829
  10 H :    0.022502
  11 H :    0.026004
  12 C :   -0.073284
  13 H :    0.020011
  14 H :    0.023866
  15 H :    0.029794
  16 S :    0.385161
  17 C :   -0.166871
  18 C :   -0.071807
  19 C :   -0.056537
  20 C :   -0.199440
  21 H :    0.042727
  22 C :   -0.036146
  23 H :    0.038701
  24 H :    0.037759
  25 C :   -0.041958
  26 H :    0.017655
  27 H :    0.024587
  28 C :   -0.063517
  29 H :    0.032230
  30 H :    0.014120
  31 H :    0.022956
  32 H :    0.025496
  33 H :    0.024877

  Mayer bond orders larger than 0.100000
B(  0-S ,  1-C ) :   1.1552 B(  0-S ,  4-C ) :   1.1649 B(  1-C ,  2-C ) :   1.5732
B(  1-C ,  4-C ) :   0.1010 B(  1-C , 32-H ) :   0.9695 B(  2-C ,  3-C ) :   1.2572
B(  2-C ,  6-C ) :   1.0229 B(  3-C ,  4-C ) :   1.5528 B(  3-C ,  5-H ) :   0.9910
B(  4-C , 20-C ) :   1.0265 B(  6-C ,  7-H ) :   0.9282 B(  6-C ,  8-H ) :   0.9465
B(  6-C ,  9-C ) :   1.0796 B(  9-C , 10-H ) :   0.9556 B(  9-C , 11-H ) :   0.9566
B(  9-C , 12-C ) :   1.0578 B( 12-C , 13-H ) :   0.9729 B( 12-C , 14-H ) :   0.9789
B( 12-C , 15-H ) :   0.9758 B( 16-S , 17-C ) :   1.1396 B( 16-S , 20-C ) :   1.1434
B( 17-C , 18-C ) :   1.6342 B( 17-C , 33-H ) :   0.9681 B( 18-C , 19-C ) :   1.1909
B( 18-C , 21-H ) :   0.9894 B( 19-C , 20-C ) :   1.6106 B( 19-C , 22-C ) :   1.0712
B( 22-C , 23-H ) :   0.9424 B( 22-C , 24-H ) :   0.9273 B( 22-C , 25-C ) :   1.0426
B( 25-C , 26-H ) :   0.9544 B( 25-C , 27-H ) :   0.9576 B( 25-C , 28-C ) :   1.0797
B( 28-C , 29-H ) :   0.9753 B( 28-C , 30-H ) :   0.9802 B( 28-C , 31-H ) :   0.9732

Dispersion correction           -0.014321853
FINAL SINGLE POINT ENERGY     -1339.871490262732

DIPOLE MOMENT
-------------
                                X             Y             Z
Electronic contribution:     -8.17846       1.73442      23.37962
Nuclear contribution   :      8.25847      -1.81207     -23.92462
                        -----------------------------------------
Total Dipole Moment    :      0.08001      -0.07766      -0.54500
                        -----------------------------------------
Magnitude (a.u.)       :      0.55628
Magnitude (Debye)      :      1.41396

Rotational constants in cm-1:     0.017648     0.008806     0.006886
Rotational constants in MHz :   529.063544   264.000768   206.441261

                             ****ORCA TERMINATED NORMALLY****
TOTAL RUN TIME: 0 days 0 hours 0 minutes 34 seconds 679 msec
