                         Program Version 4.2.1 -  RELEASE  -
|  1> ! wB97X-D3 SP def2-SVP
|  2> %pal
|  3> nprocs 16
|  4> end
|  5>
|  6> * xyz 0 1
|  7> S 	 -16.2197 	 -6.18232 	 86.3622
|  8> C 	 -17.38 	 -5.34536 	 85.3413
|  9> C 	 -18.3093 	 -4.54103 	 86.0176
| 10> C 	 -17.9459 	 -4.56229 	 87.3939
| 11> C 	 -16.8213 	 -5.30247 	 87.7266
| 12> H 	 -18.412 	 -3.97395 	 88.1736
| 13> C 	 -19.6261 	 -3.89384 	 85.4595
| 14> H 	 -20.4251 	 -4.14977 	 86.1362
| 15> H 	 -19.804 	 -4.38076 	 84.5315
| 16> C 	 -19.5641 	 -2.32451 	 85.0668
| 17> H 	 -18.9078 	 -2.28039 	 84.2102
| 18> H 	 -20.5731 	 -2.05573 	 84.6906
| 19> C 	 -19.2448 	 -1.27573 	 86.1887
| 20> H 	 -19.4312 	 -0.268043 	 85.8389
| 21> H 	 -19.8306 	 -1.30052 	 87.0876
| 22> H 	 -18.1417 	 -1.34207 	 86.3632
| 23> S 	 -14.4761 	 -5.03346 	 89.0191
| 24> C 	 -14.3805 	 -5.25383 	 90.7964
| 25> C 	 -15.6442 	 -5.27739 	 91.3122
| 26> C 	 -16.6643 	 -5.52775 	 90.317
| 27> C 	 -16.1957 	 -5.31659 	 89.0215
| 28> H 	 -15.7225 	 -5.19563 	 92.3552
| 29> C 	 -18.1008 	 -5.73375 	 90.5912
| 30> H 	 -18.1048 	 -6.63263 	 91.1858
| 31> H 	 -18.6199 	 -5.95383 	 89.7125
| 32> C 	 -18.8339 	 -4.57127 	 91.2273
| 33> H 	 -18.6473 	 -3.65859 	 90.6193
| 34> H 	 -18.3421 	 -4.40636 	 92.2216
| 35> C 	 -20.3362 	 -4.90112 	 91.6127
| 36> H 	 -20.8192 	 -3.88105 	 91.7945
| 37> H 	 -20.4118 	 -5.56818 	 92.4745
| 38> H 	 -20.9023 	 -5.48413 	 90.8518
| 39> H 	 -17.5768 	 -5.53103 	 84.2843
| 40> H 	 -13.5722 	 -5.24076 	 91.4324
| 41> *
| 42>
| 43>                          ****END OF INPUT****

CARTESIAN COORDINATES (ANGSTROEM)
---------------------------------
  S    -16.219700   -6.182320   86.362200
  C    -17.380000   -5.345360   85.341300
  C    -18.309300   -4.541030   86.017600
  C    -17.945900   -4.562290   87.393900
  C    -16.821300   -5.302470   87.726600
  H    -18.412000   -3.973950   88.173600
  C    -19.626100   -3.893840   85.459500
  H    -20.425100   -4.149770   86.136200
  H    -19.804000   -4.380760   84.531500
  C    -19.564100   -2.324510   85.066800
  H    -18.907800   -2.280390   84.210200
  H    -20.573100   -2.055730   84.690600
  C    -19.244800   -1.275730   86.188700
  H    -19.431200   -0.268043   85.838900
  H    -19.830600   -1.300520   87.087600
  H    -18.141700   -1.342070   86.363200
  S    -14.476100   -5.033460   89.019100
  C    -14.380500   -5.253830   90.796400
  C    -15.644200   -5.277390   91.312200
  C    -16.664300   -5.527750   90.317000
  C    -16.195700   -5.316590   89.021500
  H    -15.722500   -5.195630   92.355200
  C    -18.100800   -5.733750   90.591200
  H    -18.104800   -6.632630   91.185800
  H    -18.619900   -5.953830   89.712500
  C    -18.833900   -4.571270   91.227300
  H    -18.647300   -3.658590   90.619300
  H    -18.342100   -4.406360   92.221600
  C    -20.336200   -4.901120   91.612700
  H    -20.819200   -3.881050   91.794500
  H    -20.411800   -5.568180   92.474500
  H    -20.902300   -5.484130   90.851800
  H    -17.576800   -5.531030   84.284300
  H    -13.572200   -5.240760   91.432400

 Total Charge           Charge          ....    0
 Multiplicity           Mult            ....    1
 Number of Electrons    NEL             ....  134
 Basis Dimension        Dim             ....  322

ORBITAL ENERGIES
----------------

  NO   OCC          E(Eh)            E(eV)
   0   2.0000     -88.972619     -2421.0680
   1   2.0000     -88.960180     -2420.7296
   2   2.0000     -10.324596      -280.9465
   3   2.0000     -10.322197      -280.8813
   4   2.0000     -10.317162      -280.7442
   5   2.0000     -10.310935      -280.5748
   6   2.0000     -10.306339      -280.4497
   7   2.0000     -10.302639      -280.3491
   8   2.0000     -10.299781      -280.2713
   9   2.0000     -10.299200      -280.2555
  10   2.0000     -10.294792      -280.1355
  11   2.0000     -10.291944      -280.0580
  12   2.0000     -10.291580      -280.0481
  13   2.0000     -10.290253      -280.0120
  14   2.0000     -10.281729      -279.7801
  15   2.0000     -10.276533      -279.6387
  16   2.0000      -8.087077      -220.0605
  17   2.0000      -8.074567      -219.7201
  18   2.0000      -6.045538      -164.5075
  19   2.0000      -6.041687      -164.4027
  20   2.0000      -6.037826      -164.2976
  21   2.0000      -6.033233      -164.1726
  22   2.0000      -6.029182      -164.0624
  23   2.0000      -6.025104      -163.9514
  24   2.0000      -1.007087       -27.4042
  25   2.0000      -0.980849       -26.6903
  26   2.0000      -0.909802       -24.7570
  27   2.0000      -0.899164       -24.4675
  28   2.0000      -0.869711       -23.6660
  29   2.0000      -0.848281       -23.0829
  30   2.0000      -0.840332       -22.8666
  31   2.0000      -0.815827       -22.1998
  32   2.0000      -0.786559       -21.4034
  33   2.0000      -0.769345       -20.9349
  34   2.0000      -0.706200       -19.2167
  35   2.0000      -0.702645       -19.1199
  36   2.0000      -0.698795       -19.0152
  37   2.0000      -0.661874       -18.0105
  38   2.0000      -0.637257       -17.3406
  39   2.0000      -0.617284       -16.7971
  40   2.0000      -0.594450       -16.1758
  41   2.0000      -0.570816       -15.5327
  42   2.0000      -0.564900       -15.3717
  43   2.0000      -0.545694       -14.8491
  44   2.0000      -0.533136       -14.5074
  45   2.0000      -0.526752       -14.3337
  46   2.0000      -0.519369       -14.1328
  47   2.0000      -0.511878       -13.9289
  48   2.0000      -0.506901       -13.7935
  49   2.0000      -0.490122       -13.3369
  50   2.0000      -0.486821       -13.2471
  51   2.0000      -0.476116       -12.9558
  52   2.0000      -0.470989       -12.8163
  53   2.0000      -0.465293       -12.6613
  54   2.0000      -0.460843       -12.5402
  55   2.0000      -0.448897       -12.2151
  56   2.0000      -0.443721       -12.0743
  57   2.0000      -0.441237       -12.0067
  58   2.0000      -0.437592       -11.9075
  59   2.0000      -0.429241       -11.6802
  60   2.0000      -0.416704       -11.3391
  61   2.0000      -0.415495       -11.3062
  62   2.0000      -0.410862       -11.1801
  63   2.0000      -0.344598        -9.3770
  64   2.0000      -0.333647        -9.0790
  65   2.0000      -0.324206        -8.8221
  66   2.0000      -0.289806        -7.8860
  67   0.0000       0.029638         0.8065
  68   0.0000       0.072093         1.9617
  69   0.0000       0.105907         2.8819
  70   0.0000       0.111832         3.0431
  71   0.0000       0.131382         3.5751

MULLIKEN ATOMIC CHARGES
-----------------------
   0 S :    0.145491
   1 C :   -0.121554
   2 C :   -0.097468
   3 C :    0.022221
   4 C :   -0.157826
   5 H :   -0.000204
   6 C :    0.088595
   7 H :    0.037511
   8 H :    0.011942
   9 C :   -0.083059
  10 H :    0.032615
  11 H :    0.032346
  12 C :   -0.056972
  13 H :    0.027566
  14 H :    0.033023
  15 H :    0.052323
  16 S :    0.090819
  17 C :   -0.054731
  18 C :   -0.029549
  19 C :   -0.041327
  20 C :   -0.150685
  21 H :    0.005286
  22 C :    0.099364
  23 H :    0.018998
  24 H :    0.002453
  25 C :   -0.104543
  26 H :    0.044233
  27 H :    0.030685
  28 C :   -0.067075
  29 H :    0.054723
  30 H :    0.036713
  31 H :    0.033392
  32 H :    0.042851
  33 H :    0.021842
Sum of atomic charges:   -0.0000000

LOEWDIN ATOMIC CHARGES
----------------------
   0 S :    0.422733
   1 C :   -0.198922
   2 C :   -0.063136
   3 C :   -0.057712
   4 C :   -0.211634
   5 H :    0.026907
   6 C :   -0.019464
   7 H :    0.030590
   8 H :    0.026629
   9 C :   -0.034109
  10 H :    0.023674
  11 H :    0.024875
  12 C :   -0.073444
  13 H :    0.026616
  14 H :    0.022955
  15 H :    0.034734
  16 S :    0.383792
  17 C :   -0.158696
  18 C :   -0.059615
  19 C :   -0.055125
  20 C :   -0.196228
  21 H :    0.023483
  22 C :   -0.037433
  23 H :    0.031123
  24 H :    0.019758
  25 C :   -0.041718
  26 H :    0.025977
  27 H :    0.027036
  28 C :   -0.074060
  29 H :    0.038251
  30 H :    0.026432
  31 H :    0.024640
  32 H :    0.026284
  33 H :    0.014807

  Mayer bond orders larger than 0.100000
B(  0-S ,  1-C ) :   1.1491 B(  0-S ,  4-C ) :   1.1455 B(  1-C ,  2-C ) :   1.6152
B(  1-C , 32-H ) :   0.9560 B(  2-C ,  3-C ) :   1.2529 B(  2-C ,  6-C ) :   1.0041
B(  3-C ,  4-C ) :   1.5602 B(  3-C ,  5-H ) :   0.9933 B(  4-C , 20-C ) :   1.0553
B(  6-C ,  7-H ) :   0.9515 B(  6-C ,  8-H ) :   0.9377 B(  6-C ,  9-C ) :   1.0613
B(  9-C , 10-H ) :   0.9602 B(  9-C , 11-H ) :   0.9600 B(  9-C , 12-C ) :   1.0719
B( 12-C , 13-H ) :   0.9736 B( 12-C , 14-H ) :   0.9768 B( 12-C , 15-H ) :   0.9761
B( 16-S , 17-C ) :   1.1263 B( 16-S , 20-C ) :   1.1283 B( 17-C , 18-C ) :   1.6587
B( 17-C , 33-H ) :   0.9746 B( 18-C , 19-C ) :   1.1906 B( 18-C , 21-H ) :   0.9929
B( 19-C , 20-C ) :   1.6042 B( 19-C , 22-C ) :   1.0672 B( 22-C , 23-H ) :   0.9179
B( 22-C , 24-H ) :   0.9233 B( 22-C , 25-C ) :   1.0628 B( 25-C , 26-H ) :   0.9572
B( 25-C , 27-H ) :   0.9527 B( 25-C , 28-C ) :   1.0599 B( 28-C , 29-H ) :   0.9757
B( 28-C , 30-H ) :   0.9760 B( 28-C , 31-H ) :   0.9776

Dispersion correction           -0.014332976
FINAL SINGLE POINT ENERGY     -1339.861128432584

DIPOLE MOMENT
-------------
                                X             Y             Z
Electronic contribution:     25.66735     -13.69495      -4.93764
Nuclear contribution   :    -26.36428      13.94595       5.12184
                        -----------------------------------------
Total Dipole Moment    :     -0.69693       0.25100       0.18419
                        -----------------------------------------
Magnitude (a.u.)       :      0.76331
Magnitude (Debye)      :      1.94017

Rotational constants in cm-1:     0.015990     0.009583     0.007147
Rotational constants in MHz :   479.369352   287.290059   214.256254

                             ****ORCA TERMINATED NORMALLY****
TOTAL RUN TIME: 0 days 0 hours 0 minutes 34 seconds 742 msec
