                         Program Version 4.2.1 -  RELEASE  -
|  1> ! wB97X-D3 SP def2-SVP
|  2> %pal
|  3> nprocs 16
|  4> end
|  5>
|  6> * xyz 0 1
|  7> S 	 -36.8329 	 25.8202 	 78.9622
|  8> C 	 -37.9937 	 25.6551 	 80.2784
|  9> C 	 -38.143 	 24.3338 	 80.6366
| 10> C 	 -37.3325 	 23.4668 	 79.7691
| 11> C 	 -36.5862 	 24.0545 	 78.7524
| 12> H 	 -37.4217 	 22.3838 	 79.8649
| 13> C 	 -39.0628 	 23.8166 	 81.6616
| 14> H 	 -40.0688 	 23.7165 	 81.246
| 15> H 	 -39.2139 	 24.5465 	 82.3997
| 16> C 	 -38.5805 	 22.482 	 82.3493
| 17> H 	 -39.3477 	 22.1272 	 82.9479
| 18> H 	 -38.4629 	 21.6836 	 81.6625
| 19> C 	 -37.3899 	 22.6684 	 83.3794
| 20> H 	 -37.8272 	 23.2762 	 84.1853
| 21> H 	 -37.0475 	 21.8009 	 83.9428
| 22> H 	 -36.4731 	 23.2002 	 82.9915
| 23> S 	 -34.2706 	 24.37 	 77.4107
| 24> C 	 -33.7808 	 23.1803 	 76.2184
| 25> C 	 -34.5857 	 22.1012 	 76.1958
| 26> C 	 -35.6836 	 22.2171 	 77.1229
| 27> C 	 -35.7142 	 23.5283 	 77.7164
| 28> H 	 -34.4384 	 21.2158 	 75.52
| 29> C 	 -36.7791 	 21.2449 	 77.1474
| 30> H 	 -36.8303 	 20.8871 	 78.1935
| 31> H 	 -36.3687 	 20.4081 	 76.6182
| 32> C 	 -38.1745 	 21.5949 	 76.7264
| 33> H 	 -38.238 	 22.0099 	 75.7471
| 34> H 	 -38.629 	 22.2784 	 77.4342
| 35> C 	 -39.2089 	 20.3223 	 76.7144
| 36> H 	 -40.2304 	 20.7261 	 76.7163
| 37> H 	 -39.0801 	 19.6 	 77.5392
| 38> H 	 -39.2478 	 19.7904 	 75.7549
| 39> H 	 -38.5661 	 26.4824 	 80.7177
| 40> H 	 -32.8696 	 23.2346 	 75.5633
| 41> *
| 42>
| 43>                          ****END OF INPUT****

CARTESIAN COORDINATES (ANGSTROEM)
---------------------------------
  S    -36.832900   25.820200   78.962200
  C    -37.993700   25.655100   80.278400
  C    -38.143000   24.333800   80.636600
  C    -37.332500   23.466800   79.769100
  C    -36.586200   24.054500   78.752400
  H    -37.421700   22.383800   79.864900
  C    -39.062800   23.816600   81.661600
  H    -40.068800   23.716500   81.246000
  H    -39.213900   24.546500   82.399700
  C    -38.580500   22.482000   82.349300
  H    -39.347700   22.127200   82.947900
  H    -38.462900   21.683600   81.662500
  C    -37.389900   22.668400   83.379400
  H    -37.827200   23.276200   84.185300
  H    -37.047500   21.800900   83.942800
  H    -36.473100   23.200200   82.991500
  S    -34.270600   24.370000   77.410700
  C    -33.780800   23.180300   76.218400
  C    -34.585700   22.101200   76.195800
  C    -35.683600   22.217100   77.122900
  C    -35.714200   23.528300   77.716400
  H    -34.438400   21.215800   75.520000
  C    -36.779100   21.244900   77.147400
  H    -36.830300   20.887100   78.193500
  H    -36.368700   20.408100   76.618200
  C    -38.174500   21.594900   76.726400
  H    -38.238000   22.009900   75.747100
  H    -38.629000   22.278400   77.434200
  C    -39.208900   20.322300   76.714400
  H    -40.230400   20.726100   76.716300
  H    -39.080100   19.600000   77.539200
  H    -39.247800   19.790400   75.754900
  H    -38.566100   26.482400   80.717700
  H    -32.869600   23.234600   75.563300

 Total Charge           Charge          ....    0
 Multiplicity           Mult            ....    1
 Number of Electrons    NEL             ....  134
 Basis Dimension        Dim             ....  322

ORBITAL ENERGIES
----------------

  NO   OCC          E(Eh)            E(eV)
   0   2.0000     -88.968968     -2420.9687
   1   2.0000     -88.960558     -2420.7399
   2   2.0000     -10.336468      -281.2696
   3   2.0000     -10.328869      -281.0628
   4   2.0000     -10.317888      -280.7640
   5   2.0000     -10.315881      -280.7094
   6   2.0000     -10.304756      -280.4067
   7   2.0000     -10.301625      -280.3215
   8   2.0000     -10.297617      -280.2124
   9   2.0000     -10.297370      -280.2057
  10   2.0000     -10.292281      -280.0672
  11   2.0000     -10.288307      -279.9591
  12   2.0000     -10.287543      -279.9383
  13   2.0000     -10.285981      -279.8958
  14   2.0000     -10.284966      -279.8681
  15   2.0000     -10.284643      -279.8594
  16   2.0000      -8.084439      -219.9888
  17   2.0000      -8.074592      -219.7208
  18   2.0000      -6.042926      -164.4364
  19   2.0000      -6.038821      -164.3247
  20   2.0000      -6.035180      -164.2256
  21   2.0000      -6.033315      -164.1748
  22   2.0000      -6.029142      -164.0613
  23   2.0000      -6.025206      -163.9542
  24   2.0000      -1.008007       -27.4293
  25   2.0000      -0.980699       -26.6862
  26   2.0000      -0.911948       -24.8154
  27   2.0000      -0.909572       -24.7507
  28   2.0000      -0.872284       -23.7361
  29   2.0000      -0.845514       -23.0076
  30   2.0000      -0.836730       -22.7686
  31   2.0000      -0.817148       -22.2357
  32   2.0000      -0.781496       -21.2656
  33   2.0000      -0.768951       -20.9242
  34   2.0000      -0.720335       -19.6013
  35   2.0000      -0.708463       -19.2783
  36   2.0000      -0.688977       -18.7480
  37   2.0000      -0.660847       -17.9826
  38   2.0000      -0.637160       -17.3380
  39   2.0000      -0.622921       -16.9506
  40   2.0000      -0.595375       -16.2010
  41   2.0000      -0.566078       -15.4038
  42   2.0000      -0.559282       -15.2188
  43   2.0000      -0.553034       -15.0488
  44   2.0000      -0.531523       -14.4635
  45   2.0000      -0.523733       -14.2515
  46   2.0000      -0.513220       -13.9654
  47   2.0000      -0.511553       -13.9201
  48   2.0000      -0.504366       -13.7245
  49   2.0000      -0.500536       -13.6203
  50   2.0000      -0.489411       -13.3176
  51   2.0000      -0.479285       -13.0420
  52   2.0000      -0.468602       -12.7513
  53   2.0000      -0.461903       -12.5690
  54   2.0000      -0.456476       -12.4213
  55   2.0000      -0.452128       -12.3030
  56   2.0000      -0.446536       -12.1509
  57   2.0000      -0.442138       -12.0312
  58   2.0000      -0.435825       -11.8594
  59   2.0000      -0.427471       -11.6321
  60   2.0000      -0.419177       -11.4064
  61   2.0000      -0.415708       -11.3120
  62   2.0000      -0.406048       -11.0491
  63   2.0000      -0.360348        -9.8056
  64   2.0000      -0.330713        -8.9992
  65   2.0000      -0.322249        -8.7688
  66   2.0000      -0.283828        -7.7233
  67   0.0000       0.019621         0.5339
  68   0.0000       0.079035         2.1506
  69   0.0000       0.107171         2.9163
  70   0.0000       0.118873         3.2347
  71   0.0000       0.136777         3.7219

MULLIKEN ATOMIC CHARGES
-----------------------
   0 S :    0.077261
   1 C :   -0.125517
   2 C :   -0.099418
   3 C :    0.014148
   4 C :   -0.126652
   5 H :   -0.000442
   6 C :    0.084544
   7 H :    0.044760
   8 H :    0.001651
   9 C :   -0.039128
  10 H :    0.006016
  11 H :    0.021201
  12 C :   -0.082943
  13 H :    0.025014
  14 H :    0.036379
  15 H :    0.057483
  16 S :    0.119962
  17 C :   -0.094966
  18 C :   -0.043178
  19 C :   -0.072403
  20 C :   -0.119981
  21 H :    0.040080
  22 C :    0.077783
  23 H :    0.024917
  24 H :   -0.000117
  25 C :   -0.029030
  26 H :    0.028391
  27 H :    0.039156
  28 C :   -0.094267
  29 H :    0.030382
  30 H :    0.039682
  31 H :    0.033359
  32 H :    0.056019
  33 H :    0.069854
Sum of atomic charges:   -0.0000000

LOEWDIN ATOMIC CHARGES
----------------------
   0 S :    0.370250
   1 C :   -0.193116
   2 C :   -0.066299
   3 C :   -0.068840
   4 C :   -0.177385
   5 H :    0.024477
   6 C :   -0.027344
   7 H :    0.040180
   8 H :    0.024538
   9 C :   -0.030221
  10 H :    0.018417
  11 H :    0.015099
  12 C :   -0.073408
  13 H :    0.026308
  14 H :    0.026440
  15 H :    0.032976
  16 S :    0.435487
  17 C :   -0.194940
  18 C :   -0.076504
  19 C :   -0.053916
  20 C :   -0.215720
  21 H :    0.043583
  22 C :   -0.045680
  23 H :    0.035640
  24 H :    0.027537
  25 C :   -0.026092
  26 H :    0.022800
  27 H :    0.026151
  28 C :   -0.073830
  29 H :    0.027816
  30 H :    0.024206
  31 H :    0.024331
  32 H :    0.035157
  33 H :    0.041903

  Mayer bond orders larger than 0.100000
B(  0-S ,  1-C ) :   1.1280 B(  0-S ,  4-C ) :   1.1284 B(  1-C ,  2-C ) :   1.6219
B(  1-C , 32-H ) :   0.9666 B(  2-C ,  3-C ) :   1.2330 B(  2-C ,  6-C ) :   1.0337
B(  3-C ,  4-C ) :   1.5755 B(  3-C ,  5-H ) :   0.9877 B(  4-C , 20-C ) :   1.0710
B(  6-C ,  7-H ) :   0.9277 B(  6-C ,  8-H ) :   0.9342 B(  6-C ,  9-C ) :   1.0792
B(  9-C , 10-H ) :   0.9496 B(  9-C , 11-H ) :   0.9574 B(  9-C , 12-C ) :   1.0566
B( 12-C , 13-H ) :   0.9752 B( 12-C , 14-H ) :   0.9777 B( 12-C , 15-H ) :   0.9803
B( 16-S , 17-C ) :   1.1470 B( 16-S , 20-C ) :   1.1679 B( 17-C , 18-C ) :   1.6170
B( 17-C , 33-H ) :   0.9575 B( 18-C , 19-C ) :   1.2654 B( 18-C , 21-H ) :   0.9771
B( 19-C , 20-C ) :   1.5202 B( 19-C , 22-C ) :   1.0752 B( 22-C , 23-H ) :   0.9049
B( 22-C , 24-H ) :   0.9259 B( 22-C , 25-C ) :   1.0746 B( 25-C , 26-H ) :   0.9579
B( 25-C , 27-H ) :   0.9505 B( 25-C , 28-C ) :   1.0647 B( 28-C , 29-H ) :   0.9778
B( 28-C , 30-H ) :   0.9793 B( 28-C , 31-H ) :   0.9792

Dispersion correction           -0.014436224
FINAL SINGLE POINT ENERGY     -1339.865195455027

DIPOLE MOMENT
-------------
                                X             Y             Z
Electronic contribution:     17.54311      20.19304     -10.59104
Nuclear contribution   :    -18.00545     -20.80925      10.75982
                        -----------------------------------------
Total Dipole Moment    :     -0.46235      -0.61622       0.16877
                        -----------------------------------------
Magnitude (a.u.)       :      0.78865
Magnitude (Debye)      :      2.00459

Rotational constants in cm-1:     0.016619     0.009581     0.007419
Rotational constants in MHz :   498.222351   287.245298   222.425748

                             ****ORCA TERMINATED NORMALLY****
TOTAL RUN TIME: 0 days 0 hours 0 minutes 30 seconds 500 msec
