                         Program Version 4.2.1 -  RELEASE  -
|  1> ! wB97X-D3 SP def2-SVP
|  2> %pal
|  3> nprocs 16
|  4> end
|  5>
|  6> * xyz 0 1
|  7> S 	 -17.2326 	 55.2319 	 62.8234
|  8> C 	 -16.2901 	 53.8344 	 62.3642
|  9> C 	 -14.9477 	 54.0801 	 62.5452
| 10> C 	 -14.6271 	 55.2101 	 63.3571
| 11> C 	 -15.7869 	 56.0161 	 63.4762
| 12> H 	 -13.7413 	 55.6669 	 63.6272
| 13> C 	 -13.9032 	 53.1071 	 62.0026
| 14> H 	 -12.9573 	 53.6145 	 61.8519
| 15> H 	 -14.243 	 52.754 	 60.9625
| 16> C 	 -13.6349 	 51.8795 	 62.8955
| 17> H 	 -13.3705 	 52.2422 	 63.8632
| 18> H 	 -14.4835 	 51.2698 	 62.8739
| 19> C 	 -12.4802 	 51.0699 	 62.3317
| 20> H 	 -12.5063 	 50.8955 	 61.237
| 21> H 	 -11.6165 	 51.7126 	 62.4495
| 22> H 	 -12.4726 	 50.1254 	 62.83
| 23> S 	 -16.5348 	 58.6745 	 62.9792
| 24> C 	 -16.198 	 59.8183 	 64.2519
| 25> C 	 -15.5866 	 59.2491 	 65.375
| 26> C 	 -15.4788 	 57.8373 	 65.2212
| 27> C 	 -15.8606 	 57.3663 	 64.023
| 28> H 	 -15.1061 	 59.8187 	 66.165
| 29> C 	 -14.7305 	 57.0596 	 66.3389
| 30> H 	 -14.6121 	 56.0151 	 66.0793
| 31> H 	 -15.3935 	 56.9242 	 67.0981
| 32> C 	 -13.4483 	 57.6449 	 66.9536
| 33> H 	 -13.6519 	 58.5816 	 67.4172
| 34> H 	 -12.7388 	 57.859 	 66.1165
| 35> C 	 -12.7945 	 56.7305 	 67.9329
| 36> H 	 -11.7992 	 57.0501 	 68.2408
| 37> H 	 -12.5876 	 55.7546 	 67.4073
| 38> H 	 -13.3605 	 56.5435 	 68.9043
| 39> H 	 -16.6701 	 53.1836 	 61.5979
| 40> H 	 -16.4444 	 60.8655 	 64.1388
| 41> *
| 42>
| 43>                          ****END OF INPUT****

CARTESIAN COORDINATES (ANGSTROEM)
---------------------------------
  S    -17.232600   55.231900   62.823400
  C    -16.290100   53.834400   62.364200
  C    -14.947700   54.080100   62.545200
  C    -14.627100   55.210100   63.357100
  C    -15.786900   56.016100   63.476200
  H    -13.741300   55.666900   63.627200
  C    -13.903200   53.107100   62.002600
  H    -12.957300   53.614500   61.851900
  H    -14.243000   52.754000   60.962500
  C    -13.634900   51.879500   62.895500
  H    -13.370500   52.242200   63.863200
  H    -14.483500   51.269800   62.873900
  C    -12.480200   51.069900   62.331700
  H    -12.506300   50.895500   61.237000
  H    -11.616500   51.712600   62.449500
  H    -12.472600   50.125400   62.830000
  S    -16.534800   58.674500   62.979200
  C    -16.198000   59.818300   64.251900
  C    -15.586600   59.249100   65.375000
  C    -15.478800   57.837300   65.221200
  C    -15.860600   57.366300   64.023000
  H    -15.106100   59.818700   66.165000
  C    -14.730500   57.059600   66.338900
  H    -14.612100   56.015100   66.079300
  H    -15.393500   56.924200   67.098100
  C    -13.448300   57.644900   66.953600
  H    -13.651900   58.581600   67.417200
  H    -12.738800   57.859000   66.116500
  C    -12.794500   56.730500   67.932900
  H    -11.799200   57.050100   68.240800
  H    -12.587600   55.754600   67.407300
  H    -13.360500   56.543500   68.904300
  H    -16.670100   53.183600   61.597900
  H    -16.444400   60.865500   64.138800

 Total Charge           Charge          ....    0
 Multiplicity           Mult            ....    1
 Number of Electrons    NEL             ....  134
 Basis Dimension        Dim             ....  322

ORBITAL ENERGIES
----------------

  NO   OCC          E(Eh)            E(eV)
   0   2.0000     -88.966966     -2420.9142
   1   2.0000     -88.964655     -2420.8513
   2   2.0000     -10.333491      -281.1886
   3   2.0000     -10.324441      -280.9423
   4   2.0000     -10.322055      -280.8774
   5   2.0000     -10.306694      -280.4594
   6   2.0000     -10.303211      -280.3646
   7   2.0000     -10.301503      -280.3182
   8   2.0000     -10.295901      -280.1657
   9   2.0000     -10.294908      -280.1387
  10   2.0000     -10.293632      -280.1040
  11   2.0000     -10.289233      -279.9843
  12   2.0000     -10.287445      -279.9356
  13   2.0000     -10.283275      -279.8221
  14   2.0000     -10.276409      -279.6353
  15   2.0000     -10.274014      -279.5701
  16   2.0000      -8.081263      -219.9024
  17   2.0000      -8.079240      -219.8473
  18   2.0000      -6.039778      -164.3507
  19   2.0000      -6.037690      -164.2939
  20   2.0000      -6.035980      -164.2474
  21   2.0000      -6.033758      -164.1869
  22   2.0000      -6.031891      -164.1361
  23   2.0000      -6.030089      -164.0871
  24   2.0000      -1.003665       -27.3111
  25   2.0000      -0.981842       -26.7173
  26   2.0000      -0.913283       -24.8517
  27   2.0000      -0.911733       -24.8095
  28   2.0000      -0.869167       -23.6512
  29   2.0000      -0.855972       -23.2922
  30   2.0000      -0.848059       -23.0769
  31   2.0000      -0.811962       -22.0946
  32   2.0000      -0.784948       -21.3595
  33   2.0000      -0.766893       -20.8682
  34   2.0000      -0.705149       -19.1881
  35   2.0000      -0.698481       -19.0066
  36   2.0000      -0.697108       -18.9693
  37   2.0000      -0.663550       -18.0561
  38   2.0000      -0.649038       -17.6612
  39   2.0000      -0.613259       -16.6876
  40   2.0000      -0.600124       -16.3302
  41   2.0000      -0.579893       -15.7797
  42   2.0000      -0.569846       -15.5063
  43   2.0000      -0.557817       -15.1790
  44   2.0000      -0.528604       -14.3840
  45   2.0000      -0.523277       -14.2391
  46   2.0000      -0.521246       -14.1838
  47   2.0000      -0.511732       -13.9249
  48   2.0000      -0.505781       -13.7630
  49   2.0000      -0.494087       -13.4448
  50   2.0000      -0.488545       -13.2940
  51   2.0000      -0.480440       -13.0734
  52   2.0000      -0.472265       -12.8510
  53   2.0000      -0.464768       -12.6470
  54   2.0000      -0.458985       -12.4896
  55   2.0000      -0.451751       -12.2928
  56   2.0000      -0.441602       -12.0166
  57   2.0000      -0.434266       -11.8170
  58   2.0000      -0.430244       -11.7075
  59   2.0000      -0.428561       -11.6617
  60   2.0000      -0.422772       -11.5042
  61   2.0000      -0.420749       -11.4492
  62   2.0000      -0.415272       -11.3001
  63   2.0000      -0.342249        -9.3131
  64   2.0000      -0.335278        -9.1234
  65   2.0000      -0.328618        -8.9421
  66   2.0000      -0.293485        -7.9861
  67   0.0000       0.028148         0.7659
  68   0.0000       0.063829         1.7369
  69   0.0000       0.107775         2.9327
  70   0.0000       0.113554         3.0900
  71   0.0000       0.129441         3.5223

MULLIKEN ATOMIC CHARGES
-----------------------
   0 S :    0.102358
   1 C :   -0.101381
   2 C :   -0.086468
   3 C :    0.077800
   4 C :   -0.180738
   5 H :   -0.008655
   6 C :    0.004162
   7 H :    0.012877
   8 H :    0.031301
   9 C :   -0.016442
  10 H :    0.023268
  11 H :    0.015130
  12 C :   -0.037420
  13 H :    0.025310
  14 H :    0.022170
  15 H :    0.038339
  16 S :    0.107055
  17 C :   -0.092154
  18 C :   -0.039429
  19 C :   -0.008368
  20 C :   -0.175226
  21 H :    0.028401
  22 C :    0.110598
  23 H :    0.001734
  24 H :   -0.002688
  25 C :   -0.063027
  26 H :    0.022536
  27 H :    0.035255
  28 C :   -0.072096
  29 H :    0.031171
  30 H :    0.032524
  31 H :    0.046866
  32 H :    0.055122
  33 H :    0.060115
Sum of atomic charges:   -0.0000000

LOEWDIN ATOMIC CHARGES
----------------------
   0 S :    0.400512
   1 C :   -0.211027
   2 C :   -0.054461
   3 C :   -0.054457
   4 C :   -0.172350
   5 H :    0.021653
   6 C :   -0.033559
   7 H :    0.022106
   8 H :    0.034449
   9 C :   -0.026977
  10 H :    0.022141
  11 H :    0.014939
  12 C :   -0.062731
  13 H :    0.026028
  14 H :    0.023204
  15 H :    0.024501
  16 S :    0.384400
  17 C :   -0.173311
  18 C :   -0.072404
  19 C :   -0.049372
  20 C :   -0.192733
  21 H :    0.033579
  22 C :   -0.027596
  23 H :    0.027756
  24 H :    0.021032
  25 C :   -0.042100
  26 H :    0.016571
  27 H :    0.030047
  28 C :   -0.071380
  29 H :    0.025979
  30 H :    0.030517
  31 H :    0.033221
  32 H :    0.025277
  33 H :    0.026543

  Mayer bond orders larger than 0.100000
B(  0-S ,  1-C ) :   1.1226 B(  0-S ,  4-C ) :   1.1768 B(  1-C ,  2-C ) :   1.6211
B(  1-C ,  4-C ) :   0.1029 B(  1-C , 32-H ) :   0.9615 B(  2-C ,  3-C ) :   1.2252
B(  2-C ,  6-C ) :   1.0300 B(  3-C ,  4-C ) :   1.5558 B(  3-C ,  5-H ) :   0.9993
B(  4-C , 20-C ) :   1.0427 B(  6-C ,  7-H ) :   0.9458 B(  6-C ,  8-H ) :   0.9409
B(  6-C ,  9-C ) :   1.0684 B(  9-C , 10-H ) :   0.9550 B(  9-C , 11-H ) :   0.9552
B(  9-C , 12-C ) :   1.0832 B( 12-C , 13-H ) :   0.9733 B( 12-C , 14-H ) :   0.9755
B( 12-C , 15-H ) :   0.9739 B( 16-S , 17-C ) :   1.1630 B( 16-S , 20-C ) :   1.1073
B( 17-C , 18-C ) :   1.6089 B( 17-C , 33-H ) :   0.9664 B( 18-C , 19-C ) :   1.2214
B( 18-C , 21-H ) :   0.9886 B( 19-C , 20-C ) :   1.6576 B( 19-C , 22-C ) :   1.0300
B( 22-C , 23-H ) :   0.9317 B( 22-C , 24-H ) :   0.9128 B( 22-C , 25-C ) :   1.0605
B( 25-C , 26-H ) :   0.9426 B( 25-C , 27-H ) :   0.9553 B( 25-C , 28-C ) :   1.1004
B( 28-C , 29-H ) :   0.9708 B( 28-C , 30-H ) :   0.9708 B( 28-C , 31-H ) :   0.9722

Dispersion correction           -0.013519034
FINAL SINGLE POINT ENERGY     -1339.867001550104

DIPOLE MOMENT
-------------
                                X             Y             Z
Electronic contribution:    -23.53692      16.54612     -11.53574
Nuclear contribution   :     24.17234     -16.56758      11.77407
                        -----------------------------------------
Total Dipole Moment    :      0.63542      -0.02146       0.23833
                        -----------------------------------------
Magnitude (a.u.)       :      0.67899
Magnitude (Debye)      :      1.72584

Rotational constants in cm-1:     0.017193     0.008405     0.006107
Rotational constants in MHz :   515.446234   251.960854   183.089655

                             ****ORCA TERMINATED NORMALLY****
TOTAL RUN TIME: 0 days 0 hours 0 minutes 32 seconds 748 msec
