                         Program Version 4.2.1 -  RELEASE  -
|  1> ! wB97X-D3 SP def2-SVP
|  2> %pal
|  3> nprocs 16
|  4> end
|  5>
|  6> * xyz 0 1
|  7> S 	 26.9609 	 4.94053 	 74.6535
|  8> C 	 28.205 	 3.80929 	 74.892
|  9> C 	 28.6126 	 3.7461 	 76.199
| 10> C 	 27.9228 	 4.69451 	 77.0244
| 11> C 	 27.0248 	 5.49019 	 76.321
| 12> H 	 28.0578 	 4.75148 	 78.0583
| 13> C 	 29.7866 	 2.92395 	 76.7202
| 14> H 	 30.7227 	 3.23913 	 76.2278
| 15> H 	 29.7216 	 1.85119 	 76.4845
| 16> C 	 30.1808 	 2.9408 	 78.2706
| 17> H 	 31.1761 	 2.46538 	 78.4962
| 18> H 	 30.4382 	 3.98975 	 78.6328
| 19> C 	 29.1899 	 2.15318 	 79.1595
| 20> H 	 29.8352 	 1.95872 	 79.9583
| 21> H 	 28.2977 	 2.68519 	 79.4803
| 22> H 	 28.8309 	 1.26263 	 78.5354
| 23> S 	 24.435 	 5.75161 	 77.1624
| 24> C 	 23.941 	 7.16024 	 78.0493
| 25> C 	 25.0424 	 7.91535 	 78.421
| 26> C 	 26.2951 	 7.47494 	 77.8224
| 27> C 	 26.0884 	 6.38367 	 76.9602
| 28> H 	 24.7866 	 8.74037 	 79.1231
| 29> C 	 27.5725 	 8.23412 	 77.9236
| 30> H 	 27.2266 	 9.2707 	 77.9537
| 31> H 	 28.008 	 8.20689 	 76.9299
| 32> C 	 28.5435 	 8.02169 	 79.1458
| 33> H 	 28.6374 	 6.97946 	 79.2285
| 34> H 	 28.1091 	 8.39906 	 80.0872
| 35> C 	 29.9054 	 8.75966 	 78.918
| 36> H 	 29.795 	 9.82526 	 79.1152
| 37> H 	 30.2717 	 8.78562 	 77.8143
| 38> H 	 30.6336 	 8.42564 	 79.6522
| 39> H 	 28.6506 	 3.25114 	 74.0915
| 40> H 	 22.9521 	 7.4493 	 78.3825
| 41> *
| 42>
| 43>                          ****END OF INPUT****

CARTESIAN COORDINATES (ANGSTROEM)
---------------------------------
  S     26.960900    4.940530   74.653500
  C     28.205000    3.809290   74.892000
  C     28.612600    3.746100   76.199000
  C     27.922800    4.694510   77.024400
  C     27.024800    5.490190   76.321000
  H     28.057800    4.751480   78.058300
  C     29.786600    2.923950   76.720200
  H     30.722700    3.239130   76.227800
  H     29.721600    1.851190   76.484500
  C     30.180800    2.940800   78.270600
  H     31.176100    2.465380   78.496200
  H     30.438200    3.989750   78.632800
  C     29.189900    2.153180   79.159500
  H     29.835200    1.958720   79.958300
  H     28.297700    2.685190   79.480300
  H     28.830900    1.262630   78.535400
  S     24.435000    5.751610   77.162400
  C     23.941000    7.160240   78.049300
  C     25.042400    7.915350   78.421000
  C     26.295100    7.474940   77.822400
  C     26.088400    6.383670   76.960200
  H     24.786600    8.740370   79.123100
  C     27.572500    8.234120   77.923600
  H     27.226600    9.270700   77.953700
  H     28.008000    8.206890   76.929900
  C     28.543500    8.021690   79.145800
  H     28.637400    6.979460   79.228500
  H     28.109100    8.399060   80.087200
  C     29.905400    8.759660   78.918000
  H     29.795000    9.825260   79.115200
  H     30.271700    8.785620   77.814300
  H     30.633600    8.425640   79.652200
  H     28.650600    3.251140   74.091500
  H     22.952100    7.449300   78.382500

 Total Charge           Charge          ....    0
 Multiplicity           Mult            ....    1
 Number of Electrons    NEL             ....  134
 Basis Dimension        Dim             ....  322

ORBITAL ENERGIES
----------------

  NO   OCC          E(Eh)            E(eV)
   0   2.0000     -88.967808     -2420.9371
   1   2.0000     -88.960491     -2420.7380
   2   2.0000     -10.327124      -281.0153
   3   2.0000     -10.325863      -280.9810
   4   2.0000     -10.313999      -280.6582
   5   2.0000     -10.310947      -280.5751
   6   2.0000     -10.307310      -280.4762
   7   2.0000     -10.301794      -280.3261
   8   2.0000     -10.300775      -280.2984
   9   2.0000     -10.298892      -280.2471
  10   2.0000     -10.295797      -280.1629
  11   2.0000     -10.291968      -280.0587
  12   2.0000     -10.291825      -280.0548
  13   2.0000     -10.287735      -279.9435
  14   2.0000     -10.287288      -279.9313
  15   2.0000     -10.279526      -279.7201
  16   2.0000      -8.083226      -219.9558
  17   2.0000      -8.075129      -219.7354
  18   2.0000      -6.041587      -164.3999
  19   2.0000      -6.037533      -164.2896
  20   2.0000      -6.034199      -164.1989
  21   2.0000      -6.033696      -164.1852
  22   2.0000      -6.029733      -164.0774
  23   2.0000      -6.025739      -163.9687
  24   2.0000      -1.007328       -27.4108
  25   2.0000      -0.981981       -26.7211
  26   2.0000      -0.902263       -24.5518
  27   2.0000      -0.902011       -24.5450
  28   2.0000      -0.872573       -23.7439
  29   2.0000      -0.849855       -23.1257
  30   2.0000      -0.845267       -23.0009
  31   2.0000      -0.813488       -22.1361
  32   2.0000      -0.780075       -21.2269
  33   2.0000      -0.767732       -20.8910
  34   2.0000      -0.711041       -19.3484
  35   2.0000      -0.699751       -19.0412
  36   2.0000      -0.689313       -18.7571
  37   2.0000      -0.654668       -17.8144
  38   2.0000      -0.643747       -17.5172
  39   2.0000      -0.622799       -16.9472
  40   2.0000      -0.587177       -15.9779
  41   2.0000      -0.567508       -15.4427
  42   2.0000      -0.557052       -15.1582
  43   2.0000      -0.546489       -14.8707
  44   2.0000      -0.540553       -14.7092
  45   2.0000      -0.525244       -14.2926
  46   2.0000      -0.515076       -14.0159
  47   2.0000      -0.509523       -13.8648
  48   2.0000      -0.503072       -13.6893
  49   2.0000      -0.501572       -13.6485
  50   2.0000      -0.492439       -13.3999
  51   2.0000      -0.480975       -13.0880
  52   2.0000      -0.471901       -12.8411
  53   2.0000      -0.461348       -12.5539
  54   2.0000      -0.455032       -12.3821
  55   2.0000      -0.445348       -12.1185
  56   2.0000      -0.441710       -12.0195
  57   2.0000      -0.440566       -11.9884
  58   2.0000      -0.433324       -11.7913
  59   2.0000      -0.421528       -11.4704
  60   2.0000      -0.416087       -11.3223
  61   2.0000      -0.413476       -11.2513
  62   2.0000      -0.409273       -11.1369
  63   2.0000      -0.341780        -9.3003
  64   2.0000      -0.325882        -8.8677
  65   2.0000      -0.322325        -8.7709
  66   2.0000      -0.299826        -8.1587
  67   0.0000       0.032196         0.8761
  68   0.0000       0.062979         1.7137
  69   0.0000       0.114928         3.1273
  70   0.0000       0.123986         3.3738
  71   0.0000       0.131234         3.5711

MULLIKEN ATOMIC CHARGES
-----------------------
   0 S :    0.127735
   1 C :   -0.116947
   2 C :   -0.046266
   3 C :    0.053771
   4 C :   -0.164898
   5 H :   -0.003577
   6 C :    0.031455
   7 H :    0.042623
   8 H :    0.033579
   9 C :   -0.153794
  10 H :    0.033631
  11 H :    0.035696
  12 C :   -0.036701
  13 H :    0.029393
  14 H :    0.043040
  15 H :    0.044101
  16 S :    0.100392
  17 C :   -0.088931
  18 C :   -0.060205
  19 C :   -0.023160
  20 C :   -0.151797
  21 H :    0.032325
  22 C :    0.025759
  23 H :    0.016214
  24 H :    0.030513
  25 C :   -0.019025
  26 H :    0.016179
  27 H :    0.033333
  28 C :   -0.078686
  29 H :    0.027299
  30 H :    0.049654
  31 H :    0.041567
  32 H :    0.043820
  33 H :    0.051909
Sum of atomic charges:    0.0000000

LOEWDIN ATOMIC CHARGES
----------------------
   0 S :    0.432823
   1 C :   -0.201853
   2 C :   -0.068563
   3 C :   -0.040000
   4 C :   -0.210457
   5 H :    0.020319
   6 C :   -0.040503
   7 H :    0.036480
   8 H :    0.030036
   9 C :   -0.055150
  10 H :    0.031009
  11 H :    0.025184
  12 C :   -0.067087
  13 H :    0.021028
  14 H :    0.022381
  15 H :    0.037458
  16 S :    0.394622
  17 C :   -0.191665
  18 C :   -0.081496
  19 C :   -0.053437
  20 C :   -0.191696
  21 H :    0.038507
  22 C :   -0.040918
  23 H :    0.032420
  24 H :    0.034978
  25 C :   -0.028356
  26 H :    0.011832
  27 H :    0.029401
  28 C :   -0.074542
  29 H :    0.023818
  30 H :    0.038059
  31 H :    0.026794
  32 H :    0.027774
  33 H :    0.030802

  Mayer bond orders larger than 0.100000
B(  0-S ,  1-C ) :   1.1657 B(  0-S ,  4-C ) :   1.1546 B(  1-C ,  2-C ) :   1.5891
B(  1-C , 32-H ) :   0.9741 B(  2-C ,  3-C ) :   1.2813 B(  2-C ,  6-C ) :   1.0012
B(  3-C ,  4-C ) :   1.5341 B(  3-C ,  5-H ) :   0.9981 B(  4-C , 20-C ) :   1.0415
B(  6-C ,  7-H ) :   0.9436 B(  6-C ,  8-H ) :   0.9442 B(  6-C ,  9-C ) :   1.0815
B(  9-C , 10-H ) :   0.9638 B(  9-C , 11-H ) :   0.9482 B(  9-C , 12-C ) :   1.0496
B( 12-C , 13-H ) :   0.9803 B( 12-C , 14-H ) :   0.9784 B( 12-C , 15-H ) :   0.9736
B( 16-S , 17-C ) :   1.1487 B( 16-S , 20-C ) :   1.1349 B( 17-C , 18-C ) :   1.6412
B( 17-C , 33-H ) :   0.9654 B( 18-C , 19-C ) :   1.2112 B( 18-C , 21-H ) :   0.9844
B( 19-C , 20-C ) :   1.5915 B( 19-C , 22-C ) :   1.0478 B( 22-C , 23-H ) :   0.9362
B( 22-C , 24-H ) :   0.9420 B( 22-C , 25-C ) :   1.0415 B( 25-C , 26-H ) :   0.9628
B( 25-C , 27-H ) :   0.9525 B( 25-C , 28-C ) :   1.0720 B( 28-C , 29-H ) :   0.9760
B( 28-C , 30-H ) :   0.9761 B( 28-C , 31-H ) :   0.9749

Dispersion correction           -0.014427641
FINAL SINGLE POINT ENERGY     -1339.858899640133

DIPOLE MOMENT
-------------
                                X             Y             Z
Electronic contribution:    -23.03949      -0.63186     -17.34378
Nuclear contribution   :     23.60767       0.69480      17.81977
                        -----------------------------------------
Total Dipole Moment    :      0.56818       0.06294       0.47599
                        -----------------------------------------
Magnitude (a.u.)       :      0.74388
Magnitude (Debye)      :      1.89079

Rotational constants in cm-1:     0.014999     0.010051     0.007768
Rotational constants in MHz :   449.665954   301.315445   232.869520

                             ****ORCA TERMINATED NORMALLY****
TOTAL RUN TIME: 0 days 0 hours 0 minutes 34 seconds 918 msec
