                         Program Version 4.2.1 -  RELEASE  -
|  1> ! wB97X-D3 SP def2-SVP
|  2> %pal
|  3> nprocs 16
|  4> end
|  5>
|  6> * xyz 0 1
|  7> S 	 -5.04169 	 -19.2384 	 80.2703
|  8> C 	 -4.31021 	 -18.9185 	 81.7964
|  9> C 	 -4.16447 	 -17.5973 	 82.1418
| 10> C 	 -4.80191 	 -16.7717 	 81.176
| 11> C 	 -5.38498 	 -17.4659 	 80.0986
| 12> H 	 -4.87268 	 -15.7268 	 81.1928
| 13> C 	 -3.29052 	 -17.0981 	 83.2744
| 14> H 	 -2.3156 	 -16.8239 	 82.9462
| 15> H 	 -3.18366 	 -17.9441 	 83.9909
| 16> C 	 -3.83494 	 -15.9791 	 84.1011
| 17> H 	 -3.79639 	 -15.1993 	 83.3592
| 18> H 	 -4.80005 	 -16.07 	 84.4988
| 19> C 	 -2.98252 	 -15.648 	 85.2952
| 20> H 	 -2.55016 	 -16.5252 	 85.6712
| 21> H 	 -2.14963 	 -15.0868 	 84.9059
| 22> H 	 -3.43109 	 -14.9797 	 86.011
| 23> S 	 -5.69027 	 -17.1169 	 77.3295
| 24> C 	 -6.92491 	 -16.1691 	 76.7354
| 25> C 	 -7.63368 	 -15.5086 	 77.7535
| 26> C 	 -7.20563 	 -15.8832 	 79.0917
| 27> C 	 -6.1722 	 -16.8043 	 79.0384
| 28> H 	 -8.46508 	 -14.8852 	 77.5241
| 29> C 	 -7.98088 	 -15.4007 	 80.2795
| 30> H 	 -7.6466 	 -15.9579 	 81.1489
| 31> H 	 -9.09904 	 -15.6207 	 80.2021
| 32> C 	 -7.71846 	 -13.9135 	 80.6414
| 33> H 	 -8.65467 	 -13.6607 	 81.1138
| 34> H 	 -7.57025 	 -13.3026 	 79.7358
| 35> C 	 -6.62289 	 -13.6455 	 81.6689
| 36> H 	 -6.62855 	 -12.5707 	 81.9417
| 37> H 	 -5.60442 	 -13.7639 	 81.3377
| 38> H 	 -6.81265 	 -14.2958 	 82.5746
| 39> H 	 -3.96384 	 -19.688 	 82.4109
| 40> H 	 -7.23659 	 -16.0201 	 75.6736
| 41> *
| 42>
| 43>                          ****END OF INPUT****

CARTESIAN COORDINATES (ANGSTROEM)
---------------------------------
  S     -5.041690  -19.238400   80.270300
  C     -4.310210  -18.918500   81.796400
  C     -4.164470  -17.597300   82.141800
  C     -4.801910  -16.771700   81.176000
  C     -5.384980  -17.465900   80.098600
  H     -4.872680  -15.726800   81.192800
  C     -3.290520  -17.098100   83.274400
  H     -2.315600  -16.823900   82.946200
  H     -3.183660  -17.944100   83.990900
  C     -3.834940  -15.979100   84.101100
  H     -3.796390  -15.199300   83.359200
  H     -4.800050  -16.070000   84.498800
  C     -2.982520  -15.648000   85.295200
  H     -2.550160  -16.525200   85.671200
  H     -2.149630  -15.086800   84.905900
  H     -3.431090  -14.979700   86.011000
  S     -5.690270  -17.116900   77.329500
  C     -6.924910  -16.169100   76.735400
  C     -7.633680  -15.508600   77.753500
  C     -7.205630  -15.883200   79.091700
  C     -6.172200  -16.804300   79.038400
  H     -8.465080  -14.885200   77.524100
  C     -7.980880  -15.400700   80.279500
  H     -7.646600  -15.957900   81.148900
  H     -9.099040  -15.620700   80.202100
  C     -7.718460  -13.913500   80.641400
  H     -8.654670  -13.660700   81.113800
  H     -7.570250  -13.302600   79.735800
  C     -6.622890  -13.645500   81.668900
  H     -6.628550  -12.570700   81.941700
  H     -5.604420  -13.763900   81.337700
  H     -6.812650  -14.295800   82.574600
  H     -3.963840  -19.688000   82.410900
  H     -7.236590  -16.020100   75.673600

 Total Charge           Charge          ....    0
 Multiplicity           Mult            ....    1
 Number of Electrons    NEL             ....  134
 Basis Dimension        Dim             ....  322

ORBITAL ENERGIES
----------------

  NO   OCC          E(Eh)            E(eV)
   0   2.0000     -88.969632     -2420.9868
   1   2.0000     -88.963432     -2420.8180
   2   2.0000     -10.334317      -281.2111
   3   2.0000     -10.329381      -281.0768
   4   2.0000     -10.315667      -280.7036
   5   2.0000     -10.308250      -280.5017
   6   2.0000     -10.304473      -280.3990
   7   2.0000     -10.298459      -280.2353
   8   2.0000     -10.294055      -280.1155
   9   2.0000     -10.292140      -280.0634
  10   2.0000     -10.291481      -280.0454
  11   2.0000     -10.289869      -280.0016
  12   2.0000     -10.287683      -279.9421
  13   2.0000     -10.284762      -279.8626
  14   2.0000     -10.274149      -279.5738
  15   2.0000     -10.269050      -279.4351
  16   2.0000      -8.083684      -219.9682
  17   2.0000      -8.079047      -219.8420
  18   2.0000      -6.042155      -164.4154
  19   2.0000      -6.038417      -164.3137
  20   2.0000      -6.037470      -164.2879
  21   2.0000      -6.034411      -164.2047
  22   2.0000      -6.033392      -164.1769
  23   2.0000      -6.029883      -164.0815
  24   2.0000      -1.000640       -27.2288
  25   2.0000      -0.983252       -26.7557
  26   2.0000      -0.922921       -25.1139
  27   2.0000      -0.910700       -24.7814
  28   2.0000      -0.867870       -23.6159
  29   2.0000      -0.854697       -23.2575
  30   2.0000      -0.848751       -23.0957
  31   2.0000      -0.809952       -22.0399
  32   2.0000      -0.784796       -21.3554
  33   2.0000      -0.774063       -21.0633
  34   2.0000      -0.710889       -19.3443
  35   2.0000      -0.696105       -18.9420
  36   2.0000      -0.689548       -18.7636
  37   2.0000      -0.655301       -17.8316
  38   2.0000      -0.644800       -17.5459
  39   2.0000      -0.622149       -16.9295
  40   2.0000      -0.600140       -16.3306
  41   2.0000      -0.586164       -15.9503
  42   2.0000      -0.565291       -15.3824
  43   2.0000      -0.548039       -14.9129
  44   2.0000      -0.542725       -14.7683
  45   2.0000      -0.531851       -14.4724
  46   2.0000      -0.516482       -14.0542
  47   2.0000      -0.507040       -13.7973
  48   2.0000      -0.503866       -13.7109
  49   2.0000      -0.496919       -13.5219
  50   2.0000      -0.492179       -13.3929
  51   2.0000      -0.485130       -13.2011
  52   2.0000      -0.475324       -12.9342
  53   2.0000      -0.464774       -12.6471
  54   2.0000      -0.460516       -12.5313
  55   2.0000      -0.448143       -12.1946
  56   2.0000      -0.443173       -12.0594
  57   2.0000      -0.439491       -11.9592
  58   2.0000      -0.437244       -11.8980
  59   2.0000      -0.425664       -11.5829
  60   2.0000      -0.424314       -11.5462
  61   2.0000      -0.409892       -11.1537
  62   2.0000      -0.407966       -11.1013
  63   2.0000      -0.345130        -9.3915
  64   2.0000      -0.334300        -9.0968
  65   2.0000      -0.325547        -8.8586
  66   2.0000      -0.288687        -7.8556
  67   0.0000       0.030329         0.8253
  68   0.0000       0.068931         1.8757
  69   0.0000       0.111801         3.0423
  70   0.0000       0.121354         3.3022
  71   0.0000       0.128124         3.4864

MULLIKEN ATOMIC CHARGES
-----------------------
   0 S :    0.121285
   1 C :   -0.104548
   2 C :   -0.041073
   3 C :    0.066051
   4 C :   -0.151117
   5 H :   -0.055375
   6 C :    0.065191
   7 H :    0.035899
   8 H :    0.012428
   9 C :   -0.093015
  10 H :    0.019937
  11 H :    0.022088
  12 C :    0.012967
  13 H :    0.011982
  14 H :    0.008105
  15 H :    0.035918
  16 S :    0.112600
  17 C :   -0.093917
  18 C :   -0.046817
  19 C :   -0.016523
  20 C :   -0.178539
  21 H :    0.006847
  22 C :    0.028203
  23 H :    0.016446
  24 H :    0.053778
  25 C :   -0.058105
  26 H :    0.023140
  27 H :    0.036800
  28 C :   -0.073672
  29 H :    0.035978
  30 H :    0.047817
  31 H :    0.043737
  32 H :    0.022510
  33 H :    0.072996
Sum of atomic charges:   -0.0000000

LOEWDIN ATOMIC CHARGES
----------------------
   0 S :    0.395901
   1 C :   -0.185622
   2 C :   -0.065129
   3 C :   -0.045906
   4 C :   -0.181998
   5 H :    0.016421
   6 C :   -0.023405
   7 H :    0.030417
   8 H :    0.028210
   9 C :   -0.041304
  10 H :    0.020101
  11 H :    0.017299
  12 C :   -0.054991
  13 H :    0.017335
  14 H :    0.024739
  15 H :    0.027836
  16 S :    0.416456
  17 C :   -0.217448
  18 C :   -0.076566
  19 C :   -0.053707
  20 C :   -0.187576
  21 H :    0.023034
  22 C :   -0.036573
  23 H :    0.028087
  24 H :    0.042478
  25 C :   -0.039076
  26 H :    0.025158
  27 H :    0.025612
  28 C :   -0.069949
  29 H :    0.032619
  30 H :    0.018178
  31 H :    0.032526
  32 H :    0.014574
  33 H :    0.042269

  Mayer bond orders larger than 0.100000
B(  0-S ,  1-C ) :   1.1516 B(  0-S ,  4-C ) :   1.1292 B(  1-C ,  2-C ) :   1.6152
B(  1-C , 32-H ) :   0.9673 B(  2-C ,  3-C ) :   1.2345 B(  2-C ,  6-C ) :   1.0228
B(  3-C ,  4-C ) :   1.5699 B(  3-C ,  5-H ) :   1.0003 B(  4-C , 20-C ) :   1.0490
B(  6-C ,  7-H ) :   0.9426 B(  6-C ,  8-H ) :   0.9363 B(  6-C ,  9-C ) :   1.0570
B(  9-C , 10-H ) :   0.9552 B(  9-C , 11-H ) :   0.9628 B(  9-C , 12-C ) :   1.0893
B( 12-C , 13-H ) :   0.9703 B( 12-C , 14-H ) :   0.9679 B( 12-C , 15-H ) :   0.9743
B( 16-S , 17-C ) :   1.1767 B( 16-S , 20-C ) :   1.1269 B( 17-C , 18-C ) :   1.6001
B( 17-C , 33-H ) :   0.9596 B( 18-C , 19-C ) :   1.2277 B( 18-C , 21-H ) :   0.9924
B( 19-C , 20-C ) :   1.6031 B( 19-C , 22-C ) :   1.0511 B( 22-C , 23-H ) :   0.9303
B( 22-C , 24-H ) :   0.9474 B( 22-C , 25-C ) :   1.0466 B( 25-C , 26-H ) :   0.9522
B( 25-C , 27-H ) :   0.9598 B( 25-C , 28-C ) :   1.0945 B( 28-C , 29-H ) :   0.9650
B( 28-C , 30-H ) :   0.9643 B( 28-C , 31-H ) :   0.9708

Dispersion correction           -0.014904574
FINAL SINGLE POINT ENERGY     -1339.869574643383

DIPOLE MOMENT
-------------
                                X             Y             Z
Electronic contribution:     -1.34407     -19.85289     -25.72935
Nuclear contribution   :      1.24255      20.37159      26.21670
                        -----------------------------------------
Total Dipole Moment    :     -0.10152       0.51870       0.48734
                        -----------------------------------------
Magnitude (a.u.)       :      0.71893
Magnitude (Debye)      :      1.82737

Rotational constants in cm-1:     0.018711     0.009231     0.006698
Rotational constants in MHz :   560.952449   276.750493   200.798440

                             ****ORCA TERMINATED NORMALLY****
TOTAL RUN TIME: 0 days 0 hours 0 minutes 34 seconds 881 msec
