                         Program Version 4.2.1 -  RELEASE  -
|  1> ! wB97X-D3 SP def2-SVP
|  2> %pal
|  3> nprocs 16
|  4> end
|  5>
|  6> * xyz 0 1
|  7> S 	 33.361 	 -1.38494 	 67.9612
|  8> C 	 33.3844 	 0.129429 	 66.9591
|  9> C 	 32.2241 	 0.302892 	 66.3078
| 10> C 	 31.2739 	 -0.727425 	 66.612
| 11> C 	 31.738 	 -1.67881 	 67.5068
| 12> H 	 30.2539 	 -0.870267 	 66.237
| 13> C 	 31.8406 	 1.41041 	 65.36
| 14> H 	 32.1671 	 2.36013 	 65.6603
| 15> H 	 30.7796 	 1.49587 	 65.3232
| 16> C 	 32.261 	 1.29103 	 63.9424
| 17> H 	 31.8996 	 0.362096 	 63.4882
| 18> H 	 31.7912 	 2.12117 	 63.4342
| 19> C 	 33.7628 	 1.43285 	 63.7889
| 20> H 	 34.3049 	 0.685284 	 64.2737
| 21> H 	 34.13 	 1.43994 	 62.7168
| 22> H 	 34.1795 	 2.32311 	 64.3153
| 23> S 	 31.3102 	 -4.40021 	 66.9808
| 24> C 	 30.0632 	 -5.26928 	 67.9301
| 25> C 	 29.3541 	 -4.40305 	 68.717
| 26> C 	 29.9311 	 -3.11288 	 68.7038
| 27> C 	 31.0464 	 -2.92618 	 67.922
| 28> H 	 28.4595 	 -4.66693 	 69.2864
| 29> C 	 29.254 	 -1.92905 	 69.3703
| 30> H 	 28.2188 	 -1.93665 	 69.1341
| 31> H 	 29.5807 	 -0.944922 	 68.9159
| 32> C 	 29.5055 	 -1.93636 	 70.9425
| 33> H 	 30.6011 	 -1.77127 	 71.0887
| 34> H 	 29.317 	 -2.8613 	 71.389
| 35> C 	 28.8653 	 -0.797809 	 71.6826
| 36> H 	 27.7738 	 -0.692288 	 71.4557
| 37> H 	 29.339 	 0.182401 	 71.4133
| 38> H 	 28.953 	 -0.942795 	 72.7496
| 39> H 	 34.1304 	 0.868128 	 66.9393
| 40> H 	 29.7582 	 -6.21145 	 67.6698
| 41> *
| 42>
| 43>                          ****END OF INPUT****

CARTESIAN COORDINATES (ANGSTROEM)
---------------------------------
  S     33.361000   -1.384940   67.961200
  C     33.384400    0.129429   66.959100
  C     32.224100    0.302892   66.307800
  C     31.273900   -0.727425   66.612000
  C     31.738000   -1.678810   67.506800
  H     30.253900   -0.870267   66.237000
  C     31.840600    1.410410   65.360000
  H     32.167100    2.360130   65.660300
  H     30.779600    1.495870   65.323200
  C     32.261000    1.291030   63.942400
  H     31.899600    0.362096   63.488200
  H     31.791200    2.121170   63.434200
  C     33.762800    1.432850   63.788900
  H     34.304900    0.685284   64.273700
  H     34.130000    1.439940   62.716800
  H     34.179500    2.323110   64.315300
  S     31.310200   -4.400210   66.980800
  C     30.063200   -5.269280   67.930100
  C     29.354100   -4.403050   68.717000
  C     29.931100   -3.112880   68.703800
  C     31.046400   -2.926180   67.922000
  H     28.459500   -4.666930   69.286400
  C     29.254000   -1.929050   69.370300
  H     28.218800   -1.936650   69.134100
  H     29.580700   -0.944922   68.915900
  C     29.505500   -1.936360   70.942500
  H     30.601100   -1.771270   71.088700
  H     29.317000   -2.861300   71.389000
  C     28.865300   -0.797809   71.682600
  H     27.773800   -0.692288   71.455700
  H     29.339000    0.182401   71.413300
  H     28.953000   -0.942795   72.749600
  H     34.130400    0.868128   66.939300
  H     29.758200   -6.211450   67.669800

 Total Charge           Charge          ....    0
 Multiplicity           Mult            ....    1
 Number of Electrons    NEL             ....  134
 Basis Dimension        Dim             ....  322

ORBITAL ENERGIES
----------------

  NO   OCC          E(Eh)            E(eV)
   0   2.0000     -88.967052     -2420.9166
   1   2.0000     -88.963033     -2420.8072
   2   2.0000     -10.329779      -281.0876
   3   2.0000     -10.326130      -280.9883
   4   2.0000     -10.316884      -280.7367
   5   2.0000     -10.312778      -280.6249
   6   2.0000     -10.299882      -280.2740
   7   2.0000     -10.299752      -280.2705
   8   2.0000     -10.296375      -280.1786
   9   2.0000     -10.295359      -280.1510
  10   2.0000     -10.290501      -280.0188
  11   2.0000     -10.282741      -279.8076
  12   2.0000     -10.282469      -279.8002
  13   2.0000     -10.281534      -279.7748
  14   2.0000     -10.277381      -279.6618
  15   2.0000     -10.275069      -279.5988
  16   2.0000      -8.081512      -219.9091
  17   2.0000      -8.077090      -219.7888
  18   2.0000      -6.040051      -164.3581
  19   2.0000      -6.036076      -164.2500
  20   2.0000      -6.035665      -164.2388
  21   2.0000      -6.032217      -164.1450
  22   2.0000      -6.031794      -164.1335
  23   2.0000      -6.027700      -164.0220
  24   2.0000      -1.006237       -27.3811
  25   2.0000      -0.985271       -26.8106
  26   2.0000      -0.925044       -25.1717
  27   2.0000      -0.900357       -24.5000
  28   2.0000      -0.871888       -23.7253
  29   2.0000      -0.848722       -23.0949
  30   2.0000      -0.845341       -23.0029
  31   2.0000      -0.815148       -22.1813
  32   2.0000      -0.791546       -21.5391
  33   2.0000      -0.768788       -20.9198
  34   2.0000      -0.707157       -19.2427
  35   2.0000      -0.700488       -19.0613
  36   2.0000      -0.695898       -18.9363
  37   2.0000      -0.665660       -18.1135
  38   2.0000      -0.645300       -17.5595
  39   2.0000      -0.618526       -16.8310
  40   2.0000      -0.598688       -16.2911
  41   2.0000      -0.578451       -15.7405
  42   2.0000      -0.556495       -15.1430
  43   2.0000      -0.552735       -15.0407
  44   2.0000      -0.547751       -14.9051
  45   2.0000      -0.525690       -14.3048
  46   2.0000      -0.517215       -14.0741
  47   2.0000      -0.515027       -14.0146
  48   2.0000      -0.504610       -13.7311
  49   2.0000      -0.498350       -13.5608
  50   2.0000      -0.488359       -13.2889
  51   2.0000      -0.480484       -13.0746
  52   2.0000      -0.467798       -12.7294
  53   2.0000      -0.463323       -12.6076
  54   2.0000      -0.458220       -12.4688
  55   2.0000      -0.446626       -12.1533
  56   2.0000      -0.445875       -12.1329
  57   2.0000      -0.435921       -11.8620
  58   2.0000      -0.433518       -11.7966
  59   2.0000      -0.427321       -11.6280
  60   2.0000      -0.418194       -11.3796
  61   2.0000      -0.416308       -11.3283
  62   2.0000      -0.410309       -11.1651
  63   2.0000      -0.338661        -9.2154
  64   2.0000      -0.336054        -9.1445
  65   2.0000      -0.321767        -8.7557
  66   2.0000      -0.310450        -8.4478
  67   0.0000       0.042131         1.1464
  68   0.0000       0.053048         1.4435
  69   0.0000       0.109093         2.9686
  70   0.0000       0.113046         3.0761
  71   0.0000       0.126195         3.4339

MULLIKEN ATOMIC CHARGES
-----------------------
   0 S :    0.111642
   1 C :   -0.102177
   2 C :   -0.067753
   3 C :    0.036147
   4 C :   -0.187003
   5 H :    0.018735
   6 C :    0.106508
   7 H :    0.001540
   8 H :    0.007207
   9 C :   -0.032579
  10 H :    0.028855
  11 H :    0.027252
  12 C :   -0.067923
  13 H :    0.019367
  14 H :    0.044198
  15 H :    0.014733
  16 S :    0.087975
  17 C :   -0.054833
  18 C :   -0.013570
  19 C :   -0.045970
  20 C :   -0.137797
  21 H :    0.029154
  22 C :    0.052501
  23 H :    0.014522
  24 H :    0.031796
  25 C :   -0.068276
  26 H :    0.032446
  27 H :    0.015503
  28 C :   -0.049899
  29 H :    0.026843
  30 H :    0.036649
  31 H :    0.034519
  32 H :    0.020901
  33 H :    0.028789
Sum of atomic charges:    0.0000000

LOEWDIN ATOMIC CHARGES
----------------------
   0 S :    0.401688
   1 C :   -0.168651
   2 C :   -0.058781
   3 C :   -0.062804
   4 C :   -0.205230
   5 H :    0.034682
   6 C :   -0.025066
   7 H :    0.023021
   8 H :    0.029061
   9 C :   -0.033852
  10 H :    0.025638
  11 H :    0.026095
  12 C :   -0.072510
  13 H :    0.014352
  14 H :    0.033720
  15 H :    0.024630
  16 S :    0.380987
  17 C :   -0.148027
  18 C :   -0.066709
  19 C :   -0.056479
  20 C :   -0.201684
  21 H :    0.038371
  22 C :   -0.029449
  23 H :    0.020514
  24 H :    0.035059
  25 C :   -0.039385
  26 H :    0.032905
  27 H :    0.012378
  28 C :   -0.071553
  29 H :    0.023560
  30 H :    0.029789
  31 H :    0.025255
  32 H :    0.018527
  33 H :    0.009948

  Mayer bond orders larger than 0.100000
B(  0-S ,  1-C ) :   1.1135 B(  0-S ,  4-C ) :   1.1627 B(  1-C ,  2-C ) :   1.6586
B(  1-C , 32-H ) :   0.9702 B(  2-C ,  3-C ) :   1.2087 B(  2-C ,  6-C ) :   1.0191
B(  3-C ,  4-C ) :   1.6033 B(  3-C ,  5-H ) :   0.9925 B(  4-C , 20-C ) :   0.9856
B(  6-C ,  7-H ) :   0.9333 B(  6-C ,  8-H ) :   0.9311 B(  6-C ,  9-C ) :   1.0918
B(  9-C , 10-H ) :   0.9495 B(  9-C , 11-H ) :   0.9508 B(  9-C , 12-C ) :   1.0801
B( 12-C , 13-H ) :   0.9719 B( 12-C , 14-H ) :   0.9727 B( 12-C , 15-H ) :   0.9706
B( 16-S , 17-C ) :   1.1582 B( 16-S , 20-C ) :   1.1267 B( 17-C , 18-C ) :   1.5975
B( 17-C , 33-H ) :   0.9765 B( 18-C , 19-C ) :   1.2512 B( 18-C , 21-H ) :   0.9887
B( 19-C , 20-C ) :   1.6268 B( 19-C , 22-C ) :   1.0424 B( 22-C , 23-H ) :   0.9401
B( 22-C , 24-H ) :   0.9363 B( 22-C , 25-C ) :   1.0452 B( 25-C , 26-H ) :   0.9530
B( 25-C , 27-H ) :   0.9644 B( 25-C , 28-C ) :   1.0901 B( 28-C , 29-H ) :   0.9731
B( 28-C , 30-H ) :   0.9742 B( 28-C , 31-H ) :   0.9726

Dispersion correction           -0.014335610
FINAL SINGLE POINT ENERGY     -1339.874614600070

DIPOLE MOMENT
-------------
                                X             Y             Z
Electronic contribution:      7.72273     -19.05461      -0.06930
Nuclear contribution   :     -8.29638      19.44862      -0.04801
                        -----------------------------------------
Total Dipole Moment    :     -0.57365       0.39401      -0.11731
                        -----------------------------------------
Magnitude (a.u.)       :      0.70575
Magnitude (Debye)      :      1.79388

Rotational constants in cm-1:     0.019931     0.007918     0.006688
Rotational constants in MHz :   597.513797   237.363826   200.503368

                             ****ORCA TERMINATED NORMALLY****
TOTAL RUN TIME: 0 days 0 hours 0 minutes 29 seconds 498 msec
