                         Program Version 4.2.1 -  RELEASE  -
|  1> ! wB97X-D3 SP def2-SVP
|  2> %pal
|  3> nprocs 16
|  4> end
|  5>
|  6> * xyz 0 1
|  7> S 	 5.59913 	 -8.86616 	 75.2022
|  8> C 	 4.13547 	 -8.20942 	 74.6846
|  9> C 	 3.61083 	 -8.74013 	 73.4649
| 10> C 	 4.62313 	 -9.57215 	 72.9583
| 11> C 	 5.78072 	 -9.77614 	 73.7084
| 12> H 	 4.52056 	 -9.93024 	 71.9923
| 13> C 	 2.27742 	 -8.3964 	 72.8222
| 14> H 	 1.44663 	 -8.86187 	 73.4343
| 15> H 	 2.36338 	 -9.03204 	 71.9595
| 16> C 	 2.07567 	 -6.85049 	 72.4932
| 17> H 	 2.25921 	 -6.24354 	 73.4107
| 18> H 	 2.72858 	 -6.47376 	 71.6777
| 19> C 	 0.616999 	 -6.47798 	 72.2186
| 20> H 	 0.608402 	 -5.41643 	 71.9834
| 21> H 	 0.208861 	 -7.0689 	 71.4079
| 22> H 	 -0.082498 	 -6.61024 	 73.0861
| 23> S 	 8.54153 	 -9.75813 	 73.6854
| 24> C 	 9.30812 	 -11.2334 	 73.3214
| 25> C 	 8.45078 	 -12.2252 	 72.8801
| 26> C 	 7.07522 	 -11.841 	 72.9142
| 27> C 	 6.97549 	 -10.563 	 73.4383
| 28> H 	 8.93614 	 -13.07 	 72.449
| 29> C 	 5.97361 	 -12.7936 	 72.5449
| 30> H 	 5.75638 	 -12.9657 	 71.4987
| 31> H 	 5.03546 	 -12.4208 	 73.06
| 32> C 	 5.9831 	 -14.2126 	 73.2787
| 33> H 	 6.28537 	 -14.124 	 74.3036
| 34> H 	 6.82169 	 -14.8339 	 72.7889
| 35> C 	 4.69209 	 -15.0086 	 73.198
| 36> H 	 3.93519 	 -14.641 	 73.9203
| 37> H 	 4.81334 	 -16.1053 	 73.4329
| 38> H 	 4.28791 	 -14.9753 	 72.1735
| 39> H 	 3.63266 	 -7.39029 	 75.2273
| 40> H 	 10.3958 	 -11.289 	 73.1762
| 41> *
| 42>
| 43>                          ****END OF INPUT****

CARTESIAN COORDINATES (ANGSTROEM)
---------------------------------
  S      5.599130   -8.866160   75.202200
  C      4.135470   -8.209420   74.684600
  C      3.610830   -8.740130   73.464900
  C      4.623130   -9.572150   72.958300
  C      5.780720   -9.776140   73.708400
  H      4.520560   -9.930240   71.992300
  C      2.277420   -8.396400   72.822200
  H      1.446630   -8.861870   73.434300
  H      2.363380   -9.032040   71.959500
  C      2.075670   -6.850490   72.493200
  H      2.259210   -6.243540   73.410700
  H      2.728580   -6.473760   71.677700
  C      0.616999   -6.477980   72.218600
  H      0.608402   -5.416430   71.983400
  H      0.208861   -7.068900   71.407900
  H     -0.082498   -6.610240   73.086100
  S      8.541530   -9.758130   73.685400
  C      9.308120  -11.233400   73.321400
  C      8.450780  -12.225200   72.880100
  C      7.075220  -11.841000   72.914200
  C      6.975490  -10.563000   73.438300
  H      8.936140  -13.070000   72.449000
  C      5.973610  -12.793600   72.544900
  H      5.756380  -12.965700   71.498700
  H      5.035460  -12.420800   73.060000
  C      5.983100  -14.212600   73.278700
  H      6.285370  -14.124000   74.303600
  H      6.821690  -14.833900   72.788900
  C      4.692090  -15.008600   73.198000
  H      3.935190  -14.641000   73.920300
  H      4.813340  -16.105300   73.432900
  H      4.287910  -14.975300   72.173500
  H      3.632660   -7.390290   75.227300
  H     10.395800  -11.289000   73.176200

 Total Charge           Charge          ....    0
 Multiplicity           Mult            ....    1
 Number of Electrons    NEL             ....  134
 Basis Dimension        Dim             ....  322

ORBITAL ENERGIES
----------------

  NO   OCC          E(Eh)            E(eV)
   0   2.0000     -88.967176     -2420.9199
   1   2.0000     -88.966044     -2420.8891
   2   2.0000     -10.327780      -281.0332
   3   2.0000     -10.323586      -280.9190
   4   2.0000     -10.312453      -280.6161
   5   2.0000     -10.310892      -280.5736
   6   2.0000     -10.306127      -280.4440
   7   2.0000     -10.302678      -280.3501
   8   2.0000     -10.299430      -280.2618
   9   2.0000     -10.298823      -280.2452
  10   2.0000     -10.297298      -280.2037
  11   2.0000     -10.290690      -280.0239
  12   2.0000     -10.289195      -279.9832
  13   2.0000     -10.285989      -279.8960
  14   2.0000     -10.284516      -279.8559
  15   2.0000     -10.280929      -279.7583
  16   2.0000      -8.082457      -219.9348
  17   2.0000      -8.081551      -219.9102
  18   2.0000      -6.040797      -164.3784
  19   2.0000      -6.039761      -164.3503
  20   2.0000      -6.037053      -164.2766
  21   2.0000      -6.035773      -164.2417
  22   2.0000      -6.033205      -164.1719
  23   2.0000      -6.032773      -164.1601
  24   2.0000      -1.007280       -27.4095
  25   2.0000      -0.986345       -26.8398
  26   2.0000      -0.905107       -24.6292
  27   2.0000      -0.903276       -24.5794
  28   2.0000      -0.864996       -23.5377
  29   2.0000      -0.857603       -23.3366
  30   2.0000      -0.850697       -23.1486
  31   2.0000      -0.809601       -22.0304
  32   2.0000      -0.782907       -21.3040
  33   2.0000      -0.766174       -20.8487
  34   2.0000      -0.701609       -19.0918
  35   2.0000      -0.696433       -18.9509
  36   2.0000      -0.688934       -18.7469
  37   2.0000      -0.657064       -17.8796
  38   2.0000      -0.636557       -17.3216
  39   2.0000      -0.622682       -16.9440
  40   2.0000      -0.599274       -16.3071
  41   2.0000      -0.565502       -15.3881
  42   2.0000      -0.562397       -15.3036
  43   2.0000      -0.554265       -15.0823
  44   2.0000      -0.532011       -14.4768
  45   2.0000      -0.518287       -14.1033
  46   2.0000      -0.516195       -14.0464
  47   2.0000      -0.511005       -13.9052
  48   2.0000      -0.503598       -13.7036
  49   2.0000      -0.490920       -13.3586
  50   2.0000      -0.488066       -13.2809
  51   2.0000      -0.475714       -12.9448
  52   2.0000      -0.467030       -12.7085
  53   2.0000      -0.460907       -12.5419
  54   2.0000      -0.454489       -12.3673
  55   2.0000      -0.451983       -12.2991
  56   2.0000      -0.445545       -12.1239
  57   2.0000      -0.439521       -11.9600
  58   2.0000      -0.435186       -11.8420
  59   2.0000      -0.432624       -11.7723
  60   2.0000      -0.430020       -11.7014
  61   2.0000      -0.414956       -11.2915
  62   2.0000      -0.395968       -10.7748
  63   2.0000      -0.344970        -9.3871
  64   2.0000      -0.336112        -9.1461
  65   2.0000      -0.328331        -8.9343
  66   2.0000      -0.283395        -7.7116
  67   0.0000       0.029095         0.7917
  68   0.0000       0.071713         1.9514
  69   0.0000       0.110147         2.9973
  70   0.0000       0.119259         3.2452
  71   0.0000       0.139653         3.8001

MULLIKEN ATOMIC CHARGES
-----------------------
   0 S :    0.131638
   1 C :   -0.139616
   2 C :   -0.125547
   3 C :    0.051365
   4 C :   -0.167742
   5 H :   -0.025837
   6 C :    0.091130
   7 H :    0.053063
   8 H :    0.009873
   9 C :   -0.094419
  10 H :    0.037436
  11 H :    0.051721
  12 C :   -0.061910
  13 H :    0.035680
  14 H :    0.030075
  15 H :    0.037829
  16 S :    0.122181
  17 C :   -0.098713
  18 C :   -0.039447
  19 C :    0.020899
  20 C :   -0.163095
  21 H :    0.011176
  22 C :    0.024937
  23 H :    0.044577
  24 H :    0.039881
  25 C :   -0.102760
  26 H :    0.033982
  27 H :    0.030330
  28 C :   -0.076956
  29 H :    0.044888
  30 H :    0.044533
  31 H :    0.031944
  32 H :    0.054652
  33 H :    0.062255
Sum of atomic charges:    0.0000000

LOEWDIN ATOMIC CHARGES
----------------------
   0 S :    0.438586
   1 C :   -0.217873
   2 C :   -0.071253
   3 C :   -0.057145
   4 C :   -0.208331
   5 H :    0.015528
   6 C :   -0.034354
   7 H :    0.043995
   8 H :    0.027706
   9 C :   -0.039842
  10 H :    0.028903
  11 H :    0.033362
  12 C :   -0.070606
  13 H :    0.027439
  14 H :    0.019816
  15 H :    0.028632
  16 S :    0.415918
  17 C :   -0.201561
  18 C :   -0.069125
  19 C :   -0.052282
  20 C :   -0.188591
  21 H :    0.028304
  22 C :   -0.038010
  23 H :    0.030643
  24 H :    0.041019
  25 C :   -0.045267
  26 H :    0.021496
  27 H :    0.022704
  28 C :   -0.076443
  29 H :    0.028560
  30 H :    0.035484
  31 H :    0.025237
  32 H :    0.026538
  33 H :    0.030813

  Mayer bond orders larger than 0.100000
B(  0-S ,  1-C ) :   1.2031 B(  0-S ,  4-C ) :   1.1575 B(  1-C ,  2-C ) :   1.5219
B(  1-C ,  4-C ) :   0.1088 B(  1-C , 32-H ) :   0.9623 B(  2-C ,  3-C ) :   1.3321
B(  2-C ,  6-C ) :   1.0068 B(  3-C ,  4-C ) :   1.5157 B(  3-C ,  5-H ) :   0.9998
B(  4-C , 20-C ) :   1.0507 B(  6-C ,  7-H ) :   0.9405 B(  6-C ,  8-H ) :   0.9349
B(  6-C ,  9-C ) :   1.0444 B(  9-C , 10-H ) :   0.9630 B(  9-C , 11-H ) :   0.9582
B(  9-C , 12-C ) :   1.0779 B( 12-C , 13-H ) :   0.9737 B( 12-C , 14-H ) :   0.9753
B( 12-C , 15-H ) :   0.9770 B( 16-S , 17-C ) :   1.1579 B( 16-S , 20-C ) :   1.1505
B( 17-C , 18-C ) :   1.6239 B( 17-C , 33-H ) :   0.9604 B( 18-C , 19-C ) :   1.2123
B( 18-C , 21-H ) :   0.9950 B( 19-C , 20-C ) :   1.5939 B( 19-C , 22-C ) :   1.0510
B( 22-C , 23-H ) :   0.9355 B( 22-C , 24-H ) :   0.9398 B( 22-C , 25-C ) :   1.0446
B( 25-C , 26-H ) :   0.9608 B( 25-C , 27-H ) :   0.9513 B( 25-C , 28-C ) :   1.0875
B( 28-C , 29-H ) :   0.9736 B( 28-C , 30-H ) :   0.9720 B( 28-C , 31-H ) :   0.9730

Dispersion correction           -0.013280161
FINAL SINGLE POINT ENERGY     -1339.871976149201

DIPOLE MOMENT
-------------
                                X             Y             Z
Electronic contribution:     23.88612       8.07135      10.08066
Nuclear contribution   :    -24.28335      -8.20984     -10.48638
                        -----------------------------------------
Total Dipole Moment    :     -0.39723      -0.13849      -0.40571
                        -----------------------------------------
Magnitude (a.u.)       :      0.58444
Magnitude (Debye)      :      1.48553

Rotational constants in cm-1:     0.018832     0.007429     0.005931
Rotational constants in MHz :   564.579437   222.716513   177.796885

                             ****ORCA TERMINATED NORMALLY****
TOTAL RUN TIME: 0 days 0 hours 0 minutes 28 seconds 880 msec
