                         Program Version 4.2.1 -  RELEASE  -
|  1> ! wB97X-D3 SP def2-SVP
|  2> %pal
|  3> nprocs 16
|  4> end
|  5>
|  6> * xyz 0 1
|  7> S 	 -14.0331 	 33.9499 	 33.8114
|  8> C 	 -13.8321 	 33.6384 	 32.1148
|  9> C 	 -13.587 	 34.8234 	 31.4019
| 10> C 	 -13.3782 	 35.9137 	 32.2787
| 11> C 	 -13.5638 	 35.669 	 33.5662
| 12> H 	 -13.0064 	 36.8699 	 31.9764
| 13> C 	 -13.4765 	 34.9758 	 29.8879
| 14> H 	 -13.5022 	 35.9981 	 29.6588
| 15> H 	 -14.2955 	 34.5144 	 29.3895
| 16> C 	 -12.1395 	 34.4917 	 29.2869
| 17> H 	 -11.3416 	 35.1689 	 29.6942
| 18> H 	 -11.8404 	 33.5357 	 29.7595
| 19> C 	 -12.1008 	 34.4503 	 27.7033
| 20> H 	 -11.1971 	 34.0175 	 27.3301
| 21> H 	 -12.8733 	 33.7934 	 27.2564
| 22> H 	 -12.1707 	 35.3936 	 27.2175
| 23> S 	 -11.8218 	 37.2229 	 35.1089
| 24> C 	 -12.5659 	 38.2829 	 36.3165
| 25> C 	 -13.9449 	 38.052 	 36.4139
| 26> C 	 -14.421 	 37.0863 	 35.5186
| 27> C 	 -13.4279 	 36.6099 	 34.6757
| 28> H 	 -14.4978 	 38.5727 	 37.0926
| 29> C 	 -15.9191 	 36.8025 	 35.3971
| 30> H 	 -16.4261 	 36.7926 	 36.399
| 31> H 	 -15.9088 	 35.7345 	 35.0663
| 32> C 	 -16.657 	 37.7179 	 34.4714
| 33> H 	 -17.6019 	 37.2004 	 34.3032
| 34> H 	 -16.4715 	 37.6804 	 33.4092
| 35> C 	 -17.0066 	 39.091 	 35.0776
| 36> H 	 -17.3433 	 39.7492 	 34.2846
| 37> H 	 -16.1717 	 39.6657 	 35.4994
| 38> H 	 -17.7273 	 39.0674 	 35.9117
| 39> H 	 -14.0143 	 32.7117 	 31.6134
| 40> H 	 -12.0811 	 39.11 	 36.8043
| 41> *
| 42>
| 43>                          ****END OF INPUT****

CARTESIAN COORDINATES (ANGSTROEM)
---------------------------------
  S    -14.033100   33.949900   33.811400
  C    -13.832100   33.638400   32.114800
  C    -13.587000   34.823400   31.401900
  C    -13.378200   35.913700   32.278700
  C    -13.563800   35.669000   33.566200
  H    -13.006400   36.869900   31.976400
  C    -13.476500   34.975800   29.887900
  H    -13.502200   35.998100   29.658800
  H    -14.295500   34.514400   29.389500
  C    -12.139500   34.491700   29.286900
  H    -11.341600   35.168900   29.694200
  H    -11.840400   33.535700   29.759500
  C    -12.100800   34.450300   27.703300
  H    -11.197100   34.017500   27.330100
  H    -12.873300   33.793400   27.256400
  H    -12.170700   35.393600   27.217500
  S    -11.821800   37.222900   35.108900
  C    -12.565900   38.282900   36.316500
  C    -13.944900   38.052000   36.413900
  C    -14.421000   37.086300   35.518600
  C    -13.427900   36.609900   34.675700
  H    -14.497800   38.572700   37.092600
  C    -15.919100   36.802500   35.397100
  H    -16.426100   36.792600   36.399000
  H    -15.908800   35.734500   35.066300
  C    -16.657000   37.717900   34.471400
  H    -17.601900   37.200400   34.303200
  H    -16.471500   37.680400   33.409200
  C    -17.006600   39.091000   35.077600
  H    -17.343300   39.749200   34.284600
  H    -16.171700   39.665700   35.499400
  H    -17.727300   39.067400   35.911700
  H    -14.014300   32.711700   31.613400
  H    -12.081100   39.110000   36.804300

 Total Charge           Charge          ....    0
 Multiplicity           Mult            ....    1
 Number of Electrons    NEL             ....  134
 Basis Dimension        Dim             ....  322

ORBITAL ENERGIES
----------------

  NO   OCC          E(Eh)            E(eV)
   0   2.0000     -88.967841     -2420.9380
   1   2.0000     -88.966117     -2420.8911
   2   2.0000     -10.324185      -280.9354
   3   2.0000     -10.323683      -280.9217
   4   2.0000     -10.317652      -280.7576
   5   2.0000     -10.315459      -280.6979
   6   2.0000     -10.301055      -280.3059
   7   2.0000     -10.296950      -280.1943
   8   2.0000     -10.295209      -280.1469
   9   2.0000     -10.294245      -280.1206
  10   2.0000     -10.286110      -279.8993
  11   2.0000     -10.286064      -279.8980
  12   2.0000     -10.284804      -279.8638
  13   2.0000     -10.282745      -279.8077
  14   2.0000     -10.280563      -279.7483
  15   2.0000     -10.279499      -279.7194
  16   2.0000      -8.081580      -219.9110
  17   2.0000      -8.080088      -219.8704
  18   2.0000      -6.040063      -164.3585
  19   2.0000      -6.038660      -164.3203
  20   2.0000      -6.036231      -164.2542
  21   2.0000      -6.034726      -164.2132
  22   2.0000      -6.032447      -164.1512
  23   2.0000      -6.030793      -164.1062
  24   2.0000      -1.004400       -27.3311
  25   2.0000      -0.981627       -26.7114
  26   2.0000      -0.908620       -24.7248
  27   2.0000      -0.905363       -24.6362
  28   2.0000      -0.867652       -23.6100
  29   2.0000      -0.848784       -23.0966
  30   2.0000      -0.845702       -23.0127
  31   2.0000      -0.815089       -22.1797
  32   2.0000      -0.784695       -21.3526
  33   2.0000      -0.772010       -21.0075
  34   2.0000      -0.711041       -19.3484
  35   2.0000      -0.704515       -19.1708
  36   2.0000      -0.693143       -18.8614
  37   2.0000      -0.668314       -18.1858
  38   2.0000      -0.644075       -17.5262
  39   2.0000      -0.621649       -16.9159
  40   2.0000      -0.590208       -16.0604
  41   2.0000      -0.569687       -15.5020
  42   2.0000      -0.557894       -15.1811
  43   2.0000      -0.553457       -15.0603
  44   2.0000      -0.533864       -14.5272
  45   2.0000      -0.521460       -14.1897
  46   2.0000      -0.513957       -13.9855
  47   2.0000      -0.509299       -13.8587
  48   2.0000      -0.505348       -13.7512
  49   2.0000      -0.494449       -13.4547
  50   2.0000      -0.490011       -13.3339
  51   2.0000      -0.482285       -13.1236
  52   2.0000      -0.473840       -12.8938
  53   2.0000      -0.468344       -12.7443
  54   2.0000      -0.459806       -12.5120
  55   2.0000      -0.449246       -12.2246
  56   2.0000      -0.443832       -12.0773
  57   2.0000      -0.437934       -11.9168
  58   2.0000      -0.433069       -11.7844
  59   2.0000      -0.427757       -11.6399
  60   2.0000      -0.424235       -11.5440
  61   2.0000      -0.417268       -11.3544
  62   2.0000      -0.394887       -10.7454
  63   2.0000      -0.342598        -9.3226
  64   2.0000      -0.334861        -9.1120
  65   2.0000      -0.323862        -8.8127
  66   2.0000      -0.297110        -8.0848
  67   0.0000       0.034692         0.9440
  68   0.0000       0.059677         1.6239
  69   0.0000       0.108980         2.9655
  70   0.0000       0.112997         3.0748
  71   0.0000       0.135321         3.6823

MULLIKEN ATOMIC CHARGES
-----------------------
   0 S :    0.109631
   1 C :   -0.108137
   2 C :   -0.108249
   3 C :    0.042482
   4 C :   -0.151655
   5 H :    0.001418
   6 C :    0.124740
   7 H :    0.002415
   8 H :    0.019573
   9 C :   -0.102093
  10 H :    0.029290
  11 H :    0.027981
  12 C :   -0.030652
  13 H :    0.025549
  14 H :    0.030429
  15 H :    0.028726
  16 S :    0.116745
  17 C :   -0.095203
  18 C :   -0.008551
  19 C :   -0.007715
  20 C :   -0.187371
  21 H :   -0.020878
  22 C :    0.063798
  23 H :    0.032181
  24 H :    0.020313
  25 C :   -0.024346
  26 H :    0.015490
  27 H :    0.021105
  28 C :   -0.055826
  29 H :    0.031538
  30 H :    0.028371
  31 H :    0.033011
  32 H :    0.040564
  33 H :    0.055324
Sum of atomic charges:   -0.0000000

LOEWDIN ATOMIC CHARGES
----------------------
   0 S :    0.392380
   1 C :   -0.191791
   2 C :   -0.060605
   3 C :   -0.056971
   4 C :   -0.179538
   5 H :    0.030987
   6 C :   -0.026313
   7 H :    0.023244
   8 H :    0.025449
   9 C :   -0.040801
  10 H :    0.028223
  11 H :    0.022581
  12 C :   -0.067605
  13 H :    0.025128
  14 H :    0.028477
  15 H :    0.021431
  16 S :    0.395224
  17 C :   -0.177962
  18 C :   -0.057730
  19 C :   -0.054379
  20 C :   -0.196100
  21 H :    0.013322
  22 C :   -0.034425
  23 H :    0.036940
  24 H :    0.027893
  25 C :   -0.052139
  26 H :    0.032925
  27 H :    0.030615
  28 C :   -0.069466
  29 H :    0.028928
  30 H :    0.024032
  31 H :    0.026524
  32 H :    0.024587
  33 H :    0.026935

  Mayer bond orders larger than 0.100000
B(  0-S ,  1-C ) :   1.1488 B(  0-S ,  4-C ) :   1.1127 B(  1-C ,  2-C ) :   1.6079
B(  1-C , 32-H ) :   0.9700 B(  2-C ,  3-C ) :   1.2317 B(  2-C ,  6-C ) :   1.0280
B(  3-C ,  4-C ) :   1.6281 B(  3-C ,  5-H ) :   0.9952 B(  4-C , 20-C ) :   1.0245
B(  6-C ,  7-H ) :   0.9368 B(  6-C ,  8-H ) :   0.9396 B(  6-C ,  9-C ) :   1.0545
B(  9-C , 10-H ) :   0.9559 B(  9-C , 11-H ) :   0.9638 B(  9-C , 12-C ) :   1.0655
B( 12-C , 13-H ) :   0.9748 B( 12-C , 14-H ) :   0.9763 B( 12-C , 15-H ) :   0.9776
B( 16-S , 17-C ) :   1.1529 B( 16-S , 20-C ) :   1.1440 B( 17-C , 18-C ) :   1.5914
B( 17-C , 20-C ) :   0.1083 B( 17-C , 33-H ) :   0.9672 B( 18-C , 19-C ) :   1.2552
B( 18-C , 21-H ) :   1.0024 B( 19-C , 20-C ) :   1.5806 B( 19-C , 22-C ) :   1.0446
B( 22-C , 23-H ) :   0.9367 B( 22-C , 24-H ) :   0.9148 B( 22-C , 25-C ) :   1.0868
B( 25-C , 26-H ) :   0.9370 B( 25-C , 27-H ) :   0.9520 B( 25-C , 28-C ) :   1.0664
B( 28-C , 29-H ) :   0.9712 B( 28-C , 30-H ) :   0.9748 B( 28-C , 31-H ) :   0.9756

Dispersion correction           -0.014465010
FINAL SINGLE POINT ENERGY     -1339.870070267797

DIPOLE MOMENT
-------------
                                X             Y             Z
Electronic contribution:      9.96669      -5.20995      17.50950
Nuclear contribution   :    -10.30009       5.49093     -17.94557
                        -----------------------------------------
Total Dipole Moment    :     -0.33340       0.28098      -0.43607
                        -----------------------------------------
Magnitude (a.u.)       :      0.61665
Magnitude (Debye)      :      1.56741

Rotational constants in cm-1:     0.021402     0.007206     0.006638
Rotational constants in MHz :   641.604564   216.028905   199.006960

                             ****ORCA TERMINATED NORMALLY****
TOTAL RUN TIME: 0 days 0 hours 0 minutes 34 seconds 157 msec
