                         Program Version 4.2.1 -  RELEASE  -
|  1> ! wB97X-D3 SP def2-SVP
|  2> %pal
|  3> nprocs 16
|  4> end
|  5>
|  6> * xyz 0 1
|  7> S 	 1.53945 	 0.204439 	 80.8724
|  8> C 	 1.46707 	 0.239574 	 82.6563
|  9> C 	 1.08582 	 -0.979326 	 83.1698
| 10> C 	 0.804866 	 -1.97811 	 82.133
| 11> C 	 0.875698 	 -1.51077 	 80.8727
| 12> H 	 0.394418 	 -2.98738 	 82.4365
| 13> C 	 0.853065 	 -1.28875 	 84.6583
| 14> H 	 0.0363288 	 -1.94566 	 84.554
| 15> H 	 0.405747 	 -0.501297 	 85.224
| 16> C 	 2.11987 	 -1.78433 	 85.3935
| 17> H 	 1.97667 	 -2.10118 	 86.4891
| 18> H 	 2.55648 	 -2.6685 	 84.8825
| 19> C 	 3.15646 	 -0.669914 	 85.4215
| 20> H 	 4.02917 	 -1.15466 	 85.892
| 21> H 	 3.45878 	 -0.310524 	 84.4581
| 22> H 	 2.84782 	 0.192277 	 86.0173
| 23> S 	 -0.429042 	 -1.67847 	 78.4739
| 24> C 	 -0.096304 	 -3.01111 	 77.4138
| 25> C 	 0.826688 	 -3.88195 	 77.9555
| 26> C 	 1.26071 	 -3.43139 	 79.262
| 27> C 	 0.651881 	 -2.24665 	 79.6239
| 28> H 	 1.19192 	 -4.76609 	 77.4087
| 29> C 	 2.42358 	 -4.12901 	 80.0001
| 30> H 	 2.93703 	 -3.28113 	 80.5221
| 31> H 	 3.0287 	 -4.51214 	 79.1622
| 32> C 	 2.02767 	 -5.29323 	 80.8891
| 33> H 	 1.39044 	 -4.94212 	 81.6609
| 34> H 	 3.00091 	 -5.61428 	 81.3463
| 35> C 	 1.43302 	 -6.49743 	 80.1308
| 36> H 	 1.19813 	 -7.40941 	 80.7261
| 37> H 	 1.99581 	 -6.7995 	 79.2293
| 38> H 	 0.520609 	 -6.16094 	 79.6705
| 39> H 	 1.7053 	 1.11796 	 83.2605
| 40> H 	 -0.751502 	 -3.26478 	 76.5503
| 41> *
| 42>
| 43>                          ****END OF INPUT****

CARTESIAN COORDINATES (ANGSTROEM)
---------------------------------
  S      1.539450    0.204439   80.872400
  C      1.467070    0.239574   82.656300
  C      1.085820   -0.979326   83.169800
  C      0.804866   -1.978110   82.133000
  C      0.875698   -1.510770   80.872700
  H      0.394418   -2.987380   82.436500
  C      0.853065   -1.288750   84.658300
  H      0.036329   -1.945660   84.554000
  H      0.405747   -0.501297   85.224000
  C      2.119870   -1.784330   85.393500
  H      1.976670   -2.101180   86.489100
  H      2.556480   -2.668500   84.882500
  C      3.156460   -0.669914   85.421500
  H      4.029170   -1.154660   85.892000
  H      3.458780   -0.310524   84.458100
  H      2.847820    0.192277   86.017300
  S     -0.429042   -1.678470   78.473900
  C     -0.096304   -3.011110   77.413800
  C      0.826688   -3.881950   77.955500
  C      1.260710   -3.431390   79.262000
  C      0.651881   -2.246650   79.623900
  H      1.191920   -4.766090   77.408700
  C      2.423580   -4.129010   80.000100
  H      2.937030   -3.281130   80.522100
  H      3.028700   -4.512140   79.162200
  C      2.027670   -5.293230   80.889100
  H      1.390440   -4.942120   81.660900
  H      3.000910   -5.614280   81.346300
  C      1.433020   -6.497430   80.130800
  H      1.198130   -7.409410   80.726100
  H      1.995810   -6.799500   79.229300
  H      0.520609   -6.160940   79.670500
  H      1.705300    1.117960   83.260500
  H     -0.751502   -3.264780   76.550300

 Total Charge           Charge          ....    0
 Multiplicity           Mult            ....    1
 Number of Electrons    NEL             ....  134
 Basis Dimension        Dim             ....  322

ORBITAL ENERGIES
----------------

  NO   OCC          E(Eh)            E(eV)
   0   2.0000     -88.967112     -2420.9182
   1   2.0000     -88.963933     -2420.8317
   2   2.0000     -10.335521      -281.2438
   3   2.0000     -10.320522      -280.8357
   4   2.0000     -10.319078      -280.7964
   5   2.0000     -10.318974      -280.7936
   6   2.0000     -10.304965      -280.4124
   7   2.0000     -10.302813      -280.3538
   8   2.0000     -10.301785      -280.3258
   9   2.0000     -10.298341      -280.2321
  10   2.0000     -10.296426      -280.1800
  11   2.0000     -10.294455      -280.1264
  12   2.0000     -10.289120      -279.9812
  13   2.0000     -10.288415      -279.9620
  14   2.0000     -10.280902      -279.7576
  15   2.0000     -10.274053      -279.5712
  16   2.0000      -8.083501      -219.9632
  17   2.0000      -8.077119      -219.7896
  18   2.0000      -6.041811      -164.4060
  19   2.0000      -6.037744      -164.2954
  20   2.0000      -6.035931      -164.2460
  21   2.0000      -6.034393      -164.2042
  22   2.0000      -6.032020      -164.1396
  23   2.0000      -6.027472      -164.0158
  24   2.0000      -1.011024       -27.5114
  25   2.0000      -0.979223       -26.6460
  26   2.0000      -0.910340       -24.7716
  27   2.0000      -0.909513       -24.7491
  28   2.0000      -0.869071       -23.6486
  29   2.0000      -0.848619       -23.0921
  30   2.0000      -0.842006       -22.9121
  31   2.0000      -0.816135       -22.2082
  32   2.0000      -0.782732       -21.2992
  33   2.0000      -0.773040       -21.0355
  34   2.0000      -0.707478       -19.2515
  35   2.0000      -0.694546       -18.8996
  36   2.0000      -0.690087       -18.7782
  37   2.0000      -0.664165       -18.0728
  38   2.0000      -0.638132       -17.3644
  39   2.0000      -0.619710       -16.8632
  40   2.0000      -0.589252       -16.0344
  41   2.0000      -0.568913       -15.4809
  42   2.0000      -0.557292       -15.1647
  43   2.0000      -0.549003       -14.9391
  44   2.0000      -0.542545       -14.7634
  45   2.0000      -0.539794       -14.6886
  46   2.0000      -0.515839       -14.0367
  47   2.0000      -0.510143       -13.8817
  48   2.0000      -0.499778       -13.5997
  49   2.0000      -0.496846       -13.5199
  50   2.0000      -0.486751       -13.2452
  51   2.0000      -0.473130       -12.8745
  52   2.0000      -0.470249       -12.7961
  53   2.0000      -0.465550       -12.6683
  54   2.0000      -0.460462       -12.5298
  55   2.0000      -0.449316       -12.2265
  56   2.0000      -0.441977       -12.0268
  57   2.0000      -0.440020       -11.9735
  58   2.0000      -0.430237       -11.7073
  59   2.0000      -0.429648       -11.6913
  60   2.0000      -0.426365       -11.6020
  61   2.0000      -0.410008       -11.1569
  62   2.0000      -0.405658       -11.0385
  63   2.0000      -0.349900        -9.5213
  64   2.0000      -0.331239        -9.0135
  65   2.0000      -0.329730        -8.9724
  66   2.0000      -0.300368        -8.1734
  67   0.0000       0.034733         0.9451
  68   0.0000       0.066513         1.8099
  69   0.0000       0.108660         2.9568
  70   0.0000       0.118275         3.2184
  71   0.0000       0.122486         3.3330

MULLIKEN ATOMIC CHARGES
-----------------------
   0 S :    0.080250
   1 C :   -0.118388
   2 C :   -0.126327
   3 C :    0.012944
   4 C :   -0.134792
   5 H :    0.045055
   6 C :    0.100357
   7 H :    0.006764
   8 H :    0.018142
   9 C :   -0.082218
  10 H :    0.044244
  11 H :    0.032492
  12 C :   -0.060011
  13 H :    0.033463
  14 H :    0.036946
  15 H :    0.028653
  16 S :    0.129952
  17 C :   -0.113199
  18 C :   -0.044869
  19 C :   -0.062757
  20 C :   -0.169993
  21 H :    0.031885
  22 C :    0.037356
  23 H :    0.054946
  24 H :    0.027143
  25 C :   -0.016979
  26 H :    0.013558
  27 H :    0.035655
  28 C :   -0.071895
  29 H :    0.049575
  30 H :    0.023488
  31 H :    0.025765
  32 H :    0.057443
  33 H :    0.075349
Sum of atomic charges:   -0.0000000

LOEWDIN ATOMIC CHARGES
----------------------
   0 S :    0.340985
   1 C :   -0.180499
   2 C :   -0.061068
   3 C :   -0.065961
   4 C :   -0.160823
   5 H :    0.042492
   6 C :   -0.032244
   7 H :    0.022978
   8 H :    0.027957
   9 C :   -0.042807
  10 H :    0.032960
  11 H :    0.025592
  12 C :   -0.066849
  13 H :    0.030547
  14 H :    0.019429
  15 H :    0.022661
  16 S :    0.447540
  17 C :   -0.200203
  18 C :   -0.075466
  19 C :   -0.057162
  20 C :   -0.234256
  21 H :    0.036354
  22 C :   -0.031530
  23 H :    0.041097
  24 H :    0.032238
  25 C :   -0.036363
  26 H :    0.015314
  27 H :    0.029916
  28 C :   -0.073360
  29 H :    0.032922
  30 H :    0.025082
  31 H :    0.022083
  32 H :    0.032121
  33 H :    0.038323

  Mayer bond orders larger than 0.100000
B(  0-S ,  1-C ) :   1.1080 B(  0-S ,  4-C ) :   1.1061 B(  1-C ,  2-C ) :   1.6660
B(  1-C , 32-H ) :   0.9640 B(  2-C ,  3-C ) :   1.1998 B(  2-C ,  6-C ) :   1.0016
B(  3-C ,  4-C ) :   1.6503 B(  3-C ,  5-H ) :   0.9731 B(  4-C , 20-C ) :   1.0156
B(  6-C ,  7-H ) :   0.9399 B(  6-C ,  8-H ) :   0.9498 B(  6-C ,  9-C ) :   1.0542
B(  9-C , 10-H ) :   0.9573 B(  9-C , 11-H ) :   0.9575 B(  9-C , 12-C ) :   1.0761
B( 12-C , 13-H ) :   0.9719 B( 12-C , 14-H ) :   0.9723 B( 12-C , 15-H ) :   0.9755
B( 16-S , 17-C ) :   1.1667 B( 16-S , 20-C ) :   1.1659 B( 17-C , 18-C ) :   1.5998
B( 17-C , 33-H ) :   0.9600 B( 18-C , 19-C ) :   1.2560 B( 18-C , 21-H ) :   0.9839
B( 19-C , 20-C ) :   1.5874 B( 19-C , 22-C ) :   1.0168 B( 22-C , 23-H ) :   0.9330
B( 22-C , 24-H ) :   0.9401 B( 22-C , 25-C ) :   1.0751 B( 25-C , 26-H ) :   0.9529
B( 25-C , 27-H ) :   0.9527 B( 25-C , 28-C ) :   1.0694 B( 28-C , 29-H ) :   0.9739
B( 28-C , 30-H ) :   0.9733 B( 28-C , 31-H ) :   0.9706

Dispersion correction           -0.015208126
FINAL SINGLE POINT ENERGY     -1339.884108724221

DIPOLE MOMENT
-------------
                                X             Y             Z
Electronic contribution:    -10.06322      16.52713     -19.62247
Nuclear contribution   :     10.11403     -17.05902      19.99602
                        -----------------------------------------
Total Dipole Moment    :      0.05081      -0.53189       0.37356
                        -----------------------------------------
Magnitude (a.u.)       :      0.65195
Magnitude (Debye)      :      1.65712

Rotational constants in cm-1:     0.020214     0.008937     0.006774
Rotational constants in MHz :   605.987943   267.923144   203.089124

                             ****ORCA TERMINATED NORMALLY****
TOTAL RUN TIME: 0 days 0 hours 0 minutes 35 seconds 920 msec
