                         Program Version 4.2.1 -  RELEASE  -
|  1> ! wB97X-D3 SP def2-SVP
|  2> %pal
|  3> nprocs 16
|  4> end
|  5>
|  6> * xyz 0 1
|  7> S 	 40.3146 	 31.8021 	 50.151
|  8> C 	 41.7914 	 31.5747 	 50.9766
|  9> C 	 41.5052 	 31.0985 	 52.2684
| 10> C 	 40.0982 	 30.8149 	 52.5218
| 11> C 	 39.2761 	 31.1357 	 51.391
| 12> H 	 39.6758 	 30.4533 	 53.4566
| 13> C 	 42.5965 	 30.8781 	 53.3028
| 14> H 	 43.4731 	 31.1992 	 52.7025
| 15> H 	 42.5958 	 29.8091 	 53.3315
| 16> C 	 42.5656 	 31.5615 	 54.614
| 17> H 	 41.7088 	 31.3089 	 55.2607
| 18> H 	 43.5579 	 31.4647 	 55.1007
| 19> C 	 42.5637 	 33.1115 	 54.4144
| 20> H 	 43.4541 	 33.5008 	 53.9023
| 21> H 	 41.7152 	 33.5549 	 53.7874
| 22> H 	 42.4968 	 33.6252 	 55.3851
| 23> S 	 37.3288 	 29.3407 	 52.0031
| 24> C 	 35.6149 	 29.7434 	 51.7785
| 25> C 	 35.5044 	 30.9062 	 51.0339
| 26> C 	 36.7393 	 31.4391 	 50.5605
| 27> C 	 37.8559 	 30.8504 	 51.2238
| 28> H 	 34.5248 	 31.1227 	 50.8218
| 29> C 	 36.8607 	 32.8003 	 49.8258
| 30> H 	 36.1271 	 32.9687 	 49.0706
| 31> H 	 37.8847 	 32.8249 	 49.335
| 32> C 	 36.6641 	 33.9649 	 50.7583
| 33> H 	 37.4003 	 33.9615 	 51.5306
| 34> H 	 35.6834 	 33.9277 	 51.2413
| 35> C 	 36.6885 	 35.3952 	 50.0926
| 36> H 	 37.5722 	 35.3815 	 49.4283
| 37> H 	 36.8911 	 36.0749 	 50.8795
| 38> H 	 35.785 	 35.5975 	 49.5529
| 39> H 	 42.7941 	 31.8108 	 50.7265
| 40> H 	 34.7679 	 29.0928 	 51.9896
| 41> *
| 42>
| 43>                          ****END OF INPUT****

CARTESIAN COORDINATES (ANGSTROEM)
---------------------------------
  S     40.314600   31.802100   50.151000
  C     41.791400   31.574700   50.976600
  C     41.505200   31.098500   52.268400
  C     40.098200   30.814900   52.521800
  C     39.276100   31.135700   51.391000
  H     39.675800   30.453300   53.456600
  C     42.596500   30.878100   53.302800
  H     43.473100   31.199200   52.702500
  H     42.595800   29.809100   53.331500
  C     42.565600   31.561500   54.614000
  H     41.708800   31.308900   55.260700
  H     43.557900   31.464700   55.100700
  C     42.563700   33.111500   54.414400
  H     43.454100   33.500800   53.902300
  H     41.715200   33.554900   53.787400
  H     42.496800   33.625200   55.385100
  S     37.328800   29.340700   52.003100
  C     35.614900   29.743400   51.778500
  C     35.504400   30.906200   51.033900
  C     36.739300   31.439100   50.560500
  C     37.855900   30.850400   51.223800
  H     34.524800   31.122700   50.821800
  C     36.860700   32.800300   49.825800
  H     36.127100   32.968700   49.070600
  H     37.884700   32.824900   49.335000
  C     36.664100   33.964900   50.758300
  H     37.400300   33.961500   51.530600
  H     35.683400   33.927700   51.241300
  C     36.688500   35.395200   50.092600
  H     37.572200   35.381500   49.428300
  H     36.891100   36.074900   50.879500
  H     35.785000   35.597500   49.552900
  H     42.794100   31.810800   50.726500
  H     34.767900   29.092800   51.989600

 Total Charge           Charge          ....    0
 Multiplicity           Mult            ....    1
 Number of Electrons    NEL             ....  134
 Basis Dimension        Dim             ....  322

ORBITAL ENERGIES
----------------

  NO   OCC          E(Eh)            E(eV)
   0   2.0000     -88.970723     -2421.0165
   1   2.0000     -88.966226     -2420.8941
   2   2.0000     -10.341047      -281.3942
   3   2.0000     -10.338564      -281.3266
   4   2.0000     -10.319771      -280.8153
   5   2.0000     -10.313981      -280.6577
   6   2.0000     -10.313516      -280.6450
   7   2.0000     -10.304888      -280.4103
   8   2.0000     -10.303331      -280.3679
   9   2.0000     -10.293785      -280.1081
  10   2.0000     -10.293205      -280.0923
  11   2.0000     -10.291926      -280.0576
  12   2.0000     -10.288656      -279.9686
  13   2.0000     -10.281536      -279.7748
  14   2.0000     -10.278211      -279.6843
  15   2.0000     -10.273526      -279.5569
  16   2.0000      -8.085218      -220.0100
  17   2.0000      -8.079910      -219.8655
  18   2.0000      -6.043840      -164.4613
  19   2.0000      -6.039499      -164.3431
  20   2.0000      -6.038469      -164.3151
  21   2.0000      -6.036132      -164.2515
  22   2.0000      -6.034523      -164.2077
  23   2.0000      -6.030704      -164.1038
  24   2.0000      -1.003396       -27.3038
  25   2.0000      -0.981602       -26.7107
  26   2.0000      -0.916541       -24.9404
  27   2.0000      -0.906146       -24.6575
  28   2.0000      -0.873314       -23.7641
  29   2.0000      -0.846837       -23.0436
  30   2.0000      -0.839537       -22.8450
  31   2.0000      -0.815828       -22.1998
  32   2.0000      -0.781170       -21.2567
  33   2.0000      -0.770326       -20.9616
  34   2.0000      -0.714242       -19.4355
  35   2.0000      -0.696380       -18.9495
  36   2.0000      -0.687610       -18.7108
  37   2.0000      -0.663765       -18.0620
  38   2.0000      -0.634343       -17.2613
  39   2.0000      -0.618203       -16.8222
  40   2.0000      -0.592480       -16.1222
  41   2.0000      -0.573893       -15.6164
  42   2.0000      -0.569978       -15.5099
  43   2.0000      -0.558327       -15.1928
  44   2.0000      -0.546290       -14.8653
  45   2.0000      -0.524295       -14.2668
  46   2.0000      -0.519806       -14.1446
  47   2.0000      -0.515508       -14.0277
  48   2.0000      -0.514961       -14.0128
  49   2.0000      -0.491009       -13.3610
  50   2.0000      -0.489308       -13.3147
  51   2.0000      -0.476908       -12.9773
  52   2.0000      -0.473462       -12.8835
  53   2.0000      -0.461680       -12.5630
  54   2.0000      -0.454651       -12.3717
  55   2.0000      -0.443315       -12.0632
  56   2.0000      -0.442123       -12.0308
  57   2.0000      -0.435313       -11.8455
  58   2.0000      -0.431508       -11.7419
  59   2.0000      -0.426763       -11.6128
  60   2.0000      -0.417214       -11.3530
  61   2.0000      -0.410440       -11.1686
  62   2.0000      -0.404568       -11.0088
  63   2.0000      -0.356506        -9.7010
  64   2.0000      -0.332390        -9.0448
  65   2.0000      -0.326581        -8.8867
  66   2.0000      -0.283607        -7.7173
  67   0.0000       0.015081         0.4104
  68   0.0000       0.077189         2.1004
  69   0.0000       0.104648         2.8476
  70   0.0000       0.116746         3.1768
  71   0.0000       0.131860         3.5881

MULLIKEN ATOMIC CHARGES
-----------------------
   0 S :    0.110698
   1 C :   -0.078138
   2 C :   -0.166793
   3 C :    0.012695
   4 C :   -0.123428
   5 H :    0.024309
   6 C :    0.092506
   7 H :    0.002805
   8 H :    0.038400
   9 C :   -0.036084
  10 H :    0.046972
  11 H :    0.045146
  12 C :   -0.120738
  13 H :    0.026709
  14 H :    0.049342
  15 H :    0.036169
  16 S :    0.092877
  17 C :   -0.105919
  18 C :   -0.014693
  19 C :   -0.000112
  20 C :   -0.150092
  21 H :   -0.009567
  22 C :    0.051083
  23 H :    0.014008
  24 H :    0.036474
  25 C :   -0.089260
  26 H :    0.021602
  27 H :    0.023872
  28 C :   -0.029384
  29 H :    0.028310
  30 H :    0.031146
  31 H :    0.037305
  32 H :    0.036488
  33 H :    0.065293
Sum of atomic charges:    0.0000000

LOEWDIN ATOMIC CHARGES
----------------------
   0 S :    0.437501
   1 C :   -0.219480
   2 C :   -0.058481
   3 C :   -0.073101
   4 C :   -0.199292
   5 H :    0.029094
   6 C :   -0.038812
   7 H :    0.031895
   8 H :    0.032268
   9 C :   -0.042999
  10 H :    0.030139
  11 H :    0.039013
  12 C :   -0.078296
  13 H :    0.021463
  14 H :    0.031138
  15 H :    0.024940
  16 S :    0.394804
  17 C :   -0.181593
  18 C :   -0.061360
  19 C :   -0.051771
  20 C :   -0.179190
  21 H :    0.019087
  22 C :   -0.036271
  23 H :    0.025408
  24 H :    0.027023
  25 C :   -0.038039
  26 H :    0.017754
  27 H :    0.022968
  28 C :   -0.057542
  29 H :    0.026400
  30 H :    0.023930
  31 H :    0.020589
  32 H :    0.026695
  33 H :    0.034116

  Mayer bond orders larger than 0.100000
B(  0-S ,  1-C ) :   1.1439 B(  0-S ,  4-C ) :   1.1664 B(  1-C ,  2-C ) :   1.5800
B(  1-C , 32-H ) :   0.9672 B(  2-C ,  3-C ) :   1.2656 B(  2-C ,  6-C ) :   1.0101
B(  3-C ,  4-C ) :   1.4994 B(  3-C ,  5-H ) :   0.9897 B(  4-C , 20-C ) :   1.0879
B(  6-C ,  7-H ) :   0.9355 B(  6-C ,  8-H ) :   0.9335 B(  6-C ,  9-C ) :   1.0857
B(  9-C , 10-H ) :   0.9543 B(  9-C , 11-H ) :   0.9511 B(  9-C , 12-C ) :   1.0615
B( 12-C , 13-H ) :   0.9771 B( 12-C , 14-H ) :   0.9744 B( 12-C , 15-H ) :   0.9766
B( 16-S , 17-C ) :   1.1394 B( 16-S , 20-C ) :   1.1508 B( 17-C , 18-C ) :   1.6180
B( 17-C , 20-C ) :   0.1043 B( 17-C , 33-H ) :   0.9664 B( 18-C , 19-C ) :   1.2300
B( 18-C , 21-H ) :   1.0012 B( 19-C , 20-C ) :   1.5232 B( 19-C , 22-C ) :   1.0607
B( 22-C , 23-H ) :   0.9339 B( 22-C , 24-H ) :   0.9334 B( 22-C , 25-C ) :   1.0656
B( 25-C , 26-H ) :   0.9587 B( 25-C , 27-H ) :   0.9546 B( 25-C , 28-C ) :   1.0749
B( 28-C , 29-H ) :   0.9773 B( 28-C , 30-H ) :   0.9756 B( 28-C , 31-H ) :   0.9780

Dispersion correction           -0.014285026
FINAL SINGLE POINT ENERGY     -1339.860381732171

DIPOLE MOMENT
-------------
                                X             Y             Z
Electronic contribution:     -5.84322     -18.36898      -7.69106
Nuclear contribution   :      5.83341      18.60477       7.95214
                        -----------------------------------------
Total Dipole Moment    :     -0.00981       0.23579       0.26107
                        -----------------------------------------
Magnitude (a.u.)       :      0.35193
Magnitude (Debye)      :      0.89453

Rotational constants in cm-1:     0.018489     0.008517     0.007011
Rotational constants in MHz :   554.294344   255.338118   210.195718

                             ****ORCA TERMINATED NORMALLY****
TOTAL RUN TIME: 0 days 0 hours 0 minutes 34 seconds 460 msec
