                         Program Version 4.2.1 -  RELEASE  -
|  1> ! wB97X-D3 SP def2-SVP
|  2> %pal
|  3> nprocs 16
|  4> end
|  5>
|  6> * xyz 0 1
|  7> S 	 1.14029 	 12.697 	 82.1836
|  8> C 	 -0.621367 	 12.4538 	 82.1122
|  9> C 	 -1.11504 	 12.4365 	 83.449
| 10> C 	 -0.0831521 	 12.602 	 84.4281
| 11> C 	 1.17495 	 12.6529 	 83.9644
| 12> H 	 -0.171025 	 12.5817 	 85.489
| 13> C 	 -2.55158 	 12.2541 	 83.8368
| 14> H 	 -2.8608 	 13.2633 	 83.8469
| 15> H 	 -2.68968 	 11.7341 	 84.7877
| 16> C 	 -3.46369 	 11.5607 	 82.7799
| 17> H 	 -3.5299 	 12.0332 	 81.8074
| 18> H 	 -2.99222 	 10.6168 	 82.6028
| 19> C 	 -4.93195 	 11.4393 	 83.3393
| 20> H 	 -5.32362 	 12.3893 	 83.577
| 21> H 	 -5.57507 	 11.1053 	 82.521
| 22> H 	 -5.11738 	 10.8172 	 84.205
| 23> S 	 2.56654 	 11.4284 	 85.9921
| 24> C 	 4.0662 	 12.0174 	 86.5574
| 25> C 	 4.32703 	 13.2755 	 86.0304
| 26> C 	 3.40436 	 13.6685 	 84.9669
| 27> C 	 2.42502 	 12.6878 	 84.7856
| 28> H 	 5.10682 	 13.9827 	 86.2503
| 29> C 	 3.33703 	 14.9664 	 84.304
| 30> H 	 2.84844 	 14.7683 	 83.3838
| 31> H 	 4.33307 	 15.3279 	 83.9964
| 32> C 	 2.60765 	 16.1084 	 85.1692
| 33> H 	 3.07931 	 16.2052 	 86.1526
| 34> H 	 1.64952 	 15.6819 	 85.2656
| 35> C 	 2.34948 	 17.5086 	 84.4715
| 36> H 	 1.81457 	 17.2653 	 83.6275
| 37> H 	 3.29456 	 17.9562 	 84.2548
| 38> H 	 1.72755 	 18.1837 	 84.9091
| 39> H 	 -1.16098 	 12.3857 	 81.1362
| 40> H 	 4.6176 	 11.5009 	 87.3145
| 41> *
| 42>
| 43>                          ****END OF INPUT****

CARTESIAN COORDINATES (ANGSTROEM)
---------------------------------
  S      1.140290   12.697000   82.183600
  C     -0.621367   12.453800   82.112200
  C     -1.115040   12.436500   83.449000
  C     -0.083152   12.602000   84.428100
  C      1.174950   12.652900   83.964400
  H     -0.171025   12.581700   85.489000
  C     -2.551580   12.254100   83.836800
  H     -2.860800   13.263300   83.846900
  H     -2.689680   11.734100   84.787700
  C     -3.463690   11.560700   82.779900
  H     -3.529900   12.033200   81.807400
  H     -2.992220   10.616800   82.602800
  C     -4.931950   11.439300   83.339300
  H     -5.323620   12.389300   83.577000
  H     -5.575070   11.105300   82.521000
  H     -5.117380   10.817200   84.205000
  S      2.566540   11.428400   85.992100
  C      4.066200   12.017400   86.557400
  C      4.327030   13.275500   86.030400
  C      3.404360   13.668500   84.966900
  C      2.425020   12.687800   84.785600
  H      5.106820   13.982700   86.250300
  C      3.337030   14.966400   84.304000
  H      2.848440   14.768300   83.383800
  H      4.333070   15.327900   83.996400
  C      2.607650   16.108400   85.169200
  H      3.079310   16.205200   86.152600
  H      1.649520   15.681900   85.265600
  C      2.349480   17.508600   84.471500
  H      1.814570   17.265300   83.627500
  H      3.294560   17.956200   84.254800
  H      1.727550   18.183700   84.909100
  H     -1.160980   12.385700   81.136200
  H      4.617600   11.500900   87.314500

 Total Charge           Charge          ....    0
 Multiplicity           Mult            ....    1
 Number of Electrons    NEL             ....  134
 Basis Dimension        Dim             ....  322

ORBITAL ENERGIES
----------------

  NO   OCC          E(Eh)            E(eV)
   0   2.0000     -88.966008     -2420.8881
   1   2.0000     -88.963234     -2420.8127
   2   2.0000     -10.331019      -281.1213
   3   2.0000     -10.328823      -281.0616
   4   2.0000     -10.324203      -280.9358
   5   2.0000     -10.318982      -280.7938
   6   2.0000     -10.308648      -280.5126
   7   2.0000     -10.303127      -280.3623
   8   2.0000     -10.297718      -280.2151
   9   2.0000     -10.289841      -280.0008
  10   2.0000     -10.289370      -279.9880
  11   2.0000     -10.288671      -279.9690
  12   2.0000     -10.288225      -279.9568
  13   2.0000     -10.287748      -279.9439
  14   2.0000     -10.277822      -279.6738
  15   2.0000     -10.263718      -279.2900
  16   2.0000      -8.081537      -219.9098
  17   2.0000      -8.076758      -219.7798
  18   2.0000      -6.039939      -164.3551
  19   2.0000      -6.035886      -164.2448
  20   2.0000      -6.035430      -164.2324
  21   2.0000      -6.032425      -164.1506
  22   2.0000      -6.031399      -164.1227
  23   2.0000      -6.027462      -164.0156
  24   2.0000      -1.005573       -27.3630
  25   2.0000      -0.982340       -26.7308
  26   2.0000      -0.910055       -24.7638
  27   2.0000      -0.905358       -24.6360
  28   2.0000      -0.864540       -23.5253
  29   2.0000      -0.852560       -23.1993
  30   2.0000      -0.846159       -23.0251
  31   2.0000      -0.814771       -22.1711
  32   2.0000      -0.784692       -21.3525
  33   2.0000      -0.768420       -20.9098
  34   2.0000      -0.715482       -19.4693
  35   2.0000      -0.708642       -19.2831
  36   2.0000      -0.689718       -18.7682
  37   2.0000      -0.665988       -18.1225
  38   2.0000      -0.642286       -17.4775
  39   2.0000      -0.611101       -16.6289
  40   2.0000      -0.598449       -16.2846
  41   2.0000      -0.578951       -15.7541
  42   2.0000      -0.565061       -15.3761
  43   2.0000      -0.560501       -15.2520
  44   2.0000      -0.525369       -14.2960
  45   2.0000      -0.523555       -14.2467
  46   2.0000      -0.519333       -14.1318
  47   2.0000      -0.513695       -13.9784
  48   2.0000      -0.508741       -13.8435
  49   2.0000      -0.500894       -13.6300
  50   2.0000      -0.493084       -13.4175
  51   2.0000      -0.483133       -13.1467
  52   2.0000      -0.469508       -12.7760
  53   2.0000      -0.460514       -12.5312
  54   2.0000      -0.458951       -12.4887
  55   2.0000      -0.457048       -12.4369
  56   2.0000      -0.448838       -12.2135
  57   2.0000      -0.437346       -11.9008
  58   2.0000      -0.430073       -11.7029
  59   2.0000      -0.427919       -11.6443
  60   2.0000      -0.422069       -11.4851
  61   2.0000      -0.414605       -11.2820
  62   2.0000      -0.412712       -11.2305
  63   2.0000      -0.345542        -9.4027
  64   2.0000      -0.328749        -8.9457
  65   2.0000      -0.324126        -8.8199
  66   2.0000      -0.296382        -8.0650
  67   0.0000       0.035716         0.9719
  68   0.0000       0.062578         1.7028
  69   0.0000       0.105868         2.8808
  70   0.0000       0.120372         3.2755
  71   0.0000       0.127977         3.4824

MULLIKEN ATOMIC CHARGES
-----------------------
   0 S :    0.091130
   1 C :   -0.157454
   2 C :   -0.083204
   3 C :    0.032742
   4 C :   -0.134972
   5 H :   -0.001156
   6 C :    0.074272
   7 H :    0.033996
   8 H :    0.041498
   9 C :   -0.093175
  10 H :    0.028599
  11 H :    0.030097
  12 C :   -0.032729
  13 H :    0.013753
  14 H :    0.029665
  15 H :    0.036250
  16 S :    0.108958
  17 C :   -0.076909
  18 C :   -0.004663
  19 C :   -0.068677
  20 C :   -0.171458
  21 H :    0.011037
  22 C :    0.093346
  23 H :   -0.000469
  24 H :    0.017419
  25 C :   -0.082221
  26 H :    0.033708
  27 H :    0.019921
  28 C :    0.026703
  29 H :    0.008799
  30 H :    0.026644
  31 H :    0.013689
  32 H :    0.075815
  33 H :    0.059047
Sum of atomic charges:   -0.0000000

LOEWDIN ATOMIC CHARGES
----------------------
   0 S :    0.376021
   1 C :   -0.206043
   2 C :   -0.055736
   3 C :   -0.072397
   4 C :   -0.179329
   5 H :    0.026286
   6 C :   -0.031767
   7 H :    0.034308
   8 H :    0.035045
   9 C :   -0.033579
  10 H :    0.022206
  11 H :    0.020431
  12 C :   -0.062701
  13 H :    0.018209
  14 H :    0.028973
  15 H :    0.024676
  16 S :    0.429842
  17 C :   -0.191804
  18 C :   -0.065533
  19 C :   -0.053475
  20 C :   -0.197915
  21 H :    0.028222
  22 C :   -0.033943
  23 H :    0.020161
  24 H :    0.027525
  25 C :   -0.023821
  26 H :    0.021559
  27 H :    0.018613
  28 C :   -0.049722
  29 H :    0.020346
  30 H :    0.022426
  31 H :    0.016223
  32 H :    0.039582
  33 H :    0.027109

  Mayer bond orders larger than 0.100000
B(  0-S ,  1-C ) :   1.1263 B(  0-S ,  4-C ) :   1.1339 B(  1-C ,  2-C ) :   1.5895
B(  1-C , 32-H ) :   0.9670 B(  2-C ,  3-C ) :   1.2225 B(  2-C ,  6-C ) :   1.0152
B(  3-C ,  4-C ) :   1.6167 B(  3-C ,  5-H ) :   0.9979 B(  4-C , 20-C ) :   0.9961
B(  6-C ,  7-H ) :   0.9214 B(  6-C ,  8-H ) :   0.9540 B(  6-C ,  9-C ) :   1.0765
B(  9-C , 10-H ) :   0.9492 B(  9-C , 11-H ) :   0.9623 B(  9-C , 12-C ) :   1.0786
B( 12-C , 13-H ) :   0.9743 B( 12-C , 14-H ) :   0.9746 B( 12-C , 15-H ) :   0.9783
B( 16-S , 17-C ) :   1.1733 B( 16-S , 20-C ) :   1.1552 B( 17-C , 18-C ) :   1.5534
B( 17-C , 33-H ) :   0.9766 B( 18-C , 19-C ) :   1.2619 B( 18-C , 21-H ) :   0.9910
B( 19-C , 20-C ) :   1.5709 B( 19-C , 22-C ) :   1.0819 B( 22-C , 23-H ) :   0.9155
B( 22-C , 24-H ) :   0.9229 B( 22-C , 25-C ) :   1.0385 B( 25-C , 26-H ) :   0.9640
B( 25-C , 27-H ) :   0.9596 B( 25-C , 28-C ) :   1.0721 B( 28-C , 29-H ) :   0.9717
B( 28-C , 30-H ) :   0.9788 B( 28-C , 31-H ) :   0.9747

Dispersion correction           -0.013989352
FINAL SINGLE POINT ENERGY     -1339.859177696246

DIPOLE MOMENT
-------------
                                X             Y             Z
Electronic contribution:     17.31417     -12.85437       1.27980
Nuclear contribution   :    -17.73880      13.17245      -1.04722
                        -----------------------------------------
Total Dipole Moment    :     -0.42463       0.31809       0.23258
                        -----------------------------------------
Magnitude (a.u.)       :      0.57929
Magnitude (Debye)      :      1.47245

Rotational constants in cm-1:     0.019992     0.007355     0.006330
Rotational constants in MHz :   599.334858   220.508656   189.771758

                             ****ORCA TERMINATED NORMALLY****
TOTAL RUN TIME: 0 days 0 hours 0 minutes 31 seconds 622 msec
