                         Program Version 4.2.1 -  RELEASE  -
|  1> ! wB97X-D3 SP def2-SVP
|  2> %pal
|  3> nprocs 16
|  4> end
|  5>
|  6> * xyz 0 1
|  7> S 	 -3.16471 	 29.648 	 45.3647
|  8> C 	 -2.62671 	 29.0315 	 43.8601
|  9> C 	 -2.19487 	 30.0377 	 43.0452
| 10> C 	 -2.16963 	 31.3127 	 43.7046
| 11> C 	 -2.63149 	 31.2669 	 45.001
| 12> H 	 -1.85821 	 32.2642 	 43.3119
| 13> C 	 -1.91801 	 29.9267 	 41.5144
| 14> H 	 -1.76172 	 28.8874 	 41.2701
| 15> H 	 -0.926301 	 30.3379 	 41.2563
| 16> C 	 -2.99897 	 30.6643 	 40.6544
| 17> H 	 -3.9381 	 30.2611 	 41.0321
| 18> H 	 -3.05745 	 31.7331 	 40.9759
| 19> C 	 -2.93312 	 30.3979 	 39.2071
| 20> H 	 -1.9369 	 30.5334 	 38.8249
| 21> H 	 -3.10271 	 29.2639 	 39.1152
| 22> H 	 -3.61535 	 30.9714 	 38.5311
| 23> S 	 -4.29748 	 32.9238 	 46.5225
| 24> C 	 -3.5823 	 34.3198 	 47.2838
| 25> C 	 -2.21496 	 34.3459 	 47.1404
| 26> C 	 -1.66584 	 33.2702 	 46.3734
| 27> C 	 -2.66867 	 32.3966 	 45.9451
| 28> H 	 -1.57899 	 35.0781 	 47.6293
| 29> C 	 -0.161347 	 33.1923 	 46.1724
| 30> H 	 0.453968 	 33.8834 	 46.7848
| 31> H 	 0.070603 	 33.3771 	 45.1261
| 32> C 	 0.404145 	 31.7499 	 46.3139
| 33> H 	 0.00429496 	 31.0418 	 45.5836
| 34> H 	 0.0249013 	 31.3617 	 47.24
| 35> C 	 1.95788 	 31.6061 	 46.2979
| 36> H 	 2.26797 	 31.8038 	 45.2897
| 37> H 	 2.14303 	 30.5704 	 46.632
| 38> H 	 2.45079 	 32.2357 	 46.9962
| 39> H 	 -2.76674 	 28.0451 	 43.4427
| 40> H 	 -4.08417 	 35.0384 	 47.9621
| 41> *
| 42>
| 43>                          ****END OF INPUT****

CARTESIAN COORDINATES (ANGSTROEM)
---------------------------------
  S     -3.164710   29.648000   45.364700
  C     -2.626710   29.031500   43.860100
  C     -2.194870   30.037700   43.045200
  C     -2.169630   31.312700   43.704600
  C     -2.631490   31.266900   45.001000
  H     -1.858210   32.264200   43.311900
  C     -1.918010   29.926700   41.514400
  H     -1.761720   28.887400   41.270100
  H     -0.926301   30.337900   41.256300
  C     -2.998970   30.664300   40.654400
  H     -3.938100   30.261100   41.032100
  H     -3.057450   31.733100   40.975900
  C     -2.933120   30.397900   39.207100
  H     -1.936900   30.533400   38.824900
  H     -3.102710   29.263900   39.115200
  H     -3.615350   30.971400   38.531100
  S     -4.297480   32.923800   46.522500
  C     -3.582300   34.319800   47.283800
  C     -2.214960   34.345900   47.140400
  C     -1.665840   33.270200   46.373400
  C     -2.668670   32.396600   45.945100
  H     -1.578990   35.078100   47.629300
  C     -0.161347   33.192300   46.172400
  H      0.453968   33.883400   46.784800
  H      0.070603   33.377100   45.126100
  C      0.404145   31.749900   46.313900
  H      0.004295   31.041800   45.583600
  H      0.024901   31.361700   47.240000
  C      1.957880   31.606100   46.297900
  H      2.267970   31.803800   45.289700
  H      2.143030   30.570400   46.632000
  H      2.450790   32.235700   46.996200
  H     -2.766740   28.045100   43.442700
  H     -4.084170   35.038400   47.962100

 Total Charge           Charge          ....    0
 Multiplicity           Mult            ....    1
 Number of Electrons    NEL             ....  134
 Basis Dimension        Dim             ....  322

ORBITAL ENERGIES
----------------

  NO   OCC          E(Eh)            E(eV)
   0   2.0000     -88.967632     -2420.9323
   1   2.0000     -88.966459     -2420.9004
   2   2.0000     -10.333265      -281.1824
   3   2.0000     -10.328825      -281.0616
   4   2.0000     -10.320417      -280.8328
   5   2.0000     -10.311862      -280.6000
   6   2.0000     -10.308819      -280.5172
   7   2.0000     -10.302079      -280.3338
   8   2.0000     -10.297581      -280.2114
   9   2.0000     -10.296089      -280.1708
  10   2.0000     -10.292541      -280.0743
  11   2.0000     -10.292436      -280.0714
  12   2.0000     -10.287724      -279.9432
  13   2.0000     -10.284240      -279.8484
  14   2.0000     -10.277757      -279.6720
  15   2.0000     -10.273823      -279.5649
  16   2.0000      -8.081855      -219.9185
  17   2.0000      -8.081616      -219.9120
  18   2.0000      -6.040396      -164.3675
  19   2.0000      -6.040193      -164.3620
  20   2.0000      -6.036281      -164.2556
  21   2.0000      -6.036168      -164.2525
  22   2.0000      -6.032640      -164.1565
  23   2.0000      -6.032293      -164.1470
  24   2.0000      -1.007589       -27.4179
  25   2.0000      -0.984288       -26.7838
  26   2.0000      -0.909865       -24.7587
  27   2.0000      -0.903362       -24.5817
  28   2.0000      -0.870276       -23.6814
  29   2.0000      -0.850820       -23.1520
  30   2.0000      -0.847335       -23.0571
  31   2.0000      -0.813338       -22.1320
  32   2.0000      -0.782022       -21.2799
  33   2.0000      -0.771525       -20.9942
  34   2.0000      -0.708643       -19.2832
  35   2.0000      -0.696596       -18.9553
  36   2.0000      -0.685941       -18.6654
  37   2.0000      -0.658551       -17.9201
  38   2.0000      -0.644242       -17.5307
  39   2.0000      -0.617996       -16.8165
  40   2.0000      -0.596938       -16.2435
  41   2.0000      -0.568323       -15.4648
  42   2.0000      -0.563893       -15.3443
  43   2.0000      -0.556686       -15.1482
  44   2.0000      -0.525604       -14.3024
  45   2.0000      -0.519056       -14.1242
  46   2.0000      -0.516892       -14.0654
  47   2.0000      -0.512888       -13.9564
  48   2.0000      -0.503745       -13.7076
  49   2.0000      -0.501679       -13.6514
  50   2.0000      -0.494701       -13.4615
  51   2.0000      -0.487218       -13.2579
  52   2.0000      -0.470550       -12.8043
  53   2.0000      -0.462709       -12.5909
  54   2.0000      -0.459506       -12.5038
  55   2.0000      -0.449070       -12.2198
  56   2.0000      -0.443186       -12.0597
  57   2.0000      -0.435054       -11.8384
  58   2.0000      -0.428599       -11.6628
  59   2.0000      -0.423377       -11.5207
  60   2.0000      -0.421901       -11.4805
  61   2.0000      -0.413930       -11.2636
  62   2.0000      -0.408887       -11.1264
  63   2.0000      -0.342821        -9.3286
  64   2.0000      -0.331452        -9.0193
  65   2.0000      -0.330058        -8.9813
  66   2.0000      -0.299662        -8.1542
  67   0.0000       0.032587         0.8867
  68   0.0000       0.066475         1.8089
  69   0.0000       0.112627         3.0647
  70   0.0000       0.126088         3.4310
  71   0.0000       0.130369         3.5475

MULLIKEN ATOMIC CHARGES
-----------------------
   0 S :    0.119150
   1 C :   -0.098212
   2 C :   -0.101639
   3 C :    0.034878
   4 C :   -0.174174
   5 H :    0.008655
   6 C :    0.061535
   7 H :    0.004968
   8 H :    0.023764
   9 C :   -0.074487
  10 H :    0.025369
  11 H :    0.036367
  12 C :   -0.039842
  13 H :    0.019192
  14 H :    0.033466
  15 H :    0.051107
  16 S :    0.106589
  17 C :   -0.087831
  18 C :   -0.051954
  19 C :   -0.000706
  20 C :   -0.174233
  21 H :    0.017269
  22 C :    0.093141
  23 H :    0.027828
  24 H :    0.025174
  25 C :   -0.138377
  26 H :    0.049398
  27 H :    0.017637
  28 C :   -0.014580
  29 H :    0.029921
  30 H :    0.038305
  31 H :    0.020631
  32 H :    0.042773
  33 H :    0.068918
Sum of atomic charges:   -0.0000000

LOEWDIN ATOMIC CHARGES
----------------------
   0 S :    0.422375
   1 C :   -0.208996
   2 C :   -0.065073
   3 C :   -0.059492
   4 C :   -0.202544
   5 H :    0.029467
   6 C :   -0.027960
   7 H :    0.021966
   8 H :    0.027757
   9 C :   -0.049579
  10 H :    0.024739
  11 H :    0.027281
  12 C :   -0.071722
  13 H :    0.018614
  14 H :    0.036352
  15 H :    0.034291
  16 S :    0.388623
  17 C :   -0.189937
  18 C :   -0.075047
  19 C :   -0.046758
  20 C :   -0.185996
  21 H :    0.030894
  22 C :   -0.032145
  23 H :    0.033248
  24 H :    0.033460
  25 C :   -0.042642
  26 H :    0.027748
  27 H :    0.014909
  28 C :   -0.056621
  29 H :    0.021308
  30 H :    0.034246
  31 H :    0.016073
  32 H :    0.031992
  33 H :    0.039169

  Mayer bond orders larger than 0.100000
B(  0-S ,  1-C ) :   1.1413 B(  0-S ,  4-C ) :   1.1527 B(  1-C ,  2-C ) :   1.6308
B(  1-C , 32-H ) :   0.9634 B(  2-C ,  3-C ) :   1.2245 B(  2-C ,  6-C ) :   1.0277
B(  3-C ,  4-C ) :   1.5852 B(  3-C ,  5-H ) :   1.0013 B(  4-C , 20-C ) :   1.0157
B(  6-C ,  7-H ) :   0.9438 B(  6-C ,  8-H ) :   0.9379 B(  6-C ,  9-C ) :   1.0450
B(  9-C , 10-H ) :   0.9561 B(  9-C , 11-H ) :   0.9519 B(  9-C , 12-C ) :   1.0843
B( 12-C , 13-H ) :   0.9729 B( 12-C , 14-H ) :   0.9706 B( 12-C , 15-H ) :   0.9718
B( 16-S , 17-C ) :   1.1499 B( 16-S , 20-C ) :   1.1297 B( 17-C , 18-C ) :   1.6205
B( 17-C , 33-H ) :   0.9591 B( 18-C , 19-C ) :   1.2433 B( 18-C , 21-H ) :   0.9863
B( 19-C , 20-C ) :   1.6022 B( 19-C , 22-C ) :   1.0437 B( 22-C , 23-H ) :   0.9457
B( 22-C , 24-H ) :   0.9207 B( 22-C , 25-C ) :   1.0496 B( 25-C , 26-H ) :   0.9504
B( 25-C , 27-H ) :   0.9632 B( 25-C , 28-C ) :   1.0858 B( 28-C , 29-H ) :   0.9775
B( 28-C , 30-H ) :   0.9741 B( 28-C , 31-H ) :   0.9763

Dispersion correction           -0.014538006
FINAL SINGLE POINT ENERGY     -1339.885652070028

DIPOLE MOMENT
-------------
                                X             Y             Z
Electronic contribution:    -17.91547       1.54505      17.75516
Nuclear contribution   :     18.33701      -1.36960     -18.09435
                        -----------------------------------------
Total Dipole Moment    :      0.42154       0.17545      -0.33919
                        -----------------------------------------
Magnitude (a.u.)       :      0.56880
Magnitude (Debye)      :      1.44578

Rotational constants in cm-1:     0.017495     0.008359     0.007164
Rotational constants in MHz :   524.497309   250.583734   214.768573

                             ****ORCA TERMINATED NORMALLY****
TOTAL RUN TIME: 0 days 0 hours 0 minutes 34 seconds 731 msec
