                         Program Version 4.2.1 -  RELEASE  -
|  1> ! wB97X-D3 SP def2-SVP
|  2> %pal
|  3> nprocs 16
|  4> end
|  5>
|  6> * xyz 0 1
|  7> S 	 -84.3101 	 54.4019 	 135.96
|  8> C 	 -84.5179 	 52.8403 	 136.661
|  9> C 	 -83.6166 	 52.4976 	 137.643
| 10> C 	 -82.5778 	 53.5023 	 137.732
| 11> C 	 -82.8156 	 54.5595 	 136.853
| 12> H 	 -81.7004 	 53.458 	 138.246
| 13> C 	 -83.7278 	 51.1863 	 138.424
| 14> H 	 -84.1723 	 50.4736 	 137.656
| 15> H 	 -84.5071 	 51.2605 	 139.16
| 16> C 	 -82.449 	 50.586 	 138.917
| 17> H 	 -81.7043 	 50.4126 	 138.129
| 18> H 	 -82.1301 	 51.3614 	 139.593
| 19> C 	 -82.6567 	 49.3414 	 139.801
| 20> H 	 -83.5403 	 49.484 	 140.403
| 21> H 	 -82.8583 	 48.5042 	 139.126
| 22> H 	 -81.8326 	 48.8779 	 140.312
| 23> S 	 -82.3576 	 57.2193 	 136.541
| 24> C 	 -80.8795 	 57.7257 	 135.854
| 25> C 	 -79.9496 	 56.7193 	 135.797
| 26> C 	 -80.5559 	 55.3887 	 135.941
| 27> C 	 -81.8539 	 55.5397 	 136.398
| 28> H 	 -78.8188 	 56.8171 	 135.672
| 29> C 	 -79.8323 	 54.0409 	 135.831
| 30> H 	 -80.2732 	 53.6445 	 134.947
| 31> H 	 -80.1854 	 53.4068 	 136.602
| 32> C 	 -78.3306 	 54.0847 	 135.743
| 33> H 	 -77.9024 	 54.7074 	 134.864
| 34> H 	 -78.099 	 53.0163 	 135.484
| 35> C 	 -77.5913 	 54.4937 	 137.074
| 36> H 	 -76.574 	 54.7102 	 136.866
| 37> H 	 -77.8037 	 53.6753 	 137.817
| 38> H 	 -78.1198 	 55.4097 	 137.357
| 39> H 	 -85.3031 	 52.1329 	 136.366
| 40> H 	 -80.5899 	 58.759 	 135.923
| 41> *
| 42>
| 43>                          ****END OF INPUT****

CARTESIAN COORDINATES (ANGSTROEM)
---------------------------------
  S    -84.310100   54.401900  135.960000
  C    -84.517900   52.840300  136.661000
  C    -83.616600   52.497600  137.643000
  C    -82.577800   53.502300  137.732000
  C    -82.815600   54.559500  136.853000
  H    -81.700400   53.458000  138.246000
  C    -83.727800   51.186300  138.424000
  H    -84.172300   50.473600  137.656000
  H    -84.507100   51.260500  139.160000
  C    -82.449000   50.586000  138.917000
  H    -81.704300   50.412600  138.129000
  H    -82.130100   51.361400  139.593000
  C    -82.656700   49.341400  139.801000
  H    -83.540300   49.484000  140.403000
  H    -82.858300   48.504200  139.126000
  H    -81.832600   48.877900  140.312000
  S    -82.357600   57.219300  136.541000
  C    -80.879500   57.725700  135.854000
  C    -79.949600   56.719300  135.797000
  C    -80.555900   55.388700  135.941000
  C    -81.853900   55.539700  136.398000
  H    -78.818800   56.817100  135.672000
  C    -79.832300   54.040900  135.831000
  H    -80.273200   53.644500  134.947000
  H    -80.185400   53.406800  136.602000
  C    -78.330600   54.084700  135.743000
  H    -77.902400   54.707400  134.864000
  H    -78.099000   53.016300  135.484000
  C    -77.591300   54.493700  137.074000
  H    -76.574000   54.710200  136.866000
  H    -77.803700   53.675300  137.817000
  H    -78.119800   55.409700  137.357000
  H    -85.303100   52.132900  136.366000
  H    -80.589900   58.759000  135.923000

 Total Charge           Charge          ....    0
 Multiplicity           Mult            ....    1
 Number of Electrons    NEL             ....  134
 Basis Dimension        Dim             ....  322

ORBITAL ENERGIES
----------------

  NO   OCC          E(Eh)            E(eV)
   0   2.0000     -88.967495     -2420.9286
   1   2.0000     -88.960880     -2420.7486
   2   2.0000     -10.324354      -280.9399
   3   2.0000     -10.319112      -280.7973
   4   2.0000     -10.310424      -280.5609
   5   2.0000     -10.309567      -280.5376
   6   2.0000     -10.303492      -280.3723
   7   2.0000     -10.303093      -280.3614
   8   2.0000     -10.300891      -280.3015
   9   2.0000     -10.298251      -280.2297
  10   2.0000     -10.297225      -280.2017
  11   2.0000     -10.293361      -280.0966
  12   2.0000     -10.288948      -279.9765
  13   2.0000     -10.287581      -279.9393
  14   2.0000     -10.283992      -279.8416
  15   2.0000     -10.279119      -279.7090
  16   2.0000      -8.082817      -219.9446
  17   2.0000      -8.076643      -219.7766
  18   2.0000      -6.041141      -164.3878
  19   2.0000      -6.037348      -164.2846
  20   2.0000      -6.035033      -164.2216
  21   2.0000      -6.033621      -164.1832
  22   2.0000      -6.031201      -164.1173
  23   2.0000      -6.027290      -164.0109
  24   2.0000      -1.008054       -27.4305
  25   2.0000      -0.984460       -26.7885
  26   2.0000      -0.918632       -24.9973
  27   2.0000      -0.911868       -24.8132
  28   2.0000      -0.870569       -23.6894
  29   2.0000      -0.853070       -23.2132
  30   2.0000      -0.841140       -22.8886
  31   2.0000      -0.814607       -22.1666
  32   2.0000      -0.790399       -21.5079
  33   2.0000      -0.774378       -21.0719
  34   2.0000      -0.713077       -19.4038
  35   2.0000      -0.695544       -18.9267
  36   2.0000      -0.685514       -18.6538
  37   2.0000      -0.652772       -17.7628
  38   2.0000      -0.643683       -17.5155
  39   2.0000      -0.621772       -16.9193
  40   2.0000      -0.600144       -16.3307
  41   2.0000      -0.581478       -15.8228
  42   2.0000      -0.561537       -15.2802
  43   2.0000      -0.555030       -15.1031
  44   2.0000      -0.532044       -14.4777
  45   2.0000      -0.528819       -14.3899
  46   2.0000      -0.518182       -14.1004
  47   2.0000      -0.515967       -14.0402
  48   2.0000      -0.500215       -13.6115
  49   2.0000      -0.492804       -13.4099
  50   2.0000      -0.488947       -13.3049
  51   2.0000      -0.482526       -13.1302
  52   2.0000      -0.478654       -13.0248
  53   2.0000      -0.468896       -12.7593
  54   2.0000      -0.459654       -12.5078
  55   2.0000      -0.451443       -12.2844
  56   2.0000      -0.448450       -12.2029
  57   2.0000      -0.441206       -12.0058
  58   2.0000      -0.439348       -11.9553
  59   2.0000      -0.432020       -11.7559
  60   2.0000      -0.424988       -11.5645
  61   2.0000      -0.410080       -11.1589
  62   2.0000      -0.403836       -10.9889
  63   2.0000      -0.338827        -9.2200
  64   2.0000      -0.334598        -9.1049
  65   2.0000      -0.325677        -8.8621
  66   2.0000      -0.290229        -7.8975
  67   0.0000       0.035212         0.9582
  68   0.0000       0.062387         1.6976
  69   0.0000       0.107033         2.9125
  70   0.0000       0.123156         3.3512
  71   0.0000       0.134205         3.6519

MULLIKEN ATOMIC CHARGES
-----------------------
   0 S :    0.134512
   1 C :   -0.132468
   2 C :   -0.077568
   3 C :    0.055358
   4 C :   -0.152306
   5 H :   -0.018500
   6 C :    0.043852
   7 H :    0.024027
   8 H :    0.038292
   9 C :   -0.087357
  10 H :    0.042734
  11 H :    0.032509
  12 C :   -0.023720
  13 H :    0.029295
  14 H :    0.014945
  15 H :    0.033174
  16 S :    0.103735
  17 C :   -0.060551
  18 C :   -0.076897
  19 C :   -0.089703
  20 C :   -0.182565
  21 H :    0.047894
  22 C :    0.143467
  23 H :    0.030974
  24 H :    0.006374
  25 C :   -0.146421
  26 H :    0.045260
  27 H :    0.033880
  28 C :   -0.033824
  29 H :    0.040776
  30 H :    0.044765
  31 H :    0.033089
  32 H :    0.046775
  33 H :    0.056193
Sum of atomic charges:    0.0000000

LOEWDIN ATOMIC CHARGES
----------------------
   0 S :    0.422874
   1 C :   -0.205171
   2 C :   -0.061577
   3 C :   -0.047774
   4 C :   -0.197857
   5 H :    0.013023
   6 C :   -0.033900
   7 H :    0.034793
   8 H :    0.030619
   9 C :   -0.045075
  10 H :    0.029022
  11 H :    0.022682
  12 C :   -0.066204
  13 H :    0.025317
  14 H :    0.025974
  15 H :    0.026893
  16 S :    0.411505
  17 C :   -0.204047
  18 C :   -0.078166
  19 C :   -0.052594
  20 C :   -0.205273
  21 H :    0.040929
  22 C :   -0.030283
  23 H :    0.039775
  24 H :    0.025835
  25 C :   -0.053011
  26 H :    0.030546
  27 H :    0.029010
  28 C :   -0.063719
  29 H :    0.022675
  30 H :    0.033688
  31 H :    0.025797
  32 H :    0.028226
  33 H :    0.025471

  Mayer bond orders larger than 0.100000
B(  0-S ,  1-C ) :   1.1464 B(  0-S ,  4-C ) :   1.1598 B(  1-C ,  2-C ) :   1.6374
B(  1-C , 32-H ) :   0.9634 B(  2-C ,  3-C ) :   1.2178 B(  2-C ,  6-C ) :   1.0013
B(  3-C ,  4-C ) :   1.5786 B(  3-C ,  5-H ) :   1.0097 B(  4-C , 20-C ) :   1.0102
B(  6-C ,  7-H ) :   0.9418 B(  6-C ,  8-H ) :   0.9351 B(  6-C ,  9-C ) :   1.0672
B(  9-C , 10-H ) :   0.9609 B(  9-C , 11-H ) :   0.9465 B(  9-C , 12-C ) :   1.0823
B( 12-C , 13-H ) :   0.9730 B( 12-C , 14-H ) :   0.9711 B( 12-C , 15-H ) :   0.9737
B( 16-S , 17-C ) :   1.1536 B( 16-S , 20-C ) :   1.1499 B( 17-C , 18-C ) :   1.6241
B( 17-C , 33-H ) :   0.9610 B( 18-C , 19-C ) :   1.2289 B( 18-C , 21-H ) :   0.9654
B( 19-C , 20-C ) :   1.6210 B( 19-C , 22-C ) :   1.0136 B( 22-C , 23-H ) :   0.9114
B( 22-C , 24-H ) :   0.9316 B( 22-C , 25-C ) :   1.0847 B( 25-C , 26-H ) :   0.9509
B( 25-C , 27-H ) :   0.9522 B( 25-C , 28-C ) :   1.0593 B( 28-C , 29-H ) :   0.9762
B( 28-C , 30-H ) :   0.9734 B( 28-C , 31-H ) :   0.9774

Dispersion correction           -0.014217269
FINAL SINGLE POINT ENERGY     -1339.858976797696

DIPOLE MOMENT
-------------
                                X             Y             Z
Electronic contribution:    -17.31917      23.45731      -9.93489
Nuclear contribution   :     17.76963     -24.13933      10.15181
                        -----------------------------------------
Total Dipole Moment    :      0.45046      -0.68202       0.21692
                        -----------------------------------------
Magnitude (a.u.)       :      0.84565
Magnitude (Debye)      :      2.14946

Rotational constants in cm-1:     0.017709     0.008966     0.006488
Rotational constants in MHz :   530.895443   268.779393   194.500330

                             ****ORCA TERMINATED NORMALLY****
TOTAL RUN TIME: 0 days 0 hours 0 minutes 35 seconds 74 msec
