                         Program Version 4.2.1 -  RELEASE  -
|  1> ! wB97X-D3 SP def2-SVP
|  2> %pal
|  3> nprocs 16
|  4> end
|  5>
|  6> * xyz 0 1
|  7> S 	 -22.1304 	 50.7554 	 66.4342
|  8> C 	 -22.1953 	 49.3256 	 65.4042
|  9> C 	 -22.7614 	 48.2142 	 66.0411
| 10> C 	 -22.8213 	 48.4973 	 67.4495
| 11> C 	 -22.6477 	 49.828 	 67.7868
| 12> H 	 -23.2426 	 47.9038 	 68.1892
| 13> C 	 -22.932 	 46.8106 	 65.5398
| 14> H 	 -22.3314 	 46.2023 	 66.1952
| 15> H 	 -22.4606 	 46.683 	 64.5618
| 16> C 	 -24.4374 	 46.3694 	 65.383
| 17> H 	 -24.5783 	 45.3897 	 64.9942
| 18> H 	 -24.9493 	 46.4618 	 66.329
| 19> C 	 -25.3251 	 47.2688 	 64.4158
| 20> H 	 -25.3084 	 48.3736 	 64.6323
| 21> H 	 -25.0917 	 47.0869 	 63.3806
| 22> H 	 -26.3689 	 47.0046 	 64.5105
| 23> S 	 -23.641 	 51.9367 	 69.3111
| 24> C 	 -23.4103 	 51.8304 	 71.0622
| 25> C 	 -22.6346 	 50.7896 	 71.4188
| 26> C 	 -22.3128 	 49.9075 	 70.3718
| 27> C 	 -22.7361 	 50.3763 	 69.1294
| 28> H 	 -22.2951 	 50.7176 	 72.4789
| 29> C 	 -21.3476 	 48.7395 	 70.5454
| 30> H 	 -20.4476 	 49.2898 	 70.7679
| 31> H 	 -21.0331 	 48.2068 	 69.6292
| 32> C 	 -21.6662 	 47.7333 	 71.6593
| 33> H 	 -22.6553 	 47.352 	 71.4469
| 34> H 	 -21.7563 	 48.3108 	 72.5844
| 35> C 	 -20.6984 	 46.6264 	 71.8159
| 36> H 	 -20.8158 	 46.0044 	 70.9528
| 37> H 	 -20.7861 	 46.189 	 72.8318
| 38> H 	 -19.6444 	 47.0986 	 71.8654
| 39> H 	 -21.7781 	 49.2106 	 64.3864
| 40> H 	 -23.7542 	 52.5265 	 71.7825
| 41> *
| 42>
| 43>                          ****END OF INPUT****

CARTESIAN COORDINATES (ANGSTROEM)
---------------------------------
  S    -22.130400   50.755400   66.434200
  C    -22.195300   49.325600   65.404200
  C    -22.761400   48.214200   66.041100
  C    -22.821300   48.497300   67.449500
  C    -22.647700   49.828000   67.786800
  H    -23.242600   47.903800   68.189200
  C    -22.932000   46.810600   65.539800
  H    -22.331400   46.202300   66.195200
  H    -22.460600   46.683000   64.561800
  C    -24.437400   46.369400   65.383000
  H    -24.578300   45.389700   64.994200
  H    -24.949300   46.461800   66.329000
  C    -25.325100   47.268800   64.415800
  H    -25.308400   48.373600   64.632300
  H    -25.091700   47.086900   63.380600
  H    -26.368900   47.004600   64.510500
  S    -23.641000   51.936700   69.311100
  C    -23.410300   51.830400   71.062200
  C    -22.634600   50.789600   71.418800
  C    -22.312800   49.907500   70.371800
  C    -22.736100   50.376300   69.129400
  H    -22.295100   50.717600   72.478900
  C    -21.347600   48.739500   70.545400
  H    -20.447600   49.289800   70.767900
  H    -21.033100   48.206800   69.629200
  C    -21.666200   47.733300   71.659300
  H    -22.655300   47.352000   71.446900
  H    -21.756300   48.310800   72.584400
  C    -20.698400   46.626400   71.815900
  H    -20.815800   46.004400   70.952800
  H    -20.786100   46.189000   72.831800
  H    -19.644400   47.098600   71.865400
  H    -21.778100   49.210600   64.386400
  H    -23.754200   52.526500   71.782500

 Total Charge           Charge          ....    0
 Multiplicity           Mult            ....    1
 Number of Electrons    NEL             ....  134
 Basis Dimension        Dim             ....  322

ORBITAL ENERGIES
----------------

  NO   OCC          E(Eh)            E(eV)
   0   2.0000     -88.969607     -2420.9861
   1   2.0000     -88.964220     -2420.8395
   2   2.0000     -10.330349      -281.1031
   3   2.0000     -10.325737      -280.9776
   4   2.0000     -10.318313      -280.7756
   5   2.0000     -10.313539      -280.6457
   6   2.0000     -10.305328      -280.4222
   7   2.0000     -10.304029      -280.3869
   8   2.0000     -10.296981      -280.1951
   9   2.0000     -10.292595      -280.0757
  10   2.0000     -10.291243      -280.0389
  11   2.0000     -10.289943      -280.0036
  12   2.0000     -10.285905      -279.8937
  13   2.0000     -10.283715      -279.8341
  14   2.0000     -10.281400      -279.7711
  15   2.0000     -10.277638      -279.6687
  16   2.0000      -8.084416      -219.9882
  17   2.0000      -8.077991      -219.8133
  18   2.0000      -6.042936      -164.4367
  19   2.0000      -6.038947      -164.3281
  20   2.0000      -6.036607      -164.2644
  21   2.0000      -6.035122      -164.2240
  22   2.0000      -6.032805      -164.1610
  23   2.0000      -6.028528      -164.0446
  24   2.0000      -1.005813       -27.3696
  25   2.0000      -0.983053       -26.7502
  26   2.0000      -0.913974       -24.8705
  27   2.0000      -0.907310       -24.6892
  28   2.0000      -0.867072       -23.5942
  29   2.0000      -0.855393       -23.2764
  30   2.0000      -0.844997       -22.9935
  31   2.0000      -0.813511       -22.1367
  32   2.0000      -0.784249       -21.3405
  33   2.0000      -0.772444       -21.0193
  34   2.0000      -0.707830       -19.2610
  35   2.0000      -0.698274       -19.0010
  36   2.0000      -0.695808       -18.9339
  37   2.0000      -0.656213       -17.8565
  38   2.0000      -0.639891       -17.4123
  39   2.0000      -0.619692       -16.8627
  40   2.0000      -0.600372       -16.3369
  41   2.0000      -0.573565       -15.6075
  42   2.0000      -0.566003       -15.4017
  43   2.0000      -0.547477       -14.8976
  44   2.0000      -0.544347       -14.8124
  45   2.0000      -0.527599       -14.3567
  46   2.0000      -0.514376       -13.9969
  47   2.0000      -0.510975       -13.9043
  48   2.0000      -0.501248       -13.6397
  49   2.0000      -0.494568       -13.4579
  50   2.0000      -0.484915       -13.1952
  51   2.0000      -0.481938       -13.1142
  52   2.0000      -0.471642       -12.8340
  53   2.0000      -0.459643       -12.5075
  54   2.0000      -0.458223       -12.4689
  55   2.0000      -0.452358       -12.3093
  56   2.0000      -0.444843       -12.1048
  57   2.0000      -0.442046       -12.0287
  58   2.0000      -0.430849       -11.7240
  59   2.0000      -0.427446       -11.6314
  60   2.0000      -0.420066       -11.4306
  61   2.0000      -0.414604       -11.2819
  62   2.0000      -0.412013       -11.2114
  63   2.0000      -0.350956        -9.5500
  64   2.0000      -0.332917        -9.0591
  65   2.0000      -0.331807        -9.0289
  66   2.0000      -0.284996        -7.7551
  67   0.0000       0.029506         0.8029
  68   0.0000       0.067174         1.8279
  69   0.0000       0.107410         2.9228
  70   0.0000       0.116923         3.1816
  71   0.0000       0.126877         3.4525

MULLIKEN ATOMIC CHARGES
-----------------------
   0 S :    0.124755
   1 C :   -0.130537
   2 C :   -0.091907
   3 C :    0.024700
   4 C :   -0.137211
   5 H :   -0.006886
   6 C :    0.082151
   7 H :    0.034401
   8 H :    0.014097
   9 C :   -0.058640
  10 H :    0.030374
  11 H :    0.030086
  12 C :   -0.089510
  13 H :    0.053971
  14 H :    0.026785
  15 H :    0.028542
  16 S :    0.084556
  17 C :   -0.067522
  18 C :   -0.053638
  19 C :   -0.001203
  20 C :   -0.157621
  21 H :    0.036898
  22 C :    0.031705
  23 H :    0.027881
  24 H :    0.024476
  25 C :   -0.082878
  26 H :    0.022326
  27 H :    0.018596
  28 C :   -0.029381
  29 H :    0.039024
  30 H :    0.044775
  31 H :    0.028306
  32 H :    0.057437
  33 H :    0.041092
Sum of atomic charges:   -0.0000000

LOEWDIN ATOMIC CHARGES
----------------------
   0 S :    0.416474
   1 C :   -0.200785
   2 C :   -0.057922
   3 C :   -0.059805
   4 C :   -0.202810
   5 H :    0.018303
   6 C :   -0.030193
   7 H :    0.033475
   8 H :    0.028824
   9 C :   -0.030955
  10 H :    0.021595
  11 H :    0.022091
  12 C :   -0.070804
  13 H :    0.032935
  14 H :    0.018063
  15 H :    0.024699
  16 S :    0.361850
  17 C :   -0.167591
  18 C :   -0.077776
  19 C :   -0.054321
  20 C :   -0.174061
  21 H :    0.041184
  22 C :   -0.034657
  23 H :    0.033295
  24 H :    0.030478
  25 C :   -0.047746
  26 H :    0.020887
  27 H :    0.019909
  28 C :   -0.066067
  29 H :    0.024606
  30 H :    0.034687
  31 H :    0.033045
  32 H :    0.034655
  33 H :    0.024437

  Mayer bond orders larger than 0.100000
B(  0-S ,  1-C ) :   1.1398 B(  0-S ,  4-C ) :   1.1462 B(  1-C ,  2-C ) :   1.6049
B(  1-C , 32-H ) :   0.9596 B(  2-C ,  3-C ) :   1.2282 B(  2-C ,  6-C ) :   1.0285
B(  3-C ,  4-C ) :   1.5908 B(  3-C ,  5-H ) :   0.9941 B(  4-C , 20-C ) :   1.0436
B(  6-C ,  7-H ) :   0.9462 B(  6-C ,  8-H ) :   0.9432 B(  6-C ,  9-C ) :   1.0506
B(  9-C , 10-H ) :   0.9611 B(  9-C , 11-H ) :   0.9638 B(  9-C , 12-C ) :   1.0705
B( 12-C , 13-H ) :   0.9749 B( 12-C , 14-H ) :   0.9792 B( 12-C , 15-H ) :   0.9759
B( 16-S , 17-C ) :   1.1316 B( 16-S , 20-C ) :   1.1139 B( 17-C , 18-C ) :   1.6590
B( 17-C , 20-C ) :   0.1003 B( 17-C , 33-H ) :   0.9660 B( 18-C , 19-C ) :   1.2174
B( 18-C , 21-H ) :   0.9773 B( 19-C , 20-C ) :   1.6163 B( 19-C , 22-C ) :   1.0264
B( 22-C , 23-H ) :   0.9296 B( 22-C , 24-H ) :   0.9441 B( 22-C , 25-C ) :   1.0523
B( 25-C , 26-H ) :   0.9557 B( 25-C , 27-H ) :   0.9512 B( 25-C , 28-C ) :   1.0938
B( 28-C , 29-H ) :   0.9732 B( 28-C , 30-H ) :   0.9704 B( 28-C , 31-H ) :   0.9701

Dispersion correction           -0.014008258
FINAL SINGLE POINT ENERGY     -1339.870226143370

DIPOLE MOMENT
-------------
                                X             Y             Z
Electronic contribution:     -0.13255      25.77927      -1.96710
Nuclear contribution   :      0.30597     -26.41165       2.23920
                        -----------------------------------------
Total Dipole Moment    :      0.17342      -0.63238       0.27210
                        -----------------------------------------
Magnitude (a.u.)       :      0.70994
Magnitude (Debye)      :      1.80452

Rotational constants in cm-1:     0.016922     0.008771     0.006737
Rotational constants in MHz :   507.304545   262.939830   201.975778

                             ****ORCA TERMINATED NORMALLY****
TOTAL RUN TIME: 0 days 0 hours 0 minutes 33 seconds 650 msec
