                         Program Version 4.2.1 -  RELEASE  -
|  1> ! wB97X-D3 SP def2-SVP
|  2> %pal
|  3> nprocs 16
|  4> end
|  5>
|  6> * xyz 0 1
|  7> S 	 -47.9068 	 37.4431 	 79.3463
|  8> C 	 -46.9792 	 37.7993 	 77.9258
|  9> C 	 -46.5857 	 39.1209 	 77.896
| 10> C 	 -47.3591 	 39.8527 	 78.7857
| 11> C 	 -48.3144 	 39.122 	 79.4855
| 12> H 	 -47.194 	 40.8572 	 78.8601
| 13> C 	 -45.6566 	 39.7376 	 77.0124
| 14> H 	 -44.5807 	 39.4544 	 77.1748
| 15> H 	 -45.6624 	 40.8107 	 77.2039
| 16> C 	 -45.7969 	 39.3684 	 75.5481
| 17> H 	 -45.1874 	 40.015 	 74.9381
| 18> H 	 -45.564 	 38.3646 	 75.3054
| 19> C 	 -47.1819 	 39.5475 	 75.0039
| 20> H 	 -47.3087 	 38.917 	 74.1324
| 21> H 	 -47.9129 	 39.2313 	 75.747
| 22> H 	 -47.3237 	 40.6033 	 74.6554
| 23> S 	 -49.0632 	 39.4096 	 82.1716
| 24> C 	 -50.1466 	 40.7179 	 82.5508
| 25> C 	 -50.5099 	 41.4574 	 81.4233
| 26> C 	 -50.0687 	 40.8165 	 80.1799
| 27> C 	 -49.2165 	 39.7752 	 80.4085
| 28> H 	 -51.0327 	 42.3302 	 81.5642
| 29> C 	 -50.4906 	 41.4543 	 78.9099
| 30> H 	 -49.7468 	 41.2955 	 78.1817
| 31> H 	 -50.4838 	 42.5878 	 79.0348
| 32> C 	 -51.9506 	 41.2438 	 78.4712
| 33> H 	 -52.1392 	 40.2054 	 78.5101
| 34> H 	 -51.9568 	 41.4661 	 77.4569
| 35> C 	 -53.1324 	 41.7623 	 79.2972
| 36> H 	 -52.9674 	 42.8022 	 79.5224
| 37> H 	 -53.2858 	 41.2124 	 80.2161
| 38> H 	 -54.0658 	 41.5099 	 78.6964
| 39> H 	 -46.4447 	 37.0616 	 77.3569
| 40> H 	 -50.3522 	 41.1059 	 83.606
| 41> *
| 42>
| 43>                          ****END OF INPUT****

CARTESIAN COORDINATES (ANGSTROEM)
---------------------------------
  S    -47.906800   37.443100   79.346300
  C    -46.979200   37.799300   77.925800
  C    -46.585700   39.120900   77.896000
  C    -47.359100   39.852700   78.785700
  C    -48.314400   39.122000   79.485500
  H    -47.194000   40.857200   78.860100
  C    -45.656600   39.737600   77.012400
  H    -44.580700   39.454400   77.174800
  H    -45.662400   40.810700   77.203900
  C    -45.796900   39.368400   75.548100
  H    -45.187400   40.015000   74.938100
  H    -45.564000   38.364600   75.305400
  C    -47.181900   39.547500   75.003900
  H    -47.308700   38.917000   74.132400
  H    -47.912900   39.231300   75.747000
  H    -47.323700   40.603300   74.655400
  S    -49.063200   39.409600   82.171600
  C    -50.146600   40.717900   82.550800
  C    -50.509900   41.457400   81.423300
  C    -50.068700   40.816500   80.179900
  C    -49.216500   39.775200   80.408500
  H    -51.032700   42.330200   81.564200
  C    -50.490600   41.454300   78.909900
  H    -49.746800   41.295500   78.181700
  H    -50.483800   42.587800   79.034800
  C    -51.950600   41.243800   78.471200
  H    -52.139200   40.205400   78.510100
  H    -51.956800   41.466100   77.456900
  C    -53.132400   41.762300   79.297200
  H    -52.967400   42.802200   79.522400
  H    -53.285800   41.212400   80.216100
  H    -54.065800   41.509900   78.696400
  H    -46.444700   37.061600   77.356900
  H    -50.352200   41.105900   83.606000

 Total Charge           Charge          ....    0
 Multiplicity           Mult            ....    1
 Number of Electrons    NEL             ....  134
 Basis Dimension        Dim             ....  322

ORBITAL ENERGIES
----------------

  NO   OCC          E(Eh)            E(eV)
   0   2.0000     -88.969836     -2420.9923
   1   2.0000     -88.962828     -2420.8016
   2   2.0000     -10.327283      -281.0197
   3   2.0000     -10.326687      -281.0034
   4   2.0000     -10.322421      -280.8873
   5   2.0000     -10.308668      -280.5131
   6   2.0000     -10.302527      -280.3460
   7   2.0000     -10.290179      -280.0100
   8   2.0000     -10.289113      -279.9810
   9   2.0000     -10.288747      -279.9710
  10   2.0000     -10.288488      -279.9640
  11   2.0000     -10.282634      -279.8047
  12   2.0000     -10.281107      -279.7631
  13   2.0000     -10.278348      -279.6881
  14   2.0000     -10.273936      -279.5680
  15   2.0000     -10.268547      -279.4214
  16   2.0000      -8.084916      -220.0018
  17   2.0000      -8.077220      -219.7923
  18   2.0000      -6.043266      -164.4456
  19   2.0000      -6.039721      -164.3492
  20   2.0000      -6.035894      -164.2450
  21   2.0000      -6.035485      -164.2339
  22   2.0000      -6.031902      -164.1364
  23   2.0000      -6.027706      -164.0222
  24   2.0000      -1.013076       -27.5672
  25   2.0000      -0.984229       -26.7822
  26   2.0000      -0.927423       -25.2365
  27   2.0000      -0.909946       -24.7609
  28   2.0000      -0.869934       -23.6721
  29   2.0000      -0.860634       -23.4191
  30   2.0000      -0.846997       -23.0480
  31   2.0000      -0.811448       -22.0806
  32   2.0000      -0.788349       -21.4521
  33   2.0000      -0.776950       -21.1419
  34   2.0000      -0.712042       -19.3757
  35   2.0000      -0.702933       -19.1278
  36   2.0000      -0.689707       -18.7679
  37   2.0000      -0.662978       -18.0406
  38   2.0000      -0.643163       -17.5014
  39   2.0000      -0.617253       -16.7963
  40   2.0000      -0.595809       -16.2128
  41   2.0000      -0.583923       -15.8893
  42   2.0000      -0.559216       -15.2170
  43   2.0000      -0.557794       -15.1783
  44   2.0000      -0.548606       -14.9283
  45   2.0000      -0.538290       -14.6476
  46   2.0000      -0.519933       -14.1481
  47   2.0000      -0.514206       -13.9922
  48   2.0000      -0.505729       -13.7616
  49   2.0000      -0.499102       -13.5812
  50   2.0000      -0.486942       -13.2504
  51   2.0000      -0.480173       -13.0662
  52   2.0000      -0.472709       -12.8631
  53   2.0000      -0.466191       -12.6857
  54   2.0000      -0.463347       -12.6083
  55   2.0000      -0.449305       -12.2262
  56   2.0000      -0.442032       -12.0283
  57   2.0000      -0.437375       -11.9016
  58   2.0000      -0.430604       -11.7173
  59   2.0000      -0.424157       -11.5419
  60   2.0000      -0.419748       -11.4219
  61   2.0000      -0.417684       -11.3658
  62   2.0000      -0.403826       -10.9887
  63   2.0000      -0.342777        -9.3274
  64   2.0000      -0.327796        -8.9198
  65   2.0000      -0.325897        -8.8681
  66   2.0000      -0.289964        -7.8903
  67   0.0000       0.024257         0.6601
  68   0.0000       0.061062         1.6616
  69   0.0000       0.100692         2.7400
  70   0.0000       0.118710         3.2303
  71   0.0000       0.126764         3.4494

MULLIKEN ATOMIC CHARGES
-----------------------
   0 S :    0.128656
   1 C :   -0.101466
   2 C :   -0.103518
   3 C :    0.048946
   4 C :   -0.149088
   5 H :   -0.026846
   6 C :    0.100253
   7 H :    0.041665
   8 H :    0.011832
   9 C :   -0.073299
  10 H :    0.022155
  11 H :    0.019203
  12 C :   -0.067365
  13 H :    0.022664
  14 H :    0.048775
  15 H :    0.030008
  16 S :    0.091155
  17 C :   -0.110593
  18 C :   -0.021507
  19 C :   -0.037677
  20 C :   -0.135888
  21 H :   -0.008013
  22 C :    0.064278
  23 H :    0.004931
  24 H :    0.023943
  25 C :   -0.030296
  26 H :    0.011528
  27 H :    0.015763
  28 C :   -0.050923
  29 H :    0.026708
  30 H :    0.039448
  31 H :    0.047497
  32 H :    0.035322
  33 H :    0.081750
Sum of atomic charges:    0.0000000

LOEWDIN ATOMIC CHARGES
----------------------
   0 S :    0.428034
   1 C :   -0.196406
   2 C :   -0.070447
   3 C :   -0.043016
   4 C :   -0.200801
   5 H :    0.013978
   6 C :   -0.037746
   7 H :    0.045284
   8 H :    0.030739
   9 C :   -0.038668
  10 H :    0.026145
  11 H :    0.018355
  12 C :   -0.068758
  13 H :    0.022845
  14 H :    0.024803
  15 H :    0.025742
  16 S :    0.372351
  17 C :   -0.195396
  18 C :   -0.060787
  19 C :   -0.050187
  20 C :   -0.178603
  21 H :    0.016056
  22 C :   -0.033619
  23 H :    0.022031
  24 H :    0.037026
  25 C :   -0.037207
  26 H :    0.021916
  27 H :    0.018545
  28 C :   -0.062618
  29 H :    0.016451
  30 H :    0.026067
  31 H :    0.041846
  32 H :    0.020921
  33 H :    0.045124

  Mayer bond orders larger than 0.100000
B(  0-S ,  1-C ) :   1.1547 B(  0-S ,  4-C ) :   1.1607 B(  1-C ,  2-C ) :   1.5499
B(  1-C ,  4-C ) :   0.1037 B(  1-C , 32-H ) :   0.9686 B(  2-C ,  3-C ) :   1.2927
B(  2-C ,  6-C ) :   1.0580 B(  3-C ,  4-C ) :   1.4961 B(  3-C ,  5-H ) :   1.0111
B(  4-C , 20-C ) :   1.0651 B(  6-C ,  7-H ) :   0.9121 B(  6-C ,  8-H ) :   0.9372
B(  6-C ,  9-C ) :   1.0756 B(  9-C , 10-H ) :   0.9537 B(  9-C , 11-H ) :   0.9558
B(  9-C , 12-C ) :   1.0835 B( 12-C , 13-H ) :   0.9751 B( 12-C , 14-H ) :   0.9700
B( 12-C , 15-H ) :   0.9786 B( 16-S , 17-C ) :   1.1426 B( 16-S , 20-C ) :   1.1009
B( 17-C , 18-C ) :   1.6510 B( 17-C , 33-H ) :   0.9535 B( 18-C , 19-C ) :   1.1808
B( 18-C , 21-H ) :   0.9989 B( 19-C , 20-C ) :   1.6526 B( 19-C , 22-C ) :   1.0547
B( 22-C , 23-H ) :   0.9227 B( 22-C , 24-H ) :   0.9361 B( 22-C , 25-C ) :   1.0673
B( 25-C , 26-H ) :   0.9478 B( 25-C , 27-H ) :   0.9558 B( 25-C , 28-C ) :   1.0789
B( 28-C , 29-H ) :   0.9765 B( 28-C , 30-H ) :   0.9696 B( 28-C , 31-H ) :   0.9687

Dispersion correction           -0.014723287
FINAL SINGLE POINT ENERGY     -1339.837701445559

DIPOLE MOMENT
-------------
                                X             Y             Z
Electronic contribution:      5.60546     -13.47771      22.01360
Nuclear contribution   :     -5.40890      13.99562     -22.44484
                        -----------------------------------------
Total Dipole Moment    :      0.19655       0.51790      -0.43124
                        -----------------------------------------
Magnitude (a.u.)       :      0.70201
Magnitude (Debye)      :      1.78438

Rotational constants in cm-1:     0.019841     0.008791     0.006891
Rotational constants in MHz :   594.807701   263.552572   206.588226

                             ****ORCA TERMINATED NORMALLY****
TOTAL RUN TIME: 0 days 0 hours 0 minutes 31 seconds 216 msec
