                         Program Version 4.2.1 -  RELEASE  -
|  1> ! wB97X-D3 SP def2-SVP
|  2> %pal
|  3> nprocs 16
|  4> end
|  5>
|  6> * xyz 0 1
|  7> S 	 -1.51926 	 14.02 	 89.8431
|  8> C 	 -3.18464 	 13.7642 	 89.7572
|  9> C 	 -3.91073 	 14.929 	 90.1139
| 10> C 	 -3.04981 	 15.9125 	 90.6082
| 11> C 	 -1.74275 	 15.5787 	 90.5513
| 12> H 	 -3.44133 	 16.8874 	 90.9496
| 13> C 	 -5.41896 	 15.1264 	 89.8487
| 14> H 	 -5.74679 	 14.3218 	 89.2011
| 15> H 	 -5.57475 	 16.0821 	 89.2852
| 16> C 	 -6.30997 	 14.9768 	 91.0672
| 17> H 	 -7.2693 	 15.0355 	 90.5997
| 18> H 	 -6.1912 	 13.9776 	 91.524
| 19> C 	 -6.24621 	 16.1815 	 92.0535
| 20> H 	 -7.16133 	 16.1636 	 92.7609
| 21> H 	 -5.31184 	 16.2202 	 92.5087
| 22> H 	 -6.20711 	 17.1714 	 91.5397
| 23> S 	 0.221858 	 17.2794 	 89.6204
| 24> C 	 1.32411 	 18.0891 	 90.6994
| 25> C 	 1.10112 	 17.6224 	 91.9857
| 26> C 	 0.0545547 	 16.6202 	 92.0984
| 27> C 	 -0.612202 	 16.433 	 90.9048
| 28> H 	 1.71371 	 17.9188 	 92.8251
| 29> C 	 -0.312524 	 16.0269 	 93.4255
| 30> H 	 -1.2102 	 16.4852 	 93.7042
| 31> H 	 0.510609 	 16.2877 	 94.1135
| 32> C 	 -0.326424 	 14.5488 	 93.398
| 33> H 	 -0.826282 	 14.3073 	 92.4892
| 34> H 	 -0.992691 	 14.2788 	 94.2389
| 35> C 	 0.947284 	 13.6881 	 93.35
| 36> H 	 0.591337 	 12.6379 	 93.2851
| 37> H 	 1.65605 	 13.7445 	 94.2345
| 38> H 	 1.54931 	 13.9384 	 92.4012
| 39> H 	 -3.53354 	 12.9697 	 89.1849
| 40> H 	 1.994 	 18.8675 	 90.4234
| 41> *
| 42>
| 43>                          ****END OF INPUT****

CARTESIAN COORDINATES (ANGSTROEM)
---------------------------------
  S     -1.519260   14.020000   89.843100
  C     -3.184640   13.764200   89.757200
  C     -3.910730   14.929000   90.113900
  C     -3.049810   15.912500   90.608200
  C     -1.742750   15.578700   90.551300
  H     -3.441330   16.887400   90.949600
  C     -5.418960   15.126400   89.848700
  H     -5.746790   14.321800   89.201100
  H     -5.574750   16.082100   89.285200
  C     -6.309970   14.976800   91.067200
  H     -7.269300   15.035500   90.599700
  H     -6.191200   13.977600   91.524000
  C     -6.246210   16.181500   92.053500
  H     -7.161330   16.163600   92.760900
  H     -5.311840   16.220200   92.508700
  H     -6.207110   17.171400   91.539700
  S      0.221858   17.279400   89.620400
  C      1.324110   18.089100   90.699400
  C      1.101120   17.622400   91.985700
  C      0.054555   16.620200   92.098400
  C     -0.612202   16.433000   90.904800
  H      1.713710   17.918800   92.825100
  C     -0.312524   16.026900   93.425500
  H     -1.210200   16.485200   93.704200
  H      0.510609   16.287700   94.113500
  C     -0.326424   14.548800   93.398000
  H     -0.826282   14.307300   92.489200
  H     -0.992691   14.278800   94.238900
  C      0.947284   13.688100   93.350000
  H      0.591337   12.637900   93.285100
  H      1.656050   13.744500   94.234500
  H      1.549310   13.938400   92.401200
  H     -3.533540   12.969700   89.184900
  H      1.994000   18.867500   90.423400

 Total Charge           Charge          ....    0
 Multiplicity           Mult            ....    1
 Number of Electrons    NEL             ....  134
 Basis Dimension        Dim             ....  322

ORBITAL ENERGIES
----------------

  NO   OCC          E(Eh)            E(eV)
   0   2.0000     -88.969011     -2420.9699
   1   2.0000     -88.960595     -2420.7409
   2   2.0000     -10.323977      -280.9297
   3   2.0000     -10.321374      -280.8589
   4   2.0000     -10.315674      -280.7038
   5   2.0000     -10.308492      -280.5083
   6   2.0000     -10.301287      -280.3123
   7   2.0000     -10.298056      -280.2244
   8   2.0000     -10.295689      -280.1599
   9   2.0000     -10.292468      -280.0723
  10   2.0000     -10.292299      -280.0677
  11   2.0000     -10.286911      -279.9211
  12   2.0000     -10.286198      -279.9017
  13   2.0000     -10.283391      -279.8253
  14   2.0000     -10.279355      -279.7155
  15   2.0000     -10.272056      -279.5169
  16   2.0000      -8.084740      -219.9970
  17   2.0000      -8.075616      -219.7487
  18   2.0000      -6.042928      -164.4364
  19   2.0000      -6.039016      -164.3300
  20   2.0000      -6.035860      -164.2441
  21   2.0000      -6.034126      -164.1969
  22   2.0000      -6.029954      -164.0834
  23   2.0000      -6.026491      -163.9892
  24   2.0000      -1.015116       -27.6227
  25   2.0000      -0.987743       -26.8779
  26   2.0000      -0.914487       -24.8844
  27   2.0000      -0.912163       -24.8212
  28   2.0000      -0.869856       -23.6700
  29   2.0000      -0.852854       -23.2073
  30   2.0000      -0.840479       -22.8706
  31   2.0000      -0.814320       -22.1588
  32   2.0000      -0.784613       -21.3504
  33   2.0000      -0.773281       -21.0420
  34   2.0000      -0.704896       -19.1812
  35   2.0000      -0.699825       -19.0432
  36   2.0000      -0.681885       -18.5550
  37   2.0000      -0.662955       -18.0399
  38   2.0000      -0.649884       -17.6842
  39   2.0000      -0.620544       -16.8859
  40   2.0000      -0.593969       -16.1627
  41   2.0000      -0.573054       -15.5936
  42   2.0000      -0.560822       -15.2607
  43   2.0000      -0.547363       -14.8945
  44   2.0000      -0.541773       -14.7424
  45   2.0000      -0.538562       -14.6550
  46   2.0000      -0.516777       -14.0622
  47   2.0000      -0.510865       -13.9013
  48   2.0000      -0.507547       -13.8111
  49   2.0000      -0.490706       -13.3528
  50   2.0000      -0.488959       -13.3053
  51   2.0000      -0.477951       -13.0057
  52   2.0000      -0.472978       -12.8704
  53   2.0000      -0.469476       -12.7751
  54   2.0000      -0.463736       -12.6189
  55   2.0000      -0.449148       -12.2219
  56   2.0000      -0.445322       -12.1178
  57   2.0000      -0.441118       -12.0034
  58   2.0000      -0.428483       -11.6596
  59   2.0000      -0.420738       -11.4489
  60   2.0000      -0.415129       -11.2962
  61   2.0000      -0.404870       -11.0171
  62   2.0000      -0.403800       -10.9879
  63   2.0000      -0.344107        -9.3636
  64   2.0000      -0.325972        -8.8702
  65   2.0000      -0.320480        -8.7207
  66   2.0000      -0.308694        -8.4000
  67   0.0000       0.045904         1.2491
  68   0.0000       0.052995         1.4421
  69   0.0000       0.115204         3.1349
  70   0.0000       0.126842         3.4515
  71   0.0000       0.130057         3.5390

MULLIKEN ATOMIC CHARGES
-----------------------
   0 S :    0.136898
   1 C :   -0.101151
   2 C :   -0.101750
   3 C :    0.047493
   4 C :   -0.195556
   5 H :    0.017633
   6 C :    0.036068
   7 H :    0.014378
   8 H :    0.045764
   9 C :   -0.047301
  10 H :    0.023301
  11 H :    0.041684
  12 C :   -0.066248
  13 H :    0.058007
  14 H :    0.023132
  15 H :    0.021995
  16 S :    0.104684
  17 C :   -0.080388
  18 C :   -0.031190
  19 C :   -0.079803
  20 C :   -0.179822
  21 H :    0.015426
  22 C :    0.164218
  23 H :    0.026083
  24 H :    0.005762
  25 C :   -0.076773
  26 H :    0.017001
  27 H :    0.022186
  28 C :   -0.080635
  29 H :    0.046594
  30 H :    0.039330
  31 H :    0.048308
  32 H :    0.031596
  33 H :    0.053074
Sum of atomic charges:   -0.0000000

LOEWDIN ATOMIC CHARGES
----------------------
   0 S :    0.459120
   1 C :   -0.209282
   2 C :   -0.062588
   3 C :   -0.062223
   4 C :   -0.213104
   5 H :    0.037878
   6 C :   -0.031988
   7 H :    0.029683
   8 H :    0.037067
   9 C :   -0.039164
  10 H :    0.022161
  11 H :    0.030739
  12 C :   -0.073815
  13 H :    0.039423
  14 H :    0.012544
  15 H :    0.027457
  16 S :    0.407379
  17 C :   -0.183511
  18 C :   -0.073618
  19 C :   -0.054100
  20 C :   -0.210369
  21 H :    0.027810
  22 C :   -0.026418
  23 H :    0.030187
  24 H :    0.031088
  25 C :   -0.051041
  26 H :    0.012972
  27 H :    0.026877
  28 C :   -0.073912
  29 H :    0.034161
  30 H :    0.024599
  31 H :    0.034980
  32 H :    0.011909
  33 H :    0.027098

  Mayer bond orders larger than 0.100000
B(  0-S ,  1-C ) :   1.1830 B(  0-S ,  4-C ) :   1.1785 B(  1-C ,  2-C ) :   1.5603
B(  1-C ,  4-C ) :   0.1021 B(  1-C , 32-H ) :   0.9732 B(  2-C ,  3-C ) :   1.2911
B(  2-C ,  6-C ) :   1.0138 B(  3-C ,  4-C ) :   1.5652 B(  3-C ,  5-H ) :   0.9897
B(  4-C , 20-C ) :   0.9914 B(  6-C ,  7-H ) :   0.9368 B(  6-C ,  8-H ) :   0.9456
B(  6-C ,  9-C ) :   1.0831 B(  9-C , 10-H ) :   0.9545 B(  9-C , 11-H ) :   0.9527
B(  9-C , 12-C ) :   1.0709 B( 12-C , 13-H ) :   0.9744 B( 12-C , 14-H ) :   0.9739
B( 12-C , 15-H ) :   0.9711 B( 16-S , 17-C ) :   1.1608 B( 16-S , 20-C ) :   1.1492
B( 17-C , 18-C ) :   1.5925 B( 17-C , 33-H ) :   0.9736 B( 18-C , 19-C ) :   1.2524
B( 18-C , 21-H ) :   0.9875 B( 19-C , 20-C ) :   1.5973 B( 19-C , 22-C ) :   1.0314
B( 22-C , 23-H ) :   0.9265 B( 22-C , 24-H ) :   0.9243 B( 22-C , 25-C ) :   1.0774
B( 25-C , 26-H ) :   0.9532 B( 25-C , 27-H ) :   0.9470 B( 25-C , 28-C ) :   1.0775
B( 28-C , 29-H ) :   0.9720 B( 28-C , 30-H ) :   0.9738 B( 28-C , 31-H ) :   0.9697

Dispersion correction           -0.015294121
FINAL SINGLE POINT ENERGY     -1339.872313605999

DIPOLE MOMENT
-------------
                                X             Y             Z
Electronic contribution:     13.97184       4.21987     -15.66128
Nuclear contribution   :    -14.38052      -4.15354      15.83835
                        -----------------------------------------
Total Dipole Moment    :     -0.40868       0.06632       0.17707
                        -----------------------------------------
Magnitude (a.u.)       :      0.45030
Magnitude (Debye)      :      1.14458

Rotational constants in cm-1:     0.019908     0.008632     0.008069
Rotational constants in MHz :   596.813852   258.767199   241.916959

                             ****ORCA TERMINATED NORMALLY****
TOTAL RUN TIME: 0 days 0 hours 0 minutes 34 seconds 547 msec
