                         Program Version 4.2.1 -  RELEASE  -
|  1> ! wB97X-D3 SP def2-SVP
|  2> %pal
|  3> nprocs 16
|  4> end
|  5>
|  6> * xyz 0 1
|  7> S 	 -74.7985 	 46.8414 	 136.215
|  8> C 	 -74.1142 	 45.4686 	 137.033
|  9> C 	 -73.3252 	 45.8838 	 138.166
| 10> C 	 -73.375 	 47.346 	 138.249
| 11> C 	 -74.03 	 48.0004 	 137.267
| 12> H 	 -73.021 	 47.9748 	 139.061
| 13> C 	 -72.5848 	 44.9734 	 139.142
| 14> H 	 -73.3522 	 44.5169 	 139.68
| 15> H 	 -72.1223 	 45.644 	 139.802
| 16> C 	 -71.6916 	 43.8614 	 138.625
| 17> H 	 -72.3697 	 43.3513 	 137.979
| 18> H 	 -70.801 	 44.2526 	 138.118
| 19> C 	 -71.0517 	 42.9391 	 139.713
| 20> H 	 -71.7441 	 42.5557 	 140.456
| 21> H 	 -70.6562 	 41.9982 	 139.25
| 22> H 	 -70.2819 	 43.4101 	 140.273
| 23> S 	 -75.6997 	 50.1247 	 137.519
| 24> C 	 -75.2195 	 51.6592 	 136.88
| 25> C 	 -73.9919 	 51.6374 	 136.241
| 26> C 	 -73.5276 	 50.2898 	 136.178
| 27> C 	 -74.2455 	 49.4131 	 136.996
| 28> H 	 -73.5274 	 52.5026 	 135.775
| 29> C 	 -72.2303 	 49.9569 	 135.472
| 30> H 	 -72.174 	 50.2036 	 134.426
| 31> H 	 -72.1687 	 48.8808 	 135.397
| 32> C 	 -70.9952 	 50.6881 	 136.092
| 33> H 	 -70.9379 	 50.4571 	 137.121
| 34> H 	 -71.1222 	 51.751 	 135.985
| 35> C 	 -69.7579 	 50.1798 	 135.377
| 36> H 	 -69.6907 	 49.1167 	 135.151
| 37> H 	 -68.8658 	 50.4123 	 135.956
| 38> H 	 -69.5486 	 50.7302 	 134.448
| 39> H 	 -74.3439 	 44.4558 	 136.677
| 40> H 	 -75.8184 	 52.5332 	 137.086
| 41> *
| 42>
| 43>                          ****END OF INPUT****

CARTESIAN COORDINATES (ANGSTROEM)
---------------------------------
  S    -74.798500   46.841400  136.215000
  C    -74.114200   45.468600  137.033000
  C    -73.325200   45.883800  138.166000
  C    -73.375000   47.346000  138.249000
  C    -74.030000   48.000400  137.267000
  H    -73.021000   47.974800  139.061000
  C    -72.584800   44.973400  139.142000
  H    -73.352200   44.516900  139.680000
  H    -72.122300   45.644000  139.802000
  C    -71.691600   43.861400  138.625000
  H    -72.369700   43.351300  137.979000
  H    -70.801000   44.252600  138.118000
  C    -71.051700   42.939100  139.713000
  H    -71.744100   42.555700  140.456000
  H    -70.656200   41.998200  139.250000
  H    -70.281900   43.410100  140.273000
  S    -75.699700   50.124700  137.519000
  C    -75.219500   51.659200  136.880000
  C    -73.991900   51.637400  136.241000
  C    -73.527600   50.289800  136.178000
  C    -74.245500   49.413100  136.996000
  H    -73.527400   52.502600  135.775000
  C    -72.230300   49.956900  135.472000
  H    -72.174000   50.203600  134.426000
  H    -72.168700   48.880800  135.397000
  C    -70.995200   50.688100  136.092000
  H    -70.937900   50.457100  137.121000
  H    -71.122200   51.751000  135.985000
  C    -69.757900   50.179800  135.377000
  H    -69.690700   49.116700  135.151000
  H    -68.865800   50.412300  135.956000
  H    -69.548600   50.730200  134.448000
  H    -74.343900   44.455800  136.677000
  H    -75.818400   52.533200  137.086000

 Total Charge           Charge          ....    0
 Multiplicity           Mult            ....    1
 Number of Electrons    NEL             ....  134
 Basis Dimension        Dim             ....  322

ORBITAL ENERGIES
----------------

  NO   OCC          E(Eh)            E(eV)
   0   2.0000     -88.964338     -2420.8427
   1   2.0000     -88.959752     -2420.7179
   2   2.0000     -10.321607      -280.8652
   3   2.0000     -10.320134      -280.8251
   4   2.0000     -10.319565      -280.8096
   5   2.0000     -10.315492      -280.6988
   6   2.0000     -10.312376      -280.6140
   7   2.0000     -10.301005      -280.3046
   8   2.0000     -10.294531      -280.1284
   9   2.0000     -10.294139      -280.1178
  10   2.0000     -10.289143      -279.9818
  11   2.0000     -10.283067      -279.8165
  12   2.0000     -10.282721      -279.8071
  13   2.0000     -10.281542      -279.7750
  14   2.0000     -10.281303      -279.7685
  15   2.0000     -10.273920      -279.5676
  16   2.0000      -8.080483      -219.8811
  17   2.0000      -8.074982      -219.7314
  18   2.0000      -6.038820      -164.3246
  19   2.0000      -6.034709      -164.2128
  20   2.0000      -6.033429      -164.1779
  21   2.0000      -6.031441      -164.1238
  22   2.0000      -6.029224      -164.0635
  23   2.0000      -6.025977      -163.9752
  24   2.0000      -1.010170       -27.4881
  25   2.0000      -0.983019       -26.7493
  26   2.0000      -0.912855       -24.8400
  27   2.0000      -0.908292       -24.7159
  28   2.0000      -0.867460       -23.6048
  29   2.0000      -0.850796       -23.1513
  30   2.0000      -0.845245       -23.0003
  31   2.0000      -0.816363       -22.2144
  32   2.0000      -0.782620       -21.2962
  33   2.0000      -0.766461       -20.8565
  34   2.0000      -0.710016       -19.3205
  35   2.0000      -0.705995       -19.2111
  36   2.0000      -0.689940       -18.7742
  37   2.0000      -0.661050       -17.9881
  38   2.0000      -0.648537       -17.6476
  39   2.0000      -0.613367       -16.6906
  40   2.0000      -0.600323       -16.3356
  41   2.0000      -0.575911       -15.6713
  42   2.0000      -0.565170       -15.3790
  43   2.0000      -0.558119       -15.1872
  44   2.0000      -0.524559       -14.2740
  45   2.0000      -0.519499       -14.1363
  46   2.0000      -0.516827       -14.0636
  47   2.0000      -0.512249       -13.9390
  48   2.0000      -0.506513       -13.7829
  49   2.0000      -0.501267       -13.6402
  50   2.0000      -0.492001       -13.3880
  51   2.0000      -0.474568       -12.9136
  52   2.0000      -0.471572       -12.8321
  53   2.0000      -0.467959       -12.7338
  54   2.0000      -0.457681       -12.4541
  55   2.0000      -0.449548       -12.2328
  56   2.0000      -0.443693       -12.0735
  57   2.0000      -0.440532       -11.9875
  58   2.0000      -0.430762       -11.7216
  59   2.0000      -0.427094       -11.6218
  60   2.0000      -0.424708       -11.5569
  61   2.0000      -0.415486       -11.3059
  62   2.0000      -0.414055       -11.2670
  63   2.0000      -0.336222        -9.1491
  64   2.0000      -0.329082        -8.9548
  65   2.0000      -0.313854        -8.5404
  66   2.0000      -0.307660        -8.3718
  67   0.0000       0.051835         1.4105
  68   0.0000       0.053069         1.4441
  69   0.0000       0.120584         3.2813
  70   0.0000       0.123282         3.3547
  71   0.0000       0.131502         3.5783

MULLIKEN ATOMIC CHARGES
-----------------------
   0 S :    0.110297
   1 C :   -0.149062
   2 C :   -0.116591
   3 C :    0.044271
   4 C :   -0.183540
   5 H :    0.010606
   6 C :    0.139084
   7 H :    0.018725
   8 H :   -0.003994
   9 C :   -0.056914
  10 H :    0.022921
  11 H :    0.039542
  12 C :   -0.062835
  13 H :    0.020190
  14 H :    0.040908
  15 H :    0.032105
  16 S :    0.128111
  17 C :   -0.094014
  18 C :   -0.027508
  19 C :   -0.011009
  20 C :   -0.182705
  21 H :    0.027428
  22 C :    0.056272
  23 H :    0.015240
  24 H :    0.019650
  25 C :   -0.046337
  26 H :    0.024986
  27 H :    0.027972
  28 C :   -0.048764
  29 H :    0.036825
  30 H :    0.021915
  31 H :    0.026335
  32 H :    0.064625
  33 H :    0.055265
Sum of atomic charges:   -0.0000000

LOEWDIN ATOMIC CHARGES
----------------------
   0 S :    0.411357
   1 C :   -0.207043
   2 C :   -0.055280
   3 C :   -0.064989
   4 C :   -0.206060
   5 H :    0.033635
   6 C :   -0.028933
   7 H :    0.029330
   8 H :    0.020323
   9 C :   -0.031348
  10 H :    0.020506
  11 H :    0.030162
  12 C :   -0.066563
  13 H :    0.020750
  14 H :    0.034662
  15 H :    0.021061
  16 S :    0.440259
  17 C :   -0.184114
  18 C :   -0.070526
  19 C :   -0.046710
  20 C :   -0.233362
  21 H :    0.035272
  22 C :   -0.033457
  23 H :    0.028425
  24 H :    0.027073
  25 C :   -0.027118
  26 H :    0.018778
  27 H :    0.023015
  28 C :   -0.070028
  29 H :    0.027216
  30 H :    0.025089
  31 H :    0.026446
  32 H :    0.028295
  33 H :    0.023878

  Mayer bond orders larger than 0.100000
B(  0-S ,  1-C ) :   1.1659 B(  0-S ,  4-C ) :   1.1477 B(  1-C ,  2-C ) :   1.5700
B(  1-C ,  4-C ) :   0.1004 B(  1-C , 32-H ) :   0.9703 B(  2-C ,  3-C ) :   1.2370
B(  2-C ,  6-C ) :   1.0151 B(  3-C ,  4-C ) :   1.6368 B(  3-C ,  5-H ) :   0.9867
B(  4-C , 20-C ) :   0.9914 B(  6-C ,  7-H ) :   0.9251 B(  6-C ,  8-H ) :   0.9357
B(  6-C ,  9-C ) :   1.0646 B(  9-C , 10-H ) :   0.9563 B(  9-C , 11-H ) :   0.9600
B(  9-C , 12-C ) :   1.0787 B( 12-C , 13-H ) :   0.9754 B( 12-C , 14-H ) :   0.9752
B( 12-C , 15-H ) :   0.9786 B( 16-S , 17-C ) :   1.1812 B( 16-S , 20-C ) :   1.1671
B( 17-C , 18-C ) :   1.5804 B( 17-C , 20-C ) :   0.1014 B( 17-C , 33-H ) :   0.9684
B( 18-C , 19-C ) :   1.2489 B( 18-C , 21-H ) :   0.9921 B( 19-C , 20-C ) :   1.5788
B( 19-C , 22-C ) :   1.0596 B( 22-C , 23-H ) :   0.9327 B( 22-C , 24-H ) :   0.9334
B( 22-C , 25-C ) :   1.0533 B( 25-C , 26-H ) :   0.9596 B( 25-C , 27-H ) :   0.9532
B( 25-C , 28-C ) :   1.0873 B( 28-C , 29-H ) :   0.9762 B( 28-C , 30-H ) :   0.9720
B( 28-C , 31-H ) :   0.9719

Dispersion correction           -0.013516611
FINAL SINGLE POINT ENERGY     -1339.874650928093

DIPOLE MOMENT
-------------
                                X             Y             Z
Electronic contribution:    -26.48678      10.38022      -3.42701
Nuclear contribution   :     26.99520     -10.40346       3.59188
                        -----------------------------------------
Total Dipole Moment    :      0.50842      -0.02324       0.16487
                        -----------------------------------------
Magnitude (a.u.)       :      0.53499
Magnitude (Debye)      :      1.35983

Rotational constants in cm-1:     0.019222     0.007609     0.006143
Rotational constants in MHz :   576.257553   228.098903   184.152437

                             ****ORCA TERMINATED NORMALLY****
TOTAL RUN TIME: 0 days 0 hours 0 minutes 33 seconds 978 msec
