                         Program Version 4.2.1 -  RELEASE  -
|  1> ! wB97X-D3 SP def2-SVP
|  2> %pal
|  3> nprocs 16
|  4> end
|  5>
|  6> * xyz 0 1
|  7> S 	 -12.669 	 -10.0851 	 87.7548
|  8> C 	 -13.5795 	 -11.2579 	 86.8559
|  9> C 	 -14.1391 	 -10.7757 	 85.6736
| 10> C 	 -13.7047 	 -9.47292 	 85.4337
| 11> C 	 -12.812 	 -8.95518 	 86.3614
| 12> H 	 -13.9088 	 -8.86049 	 84.5667
| 13> C 	 -14.9952 	 -11.5934 	 84.7014
| 14> H 	 -14.6335 	 -12.6368 	 84.6196
| 15> H 	 -14.9934 	 -11.1249 	 83.6684
| 16> C 	 -16.4207 	 -11.7031 	 85.3294
| 17> H 	 -16.3474 	 -12.0515 	 86.3977
| 18> H 	 -16.8024 	 -10.6338 	 85.3037
| 19> C 	 -17.3328 	 -12.5179 	 84.5899
| 20> H 	 -17.1186 	 -12.5712 	 83.5338
| 21> H 	 -17.3575 	 -13.4901 	 85.0323
| 22> H 	 -18.3147 	 -12.0703 	 84.5885
| 23> S 	 -11.3059 	 -7.29152 	 84.7071
| 24> C 	 -11.1337 	 -5.6122 	 85.1464
| 25> C 	 -11.5994 	 -5.41717 	 86.4028
| 26> C 	 -12.1398 	 -6.55434 	 87.0087
| 27> C 	 -12.1949 	 -7.65287 	 86.2141
| 28> H 	 -11.4148 	 -4.49369 	 86.91
| 29> C 	 -12.8325 	 -6.5003 	 88.3816
| 30> H 	 -12.2636 	 -5.78904 	 88.9475
| 31> H 	 -12.5857 	 -7.43777 	 88.9028
| 32> C 	 -14.3345 	 -6.14456 	 88.5149
| 33> H 	 -14.9081 	 -6.98383 	 88.1082
| 34> H 	 -14.5676 	 -5.39858 	 87.779
| 35> C 	 -14.8359 	 -5.79292 	 89.926
| 36> H 	 -15.9298 	 -5.71701 	 89.9431
| 37> H 	 -14.2992 	 -4.93019 	 90.2775
| 38> H 	 -14.6249 	 -6.57548 	 90.6488
| 39> H 	 -13.8809 	 -12.251 	 87.2004
| 40> H 	 -10.5662 	 -4.83141 	 84.6893
| 41> *
| 42>
| 43>                          ****END OF INPUT****

CARTESIAN COORDINATES (ANGSTROEM)
---------------------------------
  S    -12.669000  -10.085100   87.754800
  C    -13.579500  -11.257900   86.855900
  C    -14.139100  -10.775700   85.673600
  C    -13.704700   -9.472920   85.433700
  C    -12.812000   -8.955180   86.361400
  H    -13.908800   -8.860490   84.566700
  C    -14.995200  -11.593400   84.701400
  H    -14.633500  -12.636800   84.619600
  H    -14.993400  -11.124900   83.668400
  C    -16.420700  -11.703100   85.329400
  H    -16.347400  -12.051500   86.397700
  H    -16.802400  -10.633800   85.303700
  C    -17.332800  -12.517900   84.589900
  H    -17.118600  -12.571200   83.533800
  H    -17.357500  -13.490100   85.032300
  H    -18.314700  -12.070300   84.588500
  S    -11.305900   -7.291520   84.707100
  C    -11.133700   -5.612200   85.146400
  C    -11.599400   -5.417170   86.402800
  C    -12.139800   -6.554340   87.008700
  C    -12.194900   -7.652870   86.214100
  H    -11.414800   -4.493690   86.910000
  C    -12.832500   -6.500300   88.381600
  H    -12.263600   -5.789040   88.947500
  H    -12.585700   -7.437770   88.902800
  C    -14.334500   -6.144560   88.514900
  H    -14.908100   -6.983830   88.108200
  H    -14.567600   -5.398580   87.779000
  C    -14.835900   -5.792920   89.926000
  H    -15.929800   -5.717010   89.943100
  H    -14.299200   -4.930190   90.277500
  H    -14.624900   -6.575480   90.648800
  H    -13.880900  -12.251000   87.200400
  H    -10.566200   -4.831410   84.689300

 Total Charge           Charge          ....    0
 Multiplicity           Mult            ....    1
 Number of Electrons    NEL             ....  134
 Basis Dimension        Dim             ....  322

ORBITAL ENERGIES
----------------

  NO   OCC          E(Eh)            E(eV)
   0   2.0000     -88.973453     -2421.0907
   1   2.0000     -88.964228     -2420.8397
   2   2.0000     -10.330564      -281.1089
   3   2.0000     -10.324679      -280.9488
   4   2.0000     -10.314765      -280.6790
   5   2.0000     -10.311495      -280.5900
   6   2.0000     -10.301566      -280.3199
   7   2.0000     -10.299255      -280.2570
   8   2.0000     -10.294891      -280.1382
   9   2.0000     -10.291299      -280.0405
  10   2.0000     -10.287215      -279.9293
  11   2.0000     -10.286465      -279.9090
  12   2.0000     -10.284418      -279.8533
  13   2.0000     -10.281666      -279.7783
  14   2.0000     -10.277062      -279.6531
  15   2.0000     -10.265426      -279.3364
  16   2.0000      -8.086779      -220.0524
  17   2.0000      -8.078429      -219.8252
  18   2.0000      -6.045348      -164.5023
  19   2.0000      -6.041523      -164.3982
  20   2.0000      -6.037540      -164.2898
  21   2.0000      -6.036997      -164.2750
  22   2.0000      -6.033034      -164.1672
  23   2.0000      -6.029111      -164.0604
  24   2.0000      -1.007257       -27.4089
  25   2.0000      -0.986502       -26.8441
  26   2.0000      -0.917833       -24.9755
  27   2.0000      -0.900700       -24.5093
  28   2.0000      -0.874302       -23.7910
  29   2.0000      -0.858079       -23.3495
  30   2.0000      -0.848413       -23.0865
  31   2.0000      -0.815606       -22.1938
  32   2.0000      -0.781653       -21.2699
  33   2.0000      -0.770329       -20.9617
  34   2.0000      -0.709594       -19.3090
  35   2.0000      -0.697250       -18.9731
  36   2.0000      -0.688510       -18.7353
  37   2.0000      -0.666873       -18.1465
  38   2.0000      -0.636437       -17.3183
  39   2.0000      -0.616656       -16.7801
  40   2.0000      -0.592606       -16.1256
  41   2.0000      -0.578544       -15.7430
  42   2.0000      -0.567663       -15.4469
  43   2.0000      -0.555716       -15.1218
  44   2.0000      -0.524216       -14.2646
  45   2.0000      -0.520611       -14.1666
  46   2.0000      -0.516041       -14.0422
  47   2.0000      -0.514584       -14.0026
  48   2.0000      -0.509505       -13.8643
  49   2.0000      -0.506325       -13.7778
  50   2.0000      -0.488821       -13.3015
  51   2.0000      -0.478120       -13.0103
  52   2.0000      -0.471216       -12.8224
  53   2.0000      -0.465861       -12.6767
  54   2.0000      -0.464187       -12.6312
  55   2.0000      -0.451266       -12.2796
  56   2.0000      -0.444836       -12.1046
  57   2.0000      -0.437372       -11.9015
  58   2.0000      -0.432926       -11.7805
  59   2.0000      -0.424960       -11.5638
  60   2.0000      -0.416340       -11.3292
  61   2.0000      -0.409001       -11.1295
  62   2.0000      -0.404645       -11.0109
  63   2.0000      -0.348229        -9.4758
  64   2.0000      -0.334148        -9.0926
  65   2.0000      -0.331692        -9.0258
  66   2.0000      -0.289660        -7.8821
  67   0.0000       0.027329         0.7437
  68   0.0000       0.065706         1.7879
  69   0.0000       0.106365         2.8943
  70   0.0000       0.113899         3.0994
  71   0.0000       0.131416         3.5760

MULLIKEN ATOMIC CHARGES
-----------------------
   0 S :    0.126191
   1 C :   -0.113789
   2 C :   -0.060514
   3 C :    0.007003
   4 C :   -0.148549
   5 H :    0.011622
   6 C :    0.041638
   7 H :    0.033903
   8 H :    0.043689
   9 C :   -0.148160
  10 H :    0.040452
  11 H :    0.034231
  12 C :    0.030397
  13 H :    0.017403
  14 H :    0.028857
  15 H :    0.025078
  16 S :    0.102055
  17 C :   -0.068410
  18 C :   -0.044075
  19 C :   -0.036146
  20 C :   -0.168700
  21 H :    0.008598
  22 C :    0.071997
  23 H :   -0.002062
  24 H :    0.010926
  25 C :   -0.037287
  26 H :    0.022466
  27 H :    0.017072
  28 C :   -0.033254
  29 H :    0.040802
  30 H :    0.029850
  31 H :    0.026001
  32 H :    0.043282
  33 H :    0.047433
Sum of atomic charges:    0.0000000

LOEWDIN ATOMIC CHARGES
----------------------
   0 S :    0.403739
   1 C :   -0.200482
   2 C :   -0.064794
   3 C :   -0.056596
   4 C :   -0.184550
   5 H :    0.029725
   6 C :   -0.030977
   7 H :    0.030656
   8 H :    0.037122
   9 C :   -0.052405
  10 H :    0.029605
  11 H :    0.029300
  12 C :   -0.069768
  13 H :    0.025118
  14 H :    0.025732
  15 H :    0.030293
  16 S :    0.395357
  17 C :   -0.183465
  18 C :   -0.072617
  19 C :   -0.064474
  20 C :   -0.178691
  21 H :    0.029107
  22 C :   -0.032653
  23 H :    0.021418
  24 H :    0.021427
  25 C :   -0.041289
  26 H :    0.025666
  27 H :    0.021025
  28 C :   -0.061564
  29 H :    0.032391
  30 H :    0.022590
  31 H :    0.025652
  32 H :    0.027573
  33 H :    0.030827

  Mayer bond orders larger than 0.100000
B(  0-S ,  1-C ) :   1.1509 B(  0-S ,  4-C ) :   1.1255 B(  1-C ,  2-C ) :   1.5965
B(  1-C ,  4-C ) :   0.1019 B(  1-C , 32-H ) :   0.9565 B(  2-C ,  3-C ) :   1.2689
B(  2-C ,  6-C ) :   1.0138 B(  3-C ,  4-C ) :   1.5564 B(  3-C ,  5-H ) :   0.9924
B(  4-C , 20-C ) :   1.0740 B(  6-C ,  7-H ) :   0.9445 B(  6-C ,  8-H ) :   0.9440
B(  6-C ,  9-C ) :   1.0557 B(  9-C , 10-H ) :   0.9619 B(  9-C , 11-H ) :   0.9574
B(  9-C , 12-C ) :   1.0910 B( 12-C , 13-H ) :   0.9622 B( 12-C , 14-H ) :   0.9699
B( 12-C , 15-H ) :   0.9681 B( 16-S , 17-C ) :   1.1446 B( 16-S , 20-C ) :   1.1263
B( 17-C , 18-C ) :   1.6172 B( 17-C , 33-H ) :   0.9647 B( 18-C , 19-C ) :   1.2585
B( 18-C , 21-H ) :   0.9889 B( 19-C , 20-C ) :   1.5961 B( 19-C , 22-C ) :   1.0467
B( 22-C , 23-H ) :   0.9293 B( 22-C , 24-H ) :   0.9277 B( 22-C , 25-C ) :   1.0553
B( 25-C , 26-H ) :   0.9505 B( 25-C , 27-H ) :   0.9545 B( 25-C , 28-C ) :   1.0798
B( 28-C , 29-H ) :   0.9729 B( 28-C , 30-H ) :   0.9761 B( 28-C , 31-H ) :   0.9754

Dispersion correction           -0.014015372
FINAL SINGLE POINT ENERGY     -1339.873311943852

DIPOLE MOMENT
-------------
                                X             Y             Z
Electronic contribution:     22.40341       2.65914      -5.10363
Nuclear contribution   :    -22.86888      -2.62950       5.13027
                        -----------------------------------------
Total Dipole Moment    :     -0.46547       0.02963       0.02664
                        -----------------------------------------
Magnitude (a.u.)       :      0.46718
Magnitude (Debye)      :      1.18747

Rotational constants in cm-1:     0.018351     0.007959     0.006651
Rotational constants in MHz :   550.138939   238.599356   199.404701

                             ****ORCA TERMINATED NORMALLY****
TOTAL RUN TIME: 0 days 0 hours 0 minutes 31 seconds 240 msec
