                         Program Version 4.2.1 -  RELEASE  -
|  1> ! wB97X-D3 SP def2-SVP
|  2> %pal
|  3> nprocs 16
|  4> end
|  5>
|  6> * xyz 0 1
|  7> S 	 -74.031 	 49.4903 	 139.51
|  8> C 	 -74.0064 	 47.86 	 139.913
|  9> C 	 -73.4987 	 47.0808 	 138.938
| 10> C 	 -73.0131 	 47.8287 	 137.76
| 11> C 	 -73.2776 	 49.1818 	 137.929
| 12> H 	 -72.6062 	 47.3907 	 136.861
| 13> C 	 -73.3853 	 45.5647 	 139.095
| 14> H 	 -74.467 	 45.2805 	 138.88
| 15> H 	 -73.0898 	 45.3449 	 140.146
| 16> C 	 -72.3445 	 44.8886 	 138.201
| 17> H 	 -72.7579 	 44.891 	 137.196
| 18> H 	 -71.4446 	 45.5552 	 138.127
| 19> C 	 -72.0064 	 43.4161 	 138.65
| 20> H 	 -71.6363 	 42.9721 	 137.806
| 21> H 	 -71.3634 	 43.3139 	 139.496
| 22> H 	 -73.0429 	 43.0522 	 138.934
| 23> S 	 -71.0336 	 50.4267 	 136.915
| 24> C 	 -71.2817 	 51.6684 	 135.774
| 25> C 	 -72.6363 	 51.9795 	 135.485
| 26> C 	 -73.4979 	 51.153 	 136.251
| 27> C 	 -72.8029 	 50.2055 	 136.99
| 28> H 	 -72.9646 	 52.7799 	 134.801
| 29> C 	 -74.9576 	 51.396 	 136.446
| 30> H 	 -75.4052 	 50.502 	 136.825
| 31> H 	 -75.4212 	 51.6958 	 135.527
| 32> C 	 -75.3776 	 52.4243 	 137.419
| 33> H 	 -74.9883 	 53.4158 	 137.134
| 34> H 	 -75.0582 	 52.2173 	 138.499
| 35> C 	 -76.9242 	 52.5789 	 137.577
| 36> H 	 -77.142 	 53.0668 	 138.523
| 37> H 	 -77.2484 	 51.5358 	 137.767
| 38> H 	 -77.4365 	 52.8439 	 136.683
| 39> H 	 -74.2137 	 47.4557 	 140.923
| 40> H 	 -70.4945 	 52.0314 	 135.177
| 41> *
| 42>
| 43>                          ****END OF INPUT****

CARTESIAN COORDINATES (ANGSTROEM)
---------------------------------
  S    -74.031000   49.490300  139.510000
  C    -74.006400   47.860000  139.913000
  C    -73.498700   47.080800  138.938000
  C    -73.013100   47.828700  137.760000
  C    -73.277600   49.181800  137.929000
  H    -72.606200   47.390700  136.861000
  C    -73.385300   45.564700  139.095000
  H    -74.467000   45.280500  138.880000
  H    -73.089800   45.344900  140.146000
  C    -72.344500   44.888600  138.201000
  H    -72.757900   44.891000  137.196000
  H    -71.444600   45.555200  138.127000
  C    -72.006400   43.416100  138.650000
  H    -71.636300   42.972100  137.806000
  H    -71.363400   43.313900  139.496000
  H    -73.042900   43.052200  138.934000
  S    -71.033600   50.426700  136.915000
  C    -71.281700   51.668400  135.774000
  C    -72.636300   51.979500  135.485000
  C    -73.497900   51.153000  136.251000
  C    -72.802900   50.205500  136.990000
  H    -72.964600   52.779900  134.801000
  C    -74.957600   51.396000  136.446000
  H    -75.405200   50.502000  136.825000
  H    -75.421200   51.695800  135.527000
  C    -75.377600   52.424300  137.419000
  H    -74.988300   53.415800  137.134000
  H    -75.058200   52.217300  138.499000
  C    -76.924200   52.578900  137.577000
  H    -77.142000   53.066800  138.523000
  H    -77.248400   51.535800  137.767000
  H    -77.436500   52.843900  136.683000
  H    -74.213700   47.455700  140.923000
  H    -70.494500   52.031400  135.177000

 Total Charge           Charge          ....    0
 Multiplicity           Mult            ....    1
 Number of Electrons    NEL             ....  134
 Basis Dimension        Dim             ....  322

ORBITAL ENERGIES
----------------

  NO   OCC          E(Eh)            E(eV)
   0   2.0000     -88.969218     -2420.9755
   1   2.0000     -88.965325     -2420.8696
   2   2.0000     -10.329650      -281.0841
   3   2.0000     -10.323636      -280.9204
   4   2.0000     -10.313940      -280.6566
   5   2.0000     -10.304699      -280.4051
   6   2.0000     -10.300011      -280.2775
   7   2.0000     -10.298916      -280.2478
   8   2.0000     -10.297819      -280.2179
   9   2.0000     -10.297179      -280.2005
  10   2.0000     -10.296751      -280.1888
  11   2.0000     -10.290600      -280.0215
  12   2.0000     -10.285042      -279.8702
  13   2.0000     -10.280151      -279.7371
  14   2.0000     -10.278888      -279.7028
  15   2.0000     -10.274557      -279.5849
  16   2.0000      -8.084037      -219.9778
  17   2.0000      -8.080525      -219.8823
  18   2.0000      -6.042261      -164.4183
  19   2.0000      -6.039040      -164.3306
  20   2.0000      -6.038630      -164.3195
  21   2.0000      -6.034997      -164.2206
  22   2.0000      -6.034932      -164.2188
  23   2.0000      -6.031300      -164.1200
  24   2.0000      -1.005828       -27.3700
  25   2.0000      -0.986103       -26.8332
  26   2.0000      -0.916474       -24.9385
  27   2.0000      -0.906953       -24.6795
  28   2.0000      -0.869254       -23.6536
  29   2.0000      -0.853955       -23.2373
  30   2.0000      -0.845515       -23.0076
  31   2.0000      -0.810195       -22.0465
  32   2.0000      -0.783332       -21.3156
  33   2.0000      -0.768938       -20.9239
  34   2.0000      -0.708296       -19.2737
  35   2.0000      -0.689402       -18.7596
  36   2.0000      -0.682104       -18.5610
  37   2.0000      -0.664109       -18.0713
  38   2.0000      -0.639317       -17.3967
  39   2.0000      -0.611876       -16.6500
  40   2.0000      -0.599981       -16.3263
  41   2.0000      -0.573551       -15.6071
  42   2.0000      -0.568997       -15.4832
  43   2.0000      -0.562721       -15.3124
  44   2.0000      -0.527419       -14.3518
  45   2.0000      -0.522821       -14.2267
  46   2.0000      -0.514957       -14.0127
  47   2.0000      -0.512210       -13.9379
  48   2.0000      -0.507729       -13.8160
  49   2.0000      -0.503712       -13.7067
  50   2.0000      -0.486566       -13.2401
  51   2.0000      -0.481685       -13.1073
  52   2.0000      -0.469844       -12.7851
  53   2.0000      -0.461806       -12.5664
  54   2.0000      -0.454721       -12.3736
  55   2.0000      -0.449304       -12.2262
  56   2.0000      -0.447344       -12.1729
  57   2.0000      -0.440968       -11.9994
  58   2.0000      -0.432806       -11.7773
  59   2.0000      -0.425918       -11.5898
  60   2.0000      -0.414758       -11.2861
  61   2.0000      -0.410743       -11.1769
  62   2.0000      -0.406742       -11.0680
  63   2.0000      -0.338968        -9.2238
  64   2.0000      -0.333600        -9.0777
  65   2.0000      -0.322242        -8.7687
  66   2.0000      -0.297933        -8.1072
  67   0.0000       0.037893         1.0311
  68   0.0000       0.060065         1.6344
  69   0.0000       0.109235         2.9724
  70   0.0000       0.113649         3.0926
  71   0.0000       0.133484         3.6323

MULLIKEN ATOMIC CHARGES
-----------------------
   0 S :    0.116967
   1 C :   -0.128563
   2 C :   -0.106146
   3 C :    0.014651
   4 C :   -0.147657
   5 H :    0.022923
   6 C :    0.024389
   7 H :    0.060530
   8 H :    0.034388
   9 C :   -0.131877
  10 H :    0.030140
  11 H :    0.040819
  12 C :    0.001111
  13 H :    0.023015
  14 H :    0.041487
  15 H :    0.035388
  16 S :    0.133993
  17 C :   -0.080261
  18 C :   -0.051815
  19 C :    0.002951
  20 C :   -0.193895
  21 H :    0.030715
  22 C :    0.107832
  23 H :    0.010567
  24 H :    0.007546
  25 C :   -0.110689
  26 H :    0.022158
  27 H :    0.031376
  28 C :   -0.025592
  29 H :    0.041784
  30 H :    0.010971
  31 H :    0.029703
  32 H :    0.055893
  33 H :    0.045201
Sum of atomic charges:   -0.0000000

LOEWDIN ATOMIC CHARGES
----------------------
   0 S :    0.420762
   1 C :   -0.228600
   2 C :   -0.069801
   3 C :   -0.057876
   4 C :   -0.193511
   5 H :    0.033161
   6 C :   -0.044752
   7 H :    0.044740
   8 H :    0.031443
   9 C :   -0.048450
  10 H :    0.021744
  11 H :    0.026425
  12 C :   -0.051182
  13 H :    0.015438
  14 H :    0.023129
  15 H :    0.035871
  16 S :    0.425665
  17 C :   -0.191362
  18 C :   -0.071693
  19 C :   -0.049247
  20 C :   -0.193086
  21 H :    0.037391
  22 C :   -0.035283
  23 H :    0.025944
  24 H :    0.028437
  25 C :   -0.042229
  26 H :    0.017256
  27 H :    0.024116
  28 C :   -0.064000
  29 H :    0.031184
  30 H :    0.025925
  31 H :    0.017910
  32 H :    0.038096
  33 H :    0.016436

  Mayer bond orders larger than 0.100000
B(  0-S ,  1-C ) :   1.1356 B(  0-S ,  4-C ) :   1.1429 B(  1-C ,  2-C ) :   1.6551
B(  1-C , 32-H ) :   0.9611 B(  2-C ,  3-C ) :   1.2168 B(  2-C ,  6-C ) :   0.9986
B(  3-C ,  4-C ) :   1.5692 B(  3-C ,  5-H ) :   0.9982 B(  4-C , 20-C ) :   1.0243
B(  6-C ,  7-H ) :   0.9310 B(  6-C ,  8-H ) :   0.9533 B(  6-C ,  9-C ) :   1.0791
B(  9-C , 10-H ) :   0.9470 B(  9-C , 11-H ) :   0.9580 B(  9-C , 12-C ) :   1.0672
B( 12-C , 13-H ) :   0.9741 B( 12-C , 14-H ) :   0.9783 B( 12-C , 15-H ) :   0.9756
B( 16-S , 17-C ) :   1.1844 B( 16-S , 20-C ) :   1.1427 B( 17-C , 18-C ) :   1.5744
B( 17-C , 20-C ) :   0.1037 B( 17-C , 33-H ) :   0.9678 B( 18-C , 19-C ) :   1.2541
B( 18-C , 21-H ) :   0.9876 B( 19-C , 20-C ) :   1.5831 B( 19-C , 22-C ) :   1.0709
B( 22-C , 23-H ) :   0.9148 B( 22-C , 24-H ) :   0.9216 B( 22-C , 25-C ) :   1.0804
B( 25-C , 26-H ) :   0.9519 B( 25-C , 27-H ) :   0.9496 B( 25-C , 28-C ) :   1.0779
B( 28-C , 29-H ) :   0.9741 B( 28-C , 30-H ) :   0.9709 B( 28-C , 31-H ) :   0.9752

Dispersion correction           -0.014189256
FINAL SINGLE POINT ENERGY     -1339.866919207628

DIPOLE MOMENT
-------------
                                X             Y             Z
Electronic contribution:     10.91500      10.67131       0.38826
Nuclear contribution   :    -10.99036     -10.96852      -0.51699
                        -----------------------------------------
Total Dipole Moment    :     -0.07536      -0.29722      -0.12873
                        -----------------------------------------
Magnitude (a.u.)       :      0.33255
Magnitude (Debye)      :      0.84527

Rotational constants in cm-1:     0.020631     0.007973     0.006358
Rotational constants in MHz :   618.497560   239.024532   190.606894

                             ****ORCA TERMINATED NORMALLY****
TOTAL RUN TIME: 0 days 0 hours 0 minutes 32 seconds 345 msec
