                         Program Version 4.2.1 -  RELEASE  -
|  1> ! wB97X-D3 SP def2-SVP
|  2> %pal
|  3> nprocs 16
|  4> end
|  5>
|  6> * xyz 0 1
|  7> S 	 -6.20118 	 31.6156 	 56.324
|  8> C 	 -6.63598 	 29.8703 	 56.3971
|  9> C 	 -6.87912 	 29.3729 	 55.0879
| 10> C 	 -6.6202 	 30.3661 	 54.1174
| 11> C 	 -6.35633 	 31.6279 	 54.6222
| 12> H 	 -6.50925 	 30.1855 	 53.0785
| 13> C 	 -7.1539 	 27.8784 	 54.7988
| 14> H 	 -8.04497 	 27.8612 	 54.0497
| 15> H 	 -7.48297 	 27.227 	 55.6042
| 16> C 	 -5.92889 	 27.1621 	 54.1872
| 17> H 	 -6.10087 	 26.1819 	 53.6457
| 18> H 	 -5.53408 	 27.7091 	 53.3667
| 19> C 	 -4.81335 	 26.9901 	 55.2184
| 20> H 	 -4.83245 	 27.8198 	 55.9452
| 21> H 	 -4.8462 	 25.9419 	 55.7197
| 22> H 	 -3.85846 	 26.9608 	 54.8158
| 23> S 	 -4.24521 	 33.4203 	 54.2254
| 24> C 	 -4.12716 	 34.1981 	 52.7358
| 25> C 	 -5.25439 	 33.972 	 51.9652
| 26> C 	 -6.27935 	 33.2396 	 52.6152
| 27> C 	 -5.85302 	 32.7608 	 53.8471
| 28> H 	 -5.4048 	 34.3089 	 50.9783
| 29> C 	 -7.57179 	 33.1217 	 51.9541
| 30> H 	 -7.76232 	 32.0664 	 51.7953
| 31> H 	 -7.45999 	 33.4585 	 50.8949
| 32> C 	 -8.68908 	 33.6969 	 52.7745
| 33> H 	 -8.89222 	 32.977 	 53.6018
| 34> H 	 -9.56261 	 33.633 	 52.1422
| 35> C 	 -8.4922 	 35.115 	 53.2345
| 36> H 	 -8.36478 	 35.8635 	 52.4434
| 37> H 	 -7.73065 	 35.281 	 54.0434
| 38> H 	 -9.45759 	 35.4817 	 53.682
| 39> H 	 -6.79833 	 29.2336 	 57.2804
| 40> H 	 -3.25876 	 34.7358 	 52.3976
| 41> *
| 42>
| 43>                          ****END OF INPUT****

CARTESIAN COORDINATES (ANGSTROEM)
---------------------------------
  S     -6.201180   31.615600   56.324000
  C     -6.635980   29.870300   56.397100
  C     -6.879120   29.372900   55.087900
  C     -6.620200   30.366100   54.117400
  C     -6.356330   31.627900   54.622200
  H     -6.509250   30.185500   53.078500
  C     -7.153900   27.878400   54.798800
  H     -8.044970   27.861200   54.049700
  H     -7.482970   27.227000   55.604200
  C     -5.928890   27.162100   54.187200
  H     -6.100870   26.181900   53.645700
  H     -5.534080   27.709100   53.366700
  C     -4.813350   26.990100   55.218400
  H     -4.832450   27.819800   55.945200
  H     -4.846200   25.941900   55.719700
  H     -3.858460   26.960800   54.815800
  S     -4.245210   33.420300   54.225400
  C     -4.127160   34.198100   52.735800
  C     -5.254390   33.972000   51.965200
  C     -6.279350   33.239600   52.615200
  C     -5.853020   32.760800   53.847100
  H     -5.404800   34.308900   50.978300
  C     -7.571790   33.121700   51.954100
  H     -7.762320   32.066400   51.795300
  H     -7.459990   33.458500   50.894900
  C     -8.689080   33.696900   52.774500
  H     -8.892220   32.977000   53.601800
  H     -9.562610   33.633000   52.142200
  C     -8.492200   35.115000   53.234500
  H     -8.364780   35.863500   52.443400
  H     -7.730650   35.281000   54.043400
  H     -9.457590   35.481700   53.682000
  H     -6.798330   29.233600   57.280400
  H     -3.258760   34.735800   52.397600

 Total Charge           Charge          ....    0
 Multiplicity           Mult            ....    1
 Number of Electrons    NEL             ....  134
 Basis Dimension        Dim             ....  322

ORBITAL ENERGIES
----------------

  NO   OCC          E(Eh)            E(eV)
   0   2.0000     -88.970178     -2421.0016
   1   2.0000     -88.965388     -2420.8713
   2   2.0000     -10.329195      -281.0717
   3   2.0000     -10.324492      -280.9437
   4   2.0000     -10.322959      -280.9020
   5   2.0000     -10.313787      -280.6524
   6   2.0000     -10.310079      -280.5515
   7   2.0000     -10.306057      -280.4421
   8   2.0000     -10.294888      -280.1381
   9   2.0000     -10.292417      -280.0709
  10   2.0000     -10.287151      -279.9276
  11   2.0000     -10.285295      -279.8771
  12   2.0000     -10.285137      -279.8728
  13   2.0000     -10.283714      -279.8341
  14   2.0000     -10.277705      -279.6706
  15   2.0000     -10.274062      -279.5714
  16   2.0000      -8.084588      -219.9928
  17   2.0000      -8.080936      -219.8934
  18   2.0000      -6.043053      -164.4398
  19   2.0000      -6.039332      -164.3386
  20   2.0000      -6.039125      -164.3329
  21   2.0000      -6.035437      -164.2326
  22   2.0000      -6.035206      -164.2263
  23   2.0000      -6.031880      -164.1358
  24   2.0000      -1.010679       -27.5020
  25   2.0000      -0.986393       -26.8411
  26   2.0000      -0.921032       -25.0626
  27   2.0000      -0.909808       -24.7571
  28   2.0000      -0.864095       -23.5132
  29   2.0000      -0.853467       -23.2240
  30   2.0000      -0.844040       -22.9675
  31   2.0000      -0.807877       -21.9835
  32   2.0000      -0.785983       -21.3877
  33   2.0000      -0.774302       -21.0698
  34   2.0000      -0.710985       -19.3469
  35   2.0000      -0.696433       -18.9509
  36   2.0000      -0.686091       -18.6695
  37   2.0000      -0.665353       -18.1052
  38   2.0000      -0.641153       -17.4467
  39   2.0000      -0.622414       -16.9367
  40   2.0000      -0.596122       -16.2213
  41   2.0000      -0.565857       -15.3977
  42   2.0000      -0.555402       -15.1133
  43   2.0000      -0.555021       -15.1029
  44   2.0000      -0.551276       -15.0010
  45   2.0000      -0.532562       -14.4917
  46   2.0000      -0.512155       -13.9364
  47   2.0000      -0.507504       -13.8099
  48   2.0000      -0.501374       -13.6431
  49   2.0000      -0.491790       -13.3823
  50   2.0000      -0.485246       -13.2042
  51   2.0000      -0.482914       -13.1408
  52   2.0000      -0.469307       -12.7705
  53   2.0000      -0.467677       -12.7262
  54   2.0000      -0.461252       -12.5513
  55   2.0000      -0.449724       -12.2376
  56   2.0000      -0.441609       -12.0168
  57   2.0000      -0.435739       -11.8571
  58   2.0000      -0.432950       -11.7812
  59   2.0000      -0.418224       -11.3805
  60   2.0000      -0.416197       -11.3253
  61   2.0000      -0.413487       -11.2515
  62   2.0000      -0.408915       -11.1272
  63   2.0000      -0.345488        -9.4012
  64   2.0000      -0.334897        -9.1130
  65   2.0000      -0.330032        -8.9806
  66   2.0000      -0.286954        -7.8084
  67   0.0000       0.025328         0.6892
  68   0.0000       0.068084         1.8527
  69   0.0000       0.108214         2.9446
  70   0.0000       0.118097         3.2136
  71   0.0000       0.132512         3.6058

MULLIKEN ATOMIC CHARGES
-----------------------
   0 S :    0.105499
   1 C :   -0.125396
   2 C :   -0.083305
   3 C :    0.032447
   4 C :   -0.151116
   5 H :    0.008745
   6 C :    0.030193
   7 H :    0.045347
   8 H :    0.032967
   9 C :   -0.070043
  10 H :    0.034441
  11 H :    0.014027
  12 C :   -0.058232
  13 H :    0.040801
  14 H :    0.034835
  15 H :    0.013746
  16 S :    0.116363
  17 C :   -0.078579
  18 C :   -0.024857
  19 C :   -0.079795
  20 C :   -0.141199
  21 H :   -0.004593
  22 C :    0.099485
  23 H :    0.013628
  24 H :    0.014473
  25 C :   -0.053105
  26 H :    0.046705
  27 H :    0.020674
  28 C :   -0.063450
  29 H :    0.027229
  30 H :    0.055741
  31 H :    0.028120
  32 H :    0.061042
  33 H :    0.057164
Sum of atomic charges:    0.0000000

LOEWDIN ATOMIC CHARGES
----------------------
   0 S :    0.408778
   1 C :   -0.194942
   2 C :   -0.056911
   3 C :   -0.061134
   4 C :   -0.203705
   5 H :    0.026080
   6 C :   -0.033995
   7 H :    0.040741
   8 H :    0.030046
   9 C :   -0.050539
  10 H :    0.031867
  11 H :    0.015785
  12 C :   -0.071177
  13 H :    0.028287
  14 H :    0.033522
  15 H :    0.015009
  16 S :    0.425914
  17 C :   -0.199981
  18 C :   -0.070666
  19 C :   -0.052058
  20 C :   -0.203980
  21 H :    0.020388
  22 C :   -0.040040
  23 H :    0.032087
  24 H :    0.032472
  25 C :   -0.041470
  26 H :    0.035720
  27 H :    0.025088
  28 C :   -0.076522
  29 H :    0.025260
  30 H :    0.034016
  31 H :    0.031772
  32 H :    0.033838
  33 H :    0.030448

  Mayer bond orders larger than 0.100000
B(  0-S ,  1-C ) :   1.1353 B(  0-S ,  4-C ) :   1.1627 B(  1-C ,  2-C ) :   1.5849
B(  1-C , 32-H ) :   0.9634 B(  2-C ,  3-C ) :   1.2580 B(  2-C ,  6-C ) :   1.0237
B(  3-C ,  4-C ) :   1.5590 B(  3-C ,  5-H ) :   0.9916 B(  4-C , 20-C ) :   1.0339
B(  6-C ,  7-H ) :   0.9413 B(  6-C ,  8-H ) :   0.9549 B(  6-C ,  9-C ) :   1.0565
B(  9-C , 10-H ) :   0.9554 B(  9-C , 11-H ) :   0.9606 B(  9-C , 12-C ) :   1.0665
B( 12-C , 13-H ) :   0.9754 B( 12-C , 14-H ) :   0.9744 B( 12-C , 15-H ) :   0.9730
B( 16-S , 17-C ) :   1.1853 B( 16-S , 20-C ) :   1.1344 B( 17-C , 18-C ) :   1.5511
B( 17-C , 33-H ) :   0.9703 B( 18-C , 19-C ) :   1.2895 B( 18-C , 21-H ) :   0.9961
B( 19-C , 20-C ) :   1.5542 B( 19-C , 22-C ) :   1.0548 B( 22-C , 23-H ) :   0.9110
B( 22-C , 24-H ) :   0.9280 B( 22-C , 25-C ) :   1.0797 B( 25-C , 26-H ) :   0.9466
B( 25-C , 27-H ) :   0.9503 B( 25-C , 28-C ) :   1.0859 B( 28-C , 29-H ) :   0.9732
B( 28-C , 30-H ) :   0.9690 B( 28-C , 31-H ) :   0.9702

Dispersion correction           -0.015290553
FINAL SINGLE POINT ENERGY     -1339.869899745094

DIPOLE MOMENT
-------------
                                X             Y             Z
Electronic contribution:      9.98128      11.59451       8.67563
Nuclear contribution   :    -10.12083     -11.89949      -9.26448
                        -----------------------------------------
Total Dipole Moment    :     -0.13955      -0.30498      -0.58885
                        -----------------------------------------
Magnitude (a.u.)       :      0.67767
Magnitude (Debye)      :      1.72249

Rotational constants in cm-1:     0.021770     0.008315     0.007725
Rotational constants in MHz :   652.660629   249.272145   231.599957

                             ****ORCA TERMINATED NORMALLY****
TOTAL RUN TIME: 0 days 0 hours 0 minutes 36 seconds 234 msec
