                         Program Version 4.2.1 -  RELEASE  -
|  1> ! wB97X-D3 SP def2-SVP
|  2> %pal
|  3> nprocs 16
|  4> end
|  5>
|  6> * xyz 0 1
|  7> S 	 50.2316 	 21.8061 	 89.766
|  8> C 	 49.2694 	 21.0391 	 91.0728
|  9> C 	 49.4795 	 19.7115 	 91.2586
| 10> C 	 50.3903 	 19.2944 	 90.2242
| 11> C 	 50.9411 	 20.331 	 89.4201
| 12> H 	 50.7813 	 18.3031 	 90.1723
| 13> C 	 49.0456 	 18.7613 	 92.2503
| 14> H 	 48.7564 	 17.9002 	 91.6699
| 15> H 	 48.1755 	 19.2475 	 92.6041
| 16> C 	 49.9669 	 18.4189 	 93.4232
| 17> H 	 49.5873 	 17.5056 	 93.8673
| 18> H 	 50.9906 	 18.1085 	 93.0853
| 19> C 	 50.2677 	 19.4942 	 94.4523
| 20> H 	 50.7098 	 18.9989 	 95.3196
| 21> H 	 50.8071 	 20.2408 	 93.9967
| 22> H 	 49.4537 	 19.9534 	 94.9497
| 23> S 	 51.5564 	 20.9869 	 86.7929
| 24> C 	 53.0151 	 20.2563 	 86.1971
| 25> C 	 53.756 	 19.4849 	 87.0861
| 26> C 	 53.197 	 19.5602 	 88.3851
| 27> C 	 51.9361 	 20.1698 	 88.3524
| 28> H 	 54.681 	 19.0882 	 86.7158
| 29> C 	 53.7608 	 18.8799 	 89.5815
| 30> H 	 54.6339 	 18.2513 	 89.2657
| 31> H 	 52.967 	 18.1813 	 89.8564
| 32> C 	 54.2778 	 19.8497 	 90.6941
| 33> H 	 54.5448 	 19.2611 	 91.6127
| 34> H 	 53.5885 	 20.4493 	 91.1561
| 35> C 	 55.3463 	 20.7556 	 90.0769
| 36> H 	 55.8295 	 21.4385 	 90.7866
| 37> H 	 55.0539 	 21.3797 	 89.2321
| 38> H 	 56.1021 	 20.1436 	 89.5967
| 39> H 	 48.6628 	 21.5967 	 91.8185
| 40> H 	 53.2719 	 20.3918 	 85.1773
| 41> *
| 42>
| 43>                          ****END OF INPUT****

CARTESIAN COORDINATES (ANGSTROEM)
---------------------------------
  S     50.231600   21.806100   89.766000
  C     49.269400   21.039100   91.072800
  C     49.479500   19.711500   91.258600
  C     50.390300   19.294400   90.224200
  C     50.941100   20.331000   89.420100
  H     50.781300   18.303100   90.172300
  C     49.045600   18.761300   92.250300
  H     48.756400   17.900200   91.669900
  H     48.175500   19.247500   92.604100
  C     49.966900   18.418900   93.423200
  H     49.587300   17.505600   93.867300
  H     50.990600   18.108500   93.085300
  C     50.267700   19.494200   94.452300
  H     50.709800   18.998900   95.319600
  H     50.807100   20.240800   93.996700
  H     49.453700   19.953400   94.949700
  S     51.556400   20.986900   86.792900
  C     53.015100   20.256300   86.197100
  C     53.756000   19.484900   87.086100
  C     53.197000   19.560200   88.385100
  C     51.936100   20.169800   88.352400
  H     54.681000   19.088200   86.715800
  C     53.760800   18.879900   89.581500
  H     54.633900   18.251300   89.265700
  H     52.967000   18.181300   89.856400
  C     54.277800   19.849700   90.694100
  H     54.544800   19.261100   91.612700
  H     53.588500   20.449300   91.156100
  C     55.346300   20.755600   90.076900
  H     55.829500   21.438500   90.786600
  H     55.053900   21.379700   89.232100
  H     56.102100   20.143600   89.596700
  H     48.662800   21.596700   91.818500
  H     53.271900   20.391800   85.177300

 Total Charge           Charge          ....    0
 Multiplicity           Mult            ....    1
 Number of Electrons    NEL             ....  134
 Basis Dimension        Dim             ....  322

ORBITAL ENERGIES
----------------

  NO   OCC          E(Eh)            E(eV)
   0   2.0000     -88.968082     -2420.9446
   1   2.0000     -88.967826     -2420.9376
   2   2.0000     -10.326509      -280.9986
   3   2.0000     -10.324482      -280.9434
   4   2.0000     -10.313741      -280.6512
   5   2.0000     -10.312518      -280.6179
   6   2.0000     -10.303785      -280.3802
   7   2.0000     -10.294689      -280.1327
   8   2.0000     -10.293513      -280.1007
   9   2.0000     -10.293252      -280.0936
  10   2.0000     -10.292280      -280.0672
  11   2.0000     -10.286422      -279.9078
  12   2.0000     -10.285626      -279.8861
  13   2.0000     -10.283963      -279.8409
  14   2.0000     -10.273389      -279.5531
  15   2.0000     -10.269407      -279.4448
  16   2.0000      -8.083118      -219.9528
  17   2.0000      -8.082456      -219.9348
  18   2.0000      -6.041573      -164.3996
  19   2.0000      -6.040648      -164.3744
  20   2.0000      -6.037586      -164.2911
  21   2.0000      -6.037299      -164.2833
  22   2.0000      -6.033872      -164.1900
  23   2.0000      -6.033304      -164.1746
  24   2.0000      -1.006384       -27.3851
  25   2.0000      -0.983576       -26.7645
  26   2.0000      -0.924688       -25.1620
  27   2.0000      -0.909015       -24.7356
  28   2.0000      -0.871322       -23.7099
  29   2.0000      -0.851272       -23.1643
  30   2.0000      -0.845915       -23.0185
  31   2.0000      -0.805674       -21.9235
  32   2.0000      -0.794383       -21.6163
  33   2.0000      -0.773021       -21.0350
  34   2.0000      -0.717515       -19.5246
  35   2.0000      -0.710970       -19.3465
  36   2.0000      -0.690894       -18.8002
  37   2.0000      -0.662268       -18.0212
  38   2.0000      -0.631026       -17.1711
  39   2.0000      -0.619141       -16.8477
  40   2.0000      -0.590264       -16.0619
  41   2.0000      -0.575642       -15.6640
  42   2.0000      -0.562183       -15.2978
  43   2.0000      -0.554093       -15.0776
  44   2.0000      -0.544140       -14.8068
  45   2.0000      -0.535604       -14.5745
  46   2.0000      -0.524018       -14.2593
  47   2.0000      -0.511513       -13.9190
  48   2.0000      -0.497677       -13.5425
  49   2.0000      -0.485655       -13.2153
  50   2.0000      -0.483303       -13.1513
  51   2.0000      -0.482353       -13.1255
  52   2.0000      -0.470976       -12.8159
  53   2.0000      -0.464330       -12.6351
  54   2.0000      -0.460637       -12.5346
  55   2.0000      -0.451691       -12.2911
  56   2.0000      -0.443621       -12.0716
  57   2.0000      -0.440257       -11.9800
  58   2.0000      -0.434864       -11.8333
  59   2.0000      -0.431564       -11.7434
  60   2.0000      -0.426972       -11.6185
  61   2.0000      -0.415392       -11.3034
  62   2.0000      -0.407879       -11.0990
  63   2.0000      -0.340651        -9.2696
  64   2.0000      -0.336151        -9.1471
  65   2.0000      -0.328520        -8.9395
  66   2.0000      -0.283569        -7.7163
  67   0.0000       0.029025         0.7898
  68   0.0000       0.070270         1.9122
  69   0.0000       0.098333         2.6758
  70   0.0000       0.117545         3.1986
  71   0.0000       0.123430         3.3587

MULLIKEN ATOMIC CHARGES
-----------------------
   0 S :    0.119288
   1 C :   -0.145782
   2 C :   -0.102509
   3 C :    0.012914
   4 C :   -0.144802
   5 H :   -0.007170
   6 C :    0.125375
   7 H :    0.031094
   8 H :    0.001546
   9 C :   -0.066593
  10 H :    0.024996
  11 H :    0.023646
  12 C :   -0.006559
  13 H :    0.030696
  14 H :    0.031349
  15 H :    0.007942
  16 S :    0.107143
  17 C :   -0.085794
  18 C :   -0.020129
  19 C :   -0.043103
  20 C :   -0.160792
  21 H :    0.014807
  22 C :    0.048083
  23 H :    0.028544
  24 H :    0.031526
  25 C :   -0.009574
  26 H :    0.026994
  27 H :    0.012549
  28 C :   -0.062091
  29 H :    0.036861
  30 H :    0.045310
  31 H :    0.011170
  32 H :    0.042676
  33 H :    0.040390
Sum of atomic charges:   -0.0000000

LOEWDIN ATOMIC CHARGES
----------------------
   0 S :    0.420403
   1 C :   -0.197694
   2 C :   -0.063825
   3 C :   -0.066962
   4 C :   -0.219363
   5 H :    0.016815
   6 C :   -0.032282
   7 H :    0.039914
   8 H :    0.028902
   9 C :   -0.034042
  10 H :    0.023765
  11 H :    0.028561
  12 C :   -0.057983
  13 H :    0.035361
  14 H :    0.017987
  15 H :    0.018114
  16 S :    0.388607
  17 C :   -0.173748
  18 C :   -0.070001
  19 C :   -0.050438
  20 C :   -0.185315
  21 H :    0.032302
  22 C :   -0.031943
  23 H :    0.034739
  24 H :    0.032660
  25 C :   -0.034407
  26 H :    0.032216
  27 H :    0.012932
  28 C :   -0.067790
  29 H :    0.027562
  30 H :    0.031480
  31 H :    0.019667
  32 H :    0.028335
  33 H :    0.015468

  Mayer bond orders larger than 0.100000
B(  0-S ,  1-C ) :   1.1186 B(  0-S ,  4-C ) :   1.1693 B(  1-C ,  2-C ) :   1.6361
B(  1-C , 32-H ) :   0.9535 B(  2-C ,  3-C ) :   1.2330 B(  2-C ,  6-C ) :   1.0205
B(  3-C ,  4-C ) :   1.5556 B(  3-C ,  5-H ) :   0.9901 B(  4-C , 20-C ) :   1.0412
B(  6-C ,  7-H ) :   0.9252 B(  6-C ,  8-H ) :   0.9251 B(  6-C ,  9-C ) :   1.0715
B(  9-C , 10-H ) :   0.9557 B(  9-C , 11-H ) :   0.9546 B(  9-C , 12-C ) :   1.0763
B( 12-C , 13-H ) :   0.9681 B( 12-C , 14-H ) :   0.9779 B( 12-C , 15-H ) :   0.9717
B( 16-S , 17-C ) :   1.1645 B( 16-S , 20-C ) :   1.1303 B( 17-C , 18-C ) :   1.6194
B( 17-C , 20-C ) :   0.1042 B( 17-C , 33-H ) :   0.9676 B( 18-C , 19-C ) :   1.2144
B( 18-C , 21-H ) :   0.9938 B( 19-C , 20-C ) :   1.5950 B( 19-C , 22-C ) :   1.0291
B( 22-C , 23-H ) :   0.9424 B( 22-C , 24-H ) :   0.9351 B( 22-C , 25-C ) :   1.0573
B( 25-C , 26-H ) :   0.9554 B( 25-C , 27-H ) :   0.9573 B( 25-C , 28-C ) :   1.0610
B( 28-C , 29-H ) :   0.9742 B( 28-C , 30-H ) :   0.9704 B( 28-C , 31-H ) :   0.9767

Dispersion correction           -0.015560097
FINAL SINGLE POINT ENERGY     -1339.853048783389

DIPOLE MOMENT
-------------
                                X             Y             Z
Electronic contribution:     -9.52694      10.77425     -23.22500
Nuclear contribution   :      9.79501     -11.19710      23.69329
                        -----------------------------------------
Total Dipole Moment    :      0.26807      -0.42285       0.46829
                        -----------------------------------------
Magnitude (a.u.)       :      0.68553
Magnitude (Debye)      :      1.74248

Rotational constants in cm-1:     0.020906     0.009262     0.007486
Rotational constants in MHz :   626.735130   277.681008   224.415509

                             ****ORCA TERMINATED NORMALLY****
TOTAL RUN TIME: 0 days 0 hours 0 minutes 32 seconds 229 msec
