                         Program Version 4.2.1 -  RELEASE  -
|  1> ! wB97X-D3 SP def2-SVP
|  2> %pal
|  3> nprocs 16
|  4> end
|  5>
|  6> * xyz 0 1
|  7> S 	 1.45305 	 13.8874 	 44.9891
|  8> C 	 1.1304 	 12.17 	 45.0341
|  9> C 	 2.22896 	 11.4336 	 45.4037
| 10> C 	 3.36042 	 12.2781 	 45.5212
| 11> C 	 3.14972 	 13.6568 	 45.3713
| 12> H 	 4.37626 	 11.9569 	 45.8275
| 13> C 	 2.26616 	 9.93444 	 45.5329
| 14> H 	 1.21209 	 9.61715 	 45.5918
| 15> H 	 2.84344 	 9.7136 	 46.4375
| 16> C 	 2.92616 	 9.21225 	 44.3419
| 17> H 	 2.53525 	 9.6825 	 43.4126
| 18> H 	 4.09637 	 9.24748 	 44.3945
| 19> C 	 2.60367 	 7.72528 	 44.259
| 20> H 	 1.51229 	 7.61358 	 44.1436
| 21> H 	 3.17296 	 7.20966 	 43.5025
| 22> H 	 2.73331 	 7.21793 	 45.2398
| 23> S 	 3.47995 	 15.8413 	 47.0599
| 24> C 	 4.98011 	 16.7683 	 46.9859
| 25> C 	 5.90511 	 16.1883 	 46.1499
| 26> C 	 5.39019 	 15.0565 	 45.4363
| 27> C 	 4.04884 	 14.7989 	 45.7196
| 28> H 	 6.93267 	 16.5636 	 46.003
| 29> C 	 6.17575 	 14.3875 	 44.2911
| 30> H 	 5.77604 	 13.3648 	 44.1581
| 31> H 	 7.21104 	 14.3582 	 44.6039
| 32> C 	 5.95322 	 15.1369 	 42.9199
| 33> H 	 6.70039 	 14.6825 	 42.2627
| 34> H 	 6.17165 	 16.1552 	 43.134
| 35> C 	 4.60638 	 15.0111 	 42.2598
| 36> H 	 4.64308 	 14.0418 	 41.7003
| 37> H 	 4.49303 	 15.9098 	 41.6109
| 38> H 	 3.68083 	 14.8262 	 42.8902
| 39> H 	 0.171503 	 11.7807 	 44.9119
| 40> H 	 5.12404 	 17.5842 	 47.6546
| 41> *
| 42>
| 43>                          ****END OF INPUT****

CARTESIAN COORDINATES (ANGSTROEM)
---------------------------------
  S      1.453050   13.887400   44.989100
  C      1.130400   12.170000   45.034100
  C      2.228960   11.433600   45.403700
  C      3.360420   12.278100   45.521200
  C      3.149720   13.656800   45.371300
  H      4.376260   11.956900   45.827500
  C      2.266160    9.934440   45.532900
  H      1.212090    9.617150   45.591800
  H      2.843440    9.713600   46.437500
  C      2.926160    9.212250   44.341900
  H      2.535250    9.682500   43.412600
  H      4.096370    9.247480   44.394500
  C      2.603670    7.725280   44.259000
  H      1.512290    7.613580   44.143600
  H      3.172960    7.209660   43.502500
  H      2.733310    7.217930   45.239800
  S      3.479950   15.841300   47.059900
  C      4.980110   16.768300   46.985900
  C      5.905110   16.188300   46.149900
  C      5.390190   15.056500   45.436300
  C      4.048840   14.798900   45.719600
  H      6.932670   16.563600   46.003000
  C      6.175750   14.387500   44.291100
  H      5.776040   13.364800   44.158100
  H      7.211040   14.358200   44.603900
  C      5.953220   15.136900   42.919900
  H      6.700390   14.682500   42.262700
  H      6.171650   16.155200   43.134000
  C      4.606380   15.011100   42.259800
  H      4.643080   14.041800   41.700300
  H      4.493030   15.909800   41.610900
  H      3.680830   14.826200   42.890200
  H      0.171503   11.780700   44.911900
  H      5.124040   17.584200   47.654600

 Total Charge           Charge          ....    0
 Multiplicity           Mult            ....    1
 Number of Electrons    NEL             ....  134
 Basis Dimension        Dim             ....  322

ORBITAL ENERGIES
----------------

  NO   OCC          E(Eh)            E(eV)
   0   2.0000     -88.967136     -2420.9189
   1   2.0000     -88.963832     -2420.8290
   2   2.0000     -10.334973      -281.2289
   3   2.0000     -10.332405      -281.1590
   4   2.0000     -10.318982      -280.7938
   5   2.0000     -10.310775      -280.5705
   6   2.0000     -10.305085      -280.4156
   7   2.0000     -10.300504      -280.2910
   8   2.0000     -10.298374      -280.2330
   9   2.0000     -10.298166      -280.2273
  10   2.0000     -10.298020      -280.2234
  11   2.0000     -10.297477      -280.2086
  12   2.0000     -10.294261      -280.1211
  13   2.0000     -10.282157      -279.7917
  14   2.0000     -10.281168      -279.7648
  15   2.0000     -10.278157      -279.6829
  16   2.0000      -8.081505      -219.9089
  17   2.0000      -8.077970      -219.8127
  18   2.0000      -6.039984      -164.3563
  19   2.0000      -6.036475      -164.2608
  20   2.0000      -6.035935      -164.2461
  21   2.0000      -6.032660      -164.1570
  22   2.0000      -6.032440      -164.1510
  23   2.0000      -6.028660      -164.0482
  24   2.0000      -1.002470       -27.2786
  25   2.0000      -0.981965       -26.7206
  26   2.0000      -0.913255       -24.8509
  27   2.0000      -0.902613       -24.5613
  28   2.0000      -0.867033       -23.5932
  29   2.0000      -0.848252       -23.0821
  30   2.0000      -0.843867       -22.9628
  31   2.0000      -0.812790       -22.1171
  32   2.0000      -0.781846       -21.2751
  33   2.0000      -0.771020       -20.9805
  34   2.0000      -0.701230       -19.0814
  35   2.0000      -0.691069       -18.8050
  36   2.0000      -0.688358       -18.7312
  37   2.0000      -0.659373       -17.9425
  38   2.0000      -0.644565       -17.5395
  39   2.0000      -0.616934       -16.7876
  40   2.0000      -0.596444       -16.2301
  41   2.0000      -0.573901       -15.6166
  42   2.0000      -0.561689       -15.2843
  43   2.0000      -0.546987       -14.8843
  44   2.0000      -0.544627       -14.8201
  45   2.0000      -0.528887       -14.3917
  46   2.0000      -0.515223       -14.0199
  47   2.0000      -0.508455       -13.8358
  48   2.0000      -0.504627       -13.7316
  49   2.0000      -0.496443       -13.5089
  50   2.0000      -0.487132       -13.2555
  51   2.0000      -0.476017       -12.9531
  52   2.0000      -0.467921       -12.7328
  53   2.0000      -0.466168       -12.6851
  54   2.0000      -0.458078       -12.4649
  55   2.0000      -0.446404       -12.1473
  56   2.0000      -0.443445       -12.0668
  57   2.0000      -0.431819       -11.7504
  58   2.0000      -0.428307       -11.6548
  59   2.0000      -0.421675       -11.4744
  60   2.0000      -0.420753       -11.4493
  61   2.0000      -0.417248       -11.3539
  62   2.0000      -0.406438       -11.0597
  63   2.0000      -0.345222        -9.3940
  64   2.0000      -0.332447        -9.0464
  65   2.0000      -0.328889        -8.9495
  66   2.0000      -0.294196        -8.0055
  67   0.0000       0.029458         0.8016
  68   0.0000       0.066145         1.7999
  69   0.0000       0.108729         2.9587
  70   0.0000       0.122667         3.3379
  71   0.0000       0.126431         3.4404

MULLIKEN ATOMIC CHARGES
-----------------------
   0 S :    0.106088
   1 C :   -0.104321
   2 C :   -0.086379
   3 C :    0.033718
   4 C :   -0.186497
   5 H :    0.019720
   6 C :    0.085946
   7 H :    0.019744
   8 H :    0.036102
   9 C :   -0.112282
  10 H :    0.040873
  11 H :    0.044975
  12 C :   -0.046004
  13 H :    0.023808
  14 H :    0.045182
  15 H :    0.024338
  16 S :    0.091156
  17 C :   -0.082030
  18 C :   -0.026799
  19 C :   -0.063231
  20 C :   -0.136445
  21 H :    0.030275
  22 C :    0.055335
  23 H :    0.022251
  24 H :    0.025732
  25 C :   -0.041443
  26 H :    0.036005
  27 H :    0.016883
  28 C :   -0.082123
  29 H :    0.032047
  30 H :    0.050644
  31 H :    0.049710
  32 H :    0.024493
  33 H :    0.052530
Sum of atomic charges:    0.0000000

LOEWDIN ATOMIC CHARGES
----------------------
   0 S :    0.407607
   1 C :   -0.185681
   2 C :   -0.066906
   3 C :   -0.063666
   4 C :   -0.200855
   5 H :    0.032684
   6 C :   -0.029673
   7 H :    0.032174
   8 H :    0.035718
   9 C :   -0.048476
  10 H :    0.028066
  11 H :    0.033290
  12 C :   -0.071786
  13 H :    0.023894
  14 H :    0.026377
  15 H :    0.026225
  16 S :    0.382457
  17 C :   -0.168206
  18 C :   -0.074909
  19 C :   -0.056105
  20 C :   -0.190307
  21 H :    0.037136
  22 C :   -0.028263
  23 H :    0.029113
  24 H :    0.027492
  25 C :   -0.035832
  26 H :    0.027442
  27 H :    0.015771
  28 C :   -0.079174
  29 H :    0.030382
  30 H :    0.035257
  31 H :    0.031691
  32 H :    0.014401
  33 H :    0.022663

  Mayer bond orders larger than 0.100000
B(  0-S ,  1-C ) :   1.1491 B(  0-S ,  4-C ) :   1.1511 B(  1-C ,  2-C ) :   1.5914
B(  1-C , 32-H ) :   0.9744 B(  2-C ,  3-C ) :   1.2544 B(  2-C ,  6-C ) :   1.0371
B(  3-C ,  4-C ) :   1.5677 B(  3-C ,  5-H ) :   0.9850 B(  4-C , 20-C ) :   1.0098
B(  6-C ,  7-H ) :   0.9405 B(  6-C ,  8-H ) :   0.9273 B(  6-C ,  9-C ) :   1.0623
B(  9-C , 10-H ) :   0.9578 B(  9-C , 11-H ) :   0.9512 B(  9-C , 12-C ) :   1.0865
B( 12-C , 13-H ) :   0.9726 B( 12-C , 14-H ) :   0.9749 B( 12-C , 15-H ) :   0.9709
B( 16-S , 17-C ) :   1.1538 B( 16-S , 20-C ) :   1.1331 B( 17-C , 18-C ) :   1.6013
B( 17-C , 33-H ) :   0.9737 B( 18-C , 19-C ) :   1.2387 B( 18-C , 21-H ) :   0.9853
B( 19-C , 20-C ) :   1.6124 B( 19-C , 22-C ) :   1.0511 B( 22-C , 23-H ) :   0.9338
B( 22-C , 24-H ) :   0.9352 B( 22-C , 25-C ) :   1.0622 B( 25-C , 26-H ) :   0.9574
B( 25-C , 27-H ) :   0.9601 B( 25-C , 28-C ) :   1.0687 B( 28-C , 29-H ) :   0.9745
B( 28-C , 30-H ) :   0.9731 B( 28-C , 31-H ) :   0.9708

Dispersion correction           -0.014677288
FINAL SINGLE POINT ENERGY     -1339.886483968430

DIPOLE MOMENT
-------------
                                X             Y             Z
Electronic contribution:     -8.51974      19.95030      14.67153
Nuclear contribution   :      8.93263     -20.41874     -14.74813
                        -----------------------------------------
Total Dipole Moment    :      0.41290      -0.46844      -0.07660
                        -----------------------------------------
Magnitude (a.u.)       :      0.62911
Magnitude (Debye)      :      1.59908

Rotational constants in cm-1:     0.020877     0.007943     0.006948
Rotational constants in MHz :   625.862614   238.110376   208.302135

                             ****ORCA TERMINATED NORMALLY****
TOTAL RUN TIME: 0 days 0 hours 0 minutes 35 seconds 318 msec
