                         Program Version 4.2.1 -  RELEASE  -
|  1> ! wB97X-D3 SP def2-SVP
|  2> %pal
|  3> nprocs 16
|  4> end
|  5>
|  6> * xyz 0 1
|  7> S 	 -30.0661 	 69.9673 	 160.35
|  8> C 	 -28.6161 	 70.983 	 160.644
|  9> C 	 -28.9142 	 72.2918 	 160.807
| 10> C 	 -30.3127 	 72.4684 	 160.546
| 11> C 	 -31.0341 	 71.3041 	 160.163
| 12> H 	 -30.8922 	 73.3921 	 160.657
| 13> C 	 -27.9255 	 73.4757 	 161.049
| 14> H 	 -27.1178 	 72.9534 	 161.477
| 15> H 	 -28.415 	 74.1251 	 161.752
| 16> C 	 -27.4224 	 74.3222 	 159.837
| 17> H 	 -26.5431 	 74.835 	 160.228
| 18> H 	 -26.9971 	 73.7107 	 159.069
| 19> C 	 -28.4394 	 75.2585 	 159.251
| 20> H 	 -27.7861 	 75.6608 	 158.434
| 21> H 	 -29.3126 	 74.8755 	 158.769
| 22> H 	 -28.5651 	 76.0214 	 159.991
| 23> S 	 -33.4764 	 70.2558 	 160.83
| 24> C 	 -34.8814 	 70.4169 	 159.701
| 25> C 	 -34.5134 	 71.3222 	 158.699
| 26> C 	 -33.0647 	 71.5653 	 158.609
| 27> C 	 -32.4005 	 71.1409 	 159.743
| 28> H 	 -35.3016 	 71.6247 	 158.034
| 29> C 	 -32.4886 	 72.4277 	 157.584
| 30> H 	 -31.3658 	 72.2874 	 157.485
| 31> H 	 -32.7096 	 73.5085 	 157.757
| 32> C 	 -33.1569 	 72.0314 	 156.181
| 33> H 	 -32.8539 	 72.7477 	 155.43
| 34> H 	 -34.2087 	 72.3171 	 156.196
| 35> C 	 -32.9202 	 70.671 	 155.605
| 36> H 	 -33.4213 	 69.7625 	 156.007
| 37> H 	 -31.8436 	 70.4797 	 155.659
| 38> H 	 -33.2251 	 70.7 	 154.579
| 39> H 	 -27.5743 	 70.7199 	 160.796
| 40> H 	 -35.8523 	 69.9625 	 159.777
| 41> *
| 42>
| 43>                          ****END OF INPUT****

CARTESIAN COORDINATES (ANGSTROEM)
---------------------------------
  S    -30.066100   69.967300  160.350000
  C    -28.616100   70.983000  160.644000
  C    -28.914200   72.291800  160.807000
  C    -30.312700   72.468400  160.546000
  C    -31.034100   71.304100  160.163000
  H    -30.892200   73.392100  160.657000
  C    -27.925500   73.475700  161.049000
  H    -27.117800   72.953400  161.477000
  H    -28.415000   74.125100  161.752000
  C    -27.422400   74.322200  159.837000
  H    -26.543100   74.835000  160.228000
  H    -26.997100   73.710700  159.069000
  C    -28.439400   75.258500  159.251000
  H    -27.786100   75.660800  158.434000
  H    -29.312600   74.875500  158.769000
  H    -28.565100   76.021400  159.991000
  S    -33.476400   70.255800  160.830000
  C    -34.881400   70.416900  159.701000
  C    -34.513400   71.322200  158.699000
  C    -33.064700   71.565300  158.609000
  C    -32.400500   71.140900  159.743000
  H    -35.301600   71.624700  158.034000
  C    -32.488600   72.427700  157.584000
  H    -31.365800   72.287400  157.485000
  H    -32.709600   73.508500  157.757000
  C    -33.156900   72.031400  156.181000
  H    -32.853900   72.747700  155.430000
  H    -34.208700   72.317100  156.196000
  C    -32.920200   70.671000  155.605000
  H    -33.421300   69.762500  156.007000
  H    -31.843600   70.479700  155.659000
  H    -33.225100   70.700000  154.579000
  H    -27.574300   70.719900  160.796000
  H    -35.852300   69.962500  159.777000

 Total Charge           Charge          ....    0
 Multiplicity           Mult            ....    1
 Number of Electrons    NEL             ....  134
 Basis Dimension        Dim             ....  322

ORBITAL ENERGIES
----------------

  NO   OCC          E(Eh)            E(eV)
   0   2.0000     -88.966528     -2420.9023
   1   2.0000     -88.960701     -2420.7438
   2   2.0000     -10.325174      -280.9623
   3   2.0000     -10.323057      -280.9047
   4   2.0000     -10.323029      -280.9039
   5   2.0000     -10.311143      -280.5805
   6   2.0000     -10.303739      -280.3790
   7   2.0000     -10.298872      -280.2466
   8   2.0000     -10.298435      -280.2347
   9   2.0000     -10.297780      -280.2168
  10   2.0000     -10.294742      -280.1342
  11   2.0000     -10.292844      -280.0825
  12   2.0000     -10.287589      -279.9395
  13   2.0000     -10.283895      -279.8390
  14   2.0000     -10.277341      -279.6607
  15   2.0000     -10.273248      -279.5493
  16   2.0000      -8.082077      -219.9245
  17   2.0000      -8.074470      -219.7175
  18   2.0000      -6.040569      -164.3722
  19   2.0000      -6.036401      -164.2588
  20   2.0000      -6.033254      -164.1732
  21   2.0000      -6.032824      -164.1615
  22   2.0000      -6.029081      -164.0596
  23   2.0000      -6.025010      -163.9489
  24   2.0000      -1.008498       -27.4426
  25   2.0000      -0.977786       -26.6069
  26   2.0000      -0.914896       -24.8956
  27   2.0000      -0.904562       -24.6144
  28   2.0000      -0.876346       -23.8466
  29   2.0000      -0.848891       -23.0995
  30   2.0000      -0.840058       -22.8591
  31   2.0000      -0.809502       -22.0277
  32   2.0000      -0.790484       -21.5102
  33   2.0000      -0.770530       -20.9672
  34   2.0000      -0.707836       -19.2612
  35   2.0000      -0.702056       -19.1039
  36   2.0000      -0.696476       -18.9521
  37   2.0000      -0.654613       -17.8129
  38   2.0000      -0.634959       -17.2781
  39   2.0000      -0.609276       -16.5793
  40   2.0000      -0.591824       -16.1043
  41   2.0000      -0.579569       -15.7709
  42   2.0000      -0.556520       -15.1437
  43   2.0000      -0.551027       -14.9942
  44   2.0000      -0.545703       -14.8493
  45   2.0000      -0.530644       -14.4395
  46   2.0000      -0.519855       -14.1460
  47   2.0000      -0.517865       -14.0918
  48   2.0000      -0.505037       -13.7428
  49   2.0000      -0.498272       -13.5587
  50   2.0000      -0.493361       -13.4250
  51   2.0000      -0.476687       -12.9713
  52   2.0000      -0.473056       -12.8725
  53   2.0000      -0.461392       -12.5551
  54   2.0000      -0.459314       -12.4986
  55   2.0000      -0.445549       -12.1240
  56   2.0000      -0.438841       -11.9415
  57   2.0000      -0.436986       -11.8910
  58   2.0000      -0.430580       -11.7167
  59   2.0000      -0.421651       -11.4737
  60   2.0000      -0.416749       -11.3403
  61   2.0000      -0.414815       -11.2877
  62   2.0000      -0.404951       -11.0193
  63   2.0000      -0.337078        -9.1724
  64   2.0000      -0.329430        -8.9643
  65   2.0000      -0.317640        -8.6434
  66   2.0000      -0.299801        -8.1580
  67   0.0000       0.034796         0.9468
  68   0.0000       0.063271         1.7217
  69   0.0000       0.107884         2.9357
  70   0.0000       0.111011         3.0208
  71   0.0000       0.130824         3.5599

MULLIKEN ATOMIC CHARGES
-----------------------
   0 S :    0.135876
   1 C :   -0.119847
   2 C :   -0.106618
   3 C :    0.030548
   4 C :   -0.195695
   5 H :    0.010172
   6 C :    0.110176
   7 H :    0.004976
   8 H :    0.023454
   9 C :   -0.067858
  10 H :    0.029293
  11 H :    0.016909
  12 C :   -0.033142
  13 H :    0.031731
  14 H :    0.049400
  15 H :    0.030137
  16 S :    0.089310
  17 C :   -0.102936
  18 C :   -0.030282
  19 C :   -0.000340
  20 C :   -0.148000
  21 H :    0.024808
  22 C :    0.026408
  23 H :    0.051239
  24 H :    0.052132
  25 C :   -0.102585
  26 H :    0.012562
  27 H :    0.015001
  28 C :   -0.027780
  29 H :    0.042487
  30 H :    0.030055
  31 H :    0.026426
  32 H :    0.031642
  33 H :    0.060340
Sum of atomic charges:    0.0000000

LOEWDIN ATOMIC CHARGES
----------------------
   0 S :    0.439916
   1 C :   -0.191599
   2 C :   -0.065880
   3 C :   -0.065379
   4 C :   -0.234151
   5 H :    0.027988
   6 C :   -0.020086
   7 H :    0.022309
   8 H :    0.029238
   9 C :   -0.036450
  10 H :    0.028882
  11 H :    0.019366
  12 C :   -0.062855
  13 H :    0.038487
  14 H :    0.024971
  15 H :    0.023881
  16 S :    0.366742
  17 C :   -0.166357
  18 C :   -0.061167
  19 C :   -0.060326
  20 C :   -0.196503
  21 H :    0.028389
  22 C :   -0.036416
  23 H :    0.039359
  24 H :    0.040925
  25 C :   -0.049291
  26 H :    0.022457
  27 H :    0.018198
  28 C :   -0.068491
  29 H :    0.029887
  30 H :    0.028633
  31 H :    0.026628
  32 H :    0.028135
  33 H :    0.030561

  Mayer bond orders larger than 0.100000
B(  0-S ,  1-C ) :   1.1349 B(  0-S ,  4-C ) :   1.1781 B(  1-C ,  2-C ) :   1.6400
B(  1-C , 32-H ) :   0.9591 B(  2-C ,  3-C ) :   1.2385 B(  2-C ,  6-C ) :   1.0088
B(  3-C ,  4-C ) :   1.5516 B(  3-C ,  5-H ) :   0.9946 B(  4-C , 20-C ) :   1.0280
B(  6-C ,  7-H ) :   0.9317 B(  6-C ,  8-H ) :   0.9401 B(  6-C ,  9-C ) :   1.0700
B(  9-C , 10-H ) :   0.9533 B(  9-C , 11-H ) :   0.9567 B(  9-C , 12-C ) :   1.0769
B( 12-C , 13-H ) :   0.9705 B( 12-C , 14-H ) :   0.9749 B( 12-C , 15-H ) :   0.9751
B( 16-S , 17-C ) :   1.1252 B( 16-S , 20-C ) :   1.1257 B( 17-C , 18-C ) :   1.6533
B( 17-C , 33-H ) :   0.9704 B( 18-C , 19-C ) :   1.1782 B( 18-C , 21-H ) :   0.9839
B( 19-C , 20-C ) :   1.6194 B( 19-C , 22-C ) :   1.0762 B( 22-C , 23-H ) :   0.9336
B( 22-C , 24-H ) :   0.9327 B( 22-C , 25-C ) :   1.0655 B( 25-C , 26-H ) :   0.9513
B( 25-C , 27-H ) :   0.9492 B( 25-C , 28-C ) :   1.0777 B( 28-C , 29-H ) :   0.9721
B( 28-C , 30-H ) :   0.9726 B( 28-C , 31-H ) :   0.9708

Dispersion correction           -0.014468990
FINAL SINGLE POINT ENERGY     -1339.848777732483

DIPOLE MOMENT
-------------
                                X             Y             Z
Electronic contribution:     -8.36741     -18.14271      17.07950
Nuclear contribution   :      8.54984      18.80264     -17.51615
                        -----------------------------------------
Total Dipole Moment    :      0.18243       0.65994      -0.43665
                        -----------------------------------------
Magnitude (a.u.)       :      0.81207
Magnitude (Debye)      :      2.06412

Rotational constants in cm-1:     0.019075     0.008711     0.007088
Rotational constants in MHz :   571.842576   261.153892   212.495753

                             ****ORCA TERMINATED NORMALLY****
TOTAL RUN TIME: 0 days 0 hours 0 minutes 34 seconds 569 msec
