                         Program Version 4.2.1 -  RELEASE  -
|  1> ! wB97X-D3 SP def2-SVP
|  2> %pal
|  3> nprocs 16
|  4> end
|  5>
|  6> * xyz 0 1
|  7> S 	 18.9497 	 -7.66613 	 80.3487
|  8> C 	 18.2051 	 -6.33512 	 79.4834
|  9> C 	 17.2087 	 -6.75997 	 78.6464
| 10> C 	 17.1299 	 -8.18817 	 78.5815
| 11> C 	 18.0096 	 -8.82628 	 79.4413
| 12> H 	 16.3755 	 -8.70587 	 78.072
| 13> C 	 16.1431 	 -5.87687 	 77.9932
| 14> H 	 16.0263 	 -6.14465 	 76.936
| 15> H 	 16.5007 	 -4.88966 	 77.964
| 16> C 	 14.8043 	 -5.94691 	 78.7152
| 17> H 	 14.3135 	 -6.91304 	 78.6289
| 18> H 	 15.0309 	 -5.95915 	 79.8249
| 19> C 	 13.7538 	 -4.88368 	 78.2797
| 20> H 	 12.9147 	 -4.89778 	 78.912
| 21> H 	 14.1772 	 -3.88569 	 78.3126
| 22> H 	 13.3702 	 -4.99162 	 77.251
| 23> S 	 18.3943 	 -11.086 	 81.0364
| 24> C 	 18.4571 	 -12.6459 	 80.3074
| 25> C 	 18.2929 	 -12.6569 	 78.9553
| 26> C 	 18.1062 	 -11.3045 	 78.5199
| 27> C 	 18.2287 	 -10.3333 	 79.4905
| 28> H 	 18.3035 	 -13.5093 	 78.3396
| 29> C 	 17.8661 	 -11.0151 	 77.0259
| 30> H 	 18.2375 	 -11.8303 	 76.4035
| 31> H 	 18.4065 	 -10.1211 	 76.7152
| 32> C 	 16.3634 	 -11.0058 	 76.6466
| 33> H 	 16.201 	 -10.2126 	 75.885
| 34> H 	 15.8297 	 -10.6741 	 77.5787
| 35> C 	 15.838 	 -12.4141 	 76.2221
| 36> H 	 16.0118 	 -13.0698 	 77.1115
| 37> H 	 16.3575 	 -12.8823 	 75.369
| 38> H 	 14.733 	 -12.3044 	 76.0845
| 39> H 	 18.5566 	 -5.27184 	 79.6962
| 40> H 	 18.6306 	 -13.5614 	 80.8949
| 41> *
| 42>
| 43>                          ****END OF INPUT****

CARTESIAN COORDINATES (ANGSTROEM)
---------------------------------
  S     18.949700   -7.666130   80.348700
  C     18.205100   -6.335120   79.483400
  C     17.208700   -6.759970   78.646400
  C     17.129900   -8.188170   78.581500
  C     18.009600   -8.826280   79.441300
  H     16.375500   -8.705870   78.072000
  C     16.143100   -5.876870   77.993200
  H     16.026300   -6.144650   76.936000
  H     16.500700   -4.889660   77.964000
  C     14.804300   -5.946910   78.715200
  H     14.313500   -6.913040   78.628900
  H     15.030900   -5.959150   79.824900
  C     13.753800   -4.883680   78.279700
  H     12.914700   -4.897780   78.912000
  H     14.177200   -3.885690   78.312600
  H     13.370200   -4.991620   77.251000
  S     18.394300  -11.086000   81.036400
  C     18.457100  -12.645900   80.307400
  C     18.292900  -12.656900   78.955300
  C     18.106200  -11.304500   78.519900
  C     18.228700  -10.333300   79.490500
  H     18.303500  -13.509300   78.339600
  C     17.866100  -11.015100   77.025900
  H     18.237500  -11.830300   76.403500
  H     18.406500  -10.121100   76.715200
  C     16.363400  -11.005800   76.646600
  H     16.201000  -10.212600   75.885000
  H     15.829700  -10.674100   77.578700
  C     15.838000  -12.414100   76.222100
  H     16.011800  -13.069800   77.111500
  H     16.357500  -12.882300   75.369000
  H     14.733000  -12.304400   76.084500
  H     18.556600   -5.271840   79.696200
  H     18.630600  -13.561400   80.894900

 Total Charge           Charge          ....    0
 Multiplicity           Mult            ....    1
 Number of Electrons    NEL             ....  134
 Basis Dimension        Dim             ....  322

ORBITAL ENERGIES
----------------

  NO   OCC          E(Eh)            E(eV)
   0   2.0000     -88.967292     -2420.9231
   1   2.0000     -88.965493     -2420.8742
   2   2.0000     -10.335608      -281.2462
   3   2.0000     -10.327848      -281.0350
   4   2.0000     -10.319893      -280.8186
   5   2.0000     -10.316606      -280.7291
   6   2.0000     -10.302487      -280.3449
   7   2.0000     -10.301568      -280.3199
   8   2.0000     -10.293190      -280.0919
   9   2.0000     -10.291578      -280.0481
  10   2.0000     -10.290987      -280.0320
  11   2.0000     -10.290156      -280.0094
  12   2.0000     -10.289708      -279.9972
  13   2.0000     -10.289341      -279.9872
  14   2.0000     -10.287712      -279.9429
  15   2.0000     -10.278015      -279.6790
  16   2.0000      -8.082140      -219.9262
  17   2.0000      -8.081372      -219.9053
  18   2.0000      -6.040758      -164.3774
  19   2.0000      -6.039829      -164.3521
  20   2.0000      -6.036620      -164.2648
  21   2.0000      -6.035757      -164.2413
  22   2.0000      -6.032813      -164.1612
  23   2.0000      -6.032096      -164.1417
  24   2.0000      -1.009176       -27.4611
  25   2.0000      -0.989417       -26.9234
  26   2.0000      -0.909555       -24.7502
  27   2.0000      -0.904967       -24.6254
  28   2.0000      -0.865920       -23.5629
  29   2.0000      -0.848541       -23.0900
  30   2.0000      -0.844896       -22.9908
  31   2.0000      -0.815658       -22.1952
  32   2.0000      -0.783570       -21.3220
  33   2.0000      -0.771433       -20.9918
  34   2.0000      -0.705004       -19.1841
  35   2.0000      -0.696306       -18.9475
  36   2.0000      -0.684813       -18.6347
  37   2.0000      -0.668358       -18.1869
  38   2.0000      -0.641663       -17.4605
  39   2.0000      -0.623560       -16.9679
  40   2.0000      -0.598559       -16.2876
  41   2.0000      -0.570501       -15.5241
  42   2.0000      -0.556818       -15.1518
  43   2.0000      -0.549438       -14.9510
  44   2.0000      -0.535739       -14.5782
  45   2.0000      -0.525706       -14.3052
  46   2.0000      -0.515369       -14.0239
  47   2.0000      -0.512057       -13.9338
  48   2.0000      -0.504087       -13.7169
  49   2.0000      -0.497278       -13.5316
  50   2.0000      -0.491029       -13.3616
  51   2.0000      -0.479269       -13.0416
  52   2.0000      -0.472942       -12.8694
  53   2.0000      -0.464199       -12.6315
  54   2.0000      -0.460629       -12.5344
  55   2.0000      -0.453593       -12.3429
  56   2.0000      -0.446959       -12.1624
  57   2.0000      -0.442058       -12.0290
  58   2.0000      -0.429670       -11.6919
  59   2.0000      -0.424407       -11.5487
  60   2.0000      -0.420588       -11.4448
  61   2.0000      -0.412671       -11.2294
  62   2.0000      -0.410863       -11.1801
  63   2.0000      -0.354373        -9.6430
  64   2.0000      -0.332957        -9.0602
  65   2.0000      -0.331660        -9.0249
  66   2.0000      -0.292893        -7.9700
  67   0.0000       0.031889         0.8677
  68   0.0000       0.076719         2.0876
  69   0.0000       0.109036         2.9670
  70   0.0000       0.129498         3.5238
  71   0.0000       0.133508         3.6329

MULLIKEN ATOMIC CHARGES
-----------------------
   0 S :    0.104596
   1 C :   -0.165852
   2 C :   -0.081292
   3 C :    0.022771
   4 C :   -0.104492
   5 H :   -0.024493
   6 C :    0.119134
   7 H :    0.024337
   8 H :   -0.001208
   9 C :   -0.107296
  10 H :    0.026565
  11 H :    0.040255
  12 C :   -0.022865
  13 H :    0.027196
  14 H :    0.023411
  15 H :    0.032474
  16 S :    0.105257
  17 C :   -0.091599
  18 C :    0.005236
  19 C :   -0.098968
  20 C :   -0.116061
  21 H :    0.005296
  22 C :    0.051821
  23 H :    0.011692
  24 H :    0.042097
  25 C :   -0.132640
  26 H :    0.039251
  27 H :    0.057364
  28 C :   -0.062126
  29 H :    0.035320
  30 H :    0.046860
  31 H :    0.049111
  32 H :    0.076846
  33 H :    0.062000
Sum of atomic charges:   -0.0000000

LOEWDIN ATOMIC CHARGES
----------------------
   0 S :    0.400625
   1 C :   -0.204004
   2 C :   -0.062844
   3 C :   -0.059834
   4 C :   -0.185832
   5 H :    0.020867
   6 C :   -0.026447
   7 H :    0.030855
   8 H :    0.020813
   9 C :   -0.045634
  10 H :    0.022283
  11 H :    0.033271
  12 C :   -0.062035
  13 H :    0.021533
  14 H :    0.022640
  15 H :    0.028792
  16 S :    0.421448
  17 C :   -0.186004
  18 C :   -0.068287
  19 C :   -0.055459
  20 C :   -0.206973
  21 H :    0.027087
  22 C :   -0.036259
  23 H :    0.026125
  24 H :    0.032051
  25 C :   -0.049612
  26 H :    0.023468
  27 H :    0.026177
  28 C :   -0.073180
  29 H :    0.029594
  30 H :    0.026230
  31 H :    0.034001
  32 H :    0.042463
  33 H :    0.032080

  Mayer bond orders larger than 0.100000
B(  0-S ,  1-C ) :   1.1341 B(  0-S ,  4-C ) :   1.1590 B(  1-C ,  2-C ) :   1.6169
B(  1-C , 32-H ) :   0.9584 B(  2-C ,  3-C ) :   1.2378 B(  2-C ,  6-C ) :   1.0361
B(  3-C ,  4-C ) :   1.5680 B(  3-C ,  5-H ) :   1.0035 B(  4-C , 20-C ) :   0.9967
B(  6-C ,  7-H ) :   0.9312 B(  6-C ,  8-H ) :   0.9378 B(  6-C ,  9-C ) :   1.0570
B(  9-C , 10-H ) :   0.9528 B(  9-C , 11-H ) :   0.9561 B(  9-C , 12-C ) :   1.0798
B( 12-C , 13-H ) :   0.9746 B( 12-C , 14-H ) :   0.9767 B( 12-C , 15-H ) :   0.9741
B( 16-S , 17-C ) :   1.1762 B( 16-S , 20-C ) :   1.1348 B( 17-C , 18-C ) :   1.5917
B( 17-C , 33-H ) :   0.9607 B( 18-C , 19-C ) :   1.2467 B( 18-C , 21-H ) :   1.0010
B( 19-C , 20-C ) :   1.6238 B( 19-C , 22-C ) :   1.0482 B( 22-C , 23-H ) :   0.9429
B( 22-C , 24-H ) :   0.9416 B( 22-C , 25-C ) :   1.0358 B( 25-C , 26-H ) :   0.9580
B( 25-C , 27-H ) :   0.9505 B( 25-C , 28-C ) :   1.0702 B( 28-C , 29-H ) :   0.9721
B( 28-C , 30-H ) :   0.9739 B( 28-C , 31-H ) :   0.9727

Dispersion correction           -0.014641614
FINAL SINGLE POINT ENERGY     -1339.889186327992

DIPOLE MOMENT
-------------
                                X             Y             Z
Electronic contribution:     21.13833      -5.30625      19.88299
Nuclear contribution   :    -21.57741       5.30570     -20.35024
                        -----------------------------------------
Total Dipole Moment    :     -0.43908      -0.00055      -0.46725
                        -----------------------------------------
Magnitude (a.u.)       :      0.64118
Magnitude (Debye)      :      1.62975

Rotational constants in cm-1:     0.018193     0.008804     0.006628
Rotational constants in MHz :   545.398444   263.938036   198.706365

                             ****ORCA TERMINATED NORMALLY****
TOTAL RUN TIME: 0 days 0 hours 0 minutes 30 seconds 207 msec
