                         Program Version 4.2.1 -  RELEASE  -
|  1> ! wB97X-D3 SP def2-SVP
|  2> %pal
|  3> nprocs 16
|  4> end
|  5>
|  6> * xyz 0 1
|  7> S 	 11.9412 	 0.937517 	 83.9323
|  8> C 	 13.1453 	 2.26139 	 83.9934
|  9> C 	 12.562 	 3.39032 	 84.6315
| 10> C 	 11.2189 	 3.22338 	 85.0054
| 11> C 	 10.6768 	 2.00666 	 84.6741
| 12> H 	 10.5212 	 3.84554 	 85.5561
| 13> C 	 13.3211 	 4.70804 	 84.9971
| 14> H 	 14.3422 	 4.68566 	 84.6812
| 15> H 	 13.2856 	 4.73711 	 86.0872
| 16> C 	 12.6594 	 6.03641 	 84.4295
| 17> H 	 11.5258 	 5.90063 	 84.5481
| 18> H 	 13.0435 	 6.86636 	 85.0547
| 19> C 	 12.9419 	 6.18917 	 82.9264
| 20> H 	 13.9915 	 6.31274 	 82.6577
| 21> H 	 12.5795 	 5.34296 	 82.2786
| 22> H 	 12.4894 	 7.11486 	 82.5775
| 23> S 	 9.3902 	 0.360202 	 86.4407
| 24> C 	 7.62454 	 0.332007 	 86.5457
| 25> C 	 7.10086 	 1.15225 	 85.5602
| 26> C 	 8.0288 	 1.87308 	 84.7901
| 27> C 	 9.33642 	 1.48533 	 85.0678
| 28> H 	 6.08412 	 1.29883 	 85.4564
| 29> C 	 7.7256 	 2.89417 	 83.7583
| 30> H 	 6.94422 	 2.59354 	 83.065
| 31> H 	 8.66726 	 3.06718 	 83.161
| 32> C 	 7.10147 	 4.18513 	 84.3572
| 33> H 	 7.73106 	 4.51339 	 85.1287
| 34> H 	 6.18787 	 3.83476 	 84.9476
| 35> C 	 6.78657 	 5.29402 	 83.3509
| 36> H 	 7.71373 	 5.84616 	 83.1463
| 37> H 	 6.05207 	 5.97503 	 83.6631
| 38> H 	 6.47096 	 4.91325 	 82.4049
| 39> H 	 14.1992 	 2.25335 	 83.749
| 40> H 	 7.11742 	 -0.231773 	 87.363
| 41> *
| 42>
| 43>                          ****END OF INPUT****

CARTESIAN COORDINATES (ANGSTROEM)
---------------------------------
  S     11.941200    0.937517   83.932300
  C     13.145300    2.261390   83.993400
  C     12.562000    3.390320   84.631500
  C     11.218900    3.223380   85.005400
  C     10.676800    2.006660   84.674100
  H     10.521200    3.845540   85.556100
  C     13.321100    4.708040   84.997100
  H     14.342200    4.685660   84.681200
  H     13.285600    4.737110   86.087200
  C     12.659400    6.036410   84.429500
  H     11.525800    5.900630   84.548100
  H     13.043500    6.866360   85.054700
  C     12.941900    6.189170   82.926400
  H     13.991500    6.312740   82.657700
  H     12.579500    5.342960   82.278600
  H     12.489400    7.114860   82.577500
  S      9.390200    0.360202   86.440700
  C      7.624540    0.332007   86.545700
  C      7.100860    1.152250   85.560200
  C      8.028800    1.873080   84.790100
  C      9.336420    1.485330   85.067800
  H      6.084120    1.298830   85.456400
  C      7.725600    2.894170   83.758300
  H      6.944220    2.593540   83.065000
  H      8.667260    3.067180   83.161000
  C      7.101470    4.185130   84.357200
  H      7.731060    4.513390   85.128700
  H      6.187870    3.834760   84.947600
  C      6.786570    5.294020   83.350900
  H      7.713730    5.846160   83.146300
  H      6.052070    5.975030   83.663100
  H      6.470960    4.913250   82.404900
  H     14.199200    2.253350   83.749000
  H      7.117420   -0.231773   87.363000

 Total Charge           Charge          ....    0
 Multiplicity           Mult            ....    1
 Number of Electrons    NEL             ....  134
 Basis Dimension        Dim             ....  322

ORBITAL ENERGIES
----------------

  NO   OCC          E(Eh)            E(eV)
   0   2.0000     -88.968110     -2420.9453
   1   2.0000     -88.963572     -2420.8219
   2   2.0000     -10.335400      -281.2405
   3   2.0000     -10.330193      -281.0989
   4   2.0000     -10.326243      -280.9914
   5   2.0000     -10.322618      -280.8927
   6   2.0000     -10.307736      -280.4877
   7   2.0000     -10.303506      -280.3727
   8   2.0000     -10.300203      -280.2828
   9   2.0000     -10.295157      -280.1455
  10   2.0000     -10.294743      -280.1342
  11   2.0000     -10.293187      -280.0919
  12   2.0000     -10.291321      -280.0411
  13   2.0000     -10.288820      -279.9730
  14   2.0000     -10.279960      -279.7319
  15   2.0000     -10.275236      -279.6034
  16   2.0000      -8.080897      -219.8924
  17   2.0000      -8.077895      -219.8107
  18   2.0000      -6.039566      -164.3449
  19   2.0000      -6.036352      -164.2575
  20   2.0000      -6.035638      -164.2381
  21   2.0000      -6.032366      -164.1490
  22   2.0000      -6.031631      -164.1290
  23   2.0000      -6.028817      -164.0524
  24   2.0000      -1.000931       -27.2367
  25   2.0000      -0.977314       -26.5941
  26   2.0000      -0.910456       -24.7748
  27   2.0000      -0.899589       -24.4791
  28   2.0000      -0.864183       -23.5156
  29   2.0000      -0.853592       -23.2274
  30   2.0000      -0.842324       -22.9208
  31   2.0000      -0.813794       -22.1444
  32   2.0000      -0.782407       -21.2904
  33   2.0000      -0.769949       -20.9514
  34   2.0000      -0.706247       -19.2180
  35   2.0000      -0.698867       -19.0171
  36   2.0000      -0.690347       -18.7853
  37   2.0000      -0.665983       -18.1223
  38   2.0000      -0.642641       -17.4872
  39   2.0000      -0.616765       -16.7830
  40   2.0000      -0.601424       -16.3656
  41   2.0000      -0.567430       -15.4405
  42   2.0000      -0.559702       -15.2303
  43   2.0000      -0.545581       -14.8460
  44   2.0000      -0.530053       -14.4235
  45   2.0000      -0.529166       -14.3993
  46   2.0000      -0.519775       -14.1438
  47   2.0000      -0.513878       -13.9833
  48   2.0000      -0.507057       -13.7977
  49   2.0000      -0.497336       -13.5332
  50   2.0000      -0.480691       -13.0803
  51   2.0000      -0.479978       -13.0609
  52   2.0000      -0.471177       -12.8214
  53   2.0000      -0.465375       -12.6635
  54   2.0000      -0.457945       -12.4613
  55   2.0000      -0.453671       -12.3450
  56   2.0000      -0.442426       -12.0390
  57   2.0000      -0.435321       -11.8457
  58   2.0000      -0.433935       -11.8080
  59   2.0000      -0.425123       -11.5682
  60   2.0000      -0.419637       -11.4189
  61   2.0000      -0.415203       -11.2982
  62   2.0000      -0.413961       -11.2645
  63   2.0000      -0.343215        -9.3394
  64   2.0000      -0.329812        -8.9746
  65   2.0000      -0.325315        -8.8523
  66   2.0000      -0.300324        -8.1722
  67   0.0000       0.032537         0.8854
  68   0.0000       0.054084         1.4717
  69   0.0000       0.115313         3.1378
  70   0.0000       0.118869         3.2346
  71   0.0000       0.123121         3.3503

MULLIKEN ATOMIC CHARGES
-----------------------
   0 S :    0.100285
   1 C :   -0.107977
   2 C :   -0.095964
   3 C :    0.049947
   4 C :   -0.184863
   5 H :    0.020166
   6 C :    0.071927
   7 H :    0.010672
   8 H :    0.040397
   9 C :   -0.101915
  10 H :    0.044009
  11 H :    0.044440
  12 C :   -0.065826
  13 H :    0.024399
  14 H :    0.052119
  15 H :    0.030919
  16 S :    0.096518
  17 C :   -0.111430
  18 C :    0.006665
  19 C :   -0.010474
  20 C :   -0.175065
  21 H :   -0.010863
  22 C :    0.051727
  23 H :    0.023169
  24 H :    0.046883
  25 C :   -0.110859
  26 H :    0.011275
  27 H :    0.027958
  28 C :    0.013185
  29 H :    0.032171
  30 H :    0.028670
  31 H :    0.015256
  32 H :    0.050295
  33 H :    0.082184
Sum of atomic charges:    0.0000000

LOEWDIN ATOMIC CHARGES
----------------------
   0 S :    0.368074
   1 C :   -0.191778
   2 C :   -0.061845
   3 C :   -0.065223
   4 C :   -0.178371
   5 H :    0.036512
   6 C :   -0.027078
   7 H :    0.020612
   8 H :    0.032534
   9 C :   -0.043405
  10 H :    0.031242
  11 H :    0.028688
  12 C :   -0.076000
  13 H :    0.021747
  14 H :    0.035690
  15 H :    0.024951
  16 S :    0.392604
  17 C :   -0.177796
  18 C :   -0.065273
  19 C :   -0.054572
  20 C :   -0.192206
  21 H :    0.018334
  22 C :   -0.034649
  23 H :    0.029996
  24 H :    0.038671
  25 C :   -0.039870
  26 H :    0.011214
  27 H :    0.027582
  28 C :   -0.058361
  29 H :    0.031843
  30 H :    0.022404
  31 H :    0.021357
  32 H :    0.031833
  33 H :    0.040541

  Mayer bond orders larger than 0.100000
B(  0-S ,  1-C ) :   1.1300 B(  0-S ,  4-C ) :   1.1349 B(  1-C ,  2-C ) :   1.6091
B(  1-C ,  4-C ) :   0.1063 B(  1-C , 32-H ) :   0.9672 B(  2-C ,  3-C ) :   1.2199
B(  2-C ,  6-C ) :   1.0181 B(  3-C ,  4-C ) :   1.6036 B(  3-C ,  5-H ) :   0.9872
B(  4-C , 20-C ) :   0.9981 B(  6-C ,  7-H ) :   0.9464 B(  6-C ,  8-H ) :   0.9438
B(  6-C ,  9-C ) :   1.0579 B(  9-C , 10-H ) :   0.9576 B(  9-C , 11-H ) :   0.9567
B(  9-C , 12-C ) :   1.0681 B( 12-C , 13-H ) :   0.9750 B( 12-C , 14-H ) :   0.9755
B( 12-C , 15-H ) :   0.9738 B( 16-S , 17-C ) :   1.1617 B( 16-S , 20-C ) :   1.1536
B( 17-C , 18-C ) :   1.5721 B( 17-C , 20-C ) :   0.1040 B( 17-C , 33-H ) :   0.9660
B( 18-C , 19-C ) :   1.2535 B( 18-C , 21-H ) :   1.0000 B( 19-C , 20-C ) :   1.5853
B( 19-C , 22-C ) :   1.0624 B( 22-C , 23-H ) :   0.9287 B( 22-C , 24-H ) :   0.9356
B( 22-C , 25-C ) :   1.0425 B( 25-C , 26-H ) :   0.9577 B( 25-C , 27-H ) :   0.9573
B( 25-C , 28-C ) :   1.0761 B( 28-C , 29-H ) :   0.9728 B( 28-C , 30-H ) :   0.9740
B( 28-C , 31-H ) :   0.9726

Dispersion correction           -0.014415112
FINAL SINGLE POINT ENERGY     -1339.877078974034

DIPOLE MOMENT
-------------
                                X             Y             Z
Electronic contribution:      3.78123     -28.76420       8.75772
Nuclear contribution   :     -4.00944      29.46801      -8.64057
                        -----------------------------------------
Total Dipole Moment    :     -0.22822       0.70382       0.11715
                        -----------------------------------------
Magnitude (a.u.)       :      0.74911
Magnitude (Debye)      :      1.90408

Rotational constants in cm-1:     0.016437     0.009693     0.006873
Rotational constants in MHz :   492.776729   290.589417   206.040289

                             ****ORCA TERMINATED NORMALLY****
TOTAL RUN TIME: 0 days 0 hours 0 minutes 35 seconds 179 msec
