                         Program Version 4.2.1 -  RELEASE  -
|  1> ! wB97X-D3 SP def2-SVP
|  2> %pal
|  3> nprocs 16
|  4> end
|  5>
|  6> * xyz 0 1
|  7> S 	 -92.0578 	 42.4905 	 119.172
|  8> C 	 -91.4075 	 41.8192 	 120.663
|  9> C 	 -92.2326 	 40.7418 	 121.063
| 10> C 	 -93.1839 	 40.3468 	 120.053
| 11> C 	 -93.116 	 41.1639 	 118.916
| 12> H 	 -93.8654 	 39.5297 	 120.024
| 13> C 	 -91.945 	 39.9586 	 122.299
| 14> H 	 -91.1139 	 39.2411 	 122.176
| 15> H 	 -92.8663 	 39.4224 	 122.415
| 16> C 	 -91.826 	 40.7516 	 123.609
| 17> H 	 -91.1089 	 41.5663 	 123.513
| 18> H 	 -92.7908 	 41.2276 	 123.759
| 19> C 	 -91.5135 	 39.7581 	 124.725
| 20> H 	 -90.5614 	 39.2003 	 124.592
| 21> H 	 -91.1903 	 40.2994 	 125.636
| 22> H 	 -92.3245 	 39.0882 	 124.961
| 23> S 	 -94.7815 	 42.5502 	 117.142
| 24> C 	 -95.5931 	 41.6261 	 115.927
| 25> C 	 -95.1 	 40.3541 	 115.816
| 26> C 	 -94.3275 	 39.9925 	 116.934
| 27> C 	 -93.9953 	 41.0873 	 117.732
| 28> H 	 -95.5231 	 39.7831 	 115.005
| 29> C 	 -93.8352 	 38.5251 	 117.003
| 30> H 	 -92.8625 	 38.3703 	 117.598
| 31> H 	 -93.5251 	 38.1514 	 116.028
| 32> C 	 -94.8726 	 37.5107 	 117.641
| 33> H 	 -95.7329 	 37.5321 	 117.035
| 34> H 	 -95.1831 	 37.7922 	 118.673
| 35> C 	 -94.5039 	 35.9343 	 117.544
| 36> H 	 -93.5464 	 35.7007 	 118
| 37> H 	 -94.3521 	 35.6155 	 116.498
| 38> H 	 -95.2882 	 35.3686 	 118.026
| 39> H 	 -90.6474 	 42.1835 	 121.248
| 40> H 	 -96.288 	 42.1305 	 115.287
| 41> *
| 42>
| 43>                          ****END OF INPUT****

CARTESIAN COORDINATES (ANGSTROEM)
---------------------------------
  S    -92.057800   42.490500  119.172000
  C    -91.407500   41.819200  120.663000
  C    -92.232600   40.741800  121.063000
  C    -93.183900   40.346800  120.053000
  C    -93.116000   41.163900  118.916000
  H    -93.865400   39.529700  120.024000
  C    -91.945000   39.958600  122.299000
  H    -91.113900   39.241100  122.176000
  H    -92.866300   39.422400  122.415000
  C    -91.826000   40.751600  123.609000
  H    -91.108900   41.566300  123.513000
  H    -92.790800   41.227600  123.759000
  C    -91.513500   39.758100  124.725000
  H    -90.561400   39.200300  124.592000
  H    -91.190300   40.299400  125.636000
  H    -92.324500   39.088200  124.961000
  S    -94.781500   42.550200  117.142000
  C    -95.593100   41.626100  115.927000
  C    -95.100000   40.354100  115.816000
  C    -94.327500   39.992500  116.934000
  C    -93.995300   41.087300  117.732000
  H    -95.523100   39.783100  115.005000
  C    -93.835200   38.525100  117.003000
  H    -92.862500   38.370300  117.598000
  H    -93.525100   38.151400  116.028000
  C    -94.872600   37.510700  117.641000
  H    -95.732900   37.532100  117.035000
  H    -95.183100   37.792200  118.673000
  C    -94.503900   35.934300  117.544000
  H    -93.546400   35.700700  118.000000
  H    -94.352100   35.615500  116.498000
  H    -95.288200   35.368600  118.026000
  H    -90.647400   42.183500  121.248000
  H    -96.288000   42.130500  115.287000

 Total Charge           Charge          ....    0
 Multiplicity           Mult            ....    1
 Number of Electrons    NEL             ....  134
 Basis Dimension        Dim             ....  322

ORBITAL ENERGIES
----------------

  NO   OCC          E(Eh)            E(eV)
   0   2.0000     -88.966600     -2420.9043
   1   2.0000     -88.966353     -2420.8975
   2   2.0000     -10.331940      -281.1464
   3   2.0000     -10.329481      -281.0795
   4   2.0000     -10.314115      -280.6613
   5   2.0000     -10.309516      -280.5362
   6   2.0000     -10.308935      -280.5204
   7   2.0000     -10.303282      -280.3666
   8   2.0000     -10.302063      -280.3334
   9   2.0000     -10.293866      -280.1103
  10   2.0000     -10.293780      -280.1080
  11   2.0000     -10.292137      -280.0633
  12   2.0000     -10.286599      -279.9126
  13   2.0000     -10.284889      -279.8661
  14   2.0000     -10.284824      -279.8643
  15   2.0000     -10.280910      -279.7578
  16   2.0000      -8.081826      -219.9177
  17   2.0000      -8.081220      -219.9012
  18   2.0000      -6.040182      -164.3617
  19   2.0000      -6.039675      -164.3479
  20   2.0000      -6.036322      -164.2567
  21   2.0000      -6.035617      -164.2375
  22   2.0000      -6.032670      -164.1573
  23   2.0000      -6.032132      -164.1426
  24   2.0000      -1.008019       -27.4296
  25   2.0000      -0.985602       -26.8196
  26   2.0000      -0.915283       -24.9061
  27   2.0000      -0.894850       -24.3501
  28   2.0000      -0.867324       -23.6011
  29   2.0000      -0.849600       -23.1188
  30   2.0000      -0.845727       -23.0134
  31   2.0000      -0.813356       -22.1326
  32   2.0000      -0.780504       -21.2386
  33   2.0000      -0.770278       -20.9603
  34   2.0000      -0.710135       -19.3237
  35   2.0000      -0.702981       -19.1291
  36   2.0000      -0.693025       -18.8582
  37   2.0000      -0.663045       -18.0424
  38   2.0000      -0.642945       -17.4954
  39   2.0000      -0.614040       -16.7089
  40   2.0000      -0.598147       -16.2764
  41   2.0000      -0.575885       -15.6706
  42   2.0000      -0.567680       -15.4474
  43   2.0000      -0.552336       -15.0298
  44   2.0000      -0.524509       -14.2726
  45   2.0000      -0.518189       -14.1007
  46   2.0000      -0.517406       -14.0793
  47   2.0000      -0.512831       -13.9549
  48   2.0000      -0.504868       -13.7382
  49   2.0000      -0.500291       -13.6136
  50   2.0000      -0.496379       -13.5071
  51   2.0000      -0.475180       -12.9303
  52   2.0000      -0.471833       -12.8392
  53   2.0000      -0.465507       -12.6671
  54   2.0000      -0.458896       -12.4872
  55   2.0000      -0.450338       -12.2543
  56   2.0000      -0.444426       -12.0934
  57   2.0000      -0.440820       -11.9953
  58   2.0000      -0.433209       -11.7882
  59   2.0000      -0.425415       -11.5761
  60   2.0000      -0.417262       -11.3543
  61   2.0000      -0.413911       -11.2631
  62   2.0000      -0.410766       -11.1775
  63   2.0000      -0.349225        -9.5029
  64   2.0000      -0.335683        -9.1344
  65   2.0000      -0.327811        -8.9202
  66   2.0000      -0.286809        -7.8045
  67   0.0000       0.028969         0.7883
  68   0.0000       0.065716         1.7882
  69   0.0000       0.108934         2.9643
  70   0.0000       0.121510         3.3065
  71   0.0000       0.132757         3.6125

MULLIKEN ATOMIC CHARGES
-----------------------
   0 S :    0.106888
   1 C :   -0.079657
   2 C :   -0.087997
   3 C :    0.046858
   4 C :   -0.140700
   5 H :   -0.010157
   6 C :    0.044527
   7 H :    0.050995
   8 H :    0.011447
   9 C :   -0.076256
  10 H :    0.025771
  11 H :    0.030811
  12 C :   -0.049614
  13 H :    0.028375
  14 H :    0.026755
  15 H :    0.041442
  16 S :    0.107128
  17 C :   -0.104170
  18 C :   -0.015763
  19 C :   -0.006632
  20 C :   -0.147904
  21 H :    0.024440
  22 C :    0.023746
  23 H :    0.039481
  24 H :    0.024099
  25 C :   -0.083928
  26 H :    0.019376
  27 H :    0.041788
  28 C :   -0.065461
  29 H :    0.028561
  30 H :    0.033157
  31 H :    0.044713
  32 H :    0.015644
  33 H :    0.052232
Sum of atomic charges:   -0.0000000

LOEWDIN ATOMIC CHARGES
----------------------
   0 S :    0.418499
   1 C :   -0.187882
   2 C :   -0.056106
   3 C :   -0.064254
   4 C :   -0.196746
   5 H :    0.025543
   6 C :   -0.039065
   7 H :    0.035302
   8 H :    0.028292
   9 C :   -0.037107
  10 H :    0.018233
  11 H :    0.028033
  12 C :   -0.071205
  13 H :    0.029176
  14 H :    0.029302
  15 H :    0.025676
  16 S :    0.407064
  17 C :   -0.179296
  18 C :   -0.069745
  19 C :   -0.056559
  20 C :   -0.192796
  21 H :    0.035375
  22 C :   -0.036280
  23 H :    0.035486
  24 H :    0.028932
  25 C :   -0.037074
  26 H :    0.014626
  27 H :    0.024167
  28 C :   -0.066199
  29 H :    0.020220
  30 H :    0.026664
  31 H :    0.027392
  32 H :    0.010071
  33 H :    0.022261

  Mayer bond orders larger than 0.100000
B(  0-S ,  1-C ) :   1.1381 B(  0-S ,  4-C ) :   1.1726 B(  1-C ,  2-C ) :   1.5673
B(  1-C ,  4-C ) :   0.1013 B(  1-C , 32-H ) :   0.9870 B(  2-C ,  3-C ) :   1.2513
B(  2-C ,  6-C ) :   1.0202 B(  3-C ,  4-C ) :   1.5403 B(  3-C ,  5-H ) :   1.0011
B(  4-C , 20-C ) :   1.0394 B(  6-C ,  7-H ) :   0.9456 B(  6-C ,  8-H ) :   0.9414
B(  6-C ,  9-C ) :   1.0566 B(  9-C , 10-H ) :   0.9597 B(  9-C , 11-H ) :   0.9551
B(  9-C , 12-C ) :   1.0865 B( 12-C , 13-H ) :   0.9716 B( 12-C , 14-H ) :   0.9705
B( 12-C , 15-H ) :   0.9750 B( 16-S , 17-C ) :   1.1679 B( 16-S , 20-C ) :   1.1436
B( 17-C , 18-C ) :   1.6028 B( 17-C , 20-C ) :   0.1006 B( 17-C , 33-H ) :   0.9704
B( 18-C , 19-C ) :   1.2349 B( 18-C , 21-H ) :   0.9930 B( 19-C , 20-C ) :   1.5958
B( 19-C , 22-C ) :   1.0338 B( 22-C , 23-H ) :   0.9421 B( 22-C , 24-H ) :   0.9455
B( 22-C , 25-C ) :   1.0482 B( 25-C , 26-H ) :   0.9587 B( 25-C , 27-H ) :   0.9589
B( 25-C , 28-C ) :   1.0668 B( 28-C , 29-H ) :   0.9797 B( 28-C , 30-H ) :   0.9769
B( 28-C , 31-H ) :   0.9775

Dispersion correction           -0.013485203
FINAL SINGLE POINT ENERGY     -1339.867941987695

DIPOLE MOMENT
-------------
                                X             Y             Z
Electronic contribution:     -2.20064      25.57922     -16.47867
Nuclear contribution   :      2.08132     -26.15072      16.59359
                        -----------------------------------------
Total Dipole Moment    :     -0.11932      -0.57151       0.11492
                        -----------------------------------------
Magnitude (a.u.)       :      0.59503
Magnitude (Debye)      :      1.51245

Rotational constants in cm-1:     0.017815     0.007993     0.005884
Rotational constants in MHz :   534.079368   239.638493   176.406404

                             ****ORCA TERMINATED NORMALLY****
TOTAL RUN TIME: 0 days 0 hours 0 minutes 32 seconds 559 msec
