                         Program Version 4.2.1 -  RELEASE  -
|  1> ! wB97X-D3 SP def2-SVP
|  2> %pal
|  3> nprocs 16
|  4> end
|  5>
|  6> * xyz 0 1
|  7> S 	 23.5885 	 -10.5226 	 82.9891
|  8> C 	 24.5142 	 -11.2697 	 81.6655
|  9> C 	 24.3881 	 -10.4822 	 80.4965
| 10> C 	 23.6845 	 -9.28284 	 80.6974
| 11> C 	 23.4124 	 -9.07159 	 82.0088
| 12> H 	 23.3801 	 -8.53772 	 79.9532
| 13> C 	 24.9456 	 -10.8247 	 79.1508
| 14> H 	 24.1555 	 -10.7815 	 78.4333
| 15> H 	 25.2639 	 -11.9158 	 79.1278
| 16> C 	 26.2447 	 -10.0628 	 78.7617
| 17> H 	 26.5879 	 -10.3339 	 77.7544
| 18> H 	 26.1099 	 -8.95502 	 78.8357
| 19> C 	 27.3633 	 -10.3471 	 79.8108
| 20> H 	 28.2695 	 -10.1427 	 79.324
| 21> H 	 27.3132 	 -9.7461 	 80.6619
| 22> H 	 27.3835 	 -11.3827 	 80.2874
| 23> S 	 21.3991 	 -7.90033 	 83.5516
| 24> C 	 21.5158 	 -6.14306 	 83.8218
| 25> C 	 22.564 	 -5.56091 	 83.1391
| 26> C 	 23.4051 	 -6.50729 	 82.4793
| 27> C 	 22.8985 	 -7.81928 	 82.5653
| 28> H 	 22.5976 	 -4.47566 	 83.2894
| 29> C 	 24.5781 	 -6.0071 	 81.5594
| 30> H 	 24.3212 	 -4.98283 	 81.2857
| 31> H 	 24.4728 	 -6.57396 	 80.6173
| 32> C 	 26.0137 	 -5.98296 	 82.0735
| 33> H 	 26.3145 	 -7.00925 	 82.1971
| 34> H 	 25.8298 	 -5.49476 	 83.0348
| 35> C 	 27.0696 	 -5.19724 	 81.2052
| 36> H 	 26.7725 	 -4.14447 	 81.1673
| 37> H 	 27.1275 	 -5.63702 	 80.2372
| 38> H 	 28.0163 	 -5.20653 	 81.6743
| 39> H 	 25.0954 	 -12.1833 	 81.6991
| 40> H 	 20.7784 	 -5.60624 	 84.3531
| 41> *
| 42>
| 43>                          ****END OF INPUT****

CARTESIAN COORDINATES (ANGSTROEM)
---------------------------------
  S     23.588500  -10.522600   82.989100
  C     24.514200  -11.269700   81.665500
  C     24.388100  -10.482200   80.496500
  C     23.684500   -9.282840   80.697400
  C     23.412400   -9.071590   82.008800
  H     23.380100   -8.537720   79.953200
  C     24.945600  -10.824700   79.150800
  H     24.155500  -10.781500   78.433300
  H     25.263900  -11.915800   79.127800
  C     26.244700  -10.062800   78.761700
  H     26.587900  -10.333900   77.754400
  H     26.109900   -8.955020   78.835700
  C     27.363300  -10.347100   79.810800
  H     28.269500  -10.142700   79.324000
  H     27.313200   -9.746100   80.661900
  H     27.383500  -11.382700   80.287400
  S     21.399100   -7.900330   83.551600
  C     21.515800   -6.143060   83.821800
  C     22.564000   -5.560910   83.139100
  C     23.405100   -6.507290   82.479300
  C     22.898500   -7.819280   82.565300
  H     22.597600   -4.475660   83.289400
  C     24.578100   -6.007100   81.559400
  H     24.321200   -4.982830   81.285700
  H     24.472800   -6.573960   80.617300
  C     26.013700   -5.982960   82.073500
  H     26.314500   -7.009250   82.197100
  H     25.829800   -5.494760   83.034800
  C     27.069600   -5.197240   81.205200
  H     26.772500   -4.144470   81.167300
  H     27.127500   -5.637020   80.237200
  H     28.016300   -5.206530   81.674300
  H     25.095400  -12.183300   81.699100
  H     20.778400   -5.606240   84.353100

 Total Charge           Charge          ....    0
 Multiplicity           Mult            ....    1
 Number of Electrons    NEL             ....  134
 Basis Dimension        Dim             ....  322

ORBITAL ENERGIES
----------------

  NO   OCC          E(Eh)            E(eV)
   0   2.0000     -88.968690     -2420.9611
   1   2.0000     -88.967181     -2420.9201
   2   2.0000     -10.333623      -281.1922
   3   2.0000     -10.327969      -281.0383
   4   2.0000     -10.318476      -280.7800
   5   2.0000     -10.316436      -280.7245
   6   2.0000     -10.313566      -280.6464
   7   2.0000     -10.302031      -280.3325
   8   2.0000     -10.297567      -280.2110
   9   2.0000     -10.295736      -280.1612
  10   2.0000     -10.294270      -280.1213
  11   2.0000     -10.293632      -280.1040
  12   2.0000     -10.291431      -280.0441
  13   2.0000     -10.284806      -279.8638
  14   2.0000     -10.278167      -279.6831
  15   2.0000     -10.272108      -279.5183
  16   2.0000      -8.082732      -219.9423
  17   2.0000      -8.080803      -219.8898
  18   2.0000      -6.041300      -164.3921
  19   2.0000      -6.039278      -164.3371
  20   2.0000      -6.037527      -164.2895
  21   2.0000      -6.035577      -164.2364
  22   2.0000      -6.033278      -164.1739
  23   2.0000      -6.031567      -164.1273
  24   2.0000      -1.003294       -27.3010
  25   2.0000      -0.978017       -26.6132
  26   2.0000      -0.909241       -24.7417
  27   2.0000      -0.901704       -24.5366
  28   2.0000      -0.864671       -23.5289
  29   2.0000      -0.851223       -23.1630
  30   2.0000      -0.844231       -22.9727
  31   2.0000      -0.813576       -22.1385
  32   2.0000      -0.784773       -21.3548
  33   2.0000      -0.773045       -21.0356
  34   2.0000      -0.709716       -19.3124
  35   2.0000      -0.697733       -18.9863
  36   2.0000      -0.691197       -18.8084
  37   2.0000      -0.657493       -17.8913
  38   2.0000      -0.639777       -17.4092
  39   2.0000      -0.621717       -16.9178
  40   2.0000      -0.589388       -16.0381
  41   2.0000      -0.569445       -15.4954
  42   2.0000      -0.567014       -15.4292
  43   2.0000      -0.549058       -14.9406
  44   2.0000      -0.542644       -14.7661
  45   2.0000      -0.522691       -14.2231
  46   2.0000      -0.517398       -14.0791
  47   2.0000      -0.513122       -13.9628
  48   2.0000      -0.498820       -13.5736
  49   2.0000      -0.496328       -13.5058
  50   2.0000      -0.489073       -13.3084
  51   2.0000      -0.480330       -13.0705
  52   2.0000      -0.470563       -12.8047
  53   2.0000      -0.460876       -12.5411
  54   2.0000      -0.455896       -12.4056
  55   2.0000      -0.453584       -12.3426
  56   2.0000      -0.446607       -12.1528
  57   2.0000      -0.434976       -11.8363
  58   2.0000      -0.431472       -11.7410
  59   2.0000      -0.425056       -11.5664
  60   2.0000      -0.420699       -11.4478
  61   2.0000      -0.415827       -11.3152
  62   2.0000      -0.413377       -11.2486
  63   2.0000      -0.343953        -9.3594
  64   2.0000      -0.335413        -9.1271
  65   2.0000      -0.331176        -9.0118
  66   2.0000      -0.288593        -7.8530
  67   0.0000       0.024059         0.6547
  68   0.0000       0.061227         1.6661
  69   0.0000       0.096740         2.6324
  70   0.0000       0.114419         3.1135
  71   0.0000       0.125640         3.4188

MULLIKEN ATOMIC CHARGES
-----------------------
   0 S :    0.115732
   1 C :   -0.116846
   2 C :   -0.089606
   3 C :    0.017572
   4 C :   -0.140174
   5 H :    0.035471
   6 C :    0.050249
   7 H :    0.028735
   8 H :    0.024658
   9 C :   -0.072728
  10 H :    0.040333
  11 H :    0.036392
  12 C :   -0.049657
  13 H :    0.023930
  14 H :    0.027564
  15 H :    0.027133
  16 S :    0.091204
  17 C :   -0.089611
  18 C :   -0.044079
  19 C :   -0.010703
  20 C :   -0.169518
  21 H :    0.032053
  22 C :    0.049428
  23 H :    0.009083
  24 H :    0.013677
  25 C :   -0.069082
  26 H :    0.036231
  27 H :    0.027504
  28 C :   -0.020846
  29 H :    0.029234
  30 H :    0.032301
  31 H :    0.033653
  32 H :    0.048031
  33 H :    0.042683
Sum of atomic charges:    0.0000000

LOEWDIN ATOMIC CHARGES
----------------------
   0 S :    0.390334
   1 C :   -0.192510
   2 C :   -0.059689
   3 C :   -0.062954
   4 C :   -0.185127
   5 H :    0.040214
   6 C :   -0.037213
   7 H :    0.026484
   8 H :    0.034158
   9 C :   -0.035812
  10 H :    0.024932
  11 H :    0.026953
  12 C :   -0.064908
  13 H :    0.019700
  14 H :    0.017838
  15 H :    0.028870
  16 S :    0.369259
  17 C :   -0.166266
  18 C :   -0.074765
  19 C :   -0.052119
  20 C :   -0.180501
  21 H :    0.040012
  22 C :   -0.032251
  23 H :    0.025879
  24 H :    0.023266
  25 C :   -0.038263
  26 H :    0.022247
  27 H :    0.026219
  28 C :   -0.055102
  29 H :    0.027126
  30 H :    0.022318
  31 H :    0.024465
  32 H :    0.028230
  33 H :    0.018976

  Mayer bond orders larger than 0.100000
B(  0-S ,  1-C ) :   1.1219 B(  0-S ,  4-C ) :   1.1454 B(  1-C ,  2-C ) :   1.6022
B(  1-C ,  4-C ) :   0.1024 B(  1-C , 32-H ) :   0.9696 B(  2-C ,  3-C ) :   1.2244
B(  2-C ,  6-C ) :   1.0343 B(  3-C ,  4-C ) :   1.5843 B(  3-C ,  5-H ) :   0.9904
B(  4-C , 20-C ) :   1.0421 B(  6-C ,  7-H ) :   0.9413 B(  6-C ,  8-H ) :   0.9438
B(  6-C ,  9-C ) :   1.0627 B(  9-C , 10-H ) :   0.9642 B(  9-C , 11-H ) :   0.9573
B(  9-C , 12-C ) :   1.0565 B( 12-C , 13-H ) :   0.9747 B( 12-C , 14-H ) :   0.9756
B( 12-C , 15-H ) :   0.9768 B( 16-S , 17-C ) :   1.1376 B( 16-S , 20-C ) :   1.1345
B( 17-C , 18-C ) :   1.6468 B( 17-C , 20-C ) :   0.1024 B( 17-C , 33-H ) :   0.9699
B( 18-C , 19-C ) :   1.2098 B( 18-C , 21-H ) :   0.9852 B( 19-C , 20-C ) :   1.6115
B( 19-C , 22-C ) :   1.0200 B( 22-C , 23-H ) :   0.9396 B( 22-C , 24-H ) :   0.9364
B( 22-C , 25-C ) :   1.0558 B( 25-C , 26-H ) :   0.9574 B( 25-C , 27-H ) :   0.9553
B( 25-C , 28-C ) :   1.0807 B( 28-C , 29-H ) :   0.9741 B( 28-C , 30-H ) :   0.9771
B( 28-C , 31-H ) :   0.9756

Dispersion correction           -0.015072058
FINAL SINGLE POINT ENERGY     -1339.866380624515

DIPOLE MOMENT
-------------
                                X             Y             Z
Electronic contribution:    -25.06878      -7.73397      17.34883
Nuclear contribution   :     25.44104       8.13113     -17.84202
                        -----------------------------------------
Total Dipole Moment    :      0.37227       0.39716      -0.49318
                        -----------------------------------------
Magnitude (a.u.)       :      0.73454
Magnitude (Debye)      :      1.86705

Rotational constants in cm-1:     0.016876     0.010401     0.007158
Rotational constants in MHz :   505.926879   311.824547   214.576769

                             ****ORCA TERMINATED NORMALLY****
TOTAL RUN TIME: 0 days 0 hours 0 minutes 29 seconds 913 msec
