                         Program Version 4.2.1 -  RELEASE  -
|  1> ! wB97X-D3 SP def2-SVP
|  2> %pal
|  3> nprocs 16
|  4> end
|  5>
|  6> * xyz 0 1
|  7> S 	 1.46821 	 19.8218 	 50.0586
|  8> C 	 0.864491 	 18.5987 	 51.1982
|  9> C 	 1.89375 	 17.6946 	 51.5186
| 10> C 	 3.07945 	 17.9848 	 50.8727
| 11> C 	 3.08645 	 19.1274 	 50.1528
| 12> H 	 4.03128 	 17.5044 	 51.0335
| 13> C 	 1.66426 	 16.434 	 52.3895
| 14> H 	 0.978428 	 16.7349 	 53.0548
| 15> H 	 2.66074 	 16.1729 	 52.851
| 16> C 	 1.36637 	 15.2289 	 51.4647
| 17> H 	 0.497808 	 15.3896 	 50.8591
| 18> H 	 2.2013 	 15.0737 	 50.8199
| 19> C 	 1.03828 	 14.0238 	 52.3465
| 20> H 	 1.32756 	 13.037 	 51.9741
| 21> H 	 1.65689 	 14.0376 	 53.2288
| 22> H 	 0.0702603 	 14.0441 	 52.8136
| 23> S 	 5.60271 	 19.9894 	 50.7915
| 24> C 	 6.67313 	 20.5722 	 49.5439
| 25> C 	 6.00167 	 20.5829 	 48.3513
| 26> C 	 4.68189 	 20.0486 	 48.3328
| 27> C 	 4.27977 	 19.7139 	 49.6284
| 28> H 	 6.55406 	 20.9548 	 47.4965
| 29> C 	 3.89873 	 20.0135 	 47.0624
| 30> H 	 4.25301 	 20.8224 	 46.4011
| 31> H 	 2.87972 	 20.2866 	 47.483
| 32> C 	 3.78393 	 18.6275 	 46.3117
| 33> H 	 4.85457 	 18.4092 	 45.9843
| 34> H 	 3.22428 	 18.6495 	 45.3388
| 35> C 	 3.09534 	 17.487 	 47.1023
| 36> H 	 2.88914 	 16.6543 	 46.5257
| 37> H 	 2.13358 	 17.7308 	 47.589
| 38> H 	 3.64906 	 17.2207 	 48.0103
| 39> H 	 -0.115201 	 18.5365 	 51.6172
| 40> H 	 7.77744 	 20.8001 	 49.5655
| 41> *
| 42>
| 43>                          ****END OF INPUT****

CARTESIAN COORDINATES (ANGSTROEM)
---------------------------------
  S      1.468210   19.821800   50.058600
  C      0.864491   18.598700   51.198200
  C      1.893750   17.694600   51.518600
  C      3.079450   17.984800   50.872700
  C      3.086450   19.127400   50.152800
  H      4.031280   17.504400   51.033500
  C      1.664260   16.434000   52.389500
  H      0.978428   16.734900   53.054800
  H      2.660740   16.172900   52.851000
  C      1.366370   15.228900   51.464700
  H      0.497808   15.389600   50.859100
  H      2.201300   15.073700   50.819900
  C      1.038280   14.023800   52.346500
  H      1.327560   13.037000   51.974100
  H      1.656890   14.037600   53.228800
  H      0.070260   14.044100   52.813600
  S      5.602710   19.989400   50.791500
  C      6.673130   20.572200   49.543900
  C      6.001670   20.582900   48.351300
  C      4.681890   20.048600   48.332800
  C      4.279770   19.713900   49.628400
  H      6.554060   20.954800   47.496500
  C      3.898730   20.013500   47.062400
  H      4.253010   20.822400   46.401100
  H      2.879720   20.286600   47.483000
  C      3.783930   18.627500   46.311700
  H      4.854570   18.409200   45.984300
  H      3.224280   18.649500   45.338800
  C      3.095340   17.487000   47.102300
  H      2.889140   16.654300   46.525700
  H      2.133580   17.730800   47.589000
  H      3.649060   17.220700   48.010300
  H     -0.115201   18.536500   51.617200
  H      7.777440   20.800100   49.565500

 Total Charge           Charge          ....    0
 Multiplicity           Mult            ....    1
 Number of Electrons    NEL             ....  134
 Basis Dimension        Dim             ....  322

ORBITAL ENERGIES
----------------

  NO   OCC          E(Eh)            E(eV)
   0   2.0000     -88.970515     -2421.0108
   1   2.0000     -88.966905     -2420.9126
   2   2.0000     -10.327118      -281.0152
   3   2.0000     -10.324222      -280.9364
   4   2.0000     -10.318466      -280.7797
   5   2.0000     -10.317407      -280.7509
   6   2.0000     -10.303328      -280.3678
   7   2.0000     -10.299419      -280.2614
   8   2.0000     -10.299249      -280.2568
   9   2.0000     -10.298882      -280.2468
  10   2.0000     -10.291948      -280.0582
  11   2.0000     -10.288262      -279.9578
  12   2.0000     -10.285303      -279.8773
  13   2.0000     -10.285134      -279.8727
  14   2.0000     -10.273205      -279.5481
  15   2.0000     -10.268521      -279.4207
  16   2.0000      -8.083974      -219.9761
  17   2.0000      -8.080924      -219.8931
  18   2.0000      -6.042561      -164.4264
  19   2.0000      -6.039577      -164.3452
  20   2.0000      -6.038627      -164.3194
  21   2.0000      -6.035429      -164.2324
  22   2.0000      -6.034765      -164.2143
  23   2.0000      -6.031652      -164.1296
  24   2.0000      -1.008736       -27.4491
  25   2.0000      -0.983946       -26.7745
  26   2.0000      -0.914429       -24.8829
  27   2.0000      -0.900617       -24.5070
  28   2.0000      -0.872612       -23.7450
  29   2.0000      -0.852383       -23.1945
  30   2.0000      -0.844457       -22.9788
  31   2.0000      -0.813997       -22.1500
  32   2.0000      -0.783884       -21.3306
  33   2.0000      -0.769317       -20.9342
  34   2.0000      -0.714366       -19.4389
  35   2.0000      -0.707308       -19.2468
  36   2.0000      -0.692153       -18.8344
  37   2.0000      -0.664465       -18.0810
  38   2.0000      -0.637882       -17.3576
  39   2.0000      -0.620504       -16.8848
  40   2.0000      -0.581891       -15.8341
  41   2.0000      -0.575141       -15.6504
  42   2.0000      -0.562859       -15.3162
  43   2.0000      -0.550614       -14.9830
  44   2.0000      -0.540618       -14.7110
  45   2.0000      -0.530300       -14.4302
  46   2.0000      -0.517185       -14.0733
  47   2.0000      -0.504887       -13.7387
  48   2.0000      -0.501533       -13.6474
  49   2.0000      -0.499392       -13.5892
  50   2.0000      -0.492635       -13.4053
  51   2.0000      -0.479916       -13.0592
  52   2.0000      -0.472444       -12.8559
  53   2.0000      -0.462284       -12.5794
  54   2.0000      -0.455780       -12.4024
  55   2.0000      -0.448457       -12.2031
  56   2.0000      -0.447418       -12.1749
  57   2.0000      -0.439829       -11.9684
  58   2.0000      -0.432399       -11.7662
  59   2.0000      -0.424779       -11.5588
  60   2.0000      -0.422725       -11.5029
  61   2.0000      -0.415039       -11.2938
  62   2.0000      -0.402776       -10.9601
  63   2.0000      -0.341350        -9.2886
  64   2.0000      -0.334758        -9.1092
  65   2.0000      -0.330322        -8.9885
  66   2.0000      -0.292629        -7.9629
  67   0.0000       0.026952         0.7334
  68   0.0000       0.064170         1.7462
  69   0.0000       0.107814         2.9338
  70   0.0000       0.111363         3.0304
  71   0.0000       0.124087         3.3766

MULLIKEN ATOMIC CHARGES
-----------------------
   0 S :    0.111793
   1 C :   -0.118487
   2 C :   -0.099492
   3 C :    0.016241
   4 C :   -0.154845
   5 H :    0.011555
   6 C :    0.094474
   7 H :   -0.000729
   8 H :    0.034709
   9 C :   -0.042768
  10 H :    0.028242
  11 H :    0.026400
  12 C :   -0.017703
  13 H :    0.030738
  14 H :   -0.001104
  15 H :    0.028653
  16 S :    0.112726
  17 C :   -0.109763
  18 C :   -0.056628
  19 C :   -0.003714
  20 C :   -0.179764
  21 H :    0.012245
  22 C :    0.051512
  23 H :    0.037440
  24 H :    0.028260
  25 C :   -0.078084
  26 H :    0.034021
  27 H :    0.040601
  28 C :   -0.031331
  29 H :    0.020748
  30 H :    0.026399
  31 H :    0.031006
  32 H :    0.039111
  33 H :    0.077540
Sum of atomic charges:    0.0000000

LOEWDIN ATOMIC CHARGES
----------------------
   0 S :    0.395932
   1 C :   -0.190068
   2 C :   -0.056717
   3 C :   -0.070488
   4 C :   -0.191272
   5 H :    0.029216
   6 C :   -0.011318
   7 H :    0.010060
   8 H :    0.038403
   9 C :   -0.028630
  10 H :    0.022432
  11 H :    0.024257
  12 C :   -0.071938
  13 H :    0.027440
  14 H :    0.020229
  15 H :    0.025540
  16 S :    0.404740
  17 C :   -0.204014
  18 C :   -0.077796
  19 C :   -0.057939
  20 C :   -0.187503
  21 H :    0.028294
  22 C :   -0.037723
  23 H :    0.036080
  24 H :    0.032859
  25 C :   -0.042090
  26 H :    0.028361
  27 H :    0.029656
  28 C :   -0.070655
  29 H :    0.015838
  30 H :    0.029330
  31 H :    0.026845
  32 H :    0.023721
  33 H :    0.048918

  Mayer bond orders larger than 0.100000
B(  0-S ,  1-C ) :   1.1331 B(  0-S ,  4-C ) :   1.1334 B(  1-C ,  2-C ) :   1.5899
B(  1-C ,  4-C ) :   0.1039 B(  1-C , 32-H ) :   0.9731 B(  2-C ,  3-C ) :   1.2565
B(  2-C ,  6-C ) :   1.0178 B(  3-C ,  4-C ) :   1.5716 B(  3-C ,  5-H ) :   0.9935
B(  4-C , 20-C ) :   1.0651 B(  6-C ,  7-H ) :   0.9417 B(  6-C ,  8-H ) :   0.9384
B(  6-C ,  9-C ) :   1.0657 B(  9-C , 10-H ) :   0.9603 B(  9-C , 11-H ) :   0.9560
B(  9-C , 12-C ) :   1.0772 B( 12-C , 13-H ) :   0.9729 B( 12-C , 14-H ) :   0.9655
B( 12-C , 15-H ) :   0.9749 B( 16-S , 17-C ) :   1.1424 B( 16-S , 20-C ) :   1.1381
B( 17-C , 18-C ) :   1.6282 B( 17-C , 33-H ) :   0.9557 B( 18-C , 19-C ) :   1.2452
B( 18-C , 21-H ) :   0.9836 B( 19-C , 20-C ) :   1.5609 B( 19-C , 22-C ) :   1.0235
B( 22-C , 23-H ) :   0.9407 B( 22-C , 24-H ) :   0.9342 B( 22-C , 25-C ) :   1.0574
B( 25-C , 26-H ) :   0.9547 B( 25-C , 27-H ) :   0.9603 B( 25-C , 28-C ) :   1.0739
B( 28-C , 29-H ) :   0.9741 B( 28-C , 30-H ) :   0.9689 B( 28-C , 31-H ) :   0.9703

Dispersion correction           -0.015619492
FINAL SINGLE POINT ENERGY     -1339.861117625621

DIPOLE MOMENT
-------------
                                X             Y             Z
Electronic contribution:      7.28840      21.62981       5.15401
Nuclear contribution   :     -7.24418     -22.05566      -5.25106
                        -----------------------------------------
Total Dipole Moment    :      0.04422      -0.42585      -0.09705
                        -----------------------------------------
Magnitude (a.u.)       :      0.43900
Magnitude (Debye)      :      1.11586

Rotational constants in cm-1:     0.020705     0.008313     0.007553
Rotational constants in MHz :   620.734643   249.213279   226.434409

                             ****ORCA TERMINATED NORMALLY****
TOTAL RUN TIME: 0 days 0 hours 0 minutes 38 seconds 208 msec
