                         Program Version 4.2.1 -  RELEASE  -
|  1> ! wB97X-D3 SP def2-SVP
|  2> %pal
|  3> nprocs 16
|  4> end
|  5>
|  6> * xyz 0 1
|  7> S 	 10.9751 	 -11.2149 	 88.2564
|  8> C 	 11.9842 	 -12.4135 	 87.5404
|  9> C 	 11.677 	 -13.66 	 88.0689
| 10> C 	 10.6921 	 -13.6208 	 89.1449
| 11> C 	 10.2934 	 -12.3172 	 89.4551
| 12> H 	 10.1007 	 -14.4156 	 89.6231
| 13> C 	 12.3205 	 -14.9132 	 87.6377
| 14> H 	 12.6232 	 -14.7756 	 86.5741
| 15> H 	 11.6035 	 -15.7291 	 87.796
| 16> C 	 13.6623 	 -15.1247 	 88.36
| 17> H 	 14.1913 	 -16.0977 	 88.1629
| 18> H 	 14.3787 	 -14.3963 	 87.8698
| 19> C 	 13.5983 	 -14.9828 	 89.909
| 20> H 	 12.9233 	 -15.7078 	 90.4419
| 21> H 	 14.6597 	 -15.1239 	 90.2013
| 22> H 	 13.2548 	 -13.9761 	 90.1621
| 23> S 	 7.64918 	 -11.3356 	 89.6417
| 24> C 	 6.82236 	 -11.5227 	 91.2011
| 25> C 	 7.6575 	 -12.131 	 92.1281
| 26> C 	 8.95819 	 -12.4054 	 91.6166
| 27> C 	 9.17928 	 -12.0125 	 90.3065
| 28> H 	 7.3844 	 -12.3582 	 93.1308
| 29> C 	 9.99329 	 -12.9965 	 92.4588
| 30> H 	 10.1473 	 -14.0308 	 92.133
| 31> H 	 9.68279 	 -12.9563 	 93.5017
| 32> C 	 11.287 	 -12.1031 	 92.4294
| 33> H 	 11.1619 	 -10.9894 	 92.433
| 34> H 	 11.9327 	 -12.2566 	 91.6032
| 35> C 	 12.1345 	 -12.3465 	 93.7557
| 36> H 	 11.8642 	 -13.2484 	 94.2696
| 37> H 	 11.9138 	 -11.4926 	 94.3813
| 38> H 	 13.1472 	 -12.2585 	 93.6221
| 39> H 	 12.661 	 -12.3213 	 86.7545
| 40> H 	 5.84099 	 -11.1433 	 91.4418
| 41> *
| 42>
| 43>                          ****END OF INPUT****

CARTESIAN COORDINATES (ANGSTROEM)
---------------------------------
  S     10.975100  -11.214900   88.256400
  C     11.984200  -12.413500   87.540400
  C     11.677000  -13.660000   88.068900
  C     10.692100  -13.620800   89.144900
  C     10.293400  -12.317200   89.455100
  H     10.100700  -14.415600   89.623100
  C     12.320500  -14.913200   87.637700
  H     12.623200  -14.775600   86.574100
  H     11.603500  -15.729100   87.796000
  C     13.662300  -15.124700   88.360000
  H     14.191300  -16.097700   88.162900
  H     14.378700  -14.396300   87.869800
  C     13.598300  -14.982800   89.909000
  H     12.923300  -15.707800   90.441900
  H     14.659700  -15.123900   90.201300
  H     13.254800  -13.976100   90.162100
  S      7.649180  -11.335600   89.641700
  C      6.822360  -11.522700   91.201100
  C      7.657500  -12.131000   92.128100
  C      8.958190  -12.405400   91.616600
  C      9.179280  -12.012500   90.306500
  H      7.384400  -12.358200   93.130800
  C      9.993290  -12.996500   92.458800
  H     10.147300  -14.030800   92.133000
  H      9.682790  -12.956300   93.501700
  C     11.287000  -12.103100   92.429400
  H     11.161900  -10.989400   92.433000
  H     11.932700  -12.256600   91.603200
  C     12.134500  -12.346500   93.755700
  H     11.864200  -13.248400   94.269600
  H     11.913800  -11.492600   94.381300
  H     13.147200  -12.258500   93.622100
  H     12.661000  -12.321300   86.754500
  H      5.840990  -11.143300   91.441800

 Total Charge           Charge          ....    0
 Multiplicity           Mult            ....    1
 Number of Electrons    NEL             ....  134
 Basis Dimension        Dim             ....  322

ORBITAL ENERGIES
----------------

  NO   OCC          E(Eh)            E(eV)
   0   2.0000     -88.968316     -2420.9510
   1   2.0000     -88.965086     -2420.8631
   2   2.0000     -10.331056      -281.1223
   3   2.0000     -10.325047      -280.9588
   4   2.0000     -10.321507      -280.8625
   5   2.0000     -10.312158      -280.6081
   6   2.0000     -10.302891      -280.3559
   7   2.0000     -10.301092      -280.3070
   8   2.0000     -10.296314      -280.1769
   9   2.0000     -10.295263      -280.1484
  10   2.0000     -10.292381      -280.0699
  11   2.0000     -10.291990      -280.0593
  12   2.0000     -10.291569      -280.0478
  13   2.0000     -10.284084      -279.8442
  14   2.0000     -10.281780      -279.7815
  15   2.0000     -10.264164      -279.3021
  16   2.0000      -8.082872      -219.9461
  17   2.0000      -8.078550      -219.8285
  18   2.0000      -6.041382      -164.3944
  19   2.0000      -6.037324      -164.2839
  20   2.0000      -6.037262      -164.2822
  21   2.0000      -6.033707      -164.1855
  22   2.0000      -6.033212      -164.1720
  23   2.0000      -6.029186      -164.0625
  24   2.0000      -1.005356       -27.3571
  25   2.0000      -0.981939       -26.7199
  26   2.0000      -0.913830       -24.8666
  27   2.0000      -0.905236       -24.6327
  28   2.0000      -0.871527       -23.7155
  29   2.0000      -0.846836       -23.0436
  30   2.0000      -0.839801       -22.8522
  31   2.0000      -0.815341       -22.1865
  32   2.0000      -0.780370       -21.2350
  33   2.0000      -0.768034       -20.8993
  34   2.0000      -0.714605       -19.4454
  35   2.0000      -0.698551       -19.0085
  36   2.0000      -0.690958       -18.8019
  37   2.0000      -0.665581       -18.1114
  38   2.0000      -0.644165       -17.5286
  39   2.0000      -0.606650       -16.5078
  40   2.0000      -0.592804       -16.1310
  41   2.0000      -0.570775       -15.5316
  42   2.0000      -0.566251       -15.4085
  43   2.0000      -0.548792       -14.9334
  44   2.0000      -0.547749       -14.9050
  45   2.0000      -0.526295       -14.3212
  46   2.0000      -0.515218       -14.0198
  47   2.0000      -0.512545       -13.9471
  48   2.0000      -0.509212       -13.8563
  49   2.0000      -0.502082       -13.6623
  50   2.0000      -0.487463       -13.2646
  51   2.0000      -0.482938       -13.1414
  52   2.0000      -0.476532       -12.9671
  53   2.0000      -0.464142       -12.6299
  54   2.0000      -0.455605       -12.3976
  55   2.0000      -0.441635       -12.0175
  56   2.0000      -0.441096       -12.0028
  57   2.0000      -0.434073       -11.8117
  58   2.0000      -0.430507       -11.7147
  59   2.0000      -0.423144       -11.5143
  60   2.0000      -0.416792       -11.3415
  61   2.0000      -0.410921       -11.1817
  62   2.0000      -0.406560       -11.0631
  63   2.0000      -0.347221        -9.4484
  64   2.0000      -0.328601        -8.9417
  65   2.0000      -0.323738        -8.8094
  66   2.0000      -0.292794        -7.9673
  67   0.0000       0.023565         0.6412
  68   0.0000       0.064623         1.7585
  69   0.0000       0.109312         2.9745
  70   0.0000       0.119338         3.2473
  71   0.0000       0.129504         3.5240

MULLIKEN ATOMIC CHARGES
-----------------------
   0 S :    0.114330
   1 C :   -0.069182
   2 C :   -0.134282
   3 C :    0.023367
   4 C :   -0.184741
   5 H :    0.036352
   6 C :    0.090656
   7 H :    0.028938
   8 H :    0.033525
   9 C :   -0.116923
  10 H :    0.036127
  11 H :    0.027725
  12 C :   -0.072759
  13 H :    0.041510
  14 H :    0.039704
  15 H :    0.056686
  16 S :    0.098732
  17 C :   -0.088558
  18 C :   -0.008685
  19 C :   -0.082604
  20 C :   -0.124004
  21 H :    0.005812
  22 C :    0.098923
  23 H :    0.043422
  24 H :    0.017661
  25 C :   -0.114118
  26 H :    0.042348
  27 H :    0.040727
  28 C :   -0.025219
  29 H :    0.030961
  30 H :    0.022249
  31 H :    0.010212
  32 H :    0.022447
  33 H :    0.058662
Sum of atomic charges:    0.0000000

LOEWDIN ATOMIC CHARGES
----------------------
   0 S :    0.415752
   1 C :   -0.196451
   2 C :   -0.062881
   3 C :   -0.057056
   4 C :   -0.194556
   5 H :    0.038377
   6 C :   -0.039967
   7 H :    0.036002
   8 H :    0.031919
   9 C :   -0.048417
  10 H :    0.025529
  11 H :    0.026458
  12 C :   -0.073106
  13 H :    0.029029
  14 H :    0.031219
  15 H :    0.024146
  16 S :    0.376952
  17 C :   -0.171154
  18 C :   -0.068352
  19 C :   -0.059323
  20 C :   -0.191664
  21 H :    0.026512
  22 C :   -0.029256
  23 H :    0.037552
  24 H :    0.030675
  25 C :   -0.032875
  26 H :    0.033617
  27 H :    0.014975
  28 C :   -0.062228
  29 H :    0.019971
  30 H :    0.025939
  31 H :    0.012992
  32 H :    0.019534
  33 H :    0.030136

  Mayer bond orders larger than 0.100000
B(  0-S ,  1-C ) :   1.1401 B(  0-S ,  4-C ) :   1.1452 B(  1-C ,  2-C ) :   1.5937
B(  1-C , 32-H ) :   0.9760 B(  2-C ,  3-C ) :   1.2285 B(  2-C ,  6-C ) :   1.0421
B(  3-C ,  4-C ) :   1.5611 B(  3-C ,  5-H ) :   0.9841 B(  4-C , 20-C ) :   1.0728
B(  6-C ,  7-H ) :   0.9390 B(  6-C ,  8-H ) :   0.9398 B(  6-C ,  9-C ) :   1.0579
B(  9-C , 10-H ) :   0.9601 B(  9-C , 11-H ) :   0.9557 B(  9-C , 12-C ) :   1.0723
B( 12-C , 13-H ) :   0.9743 B( 12-C , 14-H ) :   0.9716 B( 12-C , 15-H ) :   0.9671
B( 16-S , 17-C ) :   1.1576 B( 16-S , 20-C ) :   1.1091 B( 17-C , 18-C ) :   1.5867
B( 17-C , 33-H ) :   0.9668 B( 18-C , 19-C ) :   1.2656 B( 18-C , 21-H ) :   0.9928
B( 19-C , 20-C ) :   1.5840 B( 19-C , 22-C ) :   1.0593 B( 22-C , 23-H ) :   0.9118
B( 22-C , 24-H ) :   0.9403 B( 22-C , 25-C ) :   1.0498 B( 25-C , 26-H ) :   0.9689
B( 25-C , 27-H ) :   0.9571 B( 25-C , 28-C ) :   1.0712 B( 28-C , 29-H ) :   0.9792
B( 28-C , 30-H ) :   0.9804 B( 28-C , 31-H ) :   0.9747

Dispersion correction           -0.016059007
FINAL SINGLE POINT ENERGY     -1339.864386621792

DIPOLE MOMENT
-------------
                                X             Y             Z
Electronic contribution:    -20.12412      14.67666     -13.36685
Nuclear contribution   :     20.37514     -15.16367      13.62597
                        -----------------------------------------
Total Dipole Moment    :      0.25102      -0.48701       0.25912
                        -----------------------------------------
Magnitude (a.u.)       :      0.60608
Magnitude (Debye)      :      1.54054

Rotational constants in cm-1:     0.018808     0.010183     0.007757
Rotational constants in MHz :   563.837558   305.275834   232.535943

                             ****ORCA TERMINATED NORMALLY****
TOTAL RUN TIME: 0 days 0 hours 0 minutes 35 seconds 415 msec
