                         Program Version 4.2.1 -  RELEASE  -
|  1> ! wB97X-D3 SP def2-SVP
|  2> %pal
|  3> nprocs 16
|  4> end
|  5>
|  6> * xyz 0 1
|  7> S 	 41.3857 	 12.7242 	 89.0429
|  8> C 	 42.4337 	 13.9269 	 88.3539
|  9> C 	 42.4846 	 13.7802 	 86.934
| 10> C 	 41.4594 	 12.9168 	 86.5082
| 11> C 	 40.6887 	 12.2614 	 87.4652
| 12> H 	 41.3024 	 12.5979 	 85.5226
| 13> C 	 43.4893 	 14.4201 	 85.9899
| 14> H 	 43.9446 	 13.6088 	 85.368
| 15> H 	 44.2444 	 14.8945 	 86.6719
| 16> C 	 42.9308 	 15.4898 	 85.0386
| 17> H 	 43.6219 	 15.6329 	 84.1682
| 18> H 	 41.9177 	 15.2619 	 84.7331
| 19> C 	 42.7832 	 16.9709 	 85.5956
| 20> H 	 42.2503 	 17.1058 	 86.5092
| 21> H 	 43.7647 	 17.3862 	 85.7292
| 22> H 	 42.2109 	 17.6463 	 84.8696
| 23> S 	 38.3226 	 12.0256 	 86.1332
| 24> C 	 37.7625 	 10.3999 	 85.8352
| 25> C 	 38.2782 	 9.4624 	 86.6743
| 26> C 	 39.448 	 9.97079 	 87.3536
| 27> C 	 39.6386 	 11.3548 	 87.1401
| 28> H 	 38.0178 	 8.46871 	 86.7885
| 29> C 	 40.3069 	 9.02372 	 88.1414
| 30> H 	 41.1707 	 9.66057 	 88.3774
| 31> H 	 40.7634 	 8.28429 	 87.5417
| 32> C 	 39.5435 	 8.32865 	 89.2651
| 33> H 	 38.7512 	 7.58066 	 88.8564
| 34> H 	 38.928 	 8.99795 	 89.9385
| 35> C 	 40.597 	 7.71137 	 90.0608
| 36> H 	 41.3551 	 8.46916 	 90.4566
| 37> H 	 41.143 	 6.95535 	 89.5427
| 38> H 	 40.2915 	 7.1068 	 90.9212
| 39> H 	 43.2302 	 14.4376 	 88.8742
| 40> H 	 36.9408 	 10.2218 	 85.1282
| 41> *
| 42>
| 43>                          ****END OF INPUT****

CARTESIAN COORDINATES (ANGSTROEM)
---------------------------------
  S     41.385700   12.724200   89.042900
  C     42.433700   13.926900   88.353900
  C     42.484600   13.780200   86.934000
  C     41.459400   12.916800   86.508200
  C     40.688700   12.261400   87.465200
  H     41.302400   12.597900   85.522600
  C     43.489300   14.420100   85.989900
  H     43.944600   13.608800   85.368000
  H     44.244400   14.894500   86.671900
  C     42.930800   15.489800   85.038600
  H     43.621900   15.632900   84.168200
  H     41.917700   15.261900   84.733100
  C     42.783200   16.970900   85.595600
  H     42.250300   17.105800   86.509200
  H     43.764700   17.386200   85.729200
  H     42.210900   17.646300   84.869600
  S     38.322600   12.025600   86.133200
  C     37.762500   10.399900   85.835200
  C     38.278200    9.462400   86.674300
  C     39.448000    9.970790   87.353600
  C     39.638600   11.354800   87.140100
  H     38.017800    8.468710   86.788500
  C     40.306900    9.023720   88.141400
  H     41.170700    9.660570   88.377400
  H     40.763400    8.284290   87.541700
  C     39.543500    8.328650   89.265100
  H     38.751200    7.580660   88.856400
  H     38.928000    8.997950   89.938500
  C     40.597000    7.711370   90.060800
  H     41.355100    8.469160   90.456600
  H     41.143000    6.955350   89.542700
  H     40.291500    7.106800   90.921200
  H     43.230200   14.437600   88.874200
  H     36.940800   10.221800   85.128200

 Total Charge           Charge          ....    0
 Multiplicity           Mult            ....    1
 Number of Electrons    NEL             ....  134
 Basis Dimension        Dim             ....  322

ORBITAL ENERGIES
----------------

  NO   OCC          E(Eh)            E(eV)
   0   2.0000     -88.968498     -2420.9559
   1   2.0000     -88.964921     -2420.8586
   2   2.0000     -10.328509      -281.0530
   3   2.0000     -10.326987      -281.0116
   4   2.0000     -10.318336      -280.7762
   5   2.0000     -10.318311      -280.7755
   6   2.0000     -10.303678      -280.3773
   7   2.0000     -10.303396      -280.3697
   8   2.0000     -10.302704      -280.3508
   9   2.0000     -10.297392      -280.2063
  10   2.0000     -10.292642      -280.0770
  11   2.0000     -10.287853      -279.9467
  12   2.0000     -10.287763      -279.9443
  13   2.0000     -10.286084      -279.8986
  14   2.0000     -10.278289      -279.6865
  15   2.0000     -10.275228      -279.6032
  16   2.0000      -8.082188      -219.9275
  17   2.0000      -8.079366      -219.8507
  18   2.0000      -6.040713      -164.3762
  19   2.0000      -6.037869      -164.2988
  20   2.0000      -6.036738      -164.2680
  21   2.0000      -6.034122      -164.1968
  22   2.0000      -6.033094      -164.1688
  23   2.0000      -6.029934      -164.0828
  24   2.0000      -1.002268       -27.2731
  25   2.0000      -0.980645       -26.6847
  26   2.0000      -0.921734       -25.0817
  27   2.0000      -0.904412       -24.6103
  28   2.0000      -0.871653       -23.7189
  29   2.0000      -0.854761       -23.2592
  30   2.0000      -0.842637       -22.9293
  31   2.0000      -0.811102       -22.0712
  32   2.0000      -0.781490       -21.2654
  33   2.0000      -0.766642       -20.8614
  34   2.0000      -0.706622       -19.2282
  35   2.0000      -0.701112       -19.0782
  36   2.0000      -0.691388       -18.8136
  37   2.0000      -0.666469       -18.1355
  38   2.0000      -0.638327       -17.3698
  39   2.0000      -0.616609       -16.7788
  40   2.0000      -0.604368       -16.4457
  41   2.0000      -0.569030       -15.4841
  42   2.0000      -0.566010       -15.4019
  43   2.0000      -0.541789       -14.7428
  44   2.0000      -0.538422       -14.6512
  45   2.0000      -0.532205       -14.4820
  46   2.0000      -0.524346       -14.2682
  47   2.0000      -0.514690       -14.0054
  48   2.0000      -0.506542       -13.7837
  49   2.0000      -0.494173       -13.4471
  50   2.0000      -0.478056       -13.0086
  51   2.0000      -0.475814       -12.9476
  52   2.0000      -0.470808       -12.8113
  53   2.0000      -0.466004       -12.6806
  54   2.0000      -0.459476       -12.5030
  55   2.0000      -0.449349       -12.2274
  56   2.0000      -0.439673       -11.9641
  57   2.0000      -0.438575       -11.9342
  58   2.0000      -0.433385       -11.7930
  59   2.0000      -0.421206       -11.4616
  60   2.0000      -0.417292       -11.3551
  61   2.0000      -0.413550       -11.2533
  62   2.0000      -0.411338       -11.1931
  63   2.0000      -0.340299        -9.2600
  64   2.0000      -0.331892        -9.0312
  65   2.0000      -0.325022        -8.8443
  66   2.0000      -0.290175        -7.8961
  67   0.0000       0.025334         0.6894
  68   0.0000       0.065549         1.7837
  69   0.0000       0.099902         2.7185
  70   0.0000       0.103651         2.8205
  71   0.0000       0.134130         3.6499

MULLIKEN ATOMIC CHARGES
-----------------------
   0 S :    0.116137
   1 C :   -0.108807
   2 C :   -0.112648
   3 C :    0.035660
   4 C :   -0.159100
   5 H :   -0.005777
   6 C :    0.071907
   7 H :    0.051553
   8 H :    0.023028
   9 C :   -0.077463
  10 H :    0.041491
  11 H :    0.037768
  12 C :   -0.085481
  13 H :    0.031394
  14 H :    0.025225
  15 H :    0.041343
  16 S :    0.110019
  17 C :   -0.092082
  18 C :    0.025439
  19 C :   -0.040869
  20 C :   -0.180284
  21 H :   -0.013663
  22 C :    0.072901
  23 H :    0.017396
  24 H :    0.020090
  25 C :   -0.100914
  26 H :    0.048071
  27 H :    0.047686
  28 C :   -0.033535
  29 H :    0.044927
  30 H :    0.010927
  31 H :    0.021741
  32 H :    0.052860
  33 H :    0.063060
Sum of atomic charges:    0.0000000

LOEWDIN ATOMIC CHARGES
----------------------
   0 S :    0.403321
   1 C :   -0.205323
   2 C :   -0.064917
   3 C :   -0.056385
   4 C :   -0.200227
   5 H :    0.019505
   6 C :   -0.035094
   7 H :    0.042847
   8 H :    0.033731
   9 C :   -0.041480
  10 H :    0.031221
  11 H :    0.023870
  12 C :   -0.071626
  13 H :    0.018168
  14 H :    0.017017
  15 H :    0.035146
  16 S :    0.395699
  17 C :   -0.174897
  18 C :   -0.061973
  19 C :   -0.041549
  20 C :   -0.195430
  21 H :    0.018014
  22 C :   -0.033016
  23 H :    0.031261
  24 H :    0.029453
  25 C :   -0.047655
  26 H :    0.034685
  27 H :    0.033672
  28 C :   -0.073963
  29 H :    0.037648
  30 H :    0.019247
  31 H :    0.022387
  32 H :    0.027321
  33 H :    0.029320

  Mayer bond orders larger than 0.100000
B(  0-S ,  1-C ) :   1.1692 B(  0-S ,  4-C ) :   1.1211 B(  1-C ,  2-C ) :   1.5546
B(  1-C ,  4-C ) :   0.1064 B(  1-C , 32-H ) :   0.9608 B(  2-C ,  3-C ) :   1.2805
B(  2-C ,  6-C ) :   1.0321 B(  3-C ,  4-C ) :   1.5371 B(  3-C ,  5-H ) :   0.9970
B(  4-C , 20-C ) :   1.0849 B(  6-C ,  7-H ) :   0.9391 B(  6-C ,  8-H ) :   0.9405
B(  6-C ,  9-C ) :   1.0548 B(  9-C , 10-H ) :   0.9588 B(  9-C , 11-H ) :   0.9640
B(  9-C , 12-C ) :   1.0675 B( 12-C , 13-H ) :   0.9793 B( 12-C , 14-H ) :   0.9784
B( 12-C , 15-H ) :   0.9766 B( 16-S , 17-C ) :   1.1552 B( 16-S , 20-C ) :   1.1187
B( 17-C , 18-C ) :   1.6078 B( 17-C , 33-H ) :   0.9632 B( 18-C , 19-C ) :   1.2243
B( 18-C , 21-H ) :   1.0002 B( 19-C , 20-C ) :   1.5949 B( 19-C , 22-C ) :   1.0441
B( 22-C , 23-H ) :   0.9382 B( 22-C , 24-H ) :   0.9261 B( 22-C , 25-C ) :   1.0403
B( 25-C , 26-H ) :   0.9444 B( 25-C , 27-H ) :   0.9565 B( 25-C , 28-C ) :   1.0976
B( 28-C , 29-H ) :   0.9709 B( 28-C , 30-H ) :   0.9635 B( 28-C , 31-H ) :   0.9671

Dispersion correction           -0.013813419
FINAL SINGLE POINT ENERGY     -1339.854263393638

DIPOLE MOMENT
-------------
                                X             Y             Z
Electronic contribution:    -11.51244       1.08405       0.74440
Nuclear contribution   :     11.83482      -1.50191      -0.99043
                        -----------------------------------------
Total Dipole Moment    :      0.32238      -0.41786      -0.24603
                        -----------------------------------------
Magnitude (a.u.)       :      0.58229
Magnitude (Debye)      :      1.48006

Rotational constants in cm-1:     0.022316     0.007577     0.006160
Rotational constants in MHz :   669.006080   227.167134   184.677802

                             ****ORCA TERMINATED NORMALLY****
TOTAL RUN TIME: 0 days 0 hours 0 minutes 30 seconds 327 msec
