                         Program Version 4.2.1 -  RELEASE  -
|  1> ! wB97X-D3 SP def2-SVP
|  2> %pal
|  3> nprocs 16
|  4> end
|  5>
|  6> * xyz 0 1
|  7> S 	 -18.9359 	 -9.11589 	 82.3847
|  8> C 	 -17.8958 	 -9.67636 	 81.095
|  9> C 	 -16.8507 	 -8.83905 	 80.9553
| 10> C 	 -16.8973 	 -7.74577 	 81.8729
| 11> C 	 -17.8639 	 -7.8521 	 82.8768
| 12> H 	 -16.0585 	 -7.05142 	 81.9088
| 13> C 	 -15.6996 	 -9.01508 	 79.9384
| 14> H 	 -15.5403 	 -10.081 	 79.875
| 15> H 	 -14.7291 	 -8.65126 	 80.2889
| 16> C 	 -16.0108 	 -8.49374 	 78.5334
| 17> H 	 -17.0608 	 -8.80289 	 78.323
| 18> H 	 -16.0196 	 -7.39994 	 78.6398
| 19> C 	 -15.0271 	 -8.9542 	 77.479
| 20> H 	 -14.0534 	 -8.55645 	 77.6154
| 21> H 	 -14.8577 	 -10.045 	 77.426
| 22> H 	 -15.3345 	 -8.5905 	 76.5698
| 23> S 	 -17.5528 	 -7.80482 	 85.6416
| 24> C 	 -17.6631 	 -6.23812 	 86.4382
| 25> C 	 -18.5015 	 -5.37541 	 85.7385
| 26> C 	 -18.724 	 -5.80479 	 84.3968
| 27> C 	 -18.1375 	 -7.04215 	 84.1001
| 28> H 	 -18.9046 	 -4.46583 	 86.1601
| 29> C 	 -19.461 	 -5.08911 	 83.3048
| 30> H 	 -20.2235 	 -4.44403 	 83.7232
| 31> H 	 -19.9976 	 -5.84969 	 82.8092
| 32> C 	 -18.5292 	 -4.25467 	 82.3021
| 33> H 	 -17.9916 	 -5.1194 	 81.8391
| 34> H 	 -18.0056 	 -3.56896 	 83.0486
| 35> C 	 -19.1645 	 -3.27933 	 81.253
| 36> H 	 -18.4152 	 -2.60294 	 80.9093
| 37> H 	 -19.9745 	 -2.75208 	 81.7534
| 38> H 	 -19.5216 	 -3.81689 	 80.4427
| 39> H 	 -18.0894 	 -10.6154 	 80.5035
| 40> H 	 -17.3308 	 -6.12147 	 87.4541
| 41> *
| 42>
| 43>                          ****END OF INPUT****

CARTESIAN COORDINATES (ANGSTROEM)
---------------------------------
  S    -18.935900   -9.115890   82.384700
  C    -17.895800   -9.676360   81.095000
  C    -16.850700   -8.839050   80.955300
  C    -16.897300   -7.745770   81.872900
  C    -17.863900   -7.852100   82.876800
  H    -16.058500   -7.051420   81.908800
  C    -15.699600   -9.015080   79.938400
  H    -15.540300  -10.081000   79.875000
  H    -14.729100   -8.651260   80.288900
  C    -16.010800   -8.493740   78.533400
  H    -17.060800   -8.802890   78.323000
  H    -16.019600   -7.399940   78.639800
  C    -15.027100   -8.954200   77.479000
  H    -14.053400   -8.556450   77.615400
  H    -14.857700  -10.045000   77.426000
  H    -15.334500   -8.590500   76.569800
  S    -17.552800   -7.804820   85.641600
  C    -17.663100   -6.238120   86.438200
  C    -18.501500   -5.375410   85.738500
  C    -18.724000   -5.804790   84.396800
  C    -18.137500   -7.042150   84.100100
  H    -18.904600   -4.465830   86.160100
  C    -19.461000   -5.089110   83.304800
  H    -20.223500   -4.444030   83.723200
  H    -19.997600   -5.849690   82.809200
  C    -18.529200   -4.254670   82.302100
  H    -17.991600   -5.119400   81.839100
  H    -18.005600   -3.568960   83.048600
  C    -19.164500   -3.279330   81.253000
  H    -18.415200   -2.602940   80.909300
  H    -19.974500   -2.752080   81.753400
  H    -19.521600   -3.816890   80.442700
  H    -18.089400  -10.615400   80.503500
  H    -17.330800   -6.121470   87.454100

 Total Charge           Charge          ....    0
 Multiplicity           Mult            ....    1
 Number of Electrons    NEL             ....  134
 Basis Dimension        Dim             ....  322

ORBITAL ENERGIES
----------------

  NO   OCC          E(Eh)            E(eV)
   0   2.0000     -88.963089     -2420.8087
   1   2.0000     -88.962406     -2420.7901
   2   2.0000     -10.335396      -281.2404
   3   2.0000     -10.332641      -281.1655
   4   2.0000     -10.322449      -280.8881
   5   2.0000     -10.315534      -280.6999
   6   2.0000     -10.308042      -280.4961
   7   2.0000     -10.299226      -280.2562
   8   2.0000     -10.298871      -280.2465
   9   2.0000     -10.296335      -280.1775
  10   2.0000     -10.295677      -280.1596
  11   2.0000     -10.290748      -280.0255
  12   2.0000     -10.288289      -279.9586
  13   2.0000     -10.285051      -279.8705
  14   2.0000     -10.272297      -279.5234
  15   2.0000     -10.271162      -279.4925
  16   2.0000      -8.078380      -219.8239
  17   2.0000      -8.076437      -219.7710
  18   2.0000      -6.036893      -164.2722
  19   2.0000      -6.034894      -164.2178
  20   2.0000      -6.032664      -164.1571
  21   2.0000      -6.031316      -164.1204
  22   2.0000      -6.029223      -164.0635
  23   2.0000      -6.027000      -164.0030
  24   2.0000      -1.005281       -27.3551
  25   2.0000      -0.982785       -26.7430
  26   2.0000      -0.912237       -24.8232
  27   2.0000      -0.898641       -24.4533
  28   2.0000      -0.867802       -23.6141
  29   2.0000      -0.847412       -23.0592
  30   2.0000      -0.843872       -22.9629
  31   2.0000      -0.814499       -22.1636
  32   2.0000      -0.786826       -21.4106
  33   2.0000      -0.773384       -21.0448
  34   2.0000      -0.703258       -19.1366
  35   2.0000      -0.698674       -19.0119
  36   2.0000      -0.687491       -18.7076
  37   2.0000      -0.663147       -18.0451
  38   2.0000      -0.639144       -17.3920
  39   2.0000      -0.619360       -16.8536
  40   2.0000      -0.591374       -16.0921
  41   2.0000      -0.573568       -15.6076
  42   2.0000      -0.568894       -15.4804
  43   2.0000      -0.555783       -15.1236
  44   2.0000      -0.528542       -14.3824
  45   2.0000      -0.524185       -14.2638
  46   2.0000      -0.518565       -14.1109
  47   2.0000      -0.512233       -13.9386
  48   2.0000      -0.505716       -13.7612
  49   2.0000      -0.500013       -13.6061
  50   2.0000      -0.493163       -13.4197
  51   2.0000      -0.477941       -13.0054
  52   2.0000      -0.470451       -12.8016
  53   2.0000      -0.466356       -12.6902
  54   2.0000      -0.462584       -12.5875
  55   2.0000      -0.449217       -12.2238
  56   2.0000      -0.443688       -12.0734
  57   2.0000      -0.436999       -11.8913
  58   2.0000      -0.427802       -11.6411
  59   2.0000      -0.424528       -11.5520
  60   2.0000      -0.419116       -11.4047
  61   2.0000      -0.416097       -11.3226
  62   2.0000      -0.402650       -10.9567
  63   2.0000      -0.333588        -9.0774
  64   2.0000      -0.329438        -8.9645
  65   2.0000      -0.321575        -8.7505
  66   2.0000      -0.306634        -8.3439
  67   0.0000       0.035167         0.9569
  68   0.0000       0.046386         1.2622
  69   0.0000       0.102016         2.7760
  70   0.0000       0.125196         3.4067
  71   0.0000       0.128100         3.4858

MULLIKEN ATOMIC CHARGES
-----------------------
   0 S :    0.106692
   1 C :   -0.145197
   2 C :   -0.103372
   3 C :    0.068572
   4 C :   -0.166980
   5 H :    0.017497
   6 C :    0.059648
   7 H :    0.010847
   8 H :    0.020502
   9 C :   -0.084280
  10 H :    0.029951
  11 H :    0.028234
  12 C :    0.017777
  13 H :    0.014201
  14 H :    0.030397
  15 H :    0.014596
  16 S :    0.093846
  17 C :   -0.086416
  18 C :   -0.026845
  19 C :   -0.019017
  20 C :   -0.189693
  21 H :    0.019100
  22 C :    0.093188
  23 H :    0.004868
  24 H :    0.014963
  25 C :   -0.138584
  26 H :    0.049207
  27 H :    0.040460
  28 C :    0.012571
  29 H :    0.036132
  30 H :    0.027158
  31 H :    0.020133
  32 H :    0.070113
  33 H :    0.059732
Sum of atomic charges:   -0.0000000

LOEWDIN ATOMIC CHARGES
----------------------
   0 S :    0.414270
   1 C :   -0.202385
   2 C :   -0.070635
   3 C :   -0.064194
   4 C :   -0.207426
   5 H :    0.030462
   6 C :   -0.030421
   7 H :    0.025219
   8 H :    0.026802
   9 C :   -0.040179
  10 H :    0.026442
  11 H :    0.026034
  12 C :   -0.057635
  13 H :    0.022546
  14 H :    0.029585
  15 H :    0.017695
  16 S :    0.376295
  17 C :   -0.165326
  18 C :   -0.070878
  19 C :   -0.044951
  20 C :   -0.184887
  21 H :    0.032410
  22 C :   -0.034131
  23 H :    0.022462
  24 H :    0.021467
  25 C :   -0.041840
  26 H :    0.030473
  27 H :    0.031399
  28 C :   -0.055943
  29 H :    0.027121
  30 H :    0.026615
  31 H :    0.015908
  32 H :    0.042538
  33 H :    0.025088

  Mayer bond orders larger than 0.100000
B(  0-S ,  1-C ) :   1.1392 B(  0-S ,  4-C ) :   1.1732 B(  1-C ,  2-C ) :   1.6123
B(  1-C ,  4-C ) :   0.1003 B(  1-C , 32-H ) :   0.9618 B(  2-C ,  3-C ) :   1.2694
B(  2-C ,  6-C ) :   1.0134 B(  3-C ,  4-C ) :   1.5558 B(  3-C ,  5-H ) :   0.9887
B(  4-C , 20-C ) :   0.9994 B(  6-C ,  7-H ) :   0.9417 B(  6-C ,  8-H ) :   0.9443
B(  6-C ,  9-C ) :   1.0594 B(  9-C , 10-H ) :   0.9578 B(  9-C , 11-H ) :   0.9529
B(  9-C , 12-C ) :   1.0848 B( 12-C , 13-H ) :   0.9684 B( 12-C , 14-H ) :   0.9737
B( 12-C , 15-H ) :   0.9696 B( 16-S , 17-C ) :   1.1676 B( 16-S , 20-C ) :   1.1270
B( 17-C , 18-C ) :   1.5841 B( 17-C , 20-C ) :   0.1098 B( 17-C , 33-H ) :   0.9707
B( 18-C , 19-C ) :   1.2325 B( 18-C , 21-H ) :   0.9951 B( 19-C , 20-C ) :   1.6025
B( 19-C , 22-C ) :   1.0488 B( 22-C , 23-H ) :   0.9290 B( 22-C , 24-H ) :   0.9300
B( 22-C , 25-C ) :   1.0401 B( 25-C , 26-H ) :   0.9552 B( 25-C , 27-H ) :   0.9619
B( 25-C , 28-C ) :   1.0748 B( 28-C , 29-H ) :   0.9756 B( 28-C , 30-H ) :   0.9739
B( 28-C , 31-H ) :   0.9758

Dispersion correction           -0.014044220
FINAL SINGLE POINT ENERGY     -1339.857905732214

DIPOLE MOMENT
-------------
                                X             Y             Z
Electronic contribution:     -6.72365     -12.25734      24.79980
Nuclear contribution   :      6.91872      12.60058     -25.18048
                        -----------------------------------------
Total Dipole Moment    :      0.19507       0.34324      -0.38068
                        -----------------------------------------
Magnitude (a.u.)       :      0.54844
Magnitude (Debye)      :      1.39402

Rotational constants in cm-1:     0.018607     0.007966     0.006450
Rotational constants in MHz :   557.836062   238.811039   193.371137

                             ****ORCA TERMINATED NORMALLY****
TOTAL RUN TIME: 0 days 0 hours 0 minutes 32 seconds 460 msec
