                         Program Version 4.2.1 -  RELEASE  -
|  1> ! wB97X-D3 SP def2-SVP
|  2> %pal
|  3> nprocs 16
|  4> end
|  5>
|  6> * xyz 0 1
|  7> S 	 -71.8555 	 51.8771 	 124.543
|  8> C 	 -71.1024 	 53.3506 	 125.069
|  9> C 	 -72.0405 	 54.1844 	 125.647
| 10> C 	 -73.2775 	 53.5804 	 125.861
| 11> C 	 -73.2854 	 52.2651 	 125.404
| 12> H 	 -74.1504 	 54.0075 	 126.273
| 13> C 	 -71.7577 	 55.6862 	 125.784
| 14> H 	 -71.3982 	 56.0414 	 124.795
| 15> H 	 -70.7839 	 55.7312 	 126.318
| 16> C 	 -72.7861 	 56.5694 	 126.391
| 17> H 	 -73.4917 	 56.6821 	 125.565
| 18> H 	 -73.3251 	 56.1104 	 127.241
| 19> C 	 -72.1193 	 57.8682 	 126.872
| 20> H 	 -72.9639 	 58.4468 	 127.304
| 21> H 	 -71.4491 	 57.6983 	 127.707
| 22> H 	 -71.589 	 58.3874 	 126.15
| 23> S 	 -74.6168 	 50.2337 	 124.062
| 24> C 	 -75.7747 	 49.3369 	 124.908
| 25> C 	 -75.9661 	 49.8336 	 126.165
| 26> C 	 -75.2058 	 50.9595 	 126.505
| 27> C 	 -74.3294 	 51.2962 	 125.486
| 28> H 	 -76.652 	 49.3241 	 126.819
| 29> C 	 -75.3875 	 51.6539 	 127.822
| 30> H 	 -74.4587 	 52.2568 	 128.064
| 31> H 	 -75.323 	 50.8222 	 128.537
| 32> C 	 -76.6458 	 52.5732 	 127.942
| 33> H 	 -77.5755 	 51.9762 	 127.744
| 34> H 	 -76.712 	 53.3262 	 127.158
| 35> C 	 -76.9711 	 53.4051 	 129.233
| 36> H 	 -77.9915 	 53.2393 	 129.403
| 37> H 	 -76.7907 	 54.4767 	 129.299
| 38> H 	 -76.6058 	 52.8904 	 130.136
| 39> H 	 -70.0616 	 53.7072 	 124.673
| 40> H 	 -76.2757 	 48.4714 	 124.492
| 41> *
| 42>
| 43>                          ****END OF INPUT****

CARTESIAN COORDINATES (ANGSTROEM)
---------------------------------
  S    -71.855500   51.877100  124.543000
  C    -71.102400   53.350600  125.069000
  C    -72.040500   54.184400  125.647000
  C    -73.277500   53.580400  125.861000
  C    -73.285400   52.265100  125.404000
  H    -74.150400   54.007500  126.273000
  C    -71.757700   55.686200  125.784000
  H    -71.398200   56.041400  124.795000
  H    -70.783900   55.731200  126.318000
  C    -72.786100   56.569400  126.391000
  H    -73.491700   56.682100  125.565000
  H    -73.325100   56.110400  127.241000
  C    -72.119300   57.868200  126.872000
  H    -72.963900   58.446800  127.304000
  H    -71.449100   57.698300  127.707000
  H    -71.589000   58.387400  126.150000
  S    -74.616800   50.233700  124.062000
  C    -75.774700   49.336900  124.908000
  C    -75.966100   49.833600  126.165000
  C    -75.205800   50.959500  126.505000
  C    -74.329400   51.296200  125.486000
  H    -76.652000   49.324100  126.819000
  C    -75.387500   51.653900  127.822000
  H    -74.458700   52.256800  128.064000
  H    -75.323000   50.822200  128.537000
  C    -76.645800   52.573200  127.942000
  H    -77.575500   51.976200  127.744000
  H    -76.712000   53.326200  127.158000
  C    -76.971100   53.405100  129.233000
  H    -77.991500   53.239300  129.403000
  H    -76.790700   54.476700  129.299000
  H    -76.605800   52.890400  130.136000
  H    -70.061600   53.707200  124.673000
  H    -76.275700   48.471400  124.492000

 Total Charge           Charge          ....    0
 Multiplicity           Mult            ....    1
 Number of Electrons    NEL             ....  134
 Basis Dimension        Dim             ....  322

ORBITAL ENERGIES
----------------

  NO   OCC          E(Eh)            E(eV)
   0   2.0000     -88.965454     -2420.8731
   1   2.0000     -88.962728     -2420.7989
   2   2.0000     -10.324872      -280.9541
   3   2.0000     -10.323345      -280.9125
   4   2.0000     -10.313039      -280.6320
   5   2.0000     -10.310779      -280.5706
   6   2.0000     -10.299687      -280.2687
   7   2.0000     -10.299311      -280.2585
   8   2.0000     -10.297489      -280.2089
   9   2.0000     -10.296736      -280.1884
  10   2.0000     -10.289409      -279.9891
  11   2.0000     -10.287796      -279.9452
  12   2.0000     -10.287707      -279.9427
  13   2.0000     -10.285494      -279.8825
  14   2.0000     -10.277903      -279.6760
  15   2.0000     -10.276752      -279.6446
  16   2.0000      -8.080965      -219.8942
  17   2.0000      -8.078133      -219.8172
  18   2.0000      -6.039332      -164.3386
  19   2.0000      -6.036545      -164.2627
  20   2.0000      -6.035379      -164.2310
  21   2.0000      -6.032532      -164.1535
  22   2.0000      -6.031819      -164.1341
  23   2.0000      -6.028982      -164.0569
  24   2.0000      -1.013687       -27.5838
  25   2.0000      -0.990455       -26.9517
  26   2.0000      -0.917644       -24.9704
  27   2.0000      -0.904124       -24.6025
  28   2.0000      -0.873003       -23.7556
  29   2.0000      -0.857069       -23.3220
  30   2.0000      -0.847253       -23.0549
  31   2.0000      -0.813051       -22.1242
  32   2.0000      -0.787990       -21.4423
  33   2.0000      -0.772037       -21.0082
  34   2.0000      -0.716477       -19.4963
  35   2.0000      -0.702385       -19.1129
  36   2.0000      -0.687174       -18.6990
  37   2.0000      -0.659689       -17.9511
  38   2.0000      -0.636307       -17.3148
  39   2.0000      -0.624317       -16.9885
  40   2.0000      -0.597273       -16.2526
  41   2.0000      -0.572826       -15.5874
  42   2.0000      -0.560785       -15.2597
  43   2.0000      -0.554786       -15.0965
  44   2.0000      -0.531090       -14.4517
  45   2.0000      -0.525181       -14.2909
  46   2.0000      -0.513054       -13.9609
  47   2.0000      -0.512965       -13.9585
  48   2.0000      -0.507093       -13.7987
  49   2.0000      -0.495898       -13.4941
  50   2.0000      -0.491196       -13.3661
  51   2.0000      -0.485820       -13.2198
  52   2.0000      -0.477130       -12.9834
  53   2.0000      -0.467583       -12.7236
  54   2.0000      -0.460036       -12.5182
  55   2.0000      -0.452447       -12.3117
  56   2.0000      -0.448121       -12.1940
  57   2.0000      -0.443512       -12.0686
  58   2.0000      -0.431664       -11.7462
  59   2.0000      -0.426274       -11.5995
  60   2.0000      -0.420168       -11.4334
  61   2.0000      -0.409385       -11.1399
  62   2.0000      -0.407311       -11.0835
  63   2.0000      -0.351156        -9.5554
  64   2.0000      -0.333179        -9.0663
  65   2.0000      -0.331188        -9.0121
  66   2.0000      -0.279374        -7.6021
  67   0.0000       0.023754         0.6464
  68   0.0000       0.074591         2.0297
  69   0.0000       0.113971         3.1013
  70   0.0000       0.129207         3.5159
  71   0.0000       0.132893         3.6162

MULLIKEN ATOMIC CHARGES
-----------------------
   0 S :    0.120718
   1 C :   -0.165798
   2 C :   -0.052977
   3 C :    0.012312
   4 C :   -0.139985
   5 H :   -0.007329
   6 C :    0.015842
   7 H :    0.033487
   8 H :    0.019982
   9 C :   -0.071924
  10 H :    0.037337
  11 H :    0.040005
  12 C :   -0.020850
  13 H :    0.033877
  14 H :    0.031643
  15 H :    0.024239
  16 S :    0.098417
  17 C :   -0.083045
  18 C :   -0.039842
  19 C :   -0.024357
  20 C :   -0.156625
  21 H :    0.006809
  22 C :    0.067215
  23 H :    0.035814
  24 H :    0.029466
  25 C :   -0.090174
  26 H :    0.030685
  27 H :    0.029039
  28 C :   -0.028730
  29 H :    0.011742
  30 H :    0.048874
  31 H :    0.018827
  32 H :    0.077634
  33 H :    0.057673
Sum of atomic charges:   -0.0000000

LOEWDIN ATOMIC CHARGES
----------------------
   0 S :    0.434209
   1 C :   -0.229123
   2 C :   -0.063478
   3 C :   -0.067770
   4 C :   -0.196865
   5 H :    0.024948
   6 C :   -0.043052
   7 H :    0.034832
   8 H :    0.030811
   9 C :   -0.047111
  10 H :    0.029141
  11 H :    0.028357
  12 C :   -0.052987
  13 H :    0.032315
  14 H :    0.027035
  15 H :    0.014843
  16 S :    0.401518
  17 C :   -0.198337
  18 C :   -0.075640
  19 C :   -0.058466
  20 C :   -0.181475
  21 H :    0.028197
  22 C :   -0.037636
  23 H :    0.037049
  24 H :    0.034315
  25 C :   -0.045320
  26 H :    0.029708
  27 H :    0.025506
  28 C :   -0.073807
  29 H :    0.023939
  30 H :    0.027090
  31 H :    0.029070
  32 H :    0.046506
  33 H :    0.031680

  Mayer bond orders larger than 0.100000
B(  0-S ,  1-C ) :   1.1426 B(  0-S ,  4-C ) :   1.1861 B(  1-C ,  2-C ) :   1.5751
B(  1-C ,  4-C ) :   0.1088 B(  1-C , 32-H ) :   0.9607 B(  2-C ,  3-C ) :   1.2869
B(  2-C ,  6-C ) :   0.9937 B(  3-C ,  4-C ) :   1.4920 B(  3-C ,  5-H ) :   1.0084
B(  4-C , 20-C ) :   1.0777 B(  6-C ,  7-H ) :   0.9386 B(  6-C ,  8-H ) :   0.9397
B(  6-C ,  9-C ) :   1.0700 B(  9-C , 10-H ) :   0.9456 B(  9-C , 11-H ) :   0.9545
B(  9-C , 12-C ) :   1.0840 B( 12-C , 13-H ) :   0.9730 B( 12-C , 14-H ) :   0.9746
B( 12-C , 15-H ) :   0.9765 B( 16-S , 17-C ) :   1.1632 B( 16-S , 20-C ) :   1.1329
B( 17-C , 18-C ) :   1.5920 B( 17-C , 33-H ) :   0.9680 B( 18-C , 19-C ) :   1.2505
B( 18-C , 21-H ) :   0.9955 B( 19-C , 20-C ) :   1.5788 B( 19-C , 22-C ) :   1.0447
B( 22-C , 23-H ) :   0.9321 B( 22-C , 24-H ) :   0.9287 B( 22-C , 25-C ) :   1.0515
B( 25-C , 26-H ) :   0.9632 B( 25-C , 27-H ) :   0.9570 B( 25-C , 28-C ) :   1.0663
B( 28-C , 29-H ) :   0.9730 B( 28-C , 30-H ) :   0.9813 B( 28-C , 31-H ) :   0.9710

Dispersion correction           -0.013690818
FINAL SINGLE POINT ENERGY     -1339.866486819979

DIPOLE MOMENT
-------------
                                X             Y             Z
Electronic contribution:      7.37493     -24.65794     -20.06941
Nuclear contribution   :     -7.68419      25.09467      20.43368
                        -----------------------------------------
Total Dipole Moment    :     -0.30925       0.43673       0.36427
                        -----------------------------------------
Magnitude (a.u.)       :      0.64735
Magnitude (Debye)      :      1.64543

Rotational constants in cm-1:     0.016622     0.009407     0.006328
Rotational constants in MHz :   498.301284   282.024103   189.694886

                             ****ORCA TERMINATED NORMALLY****
TOTAL RUN TIME: 0 days 0 hours 0 minutes 31 seconds 96 msec
