                         Program Version 4.2.1 -  RELEASE  -
|  1> ! wB97X-D3 SP def2-SVP
|  2> %pal
|  3> nprocs 16
|  4> end
|  5>
|  6> * xyz 0 1
|  7> S 	 -32.6136 	 42.0396 	 94.2308
|  8> C 	 -34.2291 	 41.8306 	 94.8374
|  9> C 	 -34.4676 	 42.6169 	 95.962
| 10> C 	 -33.3626 	 43.41 	 96.2444
| 11> C 	 -32.3111 	 43.2816 	 95.4199
| 12> H 	 -33.1978 	 43.9626 	 97.0666
| 13> C 	 -35.7028 	 42.6963 	 96.7419
| 14> H 	 -36.3669 	 41.9853 	 96.1599
| 15> H 	 -36.0295 	 43.7334 	 96.7158
| 16> C 	 -35.3959 	 42.3244 	 98.2375
| 17> H 	 -34.7345 	 41.4462 	 98.2213
| 18> H 	 -34.7844 	 43.1783 	 98.5857
| 19> C 	 -36.6615 	 42.2213 	 99.0888
| 20> H 	 -36.4978 	 41.6962 	 100.045
| 21> H 	 -37.1022 	 43.1482 	 99.3975
| 22> H 	 -37.3125 	 41.6316 	 98.4593
| 23> S 	 -29.6024 	 42.8344 	 95.8636
| 24> C 	 -28.5703 	 44.2525 	 95.9375
| 25> C 	 -29.2467 	 45.4102 	 95.7252
| 26> C 	 -30.6595 	 45.2417 	 95.6571
| 27> C 	 -31.0383 	 43.9024 	 95.5351
| 28> H 	 -28.7401 	 46.3346 	 95.6785
| 29> C 	 -31.639 	 46.3182 	 95.2708
| 30> H 	 -31.2962 	 47.2466 	 95.6532
| 31> H 	 -32.6402 	 46.0735 	 95.6423
| 32> C 	 -31.7087 	 46.5428 	 93.7856
| 33> H 	 -32.4433 	 47.331 	 93.5968
| 34> H 	 -31.8499 	 45.5788 	 93.2412
| 35> C 	 -30.4492 	 47.0643 	 93.0966
| 36> H 	 -29.7192 	 46.238 	 93.1954
| 37> H 	 -30.0886 	 47.829 	 93.7085
| 38> H 	 -30.6054 	 47.317 	 92.0373
| 39> H 	 -34.9368 	 41.1412 	 94.441
| 40> H 	 -27.5012 	 44.2336 	 96.0885
| 41> *
| 42>
| 43>                          ****END OF INPUT****

CARTESIAN COORDINATES (ANGSTROEM)
---------------------------------
  S    -32.613600   42.039600   94.230800
  C    -34.229100   41.830600   94.837400
  C    -34.467600   42.616900   95.962000
  C    -33.362600   43.410000   96.244400
  C    -32.311100   43.281600   95.419900
  H    -33.197800   43.962600   97.066600
  C    -35.702800   42.696300   96.741900
  H    -36.366900   41.985300   96.159900
  H    -36.029500   43.733400   96.715800
  C    -35.395900   42.324400   98.237500
  H    -34.734500   41.446200   98.221300
  H    -34.784400   43.178300   98.585700
  C    -36.661500   42.221300   99.088800
  H    -36.497800   41.696200  100.045000
  H    -37.102200   43.148200   99.397500
  H    -37.312500   41.631600   98.459300
  S    -29.602400   42.834400   95.863600
  C    -28.570300   44.252500   95.937500
  C    -29.246700   45.410200   95.725200
  C    -30.659500   45.241700   95.657100
  C    -31.038300   43.902400   95.535100
  H    -28.740100   46.334600   95.678500
  C    -31.639000   46.318200   95.270800
  H    -31.296200   47.246600   95.653200
  H    -32.640200   46.073500   95.642300
  C    -31.708700   46.542800   93.785600
  H    -32.443300   47.331000   93.596800
  H    -31.849900   45.578800   93.241200
  C    -30.449200   47.064300   93.096600
  H    -29.719200   46.238000   93.195400
  H    -30.088600   47.829000   93.708500
  H    -30.605400   47.317000   92.037300
  H    -34.936800   41.141200   94.441000
  H    -27.501200   44.233600   96.088500

 Total Charge           Charge          ....    0
 Multiplicity           Mult            ....    1
 Number of Electrons    NEL             ....  134
 Basis Dimension        Dim             ....  322

ORBITAL ENERGIES
----------------

  NO   OCC          E(Eh)            E(eV)
   0   2.0000     -88.965263     -2420.8679
   1   2.0000     -88.964121     -2420.8368
   2   2.0000     -10.327040      -281.0130
   3   2.0000     -10.320096      -280.8241
   4   2.0000     -10.316174      -280.7174
   5   2.0000     -10.310829      -280.5719
   6   2.0000     -10.303129      -280.3624
   7   2.0000     -10.293972      -280.1132
   8   2.0000     -10.292941      -280.0852
   9   2.0000     -10.292807      -280.0815
  10   2.0000     -10.290240      -280.0117
  11   2.0000     -10.285540      -279.8838
  12   2.0000     -10.278632      -279.6958
  13   2.0000     -10.278270      -279.6859
  14   2.0000     -10.275497      -279.6105
  15   2.0000     -10.268492      -279.4199
  16   2.0000      -8.080363      -219.8779
  17   2.0000      -8.077954      -219.8123
  18   2.0000      -6.038742      -164.3225
  19   2.0000      -6.036557      -164.2631
  20   2.0000      -6.034868      -164.2171
  21   2.0000      -6.032644      -164.1566
  22   2.0000      -6.031196      -164.1172
  23   2.0000      -6.028612      -164.0469
  24   2.0000      -1.012367       -27.5479
  25   2.0000      -0.985446       -26.8153
  26   2.0000      -0.917649       -24.9705
  27   2.0000      -0.915205       -24.9040
  28   2.0000      -0.874963       -23.8089
  29   2.0000      -0.855476       -23.2787
  30   2.0000      -0.844839       -22.9892
  31   2.0000      -0.820608       -22.3299
  32   2.0000      -0.786540       -21.4028
  33   2.0000      -0.770746       -20.9731
  34   2.0000      -0.714999       -19.4561
  35   2.0000      -0.696960       -18.9652
  36   2.0000      -0.681839       -18.5538
  37   2.0000      -0.663691       -18.0600
  38   2.0000      -0.651184       -17.7196
  39   2.0000      -0.624996       -17.0070
  40   2.0000      -0.598819       -16.2947
  41   2.0000      -0.577847       -15.7240
  42   2.0000      -0.565093       -15.3770
  43   2.0000      -0.556938       -15.1551
  44   2.0000      -0.548512       -14.9258
  45   2.0000      -0.530043       -14.4232
  46   2.0000      -0.521985       -14.2039
  47   2.0000      -0.511970       -13.9314
  48   2.0000      -0.508579       -13.8391
  49   2.0000      -0.501144       -13.6368
  50   2.0000      -0.483503       -13.1568
  51   2.0000      -0.480702       -13.0806
  52   2.0000      -0.477740       -13.0000
  53   2.0000      -0.463662       -12.6169
  54   2.0000      -0.458804       -12.4847
  55   2.0000      -0.455290       -12.3891
  56   2.0000      -0.443831       -12.0773
  57   2.0000      -0.435043       -11.8381
  58   2.0000      -0.433199       -11.7879
  59   2.0000      -0.425930       -11.5901
  60   2.0000      -0.421768       -11.4769
  61   2.0000      -0.412505       -11.2248
  62   2.0000      -0.404604       -11.0098
  63   2.0000      -0.347122        -9.4457
  64   2.0000      -0.332230        -9.0404
  65   2.0000      -0.328860        -8.9487
  66   2.0000      -0.291697        -7.9375
  67   0.0000       0.030200         0.8218
  68   0.0000       0.064006         1.7417
  69   0.0000       0.116122         3.1598
  70   0.0000       0.121753         3.3131
  71   0.0000       0.130416         3.5488

MULLIKEN ATOMIC CHARGES
-----------------------
   0 S :    0.113949
   1 C :   -0.115626
   2 C :   -0.089686
   3 C :    0.072118
   4 C :   -0.161976
   5 H :   -0.036458
   6 C :    0.076955
   7 H :    0.025796
   8 H :    0.038257
   9 C :   -0.133562
  10 H :    0.046075
  11 H :    0.037321
  12 C :   -0.002830
  13 H :    0.035921
  14 H :    0.029974
  15 H :    0.026200
  16 S :    0.094923
  17 C :   -0.077305
  18 C :   -0.023387
  19 C :   -0.041092
  20 C :   -0.162605
  21 H :    0.005104
  22 C :    0.105854
  23 H :    0.000740
  24 H :    0.030079
  25 C :   -0.087151
  26 H :    0.030420
  27 H :    0.036022
  28 C :   -0.047905
  29 H :    0.037048
  30 H :    0.000490
  31 H :    0.049955
  32 H :    0.032659
  33 H :    0.053719
Sum of atomic charges:   -0.0000000

LOEWDIN ATOMIC CHARGES
----------------------
   0 S :    0.411657
   1 C :   -0.197211
   2 C :   -0.065755
   3 C :   -0.050956
   4 C :   -0.194040
   5 H :    0.012446
   6 C :   -0.033150
   7 H :    0.034207
   8 H :    0.034357
   9 C :   -0.038816
  10 H :    0.028718
  11 H :    0.025181
  12 C :   -0.064828
  13 H :    0.030877
  14 H :    0.024112
  15 H :    0.024986
  16 S :    0.370997
  17 C :   -0.174257
  18 C :   -0.071249
  19 C :   -0.050609
  20 C :   -0.176745
  21 H :    0.026240
  22 C :   -0.029174
  23 H :    0.021810
  24 H :    0.034533
  25 C :   -0.039292
  26 H :    0.023342
  27 H :    0.028958
  28 C :   -0.063857
  29 H :    0.027451
  30 H :    0.007551
  31 H :    0.032068
  32 H :    0.020458
  33 H :    0.029988

  Mayer bond orders larger than 0.100000
B(  0-S ,  1-C ) :   1.1415 B(  0-S ,  4-C ) :   1.1409 B(  1-C ,  2-C ) :   1.5952
B(  1-C , 32-H ) :   0.9696 B(  2-C ,  3-C ) :   1.2290 B(  2-C ,  6-C ) :   1.0343
B(  3-C ,  4-C ) :   1.5978 B(  3-C ,  5-H ) :   1.0079 B(  4-C , 20-C ) :   1.0495
B(  6-C ,  7-H ) :   0.9359 B(  6-C ,  8-H ) :   0.9333 B(  6-C ,  9-C ) :   1.0480
B(  9-C , 10-H ) :   0.9628 B(  9-C , 11-H ) :   0.9527 B(  9-C , 12-C ) :   1.0779
B( 12-C , 13-H ) :   0.9740 B( 12-C , 14-H ) :   0.9730 B( 12-C , 15-H ) :   0.9759
B( 16-S , 17-C ) :   1.1436 B( 16-S , 20-C ) :   1.1188 B( 17-C , 18-C ) :   1.6326
B( 17-C , 20-C ) :   0.1041 B( 17-C , 33-H ) :   0.9642 B( 18-C , 19-C ) :   1.2174
B( 18-C , 21-H ) :   0.9922 B( 19-C , 20-C ) :   1.5925 B( 19-C , 22-C ) :   1.0708
B( 22-C , 23-H ) :   0.9211 B( 22-C , 24-H ) :   0.9266 B( 22-C , 25-C ) :   1.0794
B( 25-C , 26-H ) :   0.9551 B( 25-C , 27-H ) :   0.9558 B( 25-C , 28-C ) :   1.0779
B( 28-C , 29-H ) :   0.9716 B( 28-C , 30-H ) :   0.9715 B( 28-C , 31-H ) :   0.9716

Dispersion correction           -0.014744136
FINAL SINGLE POINT ENERGY     -1339.867402296766

DIPOLE MOMENT
-------------
                                X             Y             Z
Electronic contribution:     14.86645     -12.57060      -5.78652
Nuclear contribution   :    -15.16310      12.98211       6.08918
                        -----------------------------------------
Total Dipole Moment    :     -0.29664       0.41151       0.30267
                        -----------------------------------------
Magnitude (a.u.)       :      0.59072
Magnitude (Debye)      :      1.50148

Rotational constants in cm-1:     0.021380     0.007739     0.007316
Rotational constants in MHz :   640.953879   232.008440   219.322240

                             ****ORCA TERMINATED NORMALLY****
TOTAL RUN TIME: 0 days 0 hours 0 minutes 29 seconds 481 msec
