                         Program Version 4.2.1 -  RELEASE  -
|  1> ! wB97X-D3 SP def2-SVP
|  2> %pal
|  3> nprocs 16
|  4> end
|  5>
|  6> * xyz 0 1
|  7> S 	 -1.04095 	 -9.53381 	 82.0206
|  8> C 	 -2.6194 	 -9.84148 	 81.1353
|  9> C 	 -3.35059 	 -10.8267 	 81.78
| 10> C 	 -2.64705 	 -11.275 	 82.9889
| 11> C 	 -1.44965 	 -10.6516 	 83.3269
| 12> H 	 -3.14518 	 -11.9189 	 83.637
| 13> C 	 -4.69841 	 -11.2452 	 81.3947
| 14> H 	 -4.53397 	 -12.2106 	 81.1088
| 15> H 	 -4.97636 	 -10.6265 	 80.563
| 16> C 	 -5.84382 	 -11.0222 	 82.4364
| 17> H 	 -6.74859 	 -11.5993 	 82.3302
| 18> H 	 -5.48473 	 -11.1859 	 83.4512
| 19> C 	 -6.13724 	 -9.48997 	 82.5005
| 20> H 	 -7.07992 	 -9.13511 	 83.0561
| 21> H 	 -5.29838 	 -9.03689 	 82.9786
| 22> H 	 -6.27585 	 -9.08358 	 81.5192
| 23> S 	 0.904688 	 -11.4109 	 84.5963
| 24> C 	 0.932379 	 -11.3563 	 86.3273
| 25> C 	 0.0291971 	 -10.4222 	 86.8126
| 26> C 	 -0.90465 	 -10.0135 	 85.7826
| 27> C 	 -0.659269 	 -10.6407 	 84.5775
| 28> H 	 -0.160294 	 -10.2033 	 87.8666
| 29> C 	 -2.12532 	 -9.15273 	 86.1691
| 30> H 	 -2.64791 	 -9.7393 	 86.9508
| 31> H 	 -2.74602 	 -9.20116 	 85.2752
| 32> C 	 -1.82585 	 -7.67324 	 86.6592
| 33> H 	 -2.7581 	 -7.12555 	 86.7598
| 34> H 	 -1.20729 	 -7.13316 	 85.8926
| 35> C 	 -1.09338 	 -7.60033 	 87.9868
| 36> H 	 -1.36601 	 -6.66167 	 88.518
| 37> H 	 -0.0762618 	 -7.71421 	 87.8888
| 38> H 	 -1.3745 	 -8.33667 	 88.7498
| 39> H 	 -2.86434 	 -9.47177 	 80.1855
| 40> H 	 1.74411 	 -11.8073 	 86.9711
| 41> *
| 42>
| 43>                          ****END OF INPUT****

CARTESIAN COORDINATES (ANGSTROEM)
---------------------------------
  S     -1.040950   -9.533810   82.020600
  C     -2.619400   -9.841480   81.135300
  C     -3.350590  -10.826700   81.780000
  C     -2.647050  -11.275000   82.988900
  C     -1.449650  -10.651600   83.326900
  H     -3.145180  -11.918900   83.637000
  C     -4.698410  -11.245200   81.394700
  H     -4.533970  -12.210600   81.108800
  H     -4.976360  -10.626500   80.563000
  C     -5.843820  -11.022200   82.436400
  H     -6.748590  -11.599300   82.330200
  H     -5.484730  -11.185900   83.451200
  C     -6.137240   -9.489970   82.500500
  H     -7.079920   -9.135110   83.056100
  H     -5.298380   -9.036890   82.978600
  H     -6.275850   -9.083580   81.519200
  S      0.904688  -11.410900   84.596300
  C      0.932379  -11.356300   86.327300
  C      0.029197  -10.422200   86.812600
  C     -0.904650  -10.013500   85.782600
  C     -0.659269  -10.640700   84.577500
  H     -0.160294  -10.203300   87.866600
  C     -2.125320   -9.152730   86.169100
  H     -2.647910   -9.739300   86.950800
  H     -2.746020   -9.201160   85.275200
  C     -1.825850   -7.673240   86.659200
  H     -2.758100   -7.125550   86.759800
  H     -1.207290   -7.133160   85.892600
  C     -1.093380   -7.600330   87.986800
  H     -1.366010   -6.661670   88.518000
  H     -0.076262   -7.714210   87.888800
  H     -1.374500   -8.336670   88.749800
  H     -2.864340   -9.471770   80.185500
  H      1.744110  -11.807300   86.971100

 Total Charge           Charge          ....    0
 Multiplicity           Mult            ....    1
 Number of Electrons    NEL             ....  134
 Basis Dimension        Dim             ....  322

ORBITAL ENERGIES
----------------

  NO   OCC          E(Eh)            E(eV)
   0   2.0000     -88.964737     -2420.8536
   1   2.0000     -88.960946     -2420.7504
   2   2.0000     -10.336799      -281.2786
   3   2.0000     -10.327663      -281.0300
   4   2.0000     -10.323641      -280.9206
   5   2.0000     -10.317327      -280.7487
   6   2.0000     -10.306233      -280.4469
   7   2.0000     -10.303979      -280.3855
   8   2.0000     -10.296854      -280.1917
   9   2.0000     -10.295944      -280.1669
  10   2.0000     -10.295847      -280.1642
  11   2.0000     -10.294454      -280.1263
  12   2.0000     -10.292681      -280.0781
  13   2.0000     -10.287351      -279.9330
  14   2.0000     -10.278630      -279.6957
  15   2.0000     -10.274037      -279.5708
  16   2.0000      -8.080257      -219.8750
  17   2.0000      -8.074418      -219.7161
  18   2.0000      -6.038758      -164.3230
  19   2.0000      -6.034876      -164.2173
  20   2.0000      -6.033169      -164.1709
  21   2.0000      -6.030739      -164.1047
  22   2.0000      -6.029057      -164.0590
  23   2.0000      -6.025025      -163.9493
  24   2.0000      -1.003585       -27.3089
  25   2.0000      -0.978097       -26.6154
  26   2.0000      -0.917463       -24.9654
  27   2.0000      -0.902686       -24.5633
  28   2.0000      -0.865472       -23.5507
  29   2.0000      -0.849543       -23.1172
  30   2.0000      -0.837904       -22.8005
  31   2.0000      -0.815505       -22.1910
  32   2.0000      -0.784808       -21.3557
  33   2.0000      -0.772943       -21.0328
  34   2.0000      -0.712788       -19.3960
  35   2.0000      -0.702452       -19.1147
  36   2.0000      -0.692161       -18.8347
  37   2.0000      -0.660521       -17.9737
  38   2.0000      -0.640832       -17.4379
  39   2.0000      -0.622245       -16.9321
  40   2.0000      -0.589285       -16.0353
  41   2.0000      -0.571275       -15.5452
  42   2.0000      -0.564813       -15.3694
  43   2.0000      -0.553146       -15.0519
  44   2.0000      -0.543940       -14.8014
  45   2.0000      -0.536715       -14.6048
  46   2.0000      -0.517058       -14.0699
  47   2.0000      -0.512237       -13.9387
  48   2.0000      -0.504470       -13.7273
  49   2.0000      -0.496502       -13.5105
  50   2.0000      -0.485931       -13.2229
  51   2.0000      -0.479001       -13.0343
  52   2.0000      -0.467775       -12.7288
  53   2.0000      -0.460941       -12.5429
  54   2.0000      -0.459672       -12.5083
  55   2.0000      -0.444746       -12.1022
  56   2.0000      -0.442449       -12.0396
  57   2.0000      -0.438342       -11.9279
  58   2.0000      -0.434356       -11.8194
  59   2.0000      -0.423439       -11.5223
  60   2.0000      -0.421600       -11.4723
  61   2.0000      -0.417910       -11.3719
  62   2.0000      -0.414192       -11.2707
  63   2.0000      -0.331488        -9.0202
  64   2.0000      -0.327975        -8.9247
  65   2.0000      -0.322894        -8.7864
  66   2.0000      -0.309733        -8.4283
  67   0.0000       0.042061         1.1445
  68   0.0000       0.047241         1.2855
  69   0.0000       0.107339         2.9208
  70   0.0000       0.119348         3.2476
  71   0.0000       0.122979         3.3464

MULLIKEN ATOMIC CHARGES
-----------------------
   0 S :    0.081657
   1 C :   -0.095124
   2 C :   -0.156023
   3 C :    0.070631
   4 C :   -0.148826
   5 H :   -0.017460
   6 C :    0.145006
   7 H :    0.022556
   8 H :    0.008201
   9 C :   -0.059961
  10 H :    0.037964
  11 H :    0.028237
  12 C :   -0.093161
  13 H :    0.043853
  14 H :    0.043579
  15 H :    0.019442
  16 S :    0.118232
  17 C :   -0.103159
  18 C :   -0.038556
  19 C :   -0.026123
  20 C :   -0.190041
  21 H :    0.027323
  22 C :    0.046258
  23 H :    0.040152
  24 H :    0.028724
  25 C :   -0.057235
  26 H :    0.035303
  27 H :    0.047072
  28 C :   -0.057516
  29 H :    0.036271
  30 H :    0.031848
  31 H :    0.021311
  32 H :    0.029986
  33 H :    0.079580
Sum of atomic charges:    0.0000000

LOEWDIN ATOMIC CHARGES
----------------------
   0 S :    0.356716
   1 C :   -0.163129
   2 C :   -0.056882
   3 C :   -0.054344
   4 C :   -0.184145
   5 H :    0.015708
   6 C :   -0.021046
   7 H :    0.025449
   8 H :    0.030558
   9 C :   -0.033182
  10 H :    0.023465
  11 H :    0.023590
  12 C :   -0.067603
  13 H :    0.034344
  14 H :    0.023299
  15 H :    0.014798
  16 S :    0.413250
  17 C :   -0.191109
  18 C :   -0.078982
  19 C :   -0.046883
  20 C :   -0.214869
  21 H :    0.033165
  22 C :   -0.031272
  23 H :    0.033658
  24 H :    0.029162
  25 C :   -0.035228
  26 H :    0.026035
  27 H :    0.035914
  28 C :   -0.070820
  29 H :    0.034380
  30 H :    0.014278
  31 H :    0.022850
  32 H :    0.016790
  33 H :    0.042086

  Mayer bond orders larger than 0.100000
B(  0-S ,  1-C ) :   1.1143 B(  0-S ,  4-C ) :   1.1375 B(  1-C ,  2-C ) :   1.6371
B(  1-C , 32-H ) :   0.9689 B(  2-C ,  3-C ) :   1.2064 B(  2-C ,  6-C ) :   1.0254
B(  3-C ,  4-C ) :   1.6132 B(  3-C ,  5-H ) :   1.0041 B(  4-C , 20-C ) :   1.0010
B(  6-C ,  7-H ) :   0.9233 B(  6-C ,  8-H ) :   0.9427 B(  6-C ,  9-C ) :   1.0519
B(  9-C , 10-H ) :   0.9635 B(  9-C , 11-H ) :   0.9660 B(  9-C , 12-C ) :   1.0486
B( 12-C , 13-H ) :   0.9759 B( 12-C , 14-H ) :   0.9825 B( 12-C , 15-H ) :   0.9787
B( 16-S , 17-C ) :   1.1623 B( 16-S , 20-C ) :   1.1354 B( 17-C , 18-C ) :   1.6093
B( 17-C , 33-H ) :   0.9583 B( 18-C , 19-C ) :   1.2287 B( 18-C , 21-H ) :   0.9794
B( 19-C , 20-C ) :   1.6225 B( 19-C , 22-C ) :   1.0239 B( 22-C , 23-H ) :   0.9465
B( 22-C , 24-H ) :   0.9347 B( 22-C , 25-C ) :   1.0631 B( 25-C , 26-H ) :   0.9617
B( 25-C , 27-H ) :   0.9551 B( 25-C , 28-C ) :   1.0782 B( 28-C , 29-H ) :   0.9693
B( 28-C , 30-H ) :   0.9724 B( 28-C , 31-H ) :   0.9709

Dispersion correction           -0.014818615
FINAL SINGLE POINT ENERGY     -1339.852643667946

DIPOLE MOMENT
-------------
                                X             Y             Z
Electronic contribution:     22.51573      -9.78977      -9.67228
Nuclear contribution   :    -23.16931       9.83777      10.07598
                        -----------------------------------------
Total Dipole Moment    :     -0.65358       0.04800       0.40370
                        -----------------------------------------
Magnitude (a.u.)       :      0.76970
Magnitude (Debye)      :      1.95643

Rotational constants in cm-1:     0.018972     0.008639     0.007010
Rotational constants in MHz :   568.752482   259.004739   210.140627

                             ****ORCA TERMINATED NORMALLY****
TOTAL RUN TIME: 0 days 0 hours 0 minutes 33 seconds 893 msec
