                         Program Version 4.2.1 -  RELEASE  -
|  1> ! wB97X-D3 SP def2-SVP
|  2> %pal
|  3> nprocs 16
|  4> end
|  5>
|  6> * xyz 0 1
|  7> S 	 -3.35375 	 -13.4229 	 86.1334
|  8> C 	 -2.66195 	 -14.7389 	 87.0129
|  9> C 	 -3.29503 	 -15.9361 	 86.7698
| 10> C 	 -4.40974 	 -15.7624 	 85.96
| 11> C 	 -4.61888 	 -14.4755 	 85.4532
| 12> H 	 -5.08474 	 -16.6412 	 85.6935
| 13> C 	 -2.83686 	 -17.3261 	 87.2533
| 14> H 	 -1.78445 	 -17.3567 	 87.5078
| 15> H 	 -2.94171 	 -17.9789 	 86.4493
| 16> C 	 -3.85271 	 -18.0003 	 88.2888
| 17> H 	 -3.87027 	 -17.3163 	 89.1773
| 18> H 	 -4.82185 	 -17.9986 	 87.7722
| 19> C 	 -3.45394 	 -19.4465 	 88.629
| 20> H 	 -4.20434 	 -19.8413 	 89.3151
| 21> H 	 -3.45232 	 -20.1109 	 87.7871
| 22> H 	 -2.5151 	 -19.3594 	 89.1705
| 23> S 	 -5.12147 	 -12.9633 	 83.2829
| 24> C 	 -6.63963 	 -12.9829 	 82.4603
| 25> C 	 -7.55568 	 -13.7529 	 83.1276
| 26> C 	 -6.97654 	 -14.3611 	 84.3211
| 27> C 	 -5.64435 	 -14.0215 	 84.5269
| 28> H 	 -8.57698 	 -13.8256 	 82.6743
| 29> C 	 -7.86093 	 -15.2376 	 85.1846
| 30> H 	 -8.74746 	 -14.6268 	 85.3768
| 31> H 	 -7.45935 	 -15.3589 	 86.1663
| 32> C 	 -8.50022 	 -16.4092 	 84.4031
| 33> H 	 -7.63836 	 -17.0723 	 84.3787
| 34> H 	 -8.91911 	 -16.0969 	 83.4717
| 35> C 	 -9.72774 	 -16.9728 	 85.1758
| 36> H 	 -10.6082 	 -16.211 	 85.1158
| 37> H 	 -9.30795 	 -17.1882 	 86.1792
| 38> H 	 -10.0187 	 -17.8499 	 84.8413
| 39> H 	 -1.76779 	 -14.6522 	 87.6437
| 40> H 	 -6.94369 	 -12.3007 	 81.6373
| 41> *
| 42>
| 43>                          ****END OF INPUT****

CARTESIAN COORDINATES (ANGSTROEM)
---------------------------------
  S     -3.353750  -13.422900   86.133400
  C     -2.661950  -14.738900   87.012900
  C     -3.295030  -15.936100   86.769800
  C     -4.409740  -15.762400   85.960000
  C     -4.618880  -14.475500   85.453200
  H     -5.084740  -16.641200   85.693500
  C     -2.836860  -17.326100   87.253300
  H     -1.784450  -17.356700   87.507800
  H     -2.941710  -17.978900   86.449300
  C     -3.852710  -18.000300   88.288800
  H     -3.870270  -17.316300   89.177300
  H     -4.821850  -17.998600   87.772200
  C     -3.453940  -19.446500   88.629000
  H     -4.204340  -19.841300   89.315100
  H     -3.452320  -20.110900   87.787100
  H     -2.515100  -19.359400   89.170500
  S     -5.121470  -12.963300   83.282900
  C     -6.639630  -12.982900   82.460300
  C     -7.555680  -13.752900   83.127600
  C     -6.976540  -14.361100   84.321100
  C     -5.644350  -14.021500   84.526900
  H     -8.576980  -13.825600   82.674300
  C     -7.860930  -15.237600   85.184600
  H     -8.747460  -14.626800   85.376800
  H     -7.459350  -15.358900   86.166300
  C     -8.500220  -16.409200   84.403100
  H     -7.638360  -17.072300   84.378700
  H     -8.919110  -16.096900   83.471700
  C     -9.727740  -16.972800   85.175800
  H    -10.608200  -16.211000   85.115800
  H     -9.307950  -17.188200   86.179200
  H    -10.018700  -17.849900   84.841300
  H     -1.767790  -14.652200   87.643700
  H     -6.943690  -12.300700   81.637300

 Total Charge           Charge          ....    0
 Multiplicity           Mult            ....    1
 Number of Electrons    NEL             ....  134
 Basis Dimension        Dim             ....  322

ORBITAL ENERGIES
----------------

  NO   OCC          E(Eh)            E(eV)
   0   2.0000     -88.968908     -2420.9671
   1   2.0000     -88.960501     -2420.7383
   2   2.0000     -10.334429      -281.2141
   3   2.0000     -10.325277      -280.9651
   4   2.0000     -10.315735      -280.7054
   5   2.0000     -10.313626      -280.6480
   6   2.0000     -10.306166      -280.4450
   7   2.0000     -10.297891      -280.2199
   8   2.0000     -10.297619      -280.2124
   9   2.0000     -10.297441      -280.2076
  10   2.0000     -10.295930      -280.1665
  11   2.0000     -10.290957      -280.0312
  12   2.0000     -10.287360      -279.9333
  13   2.0000     -10.285728      -279.8889
  14   2.0000     -10.280547      -279.7479
  15   2.0000     -10.279201      -279.7113
  16   2.0000      -8.083328      -219.9585
  17   2.0000      -8.076643      -219.7766
  18   2.0000      -6.041825      -164.4064
  19   2.0000      -6.037836      -164.2979
  20   2.0000      -6.035152      -164.2248
  21   2.0000      -6.034161      -164.1979
  22   2.0000      -6.030909      -164.1094
  23   2.0000      -6.027338      -164.0122
  24   2.0000      -1.009573       -27.4719
  25   2.0000      -0.988126       -26.8883
  26   2.0000      -0.912341       -24.8261
  27   2.0000      -0.906281       -24.6612
  28   2.0000      -0.871757       -23.7217
  29   2.0000      -0.852392       -23.1948
  30   2.0000      -0.846067       -23.0227
  31   2.0000      -0.814629       -22.1672
  32   2.0000      -0.782441       -21.2913
  33   2.0000      -0.772437       -21.0191
  34   2.0000      -0.707883       -19.2625
  35   2.0000      -0.697764       -18.9871
  36   2.0000      -0.693592       -18.8736
  37   2.0000      -0.658549       -17.9200
  38   2.0000      -0.634387       -17.2625
  39   2.0000      -0.623664       -16.9708
  40   2.0000      -0.596398       -16.2288
  41   2.0000      -0.574497       -15.6329
  42   2.0000      -0.570503       -15.5242
  43   2.0000      -0.564092       -15.3497
  44   2.0000      -0.529240       -14.4013
  45   2.0000      -0.523750       -14.2520
  46   2.0000      -0.518085       -14.0978
  47   2.0000      -0.510359       -13.8876
  48   2.0000      -0.502652       -13.6779
  49   2.0000      -0.496412       -13.5081
  50   2.0000      -0.493515       -13.4292
  51   2.0000      -0.484096       -13.1729
  52   2.0000      -0.470027       -12.7901
  53   2.0000      -0.467220       -12.7137
  54   2.0000      -0.461137       -12.5482
  55   2.0000      -0.453749       -12.3471
  56   2.0000      -0.446691       -12.1551
  57   2.0000      -0.434077       -11.8118
  58   2.0000      -0.432894       -11.7796
  59   2.0000      -0.425852       -11.5880
  60   2.0000      -0.419924       -11.4267
  61   2.0000      -0.416424       -11.3315
  62   2.0000      -0.412205       -11.2167
  63   2.0000      -0.355330        -9.6690
  64   2.0000      -0.333695        -9.0803
  65   2.0000      -0.323056        -8.7908
  66   2.0000      -0.287023        -7.8103
  67   0.0000       0.028898         0.7863
  68   0.0000       0.079011         2.1500
  69   0.0000       0.112496         3.0612
  70   0.0000       0.120911         3.2901
  71   0.0000       0.128571         3.4986

MULLIKEN ATOMIC CHARGES
-----------------------
   0 S :    0.117063
   1 C :   -0.137065
   2 C :   -0.071495
   3 C :   -0.010145
   4 C :   -0.144529
   5 H :    0.031561
   6 C :    0.098265
   7 H :    0.020407
   8 H :    0.002575
   9 C :   -0.129578
  10 H :    0.045049
  11 H :    0.029658
  12 C :   -0.020464
  13 H :    0.035255
  14 H :    0.032882
  15 H :    0.036759
  16 S :    0.096282
  17 C :   -0.099810
  18 C :   -0.069760
  19 C :   -0.045081
  20 C :   -0.128471
  21 H :    0.042513
  22 C :    0.061030
  23 H :    0.012221
  24 H :    0.022072
  25 C :   -0.078637
  26 H :    0.031853
  27 H :    0.030926
  28 C :   -0.012902
  29 H :    0.051576
  30 H :    0.028162
  31 H :   -0.001835
  32 H :    0.052377
  33 H :    0.071288
Sum of atomic charges:   -0.0000000

LOEWDIN ATOMIC CHARGES
----------------------
   0 S :    0.407578
   1 C :   -0.203679
   2 C :   -0.071646
   3 C :   -0.068478
   4 C :   -0.189352
   5 H :    0.038954
   6 C :   -0.025269
   7 H :    0.026447
   8 H :    0.020801
   9 C :   -0.036435
  10 H :    0.027669
  11 H :    0.020755
  12 C :   -0.063644
  13 H :    0.029529
  14 H :    0.023030
  15 H :    0.028381
  16 S :    0.422029
  17 C :   -0.199665
  18 C :   -0.079960
  19 C :   -0.054165
  20 C :   -0.213428
  21 H :    0.041770
  22 C :   -0.038699
  23 H :    0.031438
  24 H :    0.025752
  25 C :   -0.029723
  26 H :    0.022987
  27 H :    0.020192
  28 C :   -0.055074
  29 H :    0.039406
  30 H :    0.030557
  31 H :   -0.000657
  32 H :    0.032526
  33 H :    0.040072

  Mayer bond orders larger than 0.100000
B(  0-S ,  1-C ) :   1.1510 B(  0-S ,  4-C ) :   1.1504 B(  1-C ,  2-C ) :   1.5912
B(  1-C ,  4-C ) :   0.1070 B(  1-C , 32-H ) :   0.9639 B(  2-C ,  3-C ) :   1.2893
B(  2-C ,  6-C ) :   1.0214 B(  3-C ,  4-C ) :   1.5502 B(  3-C ,  5-H ) :   0.9769
B(  4-C , 20-C ) :   1.0513 B(  6-C ,  7-H ) :   0.9492 B(  6-C ,  8-H ) :   0.9354
B(  6-C ,  9-C ) :   1.0394 B(  9-C , 10-H ) :   0.9611 B(  9-C , 11-H ) :   0.9577
B(  9-C , 12-C ) :   1.0828 B( 12-C , 13-H ) :   0.9730 B( 12-C , 14-H ) :   0.9735
B( 12-C , 15-H ) :   0.9754 B( 16-S , 17-C ) :   1.1583 B( 16-S , 20-C ) :   1.1385
B( 17-C , 18-C ) :   1.6348 B( 17-C , 33-H ) :   0.9586 B( 18-C , 19-C ) :   1.2175
B( 18-C , 21-H ) :   0.9805 B( 19-C , 20-C ) :   1.5959 B( 19-C , 22-C ) :   1.0507
B( 22-C , 23-H ) :   0.9296 B( 22-C , 24-H ) :   0.9409 B( 22-C , 25-C ) :   1.0396
B( 25-C , 26-H ) :   0.9602 B( 25-C , 27-H ) :   0.9561 B( 25-C , 28-C ) :   1.0817
B( 28-C , 29-H ) :   0.9727 B( 28-C , 30-H ) :   0.9727 B( 28-C , 31-H ) :   0.9727

Dispersion correction           -0.013466759
FINAL SINGLE POINT ENERGY     -1339.859196098629

DIPOLE MOMENT
-------------
                                X             Y             Z
Electronic contribution:     12.71895      27.31229     -11.94001
Nuclear contribution   :    -13.08859     -27.95144      12.07997
                        -----------------------------------------
Total Dipole Moment    :     -0.36964      -0.63915       0.13996
                        -----------------------------------------
Magnitude (a.u.)       :      0.75149
Magnitude (Debye)      :      1.91014

Rotational constants in cm-1:     0.016147     0.009064     0.006103
Rotational constants in MHz :   484.085221   271.738455   182.954382

                             ****ORCA TERMINATED NORMALLY****
TOTAL RUN TIME: 0 days 0 hours 0 minutes 32 seconds 871 msec
