                         Program Version 4.2.1 -  RELEASE  -
|  1> ! wB97X-D3 SP def2-SVP
|  2> %pal
|  3> nprocs 16
|  4> end
|  5>
|  6> * xyz 0 1
|  7> S 	 -6.98096 	 56.0334 	 28.6325
|  8> C 	 -7.38535 	 54.5001 	 27.9891
|  9> C 	 -7.74158 	 53.6772 	 29.025
| 10> C 	 -7.5442 	 54.2786 	 30.3156
| 11> C 	 -7.1566 	 55.6139 	 30.3033
| 12> H 	 -7.64917 	 53.8304 	 31.2556
| 13> C 	 -8.23171 	 52.2304 	 28.824
| 14> H 	 -7.87502 	 51.7384 	 27.88
| 15> H 	 -9.38058 	 52.2957 	 28.6967
| 16> C 	 -7.69003 	 51.2516 	 29.9123
| 17> H 	 -6.57506 	 51.4441 	 29.9997
| 18> H 	 -8.08542 	 51.3812 	 30.9355
| 19> C 	 -7.86705 	 49.8445 	 29.5415
| 20> H 	 -8.92143 	 49.6282 	 29.3661
| 21> H 	 -7.28497 	 49.5695 	 28.6291
| 22> H 	 -7.49167 	 49.1709 	 30.3446
| 23> S 	 -5.40798 	 57.4621 	 31.2814
| 24> C 	 -5.6312 	 58.2433 	 32.8414
| 25> C 	 -6.80605 	 57.7033 	 33.3977
| 26> C 	 -7.47916 	 56.7101 	 32.6465
| 27> C 	 -6.80984 	 56.4754 	 31.4435
| 28> H 	 -7.04066 	 58.0015 	 34.4323
| 29> C 	 -8.91334 	 56.2243 	 32.9751
| 30> H 	 -8.83759 	 55.7614 	 33.9325
| 31> H 	 -9.14537 	 55.4958 	 32.2029
| 32> C 	 -9.9744 	 57.2817 	 32.9993
| 33> H 	 -10.117 	 57.7332 	 31.9897
| 34> H 	 -9.626 	 58.0933 	 33.6509
| 35> C 	 -11.2587 	 56.7994 	 33.6653
| 36> H 	 -11.184 	 56.4211 	 34.7163
| 37> H 	 -11.7361 	 56.0882 	 33.0067
| 38> H 	 -11.9979 	 57.627 	 33.6291
| 39> H 	 -7.31493 	 54.2297 	 26.9118
| 40> H 	 -5.14722 	 59.09 	 33.266
| 41> *
| 42>
| 43>                          ****END OF INPUT****

CARTESIAN COORDINATES (ANGSTROEM)
---------------------------------
  S     -6.980960   56.033400   28.632500
  C     -7.385350   54.500100   27.989100
  C     -7.741580   53.677200   29.025000
  C     -7.544200   54.278600   30.315600
  C     -7.156600   55.613900   30.303300
  H     -7.649170   53.830400   31.255600
  C     -8.231710   52.230400   28.824000
  H     -7.875020   51.738400   27.880000
  H     -9.380580   52.295700   28.696700
  C     -7.690030   51.251600   29.912300
  H     -6.575060   51.444100   29.999700
  H     -8.085420   51.381200   30.935500
  C     -7.867050   49.844500   29.541500
  H     -8.921430   49.628200   29.366100
  H     -7.284970   49.569500   28.629100
  H     -7.491670   49.170900   30.344600
  S     -5.407980   57.462100   31.281400
  C     -5.631200   58.243300   32.841400
  C     -6.806050   57.703300   33.397700
  C     -7.479160   56.710100   32.646500
  C     -6.809840   56.475400   31.443500
  H     -7.040660   58.001500   34.432300
  C     -8.913340   56.224300   32.975100
  H     -8.837590   55.761400   33.932500
  H     -9.145370   55.495800   32.202900
  C     -9.974400   57.281700   32.999300
  H    -10.117000   57.733200   31.989700
  H     -9.626000   58.093300   33.650900
  C    -11.258700   56.799400   33.665300
  H    -11.184000   56.421100   34.716300
  H    -11.736100   56.088200   33.006700
  H    -11.997900   57.627000   33.629100
  H     -7.314930   54.229700   26.911800
  H     -5.147220   59.090000   33.266000

 Total Charge           Charge          ....    0
 Multiplicity           Mult            ....    1
 Number of Electrons    NEL             ....  134
 Basis Dimension        Dim             ....  322

ORBITAL ENERGIES
----------------

  NO   OCC          E(Eh)            E(eV)
   0   2.0000     -88.968080     -2420.9445
   1   2.0000     -88.962407     -2420.7902
   2   2.0000     -10.330541      -281.1083
   3   2.0000     -10.330417      -281.1049
   4   2.0000     -10.319250      -280.8011
   5   2.0000     -10.314519      -280.6723
   6   2.0000     -10.305641      -280.4308
   7   2.0000     -10.304188      -280.3912
   8   2.0000     -10.302975      -280.3582
   9   2.0000     -10.296858      -280.1917
  10   2.0000     -10.291011      -280.0326
  11   2.0000     -10.289511      -279.9918
  12   2.0000     -10.287814      -279.9457
  13   2.0000     -10.285583      -279.8850
  14   2.0000     -10.281491      -279.7736
  15   2.0000     -10.278697      -279.6976
  16   2.0000      -8.082830      -219.9450
  17   2.0000      -8.078141      -219.8174
  18   2.0000      -6.041259      -164.3910
  19   2.0000      -6.037161      -164.2795
  20   2.0000      -6.036634      -164.2652
  21   2.0000      -6.033815      -164.1885
  22   2.0000      -6.032232      -164.1454
  23   2.0000      -6.029110      -164.0604
  24   2.0000      -1.011265       -27.5179
  25   2.0000      -0.988915       -26.9098
  26   2.0000      -0.913088       -24.8464
  27   2.0000      -0.911103       -24.7924
  28   2.0000      -0.873611       -23.7722
  29   2.0000      -0.852167       -23.1886
  30   2.0000      -0.844749       -22.9868
  31   2.0000      -0.817095       -22.2343
  32   2.0000      -0.779812       -21.2198
  33   2.0000      -0.768770       -20.9193
  34   2.0000      -0.706486       -19.2245
  35   2.0000      -0.695572       -18.9275
  36   2.0000      -0.686350       -18.6765
  37   2.0000      -0.658748       -17.9255
  38   2.0000      -0.644841       -17.5470
  39   2.0000      -0.619527       -16.8582
  40   2.0000      -0.593134       -16.1400
  41   2.0000      -0.571654       -15.5555
  42   2.0000      -0.569042       -15.4844
  43   2.0000      -0.566549       -15.4166
  44   2.0000      -0.529339       -14.4041
  45   2.0000      -0.521806       -14.1991
  46   2.0000      -0.518323       -14.1043
  47   2.0000      -0.510645       -13.8953
  48   2.0000      -0.508460       -13.8359
  49   2.0000      -0.502676       -13.6785
  50   2.0000      -0.499618       -13.5953
  51   2.0000      -0.476194       -12.9579
  52   2.0000      -0.474697       -12.9172
  53   2.0000      -0.467823       -12.7301
  54   2.0000      -0.458827       -12.4853
  55   2.0000      -0.450764       -12.2659
  56   2.0000      -0.439833       -11.9685
  57   2.0000      -0.438804       -11.9405
  58   2.0000      -0.427121       -11.6226
  59   2.0000      -0.422552       -11.4982
  60   2.0000      -0.416278       -11.3275
  61   2.0000      -0.411667       -11.2020
  62   2.0000      -0.405276       -11.0281
  63   2.0000      -0.351549        -9.5661
  64   2.0000      -0.332716        -9.0537
  65   2.0000      -0.326733        -8.8909
  66   2.0000      -0.293288        -7.9808
  67   0.0000       0.026045         0.7087
  68   0.0000       0.080205         2.1825
  69   0.0000       0.121536         3.3072
  70   0.0000       0.123913         3.3718
  71   0.0000       0.134223         3.6524

MULLIKEN ATOMIC CHARGES
-----------------------
   0 S :    0.106096
   1 C :   -0.137148
   2 C :   -0.076210
   3 C :    0.040035
   4 C :   -0.143828
   5 H :   -0.007519
   6 C :    0.026511
   7 H :    0.024516
   8 H :    0.059857
   9 C :   -0.113416
  10 H :    0.044043
  11 H :    0.038855
  12 C :   -0.051400
  13 H :    0.030147
  14 H :    0.033731
  15 H :    0.038463
  16 S :    0.117847
  17 C :   -0.086554
  18 C :   -0.072048
  19 C :   -0.032409
  20 C :   -0.165307
  21 H :    0.028325
  22 C :    0.110316
  23 H :    0.014714
  24 H :    0.018058
  25 C :   -0.085009
  26 H :    0.042625
  27 H :    0.022603
  28 C :   -0.054068
  29 H :    0.048256
  30 H :    0.024352
  31 H :    0.031284
  32 H :    0.070097
  33 H :    0.054182
Sum of atomic charges:    0.0000000

LOEWDIN ATOMIC CHARGES
----------------------
   0 S :    0.426438
   1 C :   -0.214129
   2 C :   -0.072091
   3 C :   -0.063442
   4 C :   -0.202826
   5 H :    0.020096
   6 C :   -0.038759
   7 H :    0.032165
   8 H :    0.042323
   9 C :   -0.056057
  10 H :    0.034440
  11 H :    0.024255
  12 C :   -0.071462
  13 H :    0.023714
  14 H :    0.026369
  15 H :    0.031579
  16 S :    0.425703
  17 C :   -0.190171
  18 C :   -0.071327
  19 C :   -0.061656
  20 C :   -0.205037
  21 H :    0.031983
  22 C :   -0.025698
  23 H :    0.026629
  24 H :    0.028658
  25 C :   -0.044469
  26 H :    0.033646
  27 H :    0.022382
  28 C :   -0.069822
  29 H :    0.032073
  30 H :    0.021550
  31 H :    0.030314
  32 H :    0.043149
  33 H :    0.029481

  Mayer bond orders larger than 0.100000
B(  0-S ,  1-C ) :   1.1544 B(  0-S ,  4-C ) :   1.1673 B(  1-C ,  2-C ) :   1.5808
B(  1-C , 32-H ) :   0.9701 B(  2-C ,  3-C ) :   1.2614 B(  2-C ,  6-C ) :   1.0131
B(  3-C ,  4-C ) :   1.5362 B(  3-C ,  5-H ) :   1.0052 B(  4-C , 20-C ) :   1.0391
B(  6-C ,  7-H ) :   0.9533 B(  6-C ,  8-H ) :   0.9338 B(  6-C ,  9-C ) :   1.0496
B(  9-C , 10-H ) :   0.9571 B(  9-C , 11-H ) :   0.9454 B(  9-C , 12-C ) :   1.1071
B( 12-C , 13-H ) :   0.9702 B( 12-C , 14-H ) :   0.9694 B( 12-C , 15-H ) :   0.9696
B( 16-S , 17-C ) :   1.1521 B( 16-S , 20-C ) :   1.1717 B( 17-C , 18-C ) :   1.5905
B( 17-C , 20-C ) :   0.1069 B( 17-C , 33-H ) :   0.9730 B( 18-C , 19-C ) :   1.2709
B( 18-C , 21-H ) :   0.9788 B( 19-C , 20-C ) :   1.5508 B( 19-C , 22-C ) :   1.0373
B( 22-C , 23-H ) :   0.9252 B( 22-C , 24-H ) :   0.9289 B( 22-C , 25-C ) :   1.0805
B( 25-C , 26-H ) :   0.9511 B( 25-C , 27-H ) :   0.9525 B( 25-C , 28-C ) :   1.0847
B( 28-C , 29-H ) :   0.9726 B( 28-C , 30-H ) :   0.9739 B( 28-C , 31-H ) :   0.9713

Dispersion correction           -0.013382716
FINAL SINGLE POINT ENERGY     -1339.883303922807

DIPOLE MOMENT
-------------
                                X             Y             Z
Electronic contribution:     18.64337      18.77077      -8.70995
Nuclear contribution   :    -19.03610     -19.09931       8.99642
                        -----------------------------------------
Total Dipole Moment    :     -0.39273      -0.32854       0.28647
                        -----------------------------------------
Magnitude (a.u.)       :      0.58672
Magnitude (Debye)      :      1.49133

Rotational constants in cm-1:     0.017121     0.008147     0.006557
Rotational constants in MHz :   513.262868   244.239788   196.570471

                             ****ORCA TERMINATED NORMALLY****
TOTAL RUN TIME: 0 days 0 hours 0 minutes 32 seconds 469 msec
