                         Program Version 4.2.1 -  RELEASE  -
|  1> ! wB97X-D3 SP def2-SVP
|  2> %pal
|  3> nprocs 16
|  4> end
|  5>
|  6> * xyz 0 1
|  7> S 	 36.3489 	 -1.83056 	 78.475
|  8> C 	 36.9347 	 -3.4457 	 78.2912
|  9> C 	 36.2131 	 -4.28942 	 79.1623
| 10> C 	 35.3378 	 -3.52659 	 80.0227
| 11> C 	 35.2009 	 -2.20834 	 79.6826
| 12> H 	 34.8042 	 -3.91624 	 80.8191
| 13> C 	 36.3354 	 -5.82834 	 79.2126
| 14> H 	 36.256 	 -6.20982 	 80.2705
| 15> H 	 37.353 	 -6.16261 	 78.9728
| 16> C 	 35.3995 	 -6.59815 	 78.3683
| 17> H 	 35.7652 	 -6.19366 	 77.4137
| 18> H 	 35.6951 	 -7.67823 	 78.3629
| 19> C 	 33.8687 	 -6.42724 	 78.6333
| 20> H 	 33.4524 	 -6.73756 	 79.5602
| 21> H 	 33.5929 	 -5.36125 	 78.3768
| 22> H 	 33.305 	 -6.97018 	 77.8109
| 23> S 	 32.6471 	 -1.16582 	 79.4202
| 24> C 	 32.2686 	 0.125497 	 80.5765
| 25> C 	 33.1719 	 0.190496 	 81.6654
| 26> C 	 34.3278 	 -0.589429 	 81.3779
| 27> C 	 34.2224 	 -1.27632 	 80.2069
| 28> H 	 33.0233 	 0.914125 	 82.474
| 29> C 	 35.5007 	 -0.536374 	 82.2551
| 30> H 	 35.9023 	 -1.52121 	 82.3655
| 31> H 	 35.17 	 -0.346719 	 83.2403
| 32> C 	 36.4626 	 0.52123 	 81.7384
| 33> H 	 35.9562 	 1.50744 	 81.7986
| 34> H 	 36.6293 	 0.260131 	 80.7141
| 35> C 	 37.7114 	 0.663301 	 82.571
| 36> H 	 38.0672 	 -0.323896 	 82.7664
| 37> H 	 37.4318 	 1.21691 	 83.4273
| 38> H 	 38.4867 	 1.19578 	 82.0131
| 39> H 	 37.6048 	 -3.82499 	 77.5732
| 40> H 	 31.3328 	 0.679971 	 80.5308
| 41> *
| 42>
| 43>                          ****END OF INPUT****

CARTESIAN COORDINATES (ANGSTROEM)
---------------------------------
  S     36.348900   -1.830560   78.475000
  C     36.934700   -3.445700   78.291200
  C     36.213100   -4.289420   79.162300
  C     35.337800   -3.526590   80.022700
  C     35.200900   -2.208340   79.682600
  H     34.804200   -3.916240   80.819100
  C     36.335400   -5.828340   79.212600
  H     36.256000   -6.209820   80.270500
  H     37.353000   -6.162610   78.972800
  C     35.399500   -6.598150   78.368300
  H     35.765200   -6.193660   77.413700
  H     35.695100   -7.678230   78.362900
  C     33.868700   -6.427240   78.633300
  H     33.452400   -6.737560   79.560200
  H     33.592900   -5.361250   78.376800
  H     33.305000   -6.970180   77.810900
  S     32.647100   -1.165820   79.420200
  C     32.268600    0.125497   80.576500
  C     33.171900    0.190496   81.665400
  C     34.327800   -0.589429   81.377900
  C     34.222400   -1.276320   80.206900
  H     33.023300    0.914125   82.474000
  C     35.500700   -0.536374   82.255100
  H     35.902300   -1.521210   82.365500
  H     35.170000   -0.346719   83.240300
  C     36.462600    0.521230   81.738400
  H     35.956200    1.507440   81.798600
  H     36.629300    0.260131   80.714100
  C     37.711400    0.663301   82.571000
  H     38.067200   -0.323896   82.766400
  H     37.431800    1.216910   83.427300
  H     38.486700    1.195780   82.013100
  H     37.604800   -3.824990   77.573200
  H     31.332800    0.679971   80.530800

 Total Charge           Charge          ....    0
 Multiplicity           Mult            ....    1
 Number of Electrons    NEL             ....  134
 Basis Dimension        Dim             ....  322

ORBITAL ENERGIES
----------------

  NO   OCC          E(Eh)            E(eV)
   0   2.0000     -88.968721     -2420.9620
   1   2.0000     -88.965257     -2420.8677
   2   2.0000     -10.323538      -280.9177
   3   2.0000     -10.320531      -280.8359
   4   2.0000     -10.319013      -280.7946
   5   2.0000     -10.313548      -280.6459
   6   2.0000     -10.305365      -280.4233
   7   2.0000     -10.298675      -280.2412
   8   2.0000     -10.295955      -280.1672
   9   2.0000     -10.292792      -280.0811
  10   2.0000     -10.288456      -279.9631
  11   2.0000     -10.286716      -279.9158
  12   2.0000     -10.283835      -279.8374
  13   2.0000     -10.277582      -279.6672
  14   2.0000     -10.277069      -279.6533
  15   2.0000     -10.266976      -279.3786
  16   2.0000      -8.082878      -219.9463
  17   2.0000      -8.080582      -219.8838
  18   2.0000      -6.041325      -164.3928
  19   2.0000      -6.038942      -164.3280
  20   2.0000      -6.037744      -164.2954
  21   2.0000      -6.034800      -164.2153
  22   2.0000      -6.033465      -164.1789
  23   2.0000      -6.031648      -164.1295
  24   2.0000      -1.010059       -27.4851
  25   2.0000      -0.985124       -26.8066
  26   2.0000      -0.917854       -24.9761
  27   2.0000      -0.912764       -24.8376
  28   2.0000      -0.867234       -23.5986
  29   2.0000      -0.855970       -23.2921
  30   2.0000      -0.840463       -22.8702
  31   2.0000      -0.811951       -22.0943
  32   2.0000      -0.786882       -21.4122
  33   2.0000      -0.773882       -21.0584
  34   2.0000      -0.702569       -19.1179
  35   2.0000      -0.695117       -18.9151
  36   2.0000      -0.691509       -18.8169
  37   2.0000      -0.665626       -18.1126
  38   2.0000      -0.646845       -17.6016
  39   2.0000      -0.613075       -16.6826
  40   2.0000      -0.597407       -16.2563
  41   2.0000      -0.576225       -15.6799
  42   2.0000      -0.572590       -15.5810
  43   2.0000      -0.547727       -14.9044
  44   2.0000      -0.541395       -14.7321
  45   2.0000      -0.525793       -14.3076
  46   2.0000      -0.521935       -14.2026
  47   2.0000      -0.509474       -13.8635
  48   2.0000      -0.508801       -13.8452
  49   2.0000      -0.501595       -13.6491
  50   2.0000      -0.487262       -13.2591
  51   2.0000      -0.477260       -12.9869
  52   2.0000      -0.476268       -12.9599
  53   2.0000      -0.464267       -12.6334
  54   2.0000      -0.459856       -12.5133
  55   2.0000      -0.448983       -12.2175
  56   2.0000      -0.436309       -11.8726
  57   2.0000      -0.433594       -11.7987
  58   2.0000      -0.429934       -11.6991
  59   2.0000      -0.425425       -11.5764
  60   2.0000      -0.418333       -11.3834
  61   2.0000      -0.413631       -11.2555
  62   2.0000      -0.405071       -11.0226
  63   2.0000      -0.336148        -9.1470
  64   2.0000      -0.327754        -8.9186
  65   2.0000      -0.318007        -8.6534
  66   2.0000      -0.311449        -8.4750
  67   0.0000       0.041714         1.1351
  68   0.0000       0.054396         1.4802
  69   0.0000       0.101714         2.7678
  70   0.0000       0.117312         3.1922
  71   0.0000       0.134451         3.6586

MULLIKEN ATOMIC CHARGES
-----------------------
   0 S :    0.124413
   1 C :   -0.094719
   2 C :   -0.110956
   3 C :    0.085552
   4 C :   -0.199639
   5 H :   -0.020457
   6 C :    0.043596
   7 H :    0.020856
   8 H :    0.019988
   9 C :   -0.064305
  10 H :    0.014486
  11 H :    0.036594
  12 C :   -0.064604
  13 H :    0.039052
  14 H :    0.046341
  15 H :    0.036944
  16 S :    0.122432
  17 C :   -0.103663
  18 C :   -0.036724
  19 C :   -0.046909
  20 C :   -0.173015
  21 H :    0.030778
  22 C :    0.151710
  23 H :    0.007741
  24 H :   -0.008784
  25 C :   -0.090611
  26 H :    0.024658
  27 H :    0.013456
  28 C :    0.027075
  29 H :    0.019617
  30 H :    0.022685
  31 H :    0.033697
  32 H :    0.033885
  33 H :    0.058830
Sum of atomic charges:    0.0000000

LOEWDIN ATOMIC CHARGES
----------------------
   0 S :    0.439999
   1 C :   -0.203280
   2 C :   -0.058603
   3 C :   -0.052037
   4 C :   -0.215638
   5 H :    0.018239
   6 C :   -0.043201
   7 H :    0.027094
   8 H :    0.030590
   9 C :   -0.049064
  10 H :    0.025989
  11 H :    0.028486
  12 C :   -0.074050
  13 H :    0.019601
  14 H :    0.035577
  15 H :    0.035245
  16 S :    0.394462
  17 C :   -0.169656
  18 C :   -0.067365
  19 C :   -0.045404
  20 C :   -0.206099
  21 H :    0.035809
  22 C :   -0.028910
  23 H :    0.027106
  24 H :    0.022015
  25 C :   -0.031928
  26 H :    0.027267
  27 H :    0.013029
  28 C :   -0.054508
  29 H :    0.020811
  30 H :    0.021054
  31 H :    0.029767
  32 H :    0.021982
  33 H :    0.025617

  Mayer bond orders larger than 0.100000
B(  0-S ,  1-C ) :   1.1599 B(  0-S ,  4-C ) :   1.1658 B(  1-C ,  2-C ) :   1.5794
B(  1-C , 32-H ) :   0.9767 B(  2-C ,  3-C ) :   1.2525 B(  2-C ,  6-C ) :   1.0161
B(  3-C ,  4-C ) :   1.5724 B(  3-C ,  5-H ) :   1.0072 B(  4-C , 20-C ) :   1.0133
B(  6-C ,  7-H ) :   0.9413 B(  6-C ,  8-H ) :   0.9438 B(  6-C ,  9-C ) :   1.0721
B(  9-C , 10-H ) :   0.9538 B(  9-C , 11-H ) :   0.9537 B(  9-C , 12-C ) :   1.0716
B( 12-C , 13-H ) :   0.9783 B( 12-C , 14-H ) :   0.9693 B( 12-C , 15-H ) :   0.9727
B( 16-S , 17-C ) :   1.1578 B( 16-S , 20-C ) :   1.1272 B( 17-C , 18-C ) :   1.6139
B( 17-C , 33-H ) :   0.9663 B( 18-C , 19-C ) :   1.2297 B( 18-C , 21-H ) :   0.9855
B( 19-C , 20-C ) :   1.6274 B( 19-C , 22-C ) :   1.0595 B( 22-C , 23-H ) :   0.9039
B( 22-C , 24-H ) :   0.9158 B( 22-C , 25-C ) :   1.0646 B( 25-C , 26-H ) :   0.9563
B( 25-C , 27-H ) :   0.9525 B( 25-C , 28-C ) :   1.0847 B( 28-C , 29-H ) :   0.9722
B( 28-C , 30-H ) :   0.9744 B( 28-C , 31-H ) :   0.9717

Dispersion correction           -0.015221380
FINAL SINGLE POINT ENERGY     -1339.866629742602

DIPOLE MOMENT
-------------
                                X             Y             Z
Electronic contribution:     -8.32437       9.50578      -8.57611
Nuclear contribution   :      8.36140      -9.70003       8.94761
                        -----------------------------------------
Total Dipole Moment    :      0.03703      -0.19424       0.37150
                        -----------------------------------------
Magnitude (a.u.)       :      0.42085
Magnitude (Debye)      :      1.06971

Rotational constants in cm-1:     0.019475     0.009121     0.007300
Rotational constants in MHz :   583.837666   273.455642   218.836845

                             ****ORCA TERMINATED NORMALLY****
TOTAL RUN TIME: 0 days 0 hours 0 minutes 30 seconds 905 msec
