                         Program Version 4.2.1 -  RELEASE  -
|  1> ! wB97X-D3 SP def2-SVP
|  2> %pal
|  3> nprocs 16
|  4> end
|  5>
|  6> * xyz 0 1
|  7> S 	 -48.9185 	 65.8192 	 130.564
|  8> C 	 -48.9433 	 64.181 	 130.007
|  9> C 	 -48.133 	 63.3826 	 130.741
| 10> C 	 -47.3081 	 64.1076 	 131.627
| 11> C 	 -47.5547 	 65.4713 	 131.617
| 12> H 	 -46.5015 	 63.6866 	 132.207
| 13> C 	 -48.1564 	 61.8745 	 130.826
| 14> H 	 -49.1513 	 61.4976 	 130.571
| 15> H 	 -48.0339 	 61.7369 	 131.909
| 16> C 	 -47.0427 	 61.1403 	 130.008
| 17> H 	 -47.1079 	 60.0344 	 130.166
| 18> H 	 -47.1249 	 61.2838 	 128.969
| 19> C 	 -45.6398 	 61.5676 	 130.407
| 20> H 	 -45.5116 	 61.2589 	 131.438
| 21> H 	 -44.949 	 61.0782 	 129.777
| 22> H 	 -45.4334 	 62.6277 	 130.247
| 23> S 	 -46.3961 	 67.9288 	 131.314
| 24> C 	 -45.7751 	 68.7794 	 132.674
| 25> C 	 -45.8424 	 68.0016 	 133.836
| 26> C 	 -46.439 	 66.6945 	 133.66
| 27> C 	 -46.8844 	 66.534 	 132.336
| 28> H 	 -45.4932 	 68.3726 	 134.811
| 29> C 	 -46.3384 	 65.6632 	 134.769
| 30> H 	 -45.6735 	 66.0541 	 135.506
| 31> H 	 -45.7778 	 64.808 	 134.343
| 32> C 	 -47.6059 	 65.2425 	 135.466
| 33> H 	 -48.303 	 64.7084 	 134.779
| 34> H 	 -48.1183 	 66.1709 	 135.732
| 35> C 	 -47.362 	 64.4641 	 136.776
| 36> H 	 -47.1028 	 63.4361 	 136.619
| 37> H 	 -48.2024 	 64.4674 	 137.503
| 38> H 	 -46.4985 	 64.8317 	 137.318
| 39> H 	 -49.704 	 63.7891 	 129.306
| 40> H 	 -45.3401 	 69.7709 	 132.515
| 41> *
| 42>
| 43>                          ****END OF INPUT****

CARTESIAN COORDINATES (ANGSTROEM)
---------------------------------
  S    -48.918500   65.819200  130.564000
  C    -48.943300   64.181000  130.007000
  C    -48.133000   63.382600  130.741000
  C    -47.308100   64.107600  131.627000
  C    -47.554700   65.471300  131.617000
  H    -46.501500   63.686600  132.207000
  C    -48.156400   61.874500  130.826000
  H    -49.151300   61.497600  130.571000
  H    -48.033900   61.736900  131.909000
  C    -47.042700   61.140300  130.008000
  H    -47.107900   60.034400  130.166000
  H    -47.124900   61.283800  128.969000
  C    -45.639800   61.567600  130.407000
  H    -45.511600   61.258900  131.438000
  H    -44.949000   61.078200  129.777000
  H    -45.433400   62.627700  130.247000
  S    -46.396100   67.928800  131.314000
  C    -45.775100   68.779400  132.674000
  C    -45.842400   68.001600  133.836000
  C    -46.439000   66.694500  133.660000
  C    -46.884400   66.534000  132.336000
  H    -45.493200   68.372600  134.811000
  C    -46.338400   65.663200  134.769000
  H    -45.673500   66.054100  135.506000
  H    -45.777800   64.808000  134.343000
  C    -47.605900   65.242500  135.466000
  H    -48.303000   64.708400  134.779000
  H    -48.118300   66.170900  135.732000
  C    -47.362000   64.464100  136.776000
  H    -47.102800   63.436100  136.619000
  H    -48.202400   64.467400  137.503000
  H    -46.498500   64.831700  137.318000
  H    -49.704000   63.789100  129.306000
  H    -45.340100   69.770900  132.515000

 Total Charge           Charge          ....    0
 Multiplicity           Mult            ....    1
 Number of Electrons    NEL             ....  134
 Basis Dimension        Dim             ....  322

ORBITAL ENERGIES
----------------

  NO   OCC          E(Eh)            E(eV)
   0   2.0000     -88.964436     -2420.8454
   1   2.0000     -88.964194     -2420.8388
   2   2.0000     -10.329986      -281.0932
   3   2.0000     -10.327710      -281.0313
   4   2.0000     -10.319702      -280.8134
   5   2.0000     -10.309536      -280.5367
   6   2.0000     -10.309533      -280.5366
   7   2.0000     -10.299510      -280.2639
   8   2.0000     -10.294028      -280.1147
   9   2.0000     -10.293021      -280.0873
  10   2.0000     -10.292870      -280.0832
  11   2.0000     -10.289650      -279.9956
  12   2.0000     -10.287920      -279.9485
  13   2.0000     -10.285994      -279.8961
  14   2.0000     -10.278602      -279.6950
  15   2.0000     -10.270374      -279.4711
  16   2.0000      -8.079458      -219.8532
  17   2.0000      -8.078993      -219.8406
  18   2.0000      -6.037890      -164.2993
  19   2.0000      -6.037446      -164.2873
  20   2.0000      -6.034025      -164.1942
  21   2.0000      -6.033391      -164.1769
  22   2.0000      -6.030168      -164.0892
  23   2.0000      -6.029896      -164.0818
  24   2.0000      -1.006633       -27.3919
  25   2.0000      -0.982888       -26.7457
  26   2.0000      -0.912596       -24.8330
  27   2.0000      -0.910538       -24.7770
  28   2.0000      -0.868549       -23.6344
  29   2.0000      -0.852801       -23.2059
  30   2.0000      -0.846159       -23.0252
  31   2.0000      -0.810296       -22.0493
  32   2.0000      -0.785308       -21.3693
  33   2.0000      -0.772160       -21.0115
  34   2.0000      -0.708812       -19.2878
  35   2.0000      -0.702456       -19.1148
  36   2.0000      -0.691047       -18.8043
  37   2.0000      -0.664049       -18.0697
  38   2.0000      -0.637974       -17.3602
  39   2.0000      -0.616385       -16.7727
  40   2.0000      -0.596317       -16.2266
  41   2.0000      -0.570377       -15.5208
  42   2.0000      -0.564849       -15.3703
  43   2.0000      -0.546252       -14.8643
  44   2.0000      -0.541026       -14.7221
  45   2.0000      -0.524023       -14.2594
  46   2.0000      -0.518328       -14.1044
  47   2.0000      -0.517001       -14.0683
  48   2.0000      -0.504123       -13.7179
  49   2.0000      -0.494741       -13.4626
  50   2.0000      -0.490169       -13.3382
  51   2.0000      -0.476003       -12.9527
  52   2.0000      -0.472123       -12.8471
  53   2.0000      -0.465502       -12.6670
  54   2.0000      -0.456445       -12.4205
  55   2.0000      -0.449306       -12.2262
  56   2.0000      -0.441899       -12.0247
  57   2.0000      -0.439802       -11.9676
  58   2.0000      -0.434849       -11.8328
  59   2.0000      -0.430407       -11.7120
  60   2.0000      -0.423618       -11.5272
  61   2.0000      -0.415804       -11.3146
  62   2.0000      -0.414588       -11.2815
  63   2.0000      -0.346042        -9.4163
  64   2.0000      -0.332842        -9.0571
  65   2.0000      -0.326520        -8.8851
  66   2.0000      -0.289320        -7.8728
  67   0.0000       0.027058         0.7363
  68   0.0000       0.071173         1.9367
  69   0.0000       0.106634         2.9017
  70   0.0000       0.108200         2.9443
  71   0.0000       0.140599         3.8259

MULLIKEN ATOMIC CHARGES
-----------------------
   0 S :    0.114691
   1 C :   -0.135067
   2 C :   -0.087170
   3 C :    0.018906
   4 C :   -0.144605
   5 H :    0.006781
   6 C :    0.063638
   7 H :    0.022680
   8 H :    0.030849
   9 C :   -0.057777
  10 H :    0.034668
  11 H :    0.020148
  12 C :   -0.049664
  13 H :    0.026853
  14 H :    0.020718
  15 H :    0.047429
  16 S :    0.103921
  17 C :   -0.101652
  18 C :   -0.045178
  19 C :   -0.021951
  20 C :   -0.172596
  21 H :    0.026269
  22 C :    0.071878
  23 H :   -0.000385
  24 H :    0.035906
  25 C :   -0.065609
  26 H :    0.045471
  27 H :    0.028297
  28 C :   -0.044100
  29 H :    0.022515
  30 H :    0.042024
  31 H :    0.016414
  32 H :    0.054861
  33 H :    0.070835
Sum of atomic charges:   -0.0000000

LOEWDIN ATOMIC CHARGES
----------------------
   0 S :    0.409249
   1 C :   -0.205570
   2 C :   -0.072186
   3 C :   -0.064235
   4 C :   -0.193999
   5 H :    0.028738
   6 C :   -0.027732
   7 H :    0.028630
   8 H :    0.034340
   9 C :   -0.035223
  10 H :    0.028457
  11 H :    0.016512
  12 C :   -0.062705
  13 H :    0.022113
  14 H :    0.021172
  15 H :    0.028396
  16 S :    0.405743
  17 C :   -0.196953
  18 C :   -0.076003
  19 C :   -0.049197
  20 C :   -0.188269
  21 H :    0.032222
  22 C :   -0.031562
  23 H :    0.025947
  24 H :    0.033792
  25 C :   -0.041960
  26 H :    0.030206
  27 H :    0.027331
  28 C :   -0.069086
  29 H :    0.021016
  30 H :    0.031829
  31 H :    0.022387
  32 H :    0.034218
  33 H :    0.032383

  Mayer bond orders larger than 0.100000
B(  0-S ,  1-C ) :   1.1348 B(  0-S ,  4-C ) :   1.1579 B(  1-C ,  2-C ) :   1.6302
B(  1-C , 32-H ) :   0.9611 B(  2-C ,  3-C ) :   1.2423 B(  2-C ,  6-C ) :   0.9950
B(  3-C ,  4-C ) :   1.5625 B(  3-C ,  5-H ) :   0.9961 B(  4-C , 20-C ) :   1.0549
B(  6-C ,  7-H ) :   0.9448 B(  6-C ,  8-H ) :   0.9496 B(  6-C ,  9-C ) :   1.0639
B(  9-C , 10-H ) :   0.9575 B(  9-C , 11-H ) :   0.9571 B(  9-C , 12-C ) :   1.0914
B( 12-C , 13-H ) :   0.9756 B( 12-C , 14-H ) :   0.9689 B( 12-C , 15-H ) :   0.9673
B( 16-S , 17-C ) :   1.1689 B( 16-S , 20-C ) :   1.1476 B( 17-C , 18-C ) :   1.5731
B( 17-C , 20-C ) :   0.1051 B( 17-C , 33-H ) :   0.9687 B( 18-C , 19-C ) :   1.2563
B( 18-C , 21-H ) :   0.9836 B( 19-C , 20-C ) :   1.5754 B( 19-C , 22-C ) :   1.0385
B( 22-C , 23-H ) :   0.9270 B( 22-C , 24-H ) :   0.9327 B( 22-C , 25-C ) :   1.0652
B( 25-C , 26-H ) :   0.9555 B( 25-C , 27-H ) :   0.9535 B( 25-C , 28-C ) :   1.0770
B( 28-C , 29-H ) :   0.9742 B( 28-C , 30-H ) :   0.9773 B( 28-C , 31-H ) :   0.9721

Dispersion correction           -0.014335977
FINAL SINGLE POINT ENERGY     -1339.891610872957

DIPOLE MOMENT
-------------
                                X             Y             Z
Electronic contribution:     -5.19782      23.10560     -14.22772
Nuclear contribution   :      5.41529     -23.59168      14.60549
                        -----------------------------------------
Total Dipole Moment    :      0.21747      -0.48608       0.37778
                        -----------------------------------------
Magnitude (a.u.)       :      0.65290
Magnitude (Debye)      :      1.65955

Rotational constants in cm-1:     0.016336     0.009441     0.007317
Rotational constants in MHz :   489.751830   283.039109   219.359639

                             ****ORCA TERMINATED NORMALLY****
TOTAL RUN TIME: 0 days 0 hours 0 minutes 35 seconds 182 msec
