                         Program Version 4.2.1 -  RELEASE  -
|  1> ! wB97X-D3 SP def2-SVP
|  2> %pal
|  3> nprocs 16
|  4> end
|  5>
|  6> * xyz 0 1
|  7> S 	 45.8525 	 13.0477 	 76.4252
|  8> C 	 45.3062 	 12.4764 	 78.0414
|  9> C 	 45.9813 	 13.1596 	 79.0172
| 10> C 	 46.8569 	 14.1477 	 78.5192
| 11> C 	 46.854 	 14.2265 	 77.1633
| 12> H 	 47.3327 	 14.9109 	 79.0692
| 13> C 	 45.8967 	 12.8705 	 80.5531
| 14> H 	 46.9387 	 13.1426 	 80.9027
| 15> H 	 45.7255 	 11.7839 	 80.4591
| 16> C 	 44.708 	 13.5615 	 81.3044
| 17> H 	 43.758 	 13.2061 	 80.977
| 18> H 	 44.7298 	 13.3331 	 82.3557
| 19> C 	 44.7807 	 15.0507 	 81.2685
| 20> H 	 44.856 	 15.4376 	 80.3216
| 21> H 	 43.9262 	 15.4235 	 81.7725
| 22> H 	 45.684 	 15.5107 	 81.6977
| 23> S 	 48.9585 	 14.5266 	 75.4326
| 24> C 	 49.1432 	 16.0418 	 74.5785
| 25> C 	 48.4177 	 17.0333 	 75.2156
| 26> C 	 47.6507 	 16.6092 	 76.3898
| 27> C 	 47.6496 	 15.1786 	 76.406
| 28> H 	 48.61 	 18.0364 	 74.8554
| 29> C 	 46.7421 	 17.5766 	 77.1938
| 30> H 	 45.9332 	 17.0026 	 77.5696
| 31> H 	 46.1977 	 18.2172 	 76.4546
| 32> C 	 47.3618 	 18.4233 	 78.2582
| 33> H 	 47.9901 	 17.8158 	 78.9323
| 34> H 	 46.5924 	 18.8323 	 78.8748
| 35> C 	 48.1648 	 19.5783 	 77.7223
| 36> H 	 47.5699 	 20.2835 	 77.1007
| 37> H 	 48.9207 	 19.1004 	 77.114
| 38> H 	 48.4663 	 20.0818 	 78.6003
| 39> H 	 44.5991 	 11.6636 	 78.2079
| 40> H 	 49.8249 	 16.2856 	 73.7764
| 41> *
| 42>
| 43>                          ****END OF INPUT****

CARTESIAN COORDINATES (ANGSTROEM)
---------------------------------
  S     45.852500   13.047700   76.425200
  C     45.306200   12.476400   78.041400
  C     45.981300   13.159600   79.017200
  C     46.856900   14.147700   78.519200
  C     46.854000   14.226500   77.163300
  H     47.332700   14.910900   79.069200
  C     45.896700   12.870500   80.553100
  H     46.938700   13.142600   80.902700
  H     45.725500   11.783900   80.459100
  C     44.708000   13.561500   81.304400
  H     43.758000   13.206100   80.977000
  H     44.729800   13.333100   82.355700
  C     44.780700   15.050700   81.268500
  H     44.856000   15.437600   80.321600
  H     43.926200   15.423500   81.772500
  H     45.684000   15.510700   81.697700
  S     48.958500   14.526600   75.432600
  C     49.143200   16.041800   74.578500
  C     48.417700   17.033300   75.215600
  C     47.650700   16.609200   76.389800
  C     47.649600   15.178600   76.406000
  H     48.610000   18.036400   74.855400
  C     46.742100   17.576600   77.193800
  H     45.933200   17.002600   77.569600
  H     46.197700   18.217200   76.454600
  C     47.361800   18.423300   78.258200
  H     47.990100   17.815800   78.932300
  H     46.592400   18.832300   78.874800
  C     48.164800   19.578300   77.722300
  H     47.569900   20.283500   77.100700
  H     48.920700   19.100400   77.114000
  H     48.466300   20.081800   78.600300
  H     44.599100   11.663600   78.207900
  H     49.824900   16.285600   73.776400

 Total Charge           Charge          ....    0
 Multiplicity           Mult            ....    1
 Number of Electrons    NEL             ....  134
 Basis Dimension        Dim             ....  322

ORBITAL ENERGIES
----------------

  NO   OCC          E(Eh)            E(eV)
   0   2.0000     -88.967276     -2420.9227
   1   2.0000     -88.964827     -2420.8560
   2   2.0000     -10.331029      -281.1216
   3   2.0000     -10.323063      -280.9048
   4   2.0000     -10.316846      -280.7357
   5   2.0000     -10.314889      -280.6824
   6   2.0000     -10.314803      -280.6800
   7   2.0000     -10.302556      -280.3468
   8   2.0000     -10.299644      -280.2676
   9   2.0000     -10.295233      -280.1475
  10   2.0000     -10.290890      -280.0294
  11   2.0000     -10.285394      -279.8798
  12   2.0000     -10.284664      -279.8599
  13   2.0000     -10.281182      -279.7652
  14   2.0000     -10.272789      -279.5368
  15   2.0000     -10.265118      -279.3281
  16   2.0000      -8.081886      -219.9193
  17   2.0000      -8.079466      -219.8534
  18   2.0000      -6.040418      -164.3681
  19   2.0000      -6.038020      -164.3029
  20   2.0000      -6.036402      -164.2589
  21   2.0000      -6.034028      -164.1942
  22   2.0000      -6.032623      -164.1560
  23   2.0000      -6.030137      -164.0884
  24   2.0000      -1.007661       -27.4198
  25   2.0000      -0.980598       -26.6834
  26   2.0000      -0.916289       -24.9335
  27   2.0000      -0.910985       -24.7892
  28   2.0000      -0.871249       -23.7079
  29   2.0000      -0.851731       -23.1768
  30   2.0000      -0.845143       -22.9975
  31   2.0000      -0.815991       -22.2042
  32   2.0000      -0.786594       -21.4043
  33   2.0000      -0.773907       -21.0591
  34   2.0000      -0.709493       -19.3063
  35   2.0000      -0.706760       -19.2319
  36   2.0000      -0.688634       -18.7387
  37   2.0000      -0.653957       -17.7951
  38   2.0000      -0.641451       -17.4548
  39   2.0000      -0.613569       -16.6961
  40   2.0000      -0.593510       -16.1502
  41   2.0000      -0.570431       -15.5222
  42   2.0000      -0.561899       -15.2901
  43   2.0000      -0.555681       -15.1208
  44   2.0000      -0.551093       -14.9960
  45   2.0000      -0.543875       -14.7996
  46   2.0000      -0.519693       -14.1416
  47   2.0000      -0.513069       -13.9613
  48   2.0000      -0.501799       -13.6546
  49   2.0000      -0.500437       -13.6176
  50   2.0000      -0.486218       -13.2307
  51   2.0000      -0.479802       -13.0561
  52   2.0000      -0.473892       -12.8952
  53   2.0000      -0.467724       -12.7274
  54   2.0000      -0.462918       -12.5966
  55   2.0000      -0.444843       -12.1048
  56   2.0000      -0.439777       -11.9669
  57   2.0000      -0.437114       -11.8945
  58   2.0000      -0.434530       -11.8242
  59   2.0000      -0.432707       -11.7746
  60   2.0000      -0.420726       -11.4485
  61   2.0000      -0.412172       -11.2158
  62   2.0000      -0.407464       -11.0877
  63   2.0000      -0.337302        -9.1785
  64   2.0000      -0.333473        -9.0743
  65   2.0000      -0.326171        -8.8756
  66   2.0000      -0.298683        -8.1276
  67   0.0000       0.030484         0.8295
  68   0.0000       0.064255         1.7485
  69   0.0000       0.108014         2.9392
  70   0.0000       0.114527         3.1164
  71   0.0000       0.125272         3.4088

MULLIKEN ATOMIC CHARGES
-----------------------
   0 S :    0.118638
   1 C :   -0.141557
   2 C :   -0.088646
   3 C :    0.051844
   4 C :   -0.160813
   5 H :   -0.007008
   6 C :    0.034531
   7 H :    0.045285
   8 H :    0.034679
   9 C :   -0.008216
  10 H :    0.017183
  11 H :    0.024941
  12 C :   -0.025407
  13 H :    0.010454
  14 H :    0.027428
  15 H :    0.017341
  16 S :    0.115065
  17 C :   -0.086952
  18 C :   -0.055770
  19 C :   -0.004252
  20 C :   -0.195341
  21 H :    0.021147
  22 C :    0.055002
  23 H :    0.014736
  24 H :    0.029132
  25 C :   -0.056302
  26 H :    0.026766
  27 H :    0.018498
  28 C :   -0.029674
  29 H :    0.028731
  30 H :    0.035322
  31 H :    0.029766
  32 H :    0.048792
  33 H :    0.054656
Sum of atomic charges:    0.0000000

LOEWDIN ATOMIC CHARGES
----------------------
   0 S :    0.407531
   1 C :   -0.188977
   2 C :   -0.064118
   3 C :   -0.065709
   4 C :   -0.207986
   5 H :    0.024892
   6 C :   -0.029241
   7 H :    0.038546
   8 H :    0.034707
   9 C :   -0.032465
  10 H :    0.022046
  11 H :    0.025187
  12 C :   -0.060146
  13 H :    0.011316
  14 H :    0.025077
  15 H :    0.027150
  16 S :    0.403760
  17 C :   -0.192861
  18 C :   -0.076067
  19 C :   -0.049460
  20 C :   -0.192699
  21 H :    0.028555
  22 C :   -0.035263
  23 H :    0.026058
  24 H :    0.037168
  25 C :   -0.040937
  26 H :    0.025182
  27 H :    0.020939
  28 C :   -0.058404
  29 H :    0.026259
  30 H :    0.025281
  31 H :    0.023096
  32 H :    0.030145
  33 H :    0.031439

  Mayer bond orders larger than 0.100000
B(  0-S ,  1-C ) :   1.1207 B(  0-S ,  4-C ) :   1.1640 B(  1-C ,  2-C ) :   1.6345
B(  1-C , 32-H ) :   0.9696 B(  2-C ,  3-C ) :   1.2278 B(  2-C ,  6-C ) :   0.9770
B(  3-C ,  4-C ) :   1.5837 B(  3-C ,  5-H ) :   1.0030 B(  4-C , 20-C ) :   1.0252
B(  6-C ,  7-H ) :   0.9508 B(  6-C ,  8-H ) :   0.9444 B(  6-C ,  9-C ) :   1.0709
B(  9-C , 10-H ) :   0.9536 B(  9-C , 11-H ) :   0.9556 B(  9-C , 12-C ) :   1.0818
B( 12-C , 13-H ) :   0.9737 B( 12-C , 14-H ) :   0.9700 B( 12-C , 15-H ) :   0.9706
B( 16-S , 17-C ) :   1.1292 B( 16-S , 20-C ) :   1.1684 B( 17-C , 18-C ) :   1.6427
B( 17-C , 20-C ) :   0.1011 B( 17-C , 33-H ) :   0.9674 B( 18-C , 19-C ) :   1.2129
B( 18-C , 21-H ) :   0.9814 B( 19-C , 20-C ) :   1.5709 B( 19-C , 22-C ) :   1.0326
B( 22-C , 23-H ) :   0.9313 B( 22-C , 24-H ) :   0.9409 B( 22-C , 25-C ) :   1.0788
B( 25-C , 26-H ) :   0.9505 B( 25-C , 27-H ) :   0.9490 B( 25-C , 28-C ) :   1.0815
B( 28-C , 29-H ) :   0.9738 B( 28-C , 30-H ) :   0.9755 B( 28-C , 31-H ) :   0.9715

Dispersion correction           -0.014913460
FINAL SINGLE POINT ENERGY     -1339.858845487773

DIPOLE MOMENT
-------------
                                X             Y             Z
Electronic contribution:      6.81355     -17.56849     -21.89169
Nuclear contribution   :     -7.02751      17.97422      22.43488
                        -----------------------------------------
Total Dipole Moment    :     -0.21396       0.40572       0.54319
                        -----------------------------------------
Magnitude (a.u.)       :      0.71095
Magnitude (Debye)      :      1.80708

Rotational constants in cm-1:     0.017816     0.009652     0.006808
Rotational constants in MHz :   534.124819   289.361249   204.099681

                             ****ORCA TERMINATED NORMALLY****
TOTAL RUN TIME: 0 days 0 hours 0 minutes 31 seconds 15 msec
