                         Program Version 4.2.1 -  RELEASE  -
|  1> ! wB97X-D3 SP def2-SVP
|  2> %pal
|  3> nprocs 16
|  4> end
|  5>
|  6> * xyz 0 1
|  7> S 	 11.3461 	 -20.2571 	 84.5652
|  8> C 	 10.1139 	 -21.5556 	 85.0139
|  9> C 	 8.85762 	 -21.05 	 85.1698
| 10> C 	 8.90385 	 -19.5955 	 85.1882
| 11> C 	 10.0595 	 -19.0285 	 84.777
| 12> H 	 8.09463 	 -18.9142 	 85.3622
| 13> C 	 7.63553 	 -21.7723 	 85.5194
| 14> H 	 7.70482 	 -22.8064 	 85.0375
| 15> H 	 6.84464 	 -21.3603 	 84.9206
| 16> C 	 7.26944 	 -21.9754 	 86.998
| 17> H 	 6.28569 	 -22.5453 	 86.9884
| 18> H 	 8.05411 	 -22.6422 	 87.3526
| 19> C 	 7.21457 	 -20.7441 	 87.9474
| 20> H 	 8.01255 	 -20.0701 	 87.6588
| 21> H 	 6.333 	 -20.1994 	 87.6268
| 22> H 	 7.14195 	 -20.9729 	 89.1055
| 23> S 	 9.88884 	 -16.9533 	 83.2031
| 24> C 	 10.3451 	 -15.4087 	 83.8385
| 25> C 	 10.9256 	 -15.45 	 85.0918
| 26> C 	 10.8788 	 -16.7748 	 85.6092
| 27> C 	 10.2729 	 -17.6346 	 84.7238
| 28> H 	 11.3654 	 -14.5436 	 85.5591
| 29> C 	 11.3185 	 -17.0494 	 87.0069
| 30> H 	 12.132 	 -16.4091 	 87.1772
| 31> H 	 11.7276 	 -18.0127 	 86.9838
| 32> C 	 10.2585 	 -16.7837 	 88.1006
| 33> H 	 10.6661 	 -17.2091 	 89.0412
| 34> H 	 9.30336 	 -17.3988 	 87.8994
| 35> C 	 9.78527 	 -15.3291 	 88.1956
| 36> H 	 9.38118 	 -15.0664 	 89.152
| 37> H 	 9.07428 	 -15.1416 	 87.4664
| 38> H 	 10.5341 	 -14.6382 	 88.0988
| 39> H 	 10.346 	 -22.5757 	 85.0286
| 40> H 	 10.4725 	 -14.5113 	 83.2428
| 41> *
| 42>
| 43>                          ****END OF INPUT****

CARTESIAN COORDINATES (ANGSTROEM)
---------------------------------
  S     11.346100  -20.257100   84.565200
  C     10.113900  -21.555600   85.013900
  C      8.857620  -21.050000   85.169800
  C      8.903850  -19.595500   85.188200
  C     10.059500  -19.028500   84.777000
  H      8.094630  -18.914200   85.362200
  C      7.635530  -21.772300   85.519400
  H      7.704820  -22.806400   85.037500
  H      6.844640  -21.360300   84.920600
  C      7.269440  -21.975400   86.998000
  H      6.285690  -22.545300   86.988400
  H      8.054110  -22.642200   87.352600
  C      7.214570  -20.744100   87.947400
  H      8.012550  -20.070100   87.658800
  H      6.333000  -20.199400   87.626800
  H      7.141950  -20.972900   89.105500
  S      9.888840  -16.953300   83.203100
  C     10.345100  -15.408700   83.838500
  C     10.925600  -15.450000   85.091800
  C     10.878800  -16.774800   85.609200
  C     10.272900  -17.634600   84.723800
  H     11.365400  -14.543600   85.559100
  C     11.318500  -17.049400   87.006900
  H     12.132000  -16.409100   87.177200
  H     11.727600  -18.012700   86.983800
  C     10.258500  -16.783700   88.100600
  H     10.666100  -17.209100   89.041200
  H      9.303360  -17.398800   87.899400
  C      9.785270  -15.329100   88.195600
  H      9.381180  -15.066400   89.152000
  H      9.074280  -15.141600   87.466400
  H     10.534100  -14.638200   88.098800
  H     10.346000  -22.575700   85.028600
  H     10.472500  -14.511300   83.242800

 Total Charge           Charge          ....    0
 Multiplicity           Mult            ....    1
 Number of Electrons    NEL             ....  134
 Basis Dimension        Dim             ....  322

ORBITAL ENERGIES
----------------

  NO   OCC          E(Eh)            E(eV)
   0   2.0000     -88.966664     -2420.9060
   1   2.0000     -88.963552     -2420.8213
   2   2.0000     -10.321222      -280.8547
   3   2.0000     -10.316798      -280.7344
   4   2.0000     -10.313011      -280.6313
   5   2.0000     -10.311412      -280.5878
   6   2.0000     -10.300576      -280.2929
   7   2.0000     -10.296404      -280.1794
   8   2.0000     -10.294940      -280.1396
   9   2.0000     -10.294065      -280.1158
  10   2.0000     -10.293710      -280.1061
  11   2.0000     -10.292919      -280.0846
  12   2.0000     -10.289142      -279.9818
  13   2.0000     -10.286768      -279.9172
  14   2.0000     -10.278615      -279.6953
  15   2.0000     -10.262180      -279.2481
  16   2.0000      -8.082516      -219.9364
  17   2.0000      -8.076386      -219.7696
  18   2.0000      -6.040827      -164.3793
  19   2.0000      -6.036946      -164.2736
  20   2.0000      -6.035200      -164.2262
  21   2.0000      -6.033347      -164.1757
  22   2.0000      -6.031351      -164.1214
  23   2.0000      -6.026732      -163.9957
  24   2.0000      -1.012561       -27.5532
  25   2.0000      -0.979785       -26.6613
  26   2.0000      -0.913631       -24.8612
  27   2.0000      -0.911148       -24.7936
  28   2.0000      -0.871539       -23.7158
  29   2.0000      -0.852478       -23.1971
  30   2.0000      -0.839083       -22.8326
  31   2.0000      -0.816655       -22.2223
  32   2.0000      -0.790687       -21.5157
  33   2.0000      -0.775436       -21.1007
  34   2.0000      -0.711249       -19.3541
  35   2.0000      -0.702848       -19.1255
  36   2.0000      -0.693102       -18.8603
  37   2.0000      -0.664573       -18.0839
  38   2.0000      -0.643481       -17.5100
  39   2.0000      -0.610516       -16.6130
  40   2.0000      -0.592420       -16.1206
  41   2.0000      -0.572763       -15.5857
  42   2.0000      -0.551937       -15.0190
  43   2.0000      -0.547759       -14.9053
  44   2.0000      -0.538932       -14.6651
  45   2.0000      -0.537425       -14.6241
  46   2.0000      -0.519150       -14.1268
  47   2.0000      -0.515317       -14.0225
  48   2.0000      -0.503878       -13.7112
  49   2.0000      -0.491749       -13.3812
  50   2.0000      -0.489611       -13.3230
  51   2.0000      -0.479217       -13.0402
  52   2.0000      -0.474045       -12.8994
  53   2.0000      -0.465173       -12.6580
  54   2.0000      -0.455274       -12.3886
  55   2.0000      -0.448807       -12.2127
  56   2.0000      -0.442932       -12.0528
  57   2.0000      -0.440297       -11.9811
  58   2.0000      -0.433837       -11.8053
  59   2.0000      -0.422997       -11.5103
  60   2.0000      -0.421167       -11.4605
  61   2.0000      -0.415052       -11.2941
  62   2.0000      -0.409001       -11.1295
  63   2.0000      -0.337241        -9.1768
  64   2.0000      -0.328831        -8.9480
  65   2.0000      -0.321660        -8.7528
  66   2.0000      -0.309948        -8.4341
  67   0.0000       0.045212         1.2303
  68   0.0000       0.054606         1.4859
  69   0.0000       0.103326         2.8117
  70   0.0000       0.111122         3.0238
  71   0.0000       0.121798         3.3143

MULLIKEN ATOMIC CHARGES
-----------------------
   0 S :    0.087241
   1 C :   -0.108235
   2 C :   -0.053612
   3 C :    0.021786
   4 C :   -0.138140
   5 H :    0.007471
   6 C :    0.037630
   7 H :    0.029513
   8 H :    0.023623
   9 C :   -0.063367
  10 H :    0.043798
  11 H :    0.026357
  12 C :   -0.075377
  13 H :    0.043739
  14 H :    0.022781
  15 H :    0.067749
  16 S :    0.133529
  17 C :   -0.080376
  18 C :   -0.073020
  19 C :   -0.044729
  20 C :   -0.229898
  21 H :    0.034492
  22 C :    0.164836
  23 H :    0.000432
  24 H :    0.005552
  25 C :   -0.102995
  26 H :    0.036243
  27 H :    0.042078
  28 C :    0.021885
  29 H :    0.020858
  30 H :    0.028450
  31 H :   -0.006566
  32 H :    0.026820
  33 H :    0.049451
Sum of atomic charges:   -0.0000000

LOEWDIN ATOMIC CHARGES
----------------------
   0 S :    0.336731
   1 C :   -0.147885
   2 C :   -0.063714
   3 C :   -0.056259
   4 C :   -0.187756
   5 H :    0.028210
   6 C :   -0.044385
   7 H :    0.042794
   8 H :    0.027922
   9 C :   -0.040161
  10 H :    0.032096
  11 H :    0.022135
  12 C :   -0.080204
  13 H :    0.025498
  14 H :    0.022265
  15 H :    0.046299
  16 S :    0.441534
  17 C :   -0.195317
  18 C :   -0.072105
  19 C :   -0.050072
  20 C :   -0.220155
  21 H :    0.039277
  22 C :   -0.024813
  23 H :    0.024495
  24 H :    0.023847
  25 C :   -0.034588
  26 H :    0.025864
  27 H :    0.032214
  28 C :   -0.054983
  29 H :    0.028715
  30 H :    0.021508
  31 H :    0.009861
  32 H :    0.015523
  33 H :    0.025608

  Mayer bond orders larger than 0.100000
B(  0-S ,  1-C ) :   1.1027 B(  0-S ,  4-C ) :   1.0861 B(  1-C ,  2-C ) :   1.6670
B(  1-C , 32-H ) :   0.9733 B(  2-C ,  3-C ) :   1.1518 B(  2-C ,  6-C ) :   1.0436
B(  3-C ,  4-C ) :   1.6768 B(  3-C ,  5-H ) :   0.9835 B(  4-C , 20-C ) :   1.0375
B(  6-C ,  7-H ) :   0.9317 B(  6-C ,  8-H ) :   0.9307 B(  6-C ,  9-C ) :   1.0642
B(  9-C , 10-H ) :   0.9549 B(  9-C , 11-H ) :   0.9546 B(  9-C , 12-C ) :   1.0705
B( 12-C , 13-H ) :   0.9699 B( 12-C , 14-H ) :   0.9728 B( 12-C , 15-H ) :   0.9720
B( 16-S , 17-C ) :   1.1605 B( 16-S , 20-C ) :   1.1656 B( 17-C , 18-C ) :   1.6201
B( 17-C , 33-H ) :   0.9611 B( 18-C , 19-C ) :   1.2386 B( 18-C , 21-H ) :   0.9824
B( 19-C , 20-C ) :   1.5979 B( 19-C , 22-C ) :   1.0460 B( 22-C , 23-H ) :   0.9229
B( 22-C , 24-H ) :   0.9112 B( 22-C , 25-C ) :   1.0723 B( 25-C , 26-H ) :   0.9596
B( 25-C , 27-H ) :   0.9571 B( 25-C , 28-C ) :   1.0710 B( 28-C , 29-H ) :   0.9678
B( 28-C , 30-H ) :   0.9705 B( 28-C , 31-H ) :   0.9711

Dispersion correction           -0.015754249
FINAL SINGLE POINT ENERGY     -1339.857972686220

DIPOLE MOMENT
-------------
                                X             Y             Z
Electronic contribution:     11.86538       0.45773     -23.14998
Nuclear contribution   :    -12.10833      -0.36686      23.56917
                        -----------------------------------------
Total Dipole Moment    :     -0.24295       0.09086       0.41919
                        -----------------------------------------
Magnitude (a.u.)       :      0.49295
Magnitude (Debye)      :      1.25298

Rotational constants in cm-1:     0.018510     0.009682     0.007774
Rotational constants in MHz :   554.921349   290.272083   233.069021

                             ****ORCA TERMINATED NORMALLY****
TOTAL RUN TIME: 0 days 0 hours 0 minutes 36 seconds 60 msec
