                         Program Version 4.2.1 -  RELEASE  -
|  1> ! wB97X-D3 SP def2-SVP
|  2> %pal
|  3> nprocs 16
|  4> end
|  5>
|  6> * xyz 0 1
|  7> S 	 -35.8005 	 -0.496467 	 103.594
|  8> C 	 -35.7625 	 -2.15765 	 103.947
|  9> C 	 -35.1588 	 -2.87234 	 102.938
| 10> C 	 -34.5493 	 -2.05733 	 101.914
| 11> C 	 -34.8897 	 -0.698921 	 102.127
| 12> H 	 -33.782 	 -2.35459 	 101.256
| 13> C 	 -35.0246 	 -4.40052 	 102.971
| 14> H 	 -35.4171 	 -4.70094 	 103.918
| 15> H 	 -33.9367 	 -4.47035 	 102.944
| 16> C 	 -35.6538 	 -5.09499 	 101.709
| 17> H 	 -35.2006 	 -4.71909 	 100.794
| 18> H 	 -35.2182 	 -6.10188 	 101.609
| 19> C 	 -37.1899 	 -4.97101 	 101.787
| 20> H 	 -37.5714 	 -4.0147 	 102.038
| 21> H 	 -37.6453 	 -5.21731 	 100.826
| 22> H 	 -37.5994 	 -5.68515 	 102.383
| 23> S 	 -33.157 	 1.25444 	 102.667
| 24> C 	 -32.5149 	 2.21488 	 101.388
| 25> C 	 -33.0586 	 1.89291 	 100.155
| 26> C 	 -33.9855 	 0.852462 	 100.273
| 27> C 	 -34.1453 	 0.372956 	 101.581
| 28> H 	 -32.6817 	 2.46029 	 99.382
| 29> C 	 -34.7329 	 0.429588 	 98.9806
| 30> H 	 -34.9978 	 1.39939 	 98.4674
| 31> H 	 -35.6855 	 0.0862366 	 99.3304
| 32> C 	 -34.047 	 -0.638534 	 98.0911
| 33> H 	 -34.7172 	 -0.853555 	 97.2285
| 34> H 	 -34.0354 	 -1.5263 	 98.7426
| 35> C 	 -32.6623 	 -0.234401 	 97.4958
| 36> H 	 -32.0563 	 -0.00172883 	 98.3132
| 37> H 	 -32.702 	 0.566644 	 96.8161
| 38> H 	 -32.2458 	 -1.02674 	 96.8817
| 39> H 	 -36.1892 	 -2.6724 	 104.791
| 40> H 	 -31.8145 	 3.04974 	 101.509
| 41> *
| 42>
| 43>                          ****END OF INPUT****

CARTESIAN COORDINATES (ANGSTROEM)
---------------------------------
  S    -35.800500   -0.496467  103.594000
  C    -35.762500   -2.157650  103.947000
  C    -35.158800   -2.872340  102.938000
  C    -34.549300   -2.057330  101.914000
  C    -34.889700   -0.698921  102.127000
  H    -33.782000   -2.354590  101.256000
  C    -35.024600   -4.400520  102.971000
  H    -35.417100   -4.700940  103.918000
  H    -33.936700   -4.470350  102.944000
  C    -35.653800   -5.094990  101.709000
  H    -35.200600   -4.719090  100.794000
  H    -35.218200   -6.101880  101.609000
  C    -37.189900   -4.971010  101.787000
  H    -37.571400   -4.014700  102.038000
  H    -37.645300   -5.217310  100.826000
  H    -37.599400   -5.685150  102.383000
  S    -33.157000    1.254440  102.667000
  C    -32.514900    2.214880  101.388000
  C    -33.058600    1.892910  100.155000
  C    -33.985500    0.852462  100.273000
  C    -34.145300    0.372956  101.581000
  H    -32.681700    2.460290   99.382000
  C    -34.732900    0.429588   98.980600
  H    -34.997800    1.399390   98.467400
  H    -35.685500    0.086237   99.330400
  C    -34.047000   -0.638534   98.091100
  H    -34.717200   -0.853555   97.228500
  H    -34.035400   -1.526300   98.742600
  C    -32.662300   -0.234401   97.495800
  H    -32.056300   -0.001729   98.313200
  H    -32.702000    0.566644   96.816100
  H    -32.245800   -1.026740   96.881700
  H    -36.189200   -2.672400  104.791000
  H    -31.814500    3.049740  101.509000

 Total Charge           Charge          ....    0
 Multiplicity           Mult            ....    1
 Number of Electrons    NEL             ....  134
 Basis Dimension        Dim             ....  322

ORBITAL ENERGIES
----------------

  NO   OCC          E(Eh)            E(eV)
   0   2.0000     -88.967737     -2420.9352
   1   2.0000     -88.963787     -2420.8277
   2   2.0000     -10.326455      -280.9971
   3   2.0000     -10.318791      -280.7886
   4   2.0000     -10.310559      -280.5646
   5   2.0000     -10.308364      -280.5048
   6   2.0000     -10.299595      -280.2662
   7   2.0000     -10.298601      -280.2392
   8   2.0000     -10.296721      -280.1880
   9   2.0000     -10.292291      -280.0675
  10   2.0000     -10.291550      -280.0473
  11   2.0000     -10.291320      -280.0410
  12   2.0000     -10.290209      -280.0108
  13   2.0000     -10.282058      -279.7890
  14   2.0000     -10.268742      -279.4267
  15   2.0000     -10.267145      -279.3832
  16   2.0000      -8.083410      -219.9608
  17   2.0000      -8.079599      -219.8571
  18   2.0000      -6.041813      -164.4061
  19   2.0000      -6.037821      -164.2975
  20   2.0000      -6.037698      -164.2941
  21   2.0000      -6.034295      -164.2015
  22   2.0000      -6.033871      -164.1900
  23   2.0000      -6.030661      -164.1026
  24   2.0000      -1.014667       -27.6105
  25   2.0000      -0.988550       -26.8998
  26   2.0000      -0.909169       -24.7398
  27   2.0000      -0.900040       -24.4913
  28   2.0000      -0.875125       -23.8134
  29   2.0000      -0.849839       -23.1253
  30   2.0000      -0.845416       -23.0049
  31   2.0000      -0.814779       -22.1713
  32   2.0000      -0.785306       -21.3693
  33   2.0000      -0.773856       -21.0577
  34   2.0000      -0.718890       -19.5620
  35   2.0000      -0.702959       -19.1285
  36   2.0000      -0.688903       -18.7460
  37   2.0000      -0.662821       -18.0363
  38   2.0000      -0.643213       -17.5027
  39   2.0000      -0.618525       -16.8309
  40   2.0000      -0.585248       -15.9254
  41   2.0000      -0.568850       -15.4792
  42   2.0000      -0.555816       -15.1245
  43   2.0000      -0.549281       -14.9467
  44   2.0000      -0.540821       -14.7165
  45   2.0000      -0.539941       -14.6925
  46   2.0000      -0.516223       -14.0471
  47   2.0000      -0.514565       -14.0020
  48   2.0000      -0.506150       -13.7731
  49   2.0000      -0.497800       -13.5458
  50   2.0000      -0.491656       -13.3786
  51   2.0000      -0.477782       -13.0011
  52   2.0000      -0.470027       -12.7901
  53   2.0000      -0.468841       -12.7578
  54   2.0000      -0.461273       -12.5519
  55   2.0000      -0.455555       -12.3963
  56   2.0000      -0.446151       -12.1404
  57   2.0000      -0.437474       -11.9043
  58   2.0000      -0.430976       -11.7275
  59   2.0000      -0.426759       -11.6127
  60   2.0000      -0.419756       -11.4221
  61   2.0000      -0.409937       -11.1550
  62   2.0000      -0.407962       -11.1012
  63   2.0000      -0.347754        -9.4629
  64   2.0000      -0.330639        -8.9971
  65   2.0000      -0.323039        -8.7903
  66   2.0000      -0.291930        -7.9438
  67   0.0000       0.031300         0.8517
  68   0.0000       0.070478         1.9178
  69   0.0000       0.119134         3.2418
  70   0.0000       0.127568         3.4713
  71   0.0000       0.130938         3.5630

MULLIKEN ATOMIC CHARGES
-----------------------
   0 S :    0.119899
   1 C :   -0.108809
   2 C :   -0.137686
   3 C :    0.048230
   4 C :   -0.166663
   5 H :    0.020535
   6 C :    0.081833
   7 H :    0.006703
   8 H :    0.031795
   9 C :   -0.059038
  10 H :    0.016909
  11 H :    0.022945
  12 C :    0.011240
  13 H :    0.035752
  14 H :    0.018996
  15 H :    0.007791
  16 S :    0.129318
  17 C :   -0.115390
  18 C :   -0.015842
  19 C :   -0.040877
  20 C :   -0.158970
  21 H :   -0.011881
  22 C :    0.063854
  23 H :    0.031640
  24 H :    0.015553
  25 C :   -0.070399
  26 H :    0.035174
  27 H :    0.026839
  28 C :   -0.014840
  29 H :    0.032009
  30 H :    0.015613
  31 H :    0.030137
  32 H :    0.041392
  33 H :    0.056237
Sum of atomic charges:    0.0000000

LOEWDIN ATOMIC CHARGES
----------------------
   0 S :    0.433999
   1 C :   -0.221070
   2 C :   -0.062938
   3 C :   -0.046217
   4 C :   -0.205299
   5 H :    0.025577
   6 C :   -0.024396
   7 H :    0.021202
   8 H :    0.033177
   9 C :   -0.039592
  10 H :    0.021991
  11 H :    0.027003
  12 C :   -0.053959
  13 H :    0.025397
  14 H :    0.029420
  15 H :    0.014014
  16 S :    0.439504
  17 C :   -0.197739
  18 C :   -0.068257
  19 C :   -0.059482
  20 C :   -0.221529
  21 H :    0.021648
  22 C :   -0.032637
  23 H :    0.033884
  24 H :    0.025481
  25 C :   -0.036723
  26 H :    0.027050
  27 H :    0.024255
  28 C :   -0.058585
  29 H :    0.018422
  30 H :    0.018874
  31 H :    0.028780
  32 H :    0.028613
  33 H :    0.030135

  Mayer bond orders larger than 0.100000
B(  0-S ,  1-C ) :   1.1376 B(  0-S ,  4-C ) :   1.1678 B(  1-C ,  2-C ) :   1.6072
B(  1-C , 32-H ) :   0.9660 B(  2-C ,  3-C ) :   1.2467 B(  2-C ,  6-C ) :   1.0131
B(  3-C ,  4-C ) :   1.5402 B(  3-C ,  5-H ) :   0.9887 B(  4-C , 20-C ) :   1.0501
B(  6-C ,  7-H ) :   0.9474 B(  6-C ,  8-H ) :   0.9357 B(  6-C ,  9-C ) :   1.0716
B(  9-C , 10-H ) :   0.9566 B(  9-C , 11-H ) :   0.9564 B(  9-C , 12-C ) :   1.0561
B( 12-C , 13-H ) :   0.9792 B( 12-C , 14-H ) :   0.9705 B( 12-C , 15-H ) :   0.9742
B( 16-S , 17-C ) :   1.1771 B( 16-S , 20-C ) :   1.1625 B( 17-C , 18-C ) :   1.5871
B( 17-C , 20-C ) :   0.1021 B( 17-C , 33-H ) :   0.9633 B( 18-C , 19-C ) :   1.2503
B( 18-C , 21-H ) :   1.0117 B( 19-C , 20-C ) :   1.5657 B( 19-C , 22-C ) :   1.0212
B( 22-C , 23-H ) :   0.9459 B( 22-C , 24-H ) :   0.9315 B( 22-C , 25-C ) :   1.0671
B( 25-C , 26-H ) :   0.9552 B( 25-C , 27-H ) :   0.9546 B( 25-C , 28-C ) :   1.0753
B( 28-C , 29-H ) :   0.9749 B( 28-C , 30-H ) :   0.9738 B( 28-C , 31-H ) :   0.9725

Dispersion correction           -0.014879227
FINAL SINGLE POINT ENERGY     -1339.861432620380

DIPOLE MOMENT
-------------
                                X             Y             Z
Electronic contribution:      2.11307      18.38624      19.45421
Nuclear contribution   :     -1.96271     -18.78604     -19.77447
                        -----------------------------------------
Total Dipole Moment    :      0.15036      -0.39980      -0.32026
                        -----------------------------------------
Magnitude (a.u.)       :      0.53386
Magnitude (Debye)      :      1.35698

Rotational constants in cm-1:     0.019114     0.009320     0.006941
Rotational constants in MHz :   573.014261   279.416329   208.092987

                             ****ORCA TERMINATED NORMALLY****
TOTAL RUN TIME: 0 days 0 hours 0 minutes 30 seconds 835 msec
