                         Program Version 4.2.1 -  RELEASE  -
|  1> ! wB97X-D3 SP def2-SVP
|  2> %pal
|  3> nprocs 16
|  4> end
|  5>
|  6> * xyz 0 1
|  7> S 	 -15.8659 	 54.8048 	 59.1898
|  8> C 	 -16.1185 	 53.2589 	 58.3648
|  9> C 	 -14.8822 	 52.534 	 58.3586
| 10> C 	 -13.8257 	 53.2436 	 58.9837
| 11> C 	 -14.2414 	 54.3995 	 59.6388
| 12> H 	 -12.8432 	 52.8676 	 59.0183
| 13> C 	 -14.6474 	 51.2647 	 57.6591
| 14> H 	 -15.5702 	 50.8543 	 57.2937
| 15> H 	 -14.3101 	 50.5506 	 58.3743
| 16> C 	 -13.69 	 51.3781 	 56.4315
| 17> H 	 -14.1768 	 51.9116 	 55.6006
| 18> H 	 -12.7981 	 51.8985 	 56.7505
| 19> C 	 -13.1945 	 49.9878 	 55.835
| 20> H 	 -12.5703 	 50.1311 	 54.93
| 21> H 	 -12.6112 	 49.3151 	 56.4456
| 22> H 	 -14.0419 	 49.381 	 55.3979
| 23> S 	 -11.6256 	 54.7969 	 60.7391
| 24> C 	 -11.2854 	 56.3311 	 61.4727
| 25> C 	 -12.4299 	 56.9563 	 61.8158
| 26> C 	 -13.6657 	 56.3774 	 61.1962
| 27> C 	 -13.36 	 55.2069 	 60.4807
| 28> H 	 -12.3963 	 57.8589 	 62.3378
| 29> C 	 -15.0161 	 56.8977 	 61.469
| 30> H 	 -15.5479 	 56.0376 	 61.7391
| 31> H 	 -15.2969 	 57.2054 	 60.4947
| 32> C 	 -15.049 	 58.0573 	 62.5449
| 33> H 	 -14.336 	 58.8712 	 62.2943
| 34> H 	 -14.6357 	 57.6803 	 63.4708
| 35> C 	 -16.4428 	 58.6156 	 62.7082
| 36> H 	 -17.04 	 57.7556 	 63.12
| 37> H 	 -16.8995 	 59.0127 	 61.7577
| 38> H 	 -16.4461 	 59.3254 	 63.5314
| 39> H 	 -17.0681 	 52.8736 	 57.9926
| 40> H 	 -10.2713 	 56.6533 	 61.8784
| 41> *
| 42>
| 43>                          ****END OF INPUT****

CARTESIAN COORDINATES (ANGSTROEM)
---------------------------------
  S    -15.865900   54.804800   59.189800
  C    -16.118500   53.258900   58.364800
  C    -14.882200   52.534000   58.358600
  C    -13.825700   53.243600   58.983700
  C    -14.241400   54.399500   59.638800
  H    -12.843200   52.867600   59.018300
  C    -14.647400   51.264700   57.659100
  H    -15.570200   50.854300   57.293700
  H    -14.310100   50.550600   58.374300
  C    -13.690000   51.378100   56.431500
  H    -14.176800   51.911600   55.600600
  H    -12.798100   51.898500   56.750500
  C    -13.194500   49.987800   55.835000
  H    -12.570300   50.131100   54.930000
  H    -12.611200   49.315100   56.445600
  H    -14.041900   49.381000   55.397900
  S    -11.625600   54.796900   60.739100
  C    -11.285400   56.331100   61.472700
  C    -12.429900   56.956300   61.815800
  C    -13.665700   56.377400   61.196200
  C    -13.360000   55.206900   60.480700
  H    -12.396300   57.858900   62.337800
  C    -15.016100   56.897700   61.469000
  H    -15.547900   56.037600   61.739100
  H    -15.296900   57.205400   60.494700
  C    -15.049000   58.057300   62.544900
  H    -14.336000   58.871200   62.294300
  H    -14.635700   57.680300   63.470800
  C    -16.442800   58.615600   62.708200
  H    -17.040000   57.755600   63.120000
  H    -16.899500   59.012700   61.757700
  H    -16.446100   59.325400   63.531400
  H    -17.068100   52.873600   57.992600
  H    -10.271300   56.653300   61.878400

 Total Charge           Charge          ....    0
 Multiplicity           Mult            ....    1
 Number of Electrons    NEL             ....  134
 Basis Dimension        Dim             ....  322

ORBITAL ENERGIES
----------------

  NO   OCC          E(Eh)            E(eV)
   0   2.0000     -88.972311     -2421.0597
   1   2.0000     -88.962476     -2420.7921
   2   2.0000     -10.333769      -281.1962
   3   2.0000     -10.330493      -281.1070
   4   2.0000     -10.319625      -280.8113
   5   2.0000     -10.318227      -280.7732
   6   2.0000     -10.306808      -280.4625
   7   2.0000     -10.301722      -280.3241
   8   2.0000     -10.294463      -280.1266
   9   2.0000     -10.293357      -280.0965
  10   2.0000     -10.289658      -279.9958
  11   2.0000     -10.286908      -279.9210
  12   2.0000     -10.286159      -279.9006
  13   2.0000     -10.285200      -279.8745
  14   2.0000     -10.284999      -279.8691
  15   2.0000     -10.284687      -279.8606
  16   2.0000      -8.085853      -220.0273
  17   2.0000      -8.076627      -219.7762
  18   2.0000      -6.044499      -164.4792
  19   2.0000      -6.040395      -164.3675
  20   2.0000      -6.036687      -164.2666
  21   2.0000      -6.035494      -164.2342
  22   2.0000      -6.031416      -164.1232
  23   2.0000      -6.026863      -163.9993
  24   2.0000      -1.002864       -27.2893
  25   2.0000      -0.979878       -26.6638
  26   2.0000      -0.914893       -24.8955
  27   2.0000      -0.908954       -24.7339
  28   2.0000      -0.867492       -23.6057
  29   2.0000      -0.852663       -23.2022
  30   2.0000      -0.843286       -22.9470
  31   2.0000      -0.813261       -22.1300
  32   2.0000      -0.782848       -21.3024
  33   2.0000      -0.767257       -20.8781
  34   2.0000      -0.711347       -19.3567
  35   2.0000      -0.706899       -19.2357
  36   2.0000      -0.693361       -18.8673
  37   2.0000      -0.655551       -17.8385
  38   2.0000      -0.632666       -17.2157
  39   2.0000      -0.618964       -16.8429
  40   2.0000      -0.594220       -16.1695
  41   2.0000      -0.576157       -15.6780
  42   2.0000      -0.565213       -15.3802
  43   2.0000      -0.559687       -15.2299
  44   2.0000      -0.532963       -14.5027
  45   2.0000      -0.522501       -14.2180
  46   2.0000      -0.516217       -14.0470
  47   2.0000      -0.513165       -13.9639
  48   2.0000      -0.508163       -13.8278
  49   2.0000      -0.501428       -13.6445
  50   2.0000      -0.483531       -13.1575
  51   2.0000      -0.478822       -13.0294
  52   2.0000      -0.470519       -12.8035
  53   2.0000      -0.466025       -12.6812
  54   2.0000      -0.457033       -12.4365
  55   2.0000      -0.455225       -12.3873
  56   2.0000      -0.450627       -12.2622
  57   2.0000      -0.438424       -11.9301
  58   2.0000      -0.432888       -11.7795
  59   2.0000      -0.424841       -11.5605
  60   2.0000      -0.422169       -11.4878
  61   2.0000      -0.414071       -11.2674
  62   2.0000      -0.409819       -11.1518
  63   2.0000      -0.362356        -9.8602
  64   2.0000      -0.329658        -8.9705
  65   2.0000      -0.322718        -8.7816
  66   2.0000      -0.276670        -7.5286
  67   0.0000       0.017172         0.4673
  68   0.0000       0.086953         2.3661
  69   0.0000       0.107253         2.9185
  70   0.0000       0.116635         3.1738
  71   0.0000       0.133688         3.6378

MULLIKEN ATOMIC CHARGES
-----------------------
   0 S :    0.090480
   1 C :   -0.118032
   2 C :   -0.088590
   3 C :   -0.019388
   4 C :   -0.097986
   5 H :    0.002435
   6 C :    0.105150
   7 H :    0.002070
   8 H :    0.025397
   9 C :   -0.078878
  10 H :    0.043389
  11 H :    0.035422
  12 C :   -0.087396
  13 H :    0.033759
  14 H :    0.034572
  15 H :    0.031818
  16 S :    0.078888
  17 C :   -0.087797
  18 C :   -0.012969
  19 C :   -0.141377
  20 C :   -0.101846
  21 H :   -0.003646
  22 C :    0.097072
  23 H :    0.034996
  24 H :    0.034724
  25 C :   -0.105032
  26 H :    0.037255
  27 H :    0.029085
  28 C :   -0.025375
  29 H :    0.032754
  30 H :    0.054034
  31 H :    0.030628
  32 H :    0.053554
  33 H :    0.080829
Sum of atomic charges:   -0.0000000

LOEWDIN ATOMIC CHARGES
----------------------
   0 S :    0.420639
   1 C :   -0.210377
   2 C :   -0.051220
   3 C :   -0.071084
   4 C :   -0.182761
   5 H :    0.018905
   6 C :   -0.033670
   7 H :    0.025881
   8 H :    0.030205
   9 C :   -0.028097
  10 H :    0.031973
  11 H :    0.021613
  12 C :   -0.079795
  13 H :    0.029547
  14 H :    0.020231
  15 H :    0.027935
  16 S :    0.376905
  17 C :   -0.191746
  18 C :   -0.074985
  19 C :   -0.044984
  20 C :   -0.184099
  21 H :    0.018522
  22 C :   -0.036054
  23 H :    0.026322
  24 H :    0.027700
  25 C :   -0.039370
  26 H :    0.024705
  27 H :    0.024273
  28 C :   -0.068874
  29 H :    0.032420
  30 H :    0.034561
  31 H :    0.025053
  32 H :    0.030856
  33 H :    0.048868

  Mayer bond orders larger than 0.100000
B(  0-S ,  1-C ) :   1.1221 B(  0-S ,  4-C ) :   1.1557 B(  1-C ,  2-C ) :   1.5634
B(  1-C , 32-H ) :   0.9683 B(  2-C ,  3-C ) :   1.2800 B(  2-C ,  6-C ) :   1.0542
B(  3-C ,  4-C ) :   1.5004 B(  3-C ,  5-H ) :   0.9969 B(  4-C , 20-C ) :   1.1301
B(  6-C ,  7-H ) :   0.9331 B(  6-C ,  8-H ) :   0.9313 B(  6-C ,  9-C ) :   1.0528
B(  9-C , 10-H ) :   0.9568 B(  9-C , 11-H ) :   0.9621 B(  9-C , 12-C ) :   1.0713
B( 12-C , 13-H ) :   0.9758 B( 12-C , 14-H ) :   0.9792 B( 12-C , 15-H ) :   0.9761
B( 16-S , 17-C ) :   1.1344 B( 16-S , 20-C ) :   1.1029 B( 17-C , 18-C ) :   1.6484
B( 17-C , 33-H ) :   0.9501 B( 18-C , 19-C ) :   1.2027 B( 18-C , 21-H ) :   0.9915
B( 19-C , 20-C ) :   1.5917 B( 19-C , 22-C ) :   1.0224 B( 22-C , 23-H ) :   0.9325
B( 22-C , 24-H ) :   0.9102 B( 22-C , 25-C ) :   1.0828 B( 25-C , 26-H ) :   0.9484
B( 25-C , 27-H ) :   0.9497 B( 25-C , 28-C ) :   1.0886 B( 28-C , 29-H ) :   0.9700
B( 28-C , 30-H ) :   0.9739 B( 28-C , 31-H ) :   0.9700

Dispersion correction           -0.013257628
FINAL SINGLE POINT ENERGY     -1339.866581823459

DIPOLE MOMENT
-------------
                                X             Y             Z
Electronic contribution:      5.50779       3.31049       4.10550
Nuclear contribution   :     -5.58897      -3.24226      -3.98125
                        -----------------------------------------
Total Dipole Moment    :     -0.08119       0.06823       0.12425
                        -----------------------------------------
Magnitude (a.u.)       :      0.16335
Magnitude (Debye)      :      0.41521

Rotational constants in cm-1:     0.024048     0.007188     0.005641
Rotational constants in MHz :   720.931996   215.504209   169.117181

                             ****ORCA TERMINATED NORMALLY****
TOTAL RUN TIME: 0 days 0 hours 0 minutes 29 seconds 944 msec
