                         Program Version 4.2.1 -  RELEASE  -
|  1> ! wB97X-D3 SP def2-SVP
|  2> %pal
|  3> nprocs 16
|  4> end
|  5>
|  6> * xyz 0 1
|  7> S 	 -57.1844 	 45.7902 	 132.943
|  8> C 	 -55.777 	 45.354 	 133.909
|  9> C 	 -56.1278 	 44.7687 	 135.112
| 10> C 	 -57.5319 	 44.7078 	 135.278
| 11> C 	 -58.265 	 45.343 	 134.239
| 12> H 	 -58.0662 	 44.2085 	 136.099
| 13> C 	 -55.2502 	 44.4896 	 136.282
| 14> H 	 -56.0066 	 44.2844 	 137.088
| 15> H 	 -54.6109 	 45.3676 	 136.447
| 16> C 	 -54.2453 	 43.2912 	 136.098
| 17> H 	 -54.8581 	 42.3826 	 136.159
| 18> H 	 -53.775 	 43.3938 	 135.184
| 19> C 	 -53.33 	 43.2479 	 137.29
| 20> H 	 -52.9276 	 42.2878 	 137.362
| 21> H 	 -52.4959 	 43.9831 	 137.335
| 22> H 	 -53.934 	 43.3844 	 138.173
| 23> S 	 -60.6092 	 46.2904 	 135.323
| 24> C 	 -62.0965 	 46.145 	 134.466
| 25> C 	 -61.8358 	 45.5397 	 133.251
| 26> C 	 -60.5157 	 45.1245 	 133.012
| 27> C 	 -59.6762 	 45.4327 	 134.079
| 28> H 	 -62.6902 	 45.4201 	 132.616
| 29> C 	 -60.121 	 44.5096 	 131.697
| 30> H 	 -59.0098 	 44.2214 	 131.752
| 31> H 	 -60.2232 	 45.2896 	 130.949
| 32> C 	 -60.8302 	 43.1374 	 131.383
| 33> H 	 -61.8897 	 43.2794 	 131.567
| 34> H 	 -60.5297 	 42.397 	 132.088
| 35> C 	 -60.6964 	 42.4999 	 129.969
| 36> H 	 -59.7323 	 41.9897 	 129.844
| 37> H 	 -60.6454 	 43.3386 	 129.265
| 38> H 	 -61.4132 	 41.6684 	 129.668
| 39> H 	 -54.7224 	 45.486 	 133.533
| 40> H 	 -62.9977 	 46.6441 	 134.583
| 41> *
| 42>
| 43>                          ****END OF INPUT****

CARTESIAN COORDINATES (ANGSTROEM)
---------------------------------
  S    -57.184400   45.790200  132.943000
  C    -55.777000   45.354000  133.909000
  C    -56.127800   44.768700  135.112000
  C    -57.531900   44.707800  135.278000
  C    -58.265000   45.343000  134.239000
  H    -58.066200   44.208500  136.099000
  C    -55.250200   44.489600  136.282000
  H    -56.006600   44.284400  137.088000
  H    -54.610900   45.367600  136.447000
  C    -54.245300   43.291200  136.098000
  H    -54.858100   42.382600  136.159000
  H    -53.775000   43.393800  135.184000
  C    -53.330000   43.247900  137.290000
  H    -52.927600   42.287800  137.362000
  H    -52.495900   43.983100  137.335000
  H    -53.934000   43.384400  138.173000
  S    -60.609200   46.290400  135.323000
  C    -62.096500   46.145000  134.466000
  C    -61.835800   45.539700  133.251000
  C    -60.515700   45.124500  133.012000
  C    -59.676200   45.432700  134.079000
  H    -62.690200   45.420100  132.616000
  C    -60.121000   44.509600  131.697000
  H    -59.009800   44.221400  131.752000
  H    -60.223200   45.289600  130.949000
  C    -60.830200   43.137400  131.383000
  H    -61.889700   43.279400  131.567000
  H    -60.529700   42.397000  132.088000
  C    -60.696400   42.499900  129.969000
  H    -59.732300   41.989700  129.844000
  H    -60.645400   43.338600  129.265000
  H    -61.413200   41.668400  129.668000
  H    -54.722400   45.486000  133.533000
  H    -62.997700   46.644100  134.583000

 Total Charge           Charge          ....    0
 Multiplicity           Mult            ....    1
 Number of Electrons    NEL             ....  134
 Basis Dimension        Dim             ....  322

ORBITAL ENERGIES
----------------

  NO   OCC          E(Eh)            E(eV)
   0   2.0000     -88.969976     -2420.9961
   1   2.0000     -88.965203     -2420.8663
   2   2.0000     -10.329786      -281.0878
   3   2.0000     -10.326907      -281.0094
   4   2.0000     -10.318599      -280.7834
   5   2.0000     -10.309780      -280.5434
   6   2.0000     -10.301540      -280.3192
   7   2.0000     -10.298052      -280.2242
   8   2.0000     -10.297353      -280.2052
   9   2.0000     -10.297048      -280.1969
  10   2.0000     -10.293977      -280.1134
  11   2.0000     -10.287335      -279.9326
  12   2.0000     -10.285513      -279.8830
  13   2.0000     -10.283831      -279.8373
  14   2.0000     -10.282207      -279.7931
  15   2.0000     -10.271833      -279.5108
  16   2.0000      -8.084011      -219.9771
  17   2.0000      -8.079827      -219.8633
  18   2.0000      -6.042491      -164.4246
  19   2.0000      -6.038547      -164.3172
  20   2.0000      -6.038342      -164.3117
  21   2.0000      -6.034900      -164.2180
  22   2.0000      -6.034211      -164.1992
  23   2.0000      -6.030699      -164.1037
  24   2.0000      -1.007955       -27.4278
  25   2.0000      -0.985015       -26.8036
  26   2.0000      -0.915844       -24.9214
  27   2.0000      -0.901689       -24.5362
  28   2.0000      -0.874710       -23.8021
  29   2.0000      -0.853781       -23.2326
  30   2.0000      -0.847352       -23.0576
  31   2.0000      -0.809528       -22.0284
  32   2.0000      -0.780596       -21.2411
  33   2.0000      -0.769512       -20.9395
  34   2.0000      -0.709634       -19.3101
  35   2.0000      -0.704722       -19.1765
  36   2.0000      -0.698328       -19.0025
  37   2.0000      -0.660860       -17.9829
  38   2.0000      -0.636352       -17.3160
  39   2.0000      -0.616208       -16.7679
  40   2.0000      -0.592970       -16.1355
  41   2.0000      -0.576520       -15.6879
  42   2.0000      -0.565405       -15.3855
  43   2.0000      -0.558054       -15.1854
  44   2.0000      -0.527528       -14.3548
  45   2.0000      -0.523998       -14.2587
  46   2.0000      -0.514635       -14.0039
  47   2.0000      -0.510890       -13.9020
  48   2.0000      -0.510530       -13.8922
  49   2.0000      -0.505795       -13.7634
  50   2.0000      -0.491479       -13.3738
  51   2.0000      -0.472861       -12.8672
  52   2.0000      -0.470323       -12.7981
  53   2.0000      -0.463851       -12.6220
  54   2.0000      -0.460552       -12.5323
  55   2.0000      -0.453426       -12.3383
  56   2.0000      -0.445957       -12.1351
  57   2.0000      -0.433025       -11.7832
  58   2.0000      -0.431726       -11.7479
  59   2.0000      -0.427601       -11.6356
  60   2.0000      -0.422964       -11.5094
  61   2.0000      -0.415465       -11.3054
  62   2.0000      -0.404681       -11.0119
  63   2.0000      -0.345893        -9.4122
  64   2.0000      -0.332599        -9.0505
  65   2.0000      -0.327621        -8.9150
  66   2.0000      -0.288360        -7.8467
  67   0.0000       0.025818         0.7025
  68   0.0000       0.064110         1.7445
  69   0.0000       0.111676         3.0389
  70   0.0000       0.115979         3.1559
  71   0.0000       0.126529         3.4430

MULLIKEN ATOMIC CHARGES
-----------------------
   0 S :    0.117364
   1 C :   -0.152390
   2 C :   -0.043800
   3 C :    0.003558
   4 C :   -0.167074
   5 H :    0.026534
   6 C :    0.009777
   7 H :    0.034464
   8 H :    0.043352
   9 C :   -0.052161
  10 H :    0.028963
  11 H :    0.017216
  12 C :   -0.012907
  13 H :    0.017049
  14 H :    0.036540
  15 H :    0.017478
  16 S :    0.111201
  17 C :   -0.053321
  18 C :   -0.070759
  19 C :   -0.015121
  20 C :   -0.160514
  21 H :    0.012891
  22 C :    0.045207
  23 H :    0.041495
  24 H :    0.042893
  25 C :   -0.073314
  26 H :    0.022722
  27 H :    0.028151
  28 C :   -0.067593
  29 H :    0.026336
  30 H :    0.029059
  31 H :    0.053080
  32 H :    0.067256
  33 H :    0.036370
Sum of atomic charges:   -0.0000000

LOEWDIN ATOMIC CHARGES
----------------------
   0 S :    0.424886
   1 C :   -0.204749
   2 C :   -0.073275
   3 C :   -0.063640
   4 C :   -0.199718
   5 H :    0.034900
   6 C :   -0.031809
   7 H :    0.036439
   8 H :    0.036321
   9 C :   -0.027724
  10 H :    0.029172
  11 H :    0.011269
  12 C :   -0.062289
  13 H :    0.018244
  14 H :    0.027468
  15 H :    0.025089
  16 S :    0.415585
  17 C :   -0.190472
  18 C :   -0.068677
  19 C :   -0.062930
  20 C :   -0.194553
  21 H :    0.026415
  22 C :   -0.037957
  23 H :    0.029758
  24 H :    0.031939
  25 C :   -0.039723
  26 H :    0.018414
  27 H :    0.023262
  28 C :   -0.077455
  29 H :    0.023308
  30 H :    0.024459
  31 H :    0.038202
  32 H :    0.037533
  33 H :    0.022309

  Mayer bond orders larger than 0.100000
B(  0-S ,  1-C ) :   1.1463 B(  0-S ,  4-C ) :   1.1574 B(  1-C ,  2-C ) :   1.5781
B(  1-C ,  4-C ) :   0.1031 B(  1-C , 32-H ) :   0.9617 B(  2-C ,  3-C ) :   1.2776
B(  2-C ,  6-C ) :   1.0110 B(  3-C ,  4-C ) :   1.5339 B(  3-C ,  5-H ) :   0.9832
B(  4-C , 20-C ) :   1.0657 B(  6-C ,  7-H ) :   0.9433 B(  6-C ,  8-H ) :   0.9470
B(  6-C ,  9-C ) :   1.0596 B(  9-C , 10-H ) :   0.9531 B(  9-C , 11-H ) :   0.9632
B(  9-C , 12-C ) :   1.0900 B( 12-C , 13-H ) :   0.9723 B( 12-C , 14-H ) :   0.9739
B( 12-C , 15-H ) :   0.9679 B( 16-S , 17-C ) :   1.1566 B( 16-S , 20-C ) :   1.1498
B( 17-C , 18-C ) :   1.6051 B( 17-C , 20-C ) :   0.1025 B( 17-C , 33-H ) :   0.9701
B( 18-C , 19-C ) :   1.2529 B( 18-C , 21-H ) :   0.9900 B( 19-C , 20-C ) :   1.5523
B( 19-C , 22-C ) :   1.0456 B( 22-C , 23-H ) :   0.9287 B( 22-C , 24-H ) :   0.9353
B( 22-C , 25-C ) :   1.0494 B( 25-C , 26-H ) :   0.9643 B( 25-C , 27-H ) :   0.9566
B( 25-C , 28-C ) :   1.0702 B( 28-C , 29-H ) :   0.9763 B( 28-C , 30-H ) :   0.9763
B( 28-C , 31-H ) :   0.9748

Dispersion correction           -0.013348513
FINAL SINGLE POINT ENERGY     -1339.867313693530

DIPOLE MOMENT
-------------
                                X             Y             Z
Electronic contribution:    -10.24566      17.33734       2.55245
Nuclear contribution   :     10.40876     -17.62579      -2.62484
                        -----------------------------------------
Total Dipole Moment    :      0.16310      -0.28845      -0.07239
                        -----------------------------------------
Magnitude (a.u.)       :      0.33918
Magnitude (Debye)      :      0.86212

Rotational constants in cm-1:     0.020294     0.007117     0.005986
Rotational constants in MHz :   608.393061   213.349381   179.469837

                             ****ORCA TERMINATED NORMALLY****
TOTAL RUN TIME: 0 days 0 hours 0 minutes 33 seconds 381 msec
