                         Program Version 4.2.1 -  RELEASE  -
|  1> ! wB97X-D3 SP def2-SVP
|  2> %pal
|  3> nprocs 16
|  4> end
|  5>
|  6> * xyz 0 1
|  7> S 	 38.9069 	 22.1423 	 82.7962
|  8> C 	 37.3119 	 22.4004 	 83.5485
|  9> C 	 37.2243 	 23.7336 	 83.8976
| 10> C 	 38.4747 	 24.4283 	 83.7001
| 11> C 	 39.5134 	 23.6931 	 83.1074
| 12> H 	 38.6795 	 25.4335 	 83.9945
| 13> C 	 35.959 	 24.4337 	 84.3311
| 14> H 	 35.0949 	 23.8415 	 84.3223
| 15> H 	 35.7781 	 25.3098 	 83.6225
| 16> C 	 35.9639 	 25.2563 	 85.6441
| 17> H 	 36.2594 	 24.6376 	 86.4914
| 18> H 	 36.718 	 26.0204 	 85.5353
| 19> C 	 34.6185 	 25.8396 	 85.8482
| 20> H 	 33.8079 	 25.1133 	 85.8938
| 21> H 	 34.7432 	 26.4161 	 86.8047
| 22> H 	 34.4288 	 26.4856 	 85.0466
| 23> S 	 42.1652 	 22.9174 	 83.3507
| 24> C 	 43.2814 	 23.7824 	 82.4588
| 25> C 	 42.8084 	 25.0195 	 82.0194
| 26> C 	 41.4237 	 25.1701 	 82.2386
| 27> C 	 40.9046 	 24.0487 	 82.8641
| 28> H 	 43.3595 	 25.5668 	 81.3701
| 29> C 	 40.6447 	 26.3575 	 81.8399
| 30> H 	 39.555 	 26.0633 	 81.8118
| 31> H 	 40.851 	 26.7687 	 80.8581
| 32> C 	 40.6019 	 27.506 	 82.9117
| 33> H 	 40.4797 	 26.9679 	 83.9062
| 34> H 	 39.6865 	 28.0542 	 82.6097
| 35> C 	 41.6787 	 28.5214 	 83.052
| 36> H 	 41.6551 	 29.348 	 83.7301
| 37> H 	 41.7337 	 28.8742 	 82.017
| 38> H 	 42.649 	 28.1851 	 83.2989
| 39> H 	 36.5248 	 21.6075 	 83.5546
| 40> H 	 44.2444 	 23.3475 	 82.2135
| 41> *
| 42>
| 43>                          ****END OF INPUT****

CARTESIAN COORDINATES (ANGSTROEM)
---------------------------------
  S     38.906900   22.142300   82.796200
  C     37.311900   22.400400   83.548500
  C     37.224300   23.733600   83.897600
  C     38.474700   24.428300   83.700100
  C     39.513400   23.693100   83.107400
  H     38.679500   25.433500   83.994500
  C     35.959000   24.433700   84.331100
  H     35.094900   23.841500   84.322300
  H     35.778100   25.309800   83.622500
  C     35.963900   25.256300   85.644100
  H     36.259400   24.637600   86.491400
  H     36.718000   26.020400   85.535300
  C     34.618500   25.839600   85.848200
  H     33.807900   25.113300   85.893800
  H     34.743200   26.416100   86.804700
  H     34.428800   26.485600   85.046600
  S     42.165200   22.917400   83.350700
  C     43.281400   23.782400   82.458800
  C     42.808400   25.019500   82.019400
  C     41.423700   25.170100   82.238600
  C     40.904600   24.048700   82.864100
  H     43.359500   25.566800   81.370100
  C     40.644700   26.357500   81.839900
  H     39.555000   26.063300   81.811800
  H     40.851000   26.768700   80.858100
  C     40.601900   27.506000   82.911700
  H     40.479700   26.967900   83.906200
  H     39.686500   28.054200   82.609700
  C     41.678700   28.521400   83.052000
  H     41.655100   29.348000   83.730100
  H     41.733700   28.874200   82.017000
  H     42.649000   28.185100   83.298900
  H     36.524800   21.607500   83.554600
  H     44.244400   23.347500   82.213500

 Total Charge           Charge          ....    0
 Multiplicity           Mult            ....    1
 Number of Electrons    NEL             ....  134
 Basis Dimension        Dim             ....  322

ORBITAL ENERGIES
----------------

  NO   OCC          E(Eh)            E(eV)
   0   2.0000     -88.967686     -2420.9338
   1   2.0000     -88.960175     -2420.7294
   2   2.0000     -10.327315      -281.0205
   3   2.0000     -10.325145      -280.9615
   4   2.0000     -10.319608      -280.8108
   5   2.0000     -10.313674      -280.6493
   6   2.0000     -10.305069      -280.4152
   7   2.0000     -10.301232      -280.3108
   8   2.0000     -10.295906      -280.1658
   9   2.0000     -10.294799      -280.1357
  10   2.0000     -10.291904      -280.0570
  11   2.0000     -10.290899      -280.0296
  12   2.0000     -10.284882      -279.8659
  13   2.0000     -10.280361      -279.7428
  14   2.0000     -10.275266      -279.6042
  15   2.0000     -10.269981      -279.4604
  16   2.0000      -8.083934      -219.9750
  17   2.0000      -8.075594      -219.7481
  18   2.0000      -6.042207      -164.4168
  19   2.0000      -6.038186      -164.3074
  20   2.0000      -6.034888      -164.2177
  21   2.0000      -6.034098      -164.1962
  22   2.0000      -6.029764      -164.0782
  23   2.0000      -6.026535      -163.9904
  24   2.0000      -1.013608       -27.5817
  25   2.0000      -0.988749       -26.9052
  26   2.0000      -0.919461       -25.0198
  27   2.0000      -0.915168       -24.9030
  28   2.0000      -0.874325       -23.7916
  29   2.0000      -0.862629       -23.4733
  30   2.0000      -0.842346       -22.9214
  31   2.0000      -0.812226       -22.1018
  32   2.0000      -0.791659       -21.5421
  33   2.0000      -0.773733       -21.0544
  34   2.0000      -0.707236       -19.2449
  35   2.0000      -0.696654       -18.9569
  36   2.0000      -0.688515       -18.7354
  37   2.0000      -0.667966       -18.1763
  38   2.0000      -0.643017       -17.4974
  39   2.0000      -0.620073       -16.8731
  40   2.0000      -0.605320       -16.4716
  41   2.0000      -0.577494       -15.7144
  42   2.0000      -0.570447       -15.5226
  43   2.0000      -0.561147       -15.2696
  44   2.0000      -0.544877       -14.8269
  45   2.0000      -0.527809       -14.3624
  46   2.0000      -0.514201       -13.9921
  47   2.0000      -0.511288       -13.9128
  48   2.0000      -0.506545       -13.7838
  49   2.0000      -0.500911       -13.6305
  50   2.0000      -0.495192       -13.4749
  51   2.0000      -0.491613       -13.3775
  52   2.0000      -0.474596       -12.9144
  53   2.0000      -0.471744       -12.8368
  54   2.0000      -0.461212       -12.5502
  55   2.0000      -0.452666       -12.3177
  56   2.0000      -0.447213       -12.1693
  57   2.0000      -0.434604       -11.8262
  58   2.0000      -0.429009       -11.6739
  59   2.0000      -0.421725       -11.4757
  60   2.0000      -0.418678       -11.3928
  61   2.0000      -0.410558       -11.1718
  62   2.0000      -0.406955       -11.0738
  63   2.0000      -0.343381        -9.3439
  64   2.0000      -0.335869        -9.1395
  65   2.0000      -0.321871        -8.7585
  66   2.0000      -0.291275        -7.9260
  67   0.0000       0.026077         0.7096
  68   0.0000       0.078103         2.1253
  69   0.0000       0.110230         2.9995
  70   0.0000       0.114432         3.1138
  71   0.0000       0.130910         3.5622

MULLIKEN ATOMIC CHARGES
-----------------------
   0 S :    0.093055
   1 C :   -0.158635
   2 C :   -0.019448
   3 C :    0.019661
   4 C :   -0.144686
   5 H :   -0.012089
   6 C :    0.035406
   7 H :    0.000415
   8 H :    0.035253
   9 C :   -0.089684
  10 H :    0.029710
  11 H :    0.025498
  12 C :   -0.018573
  13 H :    0.033080
  14 H :    0.043914
  15 H :    0.012302
  16 S :    0.140050
  17 C :   -0.105770
  18 C :    0.018354
  19 C :   -0.000186
  20 C :   -0.170930
  21 H :   -0.021128
  22 C :    0.040550
  23 H :    0.036296
  24 H :    0.023126
  25 C :   -0.117398
  26 H :    0.045610
  27 H :    0.037342
  28 C :    0.005661
  29 H :    0.030668
  30 H :    0.012059
  31 H :    0.010257
  32 H :    0.069315
  33 H :    0.060944
Sum of atomic charges:   -0.0000000

LOEWDIN ATOMIC CHARGES
----------------------
   0 S :    0.414703
   1 C :   -0.196394
   2 C :   -0.062732
   3 C :   -0.071915
   4 C :   -0.209852
   5 H :    0.018935
   6 C :   -0.032544
   7 H :    0.016965
   8 H :    0.041830
   9 C :   -0.040157
  10 H :    0.020431
  11 H :    0.019831
  12 C :   -0.058597
  13 H :    0.025292
  14 H :    0.037829
  15 H :    0.016016
  16 S :    0.441466
  17 C :   -0.199174
  18 C :   -0.062367
  19 C :   -0.048555
  20 C :   -0.201564
  21 H :    0.012895
  22 C :   -0.033737
  23 H :    0.042817
  24 H :    0.026554
  25 C :   -0.042252
  26 H :    0.025876
  27 H :    0.029495
  28 C :   -0.073336
  29 H :    0.028628
  30 H :    0.027274
  31 H :    0.018834
  32 H :    0.039320
  33 H :    0.028188

  Mayer bond orders larger than 0.100000
B(  0-S ,  1-C ) :   1.1327 B(  0-S ,  4-C ) :   1.1760 B(  1-C ,  2-C ) :   1.5748
B(  1-C , 32-H ) :   0.9699 B(  2-C ,  3-C ) :   1.2463 B(  2-C ,  6-C ) :   1.0306
B(  3-C ,  4-C ) :   1.5334 B(  3-C ,  5-H ) :   0.9967 B(  4-C , 20-C ) :   1.0453
B(  6-C ,  7-H ) :   0.9518 B(  6-C ,  8-H ) :   0.9404 B(  6-C ,  9-C ) :   1.0507
B(  9-C , 10-H ) :   0.9547 B(  9-C , 11-H ) :   0.9526 B(  9-C , 12-C ) :   1.0920
B( 12-C , 13-H ) :   0.9730 B( 12-C , 14-H ) :   0.9705 B( 12-C , 15-H ) :   0.9706
B( 16-S , 17-C ) :   1.1915 B( 16-S , 20-C ) :   1.1516 B( 17-C , 18-C ) :   1.5642
B( 17-C , 33-H ) :   0.9672 B( 18-C , 19-C ) :   1.2599 B( 18-C , 21-H ) :   1.0060
B( 19-C , 20-C ) :   1.5653 B( 19-C , 22-C ) :   1.0688 B( 22-C , 23-H ) :   0.9213
B( 22-C , 24-H ) :   0.9339 B( 22-C , 25-C ) :   1.0609 B( 25-C , 26-H ) :   0.9451
B( 25-C , 27-H ) :   0.9601 B( 25-C , 28-C ) :   1.0729 B( 28-C , 29-H ) :   0.9717
B( 28-C , 30-H ) :   0.9699 B( 28-C , 31-H ) :   0.9694

Dispersion correction           -0.013968299
FINAL SINGLE POINT ENERGY     -1339.858159986586

DIPOLE MOMENT
-------------
                                X             Y             Z
Electronic contribution:     15.08744     -25.78989      -6.71662
Nuclear contribution   :    -15.27334      26.33696       6.65697
                        -----------------------------------------
Total Dipole Moment    :     -0.18590       0.54707      -0.05965
                        -----------------------------------------
Magnitude (a.u.)       :      0.58086
Magnitude (Debye)      :      1.47644

Rotational constants in cm-1:     0.018230     0.008789     0.006391
Rotational constants in MHz :   546.520531   263.497384   191.609214

                             ****ORCA TERMINATED NORMALLY****
TOTAL RUN TIME: 0 days 0 hours 0 minutes 30 seconds 260 msec
