                         Program Version 4.2.1 -  RELEASE  -
|  1> ! wB97X-D3 SP def2-SVP
|  2> %pal
|  3> nprocs 16
|  4> end
|  5>
|  6> * xyz 0 1
|  7> S 	 -11.6466 	 63.9043 	 54.64
|  8> C 	 -11.6827 	 62.6437 	 53.4851
|  9> C 	 -10.5404 	 61.9354 	 53.4049
| 10> C 	 -9.52001 	 62.4673 	 54.1782
| 11> C 	 -9.92725 	 63.4932 	 54.9477
| 12> H 	 -8.45398 	 62.1716 	 54.2067
| 13> C 	 -10.3944 	 60.655 	 52.6038
| 14> H 	 -11.0595 	 59.9245 	 52.9968
| 15> H 	 -9.50657 	 60.1341 	 52.9177
| 16> C 	 -10.6005 	 60.7479 	 51.0709
| 17> H 	 -11.4875 	 61.3526 	 50.809
| 18> H 	 -9.66446 	 61.1629 	 50.5932
| 19> C 	 -10.9528 	 59.4046 	 50.4497
| 20> H 	 -11.6855 	 58.768 	 50.9426
| 21> H 	 -11.2515 	 59.5436 	 49.425
| 22> H 	 -10.111 	 58.7746 	 50.2575
| 23> S 	 -7.33611 	 64.4464 	 55.5768
| 24> C 	 -7.0951 	 65.0747 	 57.1502
| 25> C 	 -8.18906 	 65.0394 	 57.9114
| 26> C 	 -9.36695 	 64.6759 	 57.1843
| 27> C 	 -9.05229 	 64.1386 	 55.9292
| 28> H 	 -8.11902 	 65.3365 	 58.9454
| 29> C 	 -10.6939 	 64.665 	 57.897
| 30> H 	 -11.4502 	 65.0889 	 57.2917
| 31> H 	 -10.6596 	 65.282 	 58.8034
| 32> C 	 -11.1519 	 63.2591 	 58.2107
| 33> H 	 -10.3271 	 62.6618 	 58.5134
| 34> H 	 -11.5234 	 62.7845 	 57.2865
| 35> C 	 -12.3201 	 63.1161 	 59.1844
| 36> H 	 -12.5332 	 62.0741 	 59.3439
| 37> H 	 -13.2701 	 63.6035 	 58.9053
| 38> H 	 -12.0275 	 63.4403 	 60.25
| 39> H 	 -12.5548 	 62.3667 	 52.9814
| 40> H 	 -6.07996 	 65.108 	 57.5772
| 41> *
| 42>
| 43>                          ****END OF INPUT****

CARTESIAN COORDINATES (ANGSTROEM)
---------------------------------
  S    -11.646600   63.904300   54.640000
  C    -11.682700   62.643700   53.485100
  C    -10.540400   61.935400   53.404900
  C     -9.520010   62.467300   54.178200
  C     -9.927250   63.493200   54.947700
  H     -8.453980   62.171600   54.206700
  C    -10.394400   60.655000   52.603800
  H    -11.059500   59.924500   52.996800
  H     -9.506570   60.134100   52.917700
  C    -10.600500   60.747900   51.070900
  H    -11.487500   61.352600   50.809000
  H     -9.664460   61.162900   50.593200
  C    -10.952800   59.404600   50.449700
  H    -11.685500   58.768000   50.942600
  H    -11.251500   59.543600   49.425000
  H    -10.111000   58.774600   50.257500
  S     -7.336110   64.446400   55.576800
  C     -7.095100   65.074700   57.150200
  C     -8.189060   65.039400   57.911400
  C     -9.366950   64.675900   57.184300
  C     -9.052290   64.138600   55.929200
  H     -8.119020   65.336500   58.945400
  C    -10.693900   64.665000   57.897000
  H    -11.450200   65.088900   57.291700
  H    -10.659600   65.282000   58.803400
  C    -11.151900   63.259100   58.210700
  H    -10.327100   62.661800   58.513400
  H    -11.523400   62.784500   57.286500
  C    -12.320100   63.116100   59.184400
  H    -12.533200   62.074100   59.343900
  H    -13.270100   63.603500   58.905300
  H    -12.027500   63.440300   60.250000
  H    -12.554800   62.366700   52.981400
  H     -6.079960   65.108000   57.577200

 Total Charge           Charge          ....    0
 Multiplicity           Mult            ....    1
 Number of Electrons    NEL             ....  134
 Basis Dimension        Dim             ....  322

ORBITAL ENERGIES
----------------

  NO   OCC          E(Eh)            E(eV)
   0   2.0000     -88.970027     -2420.9975
   1   2.0000     -88.963355     -2420.8159
   2   2.0000     -10.328282      -281.0468
   3   2.0000     -10.327379      -281.0223
   4   2.0000     -10.307215      -280.4736
   5   2.0000     -10.303500      -280.3725
   6   2.0000     -10.300722      -280.2969
   7   2.0000     -10.295267      -280.1484
   8   2.0000     -10.291711      -280.0517
   9   2.0000     -10.288233      -279.9570
  10   2.0000     -10.286631      -279.9135
  11   2.0000     -10.286288      -279.9041
  12   2.0000     -10.283582      -279.8305
  13   2.0000     -10.278923      -279.7037
  14   2.0000     -10.275807      -279.6189
  15   2.0000     -10.272806      -279.5373
  16   2.0000      -8.084251      -219.9837
  17   2.0000      -8.078421      -219.8250
  18   2.0000      -6.042734      -164.4311
  19   2.0000      -6.038960      -164.3285
  20   2.0000      -6.036972      -164.2744
  21   2.0000      -6.034963      -164.2197
  22   2.0000      -6.032969      -164.1654
  23   2.0000      -6.029047      -164.0587
  24   2.0000      -1.012652       -27.5557
  25   2.0000      -0.992520       -27.0078
  26   2.0000      -0.912459       -24.8293
  27   2.0000      -0.908734       -24.7279
  28   2.0000      -0.874415       -23.7940
  29   2.0000      -0.858108       -23.3503
  30   2.0000      -0.847045       -23.0493
  31   2.0000      -0.818248       -22.2657
  32   2.0000      -0.785597       -21.3772
  33   2.0000      -0.772260       -21.0143
  34   2.0000      -0.708938       -19.2912
  35   2.0000      -0.703823       -19.1520
  36   2.0000      -0.689009       -18.7489
  37   2.0000      -0.666139       -18.1266
  38   2.0000      -0.637216       -17.3395
  39   2.0000      -0.620394       -16.8818
  40   2.0000      -0.601921       -16.3791
  41   2.0000      -0.572366       -15.5749
  42   2.0000      -0.561876       -15.2894
  43   2.0000      -0.557356       -15.1664
  44   2.0000      -0.529915       -14.4197
  45   2.0000      -0.521283       -14.1848
  46   2.0000      -0.514953       -14.0126
  47   2.0000      -0.511219       -13.9110
  48   2.0000      -0.505488       -13.7550
  49   2.0000      -0.500528       -13.6201
  50   2.0000      -0.495716       -13.4891
  51   2.0000      -0.481392       -13.0993
  52   2.0000      -0.473025       -12.8717
  53   2.0000      -0.463174       -12.6036
  54   2.0000      -0.462365       -12.5816
  55   2.0000      -0.448948       -12.2165
  56   2.0000      -0.439781       -11.9671
  57   2.0000      -0.437882       -11.9154
  58   2.0000      -0.432815       -11.7775
  59   2.0000      -0.428640       -11.6639
  60   2.0000      -0.422685       -11.5019
  61   2.0000      -0.417148       -11.3512
  62   2.0000      -0.407220       -11.0810
  63   2.0000      -0.358925        -9.7668
  64   2.0000      -0.335029        -9.1166
  65   2.0000      -0.330249        -8.9865
  66   2.0000      -0.285429        -7.7669
  67   0.0000       0.025887         0.7044
  68   0.0000       0.082312         2.2398
  69   0.0000       0.108013         2.9392
  70   0.0000       0.112756         3.0682
  71   0.0000       0.135931         3.6989

MULLIKEN ATOMIC CHARGES
-----------------------
   0 S :    0.107195
   1 C :   -0.098217
   2 C :   -0.041932
   3 C :   -0.036406
   4 C :   -0.114771
   5 H :    0.027376
   6 C :    0.100974
   7 H :    0.009857
   8 H :    0.002543
   9 C :   -0.076137
  10 H :    0.039309
  11 H :    0.048208
  12 C :   -0.051492
  13 H :    0.034029
  14 H :    0.020648
  15 H :    0.016094
  16 S :    0.095308
  17 C :   -0.081149
  18 C :   -0.041139
  19 C :   -0.068240
  20 C :   -0.143540
  21 H :    0.018748
  22 C :    0.107755
  23 H :    0.010833
  24 H :    0.016489
  25 C :   -0.075438
  26 H :    0.020738
  27 H :    0.032356
  28 C :   -0.056887
  29 H :    0.025945
  30 H :    0.037944
  31 H :    0.026617
  32 H :    0.020145
  33 H :    0.066237
Sum of atomic charges:   -0.0000000

LOEWDIN ATOMIC CHARGES
----------------------
   0 S :    0.410401
   1 C :   -0.189271
   2 C :   -0.067095
   3 C :   -0.065083
   4 C :   -0.172673
   5 H :    0.037554
   6 C :   -0.034388
   7 H :    0.028435
   8 H :    0.028464
   9 C :   -0.037559
  10 H :    0.028399
  11 H :    0.035577
  12 C :   -0.074046
  13 H :    0.024882
  14 H :    0.026237
  15 H :    0.020536
  16 S :    0.402916
  17 C :   -0.202309
  18 C :   -0.071015
  19 C :   -0.054041
  20 C :   -0.182122
  21 H :    0.033250
  22 C :   -0.032693
  23 H :    0.019887
  24 H :    0.031020
  25 C :   -0.042888
  26 H :    0.019814
  27 H :    0.021542
  28 C :   -0.071090
  29 H :    0.024173
  30 H :    0.026181
  31 H :    0.026495
  32 H :    0.015337
  33 H :    0.035173

  Mayer bond orders larger than 0.100000
B(  0-S ,  1-C ) :   1.1337 B(  0-S ,  4-C ) :   1.1265 B(  1-C ,  2-C ) :   1.6323
B(  1-C , 32-H ) :   0.9691 B(  2-C ,  3-C ) :   1.2407 B(  2-C ,  6-C ) :   1.0117
B(  3-C ,  4-C ) :   1.5774 B(  3-C ,  5-H ) :   0.9920 B(  4-C , 20-C ) :   1.0716
B(  6-C ,  7-H ) :   0.9353 B(  6-C ,  8-H ) :   0.9352 B(  6-C ,  9-C ) :   1.0542
B(  9-C , 10-H ) :   0.9639 B(  9-C , 11-H ) :   0.9543 B(  9-C , 12-C ) :   1.0792
B( 12-C , 13-H ) :   0.9753 B( 12-C , 14-H ) :   0.9709 B( 12-C , 15-H ) :   0.9718
B( 16-S , 17-C ) :   1.1455 B( 16-S , 20-C ) :   1.1341 B( 17-C , 18-C ) :   1.6493
B( 17-C , 33-H ) :   0.9519 B( 18-C , 19-C ) :   1.2273 B( 18-C , 21-H ) :   0.9891
B( 19-C , 20-C ) :   1.5681 B( 19-C , 22-C ) :   1.0660 B( 22-C , 23-H ) :   0.9176
B( 22-C , 24-H ) :   0.9345 B( 22-C , 25-C ) :   1.0656 B( 25-C , 26-H ) :   0.9566
B( 25-C , 27-H ) :   0.9434 B( 25-C , 28-C ) :   1.0949 B( 28-C , 29-H ) :   0.9718
B( 28-C , 30-H ) :   0.9733 B( 28-C , 31-H ) :   0.9728

Dispersion correction           -0.014168468
FINAL SINGLE POINT ENERGY     -1339.877112487334

DIPOLE MOMENT
-------------
                                X             Y             Z
Electronic contribution:     11.14691      16.59224       1.67518
Nuclear contribution   :    -11.26126     -17.13385      -1.60383
                        -----------------------------------------
Total Dipole Moment    :     -0.11434      -0.54161       0.07135
                        -----------------------------------------
Magnitude (a.u.)       :      0.55813
Magnitude (Debye)      :      1.41865

Rotational constants in cm-1:     0.021002     0.007827     0.006286
Rotational constants in MHz :   629.631183   234.643260   188.459444

                             ****ORCA TERMINATED NORMALLY****
TOTAL RUN TIME: 0 days 0 hours 0 minutes 33 seconds 651 msec
