                         Program Version 4.2.1 -  RELEASE  -
|  1> ! wB97X-D3 SP def2-SVP
|  2> %pal
|  3> nprocs 16
|  4> end
|  5>
|  6> * xyz 0 1
|  7> S 	 43.4448 	 6.65742 	 84.4682
|  8> C 	 44.2788 	 7.8256 	 83.4296
|  9> C 	 44.428 	 8.96522 	 84.1504
| 10> C 	 43.9779 	 8.92813 	 85.4864
| 11> C 	 43.4126 	 7.72227 	 85.8201
| 12> H 	 44.0945 	 9.74289 	 86.1568
| 13> C 	 45.1327 	 10.1818 	 83.5731
| 14> H 	 44.5524 	 11.0306 	 83.9304
| 15> H 	 45.0081 	 10.0295 	 82.4989
| 16> C 	 46.5928 	 10.3551 	 83.8965
| 17> H 	 47.0375 	 9.43601 	 83.7882
| 18> H 	 47.1197 	 10.9946 	 83.1909
| 19> C 	 46.7274 	 10.9335 	 85.3146
| 20> H 	 47.7433 	 10.7222 	 85.6898
| 21> H 	 46.6378 	 11.9823 	 85.2209
| 22> H 	 46.0329 	 10.6036 	 86.0153
| 23> S 	 41.463 	 6.32205 	 87.0891
| 24> C 	 41.531 	 6.17046 	 88.8326
| 25> C 	 42.5305 	 6.97354 	 89.3169
| 26> C 	 43.3002 	 7.63755 	 88.3896
| 27> C 	 42.8603 	 7.39274 	 87.1063
| 28> H 	 42.5665 	 7.0309 	 90.367
| 29> C 	 44.3623 	 8.6548 	 88.8787
| 30> H 	 44.9367 	 8.95132 	 88.0176
| 31> H 	 44.9885 	 8.05063 	 89.4973
| 32> C 	 43.7192 	 9.98306 	 89.3619
| 33> H 	 43.0001 	 9.76809 	 90.149
| 34> H 	 43.1629 	 10.4181 	 88.4993
| 35> C 	 44.7073 	 11.0206 	 89.8417
| 36> H 	 44.1738 	 11.9727 	 89.7735
| 37> H 	 45.6226 	 11.0866 	 89.199
| 38> H 	 45.0924 	 10.8032 	 90.8397
| 39> H 	 44.4352 	 7.69922 	 82.3643
| 40> H 	 40.7655 	 5.52193 	 89.3373
| 41> *
| 42>
| 43>                          ****END OF INPUT****

CARTESIAN COORDINATES (ANGSTROEM)
---------------------------------
  S     43.444800    6.657420   84.468200
  C     44.278800    7.825600   83.429600
  C     44.428000    8.965220   84.150400
  C     43.977900    8.928130   85.486400
  C     43.412600    7.722270   85.820100
  H     44.094500    9.742890   86.156800
  C     45.132700   10.181800   83.573100
  H     44.552400   11.030600   83.930400
  H     45.008100   10.029500   82.498900
  C     46.592800   10.355100   83.896500
  H     47.037500    9.436010   83.788200
  H     47.119700   10.994600   83.190900
  C     46.727400   10.933500   85.314600
  H     47.743300   10.722200   85.689800
  H     46.637800   11.982300   85.220900
  H     46.032900   10.603600   86.015300
  S     41.463000    6.322050   87.089100
  C     41.531000    6.170460   88.832600
  C     42.530500    6.973540   89.316900
  C     43.300200    7.637550   88.389600
  C     42.860300    7.392740   87.106300
  H     42.566500    7.030900   90.367000
  C     44.362300    8.654800   88.878700
  H     44.936700    8.951320   88.017600
  H     44.988500    8.050630   89.497300
  C     43.719200    9.983060   89.361900
  H     43.000100    9.768090   90.149000
  H     43.162900   10.418100   88.499300
  C     44.707300   11.020600   89.841700
  H     44.173800   11.972700   89.773500
  H     45.622600   11.086600   89.199000
  H     45.092400   10.803200   90.839700
  H     44.435200    7.699220   82.364300
  H     40.765500    5.521930   89.337300

 Total Charge           Charge          ....    0
 Multiplicity           Mult            ....    1
 Number of Electrons    NEL             ....  134
 Basis Dimension        Dim             ....  322

ORBITAL ENERGIES
----------------

  NO   OCC          E(Eh)            E(eV)
   0   2.0000     -88.963509     -2420.8201
   1   2.0000     -88.962615     -2420.7958
   2   2.0000     -10.326242      -280.9913
   3   2.0000     -10.325120      -280.9608
   4   2.0000     -10.319884      -280.8183
   5   2.0000     -10.310671      -280.5676
   6   2.0000     -10.299644      -280.2676
   7   2.0000     -10.293406      -280.0978
   8   2.0000     -10.293203      -280.0923
   9   2.0000     -10.293082      -280.0890
  10   2.0000     -10.286009      -279.8965
  11   2.0000     -10.285414      -279.8803
  12   2.0000     -10.284674      -279.8602
  13   2.0000     -10.283132      -279.8182
  14   2.0000     -10.276412      -279.6354
  15   2.0000     -10.270496      -279.4744
  16   2.0000      -8.078428      -219.8252
  17   2.0000      -8.077643      -219.8038
  18   2.0000      -6.037016      -164.2756
  19   2.0000      -6.035972      -164.2471
  20   2.0000      -6.032785      -164.1604
  21   2.0000      -6.032080      -164.1413
  22   2.0000      -6.029206      -164.0630
  23   2.0000      -6.028616      -164.0470
  24   2.0000      -1.013562       -27.5804
  25   2.0000      -0.990218       -26.9452
  26   2.0000      -0.918566       -24.9954
  27   2.0000      -0.910929       -24.7876
  28   2.0000      -0.874477       -23.7957
  29   2.0000      -0.857513       -23.3341
  30   2.0000      -0.844318       -22.9751
  31   2.0000      -0.817601       -22.2481
  32   2.0000      -0.786452       -21.4005
  33   2.0000      -0.774416       -21.0729
  34   2.0000      -0.709687       -19.3116
  35   2.0000      -0.706913       -19.2361
  36   2.0000      -0.697499       -18.9799
  37   2.0000      -0.666494       -18.1362
  38   2.0000      -0.640292       -17.4232
  39   2.0000      -0.622742       -16.9457
  40   2.0000      -0.597271       -16.2526
  41   2.0000      -0.575601       -15.6629
  42   2.0000      -0.569087       -15.4856
  43   2.0000      -0.552339       -15.0299
  44   2.0000      -0.544736       -14.8230
  45   2.0000      -0.535498       -14.5716
  46   2.0000      -0.521008       -14.1773
  47   2.0000      -0.513919       -13.9844
  48   2.0000      -0.512314       -13.9408
  49   2.0000      -0.503828       -13.7098
  50   2.0000      -0.489168       -13.3109
  51   2.0000      -0.488426       -13.2908
  52   2.0000      -0.472638       -12.8611
  53   2.0000      -0.467288       -12.7156
  54   2.0000      -0.464147       -12.6301
  55   2.0000      -0.446497       -12.1498
  56   2.0000      -0.441382       -12.0106
  57   2.0000      -0.440596       -11.9892
  58   2.0000      -0.437145       -11.8953
  59   2.0000      -0.426545       -11.6069
  60   2.0000      -0.420197       -11.4341
  61   2.0000      -0.414857       -11.2888
  62   2.0000      -0.407722       -11.0947
  63   2.0000      -0.353247        -9.6123
  64   2.0000      -0.336059        -9.1446
  65   2.0000      -0.330823        -9.0021
  66   2.0000      -0.288373        -7.8470
  67   0.0000       0.024854         0.6763
  68   0.0000       0.081562         2.2194
  69   0.0000       0.109904         2.9906
  70   0.0000       0.123813         3.3691
  71   0.0000       0.129865         3.5338

MULLIKEN ATOMIC CHARGES
-----------------------
   0 S :    0.102087
   1 C :   -0.141961
   2 C :   -0.086204
   3 C :    0.013892
   4 C :   -0.090492
   5 H :   -0.014782
   6 C :    0.050034
   7 H :    0.020684
   8 H :    0.012139
   9 C :    0.011758
  10 H :    0.002127
  11 H :    0.026953
  12 C :   -0.032849
  13 H :    0.031426
  14 H :    0.022954
  15 H :    0.005818
  16 S :    0.092820
  17 C :   -0.123171
  18 C :   -0.025061
  19 C :   -0.032552
  20 C :   -0.172188
  21 H :    0.000445
  22 C :    0.110818
  23 H :   -0.000312
  24 H :    0.028501
  25 C :   -0.090098
  26 H :    0.030990
  27 H :    0.038545
  28 C :   -0.035876
  29 H :    0.042089
  30 H :    0.030540
  31 H :    0.036201
  32 H :    0.054272
  33 H :    0.080454
Sum of atomic charges:   -0.0000000

LOEWDIN ATOMIC CHARGES
----------------------
   0 S :    0.407155
   1 C :   -0.197696
   2 C :   -0.061571
   3 C :   -0.072932
   4 C :   -0.191904
   5 H :    0.019769
   6 C :   -0.028164
   7 H :    0.026773
   8 H :    0.028004
   9 C :   -0.028945
  10 H :    0.012343
  11 H :    0.026741
  12 C :   -0.054573
  13 H :    0.030267
  14 H :    0.022318
  15 H :    0.009714
  16 S :    0.396924
  17 C :   -0.185424
  18 C :   -0.072332
  19 C :   -0.055965
  20 C :   -0.188963
  21 H :    0.025375
  22 C :   -0.022679
  23 H :    0.023001
  24 H :    0.028729
  25 C :   -0.038896
  26 H :    0.023209
  27 H :    0.030612
  28 C :   -0.067991
  29 H :    0.031320
  30 H :    0.027597
  31 H :    0.025691
  32 H :    0.032465
  33 H :    0.040025

  Mayer bond orders larger than 0.100000
B(  0-S ,  1-C ) :   1.1154 B(  0-S ,  4-C ) :   1.1668 B(  1-C ,  2-C ) :   1.6062
B(  1-C , 32-H ) :   0.9715 B(  2-C ,  3-C ) :   1.2591 B(  2-C ,  6-C ) :   1.0267
B(  3-C ,  4-C ) :   1.5297 B(  3-C ,  5-H ) :   0.9998 B(  4-C , 20-C ) :   1.0627
B(  6-C ,  7-H ) :   0.9406 B(  6-C ,  8-H ) :   0.9340 B(  6-C ,  9-C ) :   1.0717
B(  9-C , 10-H ) :   0.9494 B(  9-C , 11-H ) :   0.9556 B(  9-C , 12-C ) :   1.0716
B( 12-C , 13-H ) :   0.9718 B( 12-C , 14-H ) :   0.9733 B( 12-C , 15-H ) :   0.9815
B( 16-S , 17-C ) :   1.1588 B( 16-S , 20-C ) :   1.1502 B( 17-C , 18-C ) :   1.5769
B( 17-C , 20-C ) :   0.1082 B( 17-C , 33-H ) :   0.9651 B( 18-C , 19-C ) :   1.2563
B( 18-C , 21-H ) :   1.0023 B( 19-C , 20-C ) :   1.5732 B( 19-C , 22-C ) :   1.0332
B( 22-C , 23-H ) :   0.9254 B( 22-C , 24-H ) :   0.9337 B( 22-C , 25-C ) :   1.0580
B( 25-C , 26-H ) :   0.9559 B( 25-C , 27-H ) :   0.9538 B( 25-C , 28-C ) :   1.0826
B( 28-C , 29-H ) :   0.9742 B( 28-C , 30-H ) :   0.9725 B( 28-C , 31-H ) :   0.9739

Dispersion correction           -0.014908406
FINAL SINGLE POINT ENERGY     -1339.879067054932

DIPOLE MOMENT
-------------
                                X             Y             Z
Electronic contribution:    -18.21783     -25.11007      -7.45533
Nuclear contribution   :     18.52263      25.64105       7.77310
                        -----------------------------------------
Total Dipole Moment    :      0.30480       0.53098       0.31777
                        -----------------------------------------
Magnitude (a.u.)       :      0.68980
Magnitude (Debye)      :      1.75332

Rotational constants in cm-1:     0.016710     0.010922     0.006896
Rotational constants in MHz :   500.952846   327.438185   206.725726

                             ****ORCA TERMINATED NORMALLY****
TOTAL RUN TIME: 0 days 0 hours 0 minutes 30 seconds 399 msec
