                         Program Version 4.2.1 -  RELEASE  -
|  1> ! wB97X-D3 SP def2-SVP
|  2> %pal
|  3> nprocs 16
|  4> end
|  5>
|  6> * xyz 0 1
|  7> S 	 8.53581 	 2.47929 	 87.4204
|  8> C 	 9.79545 	 2.59934 	 88.6165
|  9> C 	 11.0436 	 2.74222 	 87.9917
| 10> C 	 10.9944 	 2.51622 	 86.5356
| 11> C 	 9.71056 	 2.27179 	 86.1545
| 12> H 	 11.8015 	 2.47009 	 85.8745
| 13> C 	 12.2917 	 3.06774 	 88.7503
| 14> H 	 12.0795 	 3.1862 	 89.8088
| 15> H 	 12.552 	 4.10405 	 88.4823
| 16> C 	 13.5949 	 2.22632 	 88.4824
| 17> H 	 13.8777 	 2.42378 	 87.4402
| 18> H 	 14.3527 	 2.69883 	 89.0813
| 19> C 	 13.4388 	 0.756402 	 88.9036
| 20> H 	 12.8901 	 0.58734 	 89.8301
| 21> H 	 12.8904 	 0.142477 	 88.1701
| 22> H 	 14.4397 	 0.310662 	 88.8609
| 23> S 	 7.80801 	 2.77672 	 84.2812
| 24> C 	 7.91035 	 2.15851 	 82.7115
| 25> C 	 9.09242 	 1.46362 	 82.6193
| 26> C 	 9.9508 	 1.36731 	 83.7445
| 27> C 	 9.22947 	 1.91758 	 84.8039
| 28> H 	 9.32517 	 1.08183 	 81.6885
| 29> C 	 11.1879 	 0.509577 	 83.7454
| 30> H 	 11.959 	 1.11679 	 84.0804
| 31> H 	 11.5308 	 0.273577 	 82.7506
| 32> C 	 11.1539 	 -0.871266 	 84.5317
| 33> H 	 10.5061 	 -0.848762 	 85.4432
| 34> H 	 12.1314 	 -1.0912 	 84.8343
| 35> C 	 10.8526 	 -2.04112 	 83.6373
| 36> H 	 10.0179 	 -1.75504 	 83.0043
| 37> H 	 10.6159 	 -2.88672 	 84.2011
| 38> H 	 11.7027 	 -2.20751 	 82.9711
| 39> H 	 9.63401 	 2.68601 	 89.6673
| 40> H 	 7.32229 	 2.56376 	 81.8873
| 41> *
| 42>
| 43>                          ****END OF INPUT****

CARTESIAN COORDINATES (ANGSTROEM)
---------------------------------
  S      8.535810    2.479290   87.420400
  C      9.795450    2.599340   88.616500
  C     11.043600    2.742220   87.991700
  C     10.994400    2.516220   86.535600
  C      9.710560    2.271790   86.154500
  H     11.801500    2.470090   85.874500
  C     12.291700    3.067740   88.750300
  H     12.079500    3.186200   89.808800
  H     12.552000    4.104050   88.482300
  C     13.594900    2.226320   88.482400
  H     13.877700    2.423780   87.440200
  H     14.352700    2.698830   89.081300
  C     13.438800    0.756402   88.903600
  H     12.890100    0.587340   89.830100
  H     12.890400    0.142477   88.170100
  H     14.439700    0.310662   88.860900
  S      7.808010    2.776720   84.281200
  C      7.910350    2.158510   82.711500
  C      9.092420    1.463620   82.619300
  C      9.950800    1.367310   83.744500
  C      9.229470    1.917580   84.803900
  H      9.325170    1.081830   81.688500
  C     11.187900    0.509577   83.745400
  H     11.959000    1.116790   84.080400
  H     11.530800    0.273577   82.750600
  C     11.153900   -0.871266   84.531700
  H     10.506100   -0.848762   85.443200
  H     12.131400   -1.091200   84.834300
  C     10.852600   -2.041120   83.637300
  H     10.017900   -1.755040   83.004300
  H     10.615900   -2.886720   84.201100
  H     11.702700   -2.207510   82.971100
  H      9.634010    2.686010   89.667300
  H      7.322290    2.563760   81.887300

 Total Charge           Charge          ....    0
 Multiplicity           Mult            ....    1
 Number of Electrons    NEL             ....  134
 Basis Dimension        Dim             ....  322

ORBITAL ENERGIES
----------------

  NO   OCC          E(Eh)            E(eV)
   0   2.0000     -88.964020     -2420.8341
   1   2.0000     -88.961326     -2420.7608
   2   2.0000     -10.326505      -280.9985
   3   2.0000     -10.326360      -280.9945
   4   2.0000     -10.309642      -280.5396
   5   2.0000     -10.309632      -280.5394
   6   2.0000     -10.304690      -280.4049
   7   2.0000     -10.303734      -280.3788
   8   2.0000     -10.292345      -280.0689
   9   2.0000     -10.291112      -280.0354
  10   2.0000     -10.290720      -280.0247
  11   2.0000     -10.289674      -279.9963
  12   2.0000     -10.283704      -279.8338
  13   2.0000     -10.283658      -279.8325
  14   2.0000     -10.278547      -279.6935
  15   2.0000     -10.268668      -279.4247
  16   2.0000      -8.080218      -219.8739
  17   2.0000      -8.076649      -219.7768
  18   2.0000      -6.038506      -164.3161
  19   2.0000      -6.035250      -164.2275
  20   2.0000      -6.034435      -164.2053
  21   2.0000      -6.031200      -164.1173
  22   2.0000      -6.031159      -164.1162
  23   2.0000      -6.027221      -164.0090
  24   2.0000      -1.012926       -27.5631
  25   2.0000      -0.985808       -26.8252
  26   2.0000      -0.912766       -24.8376
  27   2.0000      -0.906233       -24.6599
  28   2.0000      -0.867925       -23.6174
  29   2.0000      -0.859905       -23.3992
  30   2.0000      -0.843101       -22.9419
  31   2.0000      -0.815721       -22.1969
  32   2.0000      -0.789503       -21.4835
  33   2.0000      -0.772236       -21.0136
  34   2.0000      -0.709555       -19.3080
  35   2.0000      -0.700884       -19.0720
  36   2.0000      -0.687744       -18.7145
  37   2.0000      -0.663668       -18.0593
  38   2.0000      -0.640326       -17.4242
  39   2.0000      -0.622764       -16.9463
  40   2.0000      -0.602228       -16.3875
  41   2.0000      -0.561452       -15.2779
  42   2.0000      -0.556914       -15.1544
  43   2.0000      -0.553502       -15.0616
  44   2.0000      -0.547314       -14.8932
  45   2.0000      -0.537709       -14.6318
  46   2.0000      -0.520676       -14.1683
  47   2.0000      -0.511923       -13.9301
  48   2.0000      -0.501992       -13.6599
  49   2.0000      -0.497853       -13.5473
  50   2.0000      -0.495818       -13.4919
  51   2.0000      -0.483615       -13.1598
  52   2.0000      -0.474788       -12.9196
  53   2.0000      -0.466194       -12.6858
  54   2.0000      -0.455034       -12.3821
  55   2.0000      -0.448312       -12.1992
  56   2.0000      -0.443715       -12.0741
  57   2.0000      -0.435958       -11.8630
  58   2.0000      -0.430544       -11.7157
  59   2.0000      -0.427653       -11.6370
  60   2.0000      -0.421111       -11.4590
  61   2.0000      -0.414183       -11.2705
  62   2.0000      -0.413781       -11.2596
  63   2.0000      -0.354989        -9.6598
  64   2.0000      -0.332420        -9.0456
  65   2.0000      -0.323841        -8.8122
  66   2.0000      -0.284227        -7.7342
  67   0.0000       0.026747         0.7278
  68   0.0000       0.077341         2.1046
  69   0.0000       0.107715         2.9311
  70   0.0000       0.122216         3.3257
  71   0.0000       0.129684         3.5289

MULLIKEN ATOMIC CHARGES
-----------------------
   0 S :    0.097154
   1 C :   -0.112195
   2 C :   -0.080961
   3 C :    0.030374
   4 C :   -0.116723
   5 H :   -0.018846
   6 C :    0.026459
   7 H :    0.011480
   8 H :    0.034273
   9 C :   -0.058833
  10 H :    0.030110
  11 H :    0.025898
  12 C :   -0.048164
  13 H :    0.039237
  14 H :    0.032424
  15 H :    0.034888
  16 S :    0.101002
  17 C :   -0.084583
  18 C :   -0.029169
  19 C :   -0.037258
  20 C :   -0.124948
  21 H :   -0.023068
  22 C :    0.102410
  23 H :   -0.000383
  24 H :    0.001552
  25 C :   -0.052639
  26 H :    0.051691
  27 H :    0.008857
  28 C :   -0.032953
  29 H :    0.027831
  30 H :    0.028391
  31 H :    0.028019
  32 H :    0.039446
  33 H :    0.069227
Sum of atomic charges:   -0.0000000

LOEWDIN ATOMIC CHARGES
----------------------
   0 S :    0.398379
   1 C :   -0.203999
   2 C :   -0.050627
   3 C :   -0.062094
   4 C :   -0.183131
   5 H :    0.019780
   6 C :   -0.041888
   7 H :    0.025835
   8 H :    0.036585
   9 C :   -0.037593
  10 H :    0.024121
  11 H :    0.023363
  12 C :   -0.071543
  13 H :    0.028870
  14 H :    0.028508
  15 H :    0.028704
  16 S :    0.437359
  17 C :   -0.215385
  18 C :   -0.063996
  19 C :   -0.056741
  20 C :   -0.193211
  21 H :    0.011904
  22 C :   -0.023570
  23 H :    0.020250
  24 H :    0.030555
  25 C :   -0.030055
  26 H :    0.032821
  27 H :    0.016207
  28 C :   -0.057360
  29 H :    0.023802
  30 H :    0.020223
  31 H :    0.024505
  32 H :    0.022754
  33 H :    0.036667

  Mayer bond orders larger than 0.100000
B(  0-S ,  1-C ) :   1.1175 B(  0-S ,  4-C ) :   1.1469 B(  1-C ,  2-C ) :   1.6253
B(  1-C , 32-H ) :   0.9739 B(  2-C ,  3-C ) :   1.1865 B(  2-C ,  6-C ) :   1.0404
B(  3-C ,  4-C ) :   1.6079 B(  3-C ,  5-H ) :   1.0041 B(  4-C , 20-C ) :   1.0127
B(  6-C ,  7-H ) :   0.9422 B(  6-C ,  8-H ) :   0.9301 B(  6-C ,  9-C ) :   1.0751
B(  9-C , 10-H ) :   0.9533 B(  9-C , 11-H ) :   0.9553 B(  9-C , 12-C ) :   1.0679
B( 12-C , 13-H ) :   0.9765 B( 12-C , 14-H ) :   0.9732 B( 12-C , 15-H ) :   0.9745
B( 16-S , 17-C ) :   1.1636 B( 16-S , 20-C ) :   1.1850 B( 17-C , 18-C ) :   1.5713
B( 17-C , 33-H ) :   0.9681 B( 18-C , 19-C ) :   1.2729 B( 18-C , 21-H ) :   0.9986
B( 19-C , 20-C ) :   1.5469 B( 19-C , 22-C ) :   1.0530 B( 22-C , 23-H ) :   0.9218
B( 22-C , 24-H ) :   0.9298 B( 22-C , 25-C ) :   1.0535 B( 25-C , 26-H ) :   0.9627
B( 25-C , 27-H ) :   0.9536 B( 25-C , 28-C ) :   1.0844 B( 28-C , 29-H ) :   0.9778
B( 28-C , 30-H ) :   0.9719 B( 28-C , 31-H ) :   0.9748

Dispersion correction           -0.014680642
FINAL SINGLE POINT ENERGY     -1339.866556863670

DIPOLE MOMENT
-------------
                                X             Y             Z
Electronic contribution:    -24.74678      15.14629      -3.10249
Nuclear contribution   :     25.50215     -15.24160       2.95537
                        -----------------------------------------
Total Dipole Moment    :      0.75537      -0.09531      -0.14712
                        -----------------------------------------
Magnitude (a.u.)       :      0.77545
Magnitude (Debye)      :      1.97103

Rotational constants in cm-1:     0.017952     0.009865     0.007154
Rotational constants in MHz :   538.172523   295.738499   214.469161

                             ****ORCA TERMINATED NORMALLY****
TOTAL RUN TIME: 0 days 0 hours 0 minutes 34 seconds 493 msec
