                         Program Version 4.2.1 -  RELEASE  -
|  1> ! wB97X-D3 SP def2-SVP
|  2> %pal
|  3> nprocs 16
|  4> end
|  5>
|  6> * xyz 0 1
|  7> S 	 49.1142 	 12.5749 	 78.9972
|  8> C 	 48.64 	 11.3112 	 79.9926
|  9> C 	 48.357 	 11.7727 	 81.2651
| 10> C 	 48.5755 	 13.2027 	 81.3469
| 11> C 	 49.0422 	 13.7414 	 80.22
| 12> H 	 48.3041 	 13.7494 	 82.2646
| 13> C 	 48.0556 	 10.8441 	 82.4447
| 14> H 	 47.3918 	 11.4455 	 83.0641
| 15> H 	 48.9177 	 10.5329 	 83.0382
| 16> C 	 47.1805 	 9.57124 	 82.0829
| 17> H 	 46.3637 	 9.94456 	 81.3647
| 18> H 	 47.8192 	 8.89402 	 81.474
| 19> C 	 46.6239 	 8.77641 	 83.2435
| 20> H 	 46.0059 	 7.92742 	 82.9788
| 21> H 	 47.3182 	 8.31565 	 83.8313
| 22> H 	 46.0994 	 9.52593 	 83.8768
| 23> S 	 50.1047 	 15.9624 	 81.5331
| 24> C 	 50.1341 	 17.4972 	 80.6561
| 25> C 	 49.6666 	 17.3536 	 79.3785
| 26> C 	 49.3631 	 15.9903 	 79.048
| 27> C 	 49.4724 	 15.1582 	 80.1152
| 28> H 	 49.5909 	 18.232 	 78.7101
| 29> C 	 48.9227 	 15.6116 	 77.6227
| 30> H 	 48.7385 	 14.5622 	 77.6067
| 31> H 	 49.8396 	 15.8517 	 77.0311
| 32> C 	 47.6335 	 16.2962 	 77.0522
| 33> H 	 47.5073 	 16.0662 	 76.0173
| 34> H 	 47.7109 	 17.4052 	 77.1348
| 35> C 	 46.3542 	 15.8545 	 77.7974
| 36> H 	 46.4449 	 14.7752 	 77.8335
| 37> H 	 45.4466 	 16.2825 	 77.2727
| 38> H 	 46.4101 	 16.3044 	 78.8161
| 39> H 	 48.606 	 10.2377 	 79.7496
| 40> H 	 50.525 	 18.4758 	 80.9958
| 41> *
| 42>
| 43>                          ****END OF INPUT****

CARTESIAN COORDINATES (ANGSTROEM)
---------------------------------
  S     49.114200   12.574900   78.997200
  C     48.640000   11.311200   79.992600
  C     48.357000   11.772700   81.265100
  C     48.575500   13.202700   81.346900
  C     49.042200   13.741400   80.220000
  H     48.304100   13.749400   82.264600
  C     48.055600   10.844100   82.444700
  H     47.391800   11.445500   83.064100
  H     48.917700   10.532900   83.038200
  C     47.180500    9.571240   82.082900
  H     46.363700    9.944560   81.364700
  H     47.819200    8.894020   81.474000
  C     46.623900    8.776410   83.243500
  H     46.005900    7.927420   82.978800
  H     47.318200    8.315650   83.831300
  H     46.099400    9.525930   83.876800
  S     50.104700   15.962400   81.533100
  C     50.134100   17.497200   80.656100
  C     49.666600   17.353600   79.378500
  C     49.363100   15.990300   79.048000
  C     49.472400   15.158200   80.115200
  H     49.590900   18.232000   78.710100
  C     48.922700   15.611600   77.622700
  H     48.738500   14.562200   77.606700
  H     49.839600   15.851700   77.031100
  C     47.633500   16.296200   77.052200
  H     47.507300   16.066200   76.017300
  H     47.710900   17.405200   77.134800
  C     46.354200   15.854500   77.797400
  H     46.444900   14.775200   77.833500
  H     45.446600   16.282500   77.272700
  H     46.410100   16.304400   78.816100
  H     48.606000   10.237700   79.749600
  H     50.525000   18.475800   80.995800

 Total Charge           Charge          ....    0
 Multiplicity           Mult            ....    1
 Number of Electrons    NEL             ....  134
 Basis Dimension        Dim             ....  322

ORBITAL ENERGIES
----------------

  NO   OCC          E(Eh)            E(eV)
   0   2.0000     -88.967830     -2420.9377
   1   2.0000     -88.966944     -2420.9136
   2   2.0000     -10.326228      -280.9910
   3   2.0000     -10.323407      -280.9142
   4   2.0000     -10.319979      -280.8209
   5   2.0000     -10.307853      -280.4909
   6   2.0000     -10.299954      -280.2760
   7   2.0000     -10.299592      -280.2661
   8   2.0000     -10.296397      -280.1792
   9   2.0000     -10.296251      -280.1752
  10   2.0000     -10.295075      -280.1432
  11   2.0000     -10.293999      -280.1140
  12   2.0000     -10.289316      -279.9865
  13   2.0000     -10.286779      -279.9175
  14   2.0000     -10.279260      -279.7129
  15   2.0000     -10.274083      -279.5720
  16   2.0000      -8.083485      -219.9628
  17   2.0000      -8.082102      -219.9252
  18   2.0000      -6.041981      -164.4107
  19   2.0000      -6.040853      -164.3800
  20   2.0000      -6.037578      -164.2909
  21   2.0000      -6.036775      -164.2690
  22   2.0000      -6.034306      -164.2018
  23   2.0000      -6.032531      -164.1535
  24   2.0000      -1.020153       -27.7598
  25   2.0000      -0.991870       -26.9901
  26   2.0000      -0.907003       -24.6808
  27   2.0000      -0.902863       -24.5681
  28   2.0000      -0.872543       -23.7431
  29   2.0000      -0.855300       -23.2739
  30   2.0000      -0.844384       -22.9769
  31   2.0000      -0.818834       -22.2816
  32   2.0000      -0.781178       -21.2569
  33   2.0000      -0.770922       -20.9779
  34   2.0000      -0.706385       -19.2217
  35   2.0000      -0.693990       -18.8844
  36   2.0000      -0.689994       -18.7757
  37   2.0000      -0.660743       -17.9797
  38   2.0000      -0.638278       -17.3684
  39   2.0000      -0.612910       -16.6781
  40   2.0000      -0.593603       -16.1528
  41   2.0000      -0.574048       -15.6206
  42   2.0000      -0.566496       -15.4151
  43   2.0000      -0.551895       -15.0178
  44   2.0000      -0.541428       -14.7330
  45   2.0000      -0.525184       -14.2910
  46   2.0000      -0.518369       -14.1055
  47   2.0000      -0.512854       -13.9555
  48   2.0000      -0.503188       -13.6924
  49   2.0000      -0.500758       -13.6263
  50   2.0000      -0.488941       -13.3048
  51   2.0000      -0.478642       -13.0245
  52   2.0000      -0.473732       -12.8909
  53   2.0000      -0.465600       -12.6696
  54   2.0000      -0.461331       -12.5535
  55   2.0000      -0.452159       -12.3039
  56   2.0000      -0.442829       -12.0500
  57   2.0000      -0.436423       -11.8757
  58   2.0000      -0.430390       -11.7115
  59   2.0000      -0.421318       -11.4647
  60   2.0000      -0.417072       -11.3491
  61   2.0000      -0.415138       -11.2965
  62   2.0000      -0.407398       -11.0859
  63   2.0000      -0.361704        -9.8425
  64   2.0000      -0.332702        -9.0533
  65   2.0000      -0.328850        -8.9485
  66   2.0000      -0.291694        -7.9374
  67   0.0000       0.035525         0.9667
  68   0.0000       0.083521         2.2727
  69   0.0000       0.111237         3.0269
  70   0.0000       0.125878         3.4253
  71   0.0000       0.135461         3.6861

MULLIKEN ATOMIC CHARGES
-----------------------
   0 S :    0.111863
   1 C :   -0.118690
   2 C :   -0.112252
   3 C :   -0.039313
   4 C :   -0.093202
   5 H :    0.024454
   6 C :    0.070302
   7 H :    0.015883
   8 H :    0.053638
   9 C :   -0.155543
  10 H :    0.046339
  11 H :    0.028765
  12 C :    0.010314
  13 H :    0.034420
  14 H :    0.005318
  15 H :    0.029517
  16 S :    0.107760
  17 C :   -0.099499
  18 C :   -0.043971
  19 C :   -0.090035
  20 C :   -0.112315
  21 H :    0.031815
  22 C :    0.072881
  23 H :    0.007367
  24 H :    0.052135
  25 C :   -0.079304
  26 H :    0.029928
  27 H :    0.027451
  28 C :   -0.072224
  29 H :    0.035846
  30 H :    0.049765
  31 H :    0.048702
  32 H :    0.057682
  33 H :    0.064205
Sum of atomic charges:   -0.0000000

LOEWDIN ATOMIC CHARGES
----------------------
   0 S :    0.468249
   1 C :   -0.225847
   2 C :   -0.066581
   3 C :   -0.079325
   4 C :   -0.205021
   5 H :    0.033457
   6 C :   -0.031123
   7 H :    0.026925
   8 H :    0.033844
   9 C :   -0.049326
  10 H :    0.032690
  11 H :    0.017058
  12 C :   -0.062954
  13 H :    0.031859
  14 H :    0.012607
  15 H :    0.030739
  16 S :    0.399294
  17 C :   -0.184884
  18 C :   -0.072717
  19 C :   -0.065330
  20 C :   -0.189007
  21 H :    0.037056
  22 C :   -0.032543
  23 H :    0.003301
  24 H :    0.042414
  25 C :   -0.040617
  26 H :    0.019655
  27 H :    0.020428
  28 C :   -0.067711
  29 H :    0.023049
  30 H :    0.033838
  31 H :    0.031378
  32 H :    0.036610
  33 H :    0.038533

  Mayer bond orders larger than 0.100000
B(  0-S ,  1-C ) :   1.1522 B(  0-S ,  4-C ) :   1.1602 B(  1-C ,  2-C ) :   1.6018
B(  1-C , 32-H ) :   0.9659 B(  2-C ,  3-C ) :   1.2658 B(  2-C ,  6-C ) :   1.0128
B(  3-C ,  4-C ) :   1.5592 B(  3-C ,  5-H ) :   0.9943 B(  4-C , 20-C ) :   1.0246
B(  6-C ,  7-H ) :   0.9395 B(  6-C ,  8-H ) :   0.9428 B(  6-C ,  9-C ) :   1.0593
B(  9-C , 10-H ) :   0.9613 B(  9-C , 11-H ) :   0.9491 B(  9-C , 12-C ) :   1.0861
B( 12-C , 13-H ) :   0.9694 B( 12-C , 14-H ) :   0.9686 B( 12-C , 15-H ) :   0.9735
B( 16-S , 17-C ) :   1.1304 B( 16-S , 20-C ) :   1.1256 B( 17-C , 18-C ) :   1.6504
B( 17-C , 33-H ) :   0.9618 B( 18-C , 19-C ) :   1.2166 B( 18-C , 21-H ) :   0.9845
B( 19-C , 20-C ) :   1.6220 B( 19-C , 22-C ) :   1.0275 B( 22-C , 23-H ) :   0.9300
B( 22-C , 24-H ) :   0.9322 B( 22-C , 25-C ) :   1.0696 B( 25-C , 26-H ) :   0.9571
B( 25-C , 27-H ) :   0.9582 B( 25-C , 28-C ) :   1.0630 B( 28-C , 29-H ) :   0.9775
B( 28-C , 30-H ) :   0.9732 B( 28-C , 31-H ) :   0.9768

Dispersion correction           -0.014255856
FINAL SINGLE POINT ENERGY     -1339.882063833530

DIPOLE MOMENT
-------------
                                X             Y             Z
Electronic contribution:     16.03887      10.40344       0.31797
Nuclear contribution   :    -16.20647     -10.46281      -0.32317
                        -----------------------------------------
Total Dipole Moment    :     -0.16760      -0.05938      -0.00520
                        -----------------------------------------
Magnitude (a.u.)       :      0.17789
Magnitude (Debye)      :      0.45215

Rotational constants in cm-1:     0.023499     0.007375     0.006293
Rotational constants in MHz :   704.476776   221.105048   188.661682

                             ****ORCA TERMINATED NORMALLY****
TOTAL RUN TIME: 0 days 0 hours 0 minutes 29 seconds 830 msec
