                         Program Version 4.2.1 -  RELEASE  -
|  1> ! wB97X-D3 SP def2-SVP
|  2> %pal
|  3> nprocs 16
|  4> end
|  5>
|  6> * xyz 0 1
|  7> S 	 -113.159 	 56.6098 	 112.276
|  8> C 	 -112.614 	 55.7382 	 110.857
|  9> C 	 -111.876 	 54.665 	 111.222
| 10> C 	 -111.729 	 54.5782 	 112.589
| 11> C 	 -112.407 	 55.4759 	 113.385
| 12> H 	 -111.145 	 53.7633 	 113.021
| 13> C 	 -111.206 	 53.7018 	 110.179
| 14> H 	 -110.427 	 54.2396 	 109.649
| 15> H 	 -111.962 	 53.511 	 109.503
| 16> C 	 -110.631 	 52.3404 	 110.628
| 17> H 	 -109.755 	 52.5312 	 111.207
| 18> H 	 -111.433 	 51.8615 	 111.229
| 19> C 	 -110.237 	 51.389 	 109.46
| 20> H 	 -109.425 	 51.8564 	 108.893
| 21> H 	 -109.821 	 50.4197 	 109.78
| 22> H 	 -111.082 	 51.3051 	 108.82
| 23> S 	 -112.222 	 57.2979 	 115.459
| 24> C 	 -112.135 	 56.6914 	 117.106
| 25> C 	 -112.258 	 55.2932 	 117.155
| 26> C 	 -112.461 	 54.6816 	 115.875
| 27> C 	 -112.364 	 55.6464 	 114.858
| 28> H 	 -112.224 	 54.6587 	 118.018
| 29> C 	 -112.695 	 53.1466 	 115.58
| 30> H 	 -112.026 	 52.7482 	 114.797
| 31> H 	 -113.789 	 52.9119 	 115.429
| 32> C 	 -112.317 	 52.312 	 116.852
| 33> H 	 -112.92 	 52.6181 	 117.704
| 34> H 	 -111.297 	 52.3518 	 117.079
| 35> C 	 -112.583 	 50.8197 	 116.625
| 36> H 	 -112.186 	 50.4983 	 115.734
| 37> H 	 -113.657 	 50.661 	 116.629
| 38> H 	 -112.142 	 50.26 	 117.485
| 39> H 	 -112.797 	 56.0612 	 109.831
| 40> H 	 -112.045 	 57.3 	 118.002
| 41> *
| 42>
| 43>                          ****END OF INPUT****

CARTESIAN COORDINATES (ANGSTROEM)
---------------------------------
  S    -113.159000   56.609800  112.276000
  C    -112.614000   55.738200  110.857000
  C    -111.876000   54.665000  111.222000
  C    -111.729000   54.578200  112.589000
  C    -112.407000   55.475900  113.385000
  H    -111.145000   53.763300  113.021000
  C    -111.206000   53.701800  110.179000
  H    -110.427000   54.239600  109.649000
  H    -111.962000   53.511000  109.503000
  C    -110.631000   52.340400  110.628000
  H    -109.755000   52.531200  111.207000
  H    -111.433000   51.861500  111.229000
  C    -110.237000   51.389000  109.460000
  H    -109.425000   51.856400  108.893000
  H    -109.821000   50.419700  109.780000
  H    -111.082000   51.305100  108.820000
  S    -112.222000   57.297900  115.459000
  C    -112.135000   56.691400  117.106000
  C    -112.258000   55.293200  117.155000
  C    -112.461000   54.681600  115.875000
  C    -112.364000   55.646400  114.858000
  H    -112.224000   54.658700  118.018000
  C    -112.695000   53.146600  115.580000
  H    -112.026000   52.748200  114.797000
  H    -113.789000   52.911900  115.429000
  C    -112.317000   52.312000  116.852000
  H    -112.920000   52.618100  117.704000
  H    -111.297000   52.351800  117.079000
  C    -112.583000   50.819700  116.625000
  H    -112.186000   50.498300  115.734000
  H    -113.657000   50.661000  116.629000
  H    -112.142000   50.260000  117.485000
  H    -112.797000   56.061200  109.831000
  H    -112.045000   57.300000  118.002000

 Total Charge           Charge          ....    0
 Multiplicity           Mult            ....    1
 Number of Electrons    NEL             ....  134
 Basis Dimension        Dim             ....  322

ORBITAL ENERGIES
----------------

  NO   OCC          E(Eh)            E(eV)
   0   2.0000     -88.970804     -2421.0187
   1   2.0000     -88.964037     -2420.8345
   2   2.0000     -10.331597      -281.1370
   3   2.0000     -10.329628      -281.0835
   4   2.0000     -10.322161      -280.8803
   5   2.0000     -10.310732      -280.5693
   6   2.0000     -10.308895      -280.5193
   7   2.0000     -10.306844      -280.4635
   8   2.0000     -10.297558      -280.2108
   9   2.0000     -10.295094      -280.1437
  10   2.0000     -10.290516      -280.0192
  11   2.0000     -10.289798      -279.9996
  12   2.0000     -10.286123      -279.8996
  13   2.0000     -10.282907      -279.8121
  14   2.0000     -10.282138      -279.7912
  15   2.0000     -10.273465      -279.5552
  16   2.0000      -8.084894      -220.0011
  17   2.0000      -8.078601      -219.8299
  18   2.0000      -6.043413      -164.4496
  19   2.0000      -6.039518      -164.3436
  20   2.0000      -6.037157      -164.2794
  21   2.0000      -6.035656      -164.2385
  22   2.0000      -6.033023      -164.1669
  23   2.0000      -6.029440      -164.0694
  24   2.0000      -1.006209       -27.3803
  25   2.0000      -0.983166       -26.7533
  26   2.0000      -0.909034       -24.7361
  27   2.0000      -0.907251       -24.6876
  28   2.0000      -0.867448       -23.6045
  29   2.0000      -0.852191       -23.1893
  30   2.0000      -0.842361       -22.9218
  31   2.0000      -0.812724       -22.1153
  32   2.0000      -0.783478       -21.3195
  33   2.0000      -0.772238       -21.0137
  34   2.0000      -0.709425       -19.3044
  35   2.0000      -0.701788       -19.0966
  36   2.0000      -0.688914       -18.7463
  37   2.0000      -0.653483       -17.7822
  38   2.0000      -0.638389       -17.3715
  39   2.0000      -0.622708       -16.9447
  40   2.0000      -0.597402       -16.2561
  41   2.0000      -0.580922       -15.8077
  42   2.0000      -0.579066       -15.7572
  43   2.0000      -0.561612       -15.2822
  44   2.0000      -0.525206       -14.2916
  45   2.0000      -0.520475       -14.1628
  46   2.0000      -0.512438       -13.9442
  47   2.0000      -0.505869       -13.7654
  48   2.0000      -0.498916       -13.5762
  49   2.0000      -0.497137       -13.5278
  50   2.0000      -0.495195       -13.4749
  51   2.0000      -0.480700       -13.0805
  52   2.0000      -0.475101       -12.9282
  53   2.0000      -0.470681       -12.8079
  54   2.0000      -0.462710       -12.5910
  55   2.0000      -0.456298       -12.4165
  56   2.0000      -0.445899       -12.1335
  57   2.0000      -0.436407       -11.8752
  58   2.0000      -0.435051       -11.8384
  59   2.0000      -0.425475       -11.5778
  60   2.0000      -0.422842       -11.5061
  61   2.0000      -0.416837       -11.3427
  62   2.0000      -0.411316       -11.1925
  63   2.0000      -0.348565        -9.4849
  64   2.0000      -0.336114        -9.1461
  65   2.0000      -0.333401        -9.0723
  66   2.0000      -0.286625        -7.7995
  67   0.0000       0.024719         0.6726
  68   0.0000       0.075007         2.0410
  69   0.0000       0.106922         2.9095
  70   0.0000       0.128801         3.5049
  71   0.0000       0.132815         3.6141

MULLIKEN ATOMIC CHARGES
-----------------------
   0 S :    0.096851
   1 C :   -0.150021
   2 C :   -0.061426
   3 C :   -0.005574
   4 C :   -0.125653
   5 H :    0.007585
   6 C :    0.088079
   7 H :    0.035194
   8 H :    0.006275
   9 C :   -0.107307
  10 H :    0.035036
  11 H :    0.037806
  12 C :   -0.033163
  13 H :    0.026257
  14 H :    0.043881
  15 H :    0.027818
  16 S :    0.117845
  17 C :   -0.081797
  18 C :   -0.027396
  19 C :   -0.044264
  20 C :   -0.156542
  21 H :    0.010369
  22 C :    0.060173
  23 H :    0.043081
  24 H :    0.057233
  25 C :   -0.144337
  26 H :    0.038811
  27 H :    0.026537
  28 C :   -0.003078
  29 H :    0.009683
  30 H :    0.024670
  31 H :    0.037587
  32 H :    0.048585
  33 H :    0.061200
Sum of atomic charges:   -0.0000000

LOEWDIN ATOMIC CHARGES
----------------------
   0 S :    0.400414
   1 C :   -0.192742
   2 C :   -0.069959
   3 C :   -0.072996
   4 C :   -0.192731
   5 H :    0.027454
   6 C :   -0.022287
   7 H :    0.031293
   8 H :    0.018867
   9 C :   -0.041867
  10 H :    0.018566
  11 H :    0.026218
  12 C :   -0.059413
  13 H :    0.025741
  14 H :    0.031445
  15 H :    0.019971
  16 S :    0.407142
  17 C :   -0.188374
  18 C :   -0.066944
  19 C :   -0.057341
  20 C :   -0.190218
  21 H :    0.027260
  22 C :   -0.024689
  23 H :    0.032565
  24 H :    0.043707
  25 C :   -0.041926
  26 H :    0.021483
  27 H :    0.014787
  28 C :   -0.053572
  29 H :    0.009227
  30 H :    0.022952
  31 H :    0.032676
  32 H :    0.031654
  33 H :    0.031635

  Mayer bond orders larger than 0.100000
B(  0-S ,  1-C ) :   1.1502 B(  0-S ,  4-C ) :   1.1534 B(  1-C ,  2-C ) :   1.5935
B(  1-C ,  4-C ) :   0.1046 B(  1-C , 32-H ) :   0.9719 B(  2-C ,  3-C ) :   1.3179
B(  2-C ,  6-C ) :   0.9785 B(  3-C ,  4-C ) :   1.5344 B(  3-C ,  5-H ) :   0.9831
B(  4-C , 20-C ) :   1.0478 B(  6-C ,  7-H ) :   0.9408 B(  6-C ,  8-H ) :   0.9403
B(  6-C ,  9-C ) :   1.0793 B(  9-C , 10-H ) :   0.9502 B(  9-C , 11-H ) :   0.9580
B(  9-C , 12-C ) :   1.0814 B( 12-C , 13-H ) :   0.9750 B( 12-C , 14-H ) :   0.9743
B( 12-C , 15-H ) :   0.9773 B( 16-S , 17-C ) :   1.1510 B( 16-S , 20-C ) :   1.1527
B( 17-C , 18-C ) :   1.5768 B( 17-C , 20-C ) :   0.1042 B( 17-C , 33-H ) :   0.9661
B( 18-C , 19-C ) :   1.2821 B( 18-C , 21-H ) :   0.9825 B( 19-C , 20-C ) :   1.5865
B( 19-C , 22-C ) :   1.0140 B( 22-C , 23-H ) :   0.9418 B( 22-C , 24-H ) :   0.9368
B( 22-C , 25-C ) :   1.0776 B( 25-C , 26-H ) :   0.9489 B( 25-C , 27-H ) :   0.9604
B( 25-C , 28-C ) :   1.0875 B( 28-C , 29-H ) :   0.9732 B( 28-C , 30-H ) :   0.9753
B( 28-C , 31-H ) :   0.9733

Dispersion correction           -0.013076961
FINAL SINGLE POINT ENERGY     -1339.875123417867

DIPOLE MOMENT
-------------
                                X             Y             Z
Electronic contribution:     -7.46967      32.09919       4.45866
Nuclear contribution   :      7.72919     -32.82178      -4.49134
                        -----------------------------------------
Total Dipole Moment    :      0.25952      -0.72259      -0.03268
                        -----------------------------------------
Magnitude (a.u.)       :      0.76847
Magnitude (Debye)      :      1.95331

Rotational constants in cm-1:     0.015433     0.009019     0.006069
Rotational constants in MHz :   462.674438   270.370475   181.946553

                             ****ORCA TERMINATED NORMALLY****
TOTAL RUN TIME: 0 days 0 hours 0 minutes 33 seconds 164 msec
