                         Program Version 4.2.1 -  RELEASE  -
|  1> ! wB97X-D3 SP def2-SVP
|  2> %pal
|  3> nprocs 16
|  4> end
|  5>
|  6> * xyz 0 1
|  7> S 	 -16.6879 	 -9.30839 	 85.1499
|  8> C 	 -16.9735 	 -10.4606 	 86.3384
|  9> C 	 -15.8143 	 -10.8355 	 86.9766
| 10> C 	 -14.7033 	 -10.0565 	 86.4465
| 11> C 	 -14.9899 	 -9.22111 	 85.4046
| 12> H 	 -13.6583 	 -10.2401 	 86.6944
| 13> C 	 -15.6728 	 -11.781 	 88.1315
| 14> H 	 -16.6728 	 -12.1164 	 88.5682
| 15> H 	 -15.3471 	 -11.1268 	 88.9539
| 16> C 	 -14.6396 	 -12.9419 	 87.8846
| 17> H 	 -14.9606 	 -13.3948 	 86.8554
| 18> H 	 -13.5814 	 -12.5803 	 87.8081
| 19> C 	 -14.8503 	 -14.0107 	 88.9751
| 20> H 	 -14.2377 	 -14.8354 	 88.7629
| 21> H 	 -14.4733 	 -13.5485 	 89.8766
| 22> H 	 -15.8657 	 -14.2953 	 89.0667
| 23> S 	 -13.6599 	 -9.23107 	 83.04
| 24> C 	 -12.4815 	 -8.04816 	 82.7185
| 25> C 	 -12.1964 	 -7.27062 	 83.8246
| 26> C 	 -12.9757 	 -7.55909 	 84.9644
| 27> C 	 -13.9435 	 -8.51617 	 84.5977
| 28> H 	 -11.4633 	 -6.4691 	 83.8173
| 29> C 	 -12.9195 	 -6.87295 	 86.2452
| 30> H 	 -13.8582 	 -7.06446 	 86.7656
| 31> H 	 -12.9439 	 -5.75264 	 86.1508
| 32> C 	 -11.6975 	 -7.12497 	 87.1373
| 33> H 	 -11.7801 	 -6.44534 	 87.9429
| 34> H 	 -10.7492 	 -6.97219 	 86.5488
| 35> C 	 -11.6216 	 -8.4984 	 87.7208
| 36> H 	 -10.6766 	 -8.51337 	 88.3542
| 37> H 	 -11.4274 	 -9.28656 	 86.9976
| 38> H 	 -12.489 	 -8.75357 	 88.3274
| 39> H 	 -17.9736 	 -10.9247 	 86.5147
| 40> H 	 -11.9631 	 -8.06224 	 81.7678
| 41> *
| 42>
| 43>                          ****END OF INPUT****

CARTESIAN COORDINATES (ANGSTROEM)
---------------------------------
  S    -16.687900   -9.308390   85.149900
  C    -16.973500  -10.460600   86.338400
  C    -15.814300  -10.835500   86.976600
  C    -14.703300  -10.056500   86.446500
  C    -14.989900   -9.221110   85.404600
  H    -13.658300  -10.240100   86.694400
  C    -15.672800  -11.781000   88.131500
  H    -16.672800  -12.116400   88.568200
  H    -15.347100  -11.126800   88.953900
  C    -14.639600  -12.941900   87.884600
  H    -14.960600  -13.394800   86.855400
  H    -13.581400  -12.580300   87.808100
  C    -14.850300  -14.010700   88.975100
  H    -14.237700  -14.835400   88.762900
  H    -14.473300  -13.548500   89.876600
  H    -15.865700  -14.295300   89.066700
  S    -13.659900   -9.231070   83.040000
  C    -12.481500   -8.048160   82.718500
  C    -12.196400   -7.270620   83.824600
  C    -12.975700   -7.559090   84.964400
  C    -13.943500   -8.516170   84.597700
  H    -11.463300   -6.469100   83.817300
  C    -12.919500   -6.872950   86.245200
  H    -13.858200   -7.064460   86.765600
  H    -12.943900   -5.752640   86.150800
  C    -11.697500   -7.124970   87.137300
  H    -11.780100   -6.445340   87.942900
  H    -10.749200   -6.972190   86.548800
  C    -11.621600   -8.498400   87.720800
  H    -10.676600   -8.513370   88.354200
  H    -11.427400   -9.286560   86.997600
  H    -12.489000   -8.753570   88.327400
  H    -17.973600  -10.924700   86.514700
  H    -11.963100   -8.062240   81.767800

 Total Charge           Charge          ....    0
 Multiplicity           Mult            ....    1
 Number of Electrons    NEL             ....  134
 Basis Dimension        Dim             ....  322

ORBITAL ENERGIES
----------------

  NO   OCC          E(Eh)            E(eV)
   0   2.0000     -88.964858     -2420.8568
   1   2.0000     -88.960086     -2420.7270
   2   2.0000     -10.326861      -281.0082
   3   2.0000     -10.322378      -280.8862
   4   2.0000     -10.312511      -280.6177
   5   2.0000     -10.309868      -280.5458
   6   2.0000     -10.300519      -280.2914
   7   2.0000     -10.300442      -280.2893
   8   2.0000     -10.297963      -280.2218
   9   2.0000     -10.297731      -280.2155
  10   2.0000     -10.291544      -280.0471
  11   2.0000     -10.287875      -279.9473
  12   2.0000     -10.287749      -279.9439
  13   2.0000     -10.285804      -279.8910
  14   2.0000     -10.277370      -279.6614
  15   2.0000     -10.271406      -279.4992
  16   2.0000      -8.080972      -219.8944
  17   2.0000      -8.076697      -219.7781
  18   2.0000      -6.039129      -164.3331
  19   2.0000      -6.035343      -164.2300
  20   2.0000      -6.035099      -164.2234
  21   2.0000      -6.031970      -164.1382
  22   2.0000      -6.030764      -164.1054
  23   2.0000      -6.027625      -164.0200
  24   2.0000      -1.012432       -27.5497
  25   2.0000      -0.993501       -27.0345
  26   2.0000      -0.918047       -24.9813
  27   2.0000      -0.906546       -24.6684
  28   2.0000      -0.867626       -23.6093
  29   2.0000      -0.858573       -23.3630
  30   2.0000      -0.847587       -23.0640
  31   2.0000      -0.812342       -22.1050
  32   2.0000      -0.782635       -21.2966
  33   2.0000      -0.770195       -20.9581
  34   2.0000      -0.703860       -19.1530
  35   2.0000      -0.695625       -18.9289
  36   2.0000      -0.685775       -18.6609
  37   2.0000      -0.655463       -17.8360
  38   2.0000      -0.641606       -17.4590
  39   2.0000      -0.618476       -16.8296
  40   2.0000      -0.603386       -16.4190
  41   2.0000      -0.566582       -15.4175
  42   2.0000      -0.561445       -15.2777
  43   2.0000      -0.555414       -15.1136
  44   2.0000      -0.544287       -14.8108
  45   2.0000      -0.527296       -14.3485
  46   2.0000      -0.521836       -14.1999
  47   2.0000      -0.505875       -13.7656
  48   2.0000      -0.502329       -13.6691
  49   2.0000      -0.495422       -13.4811
  50   2.0000      -0.492890       -13.4122
  51   2.0000      -0.479303       -13.0425
  52   2.0000      -0.471571       -12.8321
  53   2.0000      -0.467808       -12.7297
  54   2.0000      -0.463251       -12.6057
  55   2.0000      -0.448008       -12.1909
  56   2.0000      -0.439825       -11.9682
  57   2.0000      -0.437186       -11.8964
  58   2.0000      -0.433619       -11.7994
  59   2.0000      -0.423720       -11.5300
  60   2.0000      -0.420742       -11.4490
  61   2.0000      -0.416458       -11.3324
  62   2.0000      -0.410386       -11.1672
  63   2.0000      -0.339807        -9.2466
  64   2.0000      -0.329593        -8.9687
  65   2.0000      -0.319098        -8.6831
  66   2.0000      -0.301880        -8.2146
  67   0.0000       0.042320         1.1516
  68   0.0000       0.072970         1.9856
  69   0.0000       0.115755         3.1499
  70   0.0000       0.121264         3.2998
  71   0.0000       0.130329         3.5464

MULLIKEN ATOMIC CHARGES
-----------------------
   0 S :    0.116193
   1 C :   -0.137785
   2 C :   -0.077894
   3 C :    0.037066
   4 C :   -0.168932
   5 H :    0.000089
   6 C :    0.028449
   7 H :    0.024353
   8 H :    0.036224
   9 C :   -0.146721
  10 H :    0.047820
  11 H :    0.053970
  12 C :    0.016820
  13 H :    0.023961
  14 H :    0.021733
  15 H :    0.028324
  16 S :    0.126521
  17 C :   -0.089298
  18 C :   -0.031011
  19 C :    0.013432
  20 C :   -0.191148
  21 H :    0.012112
  22 C :    0.028677
  23 H :    0.026058
  24 H :    0.033679
  25 C :   -0.052816
  26 H :    0.022944
  27 H :    0.034643
  28 C :   -0.075042
  29 H :    0.034375
  30 H :    0.044084
  31 H :    0.036750
  32 H :    0.064745
  33 H :    0.057627
Sum of atomic charges:    0.0000000

LOEWDIN ATOMIC CHARGES
----------------------
   0 S :    0.439442
   1 C :   -0.225531
   2 C :   -0.072472
   3 C :   -0.064942
   4 C :   -0.224149
   5 H :    0.026528
   6 C :   -0.045228
   7 H :    0.034676
   8 H :    0.034448
   9 C :   -0.043474
  10 H :    0.031998
  11 H :    0.029597
  12 C :   -0.054413
  13 H :    0.019636
  14 H :    0.025453
  15 H :    0.021123
  16 S :    0.441255
  17 C :   -0.200512
  18 C :   -0.069967
  19 C :   -0.056154
  20 C :   -0.196448
  21 H :    0.029658
  22 C :   -0.042460
  23 H :    0.033724
  24 H :    0.039237
  25 C :   -0.036967
  26 H :    0.021327
  27 H :    0.030794
  28 C :   -0.071535
  29 H :    0.033879
  30 H :    0.022149
  31 H :    0.022730
  32 H :    0.039664
  33 H :    0.026933

  Mayer bond orders larger than 0.100000
B(  0-S ,  1-C ) :   1.1626 B(  0-S ,  4-C ) :   1.1595 B(  1-C ,  2-C ) :   1.5928
B(  1-C , 32-H ) :   0.9617 B(  2-C ,  3-C ) :   1.2505 B(  2-C ,  6-C ) :   1.0288
B(  3-C ,  4-C ) :   1.5809 B(  3-C ,  5-H ) :   0.9845 B(  4-C , 20-C ) :   0.9912
B(  6-C ,  7-H ) :   0.9514 B(  6-C ,  8-H ) :   0.9333 B(  6-C ,  9-C ) :   1.0310
B(  9-C , 10-H ) :   0.9630 B(  9-C , 11-H ) :   0.9537 B(  9-C , 12-C ) :   1.0801
B( 12-C , 13-H ) :   0.9738 B( 12-C , 14-H ) :   0.9721 B( 12-C , 15-H ) :   0.9766
B( 16-S , 17-C ) :   1.1745 B( 16-S , 20-C ) :   1.1868 B( 17-C , 18-C ) :   1.5675
B( 17-C , 20-C ) :   0.1018 B( 17-C , 33-H ) :   0.9712 B( 18-C , 19-C ) :   1.2613
B( 18-C , 21-H ) :   0.9920 B( 19-C , 20-C ) :   1.5535 B( 19-C , 22-C ) :   1.0653
B( 22-C , 23-H ) :   0.9276 B( 22-C , 24-H ) :   0.9320 B( 22-C , 25-C ) :   1.0725
B( 25-C , 26-H ) :   0.9508 B( 25-C , 27-H ) :   0.9547 B( 25-C , 28-C ) :   1.0921
B( 28-C , 29-H ) :   0.9673 B( 28-C , 30-H ) :   0.9669 B( 28-C , 31-H ) :   0.9697

Dispersion correction           -0.014933740
FINAL SINGLE POINT ENERGY     -1339.883402211527

DIPOLE MOMENT
-------------
                                X             Y             Z
Electronic contribution:    -11.16522       8.87345     -24.05178
Nuclear contribution   :     11.56416      -9.01226      24.55484
                        -----------------------------------------
Total Dipole Moment    :      0.39894      -0.13881       0.50306
                        -----------------------------------------
Magnitude (a.u.)       :      0.65688
Magnitude (Debye)      :      1.66967

Rotational constants in cm-1:     0.018394     0.008860     0.007315
Rotational constants in MHz :   551.430167   265.602292   219.308376

                             ****ORCA TERMINATED NORMALLY****
TOTAL RUN TIME: 0 days 0 hours 0 minutes 34 seconds 867 msec
