                         Program Version 4.2.1 -  RELEASE  -
|  1> ! wB97X-D3 SP def2-SVP
|  2> %pal
|  3> nprocs 16
|  4> end
|  5>
|  6> * xyz 0 1
|  7> S 	 6.41665 	 -15.8688 	 67.9359
|  8> C 	 6.94632 	 -17.5365 	 67.5079
|  9> C 	 8.3186 	 -17.6776 	 67.6281
| 10> C 	 8.96989 	 -16.4094 	 67.8238
| 11> C 	 8.0687 	 -15.2692 	 67.9117
| 12> H 	 10.0684 	 -16.2355 	 67.9353
| 13> C 	 8.98859 	 -18.9416 	 67.1756
| 14> H 	 8.10015 	 -19.6658 	 67.0484
| 15> H 	 9.61087 	 -19.3625 	 67.9167
| 16> C 	 9.61467 	 -18.9023 	 65.7532
| 17> H 	 10.4649 	 -18.2914 	 65.8309
| 18> H 	 9.97633 	 -19.8679 	 65.4116
| 19> C 	 8.64469 	 -18.3901 	 64.7483
| 20> H 	 7.89722 	 -19.1149 	 64.4862
| 21> H 	 8.0768 	 -17.5158 	 64.9543
| 22> H 	 9.1318 	 -18.2248 	 63.8211
| 23> S 	 6.98879 	 -13.077 	 69.0913
| 24> C 	 7.93553 	 -11.6424 	 69.3353
| 25> C 	 9.17888 	 -11.7617 	 68.7995
| 26> C 	 9.42543 	 -13.0833 	 68.2031
| 27> C 	 8.32735 	 -13.9252 	 68.3858
| 28> H 	 9.85797 	 -10.9129 	 68.7888
| 29> C 	 10.7997 	 -13.3985 	 67.5732
| 30> H 	 10.9789 	 -14.4191 	 67.7037
| 31> H 	 11.5642 	 -12.8997 	 68.0693
| 32> C 	 10.8997 	 -12.9884 	 66.1157
| 33> H 	 11.8695 	 -13.3077 	 65.7212
| 34> H 	 10.8655 	 -11.8932 	 66.1253
| 35> C 	 9.89883 	 -13.4896 	 65.0977
| 36> H 	 8.94256 	 -12.9578 	 65.2145
| 37> H 	 9.66732 	 -14.5365 	 65.1789
| 38> H 	 10.2012 	 -13.3755 	 64.0695
| 39> H 	 6.45179 	 -18.4409 	 67.2346
| 40> H 	 7.49047 	 -10.7532 	 69.8465
| 41> *
| 42>
| 43>                          ****END OF INPUT****

CARTESIAN COORDINATES (ANGSTROEM)
---------------------------------
  S      6.416650  -15.868800   67.935900
  C      6.946320  -17.536500   67.507900
  C      8.318600  -17.677600   67.628100
  C      8.969890  -16.409400   67.823800
  C      8.068700  -15.269200   67.911700
  H     10.068400  -16.235500   67.935300
  C      8.988590  -18.941600   67.175600
  H      8.100150  -19.665800   67.048400
  H      9.610870  -19.362500   67.916700
  C      9.614670  -18.902300   65.753200
  H     10.464900  -18.291400   65.830900
  H      9.976330  -19.867900   65.411600
  C      8.644690  -18.390100   64.748300
  H      7.897220  -19.114900   64.486200
  H      8.076800  -17.515800   64.954300
  H      9.131800  -18.224800   63.821100
  S      6.988790  -13.077000   69.091300
  C      7.935530  -11.642400   69.335300
  C      9.178880  -11.761700   68.799500
  C      9.425430  -13.083300   68.203100
  C      8.327350  -13.925200   68.385800
  H      9.857970  -10.912900   68.788800
  C     10.799700  -13.398500   67.573200
  H     10.978900  -14.419100   67.703700
  H     11.564200  -12.899700   68.069300
  C     10.899700  -12.988400   66.115700
  H     11.869500  -13.307700   65.721200
  H     10.865500  -11.893200   66.125300
  C      9.898830  -13.489600   65.097700
  H      8.942560  -12.957800   65.214500
  H      9.667320  -14.536500   65.178900
  H     10.201200  -13.375500   64.069500
  H      6.451790  -18.440900   67.234600
  H      7.490470  -10.753200   69.846500

 Total Charge           Charge          ....    0
 Multiplicity           Mult            ....    1
 Number of Electrons    NEL             ....  134
 Basis Dimension        Dim             ....  322

ORBITAL ENERGIES
----------------

  NO   OCC          E(Eh)            E(eV)
   0   2.0000     -88.972149     -2421.0553
   1   2.0000     -88.965097     -2420.8634
   2   2.0000     -10.340205      -281.3713
   3   2.0000     -10.330490      -281.1069
   4   2.0000     -10.319959      -280.8204
   5   2.0000     -10.316248      -280.7194
   6   2.0000     -10.310253      -280.5562
   7   2.0000     -10.306683      -280.4591
   8   2.0000     -10.301971      -280.3309
   9   2.0000     -10.298028      -280.2236
  10   2.0000     -10.295076      -280.1433
  11   2.0000     -10.286197      -279.9016
  12   2.0000     -10.283888      -279.8388
  13   2.0000     -10.282822      -279.8098
  14   2.0000     -10.266758      -279.3727
  15   2.0000     -10.262257      -279.2502
  16   2.0000      -8.085446      -220.0162
  17   2.0000      -8.080812      -219.8901
  18   2.0000      -6.044193      -164.4708
  19   2.0000      -6.040199      -164.3622
  20   2.0000      -6.039452      -164.3418
  21   2.0000      -6.035980      -164.2474
  22   2.0000      -6.035235      -164.2271
  23   2.0000      -6.031326      -164.1207
  24   2.0000      -1.007506       -27.4156
  25   2.0000      -0.979266       -26.6472
  26   2.0000      -0.918031       -24.9809
  27   2.0000      -0.912788       -24.8382
  28   2.0000      -0.873210       -23.7612
  29   2.0000      -0.848174       -23.0800
  30   2.0000      -0.840473       -22.8704
  31   2.0000      -0.812469       -22.1084
  32   2.0000      -0.789727       -21.4896
  33   2.0000      -0.780002       -21.2249
  34   2.0000      -0.715412       -19.4673
  35   2.0000      -0.698988       -19.0204
  36   2.0000      -0.692688       -18.8490
  37   2.0000      -0.661156       -17.9910
  38   2.0000      -0.630265       -17.1504
  39   2.0000      -0.616333       -16.7713
  40   2.0000      -0.597797       -16.2669
  41   2.0000      -0.570028       -15.5113
  42   2.0000      -0.559591       -15.2273
  43   2.0000      -0.553181       -15.0528
  44   2.0000      -0.549962       -14.9652
  45   2.0000      -0.547853       -14.9078
  46   2.0000      -0.516935       -14.0665
  47   2.0000      -0.507668       -13.8144
  48   2.0000      -0.505084       -13.7440
  49   2.0000      -0.499959       -13.6046
  50   2.0000      -0.485595       -13.2137
  51   2.0000      -0.477611       -12.9965
  52   2.0000      -0.472457       -12.8562
  53   2.0000      -0.464026       -12.6268
  54   2.0000      -0.455253       -12.3881
  55   2.0000      -0.450334       -12.2542
  56   2.0000      -0.445125       -12.1125
  57   2.0000      -0.442477       -12.0404
  58   2.0000      -0.437461       -11.9039
  59   2.0000      -0.422373       -11.4933
  60   2.0000      -0.417155       -11.3514
  61   2.0000      -0.412762       -11.2318
  62   2.0000      -0.407664       -11.0931
  63   2.0000      -0.363276        -9.8852
  64   2.0000      -0.336718        -9.1626
  65   2.0000      -0.327309        -8.9065
  66   2.0000      -0.280907        -7.6439
  67   0.0000       0.013952         0.3797
  68   0.0000       0.077210         2.1010
  69   0.0000       0.095191         2.5903
  70   0.0000       0.113281         3.0825
  71   0.0000       0.130293         3.5455

MULLIKEN ATOMIC CHARGES
-----------------------
   0 S :    0.092693
   1 C :   -0.080932
   2 C :   -0.104291
   3 C :   -0.012381
   4 C :   -0.112840
   5 H :    0.035046
   6 C :    0.033869
   7 H :    0.015930
   8 H :    0.029883
   9 C :   -0.011537
  10 H :    0.014147
  11 H :    0.027240
  12 C :   -0.040341
  13 H :    0.010497
  14 H :    0.045167
  15 H :    0.015439
  16 S :    0.084049
  17 C :   -0.101836
  18 C :   -0.022347
  19 C :   -0.100142
  20 C :   -0.123055
  21 H :    0.022840
  22 C :    0.173821
  23 H :   -0.014357
  24 H :    0.005663
  25 C :   -0.086236
  26 H :    0.025070
  27 H :    0.024146
  28 C :   -0.042377
  29 H :    0.037370
  30 H :    0.024985
  31 H :    0.026862
  32 H :    0.030799
  33 H :    0.077153
Sum of atomic charges:   -0.0000000

LOEWDIN ATOMIC CHARGES
----------------------
   0 S :    0.387205
   1 C :   -0.182389
   2 C :   -0.064986
   3 C :   -0.071450
   4 C :   -0.182480
   5 H :    0.032044
   6 C :   -0.029080
   7 H :    0.033588
   8 H :    0.023305
   9 C :   -0.029820
  10 H :    0.014180
  11 H :    0.028404
  12 C :   -0.063889
  13 H :    0.022917
  14 H :    0.025296
  15 H :    0.023910
  16 S :    0.405429
  17 C :   -0.191780
  18 C :   -0.072284
  19 C :   -0.049180
  20 C :   -0.202742
  21 H :    0.032721
  22 C :   -0.016440
  23 H :    0.016882
  24 H :    0.026878
  25 C :   -0.038251
  26 H :    0.024063
  27 H :    0.023846
  28 C :   -0.069259
  29 H :    0.029263
  30 H :    0.022457
  31 H :    0.025575
  32 H :    0.025756
  33 H :    0.040311

  Mayer bond orders larger than 0.100000
B(  0-S ,  1-C ) :   1.1206 B(  0-S ,  4-C ) :   1.1408 B(  1-C ,  2-C ) :   1.6098
B(  1-C ,  4-C ) :   0.1020 B(  1-C , 32-H ) :   0.9606 B(  2-C ,  3-C ) :   1.2530
B(  2-C ,  6-C ) :   1.0421 B(  3-C ,  4-C ) :   1.5271 B(  3-C ,  5-H ) :   0.9788
B(  4-C , 20-C ) :   1.1002 B(  6-C ,  7-H ) :   0.9427 B(  6-C ,  8-H ) :   0.9399
B(  6-C ,  9-C ) :   1.0585 B(  9-C , 10-H ) :   0.9551 B(  9-C , 11-H ) :   0.9531
B(  9-C , 12-C ) :   1.0854 B( 12-C , 13-H ) :   0.9705 B( 12-C , 14-H ) :   0.9715
B( 12-C , 15-H ) :   0.9669 B( 16-S , 17-C ) :   1.1475 B( 16-S , 20-C ) :   1.1308
B( 17-C , 18-C ) :   1.6235 B( 17-C , 33-H ) :   0.9629 B( 18-C , 19-C ) :   1.2238
B( 18-C , 21-H ) :   0.9910 B( 19-C , 20-C ) :   1.5943 B( 19-C , 22-C ) :   1.0305
B( 22-C , 23-H ) :   0.9313 B( 22-C , 24-H ) :   0.9256 B( 22-C , 25-C ) :   1.0781
B( 25-C , 26-H ) :   0.9554 B( 25-C , 27-H ) :   0.9564 B( 25-C , 28-C ) :   1.0844
B( 28-C , 29-H ) :   0.9705 B( 28-C , 30-H ) :   0.9734 B( 28-C , 31-H ) :   0.9728

Dispersion correction           -0.015726415
FINAL SINGLE POINT ENERGY     -1339.866105420089

DIPOLE MOMENT
-------------
                                X             Y             Z
Electronic contribution:    -17.40450       9.73527      18.89154
Nuclear contribution   :     18.04056      -9.79411     -19.15052
                        -----------------------------------------
Total Dipole Moment    :      0.63606      -0.05883      -0.25898
                        -----------------------------------------
Magnitude (a.u.)       :      0.68928
Magnitude (Debye)      :      1.75201

Rotational constants in cm-1:     0.020827     0.009742     0.007447
Rotational constants in MHz :   624.367732   292.068437   223.270289

                             ****ORCA TERMINATED NORMALLY****
TOTAL RUN TIME: 0 days 0 hours 0 minutes 38 seconds 489 msec
