                         Program Version 4.2.1 -  RELEASE  -
|  1> ! wB97X-D3 SP def2-SVP
|  2> %pal
|  3> nprocs 16
|  4> end
|  5>
|  6> * xyz 0 1
|  7> S 	 8.0772 	 -8.81592 	 69.5925
|  8> C 	 7.39371 	 -7.99302 	 68.1813
|  9> C 	 6.93847 	 -6.70948 	 68.5567
| 10> C 	 7.0565 	 -6.50816 	 69.9619
| 11> C 	 7.80249 	 -7.50478 	 70.6596
| 12> H 	 6.64415 	 -5.65014 	 70.442
| 13> C 	 6.2012 	 -5.89315 	 67.539
| 14> H 	 6.77385 	 -6.07963 	 66.6186
| 15> H 	 6.36189 	 -4.94509 	 67.887
| 16> C 	 4.69907 	 -6.10303 	 67.5686
| 17> H 	 4.32689 	 -5.77011 	 68.5138
| 18> H 	 4.3416 	 -5.34294 	 66.889
| 19> C 	 4.14563 	 -7.41797 	 67.0801
| 20> H 	 3.11588 	 -7.3702 	 66.7753
| 21> H 	 4.71728 	 -7.7349 	 66.1864
| 22> H 	 4.29968 	 -8.15836 	 67.8615
| 23> S 	 7.98632 	 -9.31238 	 72.7028
| 24> C 	 8.24649 	 -8.71562 	 74.3988
| 25> C 	 8.44754 	 -7.37287 	 74.4403
| 26> C 	 8.35899 	 -6.79026 	 73.1494
| 27> C 	 8.06987 	 -7.67775 	 72.107
| 28> H 	 8.568 	 -6.85072 	 75.3619
| 29> C 	 8.624 	 -5.35121 	 72.9925
| 30> H 	 8.03904 	 -5.13571 	 72.1316
| 31> H 	 9.65394 	 -5.14294 	 72.873
| 32> C 	 8.22628 	 -4.3471 	 74.0489
| 33> H 	 8.45012 	 -3.38859 	 73.6803
| 34> H 	 8.83041 	 -4.36908 	 74.8913
| 35> C 	 6.71118 	 -4.32658 	 74.2693
| 36> H 	 6.21431 	 -4.20031 	 73.3306
| 37> H 	 6.45438 	 -3.39526 	 74.8589
| 38> H 	 6.35656 	 -5.29063 	 74.6181
| 39> H 	 7.35086 	 -8.41745 	 67.2158
| 40> H 	 8.26765 	 -9.37117 	 75.2132
| 41> *
| 42>
| 43>                          ****END OF INPUT****

CARTESIAN COORDINATES (ANGSTROEM)
---------------------------------
  S      8.077200   -8.815920   69.592500
  C      7.393710   -7.993020   68.181300
  C      6.938470   -6.709480   68.556700
  C      7.056500   -6.508160   69.961900
  C      7.802490   -7.504780   70.659600
  H      6.644150   -5.650140   70.442000
  C      6.201200   -5.893150   67.539000
  H      6.773850   -6.079630   66.618600
  H      6.361890   -4.945090   67.887000
  C      4.699070   -6.103030   67.568600
  H      4.326890   -5.770110   68.513800
  H      4.341600   -5.342940   66.889000
  C      4.145630   -7.417970   67.080100
  H      3.115880   -7.370200   66.775300
  H      4.717280   -7.734900   66.186400
  H      4.299680   -8.158360   67.861500
  S      7.986320   -9.312380   72.702800
  C      8.246490   -8.715620   74.398800
  C      8.447540   -7.372870   74.440300
  C      8.358990   -6.790260   73.149400
  C      8.069870   -7.677750   72.107000
  H      8.568000   -6.850720   75.361900
  C      8.624000   -5.351210   72.992500
  H      8.039040   -5.135710   72.131600
  H      9.653940   -5.142940   72.873000
  C      8.226280   -4.347100   74.048900
  H      8.450120   -3.388590   73.680300
  H      8.830410   -4.369080   74.891300
  C      6.711180   -4.326580   74.269300
  H      6.214310   -4.200310   73.330600
  H      6.454380   -3.395260   74.858900
  H      6.356560   -5.290630   74.618100
  H      7.350860   -8.417450   67.215800
  H      8.267650   -9.371170   75.213200

 Total Charge           Charge          ....    0
 Multiplicity           Mult            ....    1
 Number of Electrons    NEL             ....  134
 Basis Dimension        Dim             ....  322

ORBITAL ENERGIES
----------------

  NO   OCC          E(Eh)            E(eV)
   0   2.0000     -88.966276     -2420.8954
   1   2.0000     -88.964533     -2420.8480
   2   2.0000     -10.336285      -281.2646
   3   2.0000     -10.331236      -281.1272
   4   2.0000     -10.317652      -280.7576
   5   2.0000     -10.312226      -280.6099
   6   2.0000     -10.299937      -280.2755
   7   2.0000     -10.299814      -280.2722
   8   2.0000     -10.297133      -280.1992
   9   2.0000     -10.291389      -280.0429
  10   2.0000     -10.284874      -279.8657
  11   2.0000     -10.281996      -279.7873
  12   2.0000     -10.277263      -279.6586
  13   2.0000     -10.275605      -279.6134
  14   2.0000     -10.275067      -279.5988
  15   2.0000     -10.274590      -279.5858
  16   2.0000      -8.081085      -219.8975
  17   2.0000      -8.078684      -219.8322
  18   2.0000      -6.039467      -164.3423
  19   2.0000      -6.037334      -164.2842
  20   2.0000      -6.035439      -164.2327
  21   2.0000      -6.033377      -164.1765
  22   2.0000      -6.032121      -164.1424
  23   2.0000      -6.029219      -164.0634
  24   2.0000      -1.005532       -27.3619
  25   2.0000      -0.982384       -26.7320
  26   2.0000      -0.923322       -25.1249
  27   2.0000      -0.917724       -24.9725
  28   2.0000      -0.870637       -23.6912
  29   2.0000      -0.850097       -23.1323
  30   2.0000      -0.845166       -22.9981
  31   2.0000      -0.817493       -22.2451
  32   2.0000      -0.788320       -21.4513
  33   2.0000      -0.775222       -21.0949
  34   2.0000      -0.716610       -19.4999
  35   2.0000      -0.705100       -19.1867
  36   2.0000      -0.697326       -18.9752
  37   2.0000      -0.662804       -18.0358
  38   2.0000      -0.640081       -17.4175
  39   2.0000      -0.622140       -16.9293
  40   2.0000      -0.599100       -16.3023
  41   2.0000      -0.570879       -15.5344
  42   2.0000      -0.564493       -15.3606
  43   2.0000      -0.557965       -15.1830
  44   2.0000      -0.549216       -14.9449
  45   2.0000      -0.545273       -14.8376
  46   2.0000      -0.526607       -14.3297
  47   2.0000      -0.515983       -14.0406
  48   2.0000      -0.505541       -13.7565
  49   2.0000      -0.498060       -13.5529
  50   2.0000      -0.492394       -13.3987
  51   2.0000      -0.481033       -13.0896
  52   2.0000      -0.471063       -12.8183
  53   2.0000      -0.465465       -12.6660
  54   2.0000      -0.456189       -12.4135
  55   2.0000      -0.450138       -12.2489
  56   2.0000      -0.448695       -12.2096
  57   2.0000      -0.443443       -12.0667
  58   2.0000      -0.436119       -11.8674
  59   2.0000      -0.433110       -11.7855
  60   2.0000      -0.421597       -11.4722
  61   2.0000      -0.405588       -11.0366
  62   2.0000      -0.402475       -10.9519
  63   2.0000      -0.355475        -9.6730
  64   2.0000      -0.332374        -9.0443
  65   2.0000      -0.326352        -8.8805
  66   2.0000      -0.281851        -7.6695
  67   0.0000       0.020200         0.5497
  68   0.0000       0.077101         2.0980
  69   0.0000       0.097843         2.6625
  70   0.0000       0.119519         3.2523
  71   0.0000       0.133082         3.6214

MULLIKEN ATOMIC CHARGES
-----------------------
   0 S :    0.097450
   1 C :   -0.119764
   2 C :   -0.128467
   3 C :    0.020958
   4 C :   -0.129548
   5 H :    0.004924
   6 C :    0.114731
   7 H :    0.034788
   8 H :   -0.009598
   9 C :   -0.045938
  10 H :    0.015275
  11 H :    0.019020
  12 C :   -0.028831
  13 H :    0.035436
  14 H :    0.020334
  15 H :    0.044813
  16 S :    0.079448
  17 C :   -0.065380
  18 C :   -0.002043
  19 C :   -0.088404
  20 C :   -0.115387
  21 H :    0.017916
  22 C :    0.121932
  23 H :   -0.015562
  24 H :    0.034183
  25 C :   -0.043119
  26 H :    0.004478
  27 H :    0.007875
  28 C :   -0.046717
  29 H :    0.010608
  30 H :    0.043789
  31 H :    0.037732
  32 H :    0.038576
  33 H :    0.034493
Sum of atomic charges:    0.0000000

LOEWDIN ATOMIC CHARGES
----------------------
   0 S :    0.418794
   1 C :   -0.194848
   2 C :   -0.057789
   3 C :   -0.072743
   4 C :   -0.199812
   5 H :    0.020653
   6 C :   -0.024580
   7 H :    0.037284
   8 H :    0.020052
   9 C :   -0.035186
  10 H :    0.021974
  11 H :    0.024062
  12 C :   -0.062721
  13 H :    0.026437
  14 H :    0.026721
  15 H :    0.027869
  16 S :    0.376741
  17 C :   -0.143763
  18 C :   -0.063068
  19 C :   -0.059757
  20 C :   -0.197445
  21 H :    0.033187
  22 C :   -0.028621
  23 H :    0.025215
  24 H :    0.034129
  25 C :   -0.036826
  26 H :    0.023643
  27 H :    0.011238
  28 C :   -0.063039
  29 H :    0.019735
  30 H :    0.034538
  31 H :    0.023956
  32 H :    0.018461
  33 H :    0.015510

  Mayer bond orders larger than 0.100000
B(  0-S ,  1-C ) :   1.1500 B(  0-S ,  4-C ) :   1.1863 B(  1-C ,  2-C ) :   1.5446
B(  1-C ,  4-C ) :   0.1114 B(  1-C , 32-H ) :   0.9782 B(  2-C ,  3-C ) :   1.3012
B(  2-C ,  6-C ) :   1.0185 B(  3-C ,  4-C ) :   1.5031 B(  3-C ,  5-H ) :   0.9843
B(  4-C , 20-C ) :   1.0477 B(  6-C ,  7-H ) :   0.9417 B(  6-C ,  8-H ) :   0.9166
B(  6-C ,  9-C ) :   1.0891 B(  9-C , 10-H ) :   0.9489 B(  9-C , 11-H ) :   0.9508
B(  9-C , 12-C ) :   1.0802 B( 12-C , 13-H ) :   0.9721 B( 12-C , 14-H ) :   0.9712
B( 12-C , 15-H ) :   0.9731 B( 16-S , 17-C ) :   1.1369 B( 16-S , 20-C ) :   1.1290
B( 17-C , 18-C ) :   1.6146 B( 17-C , 33-H ) :   0.9743 B( 18-C , 19-C ) :   1.2307
B( 18-C , 21-H ) :   0.9941 B( 19-C , 20-C ) :   1.6002 B( 19-C , 22-C ) :   1.0435
B( 22-C , 23-H ) :   0.9231 B( 22-C , 24-H ) :   0.9192 B( 22-C , 25-C ) :   1.1055
B( 25-C , 26-H ) :   0.9428 B( 25-C , 27-H ) :   0.9430 B( 25-C , 28-C ) :   1.0769
B( 28-C , 29-H ) :   0.9703 B( 28-C , 30-H ) :   0.9746 B( 28-C , 31-H ) :   0.9762

Dispersion correction           -0.014413532
FINAL SINGLE POINT ENERGY     -1339.858127997170

DIPOLE MOMENT
-------------
                                X             Y             Z
Electronic contribution:     12.91789     -20.94582       3.74549
Nuclear contribution   :    -13.16022      21.61991      -3.72251
                        -----------------------------------------
Total Dipole Moment    :     -0.24233       0.67409       0.02299
                        -----------------------------------------
Magnitude (a.u.)       :      0.71670
Magnitude (Debye)      :      1.82170

Rotational constants in cm-1:     0.020518     0.008332     0.006613
Rotational constants in MHz :   615.128753   249.791531   198.237902

                             ****ORCA TERMINATED NORMALLY****
TOTAL RUN TIME: 0 days 0 hours 0 minutes 35 seconds 224 msec
