                         Program Version 4.2.1 -  RELEASE  -
|  1> ! wB97X-D3 SP def2-SVP
|  2> %pal
|  3> nprocs 16
|  4> end
|  5>
|  6> * xyz 0 1
|  7> S 	 -14.4896 	 -10.6717 	 92.0384
|  8> C 	 -16.1339 	 -10.0418 	 91.6715
|  9> C 	 -16.249 	 -10.0054 	 90.2491
| 10> C 	 -15.0978 	 -10.6665 	 89.61
| 11> C 	 -14.1568 	 -11.2281 	 90.4436
| 12> H 	 -14.9982 	 -10.856 	 88.5565
| 13> C 	 -17.3917 	 -9.36693 	 89.4801
| 14> H 	 -16.9577 	 -8.37711 	 89.3921
| 15> H 	 -18.187 	 -9.52853 	 90.2047
| 16> C 	 -17.9063 	 -10.0386 	 88.1996
| 17> H 	 -17.1437 	 -10.0789 	 87.4308
| 18> H 	 -18.2602 	 -11.0561 	 88.4103
| 19> C 	 -18.9146 	 -9.09392 	 87.5529
| 20> H 	 -19.7833 	 -8.92562 	 88.2309
| 21> H 	 -18.5301 	 -8.17517 	 87.2526
| 22> H 	 -19.3877 	 -9.59005 	 86.7163
| 23> S 	 -11.4096 	 -11.2489 	 90.8534
| 24> C 	 -10.4941 	 -12.5733 	 90.271
| 25> C 	 -11.2161 	 -13.3652 	 89.3704
| 26> C 	 -12.5653 	 -12.9169 	 89.2483
| 27> C 	 -12.9223 	 -11.9155 	 90.1082
| 28> H 	 -10.7339 	 -14.1875 	 88.96
| 29> C 	 -13.4983 	 -13.6639 	 88.3784
| 30> H 	 -13.1424 	 -14.5023 	 87.8165
| 31> H 	 -13.674 	 -12.8283 	 87.6804
| 32> C 	 -14.7956 	 -14.1804 	 89.04
| 33> H 	 -15.3577 	 -14.6995 	 88.2258
| 34> H 	 -15.3125 	 -13.28 	 89.2907
| 35> C 	 -14.6661 	 -15.109 	 90.2116
| 36> H 	 -15.6654 	 -15.3932 	 90.5131
| 37> H 	 -14.1328 	 -14.7213 	 91.1072
| 38> H 	 -14.0412 	 -15.9957 	 89.9726
| 39> H 	 -16.9459 	 -9.64569 	 92.3691
| 40> H 	 -9.43793 	 -12.7791 	 90.3662
| 41> *
| 42>
| 43>                          ****END OF INPUT****

CARTESIAN COORDINATES (ANGSTROEM)
---------------------------------
  S    -14.489600  -10.671700   92.038400
  C    -16.133900  -10.041800   91.671500
  C    -16.249000  -10.005400   90.249100
  C    -15.097800  -10.666500   89.610000
  C    -14.156800  -11.228100   90.443600
  H    -14.998200  -10.856000   88.556500
  C    -17.391700   -9.366930   89.480100
  H    -16.957700   -8.377110   89.392100
  H    -18.187000   -9.528530   90.204700
  C    -17.906300  -10.038600   88.199600
  H    -17.143700  -10.078900   87.430800
  H    -18.260200  -11.056100   88.410300
  C    -18.914600   -9.093920   87.552900
  H    -19.783300   -8.925620   88.230900
  H    -18.530100   -8.175170   87.252600
  H    -19.387700   -9.590050   86.716300
  S    -11.409600  -11.248900   90.853400
  C    -10.494100  -12.573300   90.271000
  C    -11.216100  -13.365200   89.370400
  C    -12.565300  -12.916900   89.248300
  C    -12.922300  -11.915500   90.108200
  H    -10.733900  -14.187500   88.960000
  C    -13.498300  -13.663900   88.378400
  H    -13.142400  -14.502300   87.816500
  H    -13.674000  -12.828300   87.680400
  C    -14.795600  -14.180400   89.040000
  H    -15.357700  -14.699500   88.225800
  H    -15.312500  -13.280000   89.290700
  C    -14.666100  -15.109000   90.211600
  H    -15.665400  -15.393200   90.513100
  H    -14.132800  -14.721300   91.107200
  H    -14.041200  -15.995700   89.972600
  H    -16.945900   -9.645690   92.369100
  H     -9.437930  -12.779100   90.366200

 Total Charge           Charge          ....    0
 Multiplicity           Mult            ....    1
 Number of Electrons    NEL             ....  134
 Basis Dimension        Dim             ....  322

ORBITAL ENERGIES
----------------

  NO   OCC          E(Eh)            E(eV)
   0   2.0000     -88.965288     -2420.8686
   1   2.0000     -88.963646     -2420.8239
   2   2.0000     -10.330331      -281.1026
   3   2.0000     -10.328162      -281.0436
   4   2.0000     -10.327039      -281.0130
   5   2.0000     -10.315307      -280.6938
   6   2.0000     -10.310969      -280.5757
   7   2.0000     -10.303127      -280.3623
   8   2.0000     -10.294944      -280.1397
   9   2.0000     -10.293872      -280.1105
  10   2.0000     -10.291995      -280.0594
  11   2.0000     -10.287956      -279.9495
  12   2.0000     -10.284800      -279.8636
  13   2.0000     -10.279259      -279.7129
  14   2.0000     -10.276318      -279.6328
  15   2.0000     -10.273508      -279.5564
  16   2.0000      -8.079680      -219.8593
  17   2.0000      -8.077873      -219.8101
  18   2.0000      -6.038299      -164.3105
  19   2.0000      -6.036565      -164.2633
  20   2.0000      -6.034254      -164.2004
  21   2.0000      -6.032371      -164.1492
  22   2.0000      -6.030307      -164.0930
  23   2.0000      -6.028496      -164.0437
  24   2.0000      -1.005661       -27.3654
  25   2.0000      -0.980394       -26.6779
  26   2.0000      -0.917685       -24.9715
  27   2.0000      -0.912392       -24.8275
  28   2.0000      -0.870347       -23.6833
  29   2.0000      -0.851353       -23.1665
  30   2.0000      -0.841552       -22.8998
  31   2.0000      -0.814805       -22.1720
  32   2.0000      -0.785012       -21.3613
  33   2.0000      -0.772561       -21.0225
  34   2.0000      -0.714812       -19.4510
  35   2.0000      -0.701218       -19.0811
  36   2.0000      -0.682963       -18.5844
  37   2.0000      -0.664453       -18.0807
  38   2.0000      -0.635585       -17.2951
  39   2.0000      -0.615418       -16.7464
  40   2.0000      -0.592486       -16.1224
  41   2.0000      -0.583537       -15.8788
  42   2.0000      -0.567750       -15.4493
  43   2.0000      -0.556352       -15.1391
  44   2.0000      -0.544301       -14.8112
  45   2.0000      -0.534222       -14.5369
  46   2.0000      -0.519494       -14.1362
  47   2.0000      -0.509717       -13.8701
  48   2.0000      -0.504530       -13.7289
  49   2.0000      -0.496800       -13.5186
  50   2.0000      -0.495354       -13.4793
  51   2.0000      -0.481962       -13.1149
  52   2.0000      -0.472324       -12.8526
  53   2.0000      -0.468669       -12.7531
  54   2.0000      -0.459124       -12.4934
  55   2.0000      -0.449127       -12.2214
  56   2.0000      -0.444483       -12.0950
  57   2.0000      -0.437361       -11.9012
  58   2.0000      -0.428665       -11.6646
  59   2.0000      -0.418556       -11.3895
  60   2.0000      -0.411366       -11.1938
  61   2.0000      -0.407419       -11.0864
  62   2.0000      -0.402706       -10.9582
  63   2.0000      -0.347343        -9.4517
  64   2.0000      -0.328618        -8.9422
  65   2.0000      -0.321966        -8.7611
  66   2.0000      -0.288811        -7.8589
  67   0.0000       0.024003         0.6531
  68   0.0000       0.065602         1.7851
  69   0.0000       0.108414         2.9501
  70   0.0000       0.119009         3.2384
  71   0.0000       0.128163         3.4875

MULLIKEN ATOMIC CHARGES
-----------------------
   0 S :    0.099234
   1 C :   -0.145903
   2 C :   -0.136554
   3 C :    0.048887
   4 C :   -0.153124
   5 H :    0.001450
   6 C :    0.056315
   7 H :    0.059488
   8 H :    0.028444
   9 C :   -0.078582
  10 H :    0.029201
  11 H :    0.042642
  12 C :   -0.022980
  13 H :    0.021920
  14 H :    0.024726
  15 H :    0.026059
  16 S :    0.106240
  17 C :   -0.073575
  18 C :   -0.042915
  19 C :   -0.003874
  20 C :   -0.157505
  21 H :   -0.007160
  22 C :    0.041541
  23 H :    0.013277
  24 H :    0.039425
  25 C :   -0.071112
  26 H :    0.030160
  27 H :    0.027058
  28 C :   -0.034779
  29 H :    0.035601
  30 H :    0.041296
  31 H :    0.021993
  32 H :    0.079427
  33 H :    0.053678
Sum of atomic charges:    0.0000000

LOEWDIN ATOMIC CHARGES
----------------------
   0 S :    0.400752
   1 C :   -0.214151
   2 C :   -0.057548
   3 C :   -0.074508
   4 C :   -0.202994
   5 H :    0.022507
   6 C :   -0.036071
   7 H :    0.043646
   8 H :    0.036172
   9 C :   -0.038580
  10 H :    0.021375
  11 H :    0.030838
  12 C :   -0.056962
  13 H :    0.025699
  14 H :    0.017107
  15 H :    0.025423
  16 S :    0.397056
  17 C :   -0.188977
  18 C :   -0.068418
  19 C :   -0.050149
  20 C :   -0.185357
  21 H :    0.021005
  22 C :   -0.036240
  23 H :    0.024295
  24 H :    0.040933
  25 C :   -0.042645
  26 H :    0.028898
  27 H :    0.018694
  28 C :   -0.067088
  29 H :    0.028085
  30 H :    0.031305
  31 H :    0.025068
  32 H :    0.049438
  33 H :    0.031392

  Mayer bond orders larger than 0.100000
B(  0-S ,  1-C ) :   1.1227 B(  0-S ,  4-C ) :   1.1544 B(  1-C ,  2-C ) :   1.5992
B(  1-C ,  4-C ) :   0.1025 B(  1-C , 32-H ) :   0.9618 B(  2-C ,  3-C ) :   1.2319
B(  2-C ,  6-C ) :   0.9949 B(  3-C ,  4-C ) :   1.5543 B(  3-C ,  5-H ) :   0.9899
B(  4-C , 20-C ) :   1.0582 B(  6-C ,  7-H ) :   0.9377 B(  6-C ,  8-H ) :   0.9426
B(  6-C ,  9-C ) :   1.0815 B(  9-C , 10-H ) :   0.9494 B(  9-C , 11-H ) :   0.9575
B(  9-C , 12-C ) :   1.0852 B( 12-C , 13-H ) :   0.9726 B( 12-C , 14-H ) :   0.9767
B( 12-C , 15-H ) :   0.9720 B( 16-S , 17-C ) :   1.1657 B( 16-S , 20-C ) :   1.1110
B( 17-C , 18-C ) :   1.6099 B( 17-C , 33-H ) :   0.9636 B( 18-C , 19-C ) :   1.2166
B( 18-C , 21-H ) :   1.0087 B( 19-C , 20-C ) :   1.6098 B( 19-C , 22-C ) :   1.0222
B( 22-C , 23-H ) :   0.9470 B( 22-C , 24-H ) :   0.9253 B( 22-C , 25-C ) :   1.0798
B( 25-C , 26-H ) :   0.9525 B( 25-C , 27-H ) :   0.9454 B( 25-C , 28-C ) :   1.0847
B( 28-C , 29-H ) :   0.9716 B( 28-C , 30-H ) :   0.9697 B( 28-C , 31-H ) :   0.9730

Dispersion correction           -0.014977608
FINAL SINGLE POINT ENERGY     -1339.847190921945

DIPOLE MOMENT
-------------
                                X             Y             Z
Electronic contribution:     21.94127       6.29278      15.93372
Nuclear contribution   :    -22.35343      -6.43454     -16.57399
                        -----------------------------------------
Total Dipole Moment    :     -0.41217      -0.14175      -0.64027
                        -----------------------------------------
Magnitude (a.u.)       :      0.77455
Magnitude (Debye)      :      1.96874

Rotational constants in cm-1:     0.020672     0.008466     0.007183
Rotational constants in MHz :   619.742050   253.799434   215.340935

                             ****ORCA TERMINATED NORMALLY****
TOTAL RUN TIME: 0 days 0 hours 0 minutes 34 seconds 783 msec
