                         Program Version 4.2.1 -  RELEASE  -
|  1> ! wB97X-D3 SP def2-SVP
|  2> %pal
|  3> nprocs 16
|  4> end
|  5>
|  6> * xyz 0 1
|  7> S 	 1.17134 	 3.9671 	 82.0019
|  8> C 	 2.53202 	 4.78143 	 81.2867
|  9> C 	 2.1098 	 5.85204 	 80.4814
| 10> C 	 0.688632 	 6.03702 	 80.5319
| 11> C 	 0.0835354 	 5.19576 	 81.4746
| 12> H 	 -0.00560418 	 6.84311 	 80.1901
| 13> C 	 3.00451 	 6.60756 	 79.5803
| 14> H 	 3.92459 	 7.06118 	 80.0978
| 15> H 	 2.40479 	 7.44391 	 79.1236
| 16> C 	 3.56819 	 5.69407 	 78.4212
| 17> H 	 4.20082 	 4.87911 	 78.7902
| 18> H 	 2.81454 	 5.14948 	 77.941
| 19> C 	 4.29111 	 6.59517 	 77.4232
| 20> H 	 4.70008 	 5.93273 	 76.6273
| 21> H 	 3.70631 	 7.52246 	 77.1518
| 22> H 	 5.22065 	 6.9045 	 77.9686
| 23> S 	 -1.96962 	 3.41326 	 81.5019
| 24> C 	 -3.5899 	 3.93442 	 81.9205
| 25> C 	 -3.64161 	 5.30924 	 82.1067
| 26> C 	 -2.35267 	 5.95031 	 82.0167
| 27> C 	 -1.31869 	 5.04691 	 81.6963
| 28> H 	 -4.5319 	 5.76924 	 82.3746
| 29> C 	 -2.26613 	 7.40889 	 82.2765
| 30> H 	 -1.22333 	 7.64776 	 82.4497
| 31> H 	 -2.8325 	 7.60927 	 83.1901
| 32> C 	 -2.88958 	 8.22671 	 81.106
| 33> H 	 -3.96228 	 7.98122 	 80.8801
| 34> H 	 -2.43808 	 8.01511 	 80.1565
| 35> C 	 -2.77544 	 9.71363 	 81.2349
| 36> H 	 -3.44925 	 10.0369 	 82.0436
| 37> H 	 -3.03859 	 10.1514 	 80.2528
| 38> H 	 -1.76842 	 10.111 	 81.5054
| 39> H 	 3.54014 	 4.56859 	 81.5649
| 40> H 	 -4.45954 	 3.2335 	 81.8438
| 41> *
| 42>
| 43>                          ****END OF INPUT****

CARTESIAN COORDINATES (ANGSTROEM)
---------------------------------
  S      1.171340    3.967100   82.001900
  C      2.532020    4.781430   81.286700
  C      2.109800    5.852040   80.481400
  C      0.688632    6.037020   80.531900
  C      0.083535    5.195760   81.474600
  H     -0.005604    6.843110   80.190100
  C      3.004510    6.607560   79.580300
  H      3.924590    7.061180   80.097800
  H      2.404790    7.443910   79.123600
  C      3.568190    5.694070   78.421200
  H      4.200820    4.879110   78.790200
  H      2.814540    5.149480   77.941000
  C      4.291110    6.595170   77.423200
  H      4.700080    5.932730   76.627300
  H      3.706310    7.522460   77.151800
  H      5.220650    6.904500   77.968600
  S     -1.969620    3.413260   81.501900
  C     -3.589900    3.934420   81.920500
  C     -3.641610    5.309240   82.106700
  C     -2.352670    5.950310   82.016700
  C     -1.318690    5.046910   81.696300
  H     -4.531900    5.769240   82.374600
  C     -2.266130    7.408890   82.276500
  H     -1.223330    7.647760   82.449700
  H     -2.832500    7.609270   83.190100
  C     -2.889580    8.226710   81.106000
  H     -3.962280    7.981220   80.880100
  H     -2.438080    8.015110   80.156500
  C     -2.775440    9.713630   81.234900
  H     -3.449250   10.036900   82.043600
  H     -3.038590   10.151400   80.252800
  H     -1.768420   10.111000   81.505400
  H      3.540140    4.568590   81.564900
  H     -4.459540    3.233500   81.843800

 Total Charge           Charge          ....    0
 Multiplicity           Mult            ....    1
 Number of Electrons    NEL             ....  134
 Basis Dimension        Dim             ....  322

ORBITAL ENERGIES
----------------

  NO   OCC          E(Eh)            E(eV)
   0   2.0000     -88.966154     -2420.8921
   1   2.0000     -88.962491     -2420.7925
   2   2.0000     -10.326505      -280.9985
   3   2.0000     -10.325083      -280.9598
   4   2.0000     -10.320873      -280.8452
   5   2.0000     -10.312492      -280.6172
   6   2.0000     -10.305378      -280.4236
   7   2.0000     -10.303369      -280.3689
   8   2.0000     -10.300852      -280.3004
   9   2.0000     -10.299511      -280.2640
  10   2.0000     -10.292768      -280.0804
  11   2.0000     -10.290425      -280.0167
  12   2.0000     -10.288090      -279.9532
  13   2.0000     -10.286134      -279.8999
  14   2.0000     -10.282618      -279.8043
  15   2.0000     -10.281290      -279.7681
  16   2.0000      -8.081534      -219.9097
  17   2.0000      -8.077094      -219.7889
  18   2.0000      -6.039898      -164.3540
  19   2.0000      -6.035935      -164.2461
  20   2.0000      -6.035686      -164.2394
  21   2.0000      -6.032423      -164.1506
  22   2.0000      -6.031581      -164.1277
  23   2.0000      -6.027819      -164.0253
  24   2.0000      -1.008194       -27.4343
  25   2.0000      -0.980680       -26.6856
  26   2.0000      -0.914008       -24.8714
  27   2.0000      -0.910287       -24.7702
  28   2.0000      -0.870230       -23.6802
  29   2.0000      -0.856180       -23.2978
  30   2.0000      -0.848396       -23.0860
  31   2.0000      -0.812158       -22.0999
  32   2.0000      -0.778028       -21.1712
  33   2.0000      -0.763098       -20.7649
  34   2.0000      -0.703333       -19.1387
  35   2.0000      -0.700357       -19.0577
  36   2.0000      -0.693225       -18.8636
  37   2.0000      -0.666385       -18.1333
  38   2.0000      -0.644594       -17.5403
  39   2.0000      -0.611933       -16.6516
  40   2.0000      -0.594120       -16.1668
  41   2.0000      -0.569616       -15.5000
  42   2.0000      -0.566297       -15.4097
  43   2.0000      -0.554635       -15.0924
  44   2.0000      -0.533659       -14.5216
  45   2.0000      -0.523685       -14.2502
  46   2.0000      -0.520587       -14.1659
  47   2.0000      -0.513896       -13.9838
  48   2.0000      -0.502926       -13.6853
  49   2.0000      -0.500344       -13.6151
  50   2.0000      -0.495498       -13.4832
  51   2.0000      -0.477038       -12.9809
  52   2.0000      -0.468510       -12.7488
  53   2.0000      -0.463490       -12.6122
  54   2.0000      -0.457230       -12.4419
  55   2.0000      -0.446382       -12.1467
  56   2.0000      -0.443009       -12.0549
  57   2.0000      -0.440708       -11.9923
  58   2.0000      -0.432559       -11.7705
  59   2.0000      -0.426705       -11.6112
  60   2.0000      -0.420679       -11.4473
  61   2.0000      -0.415989       -11.3196
  62   2.0000      -0.412197       -11.2164
  63   2.0000      -0.349153        -9.5009
  64   2.0000      -0.328481        -8.9384
  65   2.0000      -0.326964        -8.8971
  66   2.0000      -0.283699        -7.7199
  67   0.0000       0.026175         0.7123
  68   0.0000       0.065753         1.7892
  69   0.0000       0.109495         2.9795
  70   0.0000       0.119581         3.2540
  71   0.0000       0.127873         3.4796

MULLIKEN ATOMIC CHARGES
-----------------------
   0 S :    0.109385
   1 C :   -0.115003
   2 C :   -0.051983
   3 C :    0.017806
   4 C :   -0.172808
   5 H :    0.031119
   6 C :    0.011391
   7 H :    0.046296
   8 H :    0.030256
   9 C :   -0.070615
  10 H :    0.027586
  11 H :    0.018602
  12 C :   -0.056854
  13 H :    0.042085
  14 H :    0.052102
  15 H :    0.024138
  16 S :    0.091078
  17 C :   -0.108640
  18 C :   -0.009187
  19 C :   -0.043486
  20 C :   -0.145526
  21 H :   -0.005039
  22 C :    0.091653
  23 H :    0.024612
  24 H :    0.029835
  25 C :   -0.098093
  26 H :    0.032810
  27 H :    0.016295
  28 C :   -0.046189
  29 H :    0.030671
  30 H :    0.039210
  31 H :    0.031845
  32 H :    0.046965
  33 H :    0.077679
Sum of atomic charges:    0.0000000

LOEWDIN ATOMIC CHARGES
----------------------
   0 S :    0.425258
   1 C :   -0.199923
   2 C :   -0.061565
   3 C :   -0.069149
   4 C :   -0.206453
   5 H :    0.041662
   6 C :   -0.040029
   7 H :    0.039943
   8 H :    0.033372
   9 C :   -0.038456
  10 H :    0.025004
  11 H :    0.014495
  12 C :   -0.074962
  13 H :    0.031568
  14 H :    0.033489
  15 H :    0.027010
  16 S :    0.390750
  17 C :   -0.188422
  18 C :   -0.063138
  19 C :   -0.054795
  20 C :   -0.195920
  21 H :    0.019333
  22 C :   -0.029428
  23 H :    0.030156
  24 H :    0.034971
  25 C :   -0.046783
  26 H :    0.030904
  27 H :    0.018130
  28 C :   -0.069521
  29 H :    0.024033
  30 H :    0.030773
  31 H :    0.025835
  32 H :    0.023183
  33 H :    0.038675

  Mayer bond orders larger than 0.100000
B(  0-S ,  1-C ) :   1.1493 B(  0-S ,  4-C ) :   1.1690 B(  1-C ,  2-C ) :   1.5580
B(  1-C ,  4-C ) :   0.1031 B(  1-C , 32-H ) :   0.9770 B(  2-C ,  3-C ) :   1.2556
B(  2-C ,  6-C ) :   1.0420 B(  3-C ,  4-C ) :   1.5430 B(  3-C ,  5-H ) :   0.9815
B(  4-C , 20-C ) :   1.0593 B(  6-C ,  7-H ) :   0.9366 B(  6-C ,  8-H ) :   0.9461
B(  6-C ,  9-C ) :   1.0488 B(  9-C , 10-H ) :   0.9527 B(  9-C , 11-H ) :   0.9574
B(  9-C , 12-C ) :   1.0817 B( 12-C , 13-H ) :   0.9709 B( 12-C , 14-H ) :   0.9729
B( 12-C , 15-H ) :   0.9727 B( 16-S , 17-C ) :   1.1493 B( 16-S , 20-C ) :   1.1338
B( 17-C , 18-C ) :   1.6048 B( 17-C , 33-H ) :   0.9617 B( 18-C , 19-C ) :   1.2286
B( 18-C , 21-H ) :   1.0003 B( 19-C , 20-C ) :   1.5868 B( 19-C , 22-C ) :   1.0671
B( 22-C , 23-H ) :   0.9302 B( 22-C , 24-H ) :   0.9284 B( 22-C , 25-C ) :   1.0516
B( 25-C , 26-H ) :   0.9512 B( 25-C , 27-H ) :   0.9554 B( 25-C , 28-C ) :   1.0934
B( 28-C , 29-H ) :   0.9732 B( 28-C , 30-H ) :   0.9734 B( 28-C , 31-H ) :   0.9726

Dispersion correction           -0.013696859
FINAL SINGLE POINT ENERGY     -1339.875865136760

DIPOLE MOMENT
-------------
                                X             Y             Z
Electronic contribution:     -6.25689     -24.08379      13.13712
Nuclear contribution   :      6.24577      24.60447     -13.36539
                        -----------------------------------------
Total Dipole Moment    :     -0.01112       0.52068      -0.22828
                        -----------------------------------------
Magnitude (a.u.)       :      0.56863
Magnitude (Debye)      :      1.44534

Rotational constants in cm-1:     0.018111     0.008215     0.006249
Rotational constants in MHz :   542.965311   246.292246   187.338980

                             ****ORCA TERMINATED NORMALLY****
TOTAL RUN TIME: 0 days 0 hours 0 minutes 34 seconds 171 msec
