                         Program Version 4.2.1 -  RELEASE  -
|  1> ! wB97X-D3 SP def2-SVP
|  2> %pal
|  3> nprocs 16
|  4> end
|  5>
|  6> * xyz 0 1
|  7> S 	 -8.44478 	 60.3785 	 50.36
|  8> C 	 -8.53488 	 61.8813 	 51.3335
|  9> C 	 -7.31703 	 62.0966 	 51.9369
| 10> C 	 -6.25793 	 61.3523 	 51.3597
| 11> C 	 -6.72406 	 60.3745 	 50.4965
| 12> H 	 -5.20202 	 61.458 	 51.5581
| 13> C 	 -7.07367 	 63.1843 	 52.8951
| 14> H 	 -6.14597 	 62.9579 	 53.4202
| 15> H 	 -7.82679 	 63.0532 	 53.6335
| 16> C 	 -7.17095 	 64.5537 	 52.2878
| 17> H 	 -6.54884 	 64.668 	 51.3859
| 18> H 	 -8.21935 	 64.6208 	 51.9609
| 19> C 	 -6.80428 	 65.6498 	 53.2657
| 20> H 	 -7.23981 	 65.5482 	 54.2788
| 21> H 	 -5.81304 	 65.4823 	 53.594
| 22> H 	 -6.93768 	 66.683 	 52.8752
| 23> S 	 -6.60073 	 57.8928 	 49.3451
| 24> C 	 -5.30186 	 57.4647 	 48.3815
| 25> C 	 -4.36887 	 58.5073 	 48.2029
| 26> C 	 -4.63554 	 59.6895 	 49.0544
| 27> C 	 -5.87583 	 59.5109 	 49.6494
| 28> H 	 -3.52879 	 58.3591 	 47.5888
| 29> C 	 -3.88658 	 61.0333 	 48.935
| 30> H 	 -3.54023 	 61.1938 	 49.9226
| 31> H 	 -4.56964 	 61.8199 	 48.6425
| 32> C 	 -2.67836 	 61.1116 	 48.0022
| 33> H 	 -1.97857 	 60.3136 	 48.1212
| 34> H 	 -2.02783 	 61.9475 	 48.1818
| 35> C 	 -3.06165 	 61.29 	 46.5304
| 36> H 	 -3.95167 	 60.6945 	 46.2908
| 37> H 	 -2.26521 	 61.1902 	 45.747
| 38> H 	 -3.4119 	 62.2966 	 46.4543
| 39> H 	 -9.42702 	 62.4459 	 51.4933
| 40> H 	 -5.06338 	 56.5562 	 47.8993
| 41> *
| 42>
| 43>                          ****END OF INPUT****

CARTESIAN COORDINATES (ANGSTROEM)
---------------------------------
  S     -8.444780   60.378500   50.360000
  C     -8.534880   61.881300   51.333500
  C     -7.317030   62.096600   51.936900
  C     -6.257930   61.352300   51.359700
  C     -6.724060   60.374500   50.496500
  H     -5.202020   61.458000   51.558100
  C     -7.073670   63.184300   52.895100
  H     -6.145970   62.957900   53.420200
  H     -7.826790   63.053200   53.633500
  C     -7.170950   64.553700   52.287800
  H     -6.548840   64.668000   51.385900
  H     -8.219350   64.620800   51.960900
  C     -6.804280   65.649800   53.265700
  H     -7.239810   65.548200   54.278800
  H     -5.813040   65.482300   53.594000
  H     -6.937680   66.683000   52.875200
  S     -6.600730   57.892800   49.345100
  C     -5.301860   57.464700   48.381500
  C     -4.368870   58.507300   48.202900
  C     -4.635540   59.689500   49.054400
  C     -5.875830   59.510900   49.649400
  H     -3.528790   58.359100   47.588800
  C     -3.886580   61.033300   48.935000
  H     -3.540230   61.193800   49.922600
  H     -4.569640   61.819900   48.642500
  C     -2.678360   61.111600   48.002200
  H     -1.978570   60.313600   48.121200
  H     -2.027830   61.947500   48.181800
  C     -3.061650   61.290000   46.530400
  H     -3.951670   60.694500   46.290800
  H     -2.265210   61.190200   45.747000
  H     -3.411900   62.296600   46.454300
  H     -9.427020   62.445900   51.493300
  H     -5.063380   56.556200   47.899300

 Total Charge           Charge          ....    0
 Multiplicity           Mult            ....    1
 Number of Electrons    NEL             ....  134
 Basis Dimension        Dim             ....  322

ORBITAL ENERGIES
----------------

  NO   OCC          E(Eh)            E(eV)
   0   2.0000     -88.967174     -2420.9199
   1   2.0000     -88.965647     -2420.8783
   2   2.0000     -10.330689      -281.1123
   3   2.0000     -10.328143      -281.0431
   4   2.0000     -10.312139      -280.6076
   5   2.0000     -10.312022      -280.6044
   6   2.0000     -10.310782      -280.5706
   7   2.0000     -10.296271      -280.1758
   8   2.0000     -10.295852      -280.1644
   9   2.0000     -10.294226      -280.1201
  10   2.0000     -10.290092      -280.0076
  11   2.0000     -10.288054      -279.9522
  12   2.0000     -10.283937      -279.8401
  13   2.0000     -10.282224      -279.7935
  14   2.0000     -10.277848      -279.6745
  15   2.0000     -10.276562      -279.6395
  16   2.0000      -8.082559      -219.9376
  17   2.0000      -8.080177      -219.8728
  18   2.0000      -6.041014      -164.3843
  19   2.0000      -6.038776      -164.3234
  20   2.0000      -6.037002      -164.2752
  21   2.0000      -6.034828      -164.2160
  22   2.0000      -6.033323      -164.1751
  23   2.0000      -6.030739      -164.1047
  24   2.0000      -1.006115       -27.3778
  25   2.0000      -0.983612       -26.7654
  26   2.0000      -0.923126       -25.1195
  27   2.0000      -0.914327       -24.8801
  28   2.0000      -0.868257       -23.6265
  29   2.0000      -0.856287       -23.3007
  30   2.0000      -0.841584       -22.9007
  31   2.0000      -0.813455       -22.1352
  32   2.0000      -0.788686       -21.4612
  33   2.0000      -0.773597       -21.0507
  34   2.0000      -0.710125       -19.3235
  35   2.0000      -0.708835       -19.2884
  36   2.0000      -0.695693       -18.9308
  37   2.0000      -0.658852       -17.9283
  38   2.0000      -0.640198       -17.4207
  39   2.0000      -0.621397       -16.9091
  40   2.0000      -0.597300       -16.2533
  41   2.0000      -0.571009       -15.5379
  42   2.0000      -0.564555       -15.3623
  43   2.0000      -0.556618       -15.1463
  44   2.0000      -0.539711       -14.6863
  45   2.0000      -0.536599       -14.6016
  46   2.0000      -0.519275       -14.1302
  47   2.0000      -0.515699       -14.0329
  48   2.0000      -0.506768       -13.7898
  49   2.0000      -0.498224       -13.5574
  50   2.0000      -0.487076       -13.2540
  51   2.0000      -0.481222       -13.0947
  52   2.0000      -0.469743       -12.7824
  53   2.0000      -0.468539       -12.7496
  54   2.0000      -0.458354       -12.4725
  55   2.0000      -0.453665       -12.3449
  56   2.0000      -0.445172       -12.1137
  57   2.0000      -0.440480       -11.9861
  58   2.0000      -0.437434       -11.9032
  59   2.0000      -0.428622       -11.6634
  60   2.0000      -0.421860       -11.4794
  61   2.0000      -0.414127       -11.2690
  62   2.0000      -0.410485       -11.1699
  63   2.0000      -0.353013        -9.6060
  64   2.0000      -0.332438        -9.0461
  65   2.0000      -0.328771        -8.9463
  66   2.0000      -0.281203        -7.6519
  67   0.0000       0.026139         0.7113
  68   0.0000       0.070084         1.9071
  69   0.0000       0.102594         2.7917
  70   0.0000       0.121803         3.3144
  71   0.0000       0.133333         3.6282

MULLIKEN ATOMIC CHARGES
-----------------------
   0 S :    0.102844
   1 C :   -0.145771
   2 C :   -0.065681
   3 C :   -0.015014
   4 C :   -0.092607
   5 H :    0.006960
   6 C :    0.076685
   7 H :    0.011449
   8 H :    0.017733
   9 C :   -0.058513
  10 H :    0.034061
  11 H :    0.022807
  12 C :   -0.018603
  13 H :    0.016676
  14 H :    0.006845
  15 H :    0.050223
  16 S :    0.114301
  17 C :   -0.046173
  18 C :   -0.053569
  19 C :   -0.050160
  20 C :   -0.159574
  21 H :    0.003707
  22 C :    0.078225
  23 H :    0.026756
  24 H :    0.047241
  25 C :   -0.057068
  26 H :    0.016175
  27 H :    0.020175
  28 C :   -0.071698
  29 H :    0.037957
  30 H :    0.046114
  31 H :    0.016198
  32 H :    0.044377
  33 H :    0.036924
Sum of atomic charges:    0.0000000

LOEWDIN ATOMIC CHARGES
----------------------
   0 S :    0.393576
   1 C :   -0.185335
   2 C :   -0.055579
   3 C :   -0.070207
   4 C :   -0.194359
   5 H :    0.030190
   6 C :   -0.035054
   7 H :    0.027043
   8 H :    0.029912
   9 C :   -0.036011
  10 H :    0.028505
  11 H :    0.024621
  12 C :   -0.073053
  13 H :    0.028288
  14 H :    0.019746
  15 H :    0.032449
  16 S :    0.416538
  17 C :   -0.207675
  18 C :   -0.067477
  19 C :   -0.050774
  20 C :   -0.175236
  21 H :    0.019391
  22 C :   -0.021175
  23 H :    0.029176
  24 H :    0.037862
  25 C :   -0.044068
  26 H :    0.017569
  27 H :    0.026694
  28 C :   -0.071092
  29 H :    0.025534
  30 H :    0.031970
  31 H :    0.020123
  32 H :    0.022688
  33 H :    0.025218

  Mayer bond orders larger than 0.100000
B(  0-S ,  1-C ) :   1.1170 B(  0-S ,  4-C ) :   1.1557 B(  1-C ,  2-C ) :   1.5955
B(  1-C , 32-H ) :   0.9787 B(  2-C ,  3-C ) :   1.2304 B(  2-C ,  6-C ) :   1.0368
B(  3-C ,  4-C ) :   1.5652 B(  3-C ,  5-H ) :   0.9994 B(  4-C , 20-C ) :   1.0389
B(  6-C ,  7-H ) :   0.9379 B(  6-C ,  8-H ) :   0.9211 B(  6-C ,  9-C ) :   1.0686
B(  9-C , 10-H ) :   0.9570 B(  9-C , 11-H ) :   0.9488 B(  9-C , 12-C ) :   1.0839
B( 12-C , 13-H ) :   0.9667 B( 12-C , 14-H ) :   0.9670 B( 12-C , 15-H ) :   0.9735
B( 16-S , 17-C ) :   1.1620 B( 16-S , 20-C ) :   1.1303 B( 17-C , 18-C ) :   1.6219
B( 17-C , 33-H ) :   0.9661 B( 18-C , 19-C ) :   1.2197 B( 18-C , 21-H ) :   0.9851
B( 19-C , 20-C ) :   1.6238 B( 19-C , 22-C ) :   1.0174 B( 22-C , 23-H ) :   0.9185
B( 22-C , 24-H ) :   0.9461 B( 22-C , 25-C ) :   1.0879 B( 25-C , 26-H ) :   0.9530
B( 25-C , 27-H ) :   0.9545 B( 25-C , 28-C ) :   1.0608 B( 28-C , 29-H ) :   0.9784
B( 28-C , 30-H ) :   0.9750 B( 28-C , 31-H ) :   0.9735

Dispersion correction           -0.013810265
FINAL SINGLE POINT ENERGY     -1339.865306997099

DIPOLE MOMENT
-------------
                                X             Y             Z
Electronic contribution:    -15.11620     -24.86753      -1.33640
Nuclear contribution   :     15.62133      25.42655       1.41561
                        -----------------------------------------
Total Dipole Moment    :      0.50514       0.55902       0.07920
                        -----------------------------------------
Magnitude (a.u.)       :      0.75759
Magnitude (Debye)      :      1.92563

Rotational constants in cm-1:     0.018969     0.008227     0.006145
Rotational constants in MHz :   568.665107   246.633195   184.211566

                             ****ORCA TERMINATED NORMALLY****
TOTAL RUN TIME: 0 days 0 hours 0 minutes 33 seconds 166 msec
