                         Program Version 4.2.1 -  RELEASE  -
|  1> ! wB97X-D3 SP def2-SVP
|  2> %pal
|  3> nprocs 16
|  4> end
|  5>
|  6> * xyz 0 1
|  7> S 	 2.23882 	 -3.47776 	 79.8295
|  8> C 	 1.9389 	 -1.78129 	 80.1891
|  9> C 	 2.72258 	 -1.35405 	 81.2553
| 10> C 	 3.70311 	 -2.43859 	 81.6105
| 11> C 	 3.4262 	 -3.68763 	 81.0233
| 12> H 	 4.45898 	 -2.29326 	 82.3977
| 13> C 	 2.95122 	 0.0834412 	 81.7547
| 14> H 	 2.81077 	 0.821571 	 81.0631
| 15> H 	 4.02749 	 0.0796685 	 81.9837
| 16> C 	 1.95832 	 0.50521 	 82.9155
| 17> H 	 1.96395 	 1.61284 	 83.0657
| 18> H 	 0.933591 	 0.358779 	 82.6693
| 19> C 	 2.32181 	 -0.114326 	 84.2762
| 20> H 	 1.58082 	 0.139614 	 85.0964
| 21> H 	 2.32807 	 -1.18367 	 84.1866
| 22> H 	 3.31988 	 0.192072 	 84.6091
| 23> S 	 4.33685 	 -6.04488 	 79.7877
| 24> C 	 5.49398 	 -7.07672 	 80.5357
| 25> C 	 5.65875 	 -6.71574 	 81.8746
| 26> C 	 5.08165 	 -5.47882 	 82.156
| 27> C 	 4.22192 	 -4.94455 	 81.1337
| 28> H 	 6.22158 	 -7.37121 	 82.5597
| 29> C 	 5.28537 	 -4.74934 	 83.5227
| 30> H 	 4.41094 	 -4.06348 	 83.5482
| 31> H 	 6.13037 	 -4.07091 	 83.6053
| 32> C 	 5.02321 	 -5.52602 	 84.8379
| 33> H 	 5.95084 	 -6.01536 	 85.1117
| 34> H 	 4.19812 	 -6.1846 	 84.4922
| 35> C 	 4.5243 	 -4.57989 	 85.9544
| 36> H 	 5.31001 	 -3.89316 	 86.2336
| 37> H 	 4.22159 	 -5.18836 	 86.7994
| 38> H 	 3.55623 	 -4.17431 	 85.6439
| 39> H 	 1.15392 	 -1.1398 	 79.7593
| 40> H 	 5.6918 	 -8.0351 	 80.211
| 41> *
| 42>
| 43>                          ****END OF INPUT****

CARTESIAN COORDINATES (ANGSTROEM)
---------------------------------
  S      2.238820   -3.477760   79.829500
  C      1.938900   -1.781290   80.189100
  C      2.722580   -1.354050   81.255300
  C      3.703110   -2.438590   81.610500
  C      3.426200   -3.687630   81.023300
  H      4.458980   -2.293260   82.397700
  C      2.951220    0.083441   81.754700
  H      2.810770    0.821571   81.063100
  H      4.027490    0.079669   81.983700
  C      1.958320    0.505210   82.915500
  H      1.963950    1.612840   83.065700
  H      0.933591    0.358779   82.669300
  C      2.321810   -0.114326   84.276200
  H      1.580820    0.139614   85.096400
  H      2.328070   -1.183670   84.186600
  H      3.319880    0.192072   84.609100
  S      4.336850   -6.044880   79.787700
  C      5.493980   -7.076720   80.535700
  C      5.658750   -6.715740   81.874600
  C      5.081650   -5.478820   82.156000
  C      4.221920   -4.944550   81.133700
  H      6.221580   -7.371210   82.559700
  C      5.285370   -4.749340   83.522700
  H      4.410940   -4.063480   83.548200
  H      6.130370   -4.070910   83.605300
  C      5.023210   -5.526020   84.837900
  H      5.950840   -6.015360   85.111700
  H      4.198120   -6.184600   84.492200
  C      4.524300   -4.579890   85.954400
  H      5.310010   -3.893160   86.233600
  H      4.221590   -5.188360   86.799400
  H      3.556230   -4.174310   85.643900
  H      1.153920   -1.139800   79.759300
  H      5.691800   -8.035100   80.211000

 Total Charge           Charge          ....    0
 Multiplicity           Mult            ....    1
 Number of Electrons    NEL             ....  134
 Basis Dimension        Dim             ....  322

ORBITAL ENERGIES
----------------

  NO   OCC          E(Eh)            E(eV)
   0   2.0000     -88.969386     -2420.9801
   1   2.0000     -88.969017     -2420.9700
   2   2.0000     -10.339117      -281.3417
   3   2.0000     -10.338778      -281.3325
   4   2.0000     -10.321656      -280.8665
   5   2.0000     -10.312163      -280.6082
   6   2.0000     -10.311673      -280.5949
   7   2.0000     -10.310296      -280.5574
   8   2.0000     -10.304300      -280.3943
   9   2.0000     -10.296984      -280.1952
  10   2.0000     -10.295848      -280.1643
  11   2.0000     -10.291708      -280.0516
  12   2.0000     -10.289052      -279.9793
  13   2.0000     -10.287728      -279.9433
  14   2.0000     -10.279490      -279.7191
  15   2.0000     -10.279471      -279.7186
  16   2.0000      -8.084458      -219.9893
  17   2.0000      -8.084386      -219.9873
  18   2.0000      -6.043095      -164.4410
  19   2.0000      -6.042804      -164.4331
  20   2.0000      -6.038735      -164.3223
  21   2.0000      -6.038586      -164.3183
  22   2.0000      -6.035517      -164.2348
  23   2.0000      -6.035152      -164.2248
  24   2.0000      -1.008664       -27.4472
  25   2.0000      -0.986820       -26.8527
  26   2.0000      -0.908070       -24.7098
  27   2.0000      -0.905709       -24.6456
  28   2.0000      -0.868124       -23.6228
  29   2.0000      -0.850598       -23.1460
  30   2.0000      -0.840519       -22.8717
  31   2.0000      -0.812672       -22.1139
  32   2.0000      -0.784146       -21.3377
  33   2.0000      -0.773378       -21.0447
  34   2.0000      -0.706483       -19.2244
  35   2.0000      -0.701073       -19.0772
  36   2.0000      -0.695330       -18.9209
  37   2.0000      -0.653843       -17.7920
  38   2.0000      -0.635561       -17.2945
  39   2.0000      -0.619937       -16.8693
  40   2.0000      -0.597755       -16.2657
  41   2.0000      -0.577035       -15.7019
  42   2.0000      -0.572922       -15.5900
  43   2.0000      -0.543745       -14.7960
  44   2.0000      -0.542058       -14.7501
  45   2.0000      -0.523555       -14.2466
  46   2.0000      -0.516179       -14.0460
  47   2.0000      -0.513740       -13.9796
  48   2.0000      -0.507372       -13.8063
  49   2.0000      -0.498101       -13.5540
  50   2.0000      -0.489409       -13.3175
  51   2.0000      -0.479906       -13.0589
  52   2.0000      -0.472520       -12.8579
  53   2.0000      -0.465914       -12.6782
  54   2.0000      -0.462922       -12.5968
  55   2.0000      -0.448751       -12.2111
  56   2.0000      -0.443472       -12.0675
  57   2.0000      -0.436863       -11.8877
  58   2.0000      -0.430015       -11.7013
  59   2.0000      -0.426487       -11.6053
  60   2.0000      -0.415194       -11.2980
  61   2.0000      -0.412396       -11.2219
  62   2.0000      -0.404090       -10.9958
  63   2.0000      -0.359903        -9.7935
  64   2.0000      -0.334242        -9.0952
  65   2.0000      -0.326866        -8.8945
  66   2.0000      -0.288046        -7.8381
  67   0.0000       0.017615         0.4793
  68   0.0000       0.079317         2.1583
  69   0.0000       0.107640         2.9290
  70   0.0000       0.110418         3.0046
  71   0.0000       0.130105         3.5403

MULLIKEN ATOMIC CHARGES
-----------------------
   0 S :    0.101711
   1 C :   -0.115955
   2 C :   -0.100116
   3 C :   -0.019430
   4 C :   -0.102889
   5 H :    0.027689
   6 C :    0.081576
   7 H :    0.007095
   8 H :    0.035703
   9 C :   -0.075018
  10 H :    0.027580
  11 H :    0.024040
  12 C :   -0.064102
  13 H :    0.042573
  14 H :    0.029734
  15 H :    0.027803
  16 S :    0.103499
  17 C :   -0.056314
  18 C :   -0.053170
  19 C :   -0.050834
  20 C :   -0.120880
  21 H :    0.036005
  22 C :   -0.000682
  23 H :    0.017249
  24 H :    0.039970
  25 C :   -0.086659
  26 H :    0.033599
  27 H :    0.040758
  28 C :   -0.043717
  29 H :    0.043930
  30 H :    0.030656
  31 H :    0.037709
  32 H :    0.062833
  33 H :    0.038052
Sum of atomic charges:    0.0000000

LOEWDIN ATOMIC CHARGES
----------------------
   0 S :    0.423124
   1 C :   -0.198930
   2 C :   -0.059495
   3 C :   -0.071664
   4 C :   -0.209408
   5 H :    0.028734
   6 C :   -0.020154
   7 H :    0.018683
   8 H :    0.037927
   9 C :   -0.038115
  10 H :    0.025356
  11 H :    0.019866
  12 C :   -0.070552
  13 H :    0.032439
  14 H :    0.019019
  15 H :    0.022989
  16 S :    0.431879
  17 C :   -0.189515
  18 C :   -0.070917
  19 C :   -0.058715
  20 C :   -0.201850
  21 H :    0.039593
  22 C :   -0.045314
  23 H :    0.029809
  24 H :    0.023864
  25 C :   -0.041260
  26 H :    0.017992
  27 H :    0.032267
  28 C :   -0.062391
  29 H :    0.026160
  30 H :    0.027587
  31 H :    0.029020
  32 H :    0.037428
  33 H :    0.014544

  Mayer bond orders larger than 0.100000
B(  0-S ,  1-C ) :   1.1392 B(  0-S ,  4-C ) :   1.1599 B(  1-C ,  2-C ) :   1.6234
B(  1-C , 32-H ) :   0.9623 B(  2-C ,  3-C ) :   1.2333 B(  2-C ,  6-C ) :   1.0122
B(  3-C ,  4-C ) :   1.5497 B(  3-C ,  5-H ) :   0.9752 B(  4-C , 20-C ) :   1.0530
B(  6-C ,  7-H ) :   0.9478 B(  6-C ,  8-H ) :   0.9544 B(  6-C ,  9-C ) :   1.0490
B(  9-C , 10-H ) :   0.9593 B(  9-C , 11-H ) :   0.9593 B(  9-C , 12-C ) :   1.0728
B( 12-C , 13-H ) :   0.9738 B( 12-C , 14-H ) :   0.9783 B( 12-C , 15-H ) :   0.9769
B( 16-S , 17-C ) :   1.1906 B( 16-S , 20-C ) :   1.1643 B( 17-C , 18-C ) :   1.5450
B( 17-C , 20-C ) :   0.1139 B( 17-C , 33-H ) :   0.9683 B( 18-C , 19-C ) :   1.3191
B( 18-C , 21-H ) :   0.9877 B( 19-C , 20-C ) :   1.5207 B( 19-C , 22-C ) :   1.0255
B( 22-C , 23-H ) :   0.9386 B( 22-C , 24-H ) :   0.9390 B( 22-C , 25-C ) :   1.0496
B( 25-C , 26-H ) :   0.9521 B( 25-C , 27-H ) :   0.9575 B( 25-C , 28-C ) :   1.0985
B( 28-C , 29-H ) :   0.9764 B( 28-C , 30-H ) :   0.9722 B( 28-C , 31-H ) :   0.9686

Dispersion correction           -0.013993873
FINAL SINGLE POINT ENERGY     -1339.854023050518

DIPOLE MOMENT
-------------
                                X             Y             Z
Electronic contribution:     -1.14569     -15.23089     -28.49265
Nuclear contribution   :      1.22554      15.54662      29.03501
                        -----------------------------------------
Total Dipole Moment    :      0.07985       0.31573       0.54236
                        -----------------------------------------
Magnitude (a.u.)       :      0.63263
Magnitude (Debye)      :      1.60802

Rotational constants in cm-1:     0.016984     0.009570     0.006438
Rotational constants in MHz :   509.173561   286.891800   193.000012

                             ****ORCA TERMINATED NORMALLY****
TOTAL RUN TIME: 0 days 0 hours 0 minutes 34 seconds 803 msec
