                         Program Version 4.2.1 -  RELEASE  -
|  1> ! wB97X-D3 SP def2-SVP
|  2> %pal
|  3> nprocs 16
|  4> end
|  5>
|  6> * xyz 0 1
|  7> S 	 -97.4567 	 59.539 	 124.053
|  8> C 	 -98.0698 	 58.1221 	 123.313
|  9> C 	 -97.513 	 56.9862 	 123.858
| 10> C 	 -96.6167 	 57.3406 	 124.939
| 11> C 	 -96.5697 	 58.6564 	 125.255
| 12> H 	 -96.0563 	 56.6763 	 125.705
| 13> C 	 -97.7087 	 55.4698 	 123.433
| 14> H 	 -98.6948 	 55.2145 	 123.155
| 15> H 	 -97.5874 	 54.9005 	 124.391
| 16> C 	 -96.7929 	 55.0322 	 122.311
| 17> H 	 -96.9093 	 55.7476 	 121.445
| 18> H 	 -95.8004 	 55.0091 	 122.731
| 19> C 	 -97.2376 	 53.6234 	 121.833
| 20> H 	 -97.4407 	 52.9912 	 122.646
| 21> H 	 -98.1105 	 53.7846 	 121.238
| 22> H 	 -96.5395 	 53.077 	 121.262
| 23> S 	 -96.6965 	 60.6107 	 127.24
| 24> C 	 -95.2516 	 60.932 	 128.146
| 25> C 	 -94.1488 	 60.181 	 127.772
| 26> C 	 -94.5425 	 59.2339 	 126.761
| 27> C 	 -95.8763 	 59.3349 	 126.334
| 28> H 	 -93.2393 	 60.2112 	 128.325
| 29> C 	 -93.5638 	 58.2432 	 126.207
| 30> H 	 -92.754 	 58.7544 	 125.652
| 31> H 	 -94.0637 	 57.6514 	 125.442
| 32> C 	 -92.9337 	 57.3242 	 127.288
| 33> H 	 -93.7184 	 56.6494 	 127.652
| 34> H 	 -92.6775 	 57.9272 	 128.176
| 35> C 	 -91.7102 	 56.5008 	 126.716
| 36> H 	 -90.8301 	 57.073 	 126.443
| 37> H 	 -92.0664 	 55.9193 	 125.928
| 38> H 	 -91.309 	 55.7975 	 127.454
| 39> H 	 -98.7153 	 58.2693 	 122.428
| 40> H 	 -95.2385 	 61.6726 	 128.931
| 41> *
| 42>
| 43>                          ****END OF INPUT****

CARTESIAN COORDINATES (ANGSTROEM)
---------------------------------
  S    -97.456700   59.539000  124.053000
  C    -98.069800   58.122100  123.313000
  C    -97.513000   56.986200  123.858000
  C    -96.616700   57.340600  124.939000
  C    -96.569700   58.656400  125.255000
  H    -96.056300   56.676300  125.705000
  C    -97.708700   55.469800  123.433000
  H    -98.694800   55.214500  123.155000
  H    -97.587400   54.900500  124.391000
  C    -96.792900   55.032200  122.311000
  H    -96.909300   55.747600  121.445000
  H    -95.800400   55.009100  122.731000
  C    -97.237600   53.623400  121.833000
  H    -97.440700   52.991200  122.646000
  H    -98.110500   53.784600  121.238000
  H    -96.539500   53.077000  121.262000
  S    -96.696500   60.610700  127.240000
  C    -95.251600   60.932000  128.146000
  C    -94.148800   60.181000  127.772000
  C    -94.542500   59.233900  126.761000
  C    -95.876300   59.334900  126.334000
  H    -93.239300   60.211200  128.325000
  C    -93.563800   58.243200  126.207000
  H    -92.754000   58.754400  125.652000
  H    -94.063700   57.651400  125.442000
  C    -92.933700   57.324200  127.288000
  H    -93.718400   56.649400  127.652000
  H    -92.677500   57.927200  128.176000
  C    -91.710200   56.500800  126.716000
  H    -90.830100   57.073000  126.443000
  H    -92.066400   55.919300  125.928000
  H    -91.309000   55.797500  127.454000
  H    -98.715300   58.269300  122.428000
  H    -95.238500   61.672600  128.931000

 Total Charge           Charge          ....    0
 Multiplicity           Mult            ....    1
 Number of Electrons    NEL             ....  134
 Basis Dimension        Dim             ....  322

ORBITAL ENERGIES
----------------

  NO   OCC          E(Eh)            E(eV)
   0   2.0000     -88.967816     -2420.9373
   1   2.0000     -88.959901     -2420.7220
   2   2.0000     -10.327737      -281.0320
   3   2.0000     -10.323795      -280.9248
   4   2.0000     -10.319695      -280.8132
   5   2.0000     -10.315379      -280.6957
   6   2.0000     -10.308798      -280.5167
   7   2.0000     -10.305613      -280.4300
   8   2.0000     -10.298000      -280.2228
   9   2.0000     -10.295620      -280.1581
  10   2.0000     -10.294426      -280.1256
  11   2.0000     -10.293361      -280.0966
  12   2.0000     -10.288759      -279.9714
  13   2.0000     -10.287879      -279.9474
  14   2.0000     -10.277672      -279.6697
  15   2.0000     -10.269535      -279.4483
  16   2.0000      -8.082485      -219.9356
  17   2.0000      -8.076170      -219.7638
  18   2.0000      -6.040945      -164.3825
  19   2.0000      -6.036958      -164.2740
  20   2.0000      -6.034592      -164.2096
  21   2.0000      -6.033351      -164.1758
  22   2.0000      -6.030375      -164.0948
  23   2.0000      -6.027008      -164.0032
  24   2.0000      -1.010100       -27.4862
  25   2.0000      -0.986207       -26.8361
  26   2.0000      -0.910998       -24.7895
  27   2.0000      -0.904886       -24.6232
  28   2.0000      -0.872819       -23.7506
  29   2.0000      -0.849396       -23.1132
  30   2.0000      -0.842990       -22.9389
  31   2.0000      -0.814977       -22.1767
  32   2.0000      -0.783612       -21.3232
  33   2.0000      -0.771290       -20.9879
  34   2.0000      -0.706872       -19.2350
  35   2.0000      -0.699169       -19.0254
  36   2.0000      -0.694542       -18.8995
  37   2.0000      -0.661930       -18.0120
  38   2.0000      -0.646688       -17.5973
  39   2.0000      -0.616447       -16.7744
  40   2.0000      -0.598242       -16.2790
  41   2.0000      -0.570781       -15.5318
  42   2.0000      -0.567198       -15.4342
  43   2.0000      -0.556882       -15.1535
  44   2.0000      -0.526012       -14.3135
  45   2.0000      -0.519718       -14.1422
  46   2.0000      -0.517181       -14.0732
  47   2.0000      -0.511633       -13.9222
  48   2.0000      -0.503504       -13.7010
  49   2.0000      -0.496787       -13.5183
  50   2.0000      -0.492251       -13.3948
  51   2.0000      -0.478412       -13.0183
  52   2.0000      -0.470658       -12.8073
  53   2.0000      -0.465804       -12.6752
  54   2.0000      -0.464149       -12.6301
  55   2.0000      -0.455307       -12.3895
  56   2.0000      -0.439943       -11.9715
  57   2.0000      -0.436812       -11.8862
  58   2.0000      -0.435933       -11.8623
  59   2.0000      -0.426832       -11.6147
  60   2.0000      -0.422438       -11.4951
  61   2.0000      -0.419168       -11.4061
  62   2.0000      -0.411294       -11.1919
  63   2.0000      -0.352763        -9.5992
  64   2.0000      -0.332628        -9.0513
  65   2.0000      -0.328978        -8.9520
  66   2.0000      -0.291839        -7.9413
  67   0.0000       0.032940         0.8963
  68   0.0000       0.073042         1.9876
  69   0.0000       0.116876         3.1803
  70   0.0000       0.120576         3.2810
  71   0.0000       0.128784         3.5044

MULLIKEN ATOMIC CHARGES
-----------------------
   0 S :    0.102550
   1 C :   -0.145787
   2 C :   -0.062265
   3 C :   -0.017202
   4 C :   -0.162537
   5 H :    0.046247
   6 C :    0.052993
   7 H :    0.005922
   8 H :    0.031259
   9 C :   -0.070549
  10 H :    0.044163
  11 H :    0.028094
  12 C :   -0.009652
  13 H :    0.015963
  14 H :    0.027935
  15 H :    0.022419
  16 S :    0.114382
  17 C :   -0.087209
  18 C :   -0.016141
  19 C :   -0.038088
  20 C :   -0.151688
  21 H :    0.020566
  22 C :    0.062294
  23 H :    0.034428
  24 H :    0.012836
  25 C :   -0.101329
  26 H :    0.029980
  27 H :    0.029760
  28 C :   -0.027831
  29 H :    0.036070
  30 H :    0.023108
  31 H :    0.029619
  32 H :    0.065566
  33 H :    0.054123
Sum of atomic charges:    0.0000000

LOEWDIN ATOMIC CHARGES
----------------------
   0 S :    0.418632
   1 C :   -0.207313
   2 C :   -0.063681
   3 C :   -0.083191
   4 C :   -0.202230
   5 H :    0.045852
   6 C :   -0.028411
   7 H :    0.018750
   8 H :    0.034530
   9 C :   -0.036001
  10 H :    0.032376
  11 H :    0.021084
  12 C :   -0.057153
  13 H :    0.018520
  14 H :    0.024682
  15 H :    0.020440
  16 S :    0.408115
  17 C :   -0.175010
  18 C :   -0.068947
  19 C :   -0.046072
  20 C :   -0.205192
  21 H :    0.030523
  22 C :   -0.038724
  23 H :    0.034504
  24 H :    0.025498
  25 C :   -0.036486
  26 H :    0.024894
  27 H :    0.020850
  28 C :   -0.062337
  29 H :    0.026240
  30 H :    0.017758
  31 H :    0.028556
  32 H :    0.034037
  33 H :    0.024909

  Mayer bond orders larger than 0.100000
B(  0-S ,  1-C ) :   1.1524 B(  0-S ,  4-C ) :   1.1514 B(  1-C ,  2-C ) :   1.6039
B(  1-C , 32-H ) :   0.9725 B(  2-C ,  3-C ) :   1.2349 B(  2-C ,  6-C ) :   1.0003
B(  3-C ,  4-C ) :   1.6114 B(  3-C ,  5-H ) :   0.9711 B(  4-C , 20-C ) :   1.0452
B(  6-C ,  7-H ) :   0.9499 B(  6-C ,  8-H ) :   0.9414 B(  6-C ,  9-C ) :   1.0596
B(  9-C , 10-H ) :   0.9617 B(  9-C , 11-H ) :   0.9555 B(  9-C , 12-C ) :   1.0755
B( 12-C , 13-H ) :   0.9730 B( 12-C , 14-H ) :   0.9763 B( 12-C , 15-H ) :   0.9743
B( 16-S , 17-C ) :   1.1720 B( 16-S , 20-C ) :   1.1266 B( 17-C , 18-C ) :   1.6017
B( 17-C , 33-H ) :   0.9658 B( 18-C , 19-C ) :   1.2319 B( 18-C , 21-H ) :   0.9935
B( 19-C , 20-C ) :   1.5872 B( 19-C , 22-C ) :   1.0555 B( 22-C , 23-H ) :   0.9336
B( 22-C , 24-H ) :   0.9313 B( 22-C , 25-C ) :   1.0432 B( 25-C , 26-H ) :   0.9544
B( 25-C , 27-H ) :   0.9636 B( 25-C , 28-C ) :   1.0726 B( 28-C , 29-H ) :   0.9774
B( 28-C , 30-H ) :   0.9760 B( 28-C , 31-H ) :   0.9751

Dispersion correction           -0.013515170
FINAL SINGLE POINT ENERGY     -1339.883591348166

DIPOLE MOMENT
-------------
                                X             Y             Z
Electronic contribution:    -14.05934      27.70238       7.05710
Nuclear contribution   :     14.43409     -28.22732      -7.05304
                        -----------------------------------------
Total Dipole Moment    :      0.37475      -0.52494       0.00406
                        -----------------------------------------
Magnitude (a.u.)       :      0.64500
Magnitude (Debye)      :      1.63945

Rotational constants in cm-1:     0.017502     0.008504     0.006021
Rotational constants in MHz :   524.689345   254.947775   180.501016

                             ****ORCA TERMINATED NORMALLY****
TOTAL RUN TIME: 0 days 0 hours 0 minutes 33 seconds 399 msec
