                         Program Version 4.2.1 -  RELEASE  -
|  1> ! wB97X-D3 SP def2-SVP
|  2> %pal
|  3> nprocs 16
|  4> end
|  5>
|  6> * xyz 0 1
|  7> S 	 -25.4868 	 44.2397 	 56.8081
|  8> C 	 -26.6449 	 44.7203 	 57.9093
|  9> C 	 -26.1703 	 45.6516 	 58.8264
| 10> C 	 -24.7735 	 45.7276 	 58.7861
| 11> C 	 -24.2145 	 44.9228 	 57.8176
| 12> H 	 -24.1986 	 46.2838 	 59.4815
| 13> C 	 -27.0906 	 46.3521 	 59.7107
| 14> H 	 -28.0439 	 46.5864 	 59.179
| 15> H 	 -26.7888 	 47.3505 	 60.0407
| 16> C 	 -27.5687 	 45.6013 	 60.9241
| 17> H 	 -28.4668 	 46.0774 	 61.3732
| 18> H 	 -28.0928 	 44.6513 	 60.7601
| 19> C 	 -26.5957 	 45.4774 	 62.0555
| 20> H 	 -26.0997 	 46.398 	 62.321
| 21> H 	 -27.0207 	 45.1677 	 62.9419
| 22> H 	 -25.6951 	 44.8833 	 61.9324
| 23> S 	 -21.7552 	 44.2299 	 58.827
| 24> C 	 -20.3468 	 44.2112 	 57.6249
| 25> C 	 -20.7088 	 44.6928 	 56.3817
| 26> C 	 -22.1195 	 45.0132 	 56.3019
| 27> C 	 -22.8237 	 44.7296 	 57.5034
| 28> H 	 -19.9725 	 44.8381 	 55.6351
| 29> C 	 -22.7916 	 45.5207 	 55.0009
| 30> H 	 -22.1792 	 46.2413 	 54.4789
| 31> H 	 -23.6677 	 46.0243 	 55.379
| 32> C 	 -23.279 	 44.4016 	 54.0271
| 33> H 	 -23.9632 	 44.8844 	 53.3393
| 34> H 	 -23.8022 	 43.6001 	 54.5499
| 35> C 	 -22.2152 	 43.7249 	 53.1519
| 36> H 	 -22.7258 	 43.1284 	 52.3953
| 37> H 	 -21.5246 	 43.107 	 53.7503
| 38> H 	 -21.5818 	 44.4574 	 52.7036
| 39> H 	 -27.614 	 44.4106 	 57.9312
| 40> H 	 -19.4146 	 43.8389 	 57.9902
| 41> *
| 42>
| 43>                          ****END OF INPUT****

CARTESIAN COORDINATES (ANGSTROEM)
---------------------------------
  S    -25.486800   44.239700   56.808100
  C    -26.644900   44.720300   57.909300
  C    -26.170300   45.651600   58.826400
  C    -24.773500   45.727600   58.786100
  C    -24.214500   44.922800   57.817600
  H    -24.198600   46.283800   59.481500
  C    -27.090600   46.352100   59.710700
  H    -28.043900   46.586400   59.179000
  H    -26.788800   47.350500   60.040700
  C    -27.568700   45.601300   60.924100
  H    -28.466800   46.077400   61.373200
  H    -28.092800   44.651300   60.760100
  C    -26.595700   45.477400   62.055500
  H    -26.099700   46.398000   62.321000
  H    -27.020700   45.167700   62.941900
  H    -25.695100   44.883300   61.932400
  S    -21.755200   44.229900   58.827000
  C    -20.346800   44.211200   57.624900
  C    -20.708800   44.692800   56.381700
  C    -22.119500   45.013200   56.301900
  C    -22.823700   44.729600   57.503400
  H    -19.972500   44.838100   55.635100
  C    -22.791600   45.520700   55.000900
  H    -22.179200   46.241300   54.478900
  H    -23.667700   46.024300   55.379000
  C    -23.279000   44.401600   54.027100
  H    -23.963200   44.884400   53.339300
  H    -23.802200   43.600100   54.549900
  C    -22.215200   43.724900   53.151900
  H    -22.725800   43.128400   52.395300
  H    -21.524600   43.107000   53.750300
  H    -21.581800   44.457400   52.703600
  H    -27.614000   44.410600   57.931200
  H    -19.414600   43.838900   57.990200

 Total Charge           Charge          ....    0
 Multiplicity           Mult            ....    1
 Number of Electrons    NEL             ....  134
 Basis Dimension        Dim             ....  322

ORBITAL ENERGIES
----------------

  NO   OCC          E(Eh)            E(eV)
   0   2.0000     -88.968236     -2420.9488
   1   2.0000     -88.964176     -2420.8383
   2   2.0000     -10.328866      -281.0627
   3   2.0000     -10.325052      -280.9589
   4   2.0000     -10.323521      -280.9173
   5   2.0000     -10.307646      -280.4853
   6   2.0000     -10.300283      -280.2849
   7   2.0000     -10.298458      -280.2353
   8   2.0000     -10.292956      -280.0856
   9   2.0000     -10.290919      -280.0301
  10   2.0000     -10.290495      -280.0186
  11   2.0000     -10.289849      -280.0010
  12   2.0000     -10.285165      -279.8736
  13   2.0000     -10.283159      -279.8190
  14   2.0000     -10.272792      -279.5369
  15   2.0000     -10.263170      -279.2750
  16   2.0000      -8.083801      -219.9714
  17   2.0000      -8.077273      -219.7938
  18   2.0000      -6.042074      -164.4132
  19   2.0000      -6.038220      -164.3083
  20   2.0000      -6.035872      -164.2444
  21   2.0000      -6.034739      -164.2136
  22   2.0000      -6.032223      -164.1451
  23   2.0000      -6.027841      -164.0259
  24   2.0000      -1.011849       -27.5338
  25   2.0000      -0.974411       -26.5151
  26   2.0000      -0.919839       -25.0301
  27   2.0000      -0.899108       -24.4660
  28   2.0000      -0.872618       -23.7451
  29   2.0000      -0.857964       -23.3464
  30   2.0000      -0.840516       -22.8716
  31   2.0000      -0.820267       -22.3206
  32   2.0000      -0.786917       -21.4131
  33   2.0000      -0.768700       -20.9174
  34   2.0000      -0.710008       -19.3203
  35   2.0000      -0.705297       -19.1921
  36   2.0000      -0.688390       -18.7320
  37   2.0000      -0.667208       -18.1556
  38   2.0000      -0.647742       -17.6260
  39   2.0000      -0.618720       -16.8362
  40   2.0000      -0.593400       -16.1472
  41   2.0000      -0.575646       -15.6641
  42   2.0000      -0.559709       -15.2304
  43   2.0000      -0.551011       -14.9938
  44   2.0000      -0.543850       -14.7989
  45   2.0000      -0.536148       -14.5893
  46   2.0000      -0.521308       -14.1855
  47   2.0000      -0.512263       -13.9394
  48   2.0000      -0.506613       -13.7856
  49   2.0000      -0.491612       -13.3774
  50   2.0000      -0.491078       -13.3629
  51   2.0000      -0.477832       -13.0025
  52   2.0000      -0.475066       -12.9272
  53   2.0000      -0.469042       -12.7633
  54   2.0000      -0.459873       -12.5138
  55   2.0000      -0.447075       -12.1655
  56   2.0000      -0.439289       -11.9537
  57   2.0000      -0.434905       -11.8344
  58   2.0000      -0.431460       -11.7406
  59   2.0000      -0.426710       -11.6114
  60   2.0000      -0.423290       -11.5183
  61   2.0000      -0.410937       -11.1822
  62   2.0000      -0.402460       -10.9515
  63   2.0000      -0.350029        -9.5248
  64   2.0000      -0.335719        -9.1354
  65   2.0000      -0.323811        -8.8114
  66   2.0000      -0.282200        -7.6791
  67   0.0000       0.029297         0.7972
  68   0.0000       0.059895         1.6298
  69   0.0000       0.093105         2.5335
  70   0.0000       0.114897         3.1265
  71   0.0000       0.131962         3.5909

MULLIKEN ATOMIC CHARGES
-----------------------
   0 S :    0.130089
   1 C :   -0.066767
   2 C :   -0.053991
   3 C :    0.050137
   4 C :   -0.181882
   5 H :   -0.004015
   6 C :    0.063416
   7 H :    0.026151
   8 H :    0.022381
   9 C :   -0.069769
  10 H :    0.016005
  11 H :    0.017506
  12 C :   -0.006990
  13 H :   -0.000045
  14 H :    0.009351
  15 H :    0.023814
  16 S :    0.080627
  17 C :   -0.100011
  18 C :    0.009553
  19 C :   -0.056011
  20 C :   -0.139582
  21 H :    0.013531
  22 C :    0.076264
  23 H :    0.024045
  24 H :    0.025628
  25 C :   -0.075995
  26 H :    0.028549
  27 H :    0.034053
  28 C :   -0.040713
  29 H :    0.039928
  30 H :    0.033222
  31 H :    0.012702
  32 H :    0.005240
  33 H :    0.053577
Sum of atomic charges:   -0.0000000

LOEWDIN ATOMIC CHARGES
----------------------
   0 S :    0.456603
   1 C :   -0.196720
   2 C :   -0.065445
   3 C :   -0.050701
   4 C :   -0.195736
   5 H :    0.026989
   6 C :   -0.038593
   7 H :    0.039985
   8 H :    0.033441
   9 C :   -0.047574
  10 H :    0.028997
  11 H :    0.024749
  12 C :   -0.067976
  13 H :    0.021723
  14 H :    0.017066
  15 H :    0.025037
  16 S :    0.353137
  17 C :   -0.145984
  18 C :   -0.060052
  19 C :   -0.055129
  20 C :   -0.190643
  21 H :    0.029402
  22 C :   -0.030698
  23 H :    0.027912
  24 H :    0.025684
  25 C :   -0.039655
  26 H :    0.023492
  27 H :    0.017453
  28 C :   -0.064487
  29 H :    0.029130
  30 H :    0.025217
  31 H :    0.015838
  32 H :    0.007528
  33 H :    0.020011

  Mayer bond orders larger than 0.100000
B(  0-S ,  1-C ) :   1.1782 B(  0-S ,  4-C ) :   1.1585 B(  1-C ,  2-C ) :   1.5503
B(  1-C ,  4-C ) :   0.1004 B(  1-C , 32-H ) :   0.9800 B(  2-C ,  3-C ) :   1.2788
B(  2-C ,  6-C ) :   1.0415 B(  3-C ,  4-C ) :   1.5272 B(  3-C ,  5-H ) :   1.0072
B(  4-C , 20-C ) :   1.0485 B(  6-C ,  7-H ) :   0.9292 B(  6-C ,  8-H ) :   0.9393
B(  6-C ,  9-C ) :   1.0866 B(  9-C , 10-H ) :   0.9460 B(  9-C , 11-H ) :   0.9488
B(  9-C , 12-C ) :   1.0846 B( 12-C , 13-H ) :   0.9664 B( 12-C , 14-H ) :   0.9697
B( 12-C , 15-H ) :   0.9721 B( 16-S , 17-C ) :   1.1211 B( 16-S , 20-C ) :   1.1330
B( 17-C , 18-C ) :   1.6233 B( 17-C , 20-C ) :   0.1024 B( 17-C , 33-H ) :   0.9743
B( 18-C , 19-C ) :   1.2086 B( 18-C , 21-H ) :   0.9951 B( 19-C , 20-C ) :   1.5920
B( 19-C , 22-C ) :   1.0444 B( 22-C , 23-H ) :   0.9409 B( 22-C , 24-H ) :   0.9235
B( 22-C , 25-C ) :   1.0695 B( 25-C , 26-H ) :   0.9561 B( 25-C , 27-H ) :   0.9517
B( 25-C , 28-C ) :   1.0823 B( 28-C , 29-H ) :   0.9737 B( 28-C , 30-H ) :   0.9748
B( 28-C , 31-H ) :   0.9748

Dispersion correction           -0.014885830
FINAL SINGLE POINT ENERGY     -1339.864870604175

DIPOLE MOMENT
-------------
                                X             Y             Z
Electronic contribution:      8.06513      -4.13959       1.11577
Nuclear contribution   :     -8.27630       4.41760      -1.18194
                        -----------------------------------------
Total Dipole Moment    :     -0.21117       0.27801      -0.06617
                        -----------------------------------------
Magnitude (a.u.)       :      0.35533
Magnitude (Debye)      :      0.90318

Rotational constants in cm-1:     0.023844     0.008188     0.006484
Rotational constants in MHz :   714.832159   245.477387   194.390715

                             ****ORCA TERMINATED NORMALLY****
TOTAL RUN TIME: 0 days 0 hours 0 minutes 38 seconds 286 msec
