                         Program Version 4.2.1 -  RELEASE  -
|  1> ! wB97X-D3 SP def2-SVP
|  2> %pal
|  3> nprocs 16
|  4> end
|  5>
|  6> * xyz 0 1
|  7> S 	 -38.2347 	 51.8925 	 96.3164
|  8> C 	 -37.3977 	 50.8337 	 97.4333
|  9> C 	 -37.9994 	 49.6054 	 97.5368
| 10> C 	 -39.1585 	 49.5547 	 96.6739
| 11> C 	 -39.4204 	 50.6478 	 95.8736
| 12> H 	 -39.713 	 48.6151 	 96.5321
| 13> C 	 -37.5884 	 48.3211 	 98.238
| 14> H 	 -36.5679 	 48.3682 	 98.3492
| 15> H 	 -37.857 	 47.5425 	 97.4662
| 16> C 	 -38.1184 	 47.8985 	 99.6066
| 17> H 	 -37.8545 	 46.8903 	 99.8364
| 18> H 	 -37.6914 	 48.5541 	 100.331
| 19> C 	 -39.6765 	 48.142 	 99.7823
| 20> H 	 -40.2799 	 47.6972 	 98.9793
| 21> H 	 -40.0903 	 47.712 	 100.628
| 22> H 	 -39.8072 	 49.2119 	 99.9435
| 23> S 	 -40.0137 	 50.1977 	 93.2377
| 24> C 	 -41.7215 	 50.2306 	 92.6828
| 25> C 	 -42.5715 	 50.5313 	 93.6569
| 26> C 	 -41.874 	 50.8619 	 94.8932
| 27> C 	 -40.4594 	 50.6567 	 94.8227
| 28> H 	 -43.6612 	 50.6314 	 93.5714
| 29> C 	 -42.581 	 51.1682 	 96.194
| 30> H 	 -43.0824 	 52.1742 	 96.1266
| 31> H 	 -41.81 	 51.3257 	 96.9457
| 32> C 	 -43.5725 	 50.075 	 96.6865
| 33> H 	 -43.1821 	 49.0557 	 96.4982
| 34> H 	 -44.5034 	 49.9546 	 96.0303
| 35> C 	 -43.8725 	 50.0803 	 98.2289
| 36> H 	 -43.0922 	 50.4851 	 98.8235
| 37> H 	 -44.0874 	 49.0206 	 98.4687
| 38> H 	 -44.6714 	 50.6329 	 98.5708
| 39> H 	 -36.6122 	 51.1666 	 98.1209
| 40> H 	 -42.1174 	 50.0366 	 91.6208
| 41> *
| 42>
| 43>                          ****END OF INPUT****

CARTESIAN COORDINATES (ANGSTROEM)
---------------------------------
  S    -38.234700   51.892500   96.316400
  C    -37.397700   50.833700   97.433300
  C    -37.999400   49.605400   97.536800
  C    -39.158500   49.554700   96.673900
  C    -39.420400   50.647800   95.873600
  H    -39.713000   48.615100   96.532100
  C    -37.588400   48.321100   98.238000
  H    -36.567900   48.368200   98.349200
  H    -37.857000   47.542500   97.466200
  C    -38.118400   47.898500   99.606600
  H    -37.854500   46.890300   99.836400
  H    -37.691400   48.554100  100.331000
  C    -39.676500   48.142000   99.782300
  H    -40.279900   47.697200   98.979300
  H    -40.090300   47.712000  100.628000
  H    -39.807200   49.211900   99.943500
  S    -40.013700   50.197700   93.237700
  C    -41.721500   50.230600   92.682800
  C    -42.571500   50.531300   93.656900
  C    -41.874000   50.861900   94.893200
  C    -40.459400   50.656700   94.822700
  H    -43.661200   50.631400   93.571400
  C    -42.581000   51.168200   96.194000
  H    -43.082400   52.174200   96.126600
  H    -41.810000   51.325700   96.945700
  C    -43.572500   50.075000   96.686500
  H    -43.182100   49.055700   96.498200
  H    -44.503400   49.954600   96.030300
  C    -43.872500   50.080300   98.228900
  H    -43.092200   50.485100   98.823500
  H    -44.087400   49.020600   98.468700
  H    -44.671400   50.632900   98.570800
  H    -36.612200   51.166600   98.120900
  H    -42.117400   50.036600   91.620800

 Total Charge           Charge          ....    0
 Multiplicity           Mult            ....    1
 Number of Electrons    NEL             ....  134
 Basis Dimension        Dim             ....  322

ORBITAL ENERGIES
----------------

  NO   OCC          E(Eh)            E(eV)
   0   2.0000     -88.966434     -2420.8997
   1   2.0000     -88.964752     -2420.8540
   2   2.0000     -10.332289      -281.1559
   3   2.0000     -10.329460      -281.0789
   4   2.0000     -10.321937      -280.8742
   5   2.0000     -10.318514      -280.7811
   6   2.0000     -10.306766      -280.4614
   7   2.0000     -10.301547      -280.3193
   8   2.0000     -10.295715      -280.1606
   9   2.0000     -10.294007      -280.1142
  10   2.0000     -10.293520      -280.1009
  11   2.0000     -10.291992      -280.0593
  12   2.0000     -10.291440      -280.0443
  13   2.0000     -10.287579      -279.9392
  14   2.0000     -10.273139      -279.5463
  15   2.0000     -10.271808      -279.5101
  16   2.0000      -8.080564      -219.8833
  17   2.0000      -8.079507      -219.8546
  18   2.0000      -6.039219      -164.3355
  19   2.0000      -6.038160      -164.3067
  20   2.0000      -6.035083      -164.2230
  21   2.0000      -6.033976      -164.1928
  22   2.0000      -6.031251      -164.1187
  23   2.0000      -6.030131      -164.0882
  24   2.0000      -1.002595       -27.2820
  25   2.0000      -0.982766       -26.7424
  26   2.0000      -0.910217       -24.7683
  27   2.0000      -0.897125       -24.4120
  28   2.0000      -0.872865       -23.7519
  29   2.0000      -0.843814       -22.9613
  30   2.0000      -0.842187       -22.9171
  31   2.0000      -0.817998       -22.2589
  32   2.0000      -0.786711       -21.4075
  33   2.0000      -0.766205       -20.8495
  34   2.0000      -0.707571       -19.2540
  35   2.0000      -0.704926       -19.1820
  36   2.0000      -0.694945       -18.9104
  37   2.0000      -0.651963       -17.7408
  38   2.0000      -0.637258       -17.3407
  39   2.0000      -0.616325       -16.7710
  40   2.0000      -0.590248       -16.0615
  41   2.0000      -0.574080       -15.6215
  42   2.0000      -0.555350       -15.1118
  43   2.0000      -0.545273       -14.8376
  44   2.0000      -0.541013       -14.7217
  45   2.0000      -0.526702       -14.3323
  46   2.0000      -0.515625       -14.0309
  47   2.0000      -0.509178       -13.8554
  48   2.0000      -0.501765       -13.6537
  49   2.0000      -0.494339       -13.4516
  50   2.0000      -0.488108       -13.2821
  51   2.0000      -0.477584       -12.9957
  52   2.0000      -0.469474       -12.7750
  53   2.0000      -0.464442       -12.6381
  54   2.0000      -0.456607       -12.4249
  55   2.0000      -0.447963       -12.1897
  56   2.0000      -0.442664       -12.0455
  57   2.0000      -0.439753       -11.9663
  58   2.0000      -0.435175       -11.8417
  59   2.0000      -0.420970       -11.4552
  60   2.0000      -0.418833       -11.3970
  61   2.0000      -0.418043       -11.3755
  62   2.0000      -0.403485       -10.9794
  63   2.0000      -0.343542        -9.3483
  64   2.0000      -0.328604        -8.9418
  65   2.0000      -0.320630        -8.7248
  66   2.0000      -0.306740        -8.3468
  67   0.0000       0.046908         1.2764
  68   0.0000       0.054044         1.4706
  69   0.0000       0.116652         3.1743
  70   0.0000       0.120087         3.2677
  71   0.0000       0.124340         3.3835

MULLIKEN ATOMIC CHARGES
-----------------------
   0 S :    0.109941
   1 C :   -0.133059
   2 C :   -0.093342
   3 C :    0.027798
   4 C :   -0.163084
   5 H :    0.020706
   6 C :    0.076554
   7 H :    0.005492
   8 H :    0.041342
   9 C :   -0.031669
  10 H :    0.030186
  11 H :    0.018246
  12 C :   -0.054811
  13 H :    0.031771
  14 H :    0.010240
  15 H :    0.041204
  16 S :    0.112915
  17 C :   -0.111319
  18 C :   -0.015734
  19 C :   -0.062684
  20 C :   -0.175598
  21 H :    0.031291
  22 C :    0.079572
  23 H :    0.041950
  24 H :    0.024533
  25 C :   -0.117559
  26 H :    0.028822
  27 H :    0.032848
  28 C :   -0.015363
  29 H :    0.023547
  30 H :    0.033733
  31 H :    0.014335
  32 H :    0.057251
  33 H :    0.079946
Sum of atomic charges:    0.0000000

LOEWDIN ATOMIC CHARGES
----------------------
   0 S :    0.393123
   1 C :   -0.193937
   2 C :   -0.069930
   3 C :   -0.053343
   4 C :   -0.204329
   5 H :    0.030822
   6 C :   -0.028043
   7 H :    0.020710
   8 H :    0.041592
   9 C :   -0.026628
  10 H :    0.022187
  11 H :    0.020924
  12 C :   -0.065513
  13 H :    0.024593
  14 H :    0.014137
  15 H :    0.030127
  16 S :    0.407779
  17 C :   -0.183219
  18 C :   -0.076767
  19 C :   -0.050178
  20 C :   -0.216798
  21 H :    0.039003
  22 C :   -0.041294
  23 H :    0.037353
  24 H :    0.029718
  25 C :   -0.049974
  26 H :    0.025545
  27 H :    0.028323
  28 C :   -0.060011
  29 H :    0.023807
  30 H :    0.033702
  31 H :    0.013032
  32 H :    0.034063
  33 H :    0.049425

  Mayer bond orders larger than 0.100000
B(  0-S ,  1-C ) :   1.1448 B(  0-S ,  4-C ) :   1.1189 B(  1-C ,  2-C ) :   1.6241
B(  1-C , 32-H ) :   0.9607 B(  2-C ,  3-C ) :   1.2399 B(  2-C ,  6-C ) :   1.0053
B(  3-C ,  4-C ) :   1.6041 B(  3-C ,  5-H ) :   0.9823 B(  4-C , 20-C ) :   1.0207
B(  6-C ,  7-H ) :   0.9370 B(  6-C ,  8-H ) :   0.9418 B(  6-C ,  9-C ) :   1.0797
B(  9-C , 10-H ) :   0.9570 B(  9-C , 11-H ) :   0.9558 B(  9-C , 12-C ) :   1.0805
B( 12-C , 13-H ) :   0.9773 B( 12-C , 14-H ) :   0.9742 B( 12-C , 15-H ) :   0.9731
B( 16-S , 17-C ) :   1.1346 B( 16-S , 20-C ) :   1.1503 B( 17-C , 18-C ) :   1.6457
B( 17-C , 33-H ) :   0.9522 B( 18-C , 19-C ) :   1.2296 B( 18-C , 21-H ) :   0.9841
B( 19-C , 20-C ) :   1.5973 B( 19-C , 22-C ) :   1.0626 B( 22-C , 23-H ) :   0.9284
B( 22-C , 24-H ) :   0.9333 B( 22-C , 25-C ) :   1.0459 B( 25-C , 26-H ) :   0.9669
B( 25-C , 27-H ) :   0.9512 B( 25-C , 28-C ) :   1.0658 B( 28-C , 29-H ) :   0.9761
B( 28-C , 30-H ) :   0.9805 B( 28-C , 31-H ) :   0.9769

Dispersion correction           -0.014875032
FINAL SINGLE POINT ENERGY     -1339.857867698883

DIPOLE MOMENT
-------------
                                X             Y             Z
Electronic contribution:     13.17178      12.50764     -23.21819
Nuclear contribution   :    -13.49168     -12.94951      23.73889
                        -----------------------------------------
Total Dipole Moment    :     -0.31990      -0.44187       0.52070
                        -----------------------------------------
Magnitude (a.u.)       :      0.75413
Magnitude (Debye)      :      1.91685

Rotational constants in cm-1:     0.016352     0.009777     0.007330
Rotational constants in MHz :   490.218655   293.117918   219.734773

                             ****ORCA TERMINATED NORMALLY****
TOTAL RUN TIME: 0 days 0 hours 0 minutes 30 seconds 694 msec
