                         Program Version 4.2.1 -  RELEASE  -
|  1> ! wB97X-D3 SP def2-SVP
|  2> %pal
|  3> nprocs 16
|  4> end
|  5>
|  6> * xyz 0 1
|  7> S 	 -44.727 	 25.0727 	 83.5121
|  8> C 	 -46.137 	 25.4175 	 82.4382
|  9> C 	 -45.7361 	 25.8072 	 81.1419
| 10> C 	 -44.318 	 25.7893 	 81.0461
| 11> C 	 -43.5505 	 25.4303 	 82.1488
| 12> H 	 -43.7378 	 26.0904 	 80.1791
| 13> C 	 -46.7214 	 26.179 	 80.0211
| 14> H 	 -46.9271 	 27.2039 	 80.032
| 15> H 	 -47.7543 	 25.8805 	 80.3152
| 16> C 	 -46.3962 	 25.8213 	 78.5749
| 17> H 	 -47.2808 	 25.9839 	 77.9277
| 18> H 	 -45.4806 	 26.401 	 78.1365
| 19> C 	 -46.1856 	 24.3548 	 78.354
| 20> H 	 -45.2513 	 23.884 	 78.7602
| 21> H 	 -47.053 	 23.7779 	 78.7671
| 22> H 	 -46.189 	 24.1436 	 77.2727
| 23> S 	 -41.4159 	 23.8245 	 81.578
| 24> C 	 -39.8082 	 24.4316 	 82.0454
| 25> C 	 -39.9038 	 25.4456 	 82.9737
| 26> C 	 -41.2262 	 25.8887 	 83.1549
| 27> C 	 -42.1372 	 25.3479 	 82.2369
| 28> H 	 -38.9896 	 25.6381 	 83.5213
| 29> C 	 -41.4729 	 26.9939 	 84.1586
| 30> H 	 -41.1734 	 26.5386 	 85.1278
| 31> H 	 -42.5491 	 27.3133 	 84.2284
| 32> C 	 -40.7718 	 28.368 	 84.0417
| 33> H 	 -39.7047 	 28.1339 	 84.0032
| 34> H 	 -40.8181 	 29.0649 	 84.8993
| 35> C 	 -41.194 	 29.2101 	 82.7909
| 36> H 	 -41.0733 	 28.7479 	 81.8235
| 37> H 	 -40.7219 	 30.2098 	 82.7397
| 38> H 	 -42.2847 	 29.4557 	 82.8506
| 39> H 	 -47.2219 	 25.4425 	 82.7847
| 40> H 	 -38.9132 	 23.7945 	 81.954
| 41> *
| 42>
| 43>                          ****END OF INPUT****

CARTESIAN COORDINATES (ANGSTROEM)
---------------------------------
  S    -44.727000   25.072700   83.512100
  C    -46.137000   25.417500   82.438200
  C    -45.736100   25.807200   81.141900
  C    -44.318000   25.789300   81.046100
  C    -43.550500   25.430300   82.148800
  H    -43.737800   26.090400   80.179100
  C    -46.721400   26.179000   80.021100
  H    -46.927100   27.203900   80.032000
  H    -47.754300   25.880500   80.315200
  C    -46.396200   25.821300   78.574900
  H    -47.280800   25.983900   77.927700
  H    -45.480600   26.401000   78.136500
  C    -46.185600   24.354800   78.354000
  H    -45.251300   23.884000   78.760200
  H    -47.053000   23.777900   78.767100
  H    -46.189000   24.143600   77.272700
  S    -41.415900   23.824500   81.578000
  C    -39.808200   24.431600   82.045400
  C    -39.903800   25.445600   82.973700
  C    -41.226200   25.888700   83.154900
  C    -42.137200   25.347900   82.236900
  H    -38.989600   25.638100   83.521300
  C    -41.472900   26.993900   84.158600
  H    -41.173400   26.538600   85.127800
  H    -42.549100   27.313300   84.228400
  C    -40.771800   28.368000   84.041700
  H    -39.704700   28.133900   84.003200
  H    -40.818100   29.064900   84.899300
  C    -41.194000   29.210100   82.790900
  H    -41.073300   28.747900   81.823500
  H    -40.721900   30.209800   82.739700
  H    -42.284700   29.455700   82.850600
  H    -47.221900   25.442500   82.784700
  H    -38.913200   23.794500   81.954000

 Total Charge           Charge          ....    0
 Multiplicity           Mult            ....    1
 Number of Electrons    NEL             ....  134
 Basis Dimension        Dim             ....  322

ORBITAL ENERGIES
----------------

  NO   OCC          E(Eh)            E(eV)
   0   2.0000     -88.966139     -2420.8917
   1   2.0000     -88.965202     -2420.8662
   2   2.0000     -10.331949      -281.1466
   3   2.0000     -10.330977      -281.1202
   4   2.0000     -10.328091      -281.0416
   5   2.0000     -10.323214      -280.9089
   6   2.0000     -10.312668      -280.6220
   7   2.0000     -10.309391      -280.5328
   8   2.0000     -10.297648      -280.2133
   9   2.0000     -10.296540      -280.1831
  10   2.0000     -10.296264      -280.1756
  11   2.0000     -10.295753      -280.1617
  12   2.0000     -10.294581      -280.1298
  13   2.0000     -10.291886      -280.0564
  14   2.0000     -10.277816      -279.6736
  15   2.0000     -10.276547      -279.6391
  16   2.0000      -8.078882      -219.8376
  17   2.0000      -8.078414      -219.8248
  18   2.0000      -6.037398      -164.2860
  19   2.0000      -6.037138      -164.2789
  20   2.0000      -6.033907      -164.1910
  21   2.0000      -6.033279      -164.1739
  22   2.0000      -6.029283      -164.0651
  23   2.0000      -6.029055      -164.0589
  24   2.0000      -0.999549       -27.1991
  25   2.0000      -0.972695       -26.4684
  26   2.0000      -0.910798       -24.7841
  27   2.0000      -0.901249       -24.5242
  28   2.0000      -0.872167       -23.7329
  29   2.0000      -0.844217       -22.9723
  30   2.0000      -0.838332       -22.8122
  31   2.0000      -0.813658       -22.1408
  32   2.0000      -0.783751       -21.3270
  33   2.0000      -0.770301       -20.9609
  34   2.0000      -0.711306       -19.3556
  35   2.0000      -0.693454       -18.8698
  36   2.0000      -0.682609       -18.5747
  37   2.0000      -0.661158       -17.9910
  38   2.0000      -0.634269       -17.2593
  39   2.0000      -0.616497       -16.7757
  40   2.0000      -0.594086       -16.1659
  41   2.0000      -0.563765       -15.3408
  42   2.0000      -0.551170       -14.9981
  43   2.0000      -0.549257       -14.9461
  44   2.0000      -0.541432       -14.7331
  45   2.0000      -0.539806       -14.6889
  46   2.0000      -0.513118       -13.9627
  47   2.0000      -0.508959       -13.8495
  48   2.0000      -0.499468       -13.5912
  49   2.0000      -0.489694       -13.3252
  50   2.0000      -0.483015       -13.1435
  51   2.0000      -0.468661       -12.7529
  52   2.0000      -0.466456       -12.6929
  53   2.0000      -0.457460       -12.4481
  54   2.0000      -0.456550       -12.4233
  55   2.0000      -0.446672       -12.1546
  56   2.0000      -0.443227       -12.0608
  57   2.0000      -0.433000       -11.7825
  58   2.0000      -0.430470       -11.7137
  59   2.0000      -0.421310       -11.4644
  60   2.0000      -0.417126       -11.3506
  61   2.0000      -0.414936       -11.2910
  62   2.0000      -0.404332       -11.0024
  63   2.0000      -0.334703        -9.1077
  64   2.0000      -0.333205        -9.0670
  65   2.0000      -0.324030        -8.8173
  66   2.0000      -0.298946        -8.1347
  67   0.0000       0.020346         0.5536
  68   0.0000       0.048280         1.3138
  69   0.0000       0.089736         2.4419
  70   0.0000       0.116299         3.1647
  71   0.0000       0.127138         3.4596

MULLIKEN ATOMIC CHARGES
-----------------------
   0 S :    0.099138
   1 C :   -0.159108
   2 C :   -0.060342
   3 C :    0.025610
   4 C :   -0.162666
   5 H :    0.012125
   6 C :    0.111157
   7 H :    0.022427
   8 H :    0.008264
   9 C :   -0.108568
  10 H :    0.038135
  11 H :    0.051949
  12 C :   -0.080109
  13 H :    0.047583
  14 H :    0.029772
  15 H :    0.031020
  16 S :    0.091340
  17 C :   -0.091768
  18 C :   -0.047925
  19 C :    0.007860
  20 C :   -0.166008
  21 H :    0.030041
  22 C :    0.031315
  23 H :    0.042339
  24 H :    0.035261
  25 C :   -0.065212
  26 H :    0.017253
  27 H :    0.037253
  28 C :   -0.079978
  29 H :    0.040003
  30 H :    0.036057
  31 H :    0.029472
  32 H :    0.077270
  33 H :    0.069042
Sum of atomic charges:    0.0000000

LOEWDIN ATOMIC CHARGES
----------------------
   0 S :    0.349772
   1 C :   -0.185658
   2 C :   -0.064210
   3 C :   -0.054663
   4 C :   -0.183637
   5 H :    0.032064
   6 C :   -0.036870
   7 H :    0.028664
   8 H :    0.036123
   9 C :   -0.054367
  10 H :    0.035659
  11 H :    0.035251
  12 C :   -0.078144
  13 H :    0.027606
  14 H :    0.027915
  15 H :    0.025350
  16 S :    0.375577
  17 C :   -0.167802
  18 C :   -0.073364
  19 C :   -0.042813
  20 C :   -0.187396
  21 H :    0.037412
  22 C :   -0.039761
  23 H :    0.040704
  24 H :    0.031619
  25 C :   -0.044658
  26 H :    0.016595
  27 H :    0.031471
  28 C :   -0.074766
  29 H :    0.023194
  30 H :    0.028669
  31 H :    0.028152
  32 H :    0.043419
  33 H :    0.032892

  Mayer bond orders larger than 0.100000
B(  0-S ,  1-C ) :   1.1452 B(  0-S ,  4-C ) :   1.0867 B(  1-C ,  2-C ) :   1.6066
B(  1-C ,  4-C ) :   0.1045 B(  1-C , 32-H ) :   0.9542 B(  2-C ,  3-C ) :   1.2345
B(  2-C ,  6-C ) :   1.0119 B(  3-C ,  4-C ) :   1.5913 B(  3-C ,  5-H ) :   0.9876
B(  4-C , 20-C ) :   1.1171 B(  6-C ,  7-H ) :   0.9279 B(  6-C ,  8-H ) :   0.9309
B(  6-C ,  9-C ) :   1.0855 B(  9-C , 10-H ) :   0.9510 B(  9-C , 11-H ) :   0.9470
B(  9-C , 12-C ) :   1.0804 B( 12-C , 13-H ) :   0.9719 B( 12-C , 14-H ) :   0.9720
B( 12-C , 15-H ) :   0.9759 B( 16-S , 17-C ) :   1.1569 B( 16-S , 20-C ) :   1.1249
B( 17-C , 18-C ) :   1.6159 B( 17-C , 20-C ) :   0.1059 B( 17-C , 33-H ) :   0.9594
B( 18-C , 19-C ) :   1.2246 B( 18-C , 21-H ) :   0.9920 B( 19-C , 20-C ) :   1.5477
B( 19-C , 22-C ) :   1.0496 B( 22-C , 23-H ) :   0.9276 B( 22-C , 24-H ) :   0.9422
B( 22-C , 25-C ) :   1.0679 B( 25-C , 26-H ) :   0.9528 B( 25-C , 27-H ) :   0.9564
B( 25-C , 28-C ) :   1.0679 B( 28-C , 29-H ) :   0.9793 B( 28-C , 30-H ) :   0.9755
B( 28-C , 31-H ) :   0.9739

Dispersion correction           -0.014552561
FINAL SINGLE POINT ENERGY     -1339.853639749425

DIPOLE MOMENT
-------------
                                X             Y             Z
Electronic contribution:      4.76079     -14.47175       9.32500
Nuclear contribution   :     -4.75691      14.83046      -9.35490
                        -----------------------------------------
Total Dipole Moment    :      0.00388       0.35871      -0.02990
                        -----------------------------------------
Magnitude (a.u.)       :      0.35997
Magnitude (Debye)      :      0.91498

Rotational constants in cm-1:     0.019453     0.008152     0.007281
Rotational constants in MHz :   583.198282   244.384644   218.284405

                             ****ORCA TERMINATED NORMALLY****
TOTAL RUN TIME: 0 days 0 hours 0 minutes 28 seconds 299 msec
