                         Program Version 4.2.1 -  RELEASE  -
|  1> ! wB97X-D3 SP def2-SVP
|  2> %pal
|  3> nprocs 16
|  4> end
|  5>
|  6> * xyz 0 1
|  7> S 	 -49.0259 	 62.3848 	 140.625
|  8> C 	 -47.3999 	 61.8135 	 140.92
|  9> C 	 -46.5277 	 62.8936 	 141.02
| 10> C 	 -47.191 	 64.1652 	 140.894
| 11> C 	 -48.575 	 64.1196 	 140.794
| 12> H 	 -46.6436 	 65.1087 	 140.779
| 13> C 	 -45.0091 	 62.7232 	 141.079
| 14> H 	 -44.5712 	 63.23 	 140.284
| 15> H 	 -44.8096 	 61.7377 	 140.887
| 16> C 	 -44.2582 	 63.0148 	 142.364
| 17> H 	 -44.7275 	 63.8658 	 142.798
| 18> H 	 -44.4385 	 62.2699 	 143.188
| 19> C 	 -42.7147 	 63.241 	 142.285
| 20> H 	 -42.2726 	 62.2793 	 141.863
| 21> H 	 -42.4534 	 64.0049 	 141.571
| 22> H 	 -42.2263 	 63.6813 	 143.239
| 23> S 	 -50.7512 	 65.0558 	 139.459
| 24> C 	 -51.5558 	 66.4751 	 140.07
| 25> C 	 -50.8354 	 67.2043 	 140.968
| 26> C 	 -49.731 	 66.3772 	 141.399
| 27> C 	 -49.5677 	 65.1668 	 140.718
| 28> H 	 -51.1509 	 68.1213 	 141.328
| 29> C 	 -49.0016 	 66.7901 	 142.637
| 30> H 	 -48.5334 	 65.9409 	 143.151
| 31> H 	 -49.8484 	 67.0949 	 143.204
| 32> C 	 -47.8868 	 67.7456 	 142.319
| 33> H 	 -48.1088 	 68.7511 	 142.074
| 34> H 	 -47.371 	 67.455 	 141.402
| 35> C 	 -46.8196 	 67.7755 	 143.364
| 36> H 	 -46.4438 	 66.7431 	 143.506
| 37> H 	 -47.2553 	 68.1751 	 144.236
| 38> H 	 -45.9905 	 68.3499 	 142.952
| 39> H 	 -47.0602 	 60.847 	 140.615
| 40> H 	 -52.3498 	 66.9002 	 139.516
| 41> *
| 42>
| 43>                          ****END OF INPUT****

CARTESIAN COORDINATES (ANGSTROEM)
---------------------------------
  S    -49.025900   62.384800  140.625000
  C    -47.399900   61.813500  140.920000
  C    -46.527700   62.893600  141.020000
  C    -47.191000   64.165200  140.894000
  C    -48.575000   64.119600  140.794000
  H    -46.643600   65.108700  140.779000
  C    -45.009100   62.723200  141.079000
  H    -44.571200   63.230000  140.284000
  H    -44.809600   61.737700  140.887000
  C    -44.258200   63.014800  142.364000
  H    -44.727500   63.865800  142.798000
  H    -44.438500   62.269900  143.188000
  C    -42.714700   63.241000  142.285000
  H    -42.272600   62.279300  141.863000
  H    -42.453400   64.004900  141.571000
  H    -42.226300   63.681300  143.239000
  S    -50.751200   65.055800  139.459000
  C    -51.555800   66.475100  140.070000
  C    -50.835400   67.204300  140.968000
  C    -49.731000   66.377200  141.399000
  C    -49.567700   65.166800  140.718000
  H    -51.150900   68.121300  141.328000
  C    -49.001600   66.790100  142.637000
  H    -48.533400   65.940900  143.151000
  H    -49.848400   67.094900  143.204000
  C    -47.886800   67.745600  142.319000
  H    -48.108800   68.751100  142.074000
  H    -47.371000   67.455000  141.402000
  C    -46.819600   67.775500  143.364000
  H    -46.443800   66.743100  143.506000
  H    -47.255300   68.175100  144.236000
  H    -45.990500   68.349900  142.952000
  H    -47.060200   60.847000  140.615000
  H    -52.349800   66.900200  139.516000

 Total Charge           Charge          ....    0
 Multiplicity           Mult            ....    1
 Number of Electrons    NEL             ....  134
 Basis Dimension        Dim             ....  322

ORBITAL ENERGIES
----------------

  NO   OCC          E(Eh)            E(eV)
   0   2.0000     -88.963973     -2420.8328
   1   2.0000     -88.963278     -2420.8139
   2   2.0000     -10.336849      -281.2800
   3   2.0000     -10.325567      -280.9730
   4   2.0000     -10.315083      -280.6877
   5   2.0000     -10.314803      -280.6801
   6   2.0000     -10.306347      -280.4500
   7   2.0000     -10.305204      -280.4189
   8   2.0000     -10.300019      -280.2778
   9   2.0000     -10.293159      -280.0911
  10   2.0000     -10.292730      -280.0794
  11   2.0000     -10.286456      -279.9087
  12   2.0000     -10.283569      -279.8301
  13   2.0000     -10.281791      -279.7818
  14   2.0000     -10.276375      -279.6344
  15   2.0000     -10.271473      -279.5010
  16   2.0000      -8.079630      -219.8579
  17   2.0000      -8.077445      -219.7984
  18   2.0000      -6.038071      -164.3043
  19   2.0000      -6.036092      -164.2504
  20   2.0000      -6.034071      -164.1954
  21   2.0000      -6.031960      -164.1380
  22   2.0000      -6.030333      -164.0937
  23   2.0000      -6.028142      -164.0341
  24   2.0000      -1.008618       -27.4459
  25   2.0000      -0.983754       -26.7693
  26   2.0000      -0.921999       -25.0889
  27   2.0000      -0.911287       -24.7974
  28   2.0000      -0.874980       -23.8094
  29   2.0000      -0.859022       -23.3752
  30   2.0000      -0.841493       -22.8982
  31   2.0000      -0.821840       -22.3634
  32   2.0000      -0.783770       -21.3275
  33   2.0000      -0.769922       -20.9506
  34   2.0000      -0.709662       -19.3109
  35   2.0000      -0.700516       -19.0620
  36   2.0000      -0.696593       -18.9553
  37   2.0000      -0.672196       -18.2914
  38   2.0000      -0.644352       -17.5337
  39   2.0000      -0.623459       -16.9652
  40   2.0000      -0.602132       -16.3848
  41   2.0000      -0.577802       -15.7228
  42   2.0000      -0.568600       -15.4724
  43   2.0000      -0.557707       -15.1760
  44   2.0000      -0.544167       -14.8075
  45   2.0000      -0.530787       -14.4435
  46   2.0000      -0.519791       -14.1442
  47   2.0000      -0.512844       -13.9552
  48   2.0000      -0.504964       -13.7408
  49   2.0000      -0.496551       -13.5118
  50   2.0000      -0.492237       -13.3945
  51   2.0000      -0.485580       -13.2133
  52   2.0000      -0.470790       -12.8108
  53   2.0000      -0.464861       -12.6495
  54   2.0000      -0.459984       -12.5168
  55   2.0000      -0.452563       -12.3149
  56   2.0000      -0.445070       -12.1110
  57   2.0000      -0.437787       -11.9128
  58   2.0000      -0.434630       -11.8269
  59   2.0000      -0.426658       -11.6100
  60   2.0000      -0.416826       -11.3424
  61   2.0000      -0.411252       -11.1907
  62   2.0000      -0.405663       -11.0387
  63   2.0000      -0.353188        -9.6107
  64   2.0000      -0.330276        -8.9873
  65   2.0000      -0.328720        -8.9449
  66   2.0000      -0.292193        -7.9510
  67   0.0000       0.021356         0.5811
  68   0.0000       0.071715         1.9515
  69   0.0000       0.103698         2.8218
  70   0.0000       0.124613         3.3909
  71   0.0000       0.125076         3.4035

MULLIKEN ATOMIC CHARGES
-----------------------
   0 S :    0.087357
   1 C :   -0.088759
   2 C :   -0.145317
   3 C :    0.030106
   4 C :   -0.141181
   5 H :    0.020102
   6 C :    0.159341
   7 H :    0.008003
   8 H :   -0.019390
   9 C :   -0.076846
  10 H :    0.008443
  11 H :    0.033254
  12 C :   -0.088736
  13 H :    0.045096
  14 H :    0.023057
  15 H :    0.057118
  16 S :    0.101689
  17 C :   -0.060957
  18 C :   -0.001834
  19 C :   -0.079735
  20 C :   -0.128934
  21 H :   -0.001574
  22 C :    0.095157
  23 H :    0.023686
  24 H :    0.026841
  25 C :   -0.068685
  26 H :    0.009171
  27 H :    0.013389
  28 C :   -0.026152
  29 H :    0.030638
  30 H :    0.027667
  31 H :    0.029649
  32 H :    0.054358
  33 H :    0.043976
Sum of atomic charges:    0.0000000

LOEWDIN ATOMIC CHARGES
----------------------
   0 S :    0.382669
   1 C :   -0.194883
   2 C :   -0.057231
   3 C :   -0.066919
   4 C :   -0.176092
   5 H :    0.033208
   6 C :   -0.022770
   7 H :    0.025439
   8 H :    0.018569
   9 C :   -0.047006
  10 H :    0.013991
  11 H :    0.030068
  12 C :   -0.078395
  13 H :    0.032394
  14 H :    0.017402
  15 H :    0.042431
  16 S :    0.411929
  17 C :   -0.165702
  18 C :   -0.057193
  19 C :   -0.039875
  20 C :   -0.215887
  21 H :    0.023772
  22 C :   -0.031055
  23 H :    0.034364
  24 H :    0.030981
  25 C :   -0.044168
  26 H :    0.017250
  27 H :    0.022632
  28 C :   -0.055083
  29 H :    0.024514
  30 H :    0.018131
  31 H :    0.027338
  32 H :    0.027364
  33 H :    0.017813

  Mayer bond orders larger than 0.100000
B(  0-S ,  1-C ) :   1.1397 B(  0-S ,  4-C ) :   1.1375 B(  1-C ,  2-C ) :   1.6146
B(  1-C ,  4-C ) :   0.1028 B(  1-C , 32-H ) :   0.9612 B(  2-C ,  3-C ) :   1.2480
B(  2-C ,  6-C ) :   1.0340 B(  3-C ,  4-C ) :   1.5634 B(  3-C ,  5-H ) :   0.9908
B(  4-C , 20-C ) :   1.0602 B(  6-C ,  7-H ) :   0.9354 B(  6-C ,  8-H ) :   0.9247
B(  6-C ,  9-C ) :   1.0495 B(  9-C , 10-H ) :   0.9599 B(  9-C , 11-H ) :   0.9542
B(  9-C , 12-C ) :   1.0716 B( 12-C , 13-H ) :   0.9765 B( 12-C , 14-H ) :   0.9749
B( 12-C , 15-H ) :   0.9729 B( 16-S , 17-C ) :   1.1653 B( 16-S , 20-C ) :   1.1281
B( 17-C , 18-C ) :   1.6185 B( 17-C , 33-H ) :   0.9658 B( 18-C , 19-C ) :   1.2227
B( 18-C , 21-H ) :   1.0041 B( 19-C , 20-C ) :   1.5962 B( 19-C , 22-C ) :   1.0409
B( 22-C , 23-H ) :   0.9407 B( 22-C , 24-H ) :   0.9355 B( 22-C , 25-C ) :   1.0410
B( 25-C , 26-H ) :   0.9452 B( 25-C , 27-H ) :   0.9548 B( 25-C , 28-C ) :   1.1025
B( 28-C , 29-H ) :   0.9743 B( 28-C , 30-H ) :   0.9722 B( 28-C , 31-H ) :   0.9724

Dispersion correction           -0.014084441
FINAL SINGLE POINT ENERGY     -1339.851397566211

DIPOLE MOMENT
-------------
                                X             Y             Z
Electronic contribution:    -27.98394      -9.38221     -14.81512
Nuclear contribution   :     28.42114       9.95348      14.85367
                        -----------------------------------------
Total Dipole Moment    :      0.43720       0.57127       0.03856
                        -----------------------------------------
Magnitude (a.u.)       :      0.72041
Magnitude (Debye)      :      1.83113

Rotational constants in cm-1:     0.018372     0.008969     0.006338
Rotational constants in MHz :   550.773653   268.885501   189.996590

                             ****ORCA TERMINATED NORMALLY****
TOTAL RUN TIME: 0 days 0 hours 0 minutes 35 seconds 27 msec
