                         Program Version 4.2.1 -  RELEASE  -
|  1> ! wB97X-D3 SP def2-SVP
|  2> %pal
|  3> nprocs 16
|  4> end
|  5>
|  6> * xyz 0 1
|  7> S 	 33.6879 	 2.48881 	 73.8663
|  8> C 	 31.9335 	 2.27823 	 74.0417
|  9> C 	 31.4877 	 2.86285 	 75.2009
| 10> C 	 32.6193 	 3.33272 	 75.9986
| 11> C 	 33.8344 	 3.34613 	 75.3295
| 12> H 	 32.569 	 3.54161 	 77.038
| 13> C 	 30.0494 	 2.834 	 75.701
| 14> H 	 29.5295 	 3.83761 	 75.7235
| 15> H 	 30.0605 	 2.53328 	 76.7304
| 16> C 	 29.0787 	 1.84593 	 74.9776
| 17> H 	 29.5316 	 0.909169 	 74.7398
| 18> H 	 28.2554 	 1.7755 	 75.6894
| 19> C 	 28.5183 	 2.46149 	 73.6687
| 20> H 	 29.2193 	 2.61287 	 72.8387
| 21> H 	 27.8174 	 1.72766 	 73.3154
| 22> H 	 27.9726 	 3.49889 	 73.7323
| 23> S 	 35.8057 	 5.19487 	 74.9952
| 24> C 	 37.2692 	 4.95053 	 75.8509
| 25> C 	 37.2231 	 4.00719 	 76.8097
| 26> C 	 35.9878 	 3.24253 	 76.7302
| 27> C 	 35.1356 	 3.81019 	 75.8037
| 28> H 	 38.1226 	 3.97296 	 77.48
| 29> C 	 35.7349 	 2.04791 	 77.5649
| 30> H 	 36.3098 	 1.29917 	 77.1348
| 31> H 	 34.7215 	 1.76381 	 77.5378
| 32> C 	 36.0359 	 2.26527 	 79.0829
| 33> H 	 35.5841 	 3.16817 	 79.4812
| 34> H 	 37.1559 	 2.40343 	 79.1789
| 35> C 	 35.7358 	 0.984288 	 79.8883
| 36> H 	 36.3755 	 0.228408 	 79.4902
| 37> H 	 34.7539 	 0.508692 	 79.6814
| 38> H 	 35.8525 	 1.08499 	 80.9228
| 39> H 	 31.3181 	 1.60485 	 73.4425
| 40> H 	 38.142 	 5.58982 	 75.7363
| 41> *
| 42>
| 43>                          ****END OF INPUT****

CARTESIAN COORDINATES (ANGSTROEM)
---------------------------------
  S     33.687900    2.488810   73.866300
  C     31.933500    2.278230   74.041700
  C     31.487700    2.862850   75.200900
  C     32.619300    3.332720   75.998600
  C     33.834400    3.346130   75.329500
  H     32.569000    3.541610   77.038000
  C     30.049400    2.834000   75.701000
  H     29.529500    3.837610   75.723500
  H     30.060500    2.533280   76.730400
  C     29.078700    1.845930   74.977600
  H     29.531600    0.909169   74.739800
  H     28.255400    1.775500   75.689400
  C     28.518300    2.461490   73.668700
  H     29.219300    2.612870   72.838700
  H     27.817400    1.727660   73.315400
  H     27.972600    3.498890   73.732300
  S     35.805700    5.194870   74.995200
  C     37.269200    4.950530   75.850900
  C     37.223100    4.007190   76.809700
  C     35.987800    3.242530   76.730200
  C     35.135600    3.810190   75.803700
  H     38.122600    3.972960   77.480000
  C     35.734900    2.047910   77.564900
  H     36.309800    1.299170   77.134800
  H     34.721500    1.763810   77.537800
  C     36.035900    2.265270   79.082900
  H     35.584100    3.168170   79.481200
  H     37.155900    2.403430   79.178900
  C     35.735800    0.984288   79.888300
  H     36.375500    0.228408   79.490200
  H     34.753900    0.508692   79.681400
  H     35.852500    1.084990   80.922800
  H     31.318100    1.604850   73.442500
  H     38.142000    5.589820   75.736300

 Total Charge           Charge          ....    0
 Multiplicity           Mult            ....    1
 Number of Electrons    NEL             ....  134
 Basis Dimension        Dim             ....  322

ORBITAL ENERGIES
----------------

  NO   OCC          E(Eh)            E(eV)
   0   2.0000     -88.962123     -2420.7824
   1   2.0000     -88.960845     -2420.7477
   2   2.0000     -10.322886      -280.9000
   3   2.0000     -10.320228      -280.8277
   4   2.0000     -10.313213      -280.6368
   5   2.0000     -10.308234      -280.5013
   6   2.0000     -10.303207      -280.3645
   7   2.0000     -10.303064      -280.3606
   8   2.0000     -10.295950      -280.1670
   9   2.0000     -10.293123      -280.0901
  10   2.0000     -10.292839      -280.0824
  11   2.0000     -10.292268      -280.0668
  12   2.0000     -10.291545      -280.0472
  13   2.0000     -10.284912      -279.8667
  14   2.0000     -10.280953      -279.7590
  15   2.0000     -10.274376      -279.5800
  16   2.0000      -8.078156      -219.8178
  17   2.0000      -8.076161      -219.7635
  18   2.0000      -6.036526      -164.2622
  19   2.0000      -6.034718      -164.2130
  20   2.0000      -6.032660      -164.1570
  21   2.0000      -6.030527      -164.0990
  22   2.0000      -6.028802      -164.0520
  23   2.0000      -6.026867      -163.9994
  24   2.0000      -1.009924       -27.4814
  25   2.0000      -0.985721       -26.8228
  26   2.0000      -0.912504       -24.8305
  27   2.0000      -0.910050       -24.7637
  28   2.0000      -0.867322       -23.6010
  29   2.0000      -0.852215       -23.1900
  30   2.0000      -0.841459       -22.8973
  31   2.0000      -0.813069       -22.1247
  32   2.0000      -0.784935       -21.3592
  33   2.0000      -0.774851       -21.0848
  34   2.0000      -0.706911       -19.2360
  35   2.0000      -0.702264       -19.1096
  36   2.0000      -0.695565       -18.9273
  37   2.0000      -0.651576       -17.7303
  38   2.0000      -0.637294       -17.3416
  39   2.0000      -0.613239       -16.6871
  40   2.0000      -0.599714       -16.3190
  41   2.0000      -0.581827       -15.8323
  42   2.0000      -0.568883       -15.4801
  43   2.0000      -0.544428       -14.8146
  44   2.0000      -0.536246       -14.5920
  45   2.0000      -0.531656       -14.4671
  46   2.0000      -0.519706       -14.1419
  47   2.0000      -0.509238       -13.8571
  48   2.0000      -0.505278       -13.7493
  49   2.0000      -0.491216       -13.3667
  50   2.0000      -0.484197       -13.1757
  51   2.0000      -0.476066       -12.9544
  52   2.0000      -0.473719       -12.8906
  53   2.0000      -0.467991       -12.7347
  54   2.0000      -0.462461       -12.5842
  55   2.0000      -0.454492       -12.3674
  56   2.0000      -0.440798       -11.9947
  57   2.0000      -0.440374       -11.9832
  58   2.0000      -0.436575       -11.8798
  59   2.0000      -0.428736       -11.6665
  60   2.0000      -0.419707       -11.4208
  61   2.0000      -0.414187       -11.2706
  62   2.0000      -0.412667       -11.2292
  63   2.0000      -0.332507        -9.0480
  64   2.0000      -0.331151        -9.0111
  65   2.0000      -0.320636        -8.7249
  66   2.0000      -0.304429        -8.2839
  67   0.0000       0.049270         1.3407
  68   0.0000       0.065106         1.7716
  69   0.0000       0.116738         3.1766
  70   0.0000       0.121305         3.3009
  71   0.0000       0.127732         3.4758

MULLIKEN ATOMIC CHARGES
-----------------------
   0 S :    0.116601
   1 C :   -0.137061
   2 C :   -0.074317
   3 C :    0.043935
   4 C :   -0.166503
   5 H :    0.001863
   6 C :    0.050070
   7 H :    0.047806
   8 H :    0.021813
   9 C :   -0.066524
  10 H :    0.032055
  11 H :    0.034329
  12 C :   -0.101506
  13 H :    0.038012
  14 H :    0.031811
  15 H :    0.046675
  16 S :    0.124697
  17 C :   -0.093245
  18 C :   -0.063026
  19 C :   -0.022056
  20 C :   -0.193265
  21 H :    0.039324
  22 C :    0.150965
  23 H :    0.019903
  24 H :    0.005232
  25 C :   -0.128544
  26 H :    0.038504
  27 H :    0.035687
  28 C :   -0.006680
  29 H :    0.013832
  30 H :    0.022315
  31 H :    0.032525
  32 H :    0.054554
  33 H :    0.050219
Sum of atomic charges:    0.0000000

LOEWDIN ATOMIC CHARGES
----------------------
   0 S :    0.414878
   1 C :   -0.196816
   2 C :   -0.060553
   3 C :   -0.059315
   4 C :   -0.215153
   5 H :    0.023173
   6 C :   -0.035796
   7 H :    0.041313
   8 H :    0.026683
   9 C :   -0.034564
  10 H :    0.020859
  11 H :    0.030921
  12 C :   -0.079969
  13 H :    0.022282
  14 H :    0.022176
  15 H :    0.036707
  16 S :    0.421110
  17 C :   -0.191498
  18 C :   -0.083494
  19 C :   -0.043616
  20 C :   -0.213188
  21 H :    0.043536
  22 C :   -0.021361
  23 H :    0.028818
  24 H :    0.024220
  25 C :   -0.033674
  26 H :    0.022351
  27 H :    0.027041
  28 C :   -0.063867
  29 H :    0.024056
  30 H :    0.026406
  31 H :    0.019151
  32 H :    0.029186
  33 H :    0.027997

  Mayer bond orders larger than 0.100000
B(  0-S ,  1-C ) :   1.1284 B(  0-S ,  4-C ) :   1.1653 B(  1-C ,  2-C ) :   1.6382
B(  1-C , 32-H ) :   0.9560 B(  2-C ,  3-C ) :   1.2291 B(  2-C ,  6-C ) :   1.0123
B(  3-C ,  4-C ) :   1.5937 B(  3-C ,  5-H ) :   1.0001 B(  4-C , 20-C ) :   1.0027
B(  6-C ,  7-H ) :   0.9333 B(  6-C ,  8-H ) :   0.9428 B(  6-C ,  9-C ) :   1.0857
B(  9-C , 10-H ) :   0.9565 B(  9-C , 11-H ) :   0.9540 B(  9-C , 12-C ) :   1.0665
B( 12-C , 13-H ) :   0.9779 B( 12-C , 14-H ) :   0.9753 B( 12-C , 15-H ) :   0.9734
B( 16-S , 17-C ) :   1.1549 B( 16-S , 20-C ) :   1.1416 B( 17-C , 18-C ) :   1.6698
B( 17-C , 33-H ) :   0.9595 B( 18-C , 19-C ) :   1.1783 B( 18-C , 21-H ) :   0.9816
B( 19-C , 20-C ) :   1.6392 B( 19-C , 22-C ) :   1.0525 B( 22-C , 23-H ) :   0.9152
B( 22-C , 24-H ) :   0.9264 B( 22-C , 25-C ) :   1.0560 B( 25-C , 26-H ) :   0.9652
B( 25-C , 27-H ) :   0.9513 B( 25-C , 28-C ) :   1.0799 B( 28-C , 29-H ) :   0.9695
B( 28-C , 30-H ) :   0.9734 B( 28-C , 31-H ) :   0.9753

Dispersion correction           -0.013822576
FINAL SINGLE POINT ENERGY     -1339.869282641119

DIPOLE MOMENT
-------------
                                X             Y             Z
Electronic contribution:     15.04872      12.31198     -14.46942
Nuclear contribution   :    -15.22244     -12.67153      15.06750
                        -----------------------------------------
Total Dipole Moment    :     -0.17372      -0.35955       0.59808
                        -----------------------------------------
Magnitude (a.u.)       :      0.71913
Magnitude (Debye)      :      1.82789

Rotational constants in cm-1:     0.020649     0.007577     0.006072
Rotational constants in MHz :   619.037258   227.160689   182.021382

                             ****ORCA TERMINATED NORMALLY****
TOTAL RUN TIME: 0 days 0 hours 0 minutes 29 seconds 289 msec
