                         Program Version 4.2.1 -  RELEASE  -
|  1> ! wB97X-D3 SP def2-SVP
|  2> %pal
|  3> nprocs 16
|  4> end
|  5>
|  6> * xyz 0 1
|  7> S 	 31.2448 	 14.7192 	 69.8852
|  8> C 	 30.0226 	 15.5772 	 70.7555
|  9> C 	 28.925 	 14.7774 	 71.0659
| 10> C 	 29.1034 	 13.3983 	 70.691
| 11> C 	 30.3628 	 13.2343 	 70.1349
| 12> H 	 28.4237 	 12.5647 	 70.8317
| 13> C 	 27.6485 	 15.2396 	 71.6624
| 14> H 	 27.8892 	 15.6282 	 72.6667
| 15> H 	 27.0245 	 14.3056 	 71.8483
| 16> C 	 26.9135 	 16.2352 	 70.717
| 17> H 	 27.6249 	 17.1341 	 70.8213
| 18> H 	 26.9185 	 15.7795 	 69.6873
| 19> C 	 25.4242 	 16.5416 	 71.0852
| 20> H 	 24.9303 	 15.5689 	 71.0675
| 21> H 	 25.2234 	 17.0209 	 72.003
| 22> H 	 24.9747 	 17.0878 	 70.296
| 23> S 	 31.4703 	 11.8229 	 68.0115
| 24> C 	 31.7513 	 10.1238 	 68.1767
| 25> C 	 31.378 	 9.67625 	 69.4579
| 26> C 	 30.7415 	 10.6931 	 70.2715
| 27> C 	 30.7991 	 11.9505 	 69.6503
| 28> H 	 31.4167 	 8.62406 	 69.803
| 29> C 	 30.2785 	 10.3718 	 71.6541
| 30> H 	 29.4002 	 9.734 	 71.5346
| 31> H 	 29.9917 	 11.2451 	 72.1758
| 32> C 	 31.286 	 9.54375 	 72.5779
| 33> H 	 32.1274 	 10.0541 	 72.6752
| 34> H 	 31.5506 	 8.51008 	 72.2232
| 35> C 	 30.7929 	 9.31434 	 73.9578
| 36> H 	 30.416 	 10.2329 	 74.4478
| 37> H 	 31.5223 	 8.85093 	 74.5882
| 38> H 	 29.9276 	 8.68375 	 73.8136
| 39> H 	 30.027 	 16.6442 	 70.9155
| 40> H 	 32.3058 	 9.51274 	 67.4426
| 41> *
| 42>
| 43>                          ****END OF INPUT****

CARTESIAN COORDINATES (ANGSTROEM)
---------------------------------
  S     31.244800   14.719200   69.885200
  C     30.022600   15.577200   70.755500
  C     28.925000   14.777400   71.065900
  C     29.103400   13.398300   70.691000
  C     30.362800   13.234300   70.134900
  H     28.423700   12.564700   70.831700
  C     27.648500   15.239600   71.662400
  H     27.889200   15.628200   72.666700
  H     27.024500   14.305600   71.848300
  C     26.913500   16.235200   70.717000
  H     27.624900   17.134100   70.821300
  H     26.918500   15.779500   69.687300
  C     25.424200   16.541600   71.085200
  H     24.930300   15.568900   71.067500
  H     25.223400   17.020900   72.003000
  H     24.974700   17.087800   70.296000
  S     31.470300   11.822900   68.011500
  C     31.751300   10.123800   68.176700
  C     31.378000    9.676250   69.457900
  C     30.741500   10.693100   70.271500
  C     30.799100   11.950500   69.650300
  H     31.416700    8.624060   69.803000
  C     30.278500   10.371800   71.654100
  H     29.400200    9.734000   71.534600
  H     29.991700   11.245100   72.175800
  C     31.286000    9.543750   72.577900
  H     32.127400   10.054100   72.675200
  H     31.550600    8.510080   72.223200
  C     30.792900    9.314340   73.957800
  H     30.416000   10.232900   74.447800
  H     31.522300    8.850930   74.588200
  H     29.927600    8.683750   73.813600
  H     30.027000   16.644200   70.915500
  H     32.305800    9.512740   67.442600

 Total Charge           Charge          ....    0
 Multiplicity           Mult            ....    1
 Number of Electrons    NEL             ....  134
 Basis Dimension        Dim             ....  322

ORBITAL ENERGIES
----------------

  NO   OCC          E(Eh)            E(eV)
   0   2.0000     -88.971050     -2421.0254
   1   2.0000     -88.964540     -2420.8482
   2   2.0000     -10.326232      -280.9911
   3   2.0000     -10.325639      -280.9749
   4   2.0000     -10.320135      -280.8252
   5   2.0000     -10.310742      -280.5695
   6   2.0000     -10.303192      -280.3641
   7   2.0000     -10.301322      -280.3132
   8   2.0000     -10.299170      -280.2547
   9   2.0000     -10.297447      -280.2078
  10   2.0000     -10.294598      -280.1303
  11   2.0000     -10.294072      -280.1159
  12   2.0000     -10.292362      -280.0694
  13   2.0000     -10.278168      -279.6832
  14   2.0000     -10.275349      -279.6065
  15   2.0000     -10.271943      -279.5138
  16   2.0000      -8.085890      -220.0283
  17   2.0000      -8.079211      -219.8465
  18   2.0000      -6.044359      -164.4754
  19   2.0000      -6.040473      -164.3696
  20   2.0000      -6.037767      -164.2960
  21   2.0000      -6.036618      -164.2647
  22   2.0000      -6.033679      -164.1848
  23   2.0000      -6.029988      -164.0843
  24   2.0000      -1.006148       -27.3787
  25   2.0000      -0.980430       -26.6789
  26   2.0000      -0.912205       -24.8224
  27   2.0000      -0.908923       -24.7331
  28   2.0000      -0.868937       -23.6450
  29   2.0000      -0.856920       -23.3180
  30   2.0000      -0.850302       -23.1379
  31   2.0000      -0.809302       -22.0222
  32   2.0000      -0.782027       -21.2800
  33   2.0000      -0.767345       -20.8805
  34   2.0000      -0.704610       -19.1734
  35   2.0000      -0.703259       -19.1367
  36   2.0000      -0.691294       -18.8111
  37   2.0000      -0.658957       -17.9311
  38   2.0000      -0.639523       -17.4023
  39   2.0000      -0.613320       -16.6893
  40   2.0000      -0.595129       -16.1943
  41   2.0000      -0.573602       -15.6085
  42   2.0000      -0.564589       -15.3633
  43   2.0000      -0.554296       -15.0832
  44   2.0000      -0.531713       -14.4686
  45   2.0000      -0.526065       -14.3149
  46   2.0000      -0.516827       -14.0636
  47   2.0000      -0.515264       -14.0210
  48   2.0000      -0.507380       -13.8065
  49   2.0000      -0.496958       -13.5229
  50   2.0000      -0.490896       -13.3580
  51   2.0000      -0.478226       -13.0132
  52   2.0000      -0.474496       -12.9117
  53   2.0000      -0.461607       -12.5610
  54   2.0000      -0.457270       -12.4429
  55   2.0000      -0.453911       -12.3516
  56   2.0000      -0.451266       -12.2796
  57   2.0000      -0.436862       -11.8876
  58   2.0000      -0.426987       -11.6189
  59   2.0000      -0.426278       -11.5996
  60   2.0000      -0.424210       -11.5433
  61   2.0000      -0.421892       -11.4803
  62   2.0000      -0.409852       -11.1526
  63   2.0000      -0.349158        -9.5011
  64   2.0000      -0.330086        -8.9821
  65   2.0000      -0.326792        -8.8925
  66   2.0000      -0.284455        -7.7404
  67   0.0000       0.028066         0.7637
  68   0.0000       0.073145         1.9904
  69   0.0000       0.109895         2.9904
  70   0.0000       0.120285         3.2731
  71   0.0000       0.133986         3.6459

MULLIKEN ATOMIC CHARGES
-----------------------
   0 S :    0.129810
   1 C :   -0.120012
   2 C :   -0.093293
   3 C :    0.007702
   4 C :   -0.147718
   5 H :    0.026602
   6 C :    0.047268
   7 H :    0.041810
   8 H :    0.018628
   9 C :   -0.130794
  10 H :    0.041211
  11 H :    0.052342
  12 C :    0.000384
  13 H :    0.023003
  14 H :    0.029854
  15 H :    0.029258
  16 S :    0.105050
  17 C :   -0.102733
  18 C :   -0.044038
  19 C :   -0.041004
  20 C :   -0.161458
  21 H :    0.029779
  22 C :    0.069628
  23 H :    0.030154
  24 H :    0.014754
  25 C :   -0.041398
  26 H :    0.001999
  27 H :    0.028270
  28 C :   -0.041810
  29 H :    0.026302
  30 H :    0.037575
  31 H :    0.015827
  32 H :    0.043687
  33 H :    0.073360
Sum of atomic charges:    0.0000000

LOEWDIN ATOMIC CHARGES
----------------------
   0 S :    0.422285
   1 C :   -0.211468
   2 C :   -0.060970
   3 C :   -0.058886
   4 C :   -0.194650
   5 H :    0.035456
   6 C :   -0.045014
   7 H :    0.033734
   8 H :    0.028477
   9 C :   -0.041472
  10 H :    0.029212
  11 H :    0.035633
  12 C :   -0.062068
  13 H :    0.028171
  14 H :    0.019653
  15 H :    0.024180
  16 S :    0.399769
  17 C :   -0.201063
  18 C :   -0.072314
  19 C :   -0.057757
  20 C :   -0.193720
  21 H :    0.034193
  22 C :   -0.025607
  23 H :    0.034443
  24 H :    0.023750
  25 C :   -0.028335
  26 H :    0.003042
  27 H :    0.028749
  28 C :   -0.060470
  29 H :    0.024589
  30 H :    0.025770
  31 H :    0.021501
  32 H :    0.024524
  33 H :    0.036666

  Mayer bond orders larger than 0.100000
B(  0-S ,  1-C ) :   1.1308 B(  0-S ,  4-C ) :   1.1618 B(  1-C ,  2-C ) :   1.5983
B(  1-C , 32-H ) :   0.9699 B(  2-C ,  3-C ) :   1.2453 B(  2-C ,  6-C ) :   1.0272
B(  3-C ,  4-C ) :   1.5427 B(  3-C ,  5-H ) :   0.9939 B(  4-C , 20-C ) :   1.0681
B(  6-C ,  7-H ) :   0.9348 B(  6-C ,  8-H ) :   0.9433 B(  6-C ,  9-C ) :   1.0410
B(  9-C , 10-H ) :   0.9560 B(  9-C , 11-H ) :   0.9588 B(  9-C , 12-C ) :   1.0773
B( 12-C , 13-H ) :   0.9713 B( 12-C , 14-H ) :   0.9766 B( 12-C , 15-H ) :   0.9756
B( 16-S , 17-C ) :   1.1560 B( 16-S , 20-C ) :   1.1341 B( 17-C , 18-C ) :   1.5908
B( 17-C , 33-H ) :   0.9647 B( 18-C , 19-C ) :   1.2514 B( 18-C , 21-H ) :   0.9816
B( 19-C , 20-C ) :   1.5761 B( 19-C , 22-C ) :   1.0624 B( 22-C , 23-H ) :   0.9210
B( 22-C , 24-H ) :   0.9328 B( 22-C , 25-C ) :   1.0618 B( 25-C , 26-H ) :   0.9557
B( 25-C , 27-H ) :   0.9489 B( 25-C , 28-C ) :   1.0957 B( 28-C , 29-H ) :   0.9711
B( 28-C , 30-H ) :   0.9716 B( 28-C , 31-H ) :   0.9759

Dispersion correction           -0.013486174
FINAL SINGLE POINT ENERGY     -1339.872216779959

DIPOLE MOMENT
-------------
                                X             Y             Z
Electronic contribution:     17.75328       2.65056     -19.68879
Nuclear contribution   :    -18.17118      -2.82210      20.12526
                        -----------------------------------------
Total Dipole Moment    :     -0.41790      -0.17155       0.43647
                        -----------------------------------------
Magnitude (a.u.)       :      0.62815
Magnitude (Debye)      :      1.59664

Rotational constants in cm-1:     0.018176     0.007747     0.006251
Rotational constants in MHz :   544.891669   232.261885   187.388051

                             ****ORCA TERMINATED NORMALLY****
TOTAL RUN TIME: 0 days 0 hours 0 minutes 27 seconds 789 msec
