                         Program Version 4.2.1 -  RELEASE  -
|  1> ! wB97X-D3 SP def2-SVP
|  2> %pal
|  3> nprocs 16
|  4> end
|  5>
|  6> * xyz 0 1
|  7> S 	 -45.7516 	 30.4249 	 76.0456
|  8> C 	 -44.7181 	 31.1703 	 74.8917
|  9> C 	 -43.3641 	 31.0708 	 75.178
| 10> C 	 -43.2062 	 30.2353 	 76.3842
| 11> C 	 -44.4314 	 29.8605 	 76.9689
| 12> H 	 -42.2757 	 29.872 	 76.7681
| 13> C 	 -42.2144 	 31.7531 	 74.4169
| 14> H 	 -42.6397 	 32.4239 	 73.6168
| 15> H 	 -41.7548 	 30.9237 	 73.8237
| 16> C 	 -41.0908 	 32.4564 	 75.2203
| 17> H 	 -41.5269 	 33.3552 	 75.6602
| 18> H 	 -40.5078 	 31.822 	 75.9624
| 19> C 	 -40.0271 	 32.8474 	 74.1872
| 20> H 	 -39.6972 	 31.9658 	 73.6072
| 21> H 	 -40.5131 	 33.5071 	 73.4881
| 22> H 	 -39.2025 	 33.3227 	 74.6108
| 23> S 	 -43.2668 	 27.7722 	 78.3308
| 24> C 	 -44.0373 	 27.1526 	 79.7544
| 25> C 	 -45.1854 	 27.8383 	 80.079
| 26> C 	 -45.5349 	 28.8931 	 79.1806
| 27> C 	 -44.5547 	 28.9914 	 78.1815
| 28> H 	 -45.7757 	 27.5104 	 80.8961
| 29> C 	 -46.8427 	 29.6343 	 79.2186
| 30> H 	 -46.6629 	 30.6381 	 78.9081
| 31> H 	 -47.2145 	 29.6066 	 80.2966
| 32> C 	 -48.0371 	 29.0889 	 78.4566
| 33> H 	 -48.2528 	 28.1174 	 78.8231
| 34> H 	 -47.7852 	 28.9537 	 77.4293
| 35> C 	 -49.1945 	 30.1379 	 78.4658
| 36> H 	 -49.9887 	 29.819 	 77.8878
| 37> H 	 -48.935 	 31.1278 	 78.1634
| 38> H 	 -49.4641 	 30.0768 	 79.4793
| 39> H 	 -45.0547 	 31.537 	 73.9893
| 40> H 	 -43.6803 	 26.3021 	 80.3576
| 41> *
| 42>
| 43>                          ****END OF INPUT****

CARTESIAN COORDINATES (ANGSTROEM)
---------------------------------
  S    -45.751600   30.424900   76.045600
  C    -44.718100   31.170300   74.891700
  C    -43.364100   31.070800   75.178000
  C    -43.206200   30.235300   76.384200
  C    -44.431400   29.860500   76.968900
  H    -42.275700   29.872000   76.768100
  C    -42.214400   31.753100   74.416900
  H    -42.639700   32.423900   73.616800
  H    -41.754800   30.923700   73.823700
  C    -41.090800   32.456400   75.220300
  H    -41.526900   33.355200   75.660200
  H    -40.507800   31.822000   75.962400
  C    -40.027100   32.847400   74.187200
  H    -39.697200   31.965800   73.607200
  H    -40.513100   33.507100   73.488100
  H    -39.202500   33.322700   74.610800
  S    -43.266800   27.772200   78.330800
  C    -44.037300   27.152600   79.754400
  C    -45.185400   27.838300   80.079000
  C    -45.534900   28.893100   79.180600
  C    -44.554700   28.991400   78.181500
  H    -45.775700   27.510400   80.896100
  C    -46.842700   29.634300   79.218600
  H    -46.662900   30.638100   78.908100
  H    -47.214500   29.606600   80.296600
  C    -48.037100   29.088900   78.456600
  H    -48.252800   28.117400   78.823100
  H    -47.785200   28.953700   77.429300
  C    -49.194500   30.137900   78.465800
  H    -49.988700   29.819000   77.887800
  H    -48.935000   31.127800   78.163400
  H    -49.464100   30.076800   79.479300
  H    -45.054700   31.537000   73.989300
  H    -43.680300   26.302100   80.357600

 Total Charge           Charge          ....    0
 Multiplicity           Mult            ....    1
 Number of Electrons    NEL             ....  134
 Basis Dimension        Dim             ....  322

ORBITAL ENERGIES
----------------

  NO   OCC          E(Eh)            E(eV)
   0   2.0000     -88.969019     -2420.9701
   1   2.0000     -88.967230     -2420.9214
   2   2.0000     -10.331923      -281.1459
   3   2.0000     -10.330387      -281.1041
   4   2.0000     -10.315465      -280.6981
   5   2.0000     -10.307124      -280.4711
   6   2.0000     -10.304717      -280.4056
   7   2.0000     -10.304709      -280.4054
   8   2.0000     -10.303384      -280.3693
   9   2.0000     -10.295751      -280.1616
  10   2.0000     -10.295282      -280.1489
  11   2.0000     -10.291002      -280.0324
  12   2.0000     -10.289253      -279.9848
  13   2.0000     -10.277680      -279.6699
  14   2.0000     -10.273321      -279.5513
  15   2.0000     -10.266413      -279.3633
  16   2.0000      -8.084176      -219.9816
  17   2.0000      -8.081551      -219.9102
  18   2.0000      -6.042637      -164.4285
  19   2.0000      -6.040026      -164.3575
  20   2.0000      -6.038547      -164.3172
  21   2.0000      -6.036223      -164.2540
  22   2.0000      -6.035076      -164.2228
  23   2.0000      -6.032286      -164.1469
  24   2.0000      -1.004553       -27.3353
  25   2.0000      -0.983126       -26.7522
  26   2.0000      -0.913148       -24.8480
  27   2.0000      -0.910468       -24.7751
  28   2.0000      -0.866673       -23.5834
  29   2.0000      -0.855195       -23.2710
  30   2.0000      -0.846642       -23.0383
  31   2.0000      -0.808931       -22.0121
  32   2.0000      -0.782968       -21.3057
  33   2.0000      -0.771512       -20.9939
  34   2.0000      -0.708144       -19.2696
  35   2.0000      -0.699687       -19.0395
  36   2.0000      -0.687199       -18.6996
  37   2.0000      -0.667184       -18.1550
  38   2.0000      -0.638010       -17.3611
  39   2.0000      -0.613660       -16.6985
  40   2.0000      -0.598445       -16.2845
  41   2.0000      -0.574630       -15.6365
  42   2.0000      -0.569163       -15.4877
  43   2.0000      -0.566562       -15.4169
  44   2.0000      -0.528388       -14.3782
  45   2.0000      -0.522527       -14.2187
  46   2.0000      -0.518833       -14.1182
  47   2.0000      -0.511316       -13.9136
  48   2.0000      -0.503727       -13.7071
  49   2.0000      -0.497898       -13.5485
  50   2.0000      -0.485571       -13.2131
  51   2.0000      -0.481386       -13.0992
  52   2.0000      -0.471780       -12.8378
  53   2.0000      -0.462042       -12.5728
  54   2.0000      -0.458334       -12.4719
  55   2.0000      -0.453236       -12.3332
  56   2.0000      -0.443971       -12.0811
  57   2.0000      -0.438871       -11.9423
  58   2.0000      -0.435545       -11.8518
  59   2.0000      -0.432995       -11.7824
  60   2.0000      -0.429159       -11.6780
  61   2.0000      -0.420601       -11.4451
  62   2.0000      -0.405984       -11.0474
  63   2.0000      -0.352839        -9.6012
  64   2.0000      -0.332007        -9.0344
  65   2.0000      -0.326471        -8.8837
  66   2.0000      -0.282912        -7.6984
  67   0.0000       0.029164         0.7936
  68   0.0000       0.081944         2.2298
  69   0.0000       0.101666         2.7665
  70   0.0000       0.121302         3.3008
  71   0.0000       0.130493         3.5509

MULLIKEN ATOMIC CHARGES
-----------------------
   0 S :    0.111774
   1 C :   -0.093813
   2 C :   -0.058462
   3 C :   -0.007144
   4 C :   -0.120100
   5 H :    0.006262
   6 C :    0.007763
   7 H :    0.030489
   8 H :    0.040268
   9 C :   -0.079172
  10 H :    0.045141
  11 H :    0.050683
  12 C :   -0.024684
  13 H :    0.028566
  14 H :    0.017285
  15 H :    0.024613
  16 S :    0.100114
  17 C :   -0.091648
  18 C :   -0.027524
  19 C :   -0.021551
  20 C :   -0.142102
  21 H :    0.001117
  22 C :    0.017785
  23 H :    0.021288
  24 H :    0.026796
  25 C :   -0.046573
  26 H :    0.014927
  27 H :    0.011937
  28 C :    0.018382
  29 H :    0.017681
  30 H :    0.030834
  31 H :    0.012871
  32 H :    0.013205
  33 H :    0.062991
Sum of atomic charges:    0.0000000

LOEWDIN ATOMIC CHARGES
----------------------
   0 S :    0.446928
   1 C :   -0.204909
   2 C :   -0.053847
   3 C :   -0.071113
   4 C :   -0.207834
   5 H :    0.017845
   6 C :   -0.040500
   7 H :    0.036100
   8 H :    0.036994
   9 C :   -0.039028
  10 H :    0.028290
  11 H :    0.033984
  12 C :   -0.057992
  13 H :    0.027245
  14 H :    0.020613
  15 H :    0.015750
  16 S :    0.406867
  17 C :   -0.195397
  18 C :   -0.068263
  19 C :   -0.059592
  20 C :   -0.176429
  21 H :    0.024888
  22 C :   -0.037897
  23 H :    0.022261
  24 H :    0.037682
  25 C :   -0.031487
  26 H :    0.018629
  27 H :    0.006102
  28 C :   -0.043955
  29 H :    0.017653
  30 H :    0.024950
  31 H :    0.020146
  32 H :    0.009695
  33 H :    0.035621

  Mayer bond orders larger than 0.100000
B(  0-S ,  1-C ) :   1.1433 B(  0-S ,  4-C ) :   1.1639 B(  1-C ,  2-C ) :   1.6138
B(  1-C , 32-H ) :   0.9725 B(  2-C ,  3-C ) :   1.2426 B(  2-C ,  6-C ) :   1.0130
B(  3-C ,  4-C ) :   1.5497 B(  3-C ,  5-H ) :   0.9908 B(  4-C , 20-C ) :   1.0376
B(  6-C ,  7-H ) :   0.9472 B(  6-C ,  8-H ) :   0.9355 B(  6-C ,  9-C ) :   1.0589
B(  9-C , 10-H ) :   0.9568 B(  9-C , 11-H ) :   0.9539 B(  9-C , 12-C ) :   1.0776
B( 12-C , 13-H ) :   0.9753 B( 12-C , 14-H ) :   0.9737 B( 12-C , 15-H ) :   0.9737
B( 16-S , 17-C ) :   1.1446 B( 16-S , 20-C ) :   1.1466 B( 17-C , 18-C ) :   1.6233
B( 17-C , 33-H ) :   0.9622 B( 18-C , 19-C ) :   1.2344 B( 18-C , 21-H ) :   0.9930
B( 19-C , 20-C ) :   1.5782 B( 19-C , 22-C ) :   1.0568 B( 22-C , 23-H ) :   0.9278
B( 22-C , 24-H ) :   0.9311 B( 22-C , 25-C ) :   1.0702 B( 25-C , 26-H ) :   0.9537
B( 25-C , 27-H ) :   0.9503 B( 25-C , 28-C ) :   1.0686 B( 28-C , 29-H ) :   0.9728
B( 28-C , 30-H ) :   0.9752 B( 28-C , 31-H ) :   0.9778

Dispersion correction           -0.013697965
FINAL SINGLE POINT ENERGY     -1339.874983303476

DIPOLE MOMENT
-------------
                                X             Y             Z
Electronic contribution:      0.38261     -12.39794       4.73470
Nuclear contribution   :     -0.35336      12.49577      -4.85033
                        -----------------------------------------
Total Dipole Moment    :      0.02924       0.09783      -0.11563
                        -----------------------------------------
Magnitude (a.u.)       :      0.15426
Magnitude (Debye)      :      0.39210

Rotational constants in cm-1:     0.020981     0.007857     0.006049
Rotational constants in MHz :   628.990507   235.533606   181.329811

                             ****ORCA TERMINATED NORMALLY****
TOTAL RUN TIME: 0 days 0 hours 0 minutes 28 seconds 783 msec
