                         Program Version 4.2.1 -  RELEASE  -
|  1> ! wB97X-D3 SP def2-SVP
|  2> %pal
|  3> nprocs 16
|  4> end
|  5>
|  6> * xyz 0 1
|  7> S 	 -38.6889 	 13.216 	 78.1621
|  8> C 	 -37.4307 	 13.4519 	 77.0346
|  9> C 	 -37.945 	 14.0069 	 75.8571
| 10> C 	 -39.3406 	 14.2715 	 75.9027
| 11> C 	 -39.8664 	 14.0363 	 77.1556
| 12> H 	 -39.9188 	 14.6432 	 75.0599
| 13> C 	 -37.3171 	 13.8344 	 74.5541
| 14> H 	 -38.0604 	 13.5812 	 73.7949
| 15> H 	 -36.5592 	 12.9837 	 74.5451
| 16> C 	 -36.562 	 15.0761 	 74.0049
| 17> H 	 -35.9448 	 15.5036 	 74.8513
| 18> H 	 -35.8601 	 14.8137 	 73.2519
| 19> C 	 -37.5061 	 16.2209 	 73.5266
| 20> H 	 -38.169 	 16.5781 	 74.2876
| 21> H 	 -36.8936 	 16.9921 	 73.0772
| 22> H 	 -38.2712 	 15.8438 	 72.793
| 23> S 	 -41.0454 	 14.9769 	 79.4349
| 24> C 	 -42.7792 	 15.4053 	 79.4273
| 25> C 	 -43.3583 	 14.9282 	 78.2505
| 26> C 	 -42.4 	 14.4197 	 77.3339
| 27> C 	 -41.0961 	 14.4103 	 77.7792
| 28> H 	 -44.4272 	 15.027 	 78.0312
| 29> C 	 -42.8301 	 13.8661 	 75.9387
| 30> H 	 -42.019 	 14.149 	 75.216
| 31> H 	 -43.8425 	 14.244 	 75.6816
| 32> C 	 -43.0315 	 12.3796 	 75.8942
| 33> H 	 -42.2011 	 11.8103 	 76.4095
| 34> H 	 -43.0811 	 12.0517 	 74.8638
| 35> C 	 -44.2694 	 11.8357 	 76.7093
| 36> H 	 -45.1456 	 12.3183 	 76.2955
| 37> H 	 -44.3266 	 12.1658 	 77.7205
| 38> H 	 -44.4344 	 10.7414 	 76.6498
| 39> H 	 -36.3395 	 13.1317 	 77.0361
| 40> H 	 -43.3429 	 15.7845 	 80.263
| 41> *
| 42>
| 43>                          ****END OF INPUT****

CARTESIAN COORDINATES (ANGSTROEM)
---------------------------------
  S    -38.688900   13.216000   78.162100
  C    -37.430700   13.451900   77.034600
  C    -37.945000   14.006900   75.857100
  C    -39.340600   14.271500   75.902700
  C    -39.866400   14.036300   77.155600
  H    -39.918800   14.643200   75.059900
  C    -37.317100   13.834400   74.554100
  H    -38.060400   13.581200   73.794900
  H    -36.559200   12.983700   74.545100
  C    -36.562000   15.076100   74.004900
  H    -35.944800   15.503600   74.851300
  H    -35.860100   14.813700   73.251900
  C    -37.506100   16.220900   73.526600
  H    -38.169000   16.578100   74.287600
  H    -36.893600   16.992100   73.077200
  H    -38.271200   15.843800   72.793000
  S    -41.045400   14.976900   79.434900
  C    -42.779200   15.405300   79.427300
  C    -43.358300   14.928200   78.250500
  C    -42.400000   14.419700   77.333900
  C    -41.096100   14.410300   77.779200
  H    -44.427200   15.027000   78.031200
  C    -42.830100   13.866100   75.938700
  H    -42.019000   14.149000   75.216000
  H    -43.842500   14.244000   75.681600
  C    -43.031500   12.379600   75.894200
  H    -42.201100   11.810300   76.409500
  H    -43.081100   12.051700   74.863800
  C    -44.269400   11.835700   76.709300
  H    -45.145600   12.318300   76.295500
  H    -44.326600   12.165800   77.720500
  H    -44.434400   10.741400   76.649800
  H    -36.339500   13.131700   77.036100
  H    -43.342900   15.784500   80.263000

 Total Charge           Charge          ....    0
 Multiplicity           Mult            ....    1
 Number of Electrons    NEL             ....  134
 Basis Dimension        Dim             ....  322

ORBITAL ENERGIES
----------------

  NO   OCC          E(Eh)            E(eV)
   0   2.0000     -88.970996     -2421.0239
   1   2.0000     -88.967680     -2420.9337
   2   2.0000     -10.331390      -281.1314
   3   2.0000     -10.326695      -281.0036
   4   2.0000     -10.322898      -280.9003
   5   2.0000     -10.318824      -280.7895
   6   2.0000     -10.303309      -280.3673
   7   2.0000     -10.299853      -280.2732
   8   2.0000     -10.299440      -280.2620
   9   2.0000     -10.296550      -280.1834
  10   2.0000     -10.295262      -280.1483
  11   2.0000     -10.291331      -280.0413
  12   2.0000     -10.287277      -279.9310
  13   2.0000     -10.286463      -279.9089
  14   2.0000     -10.278012      -279.6789
  15   2.0000     -10.274940      -279.5953
  16   2.0000      -8.086185      -220.0363
  17   2.0000      -8.081711      -219.9145
  18   2.0000      -6.044737      -164.4857
  19   2.0000      -6.040465      -164.3694
  20   2.0000      -6.040347      -164.3662
  21   2.0000      -6.037026      -164.2758
  22   2.0000      -6.036273      -164.2553
  23   2.0000      -6.032382      -164.1495
  24   2.0000      -1.014278       -27.5999
  25   2.0000      -0.986829       -26.8530
  26   2.0000      -0.913194       -24.8493
  27   2.0000      -0.905852       -24.6495
  28   2.0000      -0.872384       -23.7388
  29   2.0000      -0.851855       -23.1802
  30   2.0000      -0.839907       -22.8550
  31   2.0000      -0.816618       -22.2213
  32   2.0000      -0.782361       -21.2891
  33   2.0000      -0.770427       -20.9644
  34   2.0000      -0.709700       -19.3119
  35   2.0000      -0.701875       -19.0990
  36   2.0000      -0.686822       -18.6894
  37   2.0000      -0.669598       -18.2207
  38   2.0000      -0.637339       -17.3429
  39   2.0000      -0.620124       -16.8744
  40   2.0000      -0.590999       -16.0819
  41   2.0000      -0.572867       -15.5885
  42   2.0000      -0.555168       -15.1069
  43   2.0000      -0.549865       -14.9626
  44   2.0000      -0.543513       -14.7897
  45   2.0000      -0.533775       -14.5247
  46   2.0000      -0.516892       -14.0653
  47   2.0000      -0.515523       -14.0281
  48   2.0000      -0.506041       -13.7701
  49   2.0000      -0.492833       -13.4107
  50   2.0000      -0.487955       -13.2779
  51   2.0000      -0.481772       -13.1097
  52   2.0000      -0.474740       -12.9183
  53   2.0000      -0.472605       -12.8602
  54   2.0000      -0.461298       -12.5525
  55   2.0000      -0.447574       -12.1791
  56   2.0000      -0.445710       -12.1284
  57   2.0000      -0.433100       -11.7852
  58   2.0000      -0.429813       -11.6958
  59   2.0000      -0.423505       -11.5242
  60   2.0000      -0.416652       -11.3377
  61   2.0000      -0.413411       -11.2495
  62   2.0000      -0.404015       -10.9938
  63   2.0000      -0.356930        -9.7126
  64   2.0000      -0.333732        -9.0813
  65   2.0000      -0.327358        -8.9079
  66   2.0000      -0.285929        -7.7805
  67   0.0000       0.020452         0.5565
  68   0.0000       0.066032         1.7968
  69   0.0000       0.094464         2.5705
  70   0.0000       0.117989         3.2106
  71   0.0000       0.133579         3.6349

MULLIKEN ATOMIC CHARGES
-----------------------
   0 S :    0.123247
   1 C :   -0.121454
   2 C :   -0.062581
   3 C :    0.018011
   4 C :   -0.152087
   5 H :    0.020184
   6 C :   -0.013187
   7 H :    0.029770
   8 H :    0.035648
   9 C :   -0.066031
  10 H :    0.030036
  11 H :    0.023928
  12 C :   -0.063883
  13 H :    0.034924
  14 H :    0.044551
  15 H :    0.019635
  16 S :    0.104764
  17 C :   -0.096197
  18 C :   -0.034852
  19 C :   -0.060193
  20 C :   -0.125671
  21 H :    0.028393
  22 C :    0.076817
  23 H :    0.033859
  24 H :    0.020131
  25 C :   -0.077249
  26 H :    0.041871
  27 H :    0.034318
  28 C :   -0.065570
  29 H :    0.003915
  30 H :    0.032261
  31 H :    0.047644
  32 H :    0.074406
  33 H :    0.060644
Sum of atomic charges:    0.0000000

LOEWDIN ATOMIC CHARGES
----------------------
   0 S :    0.433102
   1 C :   -0.219559
   2 C :   -0.075989
   3 C :   -0.060720
   4 C :   -0.187023
   5 H :    0.031078
   6 C :   -0.038201
   7 H :    0.029823
   8 H :    0.035711
   9 C :   -0.040463
  10 H :    0.027893
  11 H :    0.016084
  12 C :   -0.070388
  13 H :    0.021974
  14 H :    0.027745
  15 H :    0.024139
  16 S :    0.398202
  17 C :   -0.175799
  18 C :   -0.071553
  19 C :   -0.060339
  20 C :   -0.203148
  21 H :    0.034852
  22 C :   -0.031178
  23 H :    0.035712
  24 H :    0.030967
  25 C :   -0.043787
  26 H :    0.030558
  27 H :    0.023151
  28 C :   -0.070930
  29 H :    0.015745
  30 H :    0.021148
  31 H :    0.032262
  32 H :    0.048813
  33 H :    0.030117

  Mayer bond orders larger than 0.100000
B(  0-S ,  1-C ) :   1.1518 B(  0-S ,  4-C ) :   1.1555 B(  1-C ,  2-C ) :   1.5850
B(  1-C ,  4-C ) :   0.1007 B(  1-C , 32-H ) :   0.9559 B(  2-C ,  3-C ) :   1.2701
B(  2-C ,  6-C ) :   1.0225 B(  3-C ,  4-C ) :   1.5420 B(  3-C ,  5-H ) :   0.9844
B(  4-C , 20-C ) :   1.0668 B(  6-C ,  7-H ) :   0.9541 B(  6-C ,  8-H ) :   0.9499
B(  6-C ,  9-C ) :   1.0609 B(  9-C , 10-H ) :   0.9562 B(  9-C , 11-H ) :   0.9588
B(  9-C , 12-C ) :   1.0732 B( 12-C , 13-H ) :   0.9745 B( 12-C , 14-H ) :   0.9750
B( 12-C , 15-H ) :   0.9738 B( 16-S , 17-C ) :   1.1496 B( 16-S , 20-C ) :   1.1315
B( 17-C , 18-C ) :   1.5845 B( 17-C , 20-C ) :   0.1060 B( 17-C , 33-H ) :   0.9699
B( 18-C , 19-C ) :   1.2714 B( 18-C , 21-H ) :   0.9826 B( 19-C , 20-C ) :   1.5837
B( 19-C , 22-C ) :   1.0360 B( 22-C , 23-H ) :   0.9325 B( 22-C , 24-H ) :   0.9351
B( 22-C , 25-C ) :   1.0722 B( 25-C , 26-H ) :   0.9571 B( 25-C , 27-H ) :   0.9576
B( 25-C , 28-C ) :   1.0637 B( 28-C , 29-H ) :   0.9723 B( 28-C , 30-H ) :   0.9756
B( 28-C , 31-H ) :   0.9765

Dispersion correction           -0.014700782
FINAL SINGLE POINT ENERGY     -1339.870733307205

DIPOLE MOMENT
-------------
                                X             Y             Z
Electronic contribution:      3.45711       1.71782      23.15520
Nuclear contribution   :     -3.64494      -1.83489     -23.66810
                        -----------------------------------------
Total Dipole Moment    :     -0.18783      -0.11707      -0.51290
                        -----------------------------------------
Magnitude (a.u.)       :      0.55862
Magnitude (Debye)      :      1.41989

Rotational constants in cm-1:     0.020197     0.008356     0.007315
Rotational constants in MHz :   605.477167   250.510465   219.289954

                             ****ORCA TERMINATED NORMALLY****
TOTAL RUN TIME: 0 days 0 hours 0 minutes 29 seconds 399 msec
