                         Program Version 4.2.1 -  RELEASE  -
|  1> ! wB97X-D3 SP def2-SVP
|  2> %pal
|  3> nprocs 16
|  4> end
|  5>
|  6> * xyz 0 1
|  7> S 	 7.8178 	 -4.94697 	 86.1539
|  8> C 	 8.25391 	 -3.94058 	 87.4853
|  9> C 	 7.28139 	 -2.95395 	 87.7239
| 10> C 	 6.17319 	 -3.0357 	 86.8168
| 11> C 	 6.28386 	 -4.07568 	 85.9442
| 12> H 	 5.27628 	 -2.43143 	 86.7496
| 13> C 	 7.5601 	 -1.8527 	 88.6481
| 14> H 	 7.41719 	 -0.976802 	 88.0345
| 15> H 	 8.61742 	 -1.86293 	 88.7947
| 16> C 	 6.49983 	 -1.62883 	 89.795
| 17> H 	 6.93216 	 -1.10226 	 90.675
| 18> H 	 5.65153 	 -1.18443 	 89.3326
| 19> C 	 6.00807 	 -2.96639 	 90.3763
| 20> H 	 5.38445 	 -3.56205 	 89.7123
| 21> H 	 6.76455 	 -3.61423 	 90.8343
| 22> H 	 5.36278 	 -2.66312 	 91.2151
| 23> S 	 5.88581 	 -4.30748 	 83.2853
| 24> C 	 4.29712 	 -4.55785 	 82.717
| 25> C 	 3.37013 	 -4.76201 	 83.7358
| 26> C 	 3.99858 	 -4.6811 	 85.0106
| 27> C 	 5.35663 	 -4.43415 	 84.9271
| 28> H 	 2.34047 	 -4.84889 	 83.4398
| 29> C 	 3.1144 	 -4.79281 	 86.2409
| 30> H 	 2.32968 	 -5.43611 	 85.938
| 31> H 	 2.71055 	 -3.8692 	 86.4747
| 32> C 	 3.81182 	 -5.34216 	 87.5184
| 33> H 	 2.9908 	 -5.39727 	 88.2991
| 34> H 	 4.48034 	 -4.55282 	 87.8157
| 35> C 	 4.51972 	 -6.74984 	 87.3553
| 36> H 	 3.90563 	 -7.52793 	 87.0487
| 37> H 	 4.88958 	 -7.08855 	 88.2926
| 38> H 	 5.3399 	 -6.6963 	 86.4939
| 39> H 	 9.24642 	 -3.95536 	 87.9949
| 40> H 	 4.01126 	 -4.58197 	 81.704
| 41> *
| 42>
| 43>                          ****END OF INPUT****

CARTESIAN COORDINATES (ANGSTROEM)
---------------------------------
  S      7.817800   -4.946970   86.153900
  C      8.253910   -3.940580   87.485300
  C      7.281390   -2.953950   87.723900
  C      6.173190   -3.035700   86.816800
  C      6.283860   -4.075680   85.944200
  H      5.276280   -2.431430   86.749600
  C      7.560100   -1.852700   88.648100
  H      7.417190   -0.976802   88.034500
  H      8.617420   -1.862930   88.794700
  C      6.499830   -1.628830   89.795000
  H      6.932160   -1.102260   90.675000
  H      5.651530   -1.184430   89.332600
  C      6.008070   -2.966390   90.376300
  H      5.384450   -3.562050   89.712300
  H      6.764550   -3.614230   90.834300
  H      5.362780   -2.663120   91.215100
  S      5.885810   -4.307480   83.285300
  C      4.297120   -4.557850   82.717000
  C      3.370130   -4.762010   83.735800
  C      3.998580   -4.681100   85.010600
  C      5.356630   -4.434150   84.927100
  H      2.340470   -4.848890   83.439800
  C      3.114400   -4.792810   86.240900
  H      2.329680   -5.436110   85.938000
  H      2.710550   -3.869200   86.474700
  C      3.811820   -5.342160   87.518400
  H      2.990800   -5.397270   88.299100
  H      4.480340   -4.552820   87.815700
  C      4.519720   -6.749840   87.355300
  H      3.905630   -7.527930   87.048700
  H      4.889580   -7.088550   88.292600
  H      5.339900   -6.696300   86.493900
  H      9.246420   -3.955360   87.994900
  H      4.011260   -4.581970   81.704000

 Total Charge           Charge          ....    0
 Multiplicity           Mult            ....    1
 Number of Electrons    NEL             ....  134
 Basis Dimension        Dim             ....  322

ORBITAL ENERGIES
----------------

  NO   OCC          E(Eh)            E(eV)
   0   2.0000     -88.965784     -2420.8821
   1   2.0000     -88.963973     -2420.8328
   2   2.0000     -10.324091      -280.9328
   3   2.0000     -10.317474      -280.7528
   4   2.0000     -10.314276      -280.6657
   5   2.0000     -10.310849      -280.5725
   6   2.0000     -10.301668      -280.3226
   7   2.0000     -10.299316      -280.2586
   8   2.0000     -10.293145      -280.0907
   9   2.0000     -10.292465      -280.0722
  10   2.0000     -10.290634      -280.0224
  11   2.0000     -10.286809      -279.9183
  12   2.0000     -10.282665      -279.8055
  13   2.0000     -10.282025      -279.7881
  14   2.0000     -10.273218      -279.5485
  15   2.0000     -10.273171      -279.5472
  16   2.0000      -8.081711      -219.9145
  17   2.0000      -8.078561      -219.8288
  18   2.0000      -6.040063      -164.3585
  19   2.0000      -6.037030      -164.2759
  20   2.0000      -6.035995      -164.2478
  21   2.0000      -6.033066      -164.1681
  22   2.0000      -6.032630      -164.1562
  23   2.0000      -6.029404      -164.0684
  24   2.0000      -1.012366       -27.5479
  25   2.0000      -0.986427       -26.8420
  26   2.0000      -0.912769       -24.8377
  27   2.0000      -0.904603       -24.6155
  28   2.0000      -0.872298       -23.7364
  29   2.0000      -0.848091       -23.0777
  30   2.0000      -0.842165       -22.9165
  31   2.0000      -0.817077       -22.2338
  32   2.0000      -0.786048       -21.3894
  33   2.0000      -0.768975       -20.9249
  34   2.0000      -0.713374       -19.4119
  35   2.0000      -0.697556       -18.9815
  36   2.0000      -0.686029       -18.6678
  37   2.0000      -0.664556       -18.0835
  38   2.0000      -0.642295       -17.4777
  39   2.0000      -0.619164       -16.8483
  40   2.0000      -0.589223       -16.0336
  41   2.0000      -0.563987       -15.3469
  42   2.0000      -0.557899       -15.1812
  43   2.0000      -0.556776       -15.1506
  44   2.0000      -0.540267       -14.7014
  45   2.0000      -0.536244       -14.5919
  46   2.0000      -0.518246       -14.1022
  47   2.0000      -0.505907       -13.7664
  48   2.0000      -0.502958       -13.6862
  49   2.0000      -0.500714       -13.6251
  50   2.0000      -0.488929       -13.3044
  51   2.0000      -0.474388       -12.9087
  52   2.0000      -0.470086       -12.7917
  53   2.0000      -0.468290       -12.7428
  54   2.0000      -0.457173       -12.4403
  55   2.0000      -0.447300       -12.1716
  56   2.0000      -0.442373       -12.0376
  57   2.0000      -0.435027       -11.8377
  58   2.0000      -0.432687       -11.7740
  59   2.0000      -0.421377       -11.4663
  60   2.0000      -0.417149       -11.3512
  61   2.0000      -0.413261       -11.2454
  62   2.0000      -0.410128       -11.1602
  63   2.0000      -0.344002        -9.3608
  64   2.0000      -0.330854        -9.0030
  65   2.0000      -0.323408        -8.8004
  66   2.0000      -0.292870        -7.9694
  67   0.0000       0.035425         0.9640
  68   0.0000       0.068424         1.8619
  69   0.0000       0.116834         3.1792
  70   0.0000       0.122299         3.3279
  71   0.0000       0.127661         3.4738

MULLIKEN ATOMIC CHARGES
-----------------------
   0 S :    0.112708
   1 C :   -0.131749
   2 C :   -0.133329
   3 C :    0.058014
   4 C :   -0.188381
   5 H :    0.015257
   6 C :    0.112640
   7 H :    0.022306
   8 H :    0.005979
   9 C :   -0.066998
  10 H :    0.049021
  11 H :    0.028930
  12 C :   -0.061319
  13 H :    0.031497
  14 H :    0.034468
  15 H :    0.023663
  16 S :    0.130674
  17 C :   -0.074332
  18 C :   -0.055240
  19 C :   -0.036708
  20 C :   -0.177912
  21 H :    0.016963
  22 C :    0.126753
  23 H :    0.010905
  24 H :    0.018652
  25 C :   -0.105733
  26 H :    0.030683
  27 H :    0.045180
  28 C :   -0.035562
  29 H :    0.011958
  30 H :    0.028630
  31 H :    0.051476
  32 H :    0.064832
  33 H :    0.036074
Sum of atomic charges:    0.0000000

LOEWDIN ATOMIC CHARGES
----------------------
   0 S :    0.403434
   1 C :   -0.215472
   2 C :   -0.061359
   3 C :   -0.060130
   4 C :   -0.183348
   5 H :    0.033861
   6 C :   -0.040108
   7 H :    0.035034
   8 H :    0.026646
   9 C :   -0.032400
  10 H :    0.035106
  11 H :    0.022680
  12 C :   -0.072569
  13 H :    0.021139
  14 H :    0.025581
  15 H :    0.025937
  16 S :    0.439974
  17 C :   -0.187615
  18 C :   -0.072519
  19 C :   -0.049105
  20 C :   -0.223415
  21 H :    0.032049
  22 C :   -0.020563
  23 H :    0.025965
  24 H :    0.023522
  25 C :   -0.040460
  26 H :    0.027663
  27 H :    0.017916
  28 C :   -0.066643
  29 H :    0.012725
  30 H :    0.022040
  31 H :    0.038039
  32 H :    0.037425
  33 H :    0.018970

  Mayer bond orders larger than 0.100000
B(  0-S ,  1-C ) :   1.1375 B(  0-S ,  4-C ) :   1.1447 B(  1-C ,  2-C ) :   1.6003
B(  1-C , 32-H ) :   0.9606 B(  2-C ,  3-C ) :   1.2126 B(  2-C ,  6-C ) :   1.0415
B(  3-C ,  4-C ) :   1.6018 B(  3-C ,  5-H ) :   0.9887 B(  4-C , 20-C ) :   1.0408
B(  6-C ,  7-H ) :   0.9377 B(  6-C ,  8-H ) :   0.9404 B(  6-C ,  9-C ) :   1.0344
B(  9-C , 10-H ) :   0.9615 B(  9-C , 11-H ) :   0.9520 B(  9-C , 12-C ) :   1.0971
B( 12-C , 13-H ) :   0.9656 B( 12-C , 14-H ) :   0.9759 B( 12-C , 15-H ) :   0.9705
B( 16-S , 17-C ) :   1.1797 B( 16-S , 20-C ) :   1.1494 B( 17-C , 18-C ) :   1.5983
B( 17-C , 33-H ) :   0.9704 B( 18-C , 19-C ) :   1.2447 B( 18-C , 21-H ) :   0.9971
B( 19-C , 20-C ) :   1.5830 B( 19-C , 22-C ) :   1.0218 B( 22-C , 23-H ) :   0.9311
B( 22-C , 24-H ) :   0.9288 B( 22-C , 25-C ) :   1.0815 B( 25-C , 26-H ) :   0.9533
B( 25-C , 27-H ) :   0.9395 B( 25-C , 28-C ) :   1.0711 B( 28-C , 29-H ) :   0.9751
B( 28-C , 30-H ) :   0.9761 B( 28-C , 31-H ) :   0.9678

Dispersion correction           -0.017028922
FINAL SINGLE POINT ENERGY     -1339.867944656280

DIPOLE MOMENT
-------------
                                X             Y             Z
Electronic contribution:      9.74659      -2.73340     -23.85837
Nuclear contribution   :    -10.17899       3.12085      24.13420
                        -----------------------------------------
Total Dipole Moment    :     -0.43240       0.38745       0.27583
                        -----------------------------------------
Magnitude (a.u.)       :      0.64279
Magnitude (Debye)      :      1.63383

Rotational constants in cm-1:     0.021554     0.009911     0.008454
Rotational constants in MHz :   646.172576   297.123799   253.443940

                             ****ORCA TERMINATED NORMALLY****
TOTAL RUN TIME: 0 days 0 hours 0 minutes 37 seconds 826 msec
