                         Program Version 4.2.1 -  RELEASE  -
|  1> ! wB97X-D3 SP def2-SVP
|  2> %pal
|  3> nprocs 16
|  4> end
|  5>
|  6> * xyz 0 1
|  7> S 	 45.7895 	 8.94941 	 102.964
|  8> C 	 47.536 	 9.3248 	 102.999
|  9> C 	 48.1509 	 8.9611 	 101.841
| 10> C 	 47.1931 	 8.39057 	 100.926
| 11> C 	 45.8572 	 8.36811 	 101.358
| 12> H 	 47.3575 	 8.14706 	 99.938
| 13> C 	 49.625 	 8.90945 	 101.593
| 14> H 	 50.003 	 8.37397 	 100.731
| 15> H 	 49.9392 	 8.15285 	 102.29
| 16> C 	 50.2912 	 10.2097 	 101.825
| 17> H 	 49.9615 	 10.9409 	 101.068
| 18> H 	 49.8653 	 10.634 	 102.743
| 19> C 	 51.8482 	 10.2544 	 101.939
| 20> H 	 52.4623 	 9.96334 	 101.037
| 21> H 	 52.1346 	 11.1978 	 102.451
| 22> H 	 52.0835 	 9.39017 	 102.668
| 23> S 	 43.8324 	 6.58118 	 101.093
| 24> C 	 42.534 	 6.86976 	 99.9046
| 25> C 	 42.9389 	 7.77355 	 98.9743
| 26> C 	 44.2159 	 8.40488 	 99.3092
| 27> C 	 44.709 	 7.9446 	 100.578
| 28> H 	 42.2934 	 8.05262 	 98.204
| 29> C 	 44.9375 	 9.41031 	 98.3939
| 30> H 	 45.7296 	 8.92712 	 97.8194
| 31> H 	 45.5036 	 10.0594 	 99.0283
| 32> C 	 44.146 	 10.269 	 97.3816
| 33> H 	 43.3338 	 9.63812 	 96.9647
| 34> H 	 44.6924 	 10.5115 	 96.451
| 35> C 	 43.4248 	 11.4692 	 98.1132
| 36> H 	 42.973 	 10.9704 	 99.0029
| 37> H 	 42.5906 	 11.9532 	 97.5477
| 38> H 	 44.1269 	 12.3098 	 98.3851
| 39> H 	 48.0191 	 9.64406 	 103.867
| 40> H 	 41.6585 	 6.32189 	 99.831
| 41> *
| 42>
| 43>                          ****END OF INPUT****

CARTESIAN COORDINATES (ANGSTROEM)
---------------------------------
  S     45.789500    8.949410  102.964000
  C     47.536000    9.324800  102.999000
  C     48.150900    8.961100  101.841000
  C     47.193100    8.390570  100.926000
  C     45.857200    8.368110  101.358000
  H     47.357500    8.147060   99.938000
  C     49.625000    8.909450  101.593000
  H     50.003000    8.373970  100.731000
  H     49.939200    8.152850  102.290000
  C     50.291200   10.209700  101.825000
  H     49.961500   10.940900  101.068000
  H     49.865300   10.634000  102.743000
  C     51.848200   10.254400  101.939000
  H     52.462300    9.963340  101.037000
  H     52.134600   11.197800  102.451000
  H     52.083500    9.390170  102.668000
  S     43.832400    6.581180  101.093000
  C     42.534000    6.869760   99.904600
  C     42.938900    7.773550   98.974300
  C     44.215900    8.404880   99.309200
  C     44.709000    7.944600  100.578000
  H     42.293400    8.052620   98.204000
  C     44.937500    9.410310   98.393900
  H     45.729600    8.927120   97.819400
  H     45.503600   10.059400   99.028300
  C     44.146000   10.269000   97.381600
  H     43.333800    9.638120   96.964700
  H     44.692400   10.511500   96.451000
  C     43.424800   11.469200   98.113200
  H     42.973000   10.970400   99.002900
  H     42.590600   11.953200   97.547700
  H     44.126900   12.309800   98.385100
  H     48.019100    9.644060  103.867000
  H     41.658500    6.321890   99.831000

 Total Charge           Charge          ....    0
 Multiplicity           Mult            ....    1
 Number of Electrons    NEL             ....  134
 Basis Dimension        Dim             ....  322

ORBITAL ENERGIES
----------------

  NO   OCC          E(Eh)            E(eV)
   0   2.0000     -88.966745     -2420.9082
   1   2.0000     -88.964801     -2420.8553
   2   2.0000     -10.328862      -281.0626
   3   2.0000     -10.327959      -281.0381
   4   2.0000     -10.314991      -280.6852
   5   2.0000     -10.313620      -280.6479
   6   2.0000     -10.312391      -280.6144
   7   2.0000     -10.303575      -280.3745
   8   2.0000     -10.294968      -280.1403
   9   2.0000     -10.294058      -280.1156
  10   2.0000     -10.293574      -280.1024
  11   2.0000     -10.291797      -280.0540
  12   2.0000     -10.289140      -279.9817
  13   2.0000     -10.288881      -279.9747
  14   2.0000     -10.288290      -279.9586
  15   2.0000     -10.286441      -279.9083
  16   2.0000      -8.081547      -219.9101
  17   2.0000      -8.080005      -219.8681
  18   2.0000      -6.040070      -164.3587
  19   2.0000      -6.038572      -164.3179
  20   2.0000      -6.035966      -164.2470
  21   2.0000      -6.034416      -164.2048
  22   2.0000      -6.032353      -164.1487
  23   2.0000      -6.030697      -164.1036
  24   2.0000      -1.007676       -27.4203
  25   2.0000      -0.984666       -26.7941
  26   2.0000      -0.921696       -25.0806
  27   2.0000      -0.901407       -24.5285
  28   2.0000      -0.873412       -23.7667
  29   2.0000      -0.846316       -23.0294
  30   2.0000      -0.838414       -22.8144
  31   2.0000      -0.815875       -22.2011
  32   2.0000      -0.785927       -21.3861
  33   2.0000      -0.769890       -20.9498
  34   2.0000      -0.711441       -19.3593
  35   2.0000      -0.703761       -19.1503
  36   2.0000      -0.697436       -18.9782
  37   2.0000      -0.657499       -17.8915
  38   2.0000      -0.650007       -17.6876
  39   2.0000      -0.617860       -16.8128
  40   2.0000      -0.600552       -16.3419
  41   2.0000      -0.582976       -15.8636
  42   2.0000      -0.556341       -15.1388
  43   2.0000      -0.550420       -14.9777
  44   2.0000      -0.536090       -14.5878
  45   2.0000      -0.529159       -14.3991
  46   2.0000      -0.518948       -14.1213
  47   2.0000      -0.515761       -14.0346
  48   2.0000      -0.506981       -13.7957
  49   2.0000      -0.497162       -13.5285
  50   2.0000      -0.491092       -13.3633
  51   2.0000      -0.480769       -13.0824
  52   2.0000      -0.473490       -12.8843
  53   2.0000      -0.462140       -12.5755
  54   2.0000      -0.455880       -12.4051
  55   2.0000      -0.445463       -12.1217
  56   2.0000      -0.443369       -12.0647
  57   2.0000      -0.436104       -11.8670
  58   2.0000      -0.430903       -11.7255
  59   2.0000      -0.427243       -11.6259
  60   2.0000      -0.424835       -11.5603
  61   2.0000      -0.412049       -11.2124
  62   2.0000      -0.406865       -11.0714
  63   2.0000      -0.343901        -9.3580
  64   2.0000      -0.332543        -9.0489
  65   2.0000      -0.322150        -8.7662
  66   2.0000      -0.297254        -8.0887
  67   0.0000       0.027875         0.7585
  68   0.0000       0.068272         1.8578
  69   0.0000       0.112057         3.0492
  70   0.0000       0.116450         3.1688
  71   0.0000       0.133337         3.6283

MULLIKEN ATOMIC CHARGES
-----------------------
   0 S :    0.121078
   1 C :   -0.122076
   2 C :   -0.055822
   3 C :    0.057774
   4 C :   -0.171741
   5 H :   -0.025766
   6 C :    0.106067
   7 H :    0.012858
   8 H :    0.023426
   9 C :   -0.099495
  10 H :    0.033354
  11 H :    0.021088
  12 C :   -0.077262
  13 H :    0.052962
  14 H :    0.052406
  15 H :    0.025982
  16 S :    0.110761
  17 C :   -0.065206
  18 C :   -0.012711
  19 C :   -0.034653
  20 C :   -0.165717
  21 H :    0.005104
  22 C :    0.064856
  23 H :    0.040023
  24 H :    0.022814
  25 C :   -0.080858
  26 H :    0.022674
  27 H :    0.034016
  28 C :   -0.095975
  29 H :    0.048089
  30 H :    0.040497
  31 H :    0.049185
  32 H :    0.031489
  33 H :    0.030779
Sum of atomic charges:    0.0000000

LOEWDIN ATOMIC CHARGES
----------------------
   0 S :    0.417651
   1 C :   -0.176998
   2 C :   -0.052865
   3 C :   -0.053067
   4 C :   -0.214501
   5 H :    0.013966
   6 C :   -0.040363
   7 H :    0.030708
   8 H :    0.035956
   9 C :   -0.047772
  10 H :    0.027027
  11 H :    0.025107
  12 C :   -0.079061
  13 H :    0.031737
  14 H :    0.033679
  15 H :    0.029499
  16 S :    0.415664
  17 C :   -0.162111
  18 C :   -0.063228
  19 C :   -0.045841
  20 C :   -0.218811
  21 H :    0.022747
  22 C :   -0.038449
  23 H :    0.035272
  24 H :    0.029181
  25 C :   -0.048420
  26 H :    0.023043
  27 H :    0.026807
  28 C :   -0.076877
  29 H :    0.032805
  30 H :    0.026471
  31 H :    0.030053
  32 H :    0.014889
  33 H :    0.016103

  Mayer bond orders larger than 0.100000
B(  0-S ,  1-C ) :   1.1377 B(  0-S ,  4-C ) :   1.1658 B(  1-C ,  2-C ) :   1.6054
B(  1-C , 32-H ) :   0.9728 B(  2-C ,  3-C ) :   1.2398 B(  2-C ,  6-C ) :   1.0085
B(  3-C ,  4-C ) :   1.5515 B(  3-C ,  5-H ) :   1.0099 B(  4-C , 20-C ) :   1.0346
B(  6-C ,  7-H ) :   0.9427 B(  6-C ,  8-H ) :   0.9260 B(  6-C ,  9-C ) :   1.0558
B(  9-C , 10-H ) :   0.9526 B(  9-C , 11-H ) :   0.9580 B(  9-C , 12-C ) :   1.0712
B( 12-C , 13-H ) :   0.9742 B( 12-C , 14-H ) :   0.9740 B( 12-C , 15-H ) :   0.9745
B( 16-S , 17-C ) :   1.1394 B( 16-S , 20-C ) :   1.1704 B( 17-C , 18-C ) :   1.6236
B( 17-C , 33-H ) :   0.9754 B( 18-C , 19-C ) :   1.2273 B( 18-C , 21-H ) :   0.9947
B( 19-C , 20-C ) :   1.5614 B( 19-C , 22-C ) :   1.0370 B( 22-C , 23-H ) :   0.9324
B( 22-C , 24-H ) :   0.9312 B( 22-C , 25-C ) :   1.0665 B( 25-C , 26-H ) :   0.9544
B( 25-C , 27-H ) :   0.9571 B( 25-C , 28-C ) :   1.0575 B( 28-C , 29-H ) :   0.9761
B( 28-C , 30-H ) :   0.9781 B( 28-C , 31-H ) :   0.9768

Dispersion correction           -0.013800568
FINAL SINGLE POINT ENERGY     -1339.857345954468

DIPOLE MOMENT
-------------
                                X             Y             Z
Electronic contribution:    -16.62026     -16.29308      12.53945
Nuclear contribution   :     17.00242      16.41993     -12.98060
                        -----------------------------------------
Total Dipole Moment    :      0.38217       0.12685      -0.44115
                        -----------------------------------------
Magnitude (a.u.)       :      0.59729
Magnitude (Debye)      :      1.51819

Rotational constants in cm-1:     0.020231     0.007415     0.006109
Rotational constants in MHz :   606.519872   222.290787   183.153558

                             ****ORCA TERMINATED NORMALLY****
TOTAL RUN TIME: 0 days 0 hours 0 minutes 29 seconds 501 msec
