                         Program Version 4.2.1 -  RELEASE  -
|  1> ! wB97X-D3 SP def2-SVP
|  2> %pal
|  3> nprocs 16
|  4> end
|  5>
|  6> * xyz 0 1
|  7> S 	 14.8559 	 9.8357 	 85.3852
|  8> C 	 15.6451 	 10.4102 	 83.9648
|  9> C 	 14.8492 	 11.2093 	 83.1749
| 10> C 	 13.5701 	 11.4337 	 83.7679
| 11> C 	 13.4247 	 10.7127 	 84.9322
| 12> H 	 12.7707 	 11.903 	 83.2942
| 13> C 	 15.2883 	 11.8521 	 81.8841
| 14> H 	 14.6299 	 11.7599 	 81.0229
| 15> H 	 16.2681 	 11.3012 	 81.6871
| 16> C 	 15.6756 	 13.3292 	 81.9714
| 17> H 	 16.5255 	 13.4705 	 82.6119
| 18> H 	 16.0799 	 13.6476 	 80.9696
| 19> C 	 14.5129 	 14.257 	 82.3395
| 20> H 	 14.1914 	 14.2915 	 83.379
| 21> H 	 14.8625 	 15.328 	 82.1096
| 22> H 	 13.5957 	 14.047 	 81.8028
| 23> S 	 12.0566 	 11.6484 	 87.1231
| 24> C 	 10.3943 	 11.0998 	 87.4452
| 25> C 	 9.96976 	 10.1611 	 86.4687
| 26> C 	 10.9395 	 9.98376 	 85.4377
| 27> C 	 12.1673 	 10.63 	 85.7045
| 28> H 	 9.0411 	 9.57671 	 86.5877
| 29> C 	 10.6296 	 8.94265 	 84.3064
| 30> H 	 11.1833 	 9.15017 	 83.4139
| 31> H 	 9.62292 	 9.0124 	 83.9528
| 32> C 	 10.8612 	 7.39605 	 84.7591
| 33> H 	 10.2038 	 7.30164 	 85.6213
| 34> H 	 11.8958 	 7.14657 	 84.8747
| 35> C 	 10.4507 	 6.3448 	 83.6667
| 36> H 	 11.0913 	 6.47182 	 82.8714
| 37> H 	 9.42621 	 6.48371 	 83.3223
| 38> H 	 10.4978 	 5.42789 	 84.1512
| 39> H 	 16.7039 	 10.2421 	 83.6437
| 40> H 	 9.95694 	 11.1546 	 88.4402
| 41> *
| 42>
| 43>                          ****END OF INPUT****

CARTESIAN COORDINATES (ANGSTROEM)
---------------------------------
  S     14.855900    9.835700   85.385200
  C     15.645100   10.410200   83.964800
  C     14.849200   11.209300   83.174900
  C     13.570100   11.433700   83.767900
  C     13.424700   10.712700   84.932200
  H     12.770700   11.903000   83.294200
  C     15.288300   11.852100   81.884100
  H     14.629900   11.759900   81.022900
  H     16.268100   11.301200   81.687100
  C     15.675600   13.329200   81.971400
  H     16.525500   13.470500   82.611900
  H     16.079900   13.647600   80.969600
  C     14.512900   14.257000   82.339500
  H     14.191400   14.291500   83.379000
  H     14.862500   15.328000   82.109600
  H     13.595700   14.047000   81.802800
  S     12.056600   11.648400   87.123100
  C     10.394300   11.099800   87.445200
  C      9.969760   10.161100   86.468700
  C     10.939500    9.983760   85.437700
  C     12.167300   10.630000   85.704500
  H      9.041100    9.576710   86.587700
  C     10.629600    8.942650   84.306400
  H     11.183300    9.150170   83.413900
  H      9.622920    9.012400   83.952800
  C     10.861200    7.396050   84.759100
  H     10.203800    7.301640   85.621300
  H     11.895800    7.146570   84.874700
  C     10.450700    6.344800   83.666700
  H     11.091300    6.471820   82.871400
  H      9.426210    6.483710   83.322300
  H     10.497800    5.427890   84.151200
  H     16.703900   10.242100   83.643700
  H      9.956940   11.154600   88.440200

 Total Charge           Charge          ....    0
 Multiplicity           Mult            ....    1
 Number of Electrons    NEL             ....  134
 Basis Dimension        Dim             ....  322

ORBITAL ENERGIES
----------------

  NO   OCC          E(Eh)            E(eV)
   0   2.0000     -88.971725     -2421.0437
   1   2.0000     -88.966312     -2420.8964
   2   2.0000     -10.329392      -281.0770
   3   2.0000     -10.327234      -281.0183
   4   2.0000     -10.320768      -280.8424
   5   2.0000     -10.314795      -280.6799
   6   2.0000     -10.309685      -280.5408
   7   2.0000     -10.300807      -280.2992
   8   2.0000     -10.297741      -280.2158
   9   2.0000     -10.295453      -280.1535
  10   2.0000     -10.292703      -280.0787
  11   2.0000     -10.288533      -279.9652
  12   2.0000     -10.288376      -279.9609
  13   2.0000     -10.288256      -279.9577
  14   2.0000     -10.280596      -279.7492
  15   2.0000     -10.266801      -279.3738
  16   2.0000      -8.086779      -220.0524
  17   2.0000      -8.080441      -219.8800
  18   2.0000      -6.045237      -164.4993
  19   2.0000      -6.041233      -164.3903
  20   2.0000      -6.038892      -164.3266
  21   2.0000      -6.037583      -164.2910
  22   2.0000      -6.034921      -164.2186
  23   2.0000      -6.031416      -164.1232
  24   2.0000      -1.006497       -27.3882
  25   2.0000      -0.979466       -26.6526
  26   2.0000      -0.911787       -24.8110
  27   2.0000      -0.893223       -24.3058
  28   2.0000      -0.864264       -23.5178
  29   2.0000      -0.849914       -23.1273
  30   2.0000      -0.847078       -23.0502
  31   2.0000      -0.811745       -22.0887
  32   2.0000      -0.781799       -21.2738
  33   2.0000      -0.768335       -20.9075
  34   2.0000      -0.700663       -19.0660
  35   2.0000      -0.697745       -18.9866
  36   2.0000      -0.691083       -18.8053
  37   2.0000      -0.659380       -17.9426
  38   2.0000      -0.643010       -17.4972
  39   2.0000      -0.615024       -16.7357
  40   2.0000      -0.591670       -16.1002
  41   2.0000      -0.575209       -15.6522
  42   2.0000      -0.566836       -15.4244
  43   2.0000      -0.541477       -14.7343
  44   2.0000      -0.537939       -14.6381
  45   2.0000      -0.528215       -14.3735
  46   2.0000      -0.512331       -13.9412
  47   2.0000      -0.510240       -13.8843
  48   2.0000      -0.500174       -13.6104
  49   2.0000      -0.493576       -13.4309
  50   2.0000      -0.489401       -13.3173
  51   2.0000      -0.477001       -12.9799
  52   2.0000      -0.471785       -12.8379
  53   2.0000      -0.464763       -12.6469
  54   2.0000      -0.461203       -12.5500
  55   2.0000      -0.446639       -12.1537
  56   2.0000      -0.439850       -11.9689
  57   2.0000      -0.437837       -11.9142
  58   2.0000      -0.431149       -11.7322
  59   2.0000      -0.422825       -11.5056
  60   2.0000      -0.419704       -11.4207
  61   2.0000      -0.416008       -11.3201
  62   2.0000      -0.414546       -11.2804
  63   2.0000      -0.339641        -9.2421
  64   2.0000      -0.330601        -8.9961
  65   2.0000      -0.319746        -8.7007
  66   2.0000      -0.306768        -8.3476
  67   0.0000       0.037147         1.0108
  68   0.0000       0.057725         1.5708
  69   0.0000       0.115428         3.1409
  70   0.0000       0.119082         3.2404
  71   0.0000       0.121703         3.3117

MULLIKEN ATOMIC CHARGES
-----------------------
   0 S :    0.140075
   1 C :   -0.124858
   2 C :   -0.099570
   3 C :    0.089484
   4 C :   -0.177217
   5 H :   -0.007998
   6 C :    0.040473
   7 H :    0.037181
   8 H :    0.020086
   9 C :   -0.050411
  10 H :    0.019786
  11 H :    0.032153
  12 C :   -0.082630
  13 H :    0.046234
  14 H :    0.041893
  15 H :    0.025059
  16 S :    0.107755
  17 C :   -0.106220
  18 C :   -0.056424
  19 C :   -0.004965
  20 C :   -0.186550
  21 H :    0.039970
  22 C :    0.073393
  23 H :    0.011172
  24 H :    0.011557
  25 C :   -0.094639
  26 H :    0.028880
  27 H :    0.038645
  28 C :   -0.007361
  29 H :    0.022478
  30 H :    0.019457
  31 H :    0.027500
  32 H :    0.055185
  33 H :    0.070428
Sum of atomic charges:   -0.0000000

LOEWDIN ATOMIC CHARGES
----------------------
   0 S :    0.429664
   1 C :   -0.214540
   2 C :   -0.066736
   3 C :   -0.045837
   4 C :   -0.204950
   5 H :    0.023562
   6 C :   -0.036868
   7 H :    0.029818
   8 H :    0.036825
   9 C :   -0.041096
  10 H :    0.020466
  11 H :    0.029403
  12 C :   -0.076243
  13 H :    0.026280
  14 H :    0.036530
  15 H :    0.019989
  16 S :    0.404320
  17 C :   -0.190215
  18 C :   -0.068373
  19 C :   -0.055023
  20 C :   -0.204761
  21 H :    0.037721
  22 C :   -0.028957
  23 H :    0.021643
  24 H :    0.024017
  25 C :   -0.023887
  26 H :    0.019757
  27 H :    0.023651
  28 C :   -0.050649
  29 H :    0.014675
  30 H :    0.021562
  31 H :    0.020794
  32 H :    0.037502
  33 H :    0.029954

  Mayer bond orders larger than 0.100000
B(  0-S ,  1-C ) :   1.1406 B(  0-S ,  4-C ) :   1.1644 B(  1-C ,  2-C ) :   1.6354
B(  1-C , 32-H ) :   0.9507 B(  2-C ,  3-C ) :   1.2363 B(  2-C ,  6-C ) :   1.0257
B(  3-C ,  4-C ) :   1.5830 B(  3-C ,  5-H ) :   1.0017 B(  4-C , 20-C ) :   0.9911
B(  6-C ,  7-H ) :   0.9454 B(  6-C ,  8-H ) :   0.9335 B(  6-C ,  9-C ) :   1.0819
B(  9-C , 10-H ) :   0.9512 B(  9-C , 11-H ) :   0.9554 B(  9-C , 12-C ) :   1.0761
B( 12-C , 13-H ) :   0.9708 B( 12-C , 14-H ) :   0.9727 B( 12-C , 15-H ) :   0.9741
B( 16-S , 17-C ) :   1.1589 B( 16-S , 20-C ) :   1.1675 B( 17-C , 18-C ) :   1.5930
B( 17-C , 20-C ) :   0.1141 B( 17-C , 33-H ) :   0.9621 B( 18-C , 19-C ) :   1.2563
B( 18-C , 21-H ) :   0.9803 B( 19-C , 20-C ) :   1.5835 B( 19-C , 22-C ) :   1.0476
B( 22-C , 23-H ) :   0.9380 B( 22-C , 24-H ) :   0.9402 B( 22-C , 25-C ) :   1.0518
B( 25-C , 26-H ) :   0.9623 B( 25-C , 27-H ) :   0.9629 B( 25-C , 28-C ) :   1.0744
B( 28-C , 29-H ) :   0.9802 B( 28-C , 30-H ) :   0.9757 B( 28-C , 31-H ) :   0.9755

Dispersion correction           -0.014319919
FINAL SINGLE POINT ENERGY     -1339.867690732020

DIPOLE MOMENT
-------------
                                X             Y             Z
Electronic contribution:      3.71905       2.59581      19.65495
Nuclear contribution   :     -3.81570      -2.78979     -20.10561
                        -----------------------------------------
Total Dipole Moment    :     -0.09664      -0.19398      -0.45066
                        -----------------------------------------
Magnitude (a.u.)       :      0.50007
Magnitude (Debye)      :      1.27107

Rotational constants in cm-1:     0.017789     0.008429     0.007152
Rotational constants in MHz :   533.295454   252.689345   214.408628

                             ****ORCA TERMINATED NORMALLY****
TOTAL RUN TIME: 0 days 0 hours 0 minutes 33 seconds 940 msec
