                         Program Version 4.2.1 -  RELEASE  -
|  1> ! wB97X-D3 SP def2-SVP
|  2> %pal
|  3> nprocs 16
|  4> end
|  5>
|  6> * xyz 0 1
|  7> S 	 -71.874 	 39.5003 	 117.46
|  8> C 	 -70.4346 	 39.0435 	 116.638
|  9> C 	 -70.1993 	 37.6936 	 116.77
| 10> C 	 -71.1379 	 37.0812 	 117.63
| 11> C 	 -72.21 	 37.8529 	 117.997
| 12> H 	 -71.1485 	 36.0462 	 117.955
| 13> C 	 -68.9451 	 36.9913 	 116.225
| 14> H 	 -68.1063 	 37.5403 	 116.665
| 15> H 	 -68.7409 	 37.2859 	 115.213
| 16> C 	 -68.712 	 35.4781 	 116.318
| 17> H 	 -67.6382 	 35.3064 	 116.132
| 18> H 	 -68.8906 	 35.12 	 117.326
| 19> C 	 -69.5916 	 34.7125 	 115.32
| 20> H 	 -69.6507 	 35.1787 	 114.317
| 21> H 	 -69.3809 	 33.6879 	 115.363
| 22> H 	 -70.5839 	 34.5963 	 115.652
| 23> S 	 -74.8645 	 37.9644 	 118.599
| 24> C 	 -75.4275 	 37.1767 	 120.07
| 25> C 	 -74.3913 	 36.4862 	 120.73
| 26> C 	 -73.0961 	 36.6577 	 120.088
| 27> C 	 -73.1997 	 37.4962 	 118.938
| 28> H 	 -74.5834 	 35.9543 	 121.644
| 29> C 	 -71.7946 	 36.141 	 120.758
| 30> H 	 -71.7323 	 36.4936 	 121.716
| 31> H 	 -71.0111 	 36.639 	 120.287
| 32> C 	 -71.4351 	 34.6523 	 120.692
| 33> H 	 -71.0032 	 34.2863 	 119.708
| 34> H 	 -72.3061 	 33.9887 	 120.988
| 35> C 	 -70.2863 	 34.3246 	 121.638
| 36> H 	 -69.2857 	 34.6131 	 121.222
| 37> H 	 -70.121 	 33.221 	 121.589
| 38> H 	 -70.388 	 34.725 	 122.64
| 39> H 	 -69.6439 	 39.6284 	 116.11
| 40> H 	 -76.4042 	 37.3462 	 120.561
| 41> *
| 42>
| 43>                          ****END OF INPUT****

CARTESIAN COORDINATES (ANGSTROEM)
---------------------------------
  S    -71.874000   39.500300  117.460000
  C    -70.434600   39.043500  116.638000
  C    -70.199300   37.693600  116.770000
  C    -71.137900   37.081200  117.630000
  C    -72.210000   37.852900  117.997000
  H    -71.148500   36.046200  117.955000
  C    -68.945100   36.991300  116.225000
  H    -68.106300   37.540300  116.665000
  H    -68.740900   37.285900  115.213000
  C    -68.712000   35.478100  116.318000
  H    -67.638200   35.306400  116.132000
  H    -68.890600   35.120000  117.326000
  C    -69.591600   34.712500  115.320000
  H    -69.650700   35.178700  114.317000
  H    -69.380900   33.687900  115.363000
  H    -70.583900   34.596300  115.652000
  S    -74.864500   37.964400  118.599000
  C    -75.427500   37.176700  120.070000
  C    -74.391300   36.486200  120.730000
  C    -73.096100   36.657700  120.088000
  C    -73.199700   37.496200  118.938000
  H    -74.583400   35.954300  121.644000
  C    -71.794600   36.141000  120.758000
  H    -71.732300   36.493600  121.716000
  H    -71.011100   36.639000  120.287000
  C    -71.435100   34.652300  120.692000
  H    -71.003200   34.286300  119.708000
  H    -72.306100   33.988700  120.988000
  C    -70.286300   34.324600  121.638000
  H    -69.285700   34.613100  121.222000
  H    -70.121000   33.221000  121.589000
  H    -70.388000   34.725000  122.640000
  H    -69.643900   39.628400  116.110000
  H    -76.404200   37.346200  120.561000

 Total Charge           Charge          ....    0
 Multiplicity           Mult            ....    1
 Number of Electrons    NEL             ....  134
 Basis Dimension        Dim             ....  322

ORBITAL ENERGIES
----------------

  NO   OCC          E(Eh)            E(eV)
   0   2.0000     -88.968162     -2420.9468
   1   2.0000     -88.967576     -2420.9308
   2   2.0000     -10.329704      -281.0855
   3   2.0000     -10.323135      -280.9068
   4   2.0000     -10.321856      -280.8720
   5   2.0000     -10.313535      -280.6456
   6   2.0000     -10.312729      -280.6236
   7   2.0000     -10.299968      -280.2764
   8   2.0000     -10.298883      -280.2469
   9   2.0000     -10.298257      -280.2298
  10   2.0000     -10.292745      -280.0798
  11   2.0000     -10.291604      -280.0488
  12   2.0000     -10.290136      -280.0088
  13   2.0000     -10.284122      -279.8452
  14   2.0000     -10.283990      -279.8416
  15   2.0000     -10.270665      -279.4790
  16   2.0000      -8.082347      -219.9318
  17   2.0000      -8.082238      -219.9289
  18   2.0000      -6.040890      -164.3810
  19   2.0000      -6.040796      -164.3784
  20   2.0000      -6.036906      -164.2726
  21   2.0000      -6.036678      -164.2663
  22   2.0000      -6.033141      -164.1701
  23   2.0000      -6.033003      -164.1663
  24   2.0000      -1.008306       -27.4374
  25   2.0000      -0.979022       -26.6406
  26   2.0000      -0.911654       -24.8074
  27   2.0000      -0.910146       -24.7663
  28   2.0000      -0.874954       -23.8087
  29   2.0000      -0.852277       -23.1916
  30   2.0000      -0.844854       -22.9896
  31   2.0000      -0.814874       -22.1739
  32   2.0000      -0.788805       -21.4645
  33   2.0000      -0.773808       -21.0564
  34   2.0000      -0.713456       -19.4141
  35   2.0000      -0.696677       -18.9575
  36   2.0000      -0.691836       -18.8258
  37   2.0000      -0.660866       -17.9831
  38   2.0000      -0.637731       -17.3536
  39   2.0000      -0.623355       -16.9623
  40   2.0000      -0.594690       -16.1823
  41   2.0000      -0.571931       -15.5630
  42   2.0000      -0.569561       -15.4985
  43   2.0000      -0.551895       -15.0178
  44   2.0000      -0.532783       -14.4978
  45   2.0000      -0.527492       -14.3538
  46   2.0000      -0.516271       -14.0484
  47   2.0000      -0.511480       -13.9181
  48   2.0000      -0.509561       -13.8659
  49   2.0000      -0.501780       -13.6541
  50   2.0000      -0.486911       -13.2495
  51   2.0000      -0.484268       -13.1776
  52   2.0000      -0.473948       -12.8968
  53   2.0000      -0.462567       -12.5871
  54   2.0000      -0.458844       -12.4858
  55   2.0000      -0.447928       -12.1887
  56   2.0000      -0.442156       -12.0317
  57   2.0000      -0.438129       -11.9221
  58   2.0000      -0.434038       -11.8108
  59   2.0000      -0.430587       -11.7169
  60   2.0000      -0.423346       -11.5198
  61   2.0000      -0.415425       -11.3043
  62   2.0000      -0.410324       -11.1655
  63   2.0000      -0.349735        -9.5168
  64   2.0000      -0.331933        -9.0324
  65   2.0000      -0.329864        -8.9761
  66   2.0000      -0.284978        -7.7546
  67   0.0000       0.022638         0.6160
  68   0.0000       0.072249         1.9660
  69   0.0000       0.112720         3.0673
  70   0.0000       0.114018         3.1026
  71   0.0000       0.121509         3.3064

MULLIKEN ATOMIC CHARGES
-----------------------
   0 S :    0.120432
   1 C :   -0.126391
   2 C :   -0.059399
   3 C :   -0.018675
   4 C :   -0.113534
   5 H :    0.001789
   6 C :    0.037380
   7 H :    0.026130
   8 H :    0.009498
   9 C :   -0.045938
  10 H :    0.032843
  11 H :    0.020053
  12 C :   -0.012795
  13 H :    0.043301
  14 H :    0.013678
  15 H :    0.010832
  16 S :    0.112230
  17 C :   -0.108212
  18 C :   -0.031789
  19 C :   -0.034097
  20 C :   -0.165527
  21 H :    0.018227
  22 C :    0.127341
  23 H :    0.004292
  24 H :    0.000019
  25 C :   -0.102319
  26 H :    0.042087
  27 H :    0.043386
  28 C :   -0.078588
  29 H :    0.028397
  30 H :    0.035225
  31 H :    0.040027
  32 H :    0.056052
  33 H :    0.074048
Sum of atomic charges:    0.0000000

LOEWDIN ATOMIC CHARGES
----------------------
   0 S :    0.418416
   1 C :   -0.215648
   2 C :   -0.066485
   3 C :   -0.061908
   4 C :   -0.201147
   5 H :    0.029178
   6 C :   -0.041233
   7 H :    0.035228
   8 H :    0.027515
   9 C :   -0.036910
  10 H :    0.031215
  11 H :    0.020573
  12 C :   -0.066910
  13 H :    0.032794
  14 H :    0.022361
  15 H :    0.022921
  16 S :    0.402231
  17 C :   -0.195035
  18 C :   -0.065562
  19 C :   -0.045853
  20 C :   -0.196203
  21 H :    0.029466
  22 C :   -0.025896
  23 H :    0.021787
  24 H :    0.025770
  25 C :   -0.045038
  26 H :    0.030133
  27 H :    0.028140
  28 C :   -0.074339
  29 H :    0.026754
  30 H :    0.032321
  31 H :    0.020804
  32 H :    0.043294
  33 H :    0.037265

  Mayer bond orders larger than 0.100000
B(  0-S ,  1-C ) :   1.1499 B(  0-S ,  4-C ) :   1.1352 B(  1-C ,  2-C ) :   1.5997
B(  1-C , 32-H ) :   0.9623 B(  2-C ,  3-C ) :   1.2640 B(  2-C ,  6-C ) :   0.9989
B(  3-C ,  4-C ) :   1.5593 B(  3-C ,  5-H ) :   0.9940 B(  4-C , 20-C ) :   1.0759
B(  6-C ,  7-H ) :   0.9345 B(  6-C ,  8-H ) :   0.9342 B(  6-C ,  9-C ) :   1.0891
B(  9-C , 10-H ) :   0.9510 B(  9-C , 11-H ) :   0.9484 B(  9-C , 12-C ) :   1.0811
B( 12-C , 13-H ) :   0.9757 B( 12-C , 14-H ) :   0.9665 B( 12-C , 15-H ) :   0.9677
B( 16-S , 17-C ) :   1.1475 B( 16-S , 20-C ) :   1.1400 B( 17-C , 18-C ) :   1.6065
B( 17-C , 20-C ) :   0.1037 B( 17-C , 33-H ) :   0.9619 B( 18-C , 19-C ) :   1.2436
B( 18-C , 21-H ) :   0.9894 B( 19-C , 20-C ) :   1.5679 B( 19-C , 22-C ) :   1.0291
B( 22-C , 23-H ) :   0.9377 B( 22-C , 24-H ) :   0.9230 B( 22-C , 25-C ) :   1.0583
B( 25-C , 26-H ) :   0.9498 B( 25-C , 27-H ) :   0.9590 B( 25-C , 28-C ) :   1.0795
B( 28-C , 29-H ) :   0.9743 B( 28-C , 30-H ) :   0.9716 B( 28-C , 31-H ) :   0.9748

Dispersion correction           -0.014396078
FINAL SINGLE POINT ENERGY     -1339.860168756735

DIPOLE MOMENT
-------------
                                X             Y             Z
Electronic contribution:    -21.67908      23.25235      -2.91768
Nuclear contribution   :     22.30969     -23.73954       3.21673
                        -----------------------------------------
Total Dipole Moment    :      0.63061      -0.48719       0.29905
                        -----------------------------------------
Magnitude (a.u.)       :      0.85115
Magnitude (Debye)      :      2.16345

Rotational constants in cm-1:     0.015423     0.010324     0.007169
Rotational constants in MHz :   462.360768   309.514197   214.928383

                             ****ORCA TERMINATED NORMALLY****
TOTAL RUN TIME: 0 days 0 hours 0 minutes 32 seconds 432 msec
