                         Program Version 4.2.1 -  RELEASE  -
|  1> ! wB97X-D3 SP def2-SVP
|  2> %pal
|  3> nprocs 16
|  4> end
|  5>
|  6> * xyz 0 1
|  7> S 	 -52.7096 	 25.1188 	 94.2744
|  8> C 	 -52.1827 	 26.7204 	 94.75
|  9> C 	 -52.9005 	 27.7198 	 94.1404
| 10> C 	 -53.8577 	 27.1801 	 93.2152
| 11> C 	 -54.0019 	 25.8179 	 93.1968
| 12> H 	 -54.4758 	 27.7407 	 92.5001
| 13> C 	 -52.6193 	 29.2176 	 94.3619
| 14> H 	 -52.7192 	 29.788 	 93.4177
| 15> H 	 -51.525 	 29.2684 	 94.4962
| 16> C 	 -53.5073 	 29.7737 	 95.566
| 17> H 	 -54.5722 	 29.6809 	 95.3183
| 18> H 	 -53.3329 	 29.1152 	 96.4146
| 19> C 	 -53.1277 	 31.2101 	 95.905
| 20> H 	 -52.2672 	 31.5525 	 95.3036
| 21> H 	 -53.9253 	 31.932 	 95.7301
| 22> H 	 -52.8702 	 31.3792 	 96.9299
| 23> S 	 -54.2944 	 23.577 	 91.5388
| 24> C 	 -55.8383 	 23.2908 	 90.7676
| 25> C 	 -56.7272 	 24.3557 	 91.0042
| 26> C 	 -56.2382 	 25.2325 	 92.0079
| 27> C 	 -54.9432 	 25.0095 	 92.3425
| 28> H 	 -57.7933 	 24.3285 	 90.5888
| 29> C 	 -57.0965 	 26.2933 	 92.5985
| 30> H 	 -56.7113 	 27.2681 	 92.1938
| 31> H 	 -56.796 	 26.3331 	 93.7304
| 32> C 	 -58.6163 	 26.189 	 92.5106
| 33> H 	 -59.0466 	 25.274 	 92.8994
| 34> H 	 -58.9733 	 26.0225 	 91.477
| 35> C 	 -59.4769 	 27.2909 	 93.1936
| 36> H 	 -59.3014 	 27.2566 	 94.3053
| 37> H 	 -60.4997 	 27.0629 	 92.9533
| 38> H 	 -59.4285 	 28.2795 	 92.8119
| 39> H 	 -51.5505 	 26.997 	 95.611
| 40> H 	 -56.001 	 22.5583 	 90.1099
| 41> *
| 42>
| 43>                          ****END OF INPUT****

CARTESIAN COORDINATES (ANGSTROEM)
---------------------------------
  S    -52.709600   25.118800   94.274400
  C    -52.182700   26.720400   94.750000
  C    -52.900500   27.719800   94.140400
  C    -53.857700   27.180100   93.215200
  C    -54.001900   25.817900   93.196800
  H    -54.475800   27.740700   92.500100
  C    -52.619300   29.217600   94.361900
  H    -52.719200   29.788000   93.417700
  H    -51.525000   29.268400   94.496200
  C    -53.507300   29.773700   95.566000
  H    -54.572200   29.680900   95.318300
  H    -53.332900   29.115200   96.414600
  C    -53.127700   31.210100   95.905000
  H    -52.267200   31.552500   95.303600
  H    -53.925300   31.932000   95.730100
  H    -52.870200   31.379200   96.929900
  S    -54.294400   23.577000   91.538800
  C    -55.838300   23.290800   90.767600
  C    -56.727200   24.355700   91.004200
  C    -56.238200   25.232500   92.007900
  C    -54.943200   25.009500   92.342500
  H    -57.793300   24.328500   90.588800
  C    -57.096500   26.293300   92.598500
  H    -56.711300   27.268100   92.193800
  H    -56.796000   26.333100   93.730400
  C    -58.616300   26.189000   92.510600
  H    -59.046600   25.274000   92.899400
  H    -58.973300   26.022500   91.477000
  C    -59.476900   27.290900   93.193600
  H    -59.301400   27.256600   94.305300
  H    -60.499700   27.062900   92.953300
  H    -59.428500   28.279500   92.811900
  H    -51.550500   26.997000   95.611000
  H    -56.001000   22.558300   90.109900

 Total Charge           Charge          ....    0
 Multiplicity           Mult            ....    1
 Number of Electrons    NEL             ....  134
 Basis Dimension        Dim             ....  322

ORBITAL ENERGIES
----------------

  NO   OCC          E(Eh)            E(eV)
   0   2.0000     -88.966483     -2420.9011
   1   2.0000     -88.965601     -2420.8771
   2   2.0000     -10.336911      -281.2817
   3   2.0000     -10.328217      -281.0451
   4   2.0000     -10.315315      -280.6940
   5   2.0000     -10.313616      -280.6478
   6   2.0000     -10.301818      -280.3267
   7   2.0000     -10.301776      -280.3256
   8   2.0000     -10.301584      -280.3203
   9   2.0000     -10.301299      -280.3126
  10   2.0000     -10.300563      -280.2926
  11   2.0000     -10.296237      -280.1749
  12   2.0000     -10.293797      -280.1084
  13   2.0000     -10.291965      -280.0586
  14   2.0000     -10.281780      -279.7815
  15   2.0000     -10.276507      -279.6380
  16   2.0000      -8.081022      -219.8958
  17   2.0000      -8.079127      -219.8442
  18   2.0000      -6.039490      -164.3429
  19   2.0000      -6.037837      -164.2979
  20   2.0000      -6.035563      -164.2360
  21   2.0000      -6.033853      -164.1895
  22   2.0000      -6.031832      -164.1345
  23   2.0000      -6.029698      -164.0764
  24   2.0000      -1.003118       -27.2962
  25   2.0000      -0.981672       -26.7127
  26   2.0000      -0.907989       -24.7076
  27   2.0000      -0.902454       -24.5570
  28   2.0000      -0.866953       -23.5910
  29   2.0000      -0.854358       -23.2483
  30   2.0000      -0.842739       -22.9321
  31   2.0000      -0.816108       -22.2074
  32   2.0000      -0.781929       -21.2774
  33   2.0000      -0.769568       -20.9410
  34   2.0000      -0.710713       -19.3395
  35   2.0000      -0.705507       -19.1978
  36   2.0000      -0.700288       -19.0558
  37   2.0000      -0.656840       -17.8735
  38   2.0000      -0.638259       -17.3679
  39   2.0000      -0.613610       -16.6972
  40   2.0000      -0.599567       -16.3151
  41   2.0000      -0.566829       -15.4242
  42   2.0000      -0.558994       -15.2110
  43   2.0000      -0.551408       -15.0046
  44   2.0000      -0.532437       -14.4884
  45   2.0000      -0.524582       -14.2746
  46   2.0000      -0.516114       -14.0442
  47   2.0000      -0.513790       -13.9809
  48   2.0000      -0.501695       -13.6518
  49   2.0000      -0.498310       -13.5597
  50   2.0000      -0.491774       -13.3819
  51   2.0000      -0.474358       -12.9079
  52   2.0000      -0.470702       -12.8085
  53   2.0000      -0.461954       -12.5704
  54   2.0000      -0.457667       -12.4538
  55   2.0000      -0.452837       -12.3223
  56   2.0000      -0.447434       -12.1753
  57   2.0000      -0.438030       -11.9194
  58   2.0000      -0.430923       -11.7260
  59   2.0000      -0.424423       -11.5491
  60   2.0000      -0.418600       -11.3907
  61   2.0000      -0.418156       -11.3786
  62   2.0000      -0.412316       -11.2197
  63   2.0000      -0.351583        -9.5671
  64   2.0000      -0.331858        -9.0303
  65   2.0000      -0.328881        -8.9493
  66   2.0000      -0.290293        -7.8993
  67   0.0000       0.026021         0.7081
  68   0.0000       0.070909         1.9295
  69   0.0000       0.104807         2.8519
  70   0.0000       0.126377         3.4389
  71   0.0000       0.134168         3.6509

MULLIKEN ATOMIC CHARGES
-----------------------
   0 S :    0.094745
   1 C :   -0.108458
   2 C :   -0.111321
   3 C :    0.015354
   4 C :   -0.141024
   5 H :    0.016580
   6 C :    0.023786
   7 H :    0.034574
   8 H :    0.031995
   9 C :   -0.060951
  10 H :    0.039802
  11 H :    0.030585
  12 C :   -0.031318
  13 H :    0.031441
  14 H :    0.030187
  15 H :    0.026333
  16 S :    0.104368
  17 C :   -0.038650
  18 C :   -0.072560
  19 C :   -0.042401
  20 C :   -0.138286
  21 H :    0.051235
  22 C :    0.036455
  23 H :    0.044010
  24 H :    0.053590
  25 C :   -0.092937
  26 H :    0.022360
  27 H :    0.018758
  28 C :   -0.031572
  29 H :    0.048409
  30 H :    0.021742
  31 H :    0.024552
  32 H :    0.059363
  33 H :    0.009253
Sum of atomic charges:    0.0000000

LOEWDIN ATOMIC CHARGES
----------------------
   0 S :    0.367073
   1 C :   -0.198337
   2 C :   -0.068971
   3 C :   -0.064746
   4 C :   -0.170196
   5 H :    0.033189
   6 C :   -0.034041
   7 H :    0.031960
   8 H :    0.031872
   9 C :   -0.036561
  10 H :    0.029243
  11 H :    0.025020
  12 C :   -0.071949
  13 H :    0.028592
  14 H :    0.027364
  15 H :    0.023839
  16 S :    0.402678
  17 C :   -0.159677
  18 C :   -0.076002
  19 C :   -0.066287
  20 C :   -0.192593
  21 H :    0.045291
  22 C :   -0.043804
  23 H :    0.036393
  24 H :    0.048111
  25 C :   -0.051800
  26 H :    0.026720
  27 H :    0.021535
  28 C :   -0.061537
  29 H :    0.033673
  30 H :    0.027692
  31 H :    0.018055
  32 H :    0.037824
  33 H :    0.000375

  Mayer bond orders larger than 0.100000
B(  0-S ,  1-C ) :   1.1302 B(  0-S ,  4-C ) :   1.1178 B(  1-C ,  2-C ) :   1.6526
B(  1-C , 32-H ) :   0.9522 B(  2-C ,  3-C ) :   1.2234 B(  2-C ,  6-C ) :   1.0122
B(  3-C ,  4-C ) :   1.6104 B(  3-C ,  5-H ) :   0.9859 B(  4-C , 20-C ) :   1.0283
B(  6-C ,  7-H ) :   0.9469 B(  6-C ,  8-H ) :   0.9494 B(  6-C ,  9-C ) :   1.0435
B(  9-C , 10-H ) :   0.9634 B(  9-C , 11-H ) :   0.9650 B(  9-C , 12-C ) :   1.0611
B( 12-C , 13-H ) :   0.9780 B( 12-C , 14-H ) :   0.9761 B( 12-C , 15-H ) :   0.9766
B( 16-S , 17-C ) :   1.1672 B( 16-S , 20-C ) :   1.1281 B( 17-C , 18-C ) :   1.5978
B( 17-C , 33-H ) :   0.9805 B( 18-C , 19-C ) :   1.2484 B( 18-C , 21-H ) :   0.9697
B( 19-C , 20-C ) :   1.6242 B( 19-C , 22-C ) :   1.0361 B( 22-C , 23-H ) :   0.9245
B( 22-C , 24-H ) :   0.9346 B( 22-C , 25-C ) :   1.0627 B( 25-C , 26-H ) :   0.9540
B( 25-C , 27-H ) :   0.9430 B( 25-C , 28-C ) :   1.0898 B( 28-C , 29-H ) :   0.9755
B( 28-C , 30-H ) :   0.9699 B( 28-C , 31-H ) :   0.9757

Dispersion correction           -0.013404917
FINAL SINGLE POINT ENERGY     -1339.865241605027

DIPOLE MOMENT
-------------
                                X             Y             Z
Electronic contribution:     15.37522     -26.88470      -8.64805
Nuclear contribution   :    -15.88864      27.54569       8.66809
                        -----------------------------------------
Total Dipole Moment    :     -0.51342       0.66099       0.02004
                        -----------------------------------------
Magnitude (a.u.)       :      0.83721
Magnitude (Debye)      :      2.12801

Rotational constants in cm-1:     0.016634     0.008406     0.005909
Rotational constants in MHz :   498.661759   252.015612   177.147656

                             ****ORCA TERMINATED NORMALLY****
TOTAL RUN TIME: 0 days 0 hours 0 minutes 28 seconds 960 msec
