                         Program Version 4.2.1 -  RELEASE  -
|  1> ! wB97X-D3 SP def2-SVP
|  2> %pal
|  3> nprocs 16
|  4> end
|  5>
|  6> * xyz 0 1
|  7> S 	 -101.019 	 51.9691 	 123.777
|  8> C 	 -99.7088 	 50.8291 	 123.75
|  9> C 	 -99.8944 	 49.748 	 124.578
| 10> C 	 -101.256 	 49.8151 	 125.125
| 11> C 	 -101.966 	 50.9724 	 124.905
| 12> H 	 -101.805 	 49.1646 	 125.782
| 13> C 	 -98.8758 	 48.6861 	 124.908
| 14> H 	 -98.4822 	 48.1635 	 124.001
| 15> H 	 -99.3467 	 47.8316 	 125.386
| 16> C 	 -97.7188 	 49.1014 	 125.836
| 17> H 	 -97.2428 	 49.9428 	 125.336
| 18> H 	 -98.1192 	 49.4405 	 126.805
| 19> C 	 -96.6474 	 48.0182 	 125.955
| 20> H 	 -95.8497 	 48.3784 	 126.637
| 21> H 	 -97.1801 	 47.0777 	 126.336
| 22> H 	 -96.1755 	 47.8375 	 124.958
| 23> S 	 -104.345 	 51.8874 	 123.993
| 24> C 	 -105.715 	 51.9178 	 125.045
| 25> C 	 -105.346 	 51.5566 	 126.344
| 26> C 	 -104 	 51.1879 	 126.493
| 27> C 	 -103.318 	 51.2964 	 125.284
| 28> H 	 -106.001 	 51.5127 	 127.244
| 29> C 	 -103.282 	 50.8944 	 127.771
| 30> H 	 -103.4 	 51.6873 	 128.46
| 31> H 	 -102.177 	 50.8504 	 127.59
| 32> C 	 -103.791 	 49.6033 	 128.375
| 33> H 	 -103.613 	 48.8213 	 127.64
| 34> H 	 -104.871 	 49.5473 	 128.756
| 35> C 	 -102.908 	 49.2037 	 129.622
| 36> H 	 -103.321 	 48.3153 	 130.073
| 37> H 	 -103.073 	 49.9124 	 130.418
| 38> H 	 -101.833 	 49.202 	 129.326
| 39> H 	 -98.8186 	 51.039 	 123.194
| 40> H 	 -106.643 	 52.2483 	 124.693
| 41> *
| 42>
| 43>                          ****END OF INPUT****

CARTESIAN COORDINATES (ANGSTROEM)
---------------------------------
  S    -101.019000   51.969100  123.777000
  C    -99.708800   50.829100  123.750000
  C    -99.894400   49.748000  124.578000
  C    -101.256000   49.815100  125.125000
  C    -101.966000   50.972400  124.905000
  H    -101.805000   49.164600  125.782000
  C    -98.875800   48.686100  124.908000
  H    -98.482200   48.163500  124.001000
  H    -99.346700   47.831600  125.386000
  C    -97.718800   49.101400  125.836000
  H    -97.242800   49.942800  125.336000
  H    -98.119200   49.440500  126.805000
  C    -96.647400   48.018200  125.955000
  H    -95.849700   48.378400  126.637000
  H    -97.180100   47.077700  126.336000
  H    -96.175500   47.837500  124.958000
  S    -104.345000   51.887400  123.993000
  C    -105.715000   51.917800  125.045000
  C    -105.346000   51.556600  126.344000
  C    -104.000000   51.187900  126.493000
  C    -103.318000   51.296400  125.284000
  H    -106.001000   51.512700  127.244000
  C    -103.282000   50.894400  127.771000
  H    -103.400000   51.687300  128.460000
  H    -102.177000   50.850400  127.590000
  C    -103.791000   49.603300  128.375000
  H    -103.613000   48.821300  127.640000
  H    -104.871000   49.547300  128.756000
  C    -102.908000   49.203700  129.622000
  H    -103.321000   48.315300  130.073000
  H    -103.073000   49.912400  130.418000
  H    -101.833000   49.202000  129.326000
  H    -98.818600   51.039000  123.194000
  H    -106.643000   52.248300  124.693000

 Total Charge           Charge          ....    0
 Multiplicity           Mult            ....    1
 Number of Electrons    NEL             ....  134
 Basis Dimension        Dim             ....  322

ORBITAL ENERGIES
----------------

  NO   OCC          E(Eh)            E(eV)
   0   2.0000     -88.966241     -2420.8945
   1   2.0000     -88.962071     -2420.7810
   2   2.0000     -10.327387      -281.0225
   3   2.0000     -10.324203      -280.9358
   4   2.0000     -10.317657      -280.7577
   5   2.0000     -10.313623      -280.6479
   6   2.0000     -10.307854      -280.4910
   7   2.0000     -10.299672      -280.2683
   8   2.0000     -10.298538      -280.2375
   9   2.0000     -10.295519      -280.1553
  10   2.0000     -10.294610      -280.1306
  11   2.0000     -10.293603      -280.1032
  12   2.0000     -10.291178      -280.0372
  13   2.0000     -10.290339      -280.0144
  14   2.0000     -10.288076      -279.9528
  15   2.0000     -10.279729      -279.7256
  16   2.0000      -8.081486      -219.9084
  17   2.0000      -8.076916      -219.7841
  18   2.0000      -6.039846      -164.3526
  19   2.0000      -6.035852      -164.2439
  20   2.0000      -6.035479      -164.2337
  21   2.0000      -6.032444      -164.1512
  22   2.0000      -6.031358      -164.1216
  23   2.0000      -6.027671      -164.0213
  24   2.0000      -1.008999       -27.4562
  25   2.0000      -0.984223       -26.7821
  26   2.0000      -0.915094       -24.9010
  27   2.0000      -0.911912       -24.8144
  28   2.0000      -0.872656       -23.7462
  29   2.0000      -0.853603       -23.2277
  30   2.0000      -0.843689       -22.9579
  31   2.0000      -0.813339       -22.1321
  32   2.0000      -0.782642       -21.2968
  33   2.0000      -0.770430       -20.9645
  34   2.0000      -0.701213       -19.0810
  35   2.0000      -0.699312       -19.0292
  36   2.0000      -0.695237       -18.9184
  37   2.0000      -0.666544       -18.1376
  38   2.0000      -0.648804       -17.6548
  39   2.0000      -0.613222       -16.6866
  40   2.0000      -0.603189       -16.4136
  41   2.0000      -0.573779       -15.6133
  42   2.0000      -0.569769       -15.5042
  43   2.0000      -0.557252       -15.1636
  44   2.0000      -0.531946       -14.4750
  45   2.0000      -0.520323       -14.1587
  46   2.0000      -0.516786       -14.0625
  47   2.0000      -0.515101       -14.0166
  48   2.0000      -0.506501       -13.7826
  49   2.0000      -0.499183       -13.5835
  50   2.0000      -0.494912       -13.4672
  51   2.0000      -0.480353       -13.0711
  52   2.0000      -0.472652       -12.8615
  53   2.0000      -0.463844       -12.6218
  54   2.0000      -0.458542       -12.4776
  55   2.0000      -0.447434       -12.1753
  56   2.0000      -0.441645       -12.0178
  57   2.0000      -0.437575       -11.9070
  58   2.0000      -0.434502       -11.8234
  59   2.0000      -0.425265       -11.5721
  60   2.0000      -0.422789       -11.5047
  61   2.0000      -0.418039       -11.3754
  62   2.0000      -0.412643       -11.2286
  63   2.0000      -0.351691        -9.5700
  64   2.0000      -0.334199        -9.0940
  65   2.0000      -0.326980        -8.8976
  66   2.0000      -0.289441        -7.8761
  67   0.0000       0.028330         0.7709
  68   0.0000       0.071494         1.9454
  69   0.0000       0.110573         3.0089
  70   0.0000       0.120902         3.2899
  71   0.0000       0.127140         3.4597

MULLIKEN ATOMIC CHARGES
-----------------------
   0 S :    0.094017
   1 C :   -0.115052
   2 C :   -0.047568
   3 C :    0.039374
   4 C :   -0.168393
   5 H :   -0.008125
   6 C :    0.044717
   7 H :    0.030523
   8 H :    0.007635
   9 C :   -0.068772
  10 H :    0.020649
  11 H :    0.035950
  12 C :   -0.073950
  13 H :    0.049210
  14 H :    0.043104
  15 H :    0.040367
  16 S :    0.113935
  17 C :   -0.073144
  18 C :   -0.023394
  19 C :   -0.020500
  20 C :   -0.167303
  21 H :    0.023967
  22 C :    0.073317
  23 H :    0.019797
  24 H :    0.037825
  25 C :   -0.134152
  26 H :    0.034346
  27 H :    0.049183
  28 C :   -0.035361
  29 H :    0.029322
  30 H :    0.019053
  31 H :    0.042161
  32 H :    0.045765
  33 H :    0.041499
Sum of atomic charges:   -0.0000000

LOEWDIN ATOMIC CHARGES
----------------------
   0 S :    0.386588
   1 C :   -0.185236
   2 C :   -0.062778
   3 C :   -0.061677
   4 C :   -0.189996
   5 H :    0.025704
   6 C :   -0.041962
   7 H :    0.035357
   8 H :    0.026303
   9 C :   -0.041783
  10 H :    0.020085
  11 H :    0.025960
  12 C :   -0.071573
  13 H :    0.031769
  14 H :    0.031462
  15 H :    0.029145
  16 S :    0.422622
  17 C :   -0.180142
  18 C :   -0.070226
  19 C :   -0.056445
  20 C :   -0.199576
  21 H :    0.036406
  22 C :   -0.031838
  23 H :    0.026365
  24 H :    0.039463
  25 C :   -0.042804
  26 H :    0.020205
  27 H :    0.033109
  28 C :   -0.068134
  29 H :    0.023784
  30 H :    0.019797
  31 H :    0.028971
  32 H :    0.024041
  33 H :    0.017034

  Mayer bond orders larger than 0.100000
B(  0-S ,  1-C ) :   1.1450 B(  0-S ,  4-C ) :   1.1197 B(  1-C ,  2-C ) :   1.6196
B(  1-C , 32-H ) :   0.9713 B(  2-C ,  3-C ) :   1.2001 B(  2-C ,  6-C ) :   1.0294
B(  3-C ,  4-C ) :   1.6120 B(  3-C ,  5-H ) :   0.9917 B(  4-C , 20-C ) :   1.0519
B(  6-C ,  7-H ) :   0.9403 B(  6-C ,  8-H ) :   0.9362 B(  6-C ,  9-C ) :   1.0558
B(  9-C , 10-H ) :   0.9566 B(  9-C , 11-H ) :   0.9546 B(  9-C , 12-C ) :   1.0810
B( 12-C , 13-H ) :   0.9729 B( 12-C , 14-H ) :   0.9738 B( 12-C , 15-H ) :   0.9731
B( 16-S , 17-C ) :   1.1741 B( 16-S , 20-C ) :   1.1549 B( 17-C , 18-C ) :   1.5444
B( 17-C , 20-C ) :   0.1080 B( 17-C , 33-H ) :   0.9826 B( 18-C , 19-C ) :   1.2861
B( 18-C , 21-H ) :   0.9814 B( 19-C , 20-C ) :   1.5579 B( 19-C , 22-C ) :   1.0429
B( 22-C , 23-H ) :   0.9306 B( 22-C , 24-H ) :   0.9346 B( 22-C , 25-C ) :   1.0513
B( 25-C , 26-H ) :   0.9567 B( 25-C , 27-H ) :   0.9553 B( 25-C , 28-C ) :   1.0836
B( 28-C , 29-H ) :   0.9742 B( 28-C , 30-H ) :   0.9734 B( 28-C , 31-H ) :   0.9741

Dispersion correction           -0.013805424
FINAL SINGLE POINT ENERGY     -1339.886900726350

DIPOLE MOMENT
-------------
                                X             Y             Z
Electronic contribution:    -15.66118      18.25103     -21.45170
Nuclear contribution   :     15.80416     -18.56324      21.98241
                        -----------------------------------------
Total Dipole Moment    :      0.14298      -0.31221       0.53072
                        -----------------------------------------
Magnitude (a.u.)       :      0.63212
Magnitude (Debye)      :      1.60672

Rotational constants in cm-1:     0.018262     0.008646     0.006147
Rotational constants in MHz :   547.474525   259.198596   184.290390

                             ****ORCA TERMINATED NORMALLY****
TOTAL RUN TIME: 0 days 0 hours 0 minutes 32 seconds 944 msec
