                         Program Version 4.2.1 -  RELEASE  -
|  1> ! wB97X-D3 SP def2-SVP
|  2> %pal
|  3> nprocs 16
|  4> end
|  5>
|  6> * xyz 0 1
|  7> S 	 -95.6932 	 41.5197 	 124.323
|  8> C 	 -94.8962 	 40.4916 	 123.19
|  9> C 	 -95.5582 	 40.4825 	 122.007
| 10> C 	 -96.8607 	 41.1887 	 122.014
| 11> C 	 -97.0483 	 41.8583 	 123.227
| 12> H 	 -97.6778 	 41.1985 	 121.32
| 13> C 	 -95.2564 	 39.5858 	 120.839
| 14> H 	 -95.0068 	 40.2661 	 120.075
| 15> H 	 -96.231 	 39.2241 	 120.477
| 16> C 	 -94.1147 	 38.4999 	 121.031
| 17> H 	 -93.1617 	 39.0147 	 121.191
| 18> H 	 -94.2593 	 38.0405 	 121.957
| 19> C 	 -93.727 	 37.5784 	 119.878
| 20> H 	 -93.3202 	 38.1451 	 119.045
| 21> H 	 -92.8898 	 36.9555 	 120.156
| 22> H 	 -94.6026 	 36.9613 	 119.548
| 23> S 	 -98.3602 	 42.9006 	 125.377
| 24> C 	 -99.6617 	 44.0524 	 125.1
| 25> C 	 -99.901 	 44.3148 	 123.783
| 26> C 	 -99.1052 	 43.4955 	 122.919
| 27> C 	 -98.1222 	 42.7574 	 123.63
| 28> H 	 -100.727 	 44.9466 	 123.454
| 29> C 	 -99.385 	 43.4483 	 121.433
| 30> H 	 -98.4557 	 43.1571 	 120.922
| 31> H 	 -99.648 	 44.4443 	 121.072
| 32> C 	 -100.451 	 42.4192 	 120.918
| 33> H 	 -101.37 	 42.8945 	 121.328
| 34> H 	 -100.29 	 41.4775 	 121.401
| 35> C 	 -100.334 	 42.1859 	 119.437
| 36> H 	 -99.4603 	 41.5145 	 119.212
| 37> H 	 -100.119 	 43.0729 	 118.886
| 38> H 	 -101.247 	 41.7589 	 119.015
| 39> H 	 -94.0728 	 39.8483 	 123.482
| 40> H 	 -100.239 	 44.5169 	 125.886
| 41> *
| 42>
| 43>                          ****END OF INPUT****

CARTESIAN COORDINATES (ANGSTROEM)
---------------------------------
  S    -95.693200   41.519700  124.323000
  C    -94.896200   40.491600  123.190000
  C    -95.558200   40.482500  122.007000
  C    -96.860700   41.188700  122.014000
  C    -97.048300   41.858300  123.227000
  H    -97.677800   41.198500  121.320000
  C    -95.256400   39.585800  120.839000
  H    -95.006800   40.266100  120.075000
  H    -96.231000   39.224100  120.477000
  C    -94.114700   38.499900  121.031000
  H    -93.161700   39.014700  121.191000
  H    -94.259300   38.040500  121.957000
  C    -93.727000   37.578400  119.878000
  H    -93.320200   38.145100  119.045000
  H    -92.889800   36.955500  120.156000
  H    -94.602600   36.961300  119.548000
  S    -98.360200   42.900600  125.377000
  C    -99.661700   44.052400  125.100000
  C    -99.901000   44.314800  123.783000
  C    -99.105200   43.495500  122.919000
  C    -98.122200   42.757400  123.630000
  H    -100.727000   44.946600  123.454000
  C    -99.385000   43.448300  121.433000
  H    -98.455700   43.157100  120.922000
  H    -99.648000   44.444300  121.072000
  C    -100.451000   42.419200  120.918000
  H    -101.370000   42.894500  121.328000
  H    -100.290000   41.477500  121.401000
  C    -100.334000   42.185900  119.437000
  H    -99.460300   41.514500  119.212000
  H    -100.119000   43.072900  118.886000
  H    -101.247000   41.758900  119.015000
  H    -94.072800   39.848300  123.482000
  H    -100.239000   44.516900  125.886000

 Total Charge           Charge          ....    0
 Multiplicity           Mult            ....    1
 Number of Electrons    NEL             ....  134
 Basis Dimension        Dim             ....  322

ORBITAL ENERGIES
----------------

  NO   OCC          E(Eh)            E(eV)
   0   2.0000     -88.968237     -2420.9488
   1   2.0000     -88.959940     -2420.7230
   2   2.0000     -10.334185      -281.2075
   3   2.0000     -10.333063      -281.1769
   4   2.0000     -10.318449      -280.7793
   5   2.0000     -10.310076      -280.5514
   6   2.0000     -10.309224      -280.5283
   7   2.0000     -10.303983      -280.3856
   8   2.0000     -10.298521      -280.2370
   9   2.0000     -10.295722      -280.1608
  10   2.0000     -10.294371      -280.1241
  11   2.0000     -10.290676      -280.0235
  12   2.0000     -10.290289      -280.0130
  13   2.0000     -10.287587      -279.9395
  14   2.0000     -10.283622      -279.8316
  15   2.0000     -10.283255      -279.8216
  16   2.0000      -8.082558      -219.9376
  17   2.0000      -8.075060      -219.7336
  18   2.0000      -6.041079      -164.3861
  19   2.0000      -6.037237      -164.2816
  20   2.0000      -6.033767      -164.1871
  21   2.0000      -6.033210      -164.1720
  22   2.0000      -6.029541      -164.0721
  23   2.0000      -6.025565      -163.9639
  24   2.0000      -1.003909       -27.3177
  25   2.0000      -0.981939       -26.7199
  26   2.0000      -0.912273       -24.8242
  27   2.0000      -0.907108       -24.6837
  28   2.0000      -0.871387       -23.7116
  29   2.0000      -0.856433       -23.3047
  30   2.0000      -0.848894       -23.0996
  31   2.0000      -0.817176       -22.2365
  32   2.0000      -0.781445       -21.2642
  33   2.0000      -0.769787       -20.9470
  34   2.0000      -0.716851       -19.5065
  35   2.0000      -0.705487       -19.1973
  36   2.0000      -0.691056       -18.8046
  37   2.0000      -0.668034       -18.1781
  38   2.0000      -0.641198       -17.4479
  39   2.0000      -0.608783       -16.5658
  40   2.0000      -0.594277       -16.1711
  41   2.0000      -0.571976       -15.5643
  42   2.0000      -0.564515       -15.3612
  43   2.0000      -0.562801       -15.3146
  44   2.0000      -0.528288       -14.3754
  45   2.0000      -0.524486       -14.2720
  46   2.0000      -0.519687       -14.1414
  47   2.0000      -0.514160       -13.9910
  48   2.0000      -0.509106       -13.8535
  49   2.0000      -0.503003       -13.6874
  50   2.0000      -0.494566       -13.4578
  51   2.0000      -0.486340       -13.2340
  52   2.0000      -0.482909       -13.1406
  53   2.0000      -0.466065       -12.6823
  54   2.0000      -0.459571       -12.5056
  55   2.0000      -0.454345       -12.3634
  56   2.0000      -0.443350       -12.0642
  57   2.0000      -0.434021       -11.8103
  58   2.0000      -0.433506       -11.7963
  59   2.0000      -0.425383       -11.5753
  60   2.0000      -0.421191       -11.4612
  61   2.0000      -0.418224       -11.3805
  62   2.0000      -0.410693       -11.1755
  63   2.0000      -0.362218        -9.8564
  64   2.0000      -0.333504        -9.0751
  65   2.0000      -0.321637        -8.7522
  66   2.0000      -0.283407        -7.7119
  67   0.0000       0.018899         0.5143
  68   0.0000       0.084853         2.3090
  69   0.0000       0.101903         2.7729
  70   0.0000       0.117577         3.1994
  71   0.0000       0.130743         3.5577

MULLIKEN ATOMIC CHARGES
-----------------------
   0 S :    0.084243
   1 C :   -0.128638
   2 C :   -0.083071
   3 C :   -0.008215
   4 C :   -0.104870
   5 H :   -0.002721
   6 C :    0.097502
   7 H :    0.016289
   8 H :    0.023523
   9 C :   -0.085310
  10 H :    0.023023
  11 H :    0.020725
  12 C :   -0.033587
  13 H :    0.029963
  14 H :    0.032197
  15 H :    0.042589
  16 S :    0.098144
  17 C :   -0.077163
  18 C :   -0.023214
  19 C :   -0.049670
  20 C :   -0.129301
  21 H :    0.024878
  22 C :    0.004752
  23 H :    0.014336
  24 H :    0.026859
  25 C :   -0.050777
  26 H :    0.030691
  27 H :    0.031354
  28 C :   -0.038285
  29 H :    0.036817
  30 H :    0.022911
  31 H :    0.043109
  32 H :    0.056720
  33 H :    0.054199
Sum of atomic charges:   -0.0000000

LOEWDIN ATOMIC CHARGES
----------------------
   0 S :    0.385670
   1 C :   -0.210428
   2 C :   -0.056122
   3 C :   -0.070358
   4 C :   -0.172966
   5 H :    0.025699
   6 C :   -0.031852
   7 H :    0.028786
   8 H :    0.032129
   9 C :   -0.042594
  10 H :    0.028545
  11 H :    0.013051
  12 C :   -0.062967
  13 H :    0.026190
  14 H :    0.028706
  15 H :    0.028254
  16 S :    0.394892
  17 C :   -0.173678
  18 C :   -0.072935
  19 C :   -0.049407
  20 C :   -0.190425
  21 H :    0.036346
  22 C :   -0.036774
  23 H :    0.024308
  24 H :    0.028684
  25 C :   -0.038891
  26 H :    0.027242
  27 H :    0.021887
  28 C :   -0.065568
  29 H :    0.032346
  30 H :    0.020216
  31 H :    0.031199
  32 H :    0.032257
  33 H :    0.028558

  Mayer bond orders larger than 0.100000
B(  0-S ,  1-C ) :   1.1044 B(  0-S ,  4-C ) :   1.1369 B(  1-C ,  2-C ) :   1.6613
B(  1-C , 32-H ) :   0.9620 B(  2-C ,  3-C ) :   1.1841 B(  2-C ,  6-C ) :   1.0175
B(  3-C ,  4-C ) :   1.6012 B(  3-C ,  5-H ) :   0.9917 B(  4-C , 20-C ) :   1.0851
B(  6-C ,  7-H ) :   0.9183 B(  6-C ,  8-H ) :   0.9440 B(  6-C ,  9-C ) :   1.0622
B(  9-C , 10-H ) :   0.9492 B(  9-C , 11-H ) :   0.9581 B(  9-C , 12-C ) :   1.0881
B( 12-C , 13-H ) :   0.9742 B( 12-C , 14-H ) :   0.9709 B( 12-C , 15-H ) :   0.9758
B( 16-S , 17-C ) :   1.1481 B( 16-S , 20-C ) :   1.1297 B( 17-C , 18-C ) :   1.6229
B( 17-C , 33-H ) :   0.9647 B( 18-C , 19-C ) :   1.2442 B( 18-C , 21-H ) :   0.9855
B( 19-C , 20-C ) :   1.5699 B( 19-C , 22-C ) :   1.0569 B( 22-C , 23-H ) :   0.9353
B( 22-C , 24-H ) :   0.9321 B( 22-C , 25-C ) :   1.0453 B( 25-C , 26-H ) :   0.9560
B( 25-C , 27-H ) :   0.9567 B( 25-C , 28-C ) :   1.0813 B( 28-C , 29-H ) :   0.9704
B( 28-C , 30-H ) :   0.9725 B( 28-C , 31-H ) :   0.9714

Dispersion correction           -0.013703294
FINAL SINGLE POINT ENERGY     -1339.876836808003

DIPOLE MOMENT
-------------
                                X             Y             Z
Electronic contribution:      0.29335      12.36788      28.22782
Nuclear contribution   :     -0.59971     -12.52171     -28.87719
                        -----------------------------------------
Total Dipole Moment    :     -0.30636      -0.15383      -0.64937
                        -----------------------------------------
Magnitude (a.u.)       :      0.73431
Magnitude (Debye)      :      1.86646

Rotational constants in cm-1:     0.019346     0.008065     0.005839
Rotational constants in MHz :   579.968901   241.774980   175.060911

                             ****ORCA TERMINATED NORMALLY****
TOTAL RUN TIME: 0 days 0 hours 0 minutes 33 seconds 369 msec
