                         Program Version 4.2.1 -  RELEASE  -
|  1> ! wB97X-D3 SP def2-SVP
|  2> %pal
|  3> nprocs 16
|  4> end
|  5>
|  6> * xyz 0 1
|  7> S 	 46.9724 	 13.5174 	 47.8772
|  8> C 	 46.5181 	 11.8725 	 47.5371
|  9> C 	 45.6856 	 11.4305 	 48.5422
| 10> C 	 45.2616 	 12.4175 	 49.4234
| 11> C 	 45.7197 	 13.6856 	 49.1459
| 12> H 	 44.6685 	 12.224 	 50.255
| 13> C 	 45.1459 	 10.0726 	 48.556
| 14> H 	 45.0034 	 9.84849 	 49.6093
| 15> H 	 45.9455 	 9.40384 	 48.31
| 16> C 	 43.9239 	 9.88804 	 47.5532
| 17> H 	 43.2471 	 10.7055 	 47.7564
| 18> H 	 44.1333 	 9.8666 	 46.4949
| 19> C 	 43.1404 	 8.62227 	 47.8777
| 20> H 	 42.3743 	 8.46547 	 47.1323
| 21> H 	 43.7211 	 7.66955 	 47.7975
| 22> H 	 42.7102 	 8.62232 	 48.9244
| 23> S 	 45.957 	 16.3446 	 49.0648
| 24> C 	 45.5743 	 17.3642 	 50.3841
| 25> C 	 45.0449 	 16.634 	 51.4572
| 26> C 	 44.959 	 15.2077 	 51.222
| 27> C 	 45.4776 	 14.8959 	 49.9654
| 28> H 	 44.754 	 17.1555 	 52.362
| 29> C 	 44.2861 	 14.2322 	 52.1534
| 30> H 	 44.15 	 14.7913 	 53.0577
| 31> H 	 44.996 	 13.4252 	 52.3709
| 32> C 	 42.8648 	 13.7096 	 51.7801
| 33> H 	 42.715 	 13.1112 	 50.9113
| 34> H 	 42.1431 	 14.5197 	 51.6014
| 35> C 	 42.189 	 13.0954 	 53.0546
| 36> H 	 42.0964 	 13.8292 	 53.7746
| 37> H 	 42.8415 	 12.309 	 53.4581
| 38> H 	 41.2876 	 12.653 	 52.8811
| 39> H 	 46.9 	 11.1421 	 46.7965
| 40> H 	 45.5389 	 18.439 	 50.4577
| 41> *
| 42>
| 43>                          ****END OF INPUT****

CARTESIAN COORDINATES (ANGSTROEM)
---------------------------------
  S     46.972400   13.517400   47.877200
  C     46.518100   11.872500   47.537100
  C     45.685600   11.430500   48.542200
  C     45.261600   12.417500   49.423400
  C     45.719700   13.685600   49.145900
  H     44.668500   12.224000   50.255000
  C     45.145900   10.072600   48.556000
  H     45.003400    9.848490   49.609300
  H     45.945500    9.403840   48.310000
  C     43.923900    9.888040   47.553200
  H     43.247100   10.705500   47.756400
  H     44.133300    9.866600   46.494900
  C     43.140400    8.622270   47.877700
  H     42.374300    8.465470   47.132300
  H     43.721100    7.669550   47.797500
  H     42.710200    8.622320   48.924400
  S     45.957000   16.344600   49.064800
  C     45.574300   17.364200   50.384100
  C     45.044900   16.634000   51.457200
  C     44.959000   15.207700   51.222000
  C     45.477600   14.895900   49.965400
  H     44.754000   17.155500   52.362000
  C     44.286100   14.232200   52.153400
  H     44.150000   14.791300   53.057700
  H     44.996000   13.425200   52.370900
  C     42.864800   13.709600   51.780100
  H     42.715000   13.111200   50.911300
  H     42.143100   14.519700   51.601400
  C     42.189000   13.095400   53.054600
  H     42.096400   13.829200   53.774600
  H     42.841500   12.309000   53.458100
  H     41.287600   12.653000   52.881100
  H     46.900000   11.142100   46.796500
  H     45.538900   18.439000   50.457700

 Total Charge           Charge          ....    0
 Multiplicity           Mult            ....    1
 Number of Electrons    NEL             ....  134
 Basis Dimension        Dim             ....  322

ORBITAL ENERGIES
----------------

  NO   OCC          E(Eh)            E(eV)
   0   2.0000     -88.967181     -2420.9201
   1   2.0000     -88.966329     -2420.8969
   2   2.0000     -10.333823      -281.1976
   3   2.0000     -10.332275      -281.1555
   4   2.0000     -10.315654      -280.7032
   5   2.0000     -10.310981      -280.5761
   6   2.0000     -10.309273      -280.5296
   7   2.0000     -10.299423      -280.2616
   8   2.0000     -10.297446      -280.2077
   9   2.0000     -10.291500      -280.0460
  10   2.0000     -10.290361      -280.0149
  11   2.0000     -10.286736      -279.9163
  12   2.0000     -10.286349      -279.9058
  13   2.0000     -10.281770      -279.7812
  14   2.0000     -10.281524      -279.7745
  15   2.0000     -10.269686      -279.4524
  16   2.0000      -8.081311      -219.9036
  17   2.0000      -8.080903      -219.8925
  18   2.0000      -6.039805      -164.3515
  19   2.0000      -6.039582      -164.3454
  20   2.0000      -6.035719      -164.2403
  21   2.0000      -6.035599      -164.2370
  22   2.0000      -6.032131      -164.1426
  23   2.0000      -6.031470      -164.1246
  24   2.0000      -1.006608       -27.3912
  25   2.0000      -0.985870       -26.8269
  26   2.0000      -0.911714       -24.8090
  27   2.0000      -0.909700       -24.7542
  28   2.0000      -0.866807       -23.5870
  29   2.0000      -0.857978       -23.3468
  30   2.0000      -0.849407       -23.1136
  31   2.0000      -0.817377       -22.2420
  32   2.0000      -0.784485       -21.3469
  33   2.0000      -0.765948       -20.8425
  34   2.0000      -0.715025       -19.4568
  35   2.0000      -0.704629       -19.1739
  36   2.0000      -0.699003       -19.0208
  37   2.0000      -0.666785       -18.1442
  38   2.0000      -0.635326       -17.2881
  39   2.0000      -0.625833       -17.0298
  40   2.0000      -0.593958       -16.1624
  41   2.0000      -0.570883       -15.5345
  42   2.0000      -0.566086       -15.4040
  43   2.0000      -0.557827       -15.1793
  44   2.0000      -0.529916       -14.4198
  45   2.0000      -0.525920       -14.3110
  46   2.0000      -0.517974       -14.0948
  47   2.0000      -0.514061       -13.9883
  48   2.0000      -0.505773       -13.7628
  49   2.0000      -0.504091       -13.7170
  50   2.0000      -0.497486       -13.5373
  51   2.0000      -0.482396       -13.1267
  52   2.0000      -0.468163       -12.7394
  53   2.0000      -0.459284       -12.4978
  54   2.0000      -0.457933       -12.4610
  55   2.0000      -0.451051       -12.2737
  56   2.0000      -0.449411       -12.2291
  57   2.0000      -0.445489       -12.1224
  58   2.0000      -0.440510       -11.9869
  59   2.0000      -0.425704       -11.5840
  60   2.0000      -0.420335       -11.4379
  61   2.0000      -0.415821       -11.3151
  62   2.0000      -0.410322       -11.1654
  63   2.0000      -0.358641        -9.7591
  64   2.0000      -0.332386        -9.0447
  65   2.0000      -0.327976        -8.9247
  66   2.0000      -0.280350        -7.6287
  67   0.0000       0.018961         0.5160
  68   0.0000       0.080479         2.1899
  69   0.0000       0.102611         2.7922
  70   0.0000       0.121087         3.2949
  71   0.0000       0.132016         3.5923

MULLIKEN ATOMIC CHARGES
-----------------------
   0 S :    0.106351
   1 C :   -0.116557
   2 C :   -0.105826
   3 C :    0.005176
   4 C :   -0.051728
   5 H :   -0.036656
   6 C :    0.073958
   7 H :    0.016252
   8 H :    0.011017
   9 C :   -0.031592
  10 H :    0.031126
  11 H :    0.035257
  12 C :   -0.078463
  13 H :    0.029479
  14 H :    0.027440
  15 H :    0.040173
  16 S :    0.102065
  17 C :   -0.060903
  18 C :   -0.065808
  19 C :   -0.047544
  20 C :   -0.160566
  21 H :    0.017073
  22 C :    0.072953
  23 H :    0.003877
  24 H :    0.045692
  25 C :   -0.071025
  26 H :    0.031243
  27 H :    0.026863
  28 C :   -0.006651
  29 H :    0.016208
  30 H :    0.019267
  31 H :    0.013979
  32 H :    0.055637
  33 H :    0.052232
Sum of atomic charges:    0.0000000

LOEWDIN ATOMIC CHARGES
----------------------
   0 S :    0.393744
   1 C :   -0.207241
   2 C :   -0.073788
   3 C :   -0.066111
   4 C :   -0.177168
   5 H :    0.017975
   6 C :   -0.033131
   7 H :    0.031617
   8 H :    0.026167
   9 C :   -0.028945
  10 H :    0.026481
  11 H :    0.027192
  12 C :   -0.075579
  13 H :    0.022188
  14 H :    0.024655
  15 H :    0.029333
  16 S :    0.418996
  17 C :   -0.202027
  18 C :   -0.072674
  19 C :   -0.058686
  20 C :   -0.177336
  21 H :    0.029537
  22 C :   -0.030568
  23 H :    0.030840
  24 H :    0.036212
  25 C :   -0.036427
  26 H :    0.016861
  27 H :    0.030758
  28 C :   -0.047525
  29 H :    0.014452
  30 H :    0.023956
  31 H :    0.013434
  32 H :    0.040830
  33 H :    0.031979

  Mayer bond orders larger than 0.100000
B(  0-S ,  1-C ) :   1.1302 B(  0-S ,  4-C ) :   1.1410 B(  1-C ,  2-C ) :   1.5783
B(  1-C ,  4-C ) :   0.1019 B(  1-C , 32-H ) :   0.9633 B(  2-C ,  3-C ) :   1.2765
B(  2-C ,  6-C ) :   1.0479 B(  3-C ,  4-C ) :   1.5355 B(  3-C ,  5-H ) :   1.0125
B(  4-C , 20-C ) :   1.0653 B(  6-C ,  7-H ) :   0.9437 B(  6-C ,  8-H ) :   0.9249
B(  6-C ,  9-C ) :   1.0414 B(  9-C , 10-H ) :   0.9593 B(  9-C , 11-H ) :   0.9563
B(  9-C , 12-C ) :   1.0871 B( 12-C , 13-H ) :   0.9736 B( 12-C , 14-H ) :   0.9732
B( 12-C , 15-H ) :   0.9767 B( 16-S , 17-C ) :   1.1608 B( 16-S , 20-C ) :   1.1446
B( 17-C , 18-C ) :   1.6081 B( 17-C , 33-H ) :   0.9645 B( 18-C , 19-C ) :   1.2503
B( 18-C , 21-H ) :   0.9850 B( 19-C , 20-C ) :   1.5671 B( 19-C , 22-C ) :   1.0500
B( 22-C , 23-H ) :   0.9264 B( 22-C , 24-H ) :   0.9279 B( 22-C , 25-C ) :   1.0512
B( 25-C , 26-H ) :   0.9608 B( 25-C , 27-H ) :   0.9542 B( 25-C , 28-C ) :   1.0742
B( 28-C , 29-H ) :   0.9789 B( 28-C , 30-H ) :   0.9750 B( 28-C , 31-H ) :   0.9740

Dispersion correction           -0.013865165
FINAL SINGLE POINT ENERGY     -1339.859622315485

DIPOLE MOMENT
-------------
                                X             Y             Z
Electronic contribution:     20.56366      22.72927     -10.76826
Nuclear contribution   :    -21.08136     -23.11275      11.20427
                        -----------------------------------------
Total Dipole Moment    :     -0.51770      -0.38348       0.43601
                        -----------------------------------------
Magnitude (a.u.)       :      0.77793
Magnitude (Debye)      :      1.97735

Rotational constants in cm-1:     0.017237     0.009346     0.006402
Rotational constants in MHz :   516.751619   280.193322   191.920853

                             ****ORCA TERMINATED NORMALLY****
TOTAL RUN TIME: 0 days 0 hours 0 minutes 35 seconds 111 msec
