                         Program Version 4.2.1 -  RELEASE  -
|  1> ! wB97X-D3 SP def2-SVP
|  2> %pal
|  3> nprocs 16
|  4> end
|  5>
|  6> * xyz 0 1
|  7> S 	 -26.3453 	 54.2792 	 108.748
|  8> C 	 -27.9163 	 53.7398 	 109.226
|  9> C 	 -28.6743 	 54.6939 	 109.91
| 10> C 	 -27.8931 	 55.8988 	 110.03
| 11> C 	 -26.6258 	 55.775 	 109.616
| 12> H 	 -28.2964 	 56.8022 	 110.438
| 13> C 	 -30.1514 	 54.495 	 110.4
| 14> H 	 -30.7288 	 53.838 	 109.684
| 15> H 	 -30.657 	 55.4631 	 110.323
| 16> C 	 -30.2812 	 54.0259 	 111.846
| 17> H 	 -31.3101 	 53.9748 	 112.041
| 18> H 	 -29.9145 	 52.9701 	 111.929
| 19> C 	 -29.463 	 54.8282 	 112.891
| 20> H 	 -28.4401 	 55.0416 	 112.677
| 21> H 	 -29.9524 	 55.8309 	 112.843
| 22> H 	 -29.5494 	 54.3495 	 113.87
| 23> S 	 -24.9245 	 57.141 	 107.914
| 24> C 	 -23.9491 	 58.3812 	 108.483
| 25> C 	 -24.1551 	 58.6789 	 109.891
| 26> C 	 -25.081 	 57.7379 	 110.452
| 27> C 	 -25.663 	 56.914 	 109.529
| 28> H 	 -23.6703 	 59.4624 	 110.429
| 29> C 	 -25.4627 	 57.8354 	 111.944
| 30> H 	 -26.5343 	 58.0801 	 111.878
| 31> H 	 -24.9249 	 58.628 	 112.418
| 32> C 	 -25.4377 	 56.509 	 112.799
| 33> H 	 -26.0516 	 55.8049 	 112.358
| 34> H 	 -26.0706 	 56.6921 	 113.636
| 35> C 	 -24.0889 	 55.8795 	 113.152
| 36> H 	 -23.3729 	 56.5622 	 113.504
| 37> H 	 -23.7849 	 55.4119 	 112.223
| 38> H 	 -24.1492 	 55.0941 	 113.851
| 39> H 	 -28.3075 	 52.7552 	 108.965
| 40> H 	 -23.1796 	 58.8589 	 107.769
| 41> *
| 42>
| 43>                          ****END OF INPUT****

CARTESIAN COORDINATES (ANGSTROEM)
---------------------------------
  S    -26.345300   54.279200  108.748000
  C    -27.916300   53.739800  109.226000
  C    -28.674300   54.693900  109.910000
  C    -27.893100   55.898800  110.030000
  C    -26.625800   55.775000  109.616000
  H    -28.296400   56.802200  110.438000
  C    -30.151400   54.495000  110.400000
  H    -30.728800   53.838000  109.684000
  H    -30.657000   55.463100  110.323000
  C    -30.281200   54.025900  111.846000
  H    -31.310100   53.974800  112.041000
  H    -29.914500   52.970100  111.929000
  C    -29.463000   54.828200  112.891000
  H    -28.440100   55.041600  112.677000
  H    -29.952400   55.830900  112.843000
  H    -29.549400   54.349500  113.870000
  S    -24.924500   57.141000  107.914000
  C    -23.949100   58.381200  108.483000
  C    -24.155100   58.678900  109.891000
  C    -25.081000   57.737900  110.452000
  C    -25.663000   56.914000  109.529000
  H    -23.670300   59.462400  110.429000
  C    -25.462700   57.835400  111.944000
  H    -26.534300   58.080100  111.878000
  H    -24.924900   58.628000  112.418000
  C    -25.437700   56.509000  112.799000
  H    -26.051600   55.804900  112.358000
  H    -26.070600   56.692100  113.636000
  C    -24.088900   55.879500  113.152000
  H    -23.372900   56.562200  113.504000
  H    -23.784900   55.411900  112.223000
  H    -24.149200   55.094100  113.851000
  H    -28.307500   52.755200  108.965000
  H    -23.179600   58.858900  107.769000

 Total Charge           Charge          ....    0
 Multiplicity           Mult            ....    1
 Number of Electrons    NEL             ....  134
 Basis Dimension        Dim             ....  322

ORBITAL ENERGIES
----------------

  NO   OCC          E(Eh)            E(eV)
   0   2.0000     -88.968661     -2420.9604
   1   2.0000     -88.965814     -2420.8829
   2   2.0000     -10.326026      -280.9854
   3   2.0000     -10.325506      -280.9713
   4   2.0000     -10.323221      -280.9091
   5   2.0000     -10.314746      -280.6785
   6   2.0000     -10.305585      -280.4292
   7   2.0000     -10.303113      -280.3619
   8   2.0000     -10.303054      -280.3603
   9   2.0000     -10.298052      -280.2242
  10   2.0000     -10.294808      -280.1360
  11   2.0000     -10.290537      -280.0197
  12   2.0000     -10.287292      -279.9314
  13   2.0000     -10.280369      -279.7431
  14   2.0000     -10.275123      -279.6003
  15   2.0000     -10.264174      -279.3024
  16   2.0000      -8.083706      -219.9688
  17   2.0000      -8.081270      -219.9025
  18   2.0000      -6.042160      -164.4155
  19   2.0000      -6.039514      -164.3435
  20   2.0000      -6.038302      -164.3106
  21   2.0000      -6.035569      -164.2362
  22   2.0000      -6.034381      -164.2039
  23   2.0000      -6.032382      -164.1495
  24   2.0000      -1.007343       -27.4112
  25   2.0000      -0.983930       -26.7741
  26   2.0000      -0.908331       -24.7169
  27   2.0000      -0.903563       -24.5872
  28   2.0000      -0.861487       -23.4422
  29   2.0000      -0.854094       -23.2411
  30   2.0000      -0.846888       -23.0450
  31   2.0000      -0.806608       -21.9489
  32   2.0000      -0.787660       -21.4333
  33   2.0000      -0.773823       -21.0568
  34   2.0000      -0.710041       -19.3212
  35   2.0000      -0.700937       -19.0735
  36   2.0000      -0.680739       -18.5239
  37   2.0000      -0.665246       -18.1023
  38   2.0000      -0.641594       -17.4587
  39   2.0000      -0.614375       -16.7180
  40   2.0000      -0.588697       -16.0193
  41   2.0000      -0.568671       -15.4743
  42   2.0000      -0.551785       -15.0148
  43   2.0000      -0.548501       -14.9255
  44   2.0000      -0.539405       -14.6780
  45   2.0000      -0.539035       -14.6679
  46   2.0000      -0.514986       -14.0135
  47   2.0000      -0.510093       -13.8803
  48   2.0000      -0.501734       -13.6529
  49   2.0000      -0.494203       -13.4479
  50   2.0000      -0.488416       -13.2905
  51   2.0000      -0.475622       -12.9423
  52   2.0000      -0.469459       -12.7746
  53   2.0000      -0.466465       -12.6931
  54   2.0000      -0.462211       -12.5774
  55   2.0000      -0.453682       -12.3453
  56   2.0000      -0.445144       -12.1130
  57   2.0000      -0.440630       -11.9902
  58   2.0000      -0.435061       -11.8386
  59   2.0000      -0.429894       -11.6980
  60   2.0000      -0.427684       -11.6379
  61   2.0000      -0.407679       -11.0935
  62   2.0000      -0.405602       -11.0370
  63   2.0000      -0.347087        -9.4447
  64   2.0000      -0.333671        -9.0797
  65   2.0000      -0.326441        -8.8829
  66   2.0000      -0.290021        -7.8919
  67   0.0000       0.033574         0.9136
  68   0.0000       0.066470         1.8087
  69   0.0000       0.106367         2.8944
  70   0.0000       0.122330         3.3288
  71   0.0000       0.125368         3.4114

MULLIKEN ATOMIC CHARGES
-----------------------
   0 S :    0.114686
   1 C :   -0.128174
   2 C :   -0.085752
   3 C :    0.005106
   4 C :   -0.110292
   5 H :    0.007067
   6 C :    0.041825
   7 H :    0.040257
   8 H :    0.024304
   9 C :   -0.049179
  10 H :    0.023644
  11 H :    0.026937
  12 C :   -0.059916
  13 H :    0.039589
  14 H :    0.022244
  15 H :    0.045868
  16 S :    0.113740
  17 C :   -0.132276
  18 C :   -0.035517
  19 C :   -0.035962
  20 C :   -0.179221
  21 H :    0.012440
  22 C :    0.063451
  23 H :    0.035536
  24 H :    0.014184
  25 C :   -0.059275
  26 H :    0.019497
  27 H :    0.003463
  28 C :    0.011158
  29 H :    0.020192
  30 H :    0.032255
  31 H :    0.018704
  32 H :    0.047026
  33 H :    0.092392
Sum of atomic charges:    0.0000000

LOEWDIN ATOMIC CHARGES
----------------------
   0 S :    0.408678
   1 C :   -0.199997
   2 C :   -0.061251
   3 C :   -0.060660
   4 C :   -0.195488
   5 H :    0.027730
   6 C :   -0.032800
   7 H :    0.038037
   8 H :    0.028351
   9 C :   -0.039688
  10 H :    0.017925
  11 H :    0.024680
  12 C :   -0.065171
  13 H :    0.021062
  14 H :    0.027120
  15 H :    0.030772
  16 S :    0.424308
  17 C :   -0.218489
  18 C :   -0.076438
  19 C :   -0.056822
  20 C :   -0.195695
  21 H :    0.026085
  22 C :   -0.018492
  23 H :    0.038896
  24 H :    0.023234
  25 C :   -0.037513
  26 H :    0.014534
  27 H :    0.018575
  28 C :   -0.053405
  29 H :    0.017346
  30 H :    0.031662
  31 H :    0.021979
  32 H :    0.026492
  33 H :    0.044443

  Mayer bond orders larger than 0.100000
B(  0-S ,  1-C ) :   1.1468 B(  0-S ,  4-C ) :   1.1352 B(  1-C ,  2-C ) :   1.6250
B(  1-C , 32-H ) :   0.9640 B(  2-C ,  3-C ) :   1.2317 B(  2-C ,  6-C ) :   1.0090
B(  3-C ,  4-C ) :   1.5987 B(  3-C ,  5-H ) :   0.9972 B(  4-C , 20-C ) :   1.0123
B(  6-C ,  7-H ) :   0.9454 B(  6-C ,  8-H ) :   0.9425 B(  6-C ,  9-C ) :   1.0732
B(  9-C , 10-H ) :   0.9569 B(  9-C , 11-H ) :   0.9541 B(  9-C , 12-C ) :   1.0701
B( 12-C , 13-H ) :   0.9736 B( 12-C , 14-H ) :   0.9736 B( 12-C , 15-H ) :   0.9727
B( 16-S , 17-C ) :   1.2130 B( 16-S , 20-C ) :   1.1324 B( 17-C , 18-C ) :   1.5354
B( 17-C , 20-C ) :   0.1006 B( 17-C , 33-H ) :   0.9563 B( 18-C , 19-C ) :   1.2626
B( 18-C , 21-H ) :   0.9977 B( 19-C , 20-C ) :   1.6122 B( 19-C , 22-C ) :   1.0227
B( 22-C , 23-H ) :   0.9360 B( 22-C , 24-H ) :   0.9424 B( 22-C , 25-C ) :   1.0757
B( 25-C , 26-H ) :   0.9448 B( 25-C , 27-H ) :   0.9498 B( 25-C , 28-C ) :   1.0711
B( 28-C , 29-H ) :   0.9785 B( 28-C , 30-H ) :   0.9748 B( 28-C , 31-H ) :   0.9715

Dispersion correction           -0.015883665
FINAL SINGLE POINT ENERGY     -1339.869427389659

DIPOLE MOMENT
-------------
                                X             Y             Z
Electronic contribution:     10.64339       1.99299     -25.50459
Nuclear contribution   :    -11.02960      -1.92964      25.92096
                        -----------------------------------------
Total Dipole Moment    :     -0.38621       0.06335       0.41637
                        -----------------------------------------
Magnitude (a.u.)       :      0.57143
Magnitude (Debye)      :      1.45247

Rotational constants in cm-1:     0.019394     0.009838     0.007642
Rotational constants in MHz :   581.429704   294.924231   229.091554

                             ****ORCA TERMINATED NORMALLY****
TOTAL RUN TIME: 0 days 0 hours 0 minutes 32 seconds 286 msec
