                         Program Version 4.2.1 -  RELEASE  -
|  1> ! wB97X-D3 SP def2-SVP
|  2> %pal
|  3> nprocs 16
|  4> end
|  5>
|  6> * xyz 0 1
|  7> S 	 -71.7816 	 40.5146 	 136.805
|  8> C 	 -72.3746 	 38.9674 	 136.276
|  9> C 	 -71.3639 	 38.0829 	 135.906
| 10> C 	 -70.1127 	 38.5537 	 136.275
| 11> C 	 -70.1357 	 39.8486 	 136.769
| 12> H 	 -69.1408 	 38.1046 	 136.061
| 13> C 	 -71.6873 	 36.7031 	 135.412
| 14> H 	 -72.5737 	 36.8964 	 134.727
| 15> H 	 -72.1312 	 36.2531 	 136.297
| 16> C 	 -70.603 	 35.8022 	 134.875
| 17> H 	 -70.1949 	 36.4232 	 134.1
| 18> H 	 -69.7408 	 35.5392 	 135.538
| 19> C 	 -71.0926 	 34.5346 	 134.327
| 20> H 	 -71.7287 	 33.9479 	 134.994
| 21> H 	 -71.6617 	 34.6985 	 133.432
| 22> H 	 -70.3444 	 33.7337 	 134.192
| 23> S 	 -67.3256 	 39.8208 	 136.691
| 24> C 	 -66.4733 	 41.3404 	 137.082
| 25> C 	 -67.3025 	 42.2257 	 137.738
| 26> C 	 -68.6817 	 41.8077 	 137.856
| 27> C 	 -68.8951 	 40.5355 	 137.199
| 28> H 	 -66.798 	 43.1816 	 138.003
| 29> C 	 -69.7674 	 42.7247 	 138.249
| 30> H 	 -70.3767 	 42.3522 	 139.167
| 31> H 	 -70.4283 	 42.6791 	 137.391
| 32> C 	 -69.4819 	 44.1753 	 138.317
| 33> H 	 -70.3573 	 44.7845 	 138.093
| 34> H 	 -68.8951 	 44.4199 	 137.39
| 35> C 	 -68.7602 	 44.5914 	 139.623
| 36> H 	 -67.9267 	 43.8603 	 139.889
| 37> H 	 -69.4851 	 44.5203 	 140.366
| 38> H 	 -68.2877 	 45.5672 	 139.587
| 39> H 	 -73.4253 	 38.6758 	 136.276
| 40> H 	 -65.394 	 41.5368 	 136.954
| 41> *
| 42>
| 43>                          ****END OF INPUT****

CARTESIAN COORDINATES (ANGSTROEM)
---------------------------------
  S    -71.781600   40.514600  136.805000
  C    -72.374600   38.967400  136.276000
  C    -71.363900   38.082900  135.906000
  C    -70.112700   38.553700  136.275000
  C    -70.135700   39.848600  136.769000
  H    -69.140800   38.104600  136.061000
  C    -71.687300   36.703100  135.412000
  H    -72.573700   36.896400  134.727000
  H    -72.131200   36.253100  136.297000
  C    -70.603000   35.802200  134.875000
  H    -70.194900   36.423200  134.100000
  H    -69.740800   35.539200  135.538000
  C    -71.092600   34.534600  134.327000
  H    -71.728700   33.947900  134.994000
  H    -71.661700   34.698500  133.432000
  H    -70.344400   33.733700  134.192000
  S    -67.325600   39.820800  136.691000
  C    -66.473300   41.340400  137.082000
  C    -67.302500   42.225700  137.738000
  C    -68.681700   41.807700  137.856000
  C    -68.895100   40.535500  137.199000
  H    -66.798000   43.181600  138.003000
  C    -69.767400   42.724700  138.249000
  H    -70.376700   42.352200  139.167000
  H    -70.428300   42.679100  137.391000
  C    -69.481900   44.175300  138.317000
  H    -70.357300   44.784500  138.093000
  H    -68.895100   44.419900  137.390000
  C    -68.760200   44.591400  139.623000
  H    -67.926700   43.860300  139.889000
  H    -69.485100   44.520300  140.366000
  H    -68.287700   45.567200  139.587000
  H    -73.425300   38.675800  136.276000
  H    -65.394000   41.536800  136.954000

 Total Charge           Charge          ....    0
 Multiplicity           Mult            ....    1
 Number of Electrons    NEL             ....  134
 Basis Dimension        Dim             ....  322

ORBITAL ENERGIES
----------------

  NO   OCC          E(Eh)            E(eV)
   0   2.0000     -88.974048     -2421.1069
   1   2.0000     -88.966435     -2420.8998
   2   2.0000     -10.337421      -281.2955
   3   2.0000     -10.333372      -281.1853
   4   2.0000     -10.320856      -280.8448
   5   2.0000     -10.311222      -280.5826
   6   2.0000     -10.309256      -280.5291
   7   2.0000     -10.298545      -280.2377
   8   2.0000     -10.297541      -280.2103
   9   2.0000     -10.293671      -280.1050
  10   2.0000     -10.292881      -280.0835
  11   2.0000     -10.289104      -279.9808
  12   2.0000     -10.287629      -279.9406
  13   2.0000     -10.285597      -279.8853
  14   2.0000     -10.277899      -279.6759
  15   2.0000     -10.274617      -279.5865
  16   2.0000      -8.087296      -220.0665
  17   2.0000      -8.079522      -219.8550
  18   2.0000      -6.045881      -164.5168
  19   2.0000      -6.042031      -164.4120
  20   2.0000      -6.038310      -164.3108
  21   2.0000      -6.038066      -164.3041
  22   2.0000      -6.034382      -164.2039
  23   2.0000      -6.030011      -164.0850
  24   2.0000      -1.002355       -27.2755
  25   2.0000      -0.977253       -26.5924
  26   2.0000      -0.920276       -25.0420
  27   2.0000      -0.917758       -24.9735
  28   2.0000      -0.869813       -23.6688
  29   2.0000      -0.858903       -23.3719
  30   2.0000      -0.842178       -22.9168
  31   2.0000      -0.815070       -22.1792
  32   2.0000      -0.785117       -21.3641
  33   2.0000      -0.770050       -20.9541
  34   2.0000      -0.715395       -19.4669
  35   2.0000      -0.700291       -19.0559
  36   2.0000      -0.684796       -18.6342
  37   2.0000      -0.660333       -17.9686
  38   2.0000      -0.628501       -17.1024
  39   2.0000      -0.613945       -16.7063
  40   2.0000      -0.595836       -16.2135
  41   2.0000      -0.579188       -15.7605
  42   2.0000      -0.565590       -15.3905
  43   2.0000      -0.560575       -15.2540
  44   2.0000      -0.533241       -14.5102
  45   2.0000      -0.526953       -14.3391
  46   2.0000      -0.517954       -14.0942
  47   2.0000      -0.512023       -13.9329
  48   2.0000      -0.506240       -13.7755
  49   2.0000      -0.497257       -13.5311
  50   2.0000      -0.487677       -13.2704
  51   2.0000      -0.480488       -13.0747
  52   2.0000      -0.477972       -13.0063
  53   2.0000      -0.471190       -12.8217
  54   2.0000      -0.457722       -12.4553
  55   2.0000      -0.453260       -12.3338
  56   2.0000      -0.439333       -11.9549
  57   2.0000      -0.438149       -11.9226
  58   2.0000      -0.431344       -11.7375
  59   2.0000      -0.427033       -11.6201
  60   2.0000      -0.413853       -11.2615
  61   2.0000      -0.412506       -11.2249
  62   2.0000      -0.407517       -11.0891
  63   2.0000      -0.357504        -9.7282
  64   2.0000      -0.333318        -9.0701
  65   2.0000      -0.327987        -8.9250
  66   2.0000      -0.270874        -7.3708
  67   0.0000       0.011533         0.3138
  68   0.0000       0.082288         2.2392
  69   0.0000       0.102016         2.7760
  70   0.0000       0.114863         3.1256
  71   0.0000       0.129409         3.5214

MULLIKEN ATOMIC CHARGES
-----------------------
   0 S :    0.112393
   1 C :   -0.142137
   2 C :   -0.052730
   3 C :   -0.048916
   4 C :   -0.088677
   5 H :    0.030283
   6 C :    0.022286
   7 H :    0.041601
   8 H :    0.037257
   9 C :   -0.050997
  10 H :    0.025972
  11 H :    0.041885
  12 C :   -0.028836
  13 H :    0.014027
  14 H :    0.027700
  15 H :    0.028376
  16 S :    0.063856
  17 C :   -0.093371
  18 C :   -0.067112
  19 C :   -0.027753
  20 C :   -0.132569
  21 H :    0.041494
  22 C :    0.008111
  23 H :    0.060026
  24 H :    0.039293
  25 C :   -0.093196
  26 H :    0.030901
  27 H :    0.024159
  28 C :   -0.032796
  29 H :    0.038389
  30 H :    0.019912
  31 H :    0.038438
  32 H :    0.046053
  33 H :    0.066676
Sum of atomic charges:    0.0000000

LOEWDIN ATOMIC CHARGES
----------------------
   0 S :    0.415494
   1 C :   -0.213807
   2 C :   -0.059898
   3 C :   -0.077646
   4 C :   -0.176643
   5 H :    0.025733
   6 C :   -0.038579
   7 H :    0.042977
   8 H :    0.035168
   9 C :   -0.051858
  10 H :    0.026012
  11 H :    0.034678
  12 C :   -0.067566
  13 H :    0.024846
  14 H :    0.023554
  15 H :    0.031532
  16 S :    0.370336
  17 C :   -0.181302
  18 C :   -0.080945
  19 C :   -0.056236
  20 C :   -0.170299
  21 H :    0.041609
  22 C :   -0.054009
  23 H :    0.043842
  24 H :    0.029300
  25 C :   -0.048928
  26 H :    0.027686
  27 H :    0.027930
  28 C :   -0.063620
  29 H :    0.032716
  30 H :    0.016822
  31 H :    0.025906
  32 H :    0.027805
  33 H :    0.037390

  Mayer bond orders larger than 0.100000
B(  0-S ,  1-C ) :   1.1369 B(  0-S ,  4-C ) :   1.1401 B(  1-C ,  2-C ) :   1.5771
B(  1-C ,  4-C ) :   0.1005 B(  1-C , 32-H ) :   0.9681 B(  2-C ,  3-C ) :   1.2960
B(  2-C ,  6-C ) :   1.0015 B(  3-C ,  4-C ) :   1.5264 B(  3-C ,  5-H ) :   0.9758
B(  4-C , 20-C ) :   1.1130 B(  6-C ,  7-H ) :   0.9417 B(  6-C ,  8-H ) :   0.9318
B(  6-C ,  9-C ) :   1.0677 B(  9-C , 10-H ) :   0.9535 B(  9-C , 11-H ) :   0.9436
B(  9-C , 12-C ) :   1.1015 B( 12-C , 13-H ) :   0.9678 B( 12-C , 14-H ) :   0.9724
B( 12-C , 15-H ) :   0.9696 B( 16-S , 17-C ) :   1.1242 B( 16-S , 20-C ) :   1.1304
B( 17-C , 18-C ) :   1.6547 B( 17-C , 33-H ) :   0.9581 B( 18-C , 19-C ) :   1.2211
B( 18-C , 21-H ) :   0.9736 B( 19-C , 20-C ) :   1.5431 B( 19-C , 22-C ) :   1.0421
B( 22-C , 23-H ) :   0.9230 B( 22-C , 24-H ) :   0.9202 B( 22-C , 25-C ) :   1.0992
B( 25-C , 26-H ) :   0.9552 B( 25-C , 27-H ) :   0.9433 B( 25-C , 28-C ) :   1.0572
B( 28-C , 29-H ) :   0.9775 B( 28-C , 30-H ) :   0.9735 B( 28-C , 31-H ) :   0.9754

Dispersion correction           -0.013575106
FINAL SINGLE POINT ENERGY     -1339.853490022739

DIPOLE MOMENT
-------------
                                X             Y             Z
Electronic contribution:      3.51872       3.12864       0.22012
Nuclear contribution   :     -3.62162      -3.10573      -0.29156
                        -----------------------------------------
Total Dipole Moment    :     -0.10290       0.02291      -0.07145
                        -----------------------------------------
Magnitude (a.u.)       :      0.12735
Magnitude (Debye)      :      0.32370

Rotational constants in cm-1:     0.027046     0.007025     0.005663
Rotational constants in MHz :   810.833664   210.609855   169.768644

                             ****ORCA TERMINATED NORMALLY****
TOTAL RUN TIME: 0 days 0 hours 0 minutes 33 seconds 914 msec
