                         Program Version 4.2.1 -  RELEASE  -
|  1> ! wB97X-D3 SP def2-SVP
|  2> %pal
|  3> nprocs 16
|  4> end
|  5>
|  6> * xyz 0 1
|  7> S 	 2.31129 	 -17.3418 	 81.8716
|  8> C 	 2.20222 	 -18.3067 	 83.3426
|  9> C 	 3.12502 	 -17.8812 	 84.2948
| 10> C 	 4.02829 	 -16.9353 	 83.7447
| 11> C 	 3.84145 	 -16.6315 	 82.3762
| 12> H 	 4.86055 	 -16.5152 	 84.3231
| 13> C 	 3.10314 	 -18.4629 	 85.6766
| 14> H 	 4.16124 	 -18.4373 	 86.0743
| 15> H 	 2.91611 	 -19.5589 	 85.5466
| 16> C 	 2.34004 	 -17.702 	 86.7236
| 17> H 	 2.76478 	 -16.7199 	 86.9274
| 18> H 	 1.29111 	 -17.643 	 86.4794
| 19> C 	 2.28396 	 -18.3715 	 88.1091
| 20> H 	 3.23722 	 -18.5759 	 88.4812
| 21> H 	 1.7927 	 -17.6952 	 88.871
| 22> H 	 1.64983 	 -19.2581 	 88.1478
| 23> S 	 3.56762 	 -14.609 	 80.4958
| 24> C 	 5.01204 	 -13.8551 	 79.8829
| 25> C 	 6.11421 	 -14.4792 	 80.3526
| 26> C 	 5.90739 	 -15.5 	 81.3396
| 27> C 	 4.54149 	 -15.6406 	 81.5564
| 28> H 	 6.98274 	 -14.1947 	 79.8638
| 29> C 	 7.12223 	 -16.2 	 81.9971
| 30> H 	 7.00131 	 -16.1427 	 83.0725
| 31> H 	 7.98129 	 -15.6005 	 81.6856
| 32> C 	 7.34436 	 -17.6506 	 81.6644
| 33> H 	 7.07721 	 -17.681 	 80.6269
| 34> H 	 6.73666 	 -18.2948 	 82.2734
| 35> C 	 8.81472 	 -18.1582 	 81.8608
| 36> H 	 9.61634 	 -17.6232 	 81.2852
| 37> H 	 8.8878 	 -19.224 	 81.7835
| 38> H 	 8.96921 	 -17.944 	 82.8481
| 39> H 	 1.31894 	 -18.9176 	 83.4931
| 40> H 	 5.08438 	 -13.0637 	 79.1505
| 41> *
| 42>
| 43>                          ****END OF INPUT****

CARTESIAN COORDINATES (ANGSTROEM)
---------------------------------
  S      2.311290  -17.341800   81.871600
  C      2.202220  -18.306700   83.342600
  C      3.125020  -17.881200   84.294800
  C      4.028290  -16.935300   83.744700
  C      3.841450  -16.631500   82.376200
  H      4.860550  -16.515200   84.323100
  C      3.103140  -18.462900   85.676600
  H      4.161240  -18.437300   86.074300
  H      2.916110  -19.558900   85.546600
  C      2.340040  -17.702000   86.723600
  H      2.764780  -16.719900   86.927400
  H      1.291110  -17.643000   86.479400
  C      2.283960  -18.371500   88.109100
  H      3.237220  -18.575900   88.481200
  H      1.792700  -17.695200   88.871000
  H      1.649830  -19.258100   88.147800
  S      3.567620  -14.609000   80.495800
  C      5.012040  -13.855100   79.882900
  C      6.114210  -14.479200   80.352600
  C      5.907390  -15.500000   81.339600
  C      4.541490  -15.640600   81.556400
  H      6.982740  -14.194700   79.863800
  C      7.122230  -16.200000   81.997100
  H      7.001310  -16.142700   83.072500
  H      7.981290  -15.600500   81.685600
  C      7.344360  -17.650600   81.664400
  H      7.077210  -17.681000   80.626900
  H      6.736660  -18.294800   82.273400
  C      8.814720  -18.158200   81.860800
  H      9.616340  -17.623200   81.285200
  H      8.887800  -19.224000   81.783500
  H      8.969210  -17.944000   82.848100
  H      1.318940  -18.917600   83.493100
  H      5.084380  -13.063700   79.150500

 Total Charge           Charge          ....    0
 Multiplicity           Mult            ....    1
 Number of Electrons    NEL             ....  134
 Basis Dimension        Dim             ....  322

ORBITAL ENERGIES
----------------

  NO   OCC          E(Eh)            E(eV)
   0   2.0000     -88.966365     -2420.8979
   1   2.0000     -88.965089     -2420.8631
   2   2.0000     -10.334646      -281.2200
   3   2.0000     -10.331422      -281.1323
   4   2.0000     -10.314520      -280.6724
   5   2.0000     -10.312506      -280.6176
   6   2.0000     -10.307194      -280.4730
   7   2.0000     -10.302611      -280.3483
   8   2.0000     -10.299021      -280.2506
   9   2.0000     -10.298204      -280.2284
  10   2.0000     -10.293480      -280.0998
  11   2.0000     -10.286022      -279.8969
  12   2.0000     -10.284931      -279.8672
  13   2.0000     -10.279144      -279.7097
  14   2.0000     -10.277191      -279.6566
  15   2.0000     -10.273260      -279.5496
  16   2.0000      -8.081050      -219.8965
  17   2.0000      -8.079541      -219.8555
  18   2.0000      -6.039660      -164.3475
  19   2.0000      -6.038023      -164.3029
  20   2.0000      -6.035637      -164.2380
  21   2.0000      -6.034091      -164.1960
  22   2.0000      -6.031631      -164.1290
  23   2.0000      -6.030353      -164.0943
  24   2.0000      -1.005126       -27.3509
  25   2.0000      -0.983395       -26.7595
  26   2.0000      -0.915338       -24.9076
  27   2.0000      -0.910854       -24.7856
  28   2.0000      -0.871043       -23.7023
  29   2.0000      -0.852050       -23.1854
  30   2.0000      -0.845416       -23.0049
  31   2.0000      -0.815798       -22.1990
  32   2.0000      -0.786532       -21.4026
  33   2.0000      -0.773657       -21.0523
  34   2.0000      -0.710582       -19.3359
  35   2.0000      -0.699269       -19.0281
  36   2.0000      -0.690425       -18.7874
  37   2.0000      -0.661721       -18.0063
  38   2.0000      -0.637811       -17.3557
  39   2.0000      -0.621004       -16.8984
  40   2.0000      -0.596322       -16.2268
  41   2.0000      -0.577725       -15.7207
  42   2.0000      -0.572213       -15.5707
  43   2.0000      -0.559578       -15.2269
  44   2.0000      -0.527914       -14.3653
  45   2.0000      -0.523565       -14.2469
  46   2.0000      -0.519461       -14.1353
  47   2.0000      -0.514673       -14.0050
  48   2.0000      -0.507649       -13.8138
  49   2.0000      -0.499494       -13.5919
  50   2.0000      -0.488511       -13.2931
  51   2.0000      -0.483425       -13.1547
  52   2.0000      -0.472296       -12.8518
  53   2.0000      -0.461954       -12.5704
  54   2.0000      -0.461259       -12.5515
  55   2.0000      -0.448369       -12.2007
  56   2.0000      -0.445598       -12.1253
  57   2.0000      -0.436690       -11.8829
  58   2.0000      -0.432240       -11.7618
  59   2.0000      -0.427032       -11.6201
  60   2.0000      -0.422199       -11.4886
  61   2.0000      -0.413575       -11.2539
  62   2.0000      -0.410495       -11.1701
  63   2.0000      -0.353154        -9.6098
  64   2.0000      -0.333954        -9.0873
  65   2.0000      -0.329428        -8.9642
  66   2.0000      -0.285779        -7.7764
  67   0.0000       0.022412         0.6098
  68   0.0000       0.068553         1.8654
  69   0.0000       0.104693         2.8488
  70   0.0000       0.122529         3.3342
  71   0.0000       0.137316         3.7365

MULLIKEN ATOMIC CHARGES
-----------------------
   0 S :    0.092337
   1 C :   -0.129561
   2 C :   -0.066982
   3 C :    0.015351
   4 C :   -0.136460
   5 H :    0.014499
   6 C :    0.028113
   7 H :    0.017586
   8 H :    0.043877
   9 C :   -0.042875
  10 H :    0.034864
  11 H :    0.024643
  12 C :   -0.053900
  13 H :    0.014684
  14 H :    0.035676
  15 H :    0.029427
  16 S :    0.101287
  17 C :   -0.082289
  18 C :   -0.021646
  19 C :   -0.037432
  20 C :   -0.154212
  21 H :   -0.010727
  22 C :    0.089022
  23 H :    0.024305
  24 H :    0.017617
  25 C :   -0.062129
  26 H :    0.027313
  27 H :    0.033777
  28 C :   -0.026230
  29 H :    0.038985
  30 H :    0.033879
  31 H :    0.000879
  32 H :    0.055739
  33 H :    0.050584
Sum of atomic charges:    0.0000000

LOEWDIN ATOMIC CHARGES
----------------------
   0 S :    0.395966
   1 C :   -0.192012
   2 C :   -0.065082
   3 C :   -0.068425
   4 C :   -0.186651
   5 H :    0.030829
   6 C :   -0.042618
   7 H :    0.033344
   8 H :    0.040457
   9 C :   -0.039263
  10 H :    0.029791
  11 H :    0.022624
  12 C :   -0.062741
  13 H :    0.010547
  14 H :    0.033679
  15 H :    0.022997
  16 S :    0.394704
  17 C :   -0.183962
  18 C :   -0.068036
  19 C :   -0.050717
  20 C :   -0.187500
  21 H :    0.020186
  22 C :   -0.026222
  23 H :    0.027586
  24 H :    0.032019
  25 C :   -0.033302
  26 H :    0.020384
  27 H :    0.025263
  28 C :   -0.059124
  29 H :    0.030039
  30 H :    0.026050
  31 H :    0.011186
  32 H :    0.026254
  33 H :    0.031750

  Mayer bond orders larger than 0.100000
B(  0-S ,  1-C ) :   1.1465 B(  0-S ,  4-C ) :   1.1594 B(  1-C ,  2-C ) :   1.5720
B(  1-C ,  4-C ) :   0.1054 B(  1-C , 32-H ) :   0.9713 B(  2-C ,  3-C ) :   1.2865
B(  2-C ,  6-C ) :   1.0218 B(  3-C ,  4-C ) :   1.5249 B(  3-C ,  5-H ) :   0.9893
B(  4-C , 20-C ) :   1.0713 B(  6-C ,  7-H ) :   0.9338 B(  6-C ,  8-H ) :   0.9468
B(  6-C ,  9-C ) :   1.0674 B(  9-C , 10-H ) :   0.9521 B(  9-C , 11-H ) :   0.9573
B(  9-C , 12-C ) :   1.0857 B( 12-C , 13-H ) :   0.9746 B( 12-C , 14-H ) :   0.9744
B( 12-C , 15-H ) :   0.9765 B( 16-S , 17-C ) :   1.1319 B( 16-S , 20-C ) :   1.1349
B( 17-C , 18-C ) :   1.6538 B( 17-C , 33-H ) :   0.9650 B( 18-C , 19-C ) :   1.2205
B( 18-C , 21-H ) :   0.9957 B( 19-C , 20-C ) :   1.6004 B( 19-C , 22-C ) :   1.0340
B( 22-C , 23-H ) :   0.9287 B( 22-C , 24-H ) :   0.9351 B( 22-C , 25-C ) :   1.0654
B( 25-C , 26-H ) :   0.9614 B( 25-C , 27-H ) :   0.9511 B( 25-C , 28-C ) :   1.0811
B( 28-C , 29-H ) :   0.9756 B( 28-C , 30-H ) :   0.9752 B( 28-C , 31-H ) :   0.9722

Dispersion correction           -0.013514715
FINAL SINGLE POINT ENERGY     -1339.868624098910

DIPOLE MOMENT
-------------
                                X             Y             Z
Electronic contribution:    -14.01122      12.33638     -21.50019
Nuclear contribution   :     14.43206     -12.44179      21.92756
                        -----------------------------------------
Total Dipole Moment    :      0.42084      -0.10540       0.42737
                        -----------------------------------------
Magnitude (a.u.)       :      0.60899
Magnitude (Debye)      :      1.54792

Rotational constants in cm-1:     0.018063     0.007912     0.006275
Rotational constants in MHz :   541.508768   237.202988   188.109429

                             ****ORCA TERMINATED NORMALLY****
TOTAL RUN TIME: 0 days 0 hours 0 minutes 32 seconds 465 msec
