                         Program Version 4.2.1 -  RELEASE  -
|  1> ! wB97X-D3 SP def2-SVP
|  2> %pal
|  3> nprocs 16
|  4> end
|  5>
|  6> * xyz 0 1
|  7> S 	 -52.2047 	 59.4972 	 134.982
|  8> C 	 -52.1538 	 58.4321 	 133.502
|  9> C 	 -52.1447 	 59.1839 	 132.316
| 10> C 	 -52.1917 	 60.565 	 132.594
| 11> C 	 -52.3015 	 60.8942 	 133.914
| 12> H 	 -52.1733 	 61.3204 	 131.901
| 13> C 	 -51.8677 	 58.6496 	 130.921
| 14> H 	 -51.9923 	 57.5243 	 130.947
| 15> H 	 -50.8066 	 58.8872 	 130.794
| 16> C 	 -52.8296 	 59.1523 	 129.786
| 17> H 	 -53.8421 	 58.8531 	 130.039
| 18> H 	 -52.88 	 60.2477 	 129.84
| 19> C 	 -52.3274 	 58.6062 	 128.438
| 20> H 	 -52.8548 	 59.3518 	 127.836
| 21> H 	 -51.2777 	 58.7104 	 128.237
| 22> H 	 -52.7769 	 57.6754 	 128.197
| 23> S 	 -53.5025 	 62.6484 	 135.675
| 24> C 	 -53.2025 	 64.3684 	 135.498
| 25> C 	 -52.2574 	 64.6646 	 134.544
| 26> C 	 -51.6807 	 63.4791 	 133.939
| 27> C 	 -52.2228 	 62.27 	 134.459
| 28> H 	 -52.0225 	 65.6884 	 134.281
| 29> C 	 -50.6723 	 63.6545 	 132.867
| 30> H 	 -50.6781 	 64.682 	 132.589
| 31> H 	 -51.0157 	 63.1618 	 131.957
| 32> C 	 -49.2704 	 63.1094 	 133.24
| 33> H 	 -49.45 	 62.1951 	 133.852
| 34> H 	 -48.9714 	 63.7891 	 134.031
| 35> C 	 -48.1534 	 63.0453 	 132.162
| 36> H 	 -47.2316 	 62.5713 	 132.445
| 37> H 	 -47.7466 	 64.0543 	 131.898
| 38> H 	 -48.5337 	 62.5033 	 131.272
| 39> H 	 -52.0462 	 57.4441 	 133.533
| 40> H 	 -53.8414 	 65.0395 	 135.958
| 41> *
| 42>
| 43>                          ****END OF INPUT****

CARTESIAN COORDINATES (ANGSTROEM)
---------------------------------
  S    -52.204700   59.497200  134.982000
  C    -52.153800   58.432100  133.502000
  C    -52.144700   59.183900  132.316000
  C    -52.191700   60.565000  132.594000
  C    -52.301500   60.894200  133.914000
  H    -52.173300   61.320400  131.901000
  C    -51.867700   58.649600  130.921000
  H    -51.992300   57.524300  130.947000
  H    -50.806600   58.887200  130.794000
  C    -52.829600   59.152300  129.786000
  H    -53.842100   58.853100  130.039000
  H    -52.880000   60.247700  129.840000
  C    -52.327400   58.606200  128.438000
  H    -52.854800   59.351800  127.836000
  H    -51.277700   58.710400  128.237000
  H    -52.776900   57.675400  128.197000
  S    -53.502500   62.648400  135.675000
  C    -53.202500   64.368400  135.498000
  C    -52.257400   64.664600  134.544000
  C    -51.680700   63.479100  133.939000
  C    -52.222800   62.270000  134.459000
  H    -52.022500   65.688400  134.281000
  C    -50.672300   63.654500  132.867000
  H    -50.678100   64.682000  132.589000
  H    -51.015700   63.161800  131.957000
  C    -49.270400   63.109400  133.240000
  H    -49.450000   62.195100  133.852000
  H    -48.971400   63.789100  134.031000
  C    -48.153400   63.045300  132.162000
  H    -47.231600   62.571300  132.445000
  H    -47.746600   64.054300  131.898000
  H    -48.533700   62.503300  131.272000
  H    -52.046200   57.444100  133.533000
  H    -53.841400   65.039500  135.958000

 Total Charge           Charge          ....    0
 Multiplicity           Mult            ....    1
 Number of Electrons    NEL             ....  134
 Basis Dimension        Dim             ....  322

ORBITAL ENERGIES
----------------

  NO   OCC          E(Eh)            E(eV)
   0   2.0000     -88.966100     -2420.8907
   1   2.0000     -88.964169     -2420.8381
   2   2.0000     -10.333983      -281.2020
   3   2.0000     -10.329698      -281.0854
   4   2.0000     -10.315223      -280.6915
   5   2.0000     -10.310677      -280.5678
   6   2.0000     -10.309852      -280.5453
   7   2.0000     -10.300844      -280.3002
   8   2.0000     -10.298261      -280.2299
   9   2.0000     -10.297621      -280.2125
  10   2.0000     -10.293666      -280.1049
  11   2.0000     -10.288960      -279.9768
  12   2.0000     -10.288558      -279.9659
  13   2.0000     -10.285769      -279.8900
  14   2.0000     -10.282650      -279.8051
  15   2.0000     -10.278111      -279.6816
  16   2.0000      -8.079501      -219.8544
  17   2.0000      -8.078320      -219.8223
  18   2.0000      -6.038116      -164.3055
  19   2.0000      -6.036827      -164.2704
  20   2.0000      -6.034373      -164.2036
  21   2.0000      -6.032903      -164.1636
  22   2.0000      -6.030073      -164.0866
  23   2.0000      -6.029119      -164.0607
  24   2.0000      -0.997777       -27.1509
  25   2.0000      -0.975635       -26.5484
  26   2.0000      -0.909142       -24.7390
  27   2.0000      -0.907463       -24.6933
  28   2.0000      -0.867164       -23.5967
  29   2.0000      -0.849440       -23.1144
  30   2.0000      -0.845013       -22.9940
  31   2.0000      -0.815059       -22.1789
  32   2.0000      -0.783611       -21.3231
  33   2.0000      -0.771905       -21.0046
  34   2.0000      -0.712460       -19.3870
  35   2.0000      -0.703529       -19.1440
  36   2.0000      -0.694054       -18.8862
  37   2.0000      -0.665107       -18.0985
  38   2.0000      -0.645678       -17.5698
  39   2.0000      -0.624013       -16.9803
  40   2.0000      -0.597906       -16.2698
  41   2.0000      -0.568775       -15.4771
  42   2.0000      -0.563175       -15.3248
  43   2.0000      -0.553809       -15.0699
  44   2.0000      -0.528574       -14.3832
  45   2.0000      -0.522476       -14.2173
  46   2.0000      -0.518886       -14.1196
  47   2.0000      -0.511337       -13.9142
  48   2.0000      -0.503844       -13.7103
  49   2.0000      -0.497114       -13.5272
  50   2.0000      -0.492232       -13.3943
  51   2.0000      -0.486907       -13.2494
  52   2.0000      -0.475466       -12.9381
  53   2.0000      -0.462664       -12.5897
  54   2.0000      -0.458225       -12.4689
  55   2.0000      -0.453476       -12.3397
  56   2.0000      -0.446061       -12.1379
  57   2.0000      -0.441367       -12.0102
  58   2.0000      -0.429371       -11.6838
  59   2.0000      -0.427826       -11.6417
  60   2.0000      -0.424789       -11.5591
  61   2.0000      -0.410726       -11.1764
  62   2.0000      -0.401616       -10.9285
  63   2.0000      -0.346227        -9.4213
  64   2.0000      -0.332469        -9.0469
  65   2.0000      -0.328788        -8.9468
  66   2.0000      -0.285974        -7.7817
  67   0.0000       0.023252         0.6327
  68   0.0000       0.066966         1.8222
  69   0.0000       0.099595         2.7101
  70   0.0000       0.110585         3.0092
  71   0.0000       0.138480         3.7682

MULLIKEN ATOMIC CHARGES
-----------------------
   0 S :    0.091240
   1 C :   -0.071601
   2 C :   -0.057930
   3 C :    0.022868
   4 C :   -0.098124
   5 H :   -0.037492
   6 C :    0.026238
   7 H :    0.030367
   8 H :    0.051576
   9 C :   -0.113096
  10 H :    0.033784
  11 H :    0.031007
  12 C :   -0.003555
  13 H :    0.025490
  14 H :    0.039297
  15 H :    0.037645
  16 S :    0.082290
  17 C :   -0.062755
  18 C :   -0.019473
  19 C :   -0.100365
  20 C :   -0.121494
  21 H :    0.021590
  22 C :    0.110969
  23 H :    0.000160
  24 H :    0.011528
  25 C :   -0.087524
  26 H :    0.046229
  27 H :    0.018255
  28 C :   -0.032664
  29 H :    0.031369
  30 H :    0.033019
  31 H :    0.036537
  32 H :   -0.012367
  33 H :    0.036979
Sum of atomic charges:    0.0000000

LOEWDIN ATOMIC CHARGES
----------------------
   0 S :    0.368052
   1 C :   -0.156426
   2 C :   -0.053785
   3 C :   -0.060342
   4 C :   -0.182964
   5 H :    0.012757
   6 C :   -0.036654
   7 H :    0.034267
   8 H :    0.035897
   9 C :   -0.036368
  10 H :    0.028639
  11 H :    0.018918
  12 C :   -0.060602
  13 H :    0.034764
  14 H :    0.026278
  15 H :    0.024660
  16 S :    0.384165
  17 C :   -0.164162
  18 C :   -0.069010
  19 C :   -0.046581
  20 C :   -0.186313
  21 H :    0.033323
  22 C :   -0.032171
  23 H :    0.023742
  24 H :    0.024553
  25 C :   -0.046096
  26 H :    0.033594
  27 H :    0.024462
  28 C :   -0.070976
  29 H :    0.026963
  30 H :    0.031378
  31 H :    0.027386
  32 H :   -0.004659
  33 H :    0.013310

  Mayer bond orders larger than 0.100000
B(  0-S ,  1-C ) :   1.1149 B(  0-S ,  4-C ) :   1.1357 B(  1-C ,  2-C ) :   1.6179
B(  1-C , 32-H ) :   0.9844 B(  2-C ,  3-C ) :   1.2211 B(  2-C ,  6-C ) :   1.0159
B(  3-C ,  4-C ) :   1.6093 B(  3-C ,  5-H ) :   1.0069 B(  4-C , 20-C ) :   1.0090
B(  6-C ,  7-H ) :   0.9445 B(  6-C ,  8-H ) :   0.9440 B(  6-C ,  9-C ) :   1.0492
B(  9-C , 10-H ) :   0.9529 B(  9-C , 11-H ) :   0.9679 B(  9-C , 12-C ) :   1.0663
B( 12-C , 13-H ) :   0.9739 B( 12-C , 14-H ) :   0.9765 B( 12-C , 15-H ) :   0.9758
B( 16-S , 17-C ) :   1.1655 B( 16-S , 20-C ) :   1.1242 B( 17-C , 18-C ) :   1.6016
B( 17-C , 33-H ) :   0.9738 B( 18-C , 19-C ) :   1.2488 B( 18-C , 21-H ) :   0.9907
B( 19-C , 20-C ) :   1.5851 B( 19-C , 22-C ) :   1.0549 B( 22-C , 23-H ) :   0.9228
B( 22-C , 24-H ) :   0.9270 B( 22-C , 25-C ) :   1.0443 B( 25-C , 26-H ) :   0.9636
B( 25-C , 27-H ) :   0.9508 B( 25-C , 28-C ) :   1.0679 B( 28-C , 29-H ) :   0.9739
B( 28-C , 30-H ) :   0.9737 B( 28-C , 31-H ) :   0.9768

Dispersion correction           -0.014058908
FINAL SINGLE POINT ENERGY     -1339.855077540643

DIPOLE MOMENT
-------------
                                X             Y             Z
Electronic contribution:    -13.47460       0.53190      27.48319
Nuclear contribution   :     13.71875      -0.26054     -28.31772
                        -----------------------------------------
Total Dipole Moment    :      0.24416       0.27136      -0.83453
                        -----------------------------------------
Magnitude (a.u.)       :      0.91087
Magnitude (Debye)      :      2.31525

Rotational constants in cm-1:     0.016514     0.008800     0.007043
Rotational constants in MHz :   495.085046   263.826974   211.157842

                             ****ORCA TERMINATED NORMALLY****
TOTAL RUN TIME: 0 days 0 hours 0 minutes 36 seconds 989 msec
