                         Program Version 4.2.1 -  RELEASE  -
|  1> ! wB97X-D3 SP def2-SVP
|  2> %pal
|  3> nprocs 16
|  4> end
|  5>
|  6> * xyz 0 1
|  7> S 	 -71.2747 	 48.0901 	 133.784
|  8> C 	 -72.2922 	 49.5519 	 133.784
|  9> C 	 -73.4508 	 49.2983 	 134.465
| 10> C 	 -73.5283 	 47.928 	 134.834
| 11> C 	 -72.4441 	 47.125 	 134.745
| 12> H 	 -74.4109 	 47.7071 	 135.338
| 13> C 	 -74.5461 	 50.3447 	 134.528
| 14> H 	 -75.1247 	 50.0592 	 133.668
| 15> H 	 -74.0929 	 51.2902 	 134.402
| 16> C 	 -75.4925 	 50.3187 	 135.682
| 17> H 	 -75.9818 	 49.3212 	 135.769
| 18> H 	 -75.0165 	 50.3667 	 136.58
| 19> C 	 -76.4976 	 51.4338 	 135.629
| 20> H 	 -77.1024 	 51.3825 	 134.736
| 21> H 	 -77.1289 	 51.4542 	 136.541
| 22> H 	 -76.0191 	 52.3347 	 135.556
| 23> S 	 -73.9048 	 44.9511 	 135.599
| 24> C 	 -73.2095 	 43.4239 	 136.128
| 25> C 	 -71.8264 	 43.5832 	 136.052
| 26> C 	 -71.4038 	 44.8333 	 135.518
| 27> C 	 -72.3737 	 45.7549 	 135.238
| 28> H 	 -71.2162 	 42.7594 	 136.433
| 29> C 	 -69.9171 	 45.1194 	 135.385
| 30> H 	 -69.8043 	 45.9945 	 136.056
| 31> H 	 -69.8455 	 45.3787 	 134.365
| 32> C 	 -68.8555 	 44.0871 	 135.651
| 33> H 	 -69.1357 	 43.132 	 135.202
| 34> H 	 -68.8523 	 43.8608 	 136.747
| 35> C 	 -67.4538 	 44.428 	 135.097
| 36> H 	 -66.9175 	 45.2248 	 135.645
| 37> H 	 -67.4466 	 44.7542 	 134.034
| 38> H 	 -66.9208 	 43.5135 	 135.227
| 39> H 	 -72.1087 	 50.4931 	 133.421
| 40> H 	 -73.7432 	 42.5313 	 136.507
| 41> *
| 42>
| 43>                          ****END OF INPUT****

CARTESIAN COORDINATES (ANGSTROEM)
---------------------------------
  S    -71.274700   48.090100  133.784000
  C    -72.292200   49.551900  133.784000
  C    -73.450800   49.298300  134.465000
  C    -73.528300   47.928000  134.834000
  C    -72.444100   47.125000  134.745000
  H    -74.410900   47.707100  135.338000
  C    -74.546100   50.344700  134.528000
  H    -75.124700   50.059200  133.668000
  H    -74.092900   51.290200  134.402000
  C    -75.492500   50.318700  135.682000
  H    -75.981800   49.321200  135.769000
  H    -75.016500   50.366700  136.580000
  C    -76.497600   51.433800  135.629000
  H    -77.102400   51.382500  134.736000
  H    -77.128900   51.454200  136.541000
  H    -76.019100   52.334700  135.556000
  S    -73.904800   44.951100  135.599000
  C    -73.209500   43.423900  136.128000
  C    -71.826400   43.583200  136.052000
  C    -71.403800   44.833300  135.518000
  C    -72.373700   45.754900  135.238000
  H    -71.216200   42.759400  136.433000
  C    -69.917100   45.119400  135.385000
  H    -69.804300   45.994500  136.056000
  H    -69.845500   45.378700  134.365000
  C    -68.855500   44.087100  135.651000
  H    -69.135700   43.132000  135.202000
  H    -68.852300   43.860800  136.747000
  C    -67.453800   44.428000  135.097000
  H    -66.917500   45.224800  135.645000
  H    -67.446600   44.754200  134.034000
  H    -66.920800   43.513500  135.227000
  H    -72.108700   50.493100  133.421000
  H    -73.743200   42.531300  136.507000

 Total Charge           Charge          ....    0
 Multiplicity           Mult            ....    1
 Number of Electrons    NEL             ....  134
 Basis Dimension        Dim             ....  322

ORBITAL ENERGIES
----------------

  NO   OCC          E(Eh)            E(eV)
   0   2.0000     -88.966706     -2420.9071
   1   2.0000     -88.962218     -2420.7850
   2   2.0000     -10.338548      -281.3262
   3   2.0000     -10.331159      -281.1251
   4   2.0000     -10.324939      -280.9559
   5   2.0000     -10.307662      -280.4858
   6   2.0000     -10.302875      -280.3555
   7   2.0000     -10.295423      -280.1527
   8   2.0000     -10.295344      -280.1506
   9   2.0000     -10.289590      -279.9940
  10   2.0000     -10.287732      -279.9434
  11   2.0000     -10.283807      -279.8366
  12   2.0000     -10.283099      -279.8174
  13   2.0000     -10.281138      -279.7640
  14   2.0000     -10.276936      -279.6497
  15   2.0000     -10.271541      -279.5028
  16   2.0000      -8.079608      -219.8573
  17   2.0000      -8.076388      -219.7697
  18   2.0000      -6.038530      -164.3168
  19   2.0000      -6.035102      -164.2235
  20   2.0000      -6.034343      -164.2028
  21   2.0000      -6.030822      -164.1070
  22   2.0000      -6.030029      -164.0854
  23   2.0000      -6.027087      -164.0054
  24   2.0000      -1.007418       -27.4132
  25   2.0000      -0.986182       -26.8354
  26   2.0000      -0.923811       -25.1382
  27   2.0000      -0.910041       -24.7635
  28   2.0000      -0.878845       -23.9146
  29   2.0000      -0.850827       -23.1522
  30   2.0000      -0.846711       -23.0402
  31   2.0000      -0.819174       -22.2909
  32   2.0000      -0.784094       -21.3363
  33   2.0000      -0.774909       -21.0863
  34   2.0000      -0.721834       -19.6421
  35   2.0000      -0.705730       -19.2039
  36   2.0000      -0.698358       -19.0033
  37   2.0000      -0.662945       -18.0397
  38   2.0000      -0.632714       -17.2170
  39   2.0000      -0.623121       -16.9560
  40   2.0000      -0.594429       -16.1752
  41   2.0000      -0.581398       -15.8207
  42   2.0000      -0.575904       -15.6712
  43   2.0000      -0.573053       -15.5936
  44   2.0000      -0.536610       -14.6019
  45   2.0000      -0.532992       -14.5034
  46   2.0000      -0.520010       -14.1502
  47   2.0000      -0.514329       -13.9956
  48   2.0000      -0.509376       -13.8608
  49   2.0000      -0.503950       -13.7132
  50   2.0000      -0.492431       -13.3997
  51   2.0000      -0.482498       -13.1294
  52   2.0000      -0.476256       -12.9596
  53   2.0000      -0.473223       -12.8770
  54   2.0000      -0.458265       -12.4700
  55   2.0000      -0.450257       -12.2521
  56   2.0000      -0.444481       -12.0949
  57   2.0000      -0.438799       -11.9403
  58   2.0000      -0.427736       -11.6393
  59   2.0000      -0.423306       -11.5187
  60   2.0000      -0.420646       -11.4464
  61   2.0000      -0.409939       -11.1550
  62   2.0000      -0.400351       -10.8941
  63   2.0000      -0.364356        -9.9146
  64   2.0000      -0.328060        -8.9270
  65   2.0000      -0.326269        -8.8782
  66   2.0000      -0.286217        -7.7884
  67   0.0000       0.018261         0.4969
  68   0.0000       0.086251         2.3470
  69   0.0000       0.113174         3.0796
  70   0.0000       0.122280         3.3274
  71   0.0000       0.130253         3.5444

MULLIKEN ATOMIC CHARGES
-----------------------
   0 S :    0.092309
   1 C :   -0.075600
   2 C :   -0.114067
   3 C :   -0.000937
   4 C :   -0.056594
   5 H :   -0.019064
   6 C :    0.091715
   7 H :    0.041981
   8 H :    0.008577
   9 C :   -0.068986
  10 H :    0.030152
  11 H :    0.002147
  12 C :    0.005588
  13 H :    0.018707
  14 H :    0.039062
  15 H :    0.001424
  16 S :    0.071889
  17 C :   -0.088915
  18 C :   -0.062353
  19 C :   -0.071973
  20 C :   -0.123315
  21 H :    0.026706
  22 C :    0.071153
  23 H :    0.049195
  24 H :    0.020176
  25 C :   -0.101754
  26 H :    0.024723
  27 H :    0.032879
  28 C :   -0.035234
  29 H :    0.038031
  30 H :    0.041968
  31 H :    0.031562
  32 H :    0.003570
  33 H :    0.075278
Sum of atomic charges:    0.0000000

LOEWDIN ATOMIC CHARGES
----------------------
   0 S :    0.373393
   1 C :   -0.173922
   2 C :   -0.056421
   3 C :   -0.072241
   4 C :   -0.170026
   5 H :    0.010911
   6 C :   -0.022352
   7 H :    0.040520
   8 H :    0.024656
   9 C :   -0.040832
  10 H :    0.028063
  11 H :    0.011144
  12 C :   -0.051223
  13 H :    0.023683
  14 H :    0.033756
  15 H :    0.012071
  16 S :    0.402298
  17 C :   -0.183612
  18 C :   -0.083943
  19 C :   -0.060679
  20 C :   -0.185860
  21 H :    0.033950
  22 C :   -0.039967
  23 H :    0.040898
  24 H :    0.024412
  25 C :   -0.047340
  26 H :    0.022441
  27 H :    0.027880
  28 C :   -0.061543
  29 H :    0.027576
  30 H :    0.031123
  31 H :    0.025646
  32 H :    0.012455
  33 H :    0.043083

  Mayer bond orders larger than 0.100000
B(  0-S ,  1-C ) :   1.1175 B(  0-S ,  4-C ) :   1.0965 B(  1-C ,  2-C ) :   1.6259
B(  1-C , 32-H ) :   0.9728 B(  2-C ,  3-C ) :   1.2671 B(  2-C ,  6-C ) :   1.0202
B(  3-C ,  4-C ) :   1.5581 B(  3-C ,  5-H ) :   0.9877 B(  4-C , 20-C ) :   1.1080
B(  6-C ,  7-H ) :   0.9324 B(  6-C ,  8-H ) :   0.9398 B(  6-C ,  9-C ) :   1.0725
B(  9-C , 10-H ) :   0.9425 B(  9-C , 11-H ) :   0.9546 B(  9-C , 12-C ) :   1.0965
B( 12-C , 13-H ) :   0.9721 B( 12-C , 14-H ) :   0.9714 B( 12-C , 15-H ) :   0.9696
B( 16-S , 17-C ) :   1.1640 B( 16-S , 20-C ) :   1.1236 B( 17-C , 18-C ) :   1.5753
B( 17-C , 20-C ) :   0.1010 B( 17-C , 33-H ) :   0.9635 B( 18-C , 19-C ) :   1.2608
B( 18-C , 21-H ) :   0.9868 B( 19-C , 20-C ) :   1.5848 B( 19-C , 22-C ) :   1.0048
B( 22-C , 23-H ) :   0.9328 B( 22-C , 24-H ) :   0.9290 B( 22-C , 25-C ) :   1.1048
B( 25-C , 26-H ) :   0.9490 B( 25-C , 27-H ) :   0.9429 B( 25-C , 28-C ) :   1.0813
B( 28-C , 29-H ) :   0.9757 B( 28-C , 30-H ) :   0.9737 B( 28-C , 31-H ) :   0.9737

Dispersion correction           -0.013086474
FINAL SINGLE POINT ENERGY     -1339.852566181669

DIPOLE MOMENT
-------------
                                X             Y             Z
Electronic contribution:     -2.65495      -7.46126      -4.31232
Nuclear contribution   :      2.60940       7.55291       4.55894
                        -----------------------------------------
Total Dipole Moment    :     -0.04555       0.09165       0.24662
                        -----------------------------------------
Magnitude (a.u.)       :      0.26702
Magnitude (Debye)      :      0.67870

Rotational constants in cm-1:     0.022980     0.007073     0.005629
Rotational constants in MHz :   688.932580   212.031701   168.754460

                             ****ORCA TERMINATED NORMALLY****
TOTAL RUN TIME: 0 days 0 hours 0 minutes 34 seconds 630 msec
