                         Program Version 4.2.1 -  RELEASE  -
|  1> ! wB97X-D3 SP def2-SVP
|  2> %pal
|  3> nprocs 16
|  4> end
|  5>
|  6> * xyz 0 1
|  7> S 	 -97.9268 	 51.4106 	 122.967
|  8> C 	 -96.5627 	 50.4027 	 123.291
|  9> C 	 -96.8082 	 49.6776 	 124.421
| 10> C 	 -98.1344 	 49.8285 	 124.963
| 11> C 	 -98.9507 	 50.7195 	 124.303
| 12> H 	 -98.6399 	 49.2071 	 125.695
| 13> C 	 -95.953 	 48.584 	 124.961
| 14> H 	 -95.058 	 48.684 	 124.373
| 15> H 	 -96.341 	 47.5788 	 125.079
| 16> C 	 -95.2502 	 48.9816 	 126.276
| 17> H 	 -95.1228 	 50.0324 	 126.415
| 18> H 	 -95.982 	 48.713 	 127.093
| 19> C 	 -93.8384 	 48.3725 	 126.615
| 20> H 	 -93.0024 	 48.6169 	 125.896
| 21> H 	 -93.6537 	 48.6341 	 127.724
| 22> H 	 -93.9907 	 47.3311 	 126.541
| 23> S 	 -101.345 	 50.4509 	 122.961
| 24> C 	 -102.836 	 50.829 	 123.749
| 25> C 	 -102.643 	 51.1911 	 125.064
| 26> C 	 -101.281 	 51.1166 	 125.481
| 27> C 	 -100.432 	 50.8544 	 124.396
| 28> H 	 -103.396 	 51.43 	 125.761
| 29> C 	 -100.937 	 51.3462 	 126.914
| 30> H 	 -100.109 	 52.0641 	 126.921
| 31> H 	 -100.59 	 50.3786 	 127.313
| 32> C 	 -102.081 	 51.9755 	 127.823
| 33> H 	 -102.87 	 51.2482 	 127.844
| 34> H 	 -102.486 	 52.8915 	 127.341
| 35> C 	 -101.53 	 52.3607 	 129.219
| 36> H 	 -102.245 	 52.8036 	 129.867
| 37> H 	 -100.687 	 52.962 	 129.257
| 38> H 	 -101.154 	 51.4607 	 129.764
| 39> H 	 -95.6154 	 50.2683 	 122.797
| 40> H 	 -103.838 	 50.7324 	 123.373
| 41> *
| 42>
| 43>                          ****END OF INPUT****

CARTESIAN COORDINATES (ANGSTROEM)
---------------------------------
  S    -97.926800   51.410600  122.967000
  C    -96.562700   50.402700  123.291000
  C    -96.808200   49.677600  124.421000
  C    -98.134400   49.828500  124.963000
  C    -98.950700   50.719500  124.303000
  H    -98.639900   49.207100  125.695000
  C    -95.953000   48.584000  124.961000
  H    -95.058000   48.684000  124.373000
  H    -96.341000   47.578800  125.079000
  C    -95.250200   48.981600  126.276000
  H    -95.122800   50.032400  126.415000
  H    -95.982000   48.713000  127.093000
  C    -93.838400   48.372500  126.615000
  H    -93.002400   48.616900  125.896000
  H    -93.653700   48.634100  127.724000
  H    -93.990700   47.331100  126.541000
  S    -101.345000   50.450900  122.961000
  C    -102.836000   50.829000  123.749000
  C    -102.643000   51.191100  125.064000
  C    -101.281000   51.116600  125.481000
  C    -100.432000   50.854400  124.396000
  H    -103.396000   51.430000  125.761000
  C    -100.937000   51.346200  126.914000
  H    -100.109000   52.064100  126.921000
  H    -100.590000   50.378600  127.313000
  C    -102.081000   51.975500  127.823000
  H    -102.870000   51.248200  127.844000
  H    -102.486000   52.891500  127.341000
  C    -101.530000   52.360700  129.219000
  H    -102.245000   52.803600  129.867000
  H    -100.687000   52.962000  129.257000
  H    -101.154000   51.460700  129.764000
  H    -95.615400   50.268300  122.797000
  H    -103.838000   50.732400  123.373000

 Total Charge           Charge          ....    0
 Multiplicity           Mult            ....    1
 Number of Electrons    NEL             ....  134
 Basis Dimension        Dim             ....  322

ORBITAL ENERGIES
----------------

  NO   OCC          E(Eh)            E(eV)
   0   2.0000     -88.968953     -2420.9683
   1   2.0000     -88.963244     -2420.8130
   2   2.0000     -10.335391      -281.2403
   3   2.0000     -10.330203      -281.0991
   4   2.0000     -10.315001      -280.6854
   5   2.0000     -10.314007      -280.6584
   6   2.0000     -10.303498      -280.3724
   7   2.0000     -10.298591      -280.2389
   8   2.0000     -10.298034      -280.2237
   9   2.0000     -10.296879      -280.1923
  10   2.0000     -10.293297      -280.0948
  11   2.0000     -10.288057      -279.9523
  12   2.0000     -10.287330      -279.9325
  13   2.0000     -10.287075      -279.9255
  14   2.0000     -10.285241      -279.8756
  15   2.0000     -10.277036      -279.6524
  16   2.0000      -8.083710      -219.9689
  17   2.0000      -8.077263      -219.7935
  18   2.0000      -6.042246      -164.4179
  19   2.0000      -6.038134      -164.3060
  20   2.0000      -6.036022      -164.2485
  21   2.0000      -6.034517      -164.2076
  22   2.0000      -6.031739      -164.1320
  23   2.0000      -6.027878      -164.0269
  24   2.0000      -1.004622       -27.3371
  25   2.0000      -0.986261       -26.8375
  26   2.0000      -0.910457       -24.7748
  27   2.0000      -0.908040       -24.7090
  28   2.0000      -0.869369       -23.6567
  29   2.0000      -0.853332       -23.2203
  30   2.0000      -0.841101       -22.8875
  31   2.0000      -0.818761       -22.2796
  32   2.0000      -0.781070       -21.2540
  33   2.0000      -0.770481       -20.9659
  34   2.0000      -0.717835       -19.5333
  35   2.0000      -0.702444       -19.1145
  36   2.0000      -0.688891       -18.7457
  37   2.0000      -0.656368       -17.8607
  38   2.0000      -0.643777       -17.5181
  39   2.0000      -0.617136       -16.7931
  40   2.0000      -0.597918       -16.2702
  41   2.0000      -0.581108       -15.8127
  42   2.0000      -0.570766       -15.5313
  43   2.0000      -0.558141       -15.1878
  44   2.0000      -0.524610       -14.2754
  45   2.0000      -0.519666       -14.1408
  46   2.0000      -0.514650       -14.0043
  47   2.0000      -0.511205       -13.9106
  48   2.0000      -0.506670       -13.7872
  49   2.0000      -0.502818       -13.6824
  50   2.0000      -0.487534       -13.2665
  51   2.0000      -0.486087       -13.2271
  52   2.0000      -0.475118       -12.9286
  53   2.0000      -0.473156       -12.8752
  54   2.0000      -0.462776       -12.5928
  55   2.0000      -0.458133       -12.4664
  56   2.0000      -0.440565       -11.9884
  57   2.0000      -0.434807       -11.8317
  58   2.0000      -0.426208       -11.5977
  59   2.0000      -0.425466       -11.5775
  60   2.0000      -0.419327       -11.4105
  61   2.0000      -0.408677       -11.1207
  62   2.0000      -0.405748       -11.0410
  63   2.0000      -0.350179        -9.5288
  64   2.0000      -0.331384        -9.0174
  65   2.0000      -0.322717        -8.7816
  66   2.0000      -0.295242        -8.0339
  67   0.0000       0.028893         0.7862
  68   0.0000       0.069540         1.8923
  69   0.0000       0.119027         3.2389
  70   0.0000       0.122241         3.3264
  71   0.0000       0.134516         3.6604

MULLIKEN ATOMIC CHARGES
-----------------------
   0 S :    0.094367
   1 C :   -0.085701
   2 C :   -0.115359
   3 C :    0.048774
   4 C :   -0.160935
   5 H :    0.014744
   6 C :    0.103200
   7 H :   -0.005189
   8 H :    0.049049
   9 C :   -0.127749
  10 H :    0.029212
  11 H :    0.022665
  12 C :   -0.074006
  13 H :    0.052158
  14 H :    0.055260
  15 H :    0.021491
  16 S :    0.130832
  17 C :   -0.058736
  18 C :   -0.036684
  19 C :   -0.048484
  20 C :   -0.175238
  21 H :   -0.000575
  22 C :    0.051791
  23 H :    0.039653
  24 H :    0.044313
  25 C :   -0.114429
  26 H :    0.038681
  27 H :    0.046478
  28 C :    0.002928
  29 H :    0.028345
  30 H :    0.015627
  31 H :    0.020546
  32 H :    0.044926
  33 H :    0.048044
Sum of atomic charges:    0.0000000

LOEWDIN ATOMIC CHARGES
----------------------
   0 S :    0.380728
   1 C :   -0.198137
   2 C :   -0.070163
   3 C :   -0.059617
   4 C :   -0.176469
   5 H :    0.031324
   6 C :   -0.035106
   7 H :    0.027681
   8 H :    0.034147
   9 C :   -0.046771
  10 H :    0.017918
  11 H :    0.021377
  12 C :   -0.074359
  13 H :    0.031140
  14 H :    0.042546
  15 H :    0.014454
  16 S :    0.430665
  17 C :   -0.189827
  18 C :   -0.071791
  19 C :   -0.052514
  20 C :   -0.209265
  21 H :    0.022899
  22 C :   -0.032628
  23 H :    0.036598
  24 H :    0.036130
  25 C :   -0.036599
  26 H :    0.019452
  27 H :    0.029821
  28 C :   -0.061678
  29 H :    0.023674
  30 H :    0.017445
  31 H :    0.031037
  32 H :    0.035841
  33 H :    0.030046

  Mayer bond orders larger than 0.100000
B(  0-S ,  1-C ) :   1.1284 B(  0-S ,  4-C ) :   1.1252 B(  1-C ,  2-C ) :   1.6377
B(  1-C , 32-H ) :   0.9602 B(  2-C ,  3-C ) :   1.2071 B(  2-C ,  6-C ) :   1.0453
B(  3-C ,  4-C ) :   1.6084 B(  3-C ,  5-H ) :   0.9901 B(  4-C , 20-C ) :   1.0322
B(  6-C ,  7-H ) :   0.9324 B(  6-C ,  8-H ) :   0.9501 B(  6-C ,  9-C ) :   1.0308
B(  9-C , 10-H ) :   0.9613 B(  9-C , 11-H ) :   0.9548 B(  9-C , 12-C ) :   1.0781
B( 12-C , 13-H ) :   0.9729 B( 12-C , 14-H ) :   0.9729 B( 12-C , 15-H ) :   0.9769
B( 16-S , 17-C ) :   1.1665 B( 16-S , 20-C ) :   1.1536 B( 17-C , 18-C ) :   1.5723
B( 17-C , 33-H ) :   0.9628 B( 18-C , 19-C ) :   1.2921 B( 18-C , 21-H ) :   0.9849
B( 19-C , 20-C ) :   1.5727 B( 19-C , 22-C ) :   1.0287 B( 22-C , 23-H ) :   0.9330
B( 22-C , 24-H ) :   0.9239 B( 22-C , 25-C ) :   1.0807 B( 25-C , 26-H ) :   0.9472
B( 25-C , 27-H ) :   0.9561 B( 25-C , 28-C ) :   1.0782 B( 28-C , 29-H ) :   0.9736
B( 28-C , 30-H ) :   0.9748 B( 28-C , 31-H ) :   0.9703

Dispersion correction           -0.013127910
FINAL SINGLE POINT ENERGY     -1339.853169732598

DIPOLE MOMENT
-------------
                                X             Y             Z
Electronic contribution:    -10.12713       4.38447     -27.46391
Nuclear contribution   :     10.05975      -4.71727      28.14634
                        -----------------------------------------
Total Dipole Moment    :     -0.06738      -0.33279       0.68243
                        -----------------------------------------
Magnitude (a.u.)       :      0.76224
Magnitude (Debye)      :      1.93745

Rotational constants in cm-1:     0.017231     0.007803     0.005852
Rotational constants in MHz :   516.587160   233.914345   175.429350

                             ****ORCA TERMINATED NORMALLY****
TOTAL RUN TIME: 0 days 0 hours 0 minutes 32 seconds 95 msec
