                         Program Version 4.2.1 -  RELEASE  -
|  1> ! wB97X-D3 SP def2-SVP
|  2> %pal
|  3> nprocs 16
|  4> end
|  5>
|  6> * xyz 0 1
|  7> S 	 -25.2883 	 52.135 	 65.0138
|  8> C 	 -24.3678 	 51.1806 	 63.9253
|  9> C 	 -24.676 	 49.8113 	 64.1209
| 10> C 	 -25.5405 	 49.6027 	 65.2497
| 11> C 	 -25.9688 	 50.7453 	 65.8961
| 12> H 	 -25.7534 	 48.6789 	 65.784
| 13> C 	 -24.1377 	 48.7781 	 63.197
| 14> H 	 -23.1359 	 48.6769 	 63.5138
| 15> H 	 -24.2931 	 49.2491 	 62.2421
| 16> C 	 -24.6607 	 47.3626 	 63.057
| 17> H 	 -23.9593 	 46.7975 	 62.4146
| 18> H 	 -24.6405 	 46.9241 	 64.024
| 19> C 	 -26.1531 	 47.275 	 62.4727
| 20> H 	 -26.1558 	 47.6628 	 61.4251
| 21> H 	 -26.569 	 46.2957 	 62.5806
| 22> H 	 -26.7829 	 48.0137 	 62.9496
| 23> S 	 -25.5844 	 51.4504 	 68.4845
| 24> C 	 -26.8704 	 51.1184 	 69.6338
| 25> C 	 -27.8918 	 50.4361 	 69.051
| 26> C 	 -27.7047 	 50.114 	 67.688
| 27> C 	 -26.6027 	 50.7741 	 67.2111
| 28> H 	 -28.732 	 50.2605 	 69.7591
| 29> C 	 -28.6823 	 49.2656 	 66.9232
| 30> H 	 -28.7384 	 49.4478 	 65.8454
| 31> H 	 -29.6817 	 49.6307 	 67.1857
| 32> C 	 -28.6684 	 47.7242 	 67.1537
| 33> H 	 -28.6915 	 47.6975 	 68.2223
| 34> H 	 -27.7737 	 47.2449 	 66.8089
| 35> C 	 -29.7952 	 46.9563 	 66.4796
| 36> H 	 -29.8026 	 45.9137 	 66.7222
| 37> H 	 -29.6942 	 46.9886 	 65.3834
| 38> H 	 -30.7892 	 47.3147 	 66.8432
| 39> H 	 -23.7923 	 51.5594 	 63.1483
| 40> H 	 -26.9176 	 51.5837 	 70.6489
| 41> *
| 42>
| 43>                          ****END OF INPUT****

CARTESIAN COORDINATES (ANGSTROEM)
---------------------------------
  S    -25.288300   52.135000   65.013800
  C    -24.367800   51.180600   63.925300
  C    -24.676000   49.811300   64.120900
  C    -25.540500   49.602700   65.249700
  C    -25.968800   50.745300   65.896100
  H    -25.753400   48.678900   65.784000
  C    -24.137700   48.778100   63.197000
  H    -23.135900   48.676900   63.513800
  H    -24.293100   49.249100   62.242100
  C    -24.660700   47.362600   63.057000
  H    -23.959300   46.797500   62.414600
  H    -24.640500   46.924100   64.024000
  C    -26.153100   47.275000   62.472700
  H    -26.155800   47.662800   61.425100
  H    -26.569000   46.295700   62.580600
  H    -26.782900   48.013700   62.949600
  S    -25.584400   51.450400   68.484500
  C    -26.870400   51.118400   69.633800
  C    -27.891800   50.436100   69.051000
  C    -27.704700   50.114000   67.688000
  C    -26.602700   50.774100   67.211100
  H    -28.732000   50.260500   69.759100
  C    -28.682300   49.265600   66.923200
  H    -28.738400   49.447800   65.845400
  H    -29.681700   49.630700   67.185700
  C    -28.668400   47.724200   67.153700
  H    -28.691500   47.697500   68.222300
  H    -27.773700   47.244900   66.808900
  C    -29.795200   46.956300   66.479600
  H    -29.802600   45.913700   66.722200
  H    -29.694200   46.988600   65.383400
  H    -30.789200   47.314700   66.843200
  H    -23.792300   51.559400   63.148300
  H    -26.917600   51.583700   70.648900

 Total Charge           Charge          ....    0
 Multiplicity           Mult            ....    1
 Number of Electrons    NEL             ....  134
 Basis Dimension        Dim             ....  322

ORBITAL ENERGIES
----------------

  NO   OCC          E(Eh)            E(eV)
   0   2.0000     -88.964778     -2420.8547
   1   2.0000     -88.963019     -2420.8068
   2   2.0000     -10.327491      -281.0253
   3   2.0000     -10.327326      -281.0208
   4   2.0000     -10.315690      -280.7042
   5   2.0000     -10.310834      -280.5721
   6   2.0000     -10.305354      -280.4229
   7   2.0000     -10.303857      -280.3822
   8   2.0000     -10.293698      -280.1058
   9   2.0000     -10.293505      -280.1005
  10   2.0000     -10.292683      -280.0781
  11   2.0000     -10.290423      -280.0166
  12   2.0000     -10.285105      -279.8719
  13   2.0000     -10.282591      -279.8035
  14   2.0000     -10.282059      -279.7890
  15   2.0000     -10.281073      -279.7622
  16   2.0000      -8.079296      -219.8488
  17   2.0000      -8.077807      -219.8083
  18   2.0000      -6.037778      -164.2963
  19   2.0000      -6.036344      -164.2573
  20   2.0000      -6.033587      -164.1822
  21   2.0000      -6.032455      -164.1514
  22   2.0000      -6.030340      -164.0939
  23   2.0000      -6.028365      -164.0401
  24   2.0000      -1.007484       -27.4150
  25   2.0000      -0.985055       -26.8047
  26   2.0000      -0.912658       -24.8347
  27   2.0000      -0.908988       -24.7348
  28   2.0000      -0.871532       -23.7156
  29   2.0000      -0.855043       -23.2669
  30   2.0000      -0.840471       -22.8704
  31   2.0000      -0.817717       -22.2512
  32   2.0000      -0.784382       -21.3441
  33   2.0000      -0.773352       -21.0440
  34   2.0000      -0.713052       -19.4031
  35   2.0000      -0.701702       -19.0943
  36   2.0000      -0.694187       -18.8898
  37   2.0000      -0.655427       -17.8351
  38   2.0000      -0.642029       -17.4705
  39   2.0000      -0.617529       -16.8038
  40   2.0000      -0.598777       -16.2935
  41   2.0000      -0.570982       -15.5372
  42   2.0000      -0.567266       -15.4361
  43   2.0000      -0.560440       -15.2503
  44   2.0000      -0.534396       -14.5417
  45   2.0000      -0.527010       -14.3407
  46   2.0000      -0.520714       -14.1694
  47   2.0000      -0.517459       -14.0808
  48   2.0000      -0.508076       -13.8254
  49   2.0000      -0.499446       -13.5906
  50   2.0000      -0.490022       -13.3342
  51   2.0000      -0.480707       -13.0807
  52   2.0000      -0.471518       -12.8307
  53   2.0000      -0.463592       -12.6150
  54   2.0000      -0.459357       -12.4997
  55   2.0000      -0.451569       -12.2878
  56   2.0000      -0.440306       -11.9813
  57   2.0000      -0.434326       -11.8186
  58   2.0000      -0.430359       -11.7107
  59   2.0000      -0.427891       -11.6435
  60   2.0000      -0.420070       -11.4307
  61   2.0000      -0.413700       -11.2574
  62   2.0000      -0.412596       -11.2273
  63   2.0000      -0.347365        -9.4523
  64   2.0000      -0.331447        -9.0191
  65   2.0000      -0.320876        -8.7315
  66   2.0000      -0.295355        -8.0370
  67   0.0000       0.028529         0.7763
  68   0.0000       0.068575         1.8660
  69   0.0000       0.114104         3.1049
  70   0.0000       0.120144         3.2693
  71   0.0000       0.127969         3.4822

MULLIKEN ATOMIC CHARGES
-----------------------
   0 S :    0.112971
   1 C :   -0.101182
   2 C :   -0.108793
   3 C :    0.043628
   4 C :   -0.175555
   5 H :    0.016837
   6 C :    0.059630
   7 H :    0.040086
   8 H :    0.026839
   9 C :   -0.056855
  10 H :    0.038543
  11 H :    0.018934
  12 C :   -0.070019
  13 H :    0.033384
  14 H :    0.043226
  15 H :    0.031154
  16 S :    0.105124
  17 C :   -0.118612
  18 C :   -0.052704
  19 C :    0.019276
  20 C :   -0.164155
  21 H :    0.032621
  22 C :    0.041960
  23 H :    0.019476
  24 H :    0.014717
  25 C :   -0.046886
  26 H :    0.018671
  27 H :    0.024235
  28 C :   -0.049646
  29 H :    0.029952
  30 H :    0.039886
  31 H :    0.030160
  32 H :    0.029467
  33 H :    0.073629
Sum of atomic charges:   -0.0000000

LOEWDIN ATOMIC CHARGES
----------------------
   0 S :    0.411186
   1 C :   -0.198761
   2 C :   -0.060155
   3 C :   -0.065470
   4 C :   -0.198046
   5 H :    0.032447
   6 C :   -0.040065
   7 H :    0.036099
   8 H :    0.032667
   9 C :   -0.034254
  10 H :    0.031255
  11 H :    0.015978
  12 C :   -0.068295
  13 H :    0.029933
  14 H :    0.022764
  15 H :    0.023533
  16 S :    0.394718
  17 C :   -0.191444
  18 C :   -0.078182
  19 C :   -0.057971
  20 C :   -0.181691
  21 H :    0.041094
  22 C :   -0.035629
  23 H :    0.028573
  24 H :    0.032204
  25 C :   -0.034897
  26 H :    0.019871
  27 H :    0.019591
  28 C :   -0.065053
  29 H :    0.025125
  30 H :    0.029504
  31 H :    0.027445
  32 H :    0.016915
  33 H :    0.039013

  Mayer bond orders larger than 0.100000
B(  0-S ,  1-C ) :   1.1584 B(  0-S ,  4-C ) :   1.1533 B(  1-C ,  2-C ) :   1.5700
B(  1-C ,  4-C ) :   0.1019 B(  1-C , 32-H ) :   0.9831 B(  2-C ,  3-C ) :   1.2565
B(  2-C ,  6-C ) :   0.9979 B(  3-C ,  4-C ) :   1.5602 B(  3-C ,  5-H ) :   0.9870
B(  4-C , 20-C ) :   1.0301 B(  6-C ,  7-H ) :   0.9288 B(  6-C ,  8-H ) :   0.9469
B(  6-C ,  9-C ) :   1.1015 B(  9-C , 10-H ) :   0.9531 B(  9-C , 11-H ) :   0.9483
B(  9-C , 12-C ) :   1.0668 B( 12-C , 13-H ) :   0.9743 B( 12-C , 14-H ) :   0.9790
B( 12-C , 15-H ) :   0.9793 B( 16-S , 17-C ) :   1.1333 B( 16-S , 20-C ) :   1.1494
B( 17-C , 18-C ) :   1.6601 B( 17-C , 33-H ) :   0.9572 B( 18-C , 19-C ) :   1.1903
B( 18-C , 21-H ) :   0.9836 B( 19-C , 20-C ) :   1.6236 B( 19-C , 22-C ) :   1.0456
B( 22-C , 23-H ) :   0.9361 B( 22-C , 24-H ) :   0.9342 B( 22-C , 25-C ) :   1.0501
B( 25-C , 26-H ) :   0.9560 B( 25-C , 27-H ) :   0.9529 B( 25-C , 28-C ) :   1.0918
B( 28-C , 29-H ) :   0.9723 B( 28-C , 30-H ) :   0.9734 B( 28-C , 31-H ) :   0.9732

Dispersion correction           -0.014446749
FINAL SINGLE POINT ENERGY     -1339.866146108962

DIPOLE MOMENT
-------------
                                X             Y             Z
Electronic contribution:     11.62770      26.22965      12.47355
Nuclear contribution   :    -11.81333     -26.84563     -12.58428
                        -----------------------------------------
Total Dipole Moment    :     -0.18563      -0.61598      -0.11073
                        -----------------------------------------
Magnitude (a.u.)       :      0.65280
Magnitude (Debye)      :      1.65929

Rotational constants in cm-1:     0.015554     0.010543     0.006902
Rotational constants in MHz :   466.302143   316.066349   206.927889

                             ****ORCA TERMINATED NORMALLY****
TOTAL RUN TIME: 0 days 0 hours 0 minutes 27 seconds 253 msec
