                         Program Version 4.2.1 -  RELEASE  -
|  1> ! wB97X-D3 SP def2-SVP
|  2> %pal
|  3> nprocs 16
|  4> end
|  5>
|  6> * xyz 0 1
|  7> S 	 -90.9873 	 39.1292 	 125.649
|  8> C 	 -90.1867 	 37.8349 	 124.807
|  9> C 	 -90.8793 	 37.3394 	 123.733
| 10> C 	 -92.0399 	 38.1097 	 123.559
| 11> C 	 -92.2488 	 39.0941 	 124.496
| 12> H 	 -92.7893 	 37.7394 	 122.948
| 13> C 	 -90.4619 	 36.2021 	 122.823
| 14> H 	 -90.3804 	 35.2948 	 123.347
| 15> H 	 -89.444 	 36.354 	 122.496
| 16> C 	 -91.3815 	 35.8422 	 121.609
| 17> H 	 -90.9267 	 35.0402 	 121.046
| 18> H 	 -92.329 	 35.4717 	 121.913
| 19> C 	 -91.6053 	 36.8842 	 120.568
| 20> H 	 -90.7644 	 37.5834 	 120.46
| 21> H 	 -91.7446 	 36.5542 	 119.538
| 22> H 	 -92.4603 	 37.5242 	 120.765
| 23> S 	 -94.3298 	 39.8278 	 126.101
| 24> C 	 -95.5821 	 40.8294 	 125.385
| 25> C 	 -95.3743 	 41.1205 	 124.056
| 26> C 	 -94.1932 	 40.4732 	 123.598
| 27> C 	 -93.4397 	 39.8927 	 124.622
| 28> H 	 -95.9396 	 41.8709 	 123.475
| 29> C 	 -93.8292 	 40.5377 	 122.129
| 30> H 	 -92.8008 	 40.0839 	 121.932
| 31> H 	 -93.7336 	 41.5929 	 121.853
| 32> C 	 -94.7579 	 39.7615 	 121.136
| 33> H 	 -95.8081 	 40.0665 	 121.121
| 34> H 	 -94.7724 	 38.6238 	 121.439
| 35> C 	 -94.2489 	 39.9175 	 119.723
| 36> H 	 -94.6021 	 39.204 	 118.968
| 37> H 	 -93.1277 	 39.7802 	 119.613
| 38> H 	 -94.5835 	 40.9092 	 119.362
| 39> H 	 -89.142 	 37.5164 	 124.969
| 40> H 	 -96.4834 	 41.2097 	 125.89
| 41> *
| 42>
| 43>                          ****END OF INPUT****

CARTESIAN COORDINATES (ANGSTROEM)
---------------------------------
  S    -90.987300   39.129200  125.649000
  C    -90.186700   37.834900  124.807000
  C    -90.879300   37.339400  123.733000
  C    -92.039900   38.109700  123.559000
  C    -92.248800   39.094100  124.496000
  H    -92.789300   37.739400  122.948000
  C    -90.461900   36.202100  122.823000
  H    -90.380400   35.294800  123.347000
  H    -89.444000   36.354000  122.496000
  C    -91.381500   35.842200  121.609000
  H    -90.926700   35.040200  121.046000
  H    -92.329000   35.471700  121.913000
  C    -91.605300   36.884200  120.568000
  H    -90.764400   37.583400  120.460000
  H    -91.744600   36.554200  119.538000
  H    -92.460300   37.524200  120.765000
  S    -94.329800   39.827800  126.101000
  C    -95.582100   40.829400  125.385000
  C    -95.374300   41.120500  124.056000
  C    -94.193200   40.473200  123.598000
  C    -93.439700   39.892700  124.622000
  H    -95.939600   41.870900  123.475000
  C    -93.829200   40.537700  122.129000
  H    -92.800800   40.083900  121.932000
  H    -93.733600   41.592900  121.853000
  C    -94.757900   39.761500  121.136000
  H    -95.808100   40.066500  121.121000
  H    -94.772400   38.623800  121.439000
  C    -94.248900   39.917500  119.723000
  H    -94.602100   39.204000  118.968000
  H    -93.127700   39.780200  119.613000
  H    -94.583500   40.909200  119.362000
  H    -89.142000   37.516400  124.969000
  H    -96.483400   41.209700  125.890000

 Total Charge           Charge          ....    0
 Multiplicity           Mult            ....    1
 Number of Electrons    NEL             ....  134
 Basis Dimension        Dim             ....  322

ORBITAL ENERGIES
----------------

  NO   OCC          E(Eh)            E(eV)
   0   2.0000     -88.969063     -2420.9713
   1   2.0000     -88.967895     -2420.9395
   2   2.0000     -10.321752      -280.8691
   3   2.0000     -10.321294      -280.8567
   4   2.0000     -10.317286      -280.7476
   5   2.0000     -10.309110      -280.5251
   6   2.0000     -10.299777      -280.2712
   7   2.0000     -10.297740      -280.2158
   8   2.0000     -10.295542      -280.1559
   9   2.0000     -10.295532      -280.1557
  10   2.0000     -10.294088      -280.1164
  11   2.0000     -10.292927      -280.0848
  12   2.0000     -10.286008      -279.8965
  13   2.0000     -10.283417      -279.8260
  14   2.0000     -10.280708      -279.7523
  15   2.0000     -10.273914      -279.5674
  16   2.0000      -8.084477      -219.9898
  17   2.0000      -8.082841      -219.9453
  18   2.0000      -6.042813      -164.4333
  19   2.0000      -6.041358      -164.3937
  20   2.0000      -6.038867      -164.3259
  21   2.0000      -6.037435      -164.2870
  22   2.0000      -6.035428      -164.2323
  23   2.0000      -6.033461      -164.1788
  24   2.0000      -1.014166       -27.5969
  25   2.0000      -0.988520       -26.8990
  26   2.0000      -0.916092       -24.9281
  27   2.0000      -0.904299       -24.6072
  28   2.0000      -0.873909       -23.7803
  29   2.0000      -0.853977       -23.2379
  30   2.0000      -0.850153       -23.1338
  31   2.0000      -0.815858       -22.2006
  32   2.0000      -0.788854       -21.4658
  33   2.0000      -0.766530       -20.8583
  34   2.0000      -0.709724       -19.3126
  35   2.0000      -0.696448       -18.9513
  36   2.0000      -0.689550       -18.7636
  37   2.0000      -0.660762       -17.9802
  38   2.0000      -0.636965       -17.3327
  39   2.0000      -0.631971       -17.1968
  40   2.0000      -0.595302       -16.1990
  41   2.0000      -0.568049       -15.4574
  42   2.0000      -0.563364       -15.3299
  43   2.0000      -0.556221       -15.1355
  44   2.0000      -0.539688       -14.6857
  45   2.0000      -0.524650       -14.2764
  46   2.0000      -0.514695       -14.0056
  47   2.0000      -0.510450       -13.8901
  48   2.0000      -0.503501       -13.7009
  49   2.0000      -0.492816       -13.4102
  50   2.0000      -0.491751       -13.3812
  51   2.0000      -0.488697       -13.2981
  52   2.0000      -0.467243       -12.7143
  53   2.0000      -0.463772       -12.6199
  54   2.0000      -0.454849       -12.3771
  55   2.0000      -0.449993       -12.2449
  56   2.0000      -0.446596       -12.1525
  57   2.0000      -0.439866       -11.9694
  58   2.0000      -0.429915       -11.6986
  59   2.0000      -0.424302       -11.5458
  60   2.0000      -0.423894       -11.5347
  61   2.0000      -0.418055       -11.3759
  62   2.0000      -0.414929       -11.2908
  63   2.0000      -0.350219        -9.5300
  64   2.0000      -0.334602        -9.1050
  65   2.0000      -0.329228        -8.9587
  66   2.0000      -0.285583        -7.7711
  67   0.0000       0.031675         0.8619
  68   0.0000       0.072881         1.9832
  69   0.0000       0.114590         3.1182
  70   0.0000       0.120557         3.2805
  71   0.0000       0.123043         3.3482

MULLIKEN ATOMIC CHARGES
-----------------------
   0 S :    0.129219
   1 C :   -0.144329
   2 C :   -0.081942
   3 C :    0.036544
   4 C :   -0.149176
   5 H :   -0.017912
   6 C :    0.105605
   7 H :    0.024518
   8 H :    0.025408
   9 C :   -0.060603
  10 H :    0.024450
  11 H :    0.025273
  12 C :   -0.058286
  13 H :    0.025386
  14 H :    0.028403
  15 H :    0.009652
  16 S :    0.116006
  17 C :   -0.097958
  18 C :   -0.030747
  19 C :   -0.032588
  20 C :   -0.117877
  21 H :    0.035553
  22 C :    0.011325
  23 H :    0.034754
  24 H :    0.034150
  25 C :   -0.094153
  26 H :    0.033778
  27 H :    0.043923
  28 C :   -0.071091
  29 H :    0.034288
  30 H :    0.037820
  31 H :    0.034603
  32 H :    0.045678
  33 H :    0.060329
Sum of atomic charges:   -0.0000000

LOEWDIN ATOMIC CHARGES
----------------------
   0 S :    0.433421
   1 C :   -0.207921
   2 C :   -0.060815
   3 C :   -0.059565
   4 C :   -0.205270
   5 H :    0.017143
   6 C :   -0.022872
   7 H :    0.031495
   8 H :    0.033212
   9 C :   -0.040673
  10 H :    0.031415
  11 H :    0.021053
  12 C :   -0.074415
  13 H :    0.027455
  14 H :    0.027238
  15 H :    0.018122
  16 S :    0.414524
  17 C :   -0.187064
  18 C :   -0.070617
  19 C :   -0.057407
  20 C :   -0.209978
  21 H :    0.040149
  22 C :   -0.038798
  23 H :    0.036901
  24 H :    0.030722
  25 C :   -0.048177
  26 H :    0.022735
  27 H :    0.029512
  28 C :   -0.078190
  29 H :    0.026757
  30 H :    0.029063
  31 H :    0.027780
  32 H :    0.030183
  33 H :    0.032884

  Mayer bond orders larger than 0.100000
B(  0-S ,  1-C ) :   1.1477 B(  0-S ,  4-C ) :   1.1672 B(  1-C ,  2-C ) :   1.6111
B(  1-C , 32-H ) :   0.9622 B(  2-C ,  3-C ) :   1.3096 B(  2-C ,  6-C ) :   0.9968
B(  3-C ,  4-C ) :   1.5328 B(  3-C ,  5-H ) :   0.9878 B(  4-C , 20-C ) :   1.0294
B(  6-C ,  7-H ) :   0.9312 B(  6-C ,  8-H ) :   0.9331 B(  6-C ,  9-C ) :   1.0934
B(  9-C , 10-H ) :   0.9509 B(  9-C , 11-H ) :   0.9540 B(  9-C , 12-C ) :   1.0731
B( 12-C , 13-H ) :   0.9734 B( 12-C , 14-H ) :   0.9717 B( 12-C , 15-H ) :   0.9717
B( 16-S , 17-C ) :   1.1525 B( 16-S , 20-C ) :   1.1378 B( 17-C , 18-C ) :   1.6147
B( 17-C , 33-H ) :   0.9614 B( 18-C , 19-C ) :   1.2379 B( 18-C , 21-H ) :   0.9856
B( 19-C , 20-C ) :   1.6009 B( 19-C , 22-C ) :   1.0479 B( 22-C , 23-H ) :   0.9336
B( 22-C , 24-H ) :   0.9401 B( 22-C , 25-C ) :   1.0485 B( 25-C , 26-H ) :   0.9542
B( 25-C , 27-H ) :   0.9516 B( 25-C , 28-C ) :   1.0765 B( 28-C , 29-H ) :   0.9738
B( 28-C , 30-H ) :   0.9700 B( 28-C , 31-H ) :   0.9739

Dispersion correction           -0.015822382
FINAL SINGLE POINT ENERGY     -1339.876261479508

DIPOLE MOMENT
-------------
                                X             Y             Z
Electronic contribution:      0.95657       8.43447      31.97048
Nuclear contribution   :     -1.03373      -8.68465     -32.65475
                        -----------------------------------------
Total Dipole Moment    :     -0.07716      -0.25018      -0.68427
                        -----------------------------------------
Magnitude (a.u.)       :      0.73264
Magnitude (Debye)      :      1.86223

Rotational constants in cm-1:     0.015802     0.011784     0.007367
Rotational constants in MHz :   473.729488   353.268260   220.861190

                             ****ORCA TERMINATED NORMALLY****
TOTAL RUN TIME: 0 days 0 hours 0 minutes 37 seconds 336 msec
