                         Program Version 4.2.1 -  RELEASE  -
|  1> ! wB97X-D3 SP def2-SVP
|  2> %pal
|  3> nprocs 16
|  4> end
|  5>
|  6> * xyz 0 1
|  7> S 	 2.14071 	 19.4866 	 50.4784
|  8> C 	 1.34824 	 17.9849 	 50.8949
|  9> C 	 2.30898 	 17.0387 	 51.3373
| 10> C 	 3.6492 	 17.5437 	 51.1608
| 11> C 	 3.71561 	 18.8855 	 50.8508
| 12> H 	 4.53591 	 17.0582 	 51.5493
| 13> C 	 2.08411 	 15.6318 	 51.7735
| 14> H 	 1.26309 	 15.2704 	 51.1734
| 15> H 	 1.78828 	 15.5554 	 52.7683
| 16> C 	 3.06606 	 14.5623 	 51.3529
| 17> H 	 3.51726 	 14.8026 	 50.3903
| 18> H 	 3.83081 	 14.7337 	 52.0879
| 19> C 	 2.42227 	 13.1622 	 51.4189
| 20> H 	 2.1179 	 12.9676 	 52.4481
| 21> H 	 1.47543 	 13.0528 	 50.9323
| 22> H 	 3.11775 	 12.4249 	 51.0276
| 23> S 	 5.79921 	 19.603 	 52.2098
| 24> C 	 6.91145 	 20.7999 	 51.5933
| 25> C 	 6.50269 	 21.3772 	 50.4231
| 26> C 	 5.29784 	 20.7743 	 49.9987
| 27> C 	 4.89426 	 19.7427 	 50.7994
| 28> H 	 7.12796 	 22.0969 	 49.9724
| 29> C 	 4.60099 	 21.2144 	 48.7426
| 30> H 	 3.89717 	 22.0524 	 49.0193
| 31> H 	 3.96758 	 20.5033 	 48.2619
| 32> C 	 5.5224 	 21.808 	 47.672
| 33> H 	 5.83712 	 22.7805 	 48.1632
| 34> H 	 4.93952 	 22.0629 	 46.7452
| 35> C 	 6.74092 	 20.8827 	 47.3383
| 36> H 	 7.45379 	 21.389 	 46.666
| 37> H 	 6.44957 	 20.0098 	 46.8031
| 38> H 	 7.17009 	 20.408 	 48.1546
| 39> H 	 0.325863 	 17.8059 	 50.6089
| 40> H 	 7.76054 	 21.1878 	 52.0613
| 41> *
| 42>
| 43>                          ****END OF INPUT****

CARTESIAN COORDINATES (ANGSTROEM)
---------------------------------
  S      2.140710   19.486600   50.478400
  C      1.348240   17.984900   50.894900
  C      2.308980   17.038700   51.337300
  C      3.649200   17.543700   51.160800
  C      3.715610   18.885500   50.850800
  H      4.535910   17.058200   51.549300
  C      2.084110   15.631800   51.773500
  H      1.263090   15.270400   51.173400
  H      1.788280   15.555400   52.768300
  C      3.066060   14.562300   51.352900
  H      3.517260   14.802600   50.390300
  H      3.830810   14.733700   52.087900
  C      2.422270   13.162200   51.418900
  H      2.117900   12.967600   52.448100
  H      1.475430   13.052800   50.932300
  H      3.117750   12.424900   51.027600
  S      5.799210   19.603000   52.209800
  C      6.911450   20.799900   51.593300
  C      6.502690   21.377200   50.423100
  C      5.297840   20.774300   49.998700
  C      4.894260   19.742700   50.799400
  H      7.127960   22.096900   49.972400
  C      4.600990   21.214400   48.742600
  H      3.897170   22.052400   49.019300
  H      3.967580   20.503300   48.261900
  C      5.522400   21.808000   47.672000
  H      5.837120   22.780500   48.163200
  H      4.939520   22.062900   46.745200
  C      6.740920   20.882700   47.338300
  H      7.453790   21.389000   46.666000
  H      6.449570   20.009800   46.803100
  H      7.170090   20.408000   48.154600
  H      0.325863   17.805900   50.608900
  H      7.760540   21.187800   52.061300

 Total Charge           Charge          ....    0
 Multiplicity           Mult            ....    1
 Number of Electrons    NEL             ....  134
 Basis Dimension        Dim             ....  322

ORBITAL ENERGIES
----------------

  NO   OCC          E(Eh)            E(eV)
   0   2.0000     -88.966582     -2420.9038
   1   2.0000     -88.964090     -2420.8360
   2   2.0000     -10.326981      -281.0114
   3   2.0000     -10.317744      -280.7601
   4   2.0000     -10.314649      -280.6759
   5   2.0000     -10.308104      -280.4978
   6   2.0000     -10.305171      -280.4180
   7   2.0000     -10.299925      -280.2752
   8   2.0000     -10.294507      -280.1278
   9   2.0000     -10.290030      -280.0060
  10   2.0000     -10.289162      -279.9823
  11   2.0000     -10.286837      -279.9191
  12   2.0000     -10.283115      -279.8178
  13   2.0000     -10.279296      -279.7139
  14   2.0000     -10.277933      -279.6768
  15   2.0000     -10.268547      -279.4214
  16   2.0000      -8.082597      -219.9386
  17   2.0000      -8.078911      -219.8383
  18   2.0000      -6.040917      -164.3817
  19   2.0000      -6.037371      -164.2852
  20   2.0000      -6.036998      -164.2751
  21   2.0000      -6.033388      -164.1768
  22   2.0000      -6.033201      -164.1718
  23   2.0000      -6.029956      -164.0834
  24   2.0000      -1.018362       -27.7110
  25   2.0000      -0.987513       -26.8716
  26   2.0000      -0.920379       -25.0448
  27   2.0000      -0.910736       -24.7824
  28   2.0000      -0.875418       -23.8213
  29   2.0000      -0.850224       -23.1358
  30   2.0000      -0.839900       -22.8548
  31   2.0000      -0.818289       -22.2668
  32   2.0000      -0.786860       -21.4116
  33   2.0000      -0.775233       -21.0952
  34   2.0000      -0.714343       -19.4383
  35   2.0000      -0.700408       -19.0591
  36   2.0000      -0.688487       -18.7347
  37   2.0000      -0.669550       -18.2194
  38   2.0000      -0.639153       -17.3922
  39   2.0000      -0.622277       -16.9330
  40   2.0000      -0.601585       -16.3699
  41   2.0000      -0.579797       -15.7771
  42   2.0000      -0.567392       -15.4395
  43   2.0000      -0.549765       -14.9599
  44   2.0000      -0.540364       -14.7041
  45   2.0000      -0.531436       -14.4611
  46   2.0000      -0.520986       -14.1767
  47   2.0000      -0.507042       -13.7973
  48   2.0000      -0.503877       -13.7112
  49   2.0000      -0.496935       -13.5223
  50   2.0000      -0.489472       -13.3192
  51   2.0000      -0.484756       -13.1909
  52   2.0000      -0.475544       -12.9402
  53   2.0000      -0.463734       -12.6189
  54   2.0000      -0.461430       -12.5562
  55   2.0000      -0.454924       -12.3791
  56   2.0000      -0.451261       -12.2794
  57   2.0000      -0.439007       -11.9460
  58   2.0000      -0.432956       -11.7813
  59   2.0000      -0.423961       -11.5366
  60   2.0000      -0.419043       -11.4027
  61   2.0000      -0.409626       -11.1465
  62   2.0000      -0.401091       -10.9142
  63   2.0000      -0.348766        -9.4904
  64   2.0000      -0.333174        -9.0661
  65   2.0000      -0.325799        -8.8654
  66   2.0000      -0.291280        -7.9261
  67   0.0000       0.031309         0.8520
  68   0.0000       0.077389         2.1059
  69   0.0000       0.114169         3.1067
  70   0.0000       0.121932         3.3179
  71   0.0000       0.132010         3.5922

MULLIKEN ATOMIC CHARGES
-----------------------
   0 S :    0.110319
   1 C :   -0.128053
   2 C :   -0.086751
   3 C :    0.003026
   4 C :   -0.134824
   5 H :    0.016802
   6 C :    0.062830
   7 H :    0.005181
   8 H :    0.030833
   9 C :   -0.081243
  10 H :    0.035520
  11 H :    0.025824
  12 C :   -0.026537
  13 H :    0.024131
  14 H :    0.025065
  15 H :    0.043885
  16 S :    0.122467
  17 C :   -0.054564
  18 C :   -0.045177
  19 C :   -0.046647
  20 C :   -0.137586
  21 H :    0.013794
  22 C :    0.067890
  23 H :    0.045578
  24 H :    0.021345
  25 C :   -0.124854
  26 H :    0.034373
  27 H :    0.044110
  28 C :   -0.020625
  29 H :    0.039190
  30 H :    0.012761
  31 H :    0.026732
  32 H :    0.053162
  33 H :    0.022041
Sum of atomic charges:   -0.0000000

LOEWDIN ATOMIC CHARGES
----------------------
   0 S :    0.424344
   1 C :   -0.205693
   2 C :   -0.052079
   3 C :   -0.081486
   4 C :   -0.199826
   5 H :    0.026087
   6 C :   -0.037247
   7 H :    0.030196
   8 H :    0.025130
   9 C :   -0.037880
  10 H :    0.025690
  11 H :    0.020170
  12 C :   -0.060570
  13 H :    0.028559
  14 H :    0.022240
  15 H :    0.030309
  16 S :    0.449064
  17 C :   -0.176293
  18 C :   -0.059626
  19 C :   -0.061148
  20 C :   -0.217604
  21 H :    0.030566
  22 C :   -0.042427
  23 H :    0.041705
  24 H :    0.019398
  25 C :   -0.044151
  26 H :    0.023549
  27 H :    0.032302
  28 C :   -0.068589
  29 H :    0.030344
  30 H :    0.025197
  31 H :    0.018420
  32 H :    0.025616
  33 H :    0.015733

  Mayer bond orders larger than 0.100000
B(  0-S ,  1-C ) :   1.1487 B(  0-S ,  4-C ) :   1.1658 B(  1-C ,  2-C ) :   1.5763
B(  1-C ,  4-C ) :   0.1004 B(  1-C , 32-H ) :   0.9737 B(  2-C ,  3-C ) :   1.2687
B(  2-C ,  6-C ) :   1.0185 B(  3-C ,  4-C ) :   1.5503 B(  3-C ,  5-H ) :   0.9832
B(  4-C , 20-C ) :   1.0109 B(  6-C ,  7-H ) :   0.9467 B(  6-C ,  8-H ) :   0.9312
B(  6-C ,  9-C ) :   1.0602 B(  9-C , 10-H ) :   0.9595 B(  9-C , 11-H ) :   0.9469
B(  9-C , 12-C ) :   1.0807 B( 12-C , 13-H ) :   0.9714 B( 12-C , 14-H ) :   0.9746
B( 12-C , 15-H ) :   0.9735 B( 16-S , 17-C ) :   1.1577 B( 16-S , 20-C ) :   1.1615
B( 17-C , 18-C ) :   1.6242 B( 17-C , 33-H ) :   0.9667 B( 18-C , 19-C ) :   1.2193
B( 18-C , 21-H ) :   0.9997 B( 19-C , 20-C ) :   1.6069 B( 19-C , 22-C ) :   1.0347
B( 22-C , 23-H ) :   0.9270 B( 22-C , 24-H ) :   0.9403 B( 22-C , 25-C ) :   1.0738
B( 25-C , 26-H ) :   0.9518 B( 25-C , 27-H ) :   0.9563 B( 25-C , 28-C ) :   1.0691
B( 28-C , 29-H ) :   0.9761 B( 28-C , 30-H ) :   0.9665 B( 28-C , 31-H ) :   0.9713

Dispersion correction           -0.013970029
FINAL SINGLE POINT ENERGY     -1339.858671813855

DIPOLE MOMENT
-------------
                                X             Y             Z
Electronic contribution:     -1.58126      12.26855      11.03866
Nuclear contribution   :      1.63990     -12.45862     -11.20923
                        -----------------------------------------
Total Dipole Moment    :      0.05864      -0.19007      -0.17057
                        -----------------------------------------
Magnitude (a.u.)       :      0.26203
Magnitude (Debye)      :      0.66603

Rotational constants in cm-1:     0.023428     0.007165     0.006652
Rotational constants in MHz :   702.360510   214.808775   199.421872

                             ****ORCA TERMINATED NORMALLY****
TOTAL RUN TIME: 0 days 0 hours 0 minutes 32 seconds 953 msec
