                         Program Version 4.2.1 -  RELEASE  -
|  1> ! wB97X-D3 SP def2-SVP
|  2> %pal
|  3> nprocs 16
|  4> end
|  5>
|  6> * xyz 0 1
|  7> S 	 40.4184 	 29.0828 	 82.5488
|  8> C 	 39.0285 	 28.8391 	 83.5758
|  9> C 	 39.4077 	 28.4849 	 84.8829
| 10> C 	 40.8194 	 28.2888 	 84.9491
| 11> C 	 41.557 	 28.4798 	 83.7884
| 12> H 	 41.4204 	 27.9065 	 85.7573
| 13> C 	 38.4158 	 28.2289 	 85.9554
| 14> H 	 38.8707 	 28.0271 	 86.8794
| 15> H 	 38.0987 	 27.1965 	 85.7611
| 16> C 	 37.4014 	 29.3649 	 86.189
| 17> H 	 37.9269 	 30.3121 	 86.3761
| 18> H 	 36.8457 	 29.5634 	 85.2598
| 19> C 	 36.2875 	 28.9081 	 87.117
| 20> H 	 35.9175 	 27.8601 	 86.8702
| 21> H 	 36.7318 	 28.6932 	 88.1533
| 22> H 	 35.4753 	 29.6171 	 87.2458
| 23> S 	 43.7889 	 29.1464 	 82.313
| 24> C 	 45.2625 	 28.2051 	 82.4666
| 25> C 	 45.0728 	 27.1797 	 83.4196
| 26> C 	 43.7885 	 27.0629 	 83.9208
| 27> C 	 42.9285 	 28.1025 	 83.5029
| 28> H 	 45.8377 	 26.5264 	 83.7175
| 29> C 	 43.2651 	 26.015 	 84.8406
| 30> H 	 43.5371 	 25.0684 	 84.416
| 31> H 	 42.2153 	 25.8499 	 84.6696
| 32> C 	 43.5166 	 26.2492 	 86.3065
| 33> H 	 43.1892 	 27.2213 	 86.6288
| 34> H 	 44.6241 	 26.286 	 86.5562
| 35> C 	 42.705 	 25.3372 	 87.2572
| 36> H 	 42.9588 	 25.5615 	 88.2721
| 37> H 	 43.0066 	 24.2736 	 87.1455
| 38> H 	 41.6223 	 25.4517 	 87.0991
| 39> H 	 37.9959 	 28.8983 	 83.2748
| 40> H 	 46.2215 	 28.2886 	 82.0177
| 41> *
| 42>
| 43>                          ****END OF INPUT****

CARTESIAN COORDINATES (ANGSTROEM)
---------------------------------
  S     40.418400   29.082800   82.548800
  C     39.028500   28.839100   83.575800
  C     39.407700   28.484900   84.882900
  C     40.819400   28.288800   84.949100
  C     41.557000   28.479800   83.788400
  H     41.420400   27.906500   85.757300
  C     38.415800   28.228900   85.955400
  H     38.870700   28.027100   86.879400
  H     38.098700   27.196500   85.761100
  C     37.401400   29.364900   86.189000
  H     37.926900   30.312100   86.376100
  H     36.845700   29.563400   85.259800
  C     36.287500   28.908100   87.117000
  H     35.917500   27.860100   86.870200
  H     36.731800   28.693200   88.153300
  H     35.475300   29.617100   87.245800
  S     43.788900   29.146400   82.313000
  C     45.262500   28.205100   82.466600
  C     45.072800   27.179700   83.419600
  C     43.788500   27.062900   83.920800
  C     42.928500   28.102500   83.502900
  H     45.837700   26.526400   83.717500
  C     43.265100   26.015000   84.840600
  H     43.537100   25.068400   84.416000
  H     42.215300   25.849900   84.669600
  C     43.516600   26.249200   86.306500
  H     43.189200   27.221300   86.628800
  H     44.624100   26.286000   86.556200
  C     42.705000   25.337200   87.257200
  H     42.958800   25.561500   88.272100
  H     43.006600   24.273600   87.145500
  H     41.622300   25.451700   87.099100
  H     37.995900   28.898300   83.274800
  H     46.221500   28.288600   82.017700

 Total Charge           Charge          ....    0
 Multiplicity           Mult            ....    1
 Number of Electrons    NEL             ....  134
 Basis Dimension        Dim             ....  322

ORBITAL ENERGIES
----------------

  NO   OCC          E(Eh)            E(eV)
   0   2.0000     -88.968925     -2420.9675
   1   2.0000     -88.965358     -2420.8705
   2   2.0000     -10.332930      -281.1733
   3   2.0000     -10.332076      -281.1501
   4   2.0000     -10.320350      -280.8310
   5   2.0000     -10.315572      -280.7010
   6   2.0000     -10.303540      -280.3736
   7   2.0000     -10.301278      -280.3120
   8   2.0000     -10.294352      -280.1236
   9   2.0000     -10.293739      -280.1069
  10   2.0000     -10.292568      -280.0750
  11   2.0000     -10.290857      -280.0284
  12   2.0000     -10.290059      -280.0067
  13   2.0000     -10.289631      -279.9951
  14   2.0000     -10.285694      -279.8880
  15   2.0000     -10.283288      -279.8225
  16   2.0000      -8.082417      -219.9337
  17   2.0000      -8.079465      -219.8534
  18   2.0000      -6.040944      -164.3824
  19   2.0000      -6.038117      -164.3055
  20   2.0000      -6.036990      -164.2749
  21   2.0000      -6.033983      -164.1930
  22   2.0000      -6.033339      -164.1755
  23   2.0000      -6.030180      -164.0895
  24   2.0000      -1.001827       -27.2611
  25   2.0000      -0.980590       -26.6832
  26   2.0000      -0.916730       -24.9455
  27   2.0000      -0.914533       -24.8857
  28   2.0000      -0.868460       -23.6320
  29   2.0000      -0.855440       -23.2777
  30   2.0000      -0.847667       -23.0662
  31   2.0000      -0.815486       -22.1905
  32   2.0000      -0.785291       -21.3689
  33   2.0000      -0.769564       -20.9409
  34   2.0000      -0.712696       -19.3935
  35   2.0000      -0.707088       -19.2408
  36   2.0000      -0.700663       -19.0660
  37   2.0000      -0.668116       -18.1804
  38   2.0000      -0.645172       -17.5560
  39   2.0000      -0.613616       -16.6973
  40   2.0000      -0.599449       -16.3118
  41   2.0000      -0.576236       -15.6802
  42   2.0000      -0.562271       -15.3002
  43   2.0000      -0.555011       -15.1026
  44   2.0000      -0.536749       -14.6057
  45   2.0000      -0.533674       -14.5220
  46   2.0000      -0.523145       -14.2355
  47   2.0000      -0.512388       -13.9428
  48   2.0000      -0.507646       -13.8137
  49   2.0000      -0.504425       -13.7261
  50   2.0000      -0.494110       -13.4454
  51   2.0000      -0.478370       -13.0171
  52   2.0000      -0.474289       -12.9061
  53   2.0000      -0.465862       -12.6767
  54   2.0000      -0.456073       -12.4104
  55   2.0000      -0.452209       -12.3052
  56   2.0000      -0.446121       -12.1396
  57   2.0000      -0.439556       -11.9609
  58   2.0000      -0.435738       -11.8570
  59   2.0000      -0.429173       -11.6784
  60   2.0000      -0.419442       -11.4136
  61   2.0000      -0.407809       -11.0970
  62   2.0000      -0.402630       -10.9561
  63   2.0000      -0.352020        -9.5790
  64   2.0000      -0.336612        -9.1597
  65   2.0000      -0.329444        -8.9646
  66   2.0000      -0.278610        -7.5814
  67   0.0000       0.017291         0.4705
  68   0.0000       0.067901         1.8477
  69   0.0000       0.104003         2.8301
  70   0.0000       0.124136         3.3779
  71   0.0000       0.130256         3.5444

MULLIKEN ATOMIC CHARGES
-----------------------
   0 S :    0.105713
   1 C :   -0.121517
   2 C :   -0.088659
   3 C :    0.028941
   4 C :   -0.115587
   5 H :   -0.029269
   6 C :    0.092896
   7 H :   -0.008838
   8 H :    0.035597
   9 C :   -0.068359
  10 H :    0.048074
  11 H :    0.026192
  12 C :   -0.068185
  13 H :    0.037113
  14 H :    0.025218
  15 H :    0.046811
  16 S :    0.101401
  17 C :   -0.062412
  18 C :   -0.035494
  19 C :   -0.028609
  20 C :   -0.162587
  21 H :   -0.005629
  22 C :    0.085875
  23 H :    0.009941
  24 H :    0.010800
  25 C :   -0.072597
  26 H :    0.025712
  27 H :    0.032460
  28 C :   -0.045472
  29 H :    0.029719
  30 H :    0.032972
  31 H :    0.038951
  32 H :    0.051158
  33 H :    0.047667
Sum of atomic charges:   -0.0000000

LOEWDIN ATOMIC CHARGES
----------------------
   0 S :    0.391348
   1 C :   -0.192700
   2 C :   -0.063054
   3 C :   -0.065273
   4 C :   -0.187111
   5 H :    0.026274
   6 C :   -0.038245
   7 H :    0.022271
   8 H :    0.041323
   9 C :   -0.040773
  10 H :    0.034184
  11 H :    0.022969
  12 C :   -0.073981
  13 H :    0.033989
  14 H :    0.026327
  15 H :    0.025010
  16 S :    0.393142
  17 C :   -0.182458
  18 C :   -0.065356
  19 C :   -0.054720
  20 C :   -0.175501
  21 H :    0.023267
  22 C :   -0.041313
  23 H :    0.031610
  24 H :    0.032611
  25 C :   -0.041916
  26 H :    0.018978
  27 H :    0.030863
  28 C :   -0.063934
  29 H :    0.023948
  30 H :    0.026364
  31 H :    0.025843
  32 H :    0.027597
  33 H :    0.028417

  Mayer bond orders larger than 0.100000
B(  0-S ,  1-C ) :   1.1519 B(  0-S ,  4-C ) :   1.1298 B(  1-C ,  2-C ) :   1.5766
B(  1-C ,  4-C ) :   0.1012 B(  1-C , 32-H ) :   0.9709 B(  2-C ,  3-C ) :   1.2414
B(  2-C ,  6-C ) :   1.0248 B(  3-C ,  4-C ) :   1.5591 B(  3-C ,  5-H ) :   1.0008
B(  4-C , 20-C ) :   1.0745 B(  6-C ,  7-H ) :   0.9329 B(  6-C ,  8-H ) :   0.9290
B(  6-C ,  9-C ) :   1.0453 B(  9-C , 10-H ) :   0.9572 B(  9-C , 11-H ) :   0.9577
B(  9-C , 12-C ) :   1.0716 B( 12-C , 13-H ) :   0.9718 B( 12-C , 14-H ) :   0.9721
B( 12-C , 15-H ) :   0.9747 B( 16-S , 17-C ) :   1.1615 B( 16-S , 20-C ) :   1.1352
B( 17-C , 18-C ) :   1.5604 B( 17-C , 20-C ) :   0.1179 B( 17-C , 33-H ) :   0.9710
B( 18-C , 19-C ) :   1.3034 B( 18-C , 21-H ) :   0.9926 B( 19-C , 20-C ) :   1.5351
B( 19-C , 22-C ) :   1.0449 B( 22-C , 23-H ) :   0.9166 B( 22-C , 24-H ) :   0.9264
B( 22-C , 25-C ) :   1.0511 B( 25-C , 26-H ) :   0.9508 B( 25-C , 27-H ) :   0.9499
B( 25-C , 28-C ) :   1.0799 B( 28-C , 29-H ) :   0.9741 B( 28-C , 30-H ) :   0.9756
B( 28-C , 31-H ) :   0.9729

Dispersion correction           -0.014305640
FINAL SINGLE POINT ENERGY     -1339.863286303093

DIPOLE MOMENT
-------------
                                X             Y             Z
Electronic contribution:     13.86111      11.63299     -26.08627
Nuclear contribution   :    -14.01532     -12.16247      26.70940
                        -----------------------------------------
Total Dipole Moment    :     -0.15421      -0.52947       0.62313
                        -----------------------------------------
Magnitude (a.u.)       :      0.83212
Magnitude (Debye)      :      2.11507

Rotational constants in cm-1:     0.020059     0.008311     0.006115
Rotational constants in MHz :   601.351587   249.150306   183.326074

                             ****ORCA TERMINATED NORMALLY****
TOTAL RUN TIME: 0 days 0 hours 0 minutes 30 seconds 65 msec
