                         Program Version 4.2.1 -  RELEASE  -
|  1> ! wB97X-D3 SP def2-SVP
|  2> %pal
|  3> nprocs 16
|  4> end
|  5>
|  6> * xyz 0 1
|  7> S 	 -32.7893 	 71.4019 	 111.516
|  8> C 	 -32.7473 	 70.4849 	 109.967
|  9> C 	 -31.9198 	 71.1852 	 109.055
| 10> C 	 -31.2394 	 72.3351 	 109.63
| 11> C 	 -31.6651 	 72.708 	 110.92
| 12> H 	 -30.4347 	 72.9318 	 109.105
| 13> C 	 -31.6404 	 70.8681 	 107.626
| 14> H 	 -31.4967 	 71.7755 	 107.056
| 15> H 	 -32.5813 	 70.4866 	 107.274
| 16> C 	 -30.4538 	 69.9647 	 107.282
| 17> H 	 -29.5099 	 70.2596 	 107.701
| 18> H 	 -30.6819 	 69.0458 	 107.817
| 19> C 	 -30.3462 	 69.699 	 105.797
| 20> H 	 -30.6472 	 70.5417 	 105.114
| 21> H 	 -29.3247 	 69.3208 	 105.689
| 22> H 	 -30.9835 	 68.8262 	 105.639
| 23> S 	 -31.3062 	 73.7521 	 113.453
| 24> C 	 -31.0584 	 75.4846 	 113.592
| 25> C 	 -31.0791 	 76.1083 	 112.352
| 26> C 	 -31.3281 	 75.215 	 111.255
| 27> C 	 -31.4252 	 73.896 	 111.684
| 28> H 	 -31.0855 	 77.2348 	 112.277
| 29> C 	 -31.3635 	 75.7529 	 109.888
| 30> H 	 -31.2596 	 75.0049 	 109.178
| 31> H 	 -30.4858 	 76.4134 	 109.805
| 32> C 	 -32.6297 	 76.4428 	 109.596
| 33> H 	 -32.9933 	 77.059 	 110.452
| 34> H 	 -33.3304 	 75.6267 	 109.627
| 35> C 	 -32.6515 	 77.1428 	 108.239
| 36> H 	 -33.7173 	 77.3609 	 107.989
| 37> H 	 -32.2212 	 76.4835 	 107.482
| 38> H 	 -32.1306 	 78.1057 	 108.284
| 39> H 	 -33.0546 	 69.4876 	 109.735
| 40> H 	 -30.9248 	 76.0352 	 114.499
| 41> *
| 42>
| 43>                          ****END OF INPUT****

CARTESIAN COORDINATES (ANGSTROEM)
---------------------------------
  S    -32.789300   71.401900  111.516000
  C    -32.747300   70.484900  109.967000
  C    -31.919800   71.185200  109.055000
  C    -31.239400   72.335100  109.630000
  C    -31.665100   72.708000  110.920000
  H    -30.434700   72.931800  109.105000
  C    -31.640400   70.868100  107.626000
  H    -31.496700   71.775500  107.056000
  H    -32.581300   70.486600  107.274000
  C    -30.453800   69.964700  107.282000
  H    -29.509900   70.259600  107.701000
  H    -30.681900   69.045800  107.817000
  C    -30.346200   69.699000  105.797000
  H    -30.647200   70.541700  105.114000
  H    -29.324700   69.320800  105.689000
  H    -30.983500   68.826200  105.639000
  S    -31.306200   73.752100  113.453000
  C    -31.058400   75.484600  113.592000
  C    -31.079100   76.108300  112.352000
  C    -31.328100   75.215000  111.255000
  C    -31.425200   73.896000  111.684000
  H    -31.085500   77.234800  112.277000
  C    -31.363500   75.752900  109.888000
  H    -31.259600   75.004900  109.178000
  H    -30.485800   76.413400  109.805000
  C    -32.629700   76.442800  109.596000
  H    -32.993300   77.059000  110.452000
  H    -33.330400   75.626700  109.627000
  C    -32.651500   77.142800  108.239000
  H    -33.717300   77.360900  107.989000
  H    -32.221200   76.483500  107.482000
  H    -32.130600   78.105700  108.284000
  H    -33.054600   69.487600  109.735000
  H    -30.924800   76.035200  114.499000

 Total Charge           Charge          ....    0
 Multiplicity           Mult            ....    1
 Number of Electrons    NEL             ....  134
 Basis Dimension        Dim             ....  322

ORBITAL ENERGIES
----------------

  NO   OCC          E(Eh)            E(eV)
   0   2.0000     -88.969326     -2420.9784
   1   2.0000     -88.965650     -2420.8784
   2   2.0000     -10.338288      -281.3191
   3   2.0000     -10.330430      -281.1053
   4   2.0000     -10.321127      -280.8521
   5   2.0000     -10.320942      -280.8471
   6   2.0000     -10.305830      -280.4359
   7   2.0000     -10.305222      -280.4194
   8   2.0000     -10.302460      -280.3442
   9   2.0000     -10.300375      -280.2874
  10   2.0000     -10.285879      -279.8930
  11   2.0000     -10.282615      -279.8042
  12   2.0000     -10.282514      -279.8014
  13   2.0000     -10.282287      -279.7952
  14   2.0000     -10.280293      -279.7410
  15   2.0000     -10.280113      -279.7361
  16   2.0000      -8.083438      -219.9615
  17   2.0000      -8.078209      -219.8192
  18   2.0000      -6.042048      -164.4125
  19   2.0000      -6.038128      -164.3058
  20   2.0000      -6.037075      -164.2772
  21   2.0000      -6.034034      -164.1944
  22   2.0000      -6.032997      -164.1662
  23   2.0000      -6.028715      -164.0497
  24   2.0000      -1.001467       -27.2513
  25   2.0000      -0.971630       -26.4394
  26   2.0000      -0.925749       -25.1909
  27   2.0000      -0.914642       -24.8887
  28   2.0000      -0.870820       -23.6962
  29   2.0000      -0.853967       -23.2376
  30   2.0000      -0.842263       -22.9191
  31   2.0000      -0.811536       -22.0830
  32   2.0000      -0.784271       -21.3411
  33   2.0000      -0.769653       -20.9433
  34   2.0000      -0.709853       -19.3161
  35   2.0000      -0.701591       -19.0913
  36   2.0000      -0.697900       -18.9908
  37   2.0000      -0.662655       -18.0318
  38   2.0000      -0.636679       -17.3249
  39   2.0000      -0.617649       -16.8071
  40   2.0000      -0.602565       -16.3966
  41   2.0000      -0.572017       -15.5654
  42   2.0000      -0.566995       -15.4287
  43   2.0000      -0.556916       -15.1545
  44   2.0000      -0.533427       -14.5153
  45   2.0000      -0.527894       -14.3647
  46   2.0000      -0.518471       -14.1083
  47   2.0000      -0.512153       -13.9364
  48   2.0000      -0.508363       -13.8333
  49   2.0000      -0.501417       -13.6443
  50   2.0000      -0.495545       -13.4845
  51   2.0000      -0.478789       -13.0285
  52   2.0000      -0.469820       -12.7844
  53   2.0000      -0.463689       -12.6176
  54   2.0000      -0.456857       -12.4317
  55   2.0000      -0.451140       -12.2762
  56   2.0000      -0.444726       -12.1016
  57   2.0000      -0.441625       -12.0172
  58   2.0000      -0.435221       -11.8430
  59   2.0000      -0.425741       -11.5850
  60   2.0000      -0.416063       -11.3216
  61   2.0000      -0.411840       -11.2067
  62   2.0000      -0.408791       -11.1238
  63   2.0000      -0.351493        -9.5646
  64   2.0000      -0.332542        -9.0489
  65   2.0000      -0.324298        -8.8246
  66   2.0000      -0.285081        -7.7574
  67   0.0000       0.016770         0.4563
  68   0.0000       0.072068         1.9611
  69   0.0000       0.098075         2.6688
  70   0.0000       0.110830         3.0158
  71   0.0000       0.129358         3.5200

MULLIKEN ATOMIC CHARGES
-----------------------
   0 S :    0.082830
   1 C :   -0.091820
   2 C :   -0.118153
   3 C :   -0.006262
   4 C :   -0.132143
   5 H :    0.049068
   6 C :    0.052298
   7 H :    0.011931
   8 H :    0.015567
   9 C :   -0.059615
  10 H :    0.021740
  11 H :    0.016216
  12 C :   -0.041252
  13 H :    0.051386
  14 H :    0.035913
  15 H :    0.030367
  16 S :    0.108957
  17 C :   -0.076235
  18 C :   -0.055943
  19 C :   -0.062777
  20 C :   -0.144497
  21 H :    0.043079
  22 C :    0.142543
  23 H :   -0.028163
  24 H :    0.026768
  25 C :   -0.111657
  26 H :    0.029291
  27 H :    0.020613
  28 C :   -0.017791
  29 H :    0.040497
  30 H :    0.031852
  31 H :    0.037702
  32 H :    0.045314
  33 H :    0.052376
Sum of atomic charges:    0.0000000

LOEWDIN ATOMIC CHARGES
----------------------
   0 S :    0.354358
   1 C :   -0.191249
   2 C :   -0.057570
   3 C :   -0.074089
   4 C :   -0.167410
   5 H :    0.040065
   6 C :   -0.038065
   7 H :    0.026113
   8 H :    0.029173
   9 C :   -0.040031
  10 H :    0.018634
  11 H :    0.023629
  12 C :   -0.068886
  13 H :    0.032614
  14 H :    0.031613
  15 H :    0.028580
  16 S :    0.393425
  17 C :   -0.175427
  18 C :   -0.074646
  19 C :   -0.041369
  20 C :   -0.197397
  21 H :    0.041622
  22 C :   -0.030825
  23 H :    0.015800
  24 H :    0.033372
  25 C :   -0.045429
  26 H :    0.025646
  27 H :    0.026482
  28 C :   -0.062146
  29 H :    0.033143
  30 H :    0.026203
  31 H :    0.026982
  32 H :    0.029205
  33 H :    0.027880

  Mayer bond orders larger than 0.100000
B(  0-S ,  1-C ) :   1.1122 B(  0-S ,  4-C ) :   1.1168 B(  1-C ,  2-C ) :   1.6117
B(  1-C ,  4-C ) :   0.1053 B(  1-C , 32-H ) :   0.9699 B(  2-C ,  3-C ) :   1.2352
B(  2-C ,  6-C ) :   1.0337 B(  3-C ,  4-C ) :   1.5742 B(  3-C ,  5-H ) :   0.9726
B(  4-C , 20-C ) :   1.0930 B(  6-C ,  7-H ) :   0.9374 B(  6-C ,  8-H ) :   0.9398
B(  6-C ,  9-C ) :   1.0595 B(  9-C , 10-H ) :   0.9616 B(  9-C , 11-H ) :   0.9531
B(  9-C , 12-C ) :   1.0692 B( 12-C , 13-H ) :   0.9749 B( 12-C , 14-H ) :   0.9736
B( 12-C , 15-H ) :   0.9773 B( 16-S , 17-C ) :   1.1466 B( 16-S , 20-C ) :   1.1164
B( 17-C , 18-C ) :   1.6240 B( 17-C , 33-H ) :   0.9687 B( 18-C , 19-C ) :   1.2347
B( 18-C , 21-H ) :   0.9741 B( 19-C , 20-C ) :   1.5823 B( 19-C , 22-C ) :   1.0536
B( 22-C , 23-H ) :   0.9083 B( 22-C , 24-H ) :   0.9285 B( 22-C , 25-C ) :   1.0575
B( 25-C , 26-H ) :   0.9594 B( 25-C , 27-H ) :   0.9460 B( 25-C , 28-C ) :   1.0801
B( 28-C , 29-H ) :   0.9736 B( 28-C , 30-H ) :   0.9695 B( 28-C , 31-H ) :   0.9743

Dispersion correction           -0.013647472
FINAL SINGLE POINT ENERGY     -1339.867583185669

DIPOLE MOMENT
-------------
                                X             Y             Z
Electronic contribution:     -2.76183      -4.19782      29.70059
Nuclear contribution   :      2.95325       4.54251     -30.33591
                        -----------------------------------------
Total Dipole Moment    :      0.19142       0.34469      -0.63532
                        -----------------------------------------
Magnitude (a.u.)       :      0.74772
Magnitude (Debye)      :      1.90054

Rotational constants in cm-1:     0.017852     0.008239     0.006313
Rotational constants in MHz :   535.198100   246.986656   189.252146

                             ****ORCA TERMINATED NORMALLY****
TOTAL RUN TIME: 0 days 0 hours 0 minutes 28 seconds 831 msec
