                         Program Version 4.2.1 -  RELEASE  -
|  1> ! wB97X-D3 SP def2-SVP
|  2> %pal
|  3> nprocs 16
|  4> end
|  5>
|  6> * xyz 0 1
|  7> S 	 -4.26313 	 19.3604 	 56.4017
|  8> C 	 -4.1213 	 18.6181 	 54.8744
|  9> C 	 -2.95259 	 19.0401 	 54.1808
| 10> C 	 -2.13725 	 19.8377 	 55.0248
| 11> C 	 -2.69936 	 20.1274 	 56.2715
| 12> H 	 -1.20663 	 20.282 	 54.729
| 13> C 	 -2.52845 	 18.4921 	 52.8353
| 14> H 	 -2.20184 	 19.28 	 52.19
| 15> H 	 -3.33501 	 18.1 	 52.3378
| 16> C 	 -1.34168 	 17.4957 	 52.952
| 17> H 	 -0.448752 	 17.9917 	 53.1816
| 18> H 	 -1.42952 	 16.8617 	 53.7794
| 19> C 	 -1.07175 	 16.6812 	 51.5563
| 20> H 	 -1.93962 	 16.2459 	 51.0722
| 21> H 	 -0.700936 	 17.3248 	 50.7962
| 22> H 	 -0.364611 	 15.809 	 51.6919
| 23> S 	 -2.0972 	 19.894 	 58.924
| 24> C 	 -1.09437 	 21.1532 	 59.7251
| 25> C 	 -0.766704 	 22.1926 	 58.8515
| 26> C 	 -1.23186 	 21.9891 	 57.5315
| 27> C 	 -2.06113 	 20.8265 	 57.3893
| 28> H 	 -0.159087 	 23.009 	 59.1686
| 29> C 	 -0.812438 	 22.914 	 56.4278
| 30> H 	 -1.34251 	 23.887 	 56.5936
| 31> H 	 -1.15805 	 22.7601 	 55.4609
| 32> C 	 0.682424 	 22.987 	 56.36
| 33> H 	 0.976052 	 22.0712 	 55.8574
| 34> H 	 1.24585 	 23.0074 	 57.285
| 35> C 	 1.39177 	 23.9792 	 55.3814
| 36> H 	 1.18793 	 23.9658 	 54.2791
| 37> H 	 2.43693 	 23.8495 	 55.4017
| 38> H 	 1.18509 	 24.9979 	 55.7158
| 39> H 	 -4.91971 	 18.1264 	 54.2698
| 40> H 	 -0.834392 	 21.1705 	 60.7556
| 41> *
| 42>
| 43>                          ****END OF INPUT****

CARTESIAN COORDINATES (ANGSTROEM)
---------------------------------
  S     -4.263130   19.360400   56.401700
  C     -4.121300   18.618100   54.874400
  C     -2.952590   19.040100   54.180800
  C     -2.137250   19.837700   55.024800
  C     -2.699360   20.127400   56.271500
  H     -1.206630   20.282000   54.729000
  C     -2.528450   18.492100   52.835300
  H     -2.201840   19.280000   52.190000
  H     -3.335010   18.100000   52.337800
  C     -1.341680   17.495700   52.952000
  H     -0.448752   17.991700   53.181600
  H     -1.429520   16.861700   53.779400
  C     -1.071750   16.681200   51.556300
  H     -1.939620   16.245900   51.072200
  H     -0.700936   17.324800   50.796200
  H     -0.364611   15.809000   51.691900
  S     -2.097200   19.894000   58.924000
  C     -1.094370   21.153200   59.725100
  C     -0.766704   22.192600   58.851500
  C     -1.231860   21.989100   57.531500
  C     -2.061130   20.826500   57.389300
  H     -0.159087   23.009000   59.168600
  C     -0.812438   22.914000   56.427800
  H     -1.342510   23.887000   56.593600
  H     -1.158050   22.760100   55.460900
  C      0.682424   22.987000   56.360000
  H      0.976052   22.071200   55.857400
  H      1.245850   23.007400   57.285000
  C      1.391770   23.979200   55.381400
  H      1.187930   23.965800   54.279100
  H      2.436930   23.849500   55.401700
  H      1.185090   24.997900   55.715800
  H     -4.919710   18.126400   54.269800
  H     -0.834392   21.170500   60.755600

 Total Charge           Charge          ....    0
 Multiplicity           Mult            ....    1
 Number of Electrons    NEL             ....  134
 Basis Dimension        Dim             ....  322

ORBITAL ENERGIES
----------------

  NO   OCC          E(Eh)            E(eV)
   0   2.0000     -88.971376     -2421.0342
   1   2.0000     -88.967248     -2420.9219
   2   2.0000     -10.336004      -281.2570
   3   2.0000     -10.331724      -281.1405
   4   2.0000     -10.321396      -280.8595
   5   2.0000     -10.315606      -280.7019
   6   2.0000     -10.310494      -280.5628
   7   2.0000     -10.302822      -280.3540
   8   2.0000     -10.295838      -280.1640
   9   2.0000     -10.293744      -280.1070
  10   2.0000     -10.289865      -280.0015
  11   2.0000     -10.287168      -279.9281
  12   2.0000     -10.286578      -279.9120
  13   2.0000     -10.286059      -279.8979
  14   2.0000     -10.284628      -279.8590
  15   2.0000     -10.280026      -279.7337
  16   2.0000      -8.086394      -220.0420
  17   2.0000      -8.080371      -219.8781
  18   2.0000      -6.044739      -164.4857
  19   2.0000      -6.040775      -164.3778
  20   2.0000      -6.038966      -164.3286
  21   2.0000      -6.037392      -164.2858
  22   2.0000      -6.035118      -164.2239
  23   2.0000      -6.031107      -164.1148
  24   2.0000      -1.003721       -27.3126
  25   2.0000      -0.978057       -26.6143
  26   2.0000      -0.914497       -24.8847
  27   2.0000      -0.906758       -24.6741
  28   2.0000      -0.865019       -23.5384
  29   2.0000      -0.849653       -23.1202
  30   2.0000      -0.843279       -22.9468
  31   2.0000      -0.812888       -22.1198
  32   2.0000      -0.785389       -21.3715
  33   2.0000      -0.770891       -20.9770
  34   2.0000      -0.719394       -19.5757
  35   2.0000      -0.704891       -19.1810
  36   2.0000      -0.697655       -18.9842
  37   2.0000      -0.662356       -18.0236
  38   2.0000      -0.641292       -17.4505
  39   2.0000      -0.623595       -16.9689
  40   2.0000      -0.605635       -16.4802
  41   2.0000      -0.569453       -15.4956
  42   2.0000      -0.559645       -15.2287
  43   2.0000      -0.552347       -15.0301
  44   2.0000      -0.532689       -14.4952
  45   2.0000      -0.519799       -14.1445
  46   2.0000      -0.513750       -13.9798
  47   2.0000      -0.509769       -13.8715
  48   2.0000      -0.504410       -13.7257
  49   2.0000      -0.499332       -13.5875
  50   2.0000      -0.493419       -13.4266
  51   2.0000      -0.475464       -12.9380
  52   2.0000      -0.468399       -12.7458
  53   2.0000      -0.465022       -12.6539
  54   2.0000      -0.458545       -12.4776
  55   2.0000      -0.455996       -12.4083
  56   2.0000      -0.448330       -12.1997
  57   2.0000      -0.442529       -12.0418
  58   2.0000      -0.437918       -11.9164
  59   2.0000      -0.429124       -11.6771
  60   2.0000      -0.428048       -11.6478
  61   2.0000      -0.421219       -11.4619
  62   2.0000      -0.400786       -10.9059
  63   2.0000      -0.350102        -9.5268
  64   2.0000      -0.331879        -9.0309
  65   2.0000      -0.328374        -8.9355
  66   2.0000      -0.284245        -7.7347
  67   0.0000       0.023995         0.6529
  68   0.0000       0.065835         1.7915
  69   0.0000       0.108708         2.9581
  70   0.0000       0.117854         3.2070
  71   0.0000       0.127936         3.4813

MULLIKEN ATOMIC CHARGES
-----------------------
   0 S :    0.135346
   1 C :   -0.125395
   2 C :   -0.133797
   3 C :    0.037762
   4 C :   -0.157867
   5 H :    0.002045
   6 C :    0.132439
   7 H :    0.016770
   8 H :   -0.009666
   9 C :   -0.034271
  10 H :    0.016218
  11 H :    0.022671
  12 C :   -0.081991
  13 H :    0.026897
  14 H :    0.025747
  15 H :    0.045965
  16 S :    0.090436
  17 C :   -0.082178
  18 C :   -0.030987
  19 C :   -0.024729
  20 C :   -0.139989
  21 H :    0.017433
  22 C :    0.125158
  23 H :    0.032340
  24 H :   -0.007292
  25 C :   -0.106963
  26 H :    0.023384
  27 H :    0.037167
  28 C :   -0.052288
  29 H :    0.033775
  30 H :    0.024287
  31 H :    0.023474
  32 H :    0.068143
  33 H :    0.049957
Sum of atomic charges:   -0.0000000

LOEWDIN ATOMIC CHARGES
----------------------
   0 S :    0.438346
   1 C :   -0.229395
   2 C :   -0.059692
   3 C :   -0.059156
   4 C :   -0.205078
   5 H :    0.026311
   6 C :   -0.022049
   7 H :    0.030070
   8 H :    0.016393
   9 C :   -0.020281
  10 H :    0.017926
  11 H :    0.017894
  12 C :   -0.071766
  13 H :    0.021495
  14 H :    0.018652
  15 H :    0.034095
  16 S :    0.374479
  17 C :   -0.165348
  18 C :   -0.063173
  19 C :   -0.047852
  20 C :   -0.183035
  21 H :    0.030253
  22 C :   -0.034144
  23 H :    0.037538
  24 H :    0.021511
  25 C :   -0.041607
  26 H :    0.028448
  27 H :    0.025341
  28 C :   -0.069040
  29 H :    0.028627
  30 H :    0.021244
  31 H :    0.019769
  32 H :    0.039883
  33 H :    0.023339

  Mayer bond orders larger than 0.100000
B(  0-S ,  1-C ) :   1.1651 B(  0-S ,  4-C ) :   1.1691 B(  1-C ,  2-C ) :   1.5610
B(  1-C ,  4-C ) :   0.1039 B(  1-C , 32-H ) :   0.9552 B(  2-C ,  3-C ) :   1.2820
B(  2-C ,  6-C ) :   1.0512 B(  3-C ,  4-C ) :   1.5302 B(  3-C ,  5-H ) :   0.9954
B(  4-C , 20-C ) :   1.0439 B(  6-C ,  7-H ) :   0.9302 B(  6-C ,  8-H ) :   0.9389
B(  6-C ,  9-C ) :   1.0483 B(  9-C , 10-H ) :   0.9551 B(  9-C , 11-H ) :   0.9653
B(  9-C , 12-C ) :   1.0605 B( 12-C , 13-H ) :   0.9812 B( 12-C , 14-H ) :   0.9789
B( 12-C , 15-H ) :   0.9791 B( 16-S , 17-C ) :   1.1452 B( 16-S , 20-C ) :   1.1358
B( 17-C , 18-C ) :   1.6047 B( 17-C , 20-C ) :   0.1101 B( 17-C , 33-H ) :   0.9698
B( 18-C , 19-C ) :   1.2500 B( 18-C , 21-H ) :   0.9886 B( 19-C , 20-C ) :   1.5713
B( 19-C , 22-C ) :   1.0456 B( 22-C , 23-H ) :   0.9305 B( 22-C , 24-H ) :   0.9316
B( 22-C , 25-C ) :   1.0438 B( 25-C , 26-H ) :   0.9526 B( 25-C , 27-H ) :   0.9617
B( 25-C , 28-C ) :   1.0793 B( 28-C , 29-H ) :   0.9757 B( 28-C , 30-H ) :   0.9741
B( 28-C , 31-H ) :   0.9752

Dispersion correction           -0.013557385
FINAL SINGLE POINT ENERGY     -1339.854139793651

DIPOLE MOMENT
-------------
                                X             Y             Z
Electronic contribution:    -18.81195      -3.87127      23.40970
Nuclear contribution   :     19.30971       4.12285     -23.91586
                        -----------------------------------------
Total Dipole Moment    :      0.49776       0.25158      -0.50616
                        -----------------------------------------
Magnitude (a.u.)       :      0.75316
Magnitude (Debye)      :      1.91439

Rotational constants in cm-1:     0.016455     0.008371     0.006274
Rotational constants in MHz :   493.301573   250.952825   188.083540

                             ****ORCA TERMINATED NORMALLY****
TOTAL RUN TIME: 0 days 0 hours 0 minutes 33 seconds 333 msec
