                         Program Version 4.2.1 -  RELEASE  -
|  1> ! wB97X-D3 SP def2-SVP
|  2> %pal
|  3> nprocs 16
|  4> end
|  5>
|  6> * xyz 0 1
|  7> S 	 -72.6268 	 51.2065 	 124.931
|  8> C 	 -71.5694 	 51.0921 	 123.498
|  9> C 	 -70.531 	 50.2972 	 123.803
| 10> C 	 -70.5624 	 49.7272 	 125.138
| 11> C 	 -71.6278 	 50.1774 	 125.896
| 12> H 	 -69.8923 	 49.1214 	 125.645
| 13> C 	 -69.4408 	 49.9895 	 122.926
| 14> H 	 -69.842 	 50.17 	 121.951
| 15> H 	 -69.2451 	 48.9052 	 122.974
| 16> C 	 -68.0596 	 50.6672 	 123.176
| 17> H 	 -68.1442 	 51.7217 	 123.384
| 18> H 	 -67.5342 	 50.1265 	 123.991
| 19> C 	 -67.0982 	 50.57 	 122.06
| 20> H 	 -66.075 	 50.5203 	 122.403
| 21> H 	 -67.2182 	 49.6394 	 121.547
| 22> H 	 -67.1146 	 51.3585 	 121.287
| 23> S 	 -71.9929 	 51.3596 	 128.346
| 24> C 	 -72.2676 	 50.3338 	 129.715
| 25> C 	 -72.0655 	 49.0339 	 129.348
| 26> C 	 -71.8151 	 48.7821 	 127.992
| 27> C 	 -71.9365 	 49.9489 	 127.306
| 28> H 	 -72.3178 	 48.1897 	 130.077
| 29> C 	 -71.4929 	 47.4035 	 127.496
| 30> H 	 -70.5195 	 47.0973 	 128.013
| 31> H 	 -71.2752 	 47.2871 	 126.45
| 32> C 	 -72.6837 	 46.3713 	 127.749
| 33> H 	 -72.9283 	 46.1728 	 128.798
| 34> H 	 -72.3397 	 45.4605 	 127.281
| 35> C 	 -73.9488 	 46.6895 	 126.975
| 36> H 	 -74.3102 	 47.594 	 127.445
| 37> H 	 -74.7532 	 45.9442 	 126.969
| 38> H 	 -73.6866 	 46.9569 	 125.952
| 39> H 	 -71.6752 	 51.5967 	 122.553
| 40> H 	 -72.6117 	 50.6718 	 130.61
| 41> *
| 42>
| 43>                          ****END OF INPUT****

CARTESIAN COORDINATES (ANGSTROEM)
---------------------------------
  S    -72.626800   51.206500  124.931000
  C    -71.569400   51.092100  123.498000
  C    -70.531000   50.297200  123.803000
  C    -70.562400   49.727200  125.138000
  C    -71.627800   50.177400  125.896000
  H    -69.892300   49.121400  125.645000
  C    -69.440800   49.989500  122.926000
  H    -69.842000   50.170000  121.951000
  H    -69.245100   48.905200  122.974000
  C    -68.059600   50.667200  123.176000
  H    -68.144200   51.721700  123.384000
  H    -67.534200   50.126500  123.991000
  C    -67.098200   50.570000  122.060000
  H    -66.075000   50.520300  122.403000
  H    -67.218200   49.639400  121.547000
  H    -67.114600   51.358500  121.287000
  S    -71.992900   51.359600  128.346000
  C    -72.267600   50.333800  129.715000
  C    -72.065500   49.033900  129.348000
  C    -71.815100   48.782100  127.992000
  C    -71.936500   49.948900  127.306000
  H    -72.317800   48.189700  130.077000
  C    -71.492900   47.403500  127.496000
  H    -70.519500   47.097300  128.013000
  H    -71.275200   47.287100  126.450000
  C    -72.683700   46.371300  127.749000
  H    -72.928300   46.172800  128.798000
  H    -72.339700   45.460500  127.281000
  C    -73.948800   46.689500  126.975000
  H    -74.310200   47.594000  127.445000
  H    -74.753200   45.944200  126.969000
  H    -73.686600   46.956900  125.952000
  H    -71.675200   51.596700  122.553000
  H    -72.611700   50.671800  130.610000

 Total Charge           Charge          ....    0
 Multiplicity           Mult            ....    1
 Number of Electrons    NEL             ....  134
 Basis Dimension        Dim             ....  322

ORBITAL ENERGIES
----------------

  NO   OCC          E(Eh)            E(eV)
   0   2.0000     -88.964513     -2420.8475
   1   2.0000     -88.958976     -2420.6968
   2   2.0000     -10.325596      -280.9738
   3   2.0000     -10.323846      -280.9261
   4   2.0000     -10.310531      -280.5638
   5   2.0000     -10.309975      -280.5487
   6   2.0000     -10.303792      -280.3804
   7   2.0000     -10.299783      -280.2714
   8   2.0000     -10.294675      -280.1323
   9   2.0000     -10.293114      -280.0899
  10   2.0000     -10.288496      -279.9642
  11   2.0000     -10.286762      -279.9170
  12   2.0000     -10.284905      -279.8665
  13   2.0000     -10.284327      -279.8508
  14   2.0000     -10.271708      -279.5074
  15   2.0000     -10.270866      -279.4845
  16   2.0000      -8.079862      -219.8642
  17   2.0000      -8.073877      -219.7014
  18   2.0000      -6.038394      -164.3131
  19   2.0000      -6.034402      -164.2044
  20   2.0000      -6.032515      -164.1531
  21   2.0000      -6.030422      -164.0961
  22   2.0000      -6.028237      -164.0367
  23   2.0000      -6.024599      -163.9377
  24   2.0000      -1.013754       -27.5857
  25   2.0000      -0.989815       -26.9342
  26   2.0000      -0.919469       -25.0200
  27   2.0000      -0.909971       -24.7616
  28   2.0000      -0.877024       -23.8650
  29   2.0000      -0.856340       -23.3022
  30   2.0000      -0.847039       -23.0491
  31   2.0000      -0.817326       -22.2406
  32   2.0000      -0.785142       -21.3648
  33   2.0000      -0.775039       -21.0899
  34   2.0000      -0.709751       -19.3133
  35   2.0000      -0.699346       -19.0302
  36   2.0000      -0.697149       -18.9704
  37   2.0000      -0.658711       -17.9244
  38   2.0000      -0.646133       -17.5822
  39   2.0000      -0.619620       -16.8607
  40   2.0000      -0.608453       -16.5568
  41   2.0000      -0.580011       -15.7829
  42   2.0000      -0.558268       -15.1912
  43   2.0000      -0.552694       -15.0396
  44   2.0000      -0.543551       -14.7908
  45   2.0000      -0.529646       -14.4124
  46   2.0000      -0.519625       -14.1397
  47   2.0000      -0.518204       -14.1010
  48   2.0000      -0.511431       -13.9168
  49   2.0000      -0.505052       -13.7432
  50   2.0000      -0.489983       -13.3331
  51   2.0000      -0.479706       -13.0535
  52   2.0000      -0.476129       -12.9561
  53   2.0000      -0.464094       -12.6287
  54   2.0000      -0.456533       -12.4229
  55   2.0000      -0.449124       -12.2213
  56   2.0000      -0.442410       -12.0386
  57   2.0000      -0.436104       -11.8670
  58   2.0000      -0.428298       -11.6546
  59   2.0000      -0.425863       -11.5883
  60   2.0000      -0.420100       -11.4315
  61   2.0000      -0.414315       -11.2741
  62   2.0000      -0.408798       -11.1240
  63   2.0000      -0.347419        -9.4538
  64   2.0000      -0.332393        -9.0449
  65   2.0000      -0.323128        -8.7928
  66   2.0000      -0.299343        -8.1455
  67   0.0000       0.031453         0.8559
  68   0.0000       0.077910         2.1200
  69   0.0000       0.110227         2.9994
  70   0.0000       0.118711         3.2303
  71   0.0000       0.131592         3.5808

MULLIKEN ATOMIC CHARGES
-----------------------
   0 S :    0.088322
   1 C :   -0.113055
   2 C :   -0.074943
   3 C :    0.060580
   4 C :   -0.169534
   5 H :   -0.020824
   6 C :    0.071123
   7 H :    0.003700
   8 H :    0.024044
   9 C :   -0.050810
  10 H :    0.030757
  11 H :    0.031109
  12 C :   -0.038751
  13 H :    0.023819
  14 H :    0.008644
  15 H :    0.033494
  16 S :    0.111168
  17 C :   -0.048891
  18 C :   -0.057790
  19 C :   -0.021010
  20 C :   -0.144039
  21 H :    0.040913
  22 C :    0.046048
  23 H :    0.054695
  24 H :    0.020415
  25 C :   -0.083220
  26 H :    0.036227
  27 H :    0.021213
  28 C :   -0.046305
  29 H :    0.031041
  30 H :    0.044263
  31 H :    0.027695
  32 H :    0.041136
  33 H :    0.018765
Sum of atomic charges:    0.0000000

LOEWDIN ATOMIC CHARGES
----------------------
   0 S :    0.391078
   1 C :   -0.186186
   2 C :   -0.066037
   3 C :   -0.059227
   4 C :   -0.190089
   5 H :    0.016929
   6 C :   -0.037443
   7 H :    0.025154
   8 H :    0.036057
   9 C :   -0.037807
  10 H :    0.025154
  11 H :    0.031413
  12 C :   -0.068150
  13 H :    0.026375
  14 H :    0.019468
  15 H :    0.025128
  16 S :    0.411173
  17 C :   -0.170496
  18 C :   -0.073225
  19 C :   -0.065087
  20 C :   -0.197251
  21 H :    0.040513
  22 C :   -0.028237
  23 H :    0.046479
  24 H :    0.026525
  25 C :   -0.036915
  26 H :    0.020224
  27 H :    0.020433
  28 C :   -0.065456
  29 H :    0.024157
  30 H :    0.028667
  31 H :    0.025642
  32 H :    0.031392
  33 H :    0.009644

  Mayer bond orders larger than 0.100000
B(  0-S ,  1-C ) :   1.1026 B(  0-S ,  4-C ) :   1.1554 B(  1-C ,  2-C ) :   1.6421
B(  1-C , 32-H ) :   0.9721 B(  2-C ,  3-C ) :   1.1798 B(  2-C ,  6-C ) :   1.0607
B(  3-C ,  4-C ) :   1.6001 B(  3-C ,  5-H ) :   1.0060 B(  4-C , 20-C ) :   1.0026
B(  6-C ,  7-H ) :   0.9381 B(  6-C ,  8-H ) :   0.9207 B(  6-C ,  9-C ) :   1.0605
B(  9-C , 10-H ) :   0.9593 B(  9-C , 11-H ) :   0.9520 B(  9-C , 12-C ) :   1.0933
B( 12-C , 13-H ) :   0.9733 B( 12-C , 14-H ) :   0.9663 B( 12-C , 15-H ) :   0.9748
B( 16-S , 17-C ) :   1.1430 B( 16-S , 20-C ) :   1.1554 B( 17-C , 18-C ) :   1.6153
B( 17-C , 20-C ) :   0.1003 B( 17-C , 33-H ) :   0.9849 B( 18-C , 19-C ) :   1.2287
B( 18-C , 21-H ) :   0.9733 B( 19-C , 20-C ) :   1.6050 B( 19-C , 22-C ) :   1.0448
B( 22-C , 23-H ) :   0.9349 B( 22-C , 24-H ) :   0.9362 B( 22-C , 25-C ) :   1.0633
B( 25-C , 26-H ) :   0.9612 B( 25-C , 27-H ) :   0.9576 B( 25-C , 28-C ) :   1.0669
B( 28-C , 29-H ) :   0.9737 B( 28-C , 30-H ) :   0.9752 B( 28-C , 31-H ) :   0.9722

Dispersion correction           -0.014292508
FINAL SINGLE POINT ENERGY     -1339.866353622848

DIPOLE MOMENT
-------------
                                X             Y             Z
Electronic contribution:    -11.86318      16.55916      11.27197
Nuclear contribution   :     12.28017     -17.09062     -11.33167
                        -----------------------------------------
Total Dipole Moment    :      0.41699      -0.53146      -0.05970
                        -----------------------------------------
Magnitude (a.u.)       :      0.67815
Magnitude (Debye)      :      1.72373

Rotational constants in cm-1:     0.020386     0.007739     0.007022
Rotational constants in MHz :   611.144045   231.997484   210.519249

                             ****ORCA TERMINATED NORMALLY****
TOTAL RUN TIME: 0 days 0 hours 0 minutes 34 seconds 314 msec
