                         Program Version 4.2.1 -  RELEASE  -
|  1> ! wB97X-D3 SP def2-SVP
|  2> %pal
|  3> nprocs 16
|  4> end
|  5>
|  6> * xyz 0 1
|  7> S 	 -5.33682 	 12.7909 	 83.3674
|  8> C 	 -4.08777 	 12.5759 	 82.1922
|  9> C 	 -3.84091 	 13.7429 	 81.4913
| 10> C 	 -4.69107 	 14.8132 	 81.8282
| 11> C 	 -5.53067 	 14.5244 	 82.8559
| 12> H 	 -4.71585 	 15.7762 	 81.3296
| 13> C 	 -2.91239 	 13.9078 	 80.3353
| 14> H 	 -2.00247 	 13.3884 	 80.7564
| 15> H 	 -2.63109 	 14.9345 	 80.2844
| 16> C 	 -3.41292 	 13.5351 	 78.9554
| 17> H 	 -2.7023 	 13.7423 	 78.1423
| 18> H 	 -3.70101 	 12.4615 	 79.0487
| 19> C 	 -4.72315 	 14.3375 	 78.6738
| 20> H 	 -4.61415 	 15.4249 	 78.6277
| 21> H 	 -5.02744 	 13.9882 	 77.7069
| 22> H 	 -5.53358 	 14.1796 	 79.4207
| 23> S 	 -7.7191 	 16.173 	 82.8891
| 24> C 	 -7.73814 	 17.3341 	 84.1256
| 25> C 	 -6.79745 	 17.181 	 85.1196
| 26> C 	 -5.85515 	 16.193 	 84.7943
| 27> C 	 -6.23806 	 15.5415 	 83.5755
| 28> H 	 -6.83534 	 17.9328 	 85.9329
| 29> C 	 -4.58926 	 16.0089 	 85.6043
| 30> H 	 -4.38058 	 14.9274 	 85.7554
| 31> H 	 -4.77513 	 16.2598 	 86.6671
| 32> C 	 -3.41222 	 16.7611 	 85.0553
| 33> H 	 -3.61739 	 17.7197 	 84.628
| 34> H 	 -3.13277 	 16.2493 	 84.1627
| 35> C 	 -2.16363 	 16.8404 	 85.9372
| 36> H 	 -1.54618 	 15.9188 	 86.0893
| 37> H 	 -2.22957 	 17.4672 	 86.7657
| 38> H 	 -1.40357 	 17.2618 	 85.2618
| 39> H 	 -3.5425 	 11.604 	 82.0429
| 40> H 	 -8.5981 	 17.9689 	 84.2442
| 41> *
| 42>
| 43>                          ****END OF INPUT****

CARTESIAN COORDINATES (ANGSTROEM)
---------------------------------
  S     -5.336820   12.790900   83.367400
  C     -4.087770   12.575900   82.192200
  C     -3.840910   13.742900   81.491300
  C     -4.691070   14.813200   81.828200
  C     -5.530670   14.524400   82.855900
  H     -4.715850   15.776200   81.329600
  C     -2.912390   13.907800   80.335300
  H     -2.002470   13.388400   80.756400
  H     -2.631090   14.934500   80.284400
  C     -3.412920   13.535100   78.955400
  H     -2.702300   13.742300   78.142300
  H     -3.701010   12.461500   79.048700
  C     -4.723150   14.337500   78.673800
  H     -4.614150   15.424900   78.627700
  H     -5.027440   13.988200   77.706900
  H     -5.533580   14.179600   79.420700
  S     -7.719100   16.173000   82.889100
  C     -7.738140   17.334100   84.125600
  C     -6.797450   17.181000   85.119600
  C     -5.855150   16.193000   84.794300
  C     -6.238060   15.541500   83.575500
  H     -6.835340   17.932800   85.932900
  C     -4.589260   16.008900   85.604300
  H     -4.380580   14.927400   85.755400
  H     -4.775130   16.259800   86.667100
  C     -3.412220   16.761100   85.055300
  H     -3.617390   17.719700   84.628000
  H     -3.132770   16.249300   84.162700
  C     -2.163630   16.840400   85.937200
  H     -1.546180   15.918800   86.089300
  H     -2.229570   17.467200   86.765700
  H     -1.403570   17.261800   85.261800
  H     -3.542500   11.604000   82.042900
  H     -8.598100   17.968900   84.244200

 Total Charge           Charge          ....    0
 Multiplicity           Mult            ....    1
 Number of Electrons    NEL             ....  134
 Basis Dimension        Dim             ....  322

ORBITAL ENERGIES
----------------

  NO   OCC          E(Eh)            E(eV)
   0   2.0000     -88.968515     -2420.9564
   1   2.0000     -88.966267     -2420.8952
   2   2.0000     -10.323766      -280.9240
   3   2.0000     -10.323010      -280.9034
   4   2.0000     -10.317888      -280.7640
   5   2.0000     -10.307069      -280.4696
   6   2.0000     -10.305201      -280.4188
   7   2.0000     -10.293593      -280.1029
   8   2.0000     -10.292445      -280.0717
   9   2.0000     -10.290756      -280.0257
  10   2.0000     -10.289110      -279.9809
  11   2.0000     -10.288308      -279.9591
  12   2.0000     -10.284270      -279.8492
  13   2.0000     -10.276877      -279.6480
  14   2.0000     -10.276583      -279.6400
  15   2.0000     -10.273735      -279.5625
  16   2.0000      -8.084153      -219.9810
  17   2.0000      -8.080205      -219.8736
  18   2.0000      -6.042177      -164.4160
  19   2.0000      -6.038678      -164.3208
  20   2.0000      -6.038598      -164.3186
  21   2.0000      -6.035335      -164.2298
  22   2.0000      -6.034847      -164.2165
  23   2.0000      -6.031028      -164.1126
  24   2.0000      -1.007405       -27.4129
  25   2.0000      -0.986533       -26.8449
  26   2.0000      -0.912793       -24.8383
  27   2.0000      -0.910584       -24.7782
  28   2.0000      -0.871383       -23.7115
  29   2.0000      -0.855189       -23.2709
  30   2.0000      -0.845382       -23.0040
  31   2.0000      -0.811412       -22.0796
  32   2.0000      -0.785494       -21.3744
  33   2.0000      -0.765730       -20.8366
  34   2.0000      -0.708713       -19.2851
  35   2.0000      -0.700412       -19.0592
  36   2.0000      -0.692785       -18.8516
  37   2.0000      -0.654843       -17.8192
  38   2.0000      -0.641001       -17.4425
  39   2.0000      -0.613826       -16.7031
  40   2.0000      -0.595805       -16.2127
  41   2.0000      -0.575456       -15.6589
  42   2.0000      -0.560173       -15.2431
  43   2.0000      -0.552431       -15.0324
  44   2.0000      -0.537233       -14.6188
  45   2.0000      -0.520468       -14.1626
  46   2.0000      -0.514213       -13.9924
  47   2.0000      -0.509501       -13.8642
  48   2.0000      -0.508837       -13.8462
  49   2.0000      -0.497382       -13.5345
  50   2.0000      -0.483390       -13.1537
  51   2.0000      -0.479719       -13.0538
  52   2.0000      -0.468556       -12.7501
  53   2.0000      -0.463743       -12.6191
  54   2.0000      -0.459996       -12.5171
  55   2.0000      -0.452510       -12.3134
  56   2.0000      -0.443865       -12.0782
  57   2.0000      -0.436293       -11.8721
  58   2.0000      -0.434538       -11.8244
  59   2.0000      -0.420862       -11.4522
  60   2.0000      -0.417095       -11.3497
  61   2.0000      -0.409832       -11.1521
  62   2.0000      -0.404097       -10.9960
  63   2.0000      -0.341094        -9.2816
  64   2.0000      -0.336118        -9.1462
  65   2.0000      -0.316849        -8.6219
  66   2.0000      -0.298445        -8.1211
  67   0.0000       0.038818         1.0563
  68   0.0000       0.054787         1.4908
  69   0.0000       0.109523         2.9803
  70   0.0000       0.119879         3.2621
  71   0.0000       0.133095         3.6217

MULLIKEN ATOMIC CHARGES
-----------------------
   0 S :    0.110078
   1 C :   -0.141470
   2 C :   -0.119340
   3 C :    0.040852
   4 C :   -0.149238
   5 H :    0.020114
   6 C :    0.068519
   7 H :    0.030058
   8 H :    0.001774
   9 C :   -0.033733
  10 H :    0.046535
  11 H :    0.033117
  12 C :   -0.089131
  13 H :    0.027282
  14 H :    0.027959
  15 H :    0.060130
  16 S :    0.133741
  17 C :   -0.097335
  18 C :   -0.053194
  19 C :   -0.006548
  20 C :   -0.223703
  21 H :    0.031192
  22 C :    0.095932
  23 H :    0.023246
  24 H :    0.012927
  25 C :   -0.043261
  26 H :    0.017653
  27 H :    0.013340
  28 C :   -0.033521
  29 H :    0.033439
  30 H :    0.031969
  31 H :    0.014505
  32 H :    0.068552
  33 H :    0.047560
Sum of atomic charges:   -0.0000000

LOEWDIN ATOMIC CHARGES
----------------------
   0 S :    0.387732
   1 C :   -0.207470
   2 C :   -0.076306
   3 C :   -0.052499
   4 C :   -0.186239
   5 H :    0.035468
   6 C :   -0.043719
   7 H :    0.034798
   8 H :    0.021118
   9 C :   -0.034439
  10 H :    0.029789
  11 H :    0.029330
  12 C :   -0.068324
  13 H :    0.021201
  14 H :    0.022229
  15 H :    0.033225
  16 S :    0.438234
  17 C :   -0.203697
  18 C :   -0.075885
  19 C :   -0.042841
  20 C :   -0.210003
  21 H :    0.039973
  22 C :   -0.038000
  23 H :    0.033553
  24 H :    0.029630
  25 C :   -0.040952
  26 H :    0.024427
  27 H :    0.026497
  28 C :   -0.071099
  29 H :    0.034703
  30 H :    0.014262
  31 H :    0.033614
  32 H :    0.040786
  33 H :    0.020904

  Mayer bond orders larger than 0.100000
B(  0-S ,  1-C ) :   1.1447 B(  0-S ,  4-C ) :   1.1246 B(  1-C ,  2-C ) :   1.6084
B(  1-C , 32-H ) :   0.9610 B(  2-C ,  3-C ) :   1.2439 B(  2-C ,  6-C ) :   1.0221
B(  3-C ,  4-C ) :   1.5806 B(  3-C ,  5-H ) :   0.9907 B(  4-C , 20-C ) :   1.0426
B(  6-C ,  7-H ) :   0.9366 B(  6-C ,  8-H ) :   0.9343 B(  6-C ,  9-C ) :   1.0669
B(  9-C , 10-H ) :   0.9566 B(  9-C , 11-H ) :   0.9533 B(  9-C , 12-C ) :   1.0724
B( 12-C , 13-H ) :   0.9749 B( 12-C , 14-H ) :   0.9732 B( 12-C , 15-H ) :   0.9689
B( 16-S , 17-C ) :   1.1808 B( 16-S , 20-C ) :   1.1713 B( 17-C , 18-C ) :   1.5983
B( 17-C , 20-C ) :   0.1058 B( 17-C , 33-H ) :   0.9621 B( 18-C , 19-C ) :   1.2685
B( 18-C , 21-H ) :   0.9854 B( 19-C , 20-C ) :   1.5412 B( 19-C , 22-C ) :   1.0489
B( 22-C , 23-H ) :   0.9209 B( 22-C , 24-H ) :   0.9352 B( 22-C , 25-C ) :   1.0594
B( 25-C , 26-H ) :   0.9547 B( 25-C , 27-H ) :   0.9432 B( 25-C , 28-C ) :   1.0954
B( 28-C , 29-H ) :   0.9694 B( 28-C , 30-H ) :   0.9779 B( 28-C , 31-H ) :   0.9637

Dispersion correction           -0.015502568
FINAL SINGLE POINT ENERGY     -1339.863614166410

DIPOLE MOMENT
-------------
                                X             Y             Z
Electronic contribution:    -19.56172      -5.58385       5.43661
Nuclear contribution   :     19.98590       5.87293      -5.59379
                        -----------------------------------------
Total Dipole Moment    :      0.42418       0.28908      -0.15717
                        -----------------------------------------
Magnitude (a.u.)       :      0.53685
Magnitude (Debye)      :      1.36455

Rotational constants in cm-1:     0.017541     0.009495     0.007846
Rotational constants in MHz :   525.858653   284.655782   235.214574

                             ****ORCA TERMINATED NORMALLY****
TOTAL RUN TIME: 0 days 0 hours 0 minutes 34 seconds 124 msec
