                         Program Version 4.2.1 -  RELEASE  -
|  1> ! wB97X-D3 SP def2-SVP
|  2> %pal
|  3> nprocs 16
|  4> end
|  5>
|  6> * xyz 0 1
|  7> S 	 44.2379 	 10.7691 	 102.974
|  8> C 	 45.8951 	 10.7877 	 103.61
|  9> C 	 46.7778 	 10.2478 	 102.695
| 10> C 	 46.1027 	 9.62637 	 101.633
| 11> C 	 44.7457 	 9.86803 	 101.611
| 12> H 	 46.5248 	 9.14873 	 100.775
| 13> C 	 48.2824 	 10.1772 	 102.946
| 14> H 	 48.5703 	 10.8993 	 103.644
| 15> H 	 48.6401 	 10.6226 	 102.023
| 16> C 	 48.8244 	 8.78466 	 103.217
| 17> H 	 48.9155 	 8.0835 	 102.387
| 18> H 	 49.8691 	 8.9208 	 103.418
| 19> C 	 48.1999 	 8.09208 	 104.413
| 20> H 	 47.1036 	 7.90784 	 104.257
| 21> H 	 48.6479 	 7.21081 	 104.687
| 22> H 	 48.3771 	 8.78615 	 105.215
| 23> S 	 42.2644 	 8.66709 	 101.174
| 24> C 	 41.6548 	 8.61604 	 99.5325
| 25> C 	 42.5886 	 9.13081 	 98.6571
| 26> C 	 43.825 	 9.45168 	 99.2336
| 27> C 	 43.762 	 9.35126 	 100.629
| 28> H 	 42.4145 	 9.24648 	 97.6604
| 29> C 	 45.0401 	 9.94064 	 98.4248
| 30> H 	 45.6318 	 9.06277 	 98.1525
| 31> H 	 45.7465 	 10.597 	 98.9889
| 32> C 	 44.6862 	 10.9624 	 97.2762
| 33> H 	 43.9542 	 10.6453 	 96.5611
| 34> H 	 45.5339 	 11.2602 	 96.6038
| 35> C 	 44.186 	 12.2818 	 97.8896
| 36> H 	 43.9265 	 13.0875 	 97.1194
| 37> H 	 44.8914 	 12.7443 	 98.5476
| 38> H 	 43.2759 	 12.0316 	 98.4348
| 39> H 	 46.2319 	 11.2448 	 104.506
| 40> H 	 40.6693 	 8.22423 	 99.2325
| 41> *
| 42>
| 43>                          ****END OF INPUT****

CARTESIAN COORDINATES (ANGSTROEM)
---------------------------------
  S     44.237900   10.769100  102.974000
  C     45.895100   10.787700  103.610000
  C     46.777800   10.247800  102.695000
  C     46.102700    9.626370  101.633000
  C     44.745700    9.868030  101.611000
  H     46.524800    9.148730  100.775000
  C     48.282400   10.177200  102.946000
  H     48.570300   10.899300  103.644000
  H     48.640100   10.622600  102.023000
  C     48.824400    8.784660  103.217000
  H     48.915500    8.083500  102.387000
  H     49.869100    8.920800  103.418000
  C     48.199900    8.092080  104.413000
  H     47.103600    7.907840  104.257000
  H     48.647900    7.210810  104.687000
  H     48.377100    8.786150  105.215000
  S     42.264400    8.667090  101.174000
  C     41.654800    8.616040   99.532500
  C     42.588600    9.130810   98.657100
  C     43.825000    9.451680   99.233600
  C     43.762000    9.351260  100.629000
  H     42.414500    9.246480   97.660400
  C     45.040100    9.940640   98.424800
  H     45.631800    9.062770   98.152500
  H     45.746500   10.597000   98.988900
  C     44.686200   10.962400   97.276200
  H     43.954200   10.645300   96.561100
  H     45.533900   11.260200   96.603800
  C     44.186000   12.281800   97.889600
  H     43.926500   13.087500   97.119400
  H     44.891400   12.744300   98.547600
  H     43.275900   12.031600   98.434800
  H     46.231900   11.244800  104.506000
  H     40.669300    8.224230   99.232500

 Total Charge           Charge          ....    0
 Multiplicity           Mult            ....    1
 Number of Electrons    NEL             ....  134
 Basis Dimension        Dim             ....  322

ORBITAL ENERGIES
----------------

  NO   OCC          E(Eh)            E(eV)
   0   2.0000     -88.969586     -2420.9855
   1   2.0000     -88.965557     -2420.8759
   2   2.0000     -10.327516      -281.0260
   3   2.0000     -10.325650      -280.9752
   4   2.0000     -10.319984      -280.8210
   5   2.0000     -10.308006      -280.4951
   6   2.0000     -10.304038      -280.3871
   7   2.0000     -10.302695      -280.3506
   8   2.0000     -10.296466      -280.1811
   9   2.0000     -10.291579      -280.0481
  10   2.0000     -10.288854      -279.9740
  11   2.0000     -10.286697      -279.9152
  12   2.0000     -10.285827      -279.8916
  13   2.0000     -10.282308      -279.7958
  14   2.0000     -10.275970      -279.6234
  15   2.0000     -10.267268      -279.3866
  16   2.0000      -8.084295      -219.9848
  17   2.0000      -8.080451      -219.8803
  18   2.0000      -6.042730      -164.4311
  19   2.0000      -6.038851      -164.3255
  20   2.0000      -6.038734      -164.3223
  21   2.0000      -6.035208      -164.2264
  22   2.0000      -6.034957      -164.2195
  23   2.0000      -6.031296      -164.1199
  24   2.0000      -1.009686       -27.4749
  25   2.0000      -0.987643       -26.8751
  26   2.0000      -0.916291       -24.9335
  27   2.0000      -0.905323       -24.6351
  28   2.0000      -0.867573       -23.6079
  29   2.0000      -0.850607       -23.1462
  30   2.0000      -0.845739       -23.0137
  31   2.0000      -0.814558       -22.1653
  32   2.0000      -0.787453       -21.4277
  33   2.0000      -0.772111       -21.0102
  34   2.0000      -0.708357       -19.2754
  35   2.0000      -0.698572       -19.0091
  36   2.0000      -0.695489       -18.9252
  37   2.0000      -0.661103       -17.9895
  38   2.0000      -0.641669       -17.4607
  39   2.0000      -0.621967       -16.9246
  40   2.0000      -0.602316       -16.3899
  41   2.0000      -0.567307       -15.4372
  42   2.0000      -0.562803       -15.3146
  43   2.0000      -0.556685       -15.1482
  44   2.0000      -0.541644       -14.7389
  45   2.0000      -0.537837       -14.6353
  46   2.0000      -0.518464       -14.1081
  47   2.0000      -0.510523       -13.8920
  48   2.0000      -0.496051       -13.4982
  49   2.0000      -0.488422       -13.2906
  50   2.0000      -0.484781       -13.1916
  51   2.0000      -0.474975       -12.9247
  52   2.0000      -0.472331       -12.8528
  53   2.0000      -0.465899       -12.6778
  54   2.0000      -0.461965       -12.5707
  55   2.0000      -0.451577       -12.2880
  56   2.0000      -0.447449       -12.1757
  57   2.0000      -0.443903       -12.0792
  58   2.0000      -0.437736       -11.9114
  59   2.0000      -0.420525       -11.4431
  60   2.0000      -0.417496       -11.3606
  61   2.0000      -0.415545       -11.3076
  62   2.0000      -0.409979       -11.1561
  63   2.0000      -0.346355        -9.4248
  64   2.0000      -0.336419        -9.1544
  65   2.0000      -0.331628        -9.0240
  66   2.0000      -0.289272        -7.8715
  67   0.0000       0.029921         0.8142
  68   0.0000       0.076398         2.0789
  69   0.0000       0.114364         3.1120
  70   0.0000       0.126196         3.4340
  71   0.0000       0.138179         3.7600

MULLIKEN ATOMIC CHARGES
-----------------------
   0 S :    0.114452
   1 C :   -0.114155
   2 C :   -0.115249
   3 C :    0.026501
   4 C :   -0.149397
   5 H :   -0.001004
   6 C :    0.126849
   7 H :   -0.000479
   8 H :    0.021769
   9 C :   -0.062545
  10 H :    0.023969
  11 H :    0.015554
  12 C :   -0.016553
  13 H :    0.056219
  14 H :    0.012742
  15 H :    0.013412
  16 S :    0.123833
  17 C :   -0.099871
  18 C :    0.008173
  19 C :   -0.038817
  20 C :   -0.165244
  21 H :   -0.025273
  22 C :    0.050230
  23 H :    0.053472
  24 H :    0.040572
  25 C :   -0.085824
  26 H :    0.024348
  27 H :    0.033680
  28 C :   -0.080719
  29 H :    0.041625
  30 H :    0.030881
  31 H :    0.042375
  32 H :    0.027934
  33 H :    0.066541
Sum of atomic charges:    0.0000000

LOEWDIN ATOMIC CHARGES
----------------------
   0 S :    0.411773
   1 C :   -0.192873
   2 C :   -0.059154
   3 C :   -0.070889
   4 C :   -0.196245
   5 H :    0.026401
   6 C :   -0.022848
   7 H :    0.022447
   8 H :    0.036631
   9 C :   -0.043432
  10 H :    0.022809
  11 H :    0.023619
  12 C :   -0.055828
  13 H :    0.035874
  14 H :    0.013319
  15 H :    0.022567
  16 S :    0.418859
  17 C :   -0.188746
  18 C :   -0.060010
  19 C :   -0.056216
  20 C :   -0.204483
  21 H :    0.014685
  22 C :   -0.032685
  23 H :    0.033974
  24 H :    0.037896
  25 C :   -0.046363
  26 H :    0.014328
  27 H :    0.029662
  28 C :   -0.068753
  29 H :    0.033315
  30 H :    0.019169
  31 H :    0.025810
  32 H :    0.019344
  33 H :    0.036044

  Mayer bond orders larger than 0.100000
B(  0-S ,  1-C ) :   1.1295 B(  0-S ,  4-C ) :   1.1706 B(  1-C ,  2-C ) :   1.5974
B(  1-C , 32-H ) :   0.9719 B(  2-C ,  3-C ) :   1.2417 B(  2-C ,  6-C ) :   1.0218
B(  3-C ,  4-C ) :   1.5633 B(  3-C ,  5-H ) :   0.9975 B(  4-C , 20-C ) :   1.0287
B(  6-C ,  7-H ) :   0.9361 B(  6-C ,  8-H ) :   0.9267 B(  6-C ,  9-C ) :   1.0729
B(  9-C , 10-H ) :   0.9542 B(  9-C , 11-H ) :   0.9499 B(  9-C , 12-C ) :   1.0782
B( 12-C , 13-H ) :   0.9725 B( 12-C , 14-H ) :   0.9713 B( 12-C , 15-H ) :   0.9749
B( 16-S , 17-C ) :   1.1535 B( 16-S , 20-C ) :   1.1666 B( 17-C , 18-C ) :   1.5717
B( 17-C , 20-C ) :   0.1009 B( 17-C , 33-H ) :   0.9669 B( 18-C , 19-C ) :   1.2852
B( 18-C , 21-H ) :   1.0054 B( 19-C , 20-C ) :   1.5530 B( 19-C , 22-C ) :   1.0260
B( 22-C , 23-H ) :   0.9374 B( 22-C , 24-H ) :   0.9408 B( 22-C , 25-C ) :   1.0462
B( 25-C , 26-H ) :   0.9584 B( 25-C , 27-H ) :   0.9582 B( 25-C , 28-C ) :   1.0706
B( 28-C , 29-H ) :   0.9738 B( 28-C , 30-H ) :   0.9756 B( 28-C , 31-H ) :   0.9761

Dispersion correction           -0.014951618
FINAL SINGLE POINT ENERGY     -1339.875491890111

DIPOLE MOMENT
-------------
                                X             Y             Z
Electronic contribution:    -19.88505      -3.11395       7.54488
Nuclear contribution   :     20.42025       3.15530      -7.92561
                        -----------------------------------------
Total Dipole Moment    :      0.53520       0.04135      -0.38073
                        -----------------------------------------
Magnitude (a.u.)       :      0.65810
Magnitude (Debye)      :      1.67277

Rotational constants in cm-1:     0.020637     0.008407     0.007246
Rotational constants in MHz :   618.685851   252.049757   217.215150

                             ****ORCA TERMINATED NORMALLY****
TOTAL RUN TIME: 0 days 0 hours 0 minutes 30 seconds 996 msec
