                         Program Version 4.2.1 -  RELEASE  -
|  1> ! wB97X-D3 SP def2-SVP
|  2> %pal
|  3> nprocs 16
|  4> end
|  5>
|  6> * xyz 0 1
|  7> S 	 -4.11277 	 20.548 	 56.1132
|  8> C 	 -4.14086 	 19.4722 	 54.7613
|  9> C 	 -2.92949 	 19.3656 	 54.099
| 10> C 	 -1.89989 	 20.0195 	 54.8662
| 11> C 	 -2.40821 	 20.7519 	 55.908
| 12> H 	 -0.881716 	 19.9033 	 54.7261
| 13> C 	 -2.658 	 18.4797 	 52.9068
| 14> H 	 -3.36467 	 18.7857 	 52.1607
| 15> H 	 -2.87723 	 17.4616 	 52.9761
| 16> C 	 -1.27793 	 18.6532 	 52.2224
| 17> H 	 -1.02058 	 19.6976 	 52.089
| 18> H 	 -0.537847 	 18.2989 	 52.9421
| 19> C 	 -1.14005 	 17.9185 	 50.8441
| 20> H 	 -1.22462 	 16.8487 	 50.8406
| 21> H 	 -1.9284 	 18.2216 	 50.0725
| 22> H 	 -0.157917 	 18.1953 	 50.3898
| 23> S 	 -1.99238 	 20.6075 	 58.5823
| 24> C 	 -0.988497 	 21.8064 	 59.3271
| 25> C 	 -0.423635 	 22.6817 	 58.3984
| 26> C 	 -0.820076 	 22.4285 	 57.0344
| 27> C 	 -1.7086 	 21.3596 	 56.9909
| 28> H 	 0.351342 	 23.397 	 58.5786
| 29> C 	 -0.244482 	 23.1574 	 55.8477
| 30> H 	 0.190688 	 24.0221 	 56.3156
| 31> H 	 -0.976029 	 23.5539 	 55.2685
| 32> C 	 0.833192 	 22.4805 	 54.9904
| 33> H 	 0.317628 	 21.6054 	 54.4846
| 34> H 	 1.61735 	 22.0956 	 55.6925
| 35> C 	 1.44071 	 23.3132 	 53.8446
| 36> H 	 0.703516 	 23.727 	 53.2473
| 37> H 	 2.04037 	 22.641 	 53.2969
| 38> H 	 2.02179 	 24.0543 	 54.4032
| 39> H 	 -4.95096 	 18.9262 	 54.3631
| 40> H 	 -0.771757 	 21.7809 	 60.3555
| 41> *
| 42>
| 43>                          ****END OF INPUT****

CARTESIAN COORDINATES (ANGSTROEM)
---------------------------------
  S     -4.112770   20.548000   56.113200
  C     -4.140860   19.472200   54.761300
  C     -2.929490   19.365600   54.099000
  C     -1.899890   20.019500   54.866200
  C     -2.408210   20.751900   55.908000
  H     -0.881716   19.903300   54.726100
  C     -2.658000   18.479700   52.906800
  H     -3.364670   18.785700   52.160700
  H     -2.877230   17.461600   52.976100
  C     -1.277930   18.653200   52.222400
  H     -1.020580   19.697600   52.089000
  H     -0.537847   18.298900   52.942100
  C     -1.140050   17.918500   50.844100
  H     -1.224620   16.848700   50.840600
  H     -1.928400   18.221600   50.072500
  H     -0.157917   18.195300   50.389800
  S     -1.992380   20.607500   58.582300
  C     -0.988497   21.806400   59.327100
  C     -0.423635   22.681700   58.398400
  C     -0.820076   22.428500   57.034400
  C     -1.708600   21.359600   56.990900
  H      0.351342   23.397000   58.578600
  C     -0.244482   23.157400   55.847700
  H      0.190688   24.022100   56.315600
  H     -0.976029   23.553900   55.268500
  C      0.833192   22.480500   54.990400
  H      0.317628   21.605400   54.484600
  H      1.617350   22.095600   55.692500
  C      1.440710   23.313200   53.844600
  H      0.703516   23.727000   53.247300
  H      2.040370   22.641000   53.296900
  H      2.021790   24.054300   54.403200
  H     -4.950960   18.926200   54.363100
  H     -0.771757   21.780900   60.355500

 Total Charge           Charge          ....    0
 Multiplicity           Mult            ....    1
 Number of Electrons    NEL             ....  134
 Basis Dimension        Dim             ....  322

ORBITAL ENERGIES
----------------

  NO   OCC          E(Eh)            E(eV)
   0   2.0000     -88.966721     -2420.9076
   1   2.0000     -88.965051     -2420.8621
   2   2.0000     -10.320571      -280.8370
   3   2.0000     -10.318781      -280.7883
   4   2.0000     -10.313955      -280.6570
   5   2.0000     -10.305807      -280.4353
   6   2.0000     -10.300884      -280.3013
   7   2.0000     -10.299927      -280.2753
   8   2.0000     -10.293263      -280.0939
   9   2.0000     -10.292658      -280.0775
  10   2.0000     -10.291503      -280.0460
  11   2.0000     -10.290395      -280.0159
  12   2.0000     -10.287924      -279.9486
  13   2.0000     -10.286107      -279.8992
  14   2.0000     -10.280410      -279.7442
  15   2.0000     -10.273087      -279.5449
  16   2.0000      -8.082066      -219.9242
  17   2.0000      -8.079596      -219.8570
  18   2.0000      -6.040460      -164.3693
  19   2.0000      -6.038009      -164.3026
  20   2.0000      -6.036487      -164.2612
  21   2.0000      -6.034152      -164.1976
  22   2.0000      -6.032899      -164.1635
  23   2.0000      -6.030446      -164.0968
  24   2.0000      -1.009611       -27.4729
  25   2.0000      -0.980888       -26.6913
  26   2.0000      -0.911894       -24.8139
  27   2.0000      -0.909930       -24.7604
  28   2.0000      -0.868601       -23.6358
  29   2.0000      -0.856189       -23.2981
  30   2.0000      -0.846417       -23.0322
  31   2.0000      -0.813020       -22.1234
  32   2.0000      -0.789683       -21.4884
  33   2.0000      -0.773672       -21.0527
  34   2.0000      -0.714687       -19.4476
  35   2.0000      -0.698717       -19.0131
  36   2.0000      -0.688307       -18.7298
  37   2.0000      -0.665860       -18.1190
  38   2.0000      -0.647450       -17.6180
  39   2.0000      -0.624647       -16.9975
  40   2.0000      -0.601796       -16.3757
  41   2.0000      -0.569618       -15.5001
  42   2.0000      -0.568178       -15.4609
  43   2.0000      -0.556859       -15.1529
  44   2.0000      -0.532562       -14.4917
  45   2.0000      -0.521165       -14.1816
  46   2.0000      -0.518856       -14.1188
  47   2.0000      -0.514440       -13.9986
  48   2.0000      -0.504430       -13.7262
  49   2.0000      -0.496254       -13.5037
  50   2.0000      -0.490174       -13.3383
  51   2.0000      -0.485397       -13.2083
  52   2.0000      -0.472359       -12.8535
  53   2.0000      -0.468771       -12.7559
  54   2.0000      -0.460588       -12.5332
  55   2.0000      -0.452215       -12.3054
  56   2.0000      -0.443755       -12.0752
  57   2.0000      -0.439382       -11.9562
  58   2.0000      -0.437221       -11.8974
  59   2.0000      -0.432224       -11.7614
  60   2.0000      -0.426625       -11.6091
  61   2.0000      -0.418490       -11.3877
  62   2.0000      -0.405365       -11.0305
  63   2.0000      -0.342177        -9.3111
  64   2.0000      -0.332725        -9.0539
  65   2.0000      -0.323724        -8.8090
  66   2.0000      -0.291967        -7.9448
  67   0.0000       0.033925         0.9232
  68   0.0000       0.065088         1.7711
  69   0.0000       0.113022         3.0755
  70   0.0000       0.121833         3.3153
  71   0.0000       0.131466         3.5774

MULLIKEN ATOMIC CHARGES
-----------------------
   0 S :    0.130695
   1 C :   -0.100631
   2 C :   -0.079214
   3 C :    0.040332
   4 C :   -0.154595
   5 H :   -0.000640
   6 C :    0.090525
   7 H :    0.013899
   8 H :    0.024183
   9 C :   -0.102120
  10 H :    0.031096
  11 H :    0.037154
  12 C :   -0.069037
  13 H :    0.033376
  14 H :    0.037331
  15 H :    0.042017
  16 S :    0.116045
  17 C :   -0.072808
  18 C :   -0.018216
  19 C :   -0.053402
  20 C :   -0.191036
  21 H :    0.007560
  22 C :    0.161286
  23 H :   -0.010516
  24 H :   -0.000941
  25 C :   -0.142571
  26 H :    0.024797
  27 H :    0.035981
  28 C :    0.022032
  29 H :    0.022516
  30 H :    0.029830
  31 H :    0.031694
  32 H :    0.019630
  33 H :    0.043748
Sum of atomic charges:   -0.0000000

LOEWDIN ATOMIC CHARGES
----------------------
   0 S :    0.429509
   1 C :   -0.198375
   2 C :   -0.056794
   3 C :   -0.049067
   4 C :   -0.205309
   5 H :    0.016299
   6 C :   -0.034216
   7 H :    0.031961
   8 H :    0.025219
   9 C :   -0.040012
  10 H :    0.023584
  11 H :    0.023010
  12 C :   -0.072145
  13 H :    0.020180
  14 H :    0.032240
  15 H :    0.032591
  16 S :    0.404182
  17 C :   -0.183961
  18 C :   -0.067458
  19 C :   -0.049469
  20 C :   -0.192834
  21 H :    0.025526
  22 C :   -0.027916
  23 H :    0.026198
  24 H :    0.018779
  25 C :   -0.041146
  26 H :    0.022479
  27 H :    0.027109
  28 C :   -0.047249
  29 H :    0.016730
  30 H :    0.024663
  31 H :    0.028465
  32 H :    0.018800
  33 H :    0.018428

  Mayer bond orders larger than 0.100000
B(  0-S ,  1-C ) :   1.1414 B(  0-S ,  4-C ) :   1.1512 B(  1-C ,  2-C ) :   1.6295
B(  1-C , 32-H ) :   0.9719 B(  2-C ,  3-C ) :   1.2369 B(  2-C ,  6-C ) :   1.0087
B(  3-C ,  4-C ) :   1.5801 B(  3-C ,  5-H ) :   0.9886 B(  4-C , 20-C ) :   1.0410
B(  6-C ,  7-H ) :   0.9276 B(  6-C ,  8-H ) :   0.9408 B(  6-C ,  9-C ) :   1.0776
B(  9-C , 10-H ) :   0.9587 B(  9-C , 11-H ) :   0.9472 B(  9-C , 12-C ) :   1.0748
B( 12-C , 13-H ) :   0.9776 B( 12-C , 14-H ) :   0.9749 B( 12-C , 15-H ) :   0.9749
B( 16-S , 17-C ) :   1.1562 B( 16-S , 20-C ) :   1.1465 B( 17-C , 18-C ) :   1.5866
B( 17-C , 33-H ) :   0.9751 B( 18-C , 19-C ) :   1.2595 B( 18-C , 21-H ) :   0.9845
B( 19-C , 20-C ) :   1.5951 B( 19-C , 22-C ) :   1.0477 B( 22-C , 23-H ) :   0.9180
B( 22-C , 24-H ) :   0.9109 B( 22-C , 25-C ) :   1.0643 B( 25-C , 26-H ) :   0.9456
B( 25-C , 27-H ) :   0.9573 B( 25-C , 28-C ) :   1.0764 B( 28-C , 29-H ) :   0.9738
B( 28-C , 30-H ) :   0.9730 B( 28-C , 31-H ) :   0.9781

Dispersion correction           -0.014170988
FINAL SINGLE POINT ENERGY     -1339.866334970079

DIPOLE MOMENT
-------------
                                X             Y             Z
Electronic contribution:    -17.74719       0.50356      26.89687
Nuclear contribution   :     18.18998      -0.61520     -27.39189
                        -----------------------------------------
Total Dipole Moment    :      0.44279      -0.11164      -0.49501
                        -----------------------------------------
Magnitude (a.u.)       :      0.67347
Magnitude (Debye)      :      1.71183

Rotational constants in cm-1:     0.016920     0.009500     0.006728
Rotational constants in MHz :   507.243677   284.803259   201.702509

                             ****ORCA TERMINATED NORMALLY****
TOTAL RUN TIME: 0 days 0 hours 0 minutes 33 seconds 32 msec
