                         Program Version 4.2.1 -  RELEASE  -
|  1> ! wB97X-D3 SP def2-SVP
|  2> %pal
|  3> nprocs 16
|  4> end
|  5>
|  6> * xyz 0 1
|  7> S 	 16.346 	 0.0283417 	 66.3866
|  8> C 	 14.8577 	 0.224162 	 65.4166
|  9> C 	 15.066 	 1.18827 	 64.4636
| 10> C 	 16.2711 	 1.91639 	 64.6335
| 11> C 	 17.0195 	 1.44792 	 65.6865
| 12> H 	 16.6542 	 2.75783 	 64.0722
| 13> C 	 14.1195 	 1.36225 	 63.3573
| 14> H 	 13.6485 	 0.43002 	 63.0481
| 15> H 	 14.8679 	 1.51942 	 62.5857
| 16> C 	 13.0711 	 2.492 	 63.3455
| 17> H 	 12.367 	 2.44293 	 62.5024
| 18> H 	 12.434 	 2.35005 	 64.152
| 19> C 	 13.7308 	 3.93493 	 63.4682
| 20> H 	 14.5986 	 4.08799 	 64.0887
| 21> H 	 14.1985 	 4.23606 	 62.4815
| 22> H 	 12.9752 	 4.75145 	 63.6725
| 23> S 	 19.5628 	 0.573351 	 65.8182
| 24> C 	 20.7069 	 1.801 	 66.2128
| 25> C 	 20.1644 	 3.09186 	 66.353
| 26> C 	 18.8066 	 3.07676 	 66.2916
| 27> C 	 18.3685 	 1.79809 	 65.9799
| 28> H 	 20.6698 	 3.97774 	 66.4111
| 29> C 	 17.9881 	 4.31989 	 66.4945
| 30> H 	 16.9413 	 4.23166 	 66.2892
| 31> H 	 18.2898 	 5.09224 	 65.7823
| 32> C 	 18.0469 	 4.8923 	 67.9187
| 33> H 	 17.9346 	 4.21495 	 68.7
| 34> H 	 17.2017 	 5.52738 	 68.0804
| 35> C 	 19.1721 	 5.83697 	 68.2652
| 36> H 	 18.9987 	 6.31685 	 69.3118
| 37> H 	 19.1712 	 6.67584 	 67.5584
| 38> H 	 20.0847 	 5.26882 	 68.121
| 39> H 	 14.0031 	 -0.332834 	 65.4042
| 40> H 	 21.7915 	 1.71517 	 66.1583
| 41> *
| 42>
| 43>                          ****END OF INPUT****

CARTESIAN COORDINATES (ANGSTROEM)
---------------------------------
  S     16.346000    0.028342   66.386600
  C     14.857700    0.224162   65.416600
  C     15.066000    1.188270   64.463600
  C     16.271100    1.916390   64.633500
  C     17.019500    1.447920   65.686500
  H     16.654200    2.757830   64.072200
  C     14.119500    1.362250   63.357300
  H     13.648500    0.430020   63.048100
  H     14.867900    1.519420   62.585700
  C     13.071100    2.492000   63.345500
  H     12.367000    2.442930   62.502400
  H     12.434000    2.350050   64.152000
  C     13.730800    3.934930   63.468200
  H     14.598600    4.087990   64.088700
  H     14.198500    4.236060   62.481500
  H     12.975200    4.751450   63.672500
  S     19.562800    0.573351   65.818200
  C     20.706900    1.801000   66.212800
  C     20.164400    3.091860   66.353000
  C     18.806600    3.076760   66.291600
  C     18.368500    1.798090   65.979900
  H     20.669800    3.977740   66.411100
  C     17.988100    4.319890   66.494500
  H     16.941300    4.231660   66.289200
  H     18.289800    5.092240   65.782300
  C     18.046900    4.892300   67.918700
  H     17.934600    4.214950   68.700000
  H     17.201700    5.527380   68.080400
  C     19.172100    5.836970   68.265200
  H     18.998700    6.316850   69.311800
  H     19.171200    6.675840   67.558400
  H     20.084700    5.268820   68.121000
  H     14.003100   -0.332834   65.404200
  H     21.791500    1.715170   66.158300

 Total Charge           Charge          ....    0
 Multiplicity           Mult            ....    1
 Number of Electrons    NEL             ....  134
 Basis Dimension        Dim             ....  322

ORBITAL ENERGIES
----------------

  NO   OCC          E(Eh)            E(eV)
   0   2.0000     -88.976381     -2421.1704
   1   2.0000     -88.962499     -2420.7927
   2   2.0000     -10.319084      -280.7965
   3   2.0000     -10.316547      -280.7275
   4   2.0000     -10.314851      -280.6814
   5   2.0000     -10.303310      -280.3673
   6   2.0000     -10.295005      -280.1413
   7   2.0000     -10.292547      -280.0745
   8   2.0000     -10.290899      -280.0296
   9   2.0000     -10.290705      -280.0243
  10   2.0000     -10.289216      -279.9838
  11   2.0000     -10.287301      -279.9317
  12   2.0000     -10.286886      -279.9204
  13   2.0000     -10.282376      -279.7977
  14   2.0000     -10.281209      -279.7659
  15   2.0000     -10.272826      -279.5378
  16   2.0000      -8.091635      -220.1846
  17   2.0000      -8.077365      -219.7963
  18   2.0000      -6.049783      -164.6230
  19   2.0000      -6.046266      -164.5273
  20   2.0000      -6.042544      -164.4260
  21   2.0000      -6.035854      -164.2439
  22   2.0000      -6.031908      -164.1366
  23   2.0000      -6.028086      -164.0326
  24   2.0000      -1.018609       -27.7178
  25   2.0000      -0.989770       -26.9330
  26   2.0000      -0.918115       -24.9832
  27   2.0000      -0.913017       -24.8445
  28   2.0000      -0.869288       -23.6545
  29   2.0000      -0.863605       -23.4999
  30   2.0000      -0.842263       -22.9191
  31   2.0000      -0.814095       -22.1527
  32   2.0000      -0.789122       -21.4731
  33   2.0000      -0.771234       -20.9863
  34   2.0000      -0.716802       -19.5052
  35   2.0000      -0.707727       -19.2582
  36   2.0000      -0.694108       -18.8876
  37   2.0000      -0.674063       -18.3422
  38   2.0000      -0.642805       -17.4916
  39   2.0000      -0.616950       -16.7881
  40   2.0000      -0.604855       -16.4589
  41   2.0000      -0.567271       -15.4362
  42   2.0000      -0.553880       -15.0718
  43   2.0000      -0.544728       -14.8228
  44   2.0000      -0.542886       -14.7727
  45   2.0000      -0.535303       -14.5663
  46   2.0000      -0.522055       -14.2058
  47   2.0000      -0.515921       -14.0389
  48   2.0000      -0.507783       -13.8175
  49   2.0000      -0.498398       -13.5621
  50   2.0000      -0.486791       -13.2463
  51   2.0000      -0.477648       -12.9975
  52   2.0000      -0.472912       -12.8686
  53   2.0000      -0.467617       -12.7245
  54   2.0000      -0.462814       -12.5938
  55   2.0000      -0.459232       -12.4963
  56   2.0000      -0.447053       -12.1649
  57   2.0000      -0.435719       -11.8565
  58   2.0000      -0.434113       -11.8128
  59   2.0000      -0.429303       -11.6819
  60   2.0000      -0.426880       -11.6160
  61   2.0000      -0.408361       -11.1121
  62   2.0000      -0.406065       -11.0496
  63   2.0000      -0.345079        -9.3901
  64   2.0000      -0.338486        -9.2107
  65   2.0000      -0.328652        -8.9431
  66   2.0000      -0.285792        -7.7768
  67   0.0000       0.032532         0.8852
  68   0.0000       0.065012         1.7691
  69   0.0000       0.104917         2.8549
  70   0.0000       0.120409         3.2765
  71   0.0000       0.127879         3.4798

MULLIKEN ATOMIC CHARGES
-----------------------
   0 S :    0.092803
   1 C :   -0.066412
   2 C :   -0.089275
   3 C :    0.037261
   4 C :   -0.167704
   5 H :    0.012237
   6 C :    0.046891
   7 H :    0.020908
   8 H :    0.020467
   9 C :    0.017125
  10 H :    0.031543
  11 H :    0.009711
  12 C :   -0.112299
  13 H :    0.034443
  14 H :    0.024708
  15 H :    0.045578
  16 S :    0.160880
  17 C :   -0.081979
  18 C :   -0.023663
  19 C :    0.001286
  20 C :   -0.184963
  21 H :   -0.019473
  22 C :    0.088664
  23 H :    0.017762
  24 H :    0.024659
  25 C :   -0.047624
  26 H :    0.018155
  27 H :    0.008164
  28 C :   -0.072177
  29 H :    0.052473
  30 H :    0.021047
  31 H :    0.028628
  32 H :   -0.000631
  33 H :    0.050806
Sum of atomic charges:    0.0000000

LOEWDIN ATOMIC CHARGES
----------------------
   0 S :    0.395212
   1 C :   -0.175227
   2 C :   -0.059027
   3 C :   -0.067329
   4 C :   -0.196098
   5 H :    0.031190
   6 C :   -0.038013
   7 H :    0.031525
   8 H :    0.035406
   9 C :   -0.027818
  10 H :    0.030162
  11 H :    0.013875
  12 C :   -0.081518
  13 H :    0.020500
  14 H :    0.027847
  15 H :    0.032526
  16 S :    0.450167
  17 C :   -0.198667
  18 C :   -0.054749
  19 C :   -0.055100
  20 C :   -0.213327
  21 H :    0.015264
  22 C :   -0.026720
  23 H :    0.030602
  24 H :    0.034418
  25 C :   -0.039886
  26 H :    0.018748
  27 H :    0.022739
  28 C :   -0.069110
  29 H :    0.040517
  30 H :    0.019181
  31 H :    0.017478
  32 H :    0.008852
  33 H :    0.026380

  Mayer bond orders larger than 0.100000
B(  0-S ,  1-C ) :   1.1097 B(  0-S ,  4-C ) :   1.1566 B(  1-C ,  2-C ) :   1.6221
B(  1-C , 32-H ) :   0.9822 B(  2-C ,  3-C ) :   1.2233 B(  2-C ,  6-C ) :   1.0134
B(  3-C ,  4-C ) :   1.5691 B(  3-C ,  5-H ) :   0.9932 B(  4-C , 20-C ) :   1.0368
B(  6-C ,  7-H ) :   0.9406 B(  6-C ,  8-H ) :   0.9365 B(  6-C ,  9-C ) :   1.0676
B(  9-C , 10-H ) :   0.9555 B(  9-C , 11-H ) :   0.9551 B(  9-C , 12-C ) :   1.0561
B( 12-C , 13-H ) :   0.9788 B( 12-C , 14-H ) :   0.9758 B( 12-C , 15-H ) :   0.9763
B( 16-S , 17-C ) :   1.1656 B( 16-S , 20-C ) :   1.1749 B( 17-C , 18-C ) :   1.5613
B( 17-C , 20-C ) :   0.1064 B( 17-C , 33-H ) :   0.9642 B( 18-C , 19-C ) :   1.2976
B( 18-C , 21-H ) :   0.9935 B( 19-C , 20-C ) :   1.5561 B( 19-C , 22-C ) :   1.0525
B( 22-C , 23-H ) :   0.9224 B( 22-C , 24-H ) :   0.9326 B( 22-C , 25-C ) :   1.0673
B( 25-C , 26-H ) :   0.9537 B( 25-C , 27-H ) :   0.9527 B( 25-C , 28-C ) :   1.0832
B( 28-C , 29-H ) :   0.9696 B( 28-C , 30-H ) :   0.9741 B( 28-C , 31-H ) :   0.9733

Dispersion correction           -0.014625980
FINAL SINGLE POINT ENERGY     -1339.844111493157

DIPOLE MOMENT
-------------
                                X             Y             Z
Electronic contribution:     11.45086     -24.84630       3.46707
Nuclear contribution   :    -11.65651      25.31857      -3.85165
                        -----------------------------------------
Total Dipole Moment    :     -0.20565       0.47226      -0.38458
                        -----------------------------------------
Magnitude (a.u.)       :      0.64283
Magnitude (Debye)      :      1.63394

Rotational constants in cm-1:     0.018531     0.009135     0.007003
Rotational constants in MHz :   555.555348   273.866679   209.949086

                             ****ORCA TERMINATED NORMALLY****
TOTAL RUN TIME: 0 days 0 hours 0 minutes 33 seconds 865 msec
