                         Program Version 4.2.1 -  RELEASE  -
|  1> ! wB97X-D3 SP def2-SVP
|  2> %pal
|  3> nprocs 16
|  4> end
|  5>
|  6> * xyz 0 1
|  7> S 	 24.371 	 6.62772 	 69.0004
|  8> C 	 25.6533 	 7.67772 	 68.3885
|  9> C 	 25.2441 	 8.99125 	 68.2527
| 10> C 	 23.9562 	 9.19476 	 68.8215
| 11> C 	 23.3321 	 8.04228 	 69.2057
| 12> H 	 23.4077 	 10.0935 	 68.9926
| 13> C 	 26.1026 	 10.1723 	 67.8563
| 14> H 	 25.504 	 11.0306 	 67.4402
| 15> H 	 26.6225 	 10.0016 	 66.9961
| 16> C 	 27.0158 	 10.8269 	 68.9457
| 17> H 	 26.5445 	 10.9379 	 69.9383
| 18> H 	 27.8241 	 10.1681 	 69.0871
| 19> C 	 27.8062 	 12.1168 	 68.5828
| 20> H 	 27.0155 	 12.8317 	 68.2715
| 21> H 	 28.5811 	 12.4588 	 69.4033
| 22> H 	 28.2691 	 11.8653 	 67.7002
| 23> S 	 20.9189 	 6.96761 	 68.5209
| 24> C 	 19.5282 	 7.81843 	 69.1308
| 25> C 	 19.7871 	 8.68849 	 70.1521
| 26> C 	 21.1808 	 8.81594 	 70.4515
| 27> C 	 21.9091 	 8.03 	 69.5655
| 28> H 	 18.9372 	 9.24971 	 70.5022
| 29> C 	 21.6763 	 9.90884 	 71.3025
| 30> H 	 21.8087 	 10.7053 	 70.5144
| 31> H 	 22.7149 	 9.58878 	 71.5899
| 32> C 	 20.8307 	 10.2066 	 72.4856
| 33> H 	 20.8841 	 9.42927 	 73.2161
| 34> H 	 19.7569 	 10.3005 	 72.2346
| 35> C 	 21.3172 	 11.4994 	 73.3406
| 36> H 	 22.3521 	 11.4023 	 73.7047
| 37> H 	 20.5641 	 11.684 	 74.159
| 38> H 	 21.3036 	 12.4179 	 72.7725
| 39> H 	 26.6598 	 7.33628 	 68.2589
| 40> H 	 18.5096 	 7.46279 	 68.8734
| 41> *
| 42>
| 43>                          ****END OF INPUT****

CARTESIAN COORDINATES (ANGSTROEM)
---------------------------------
  S     24.371000    6.627720   69.000400
  C     25.653300    7.677720   68.388500
  C     25.244100    8.991250   68.252700
  C     23.956200    9.194760   68.821500
  C     23.332100    8.042280   69.205700
  H     23.407700   10.093500   68.992600
  C     26.102600   10.172300   67.856300
  H     25.504000   11.030600   67.440200
  H     26.622500   10.001600   66.996100
  C     27.015800   10.826900   68.945700
  H     26.544500   10.937900   69.938300
  H     27.824100   10.168100   69.087100
  C     27.806200   12.116800   68.582800
  H     27.015500   12.831700   68.271500
  H     28.581100   12.458800   69.403300
  H     28.269100   11.865300   67.700200
  S     20.918900    6.967610   68.520900
  C     19.528200    7.818430   69.130800
  C     19.787100    8.688490   70.152100
  C     21.180800    8.815940   70.451500
  C     21.909100    8.030000   69.565500
  H     18.937200    9.249710   70.502200
  C     21.676300    9.908840   71.302500
  H     21.808700   10.705300   70.514400
  H     22.714900    9.588780   71.589900
  C     20.830700   10.206600   72.485600
  H     20.884100    9.429270   73.216100
  H     19.756900   10.300500   72.234600
  C     21.317200   11.499400   73.340600
  H     22.352100   11.402300   73.704700
  H     20.564100   11.684000   74.159000
  H     21.303600   12.417900   72.772500
  H     26.659800    7.336280   68.258900
  H     18.509600    7.462790   68.873400

 Total Charge           Charge          ....    0
 Multiplicity           Mult            ....    1
 Number of Electrons    NEL             ....  134
 Basis Dimension        Dim             ....  322

ORBITAL ENERGIES
----------------

  NO   OCC          E(Eh)            E(eV)
   0   2.0000     -88.968613     -2420.9590
   1   2.0000     -88.962411     -2420.7903
   2   2.0000     -10.326007      -280.9849
   3   2.0000     -10.325838      -280.9803
   4   2.0000     -10.317119      -280.7431
   5   2.0000     -10.313603      -280.6474
   6   2.0000     -10.305216      -280.4192
   7   2.0000     -10.302615      -280.3484
   8   2.0000     -10.297736      -280.2156
   9   2.0000     -10.294030      -280.1148
  10   2.0000     -10.292616      -280.0763
  11   2.0000     -10.289621      -279.9948
  12   2.0000     -10.288945      -279.9764
  13   2.0000     -10.288329      -279.9597
  14   2.0000     -10.285803      -279.8909
  15   2.0000     -10.284660      -279.8598
  16   2.0000      -8.082801      -219.9442
  17   2.0000      -8.077213      -219.7921
  18   2.0000      -6.041363      -164.3939
  19   2.0000      -6.037469      -164.2879
  20   2.0000      -6.035586      -164.2366
  21   2.0000      -6.033461      -164.1788
  22   2.0000      -6.031984      -164.1386
  23   2.0000      -6.027831      -164.0256
  24   2.0000      -1.005666       -27.3656
  25   2.0000      -0.983338       -26.7580
  26   2.0000      -0.915460       -24.9109
  27   2.0000      -0.907661       -24.6987
  28   2.0000      -0.868449       -23.6317
  29   2.0000      -0.853341       -23.2206
  30   2.0000      -0.845704       -23.0128
  31   2.0000      -0.813605       -22.1393
  32   2.0000      -0.784073       -21.3357
  33   2.0000      -0.771781       -21.0012
  34   2.0000      -0.712079       -19.3767
  35   2.0000      -0.701129       -19.0787
  36   2.0000      -0.694788       -18.9062
  37   2.0000      -0.655816       -17.8457
  38   2.0000      -0.646055       -17.5801
  39   2.0000      -0.620347       -16.8805
  40   2.0000      -0.595814       -16.2129
  41   2.0000      -0.567109       -15.4318
  42   2.0000      -0.564056       -15.3488
  43   2.0000      -0.558759       -15.2046
  44   2.0000      -0.533211       -14.5094
  45   2.0000      -0.527661       -14.3584
  46   2.0000      -0.516344       -14.0504
  47   2.0000      -0.513216       -13.9653
  48   2.0000      -0.504996       -13.7416
  49   2.0000      -0.495540       -13.4843
  50   2.0000      -0.482106       -13.1188
  51   2.0000      -0.478561       -13.0223
  52   2.0000      -0.472367       -12.8538
  53   2.0000      -0.461649       -12.5621
  54   2.0000      -0.457644       -12.4531
  55   2.0000      -0.451427       -12.2840
  56   2.0000      -0.446267       -12.1435
  57   2.0000      -0.440299       -11.9811
  58   2.0000      -0.436202       -11.8697
  59   2.0000      -0.429553       -11.6887
  60   2.0000      -0.424061       -11.5393
  61   2.0000      -0.416943       -11.3456
  62   2.0000      -0.404628       -11.0105
  63   2.0000      -0.345984        -9.4147
  64   2.0000      -0.333320        -9.0701
  65   2.0000      -0.329046        -8.9538
  66   2.0000      -0.289037        -7.8651
  67   0.0000       0.033317         0.9066
  68   0.0000       0.063879         1.7382
  69   0.0000       0.108239         2.9453
  70   0.0000       0.123733         3.3669
  71   0.0000       0.126084         3.4309

MULLIKEN ATOMIC CHARGES
-----------------------
   0 S :    0.109125
   1 C :   -0.118186
   2 C :   -0.036017
   3 C :    0.026479
   4 C :   -0.151668
   5 H :   -0.004685
   6 C :    0.080899
   7 H :    0.013499
   8 H :   -0.006475
   9 C :   -0.071744
  10 H :    0.035198
  11 H :    0.009334
  12 C :   -0.061336
  13 H :    0.030999
  14 H :    0.070889
  15 H :    0.010850
  16 S :    0.099992
  17 C :   -0.103889
  18 C :   -0.059134
  19 C :   -0.022014
  20 C :   -0.162335
  21 H :    0.022506
  22 C :    0.044985
  23 H :    0.060448
  24 H :    0.040743
  25 C :   -0.080411
  26 H :    0.034247
  27 H :    0.037415
  28 C :   -0.068545
  29 H :    0.042110
  30 H :    0.043486
  31 H :    0.026017
  32 H :    0.045604
  33 H :    0.061615
Sum of atomic charges:   -0.0000000

LOEWDIN ATOMIC CHARGES
----------------------
   0 S :    0.387649
   1 C :   -0.178407
   2 C :   -0.058479
   3 C :   -0.054038
   4 C :   -0.192666
   5 H :    0.027983
   6 C :   -0.032696
   7 H :    0.034707
   8 H :    0.016401
   9 C :   -0.041363
  10 H :    0.024267
  11 H :    0.013806
  12 C :   -0.068290
  13 H :    0.025507
  14 H :    0.048521
  15 H :    0.010000
  16 S :    0.385389
  17 C :   -0.186272
  18 C :   -0.077866
  19 C :   -0.057209
  20 C :   -0.181047
  21 H :    0.031530
  22 C :   -0.043817
  23 H :    0.043138
  24 H :    0.040551
  25 C :   -0.037160
  26 H :    0.027696
  27 H :    0.026814
  28 C :   -0.068767
  29 H :    0.027491
  30 H :    0.032665
  31 H :    0.018755
  32 H :    0.024896
  33 H :    0.030309

  Mayer bond orders larger than 0.100000
B(  0-S ,  1-C ) :   1.1319 B(  0-S ,  4-C ) :   1.1326 B(  1-C ,  2-C ) :   1.6146
B(  1-C , 32-H ) :   0.9740 B(  2-C ,  3-C ) :   1.2172 B(  2-C ,  6-C ) :   1.0404
B(  3-C ,  4-C ) :   1.5937 B(  3-C ,  5-H ) :   0.9977 B(  4-C , 20-C ) :   1.0334
B(  6-C ,  7-H ) :   0.9392 B(  6-C ,  8-H ) :   0.9282 B(  6-C ,  9-C ) :   1.0490
B(  9-C , 10-H ) :   0.9623 B(  9-C , 11-H ) :   0.9564 B(  9-C , 12-C ) :   1.0650
B( 12-C , 13-H ) :   0.9769 B( 12-C , 14-H ) :   0.9716 B( 12-C , 15-H ) :   0.9755
B( 16-S , 17-C ) :   1.1462 B( 16-S , 20-C ) :   1.1300 B( 17-C , 18-C ) :   1.6658
B( 17-C , 33-H ) :   0.9571 B( 18-C , 19-C ) :   1.1841 B( 18-C , 21-H ) :   0.9872
B( 19-C , 20-C ) :   1.6201 B( 19-C , 22-C ) :   1.0479 B( 22-C , 23-H ) :   0.9281
B( 22-C , 24-H ) :   0.9226 B( 22-C , 25-C ) :   1.0650 B( 25-C , 26-H ) :   0.9553
B( 25-C , 27-H ) :   0.9529 B( 25-C , 28-C ) :   1.0737 B( 28-C , 29-H ) :   0.9760
B( 28-C , 30-H ) :   0.9770 B( 28-C , 31-H ) :   0.9792

Dispersion correction           -0.013516724
FINAL SINGLE POINT ENERGY     -1339.847533681454

DIPOLE MOMENT
-------------
                                X             Y             Z
Electronic contribution:    -10.27741     -27.59463     -11.25711
Nuclear contribution   :     10.39625      28.25354      11.43364
                        -----------------------------------------
Total Dipole Moment    :      0.11885       0.65891       0.17653
                        -----------------------------------------
Magnitude (a.u.)       :      0.69242
Magnitude (Debye)      :      1.76000

Rotational constants in cm-1:     0.015933     0.008629     0.006181
Rotational constants in MHz :   477.651383   258.692897   185.310995

                             ****ORCA TERMINATED NORMALLY****
TOTAL RUN TIME: 0 days 0 hours 0 minutes 29 seconds 337 msec
