                         Program Version 4.2.1 -  RELEASE  -
|  1> ! wB97X-D3 SP def2-SVP
|  2> %pal
|  3> nprocs 16
|  4> end
|  5>
|  6> * xyz 0 1
|  7> S 	 -19.4713 	 50.7072 	 65.9098
|  8> C 	 -18.8633 	 49.173 	 65.4518
|  9> C 	 -19.3793 	 48.1232 	 66.1736
| 10> C 	 -20.6286 	 48.5797 	 66.7782
| 11> C 	 -20.8717 	 49.932 	 66.5766
| 12> H 	 -21.2903 	 48.0436 	 67.3732
| 13> C 	 -18.9368 	 46.6224 	 66.2948
| 14> H 	 -18.9773 	 46.3415 	 67.3197
| 15> H 	 -18.0519 	 46.4783 	 65.7738
| 16> C 	 -19.9083 	 45.5913 	 65.6795
| 17> H 	 -19.8243 	 44.5459 	 66.0052
| 18> H 	 -20.8987 	 45.8226 	 66.0493
| 19> C 	 -19.9351 	 45.743 	 64.1151
| 20> H 	 -19.0304 	 46.1494 	 63.6137
| 21> H 	 -20.1513 	 44.8025 	 63.644
| 22> H 	 -20.5928 	 46.6134 	 63.9348
| 23> S 	 -23.0221 	 51.2067 	 65.2249
| 24> C 	 -24.2528 	 51.9726 	 66.2562
| 25> C 	 -24.0853 	 51.6777 	 67.6043
| 26> C 	 -22.8506 	 50.9772 	 67.8265
| 27> C 	 -22.1262 	 50.6358 	 66.6909
| 28> H 	 -24.8305 	 52.1305 	 68.2094
| 29> C 	 -22.3302 	 50.7004 	 69.2398
| 30> H 	 -22.1116 	 51.7008 	 69.6411
| 31> H 	 -21.4374 	 50.0987 	 69.2239
| 32> C 	 -23.2499 	 49.8282 	 70.1699
| 33> H 	 -23.161 	 48.799 	 69.7765
| 34> H 	 -24.2548 	 50.3009 	 69.9629
| 35> C 	 -22.7275 	 49.907 	 71.6564
| 36> H 	 -23.3472 	 49.417 	 72.4168
| 37> H 	 -22.9671 	 50.8753 	 71.968
| 38> H 	 -21.6927 	 49.6462 	 71.9237
| 39> H 	 -17.977 	 48.9939 	 64.9364
| 40> H 	 -25.0346 	 52.6553 	 65.9178
| 41> *
| 42>
| 43>                          ****END OF INPUT****

CARTESIAN COORDINATES (ANGSTROEM)
---------------------------------
  S    -19.471300   50.707200   65.909800
  C    -18.863300   49.173000   65.451800
  C    -19.379300   48.123200   66.173600
  C    -20.628600   48.579700   66.778200
  C    -20.871700   49.932000   66.576600
  H    -21.290300   48.043600   67.373200
  C    -18.936800   46.622400   66.294800
  H    -18.977300   46.341500   67.319700
  H    -18.051900   46.478300   65.773800
  C    -19.908300   45.591300   65.679500
  H    -19.824300   44.545900   66.005200
  H    -20.898700   45.822600   66.049300
  C    -19.935100   45.743000   64.115100
  H    -19.030400   46.149400   63.613700
  H    -20.151300   44.802500   63.644000
  H    -20.592800   46.613400   63.934800
  S    -23.022100   51.206700   65.224900
  C    -24.252800   51.972600   66.256200
  C    -24.085300   51.677700   67.604300
  C    -22.850600   50.977200   67.826500
  C    -22.126200   50.635800   66.690900
  H    -24.830500   52.130500   68.209400
  C    -22.330200   50.700400   69.239800
  H    -22.111600   51.700800   69.641100
  H    -21.437400   50.098700   69.223900
  C    -23.249900   49.828200   70.169900
  H    -23.161000   48.799000   69.776500
  H    -24.254800   50.300900   69.962900
  C    -22.727500   49.907000   71.656400
  H    -23.347200   49.417000   72.416800
  H    -22.967100   50.875300   71.968000
  H    -21.692700   49.646200   71.923700
  H    -17.977000   48.993900   64.936400
  H    -25.034600   52.655300   65.917800

 Total Charge           Charge          ....    0
 Multiplicity           Mult            ....    1
 Number of Electrons    NEL             ....  134
 Basis Dimension        Dim             ....  322

ORBITAL ENERGIES
----------------

  NO   OCC          E(Eh)            E(eV)
   0   2.0000     -88.964937     -2420.8590
   1   2.0000     -88.964419     -2420.8449
   2   2.0000     -10.327343      -281.0213
   3   2.0000     -10.324885      -280.9544
   4   2.0000     -10.322900      -280.9004
   5   2.0000     -10.308286      -280.5027
   6   2.0000     -10.307659      -280.4856
   7   2.0000     -10.307516      -280.4818
   8   2.0000     -10.299969      -280.2764
   9   2.0000     -10.295560      -280.1564
  10   2.0000     -10.294248      -280.1207
  11   2.0000     -10.293456      -280.0992
  12   2.0000     -10.288279      -279.9583
  13   2.0000     -10.287639      -279.9409
  14   2.0000     -10.279781      -279.7271
  15   2.0000     -10.276958      -279.6502
  16   2.0000      -8.080965      -219.8942
  17   2.0000      -8.077793      -219.8079
  18   2.0000      -6.039328      -164.3385
  19   2.0000      -6.036417      -164.2593
  20   2.0000      -6.035655      -164.2385
  21   2.0000      -6.032548      -164.1540
  22   2.0000      -6.031422      -164.1233
  23   2.0000      -6.028442      -164.0422
  24   2.0000      -1.007065       -27.4036
  25   2.0000      -0.979105       -26.6428
  26   2.0000      -0.909770       -24.7561
  27   2.0000      -0.899601       -24.4794
  28   2.0000      -0.870177       -23.6787
  29   2.0000      -0.845239       -23.0001
  30   2.0000      -0.841384       -22.8952
  31   2.0000      -0.814087       -22.1524
  32   2.0000      -0.784994       -21.3608
  33   2.0000      -0.773411       -21.0456
  34   2.0000      -0.711328       -19.3562
  35   2.0000      -0.698481       -19.0066
  36   2.0000      -0.693945       -18.8832
  37   2.0000      -0.655834       -17.8462
  38   2.0000      -0.647545       -17.6206
  39   2.0000      -0.621707       -16.9175
  40   2.0000      -0.592055       -16.1106
  41   2.0000      -0.571812       -15.5598
  42   2.0000      -0.563302       -15.3282
  43   2.0000      -0.557111       -15.1597
  44   2.0000      -0.547828       -14.9071
  45   2.0000      -0.524366       -14.2687
  46   2.0000      -0.512176       -13.9370
  47   2.0000      -0.505709       -13.7610
  48   2.0000      -0.496108       -13.4998
  49   2.0000      -0.494656       -13.4603
  50   2.0000      -0.489500       -13.3200
  51   2.0000      -0.483510       -13.1570
  52   2.0000      -0.468545       -12.7497
  53   2.0000      -0.467014       -12.7081
  54   2.0000      -0.457881       -12.4596
  55   2.0000      -0.450839       -12.2679
  56   2.0000      -0.447374       -12.1737
  57   2.0000      -0.440819       -11.9953
  58   2.0000      -0.430595       -11.7171
  59   2.0000      -0.429318       -11.6823
  60   2.0000      -0.420299       -11.4369
  61   2.0000      -0.406278       -11.0554
  62   2.0000      -0.399649       -10.8750
  63   2.0000      -0.337529        -9.1846
  64   2.0000      -0.328119        -8.9286
  65   2.0000      -0.321809        -8.7569
  66   2.0000      -0.302235        -8.2242
  67   0.0000       0.027465         0.7474
  68   0.0000       0.061653         1.6777
  69   0.0000       0.097000         2.6395
  70   0.0000       0.117256         3.1907
  71   0.0000       0.129347         3.5197

MULLIKEN ATOMIC CHARGES
-----------------------
   0 S :    0.135224
   1 C :   -0.090967
   2 C :   -0.110452
   3 C :    0.066576
   4 C :   -0.214646
   5 H :   -0.014071
   6 C :    0.141328
   7 H :    0.029565
   8 H :    0.009015
   9 C :   -0.100431
  10 H :    0.033050
  11 H :    0.021481
  12 C :   -0.074288
  13 H :    0.021922
  14 H :    0.041969
  15 H :    0.047440
  16 S :    0.103888
  17 C :   -0.112454
  18 C :   -0.026101
  19 C :   -0.012430
  20 C :   -0.133077
  21 H :    0.015610
  22 C :    0.046142
  23 H :    0.039552
  24 H :    0.018382
  25 C :   -0.099809
  26 H :    0.041552
  27 H :    0.043195
  28 C :   -0.028592
  29 H :    0.023558
  30 H :    0.007820
  31 H :    0.047060
  32 H :    0.018811
  33 H :    0.064175
Sum of atomic charges:   -0.0000000

LOEWDIN ATOMIC CHARGES
----------------------
   0 S :    0.425012
   1 C :   -0.194903
   2 C :   -0.056055
   3 C :   -0.040357
   4 C :   -0.202187
   5 H :    0.016643
   6 C :   -0.012560
   7 H :    0.033041
   8 H :    0.018238
   9 C :   -0.042002
  10 H :    0.024161
  11 H :    0.019444
  12 C :   -0.075250
  13 H :    0.023805
  14 H :    0.023461
  15 H :    0.035724
  16 S :    0.367736
  17 C :   -0.166327
  18 C :   -0.078057
  19 C :   -0.048472
  20 C :   -0.193438
  21 H :    0.030825
  22 C :   -0.034004
  23 H :    0.032205
  24 H :    0.022902
  25 C :   -0.035587
  26 H :    0.024562
  27 H :    0.029502
  28 C :   -0.074909
  29 H :    0.029163
  30 H :    0.019767
  31 H :    0.031713
  32 H :    0.013220
  33 H :    0.032983

  Mayer bond orders larger than 0.100000
B(  0-S ,  1-C ) :   1.1513 B(  0-S ,  4-C ) :   1.1441 B(  1-C ,  2-C ) :   1.6296
B(  1-C , 32-H ) :   0.9652 B(  2-C ,  3-C ) :   1.1957 B(  2-C ,  6-C ) :   1.0296
B(  3-C ,  4-C ) :   1.5968 B(  3-C ,  5-H ) :   1.0015 B(  4-C , 20-C ) :   1.0515
B(  6-C ,  7-H ) :   0.9361 B(  6-C ,  8-H ) :   0.9472 B(  6-C ,  9-C ) :   1.0640
B(  9-C , 10-H ) :   0.9645 B(  9-C , 11-H ) :   0.9583 B(  9-C , 12-C ) :   1.0487
B( 12-C , 13-H ) :   0.9810 B( 12-C , 14-H ) :   0.9791 B( 12-C , 15-H ) :   0.9755
B( 16-S , 17-C ) :   1.1544 B( 16-S , 20-C ) :   1.1006 B( 17-C , 18-C ) :   1.6451
B( 17-C , 33-H ) :   0.9611 B( 18-C , 19-C ) :   1.1877 B( 18-C , 21-H ) :   0.9957
B( 19-C , 20-C ) :   1.6314 B( 19-C , 22-C ) :   1.0399 B( 22-C , 23-H ) :   0.9437
B( 22-C , 24-H ) :   0.9342 B( 22-C , 25-C ) :   1.0401 B( 25-C , 26-H ) :   0.9612
B( 25-C , 27-H ) :   0.9641 B( 25-C , 28-C ) :   1.0627 B( 28-C , 29-H ) :   0.9721
B( 28-C , 30-H ) :   0.9713 B( 28-C , 31-H ) :   0.9777

Dispersion correction           -0.014288716
FINAL SINGLE POINT ENERGY     -1339.830400473157

DIPOLE MOMENT
-------------
                                X             Y             Z
Electronic contribution:      0.53018      18.52847     -13.89135
Nuclear contribution   :     -0.60414     -18.81471      14.40306
                        -----------------------------------------
Total Dipole Moment    :     -0.07396      -0.28623       0.51171
                        -----------------------------------------
Magnitude (a.u.)       :      0.59097
Magnitude (Debye)      :      1.50213

Rotational constants in cm-1:     0.017106     0.008478     0.007004
Rotational constants in MHz :   512.833424   254.171884   209.985183

                             ****ORCA TERMINATED NORMALLY****
TOTAL RUN TIME: 0 days 0 hours 0 minutes 32 seconds 543 msec
