                         Program Version 4.2.1 -  RELEASE  -
|  1> ! wB97X-D3 SP def2-SVP
|  2> %pal
|  3> nprocs 16
|  4> end
|  5>
|  6> * xyz 0 1
|  7> S 	 -84.5619 	 52.7475 	 136.33
|  8> C 	 -84.909 	 52.2243 	 137.947
|  9> C 	 -83.8341 	 52.522 	 138.796
| 10> C 	 -82.7019 	 53.0517 	 138.117
| 11> C 	 -82.9522 	 53.2492 	 136.761
| 12> H 	 -81.7487 	 53.3353 	 138.576
| 13> C 	 -83.8262 	 52.3793 	 140.328
| 14> H 	 -84.8441 	 52.1165 	 140.627
| 15> H 	 -83.822 	 53.4181 	 140.617
| 16> C 	 -82.5541 	 51.8248 	 141.047
| 17> H 	 -82.559 	 50.7895 	 140.676
| 18> H 	 -81.6477 	 52.4633 	 140.87
| 19> C 	 -82.6147 	 51.6624 	 142.56
| 20> H 	 -81.8496 	 51.0096 	 142.928
| 21> H 	 -82.3296 	 52.7046 	 143.008
| 22> H 	 -83.6161 	 51.4308 	 142.826
| 23> S 	 -82.9959 	 54.9945 	 134.612
| 24> C 	 -81.5337 	 55.3575 	 133.78
| 25> C 	 -80.5181 	 54.5323 	 134.179
| 26> C 	 -80.7915 	 53.8218 	 135.424
| 27> C 	 -82.153 	 53.9948 	 135.764
| 28> H 	 -79.616 	 54.4205 	 133.541
| 29> C 	 -79.8814 	 52.7174 	 135.911
| 30> H 	 -79.6934 	 52.1019 	 135.018
| 31> H 	 -80.4374 	 52.1582 	 136.648
| 32> C 	 -78.4848 	 53.1488 	 136.444
| 33> H 	 -78.07 	 53.8712 	 135.764
| 34> H 	 -77.7517 	 52.3501 	 136.37
| 35> C 	 -78.5775 	 53.7452 	 137.943
| 36> H 	 -77.6714 	 54.2216 	 138.237
| 37> H 	 -78.6471 	 52.9783 	 138.6
| 38> H 	 -79.3815 	 54.5261 	 137.937
| 39> H 	 -85.9249 	 51.9492 	 138.33
| 40> H 	 -81.5191 	 55.8453 	 132.825
| 41> *
| 42>
| 43>                          ****END OF INPUT****

CARTESIAN COORDINATES (ANGSTROEM)
---------------------------------
  S    -84.561900   52.747500  136.330000
  C    -84.909000   52.224300  137.947000
  C    -83.834100   52.522000  138.796000
  C    -82.701900   53.051700  138.117000
  C    -82.952200   53.249200  136.761000
  H    -81.748700   53.335300  138.576000
  C    -83.826200   52.379300  140.328000
  H    -84.844100   52.116500  140.627000
  H    -83.822000   53.418100  140.617000
  C    -82.554100   51.824800  141.047000
  H    -82.559000   50.789500  140.676000
  H    -81.647700   52.463300  140.870000
  C    -82.614700   51.662400  142.560000
  H    -81.849600   51.009600  142.928000
  H    -82.329600   52.704600  143.008000
  H    -83.616100   51.430800  142.826000
  S    -82.995900   54.994500  134.612000
  C    -81.533700   55.357500  133.780000
  C    -80.518100   54.532300  134.179000
  C    -80.791500   53.821800  135.424000
  C    -82.153000   53.994800  135.764000
  H    -79.616000   54.420500  133.541000
  C    -79.881400   52.717400  135.911000
  H    -79.693400   52.101900  135.018000
  H    -80.437400   52.158200  136.648000
  C    -78.484800   53.148800  136.444000
  H    -78.070000   53.871200  135.764000
  H    -77.751700   52.350100  136.370000
  C    -78.577500   53.745200  137.943000
  H    -77.671400   54.221600  138.237000
  H    -78.647100   52.978300  138.600000
  H    -79.381500   54.526100  137.937000
  H    -85.924900   51.949200  138.330000
  H    -81.519100   55.845300  132.825000

 Total Charge           Charge          ....    0
 Multiplicity           Mult            ....    1
 Number of Electrons    NEL             ....  134
 Basis Dimension        Dim             ....  322

ORBITAL ENERGIES
----------------

  NO   OCC          E(Eh)            E(eV)
   0   2.0000     -88.967161     -2420.9195
   1   2.0000     -88.966699     -2420.9070
   2   2.0000     -10.331704      -281.1400
   3   2.0000     -10.331107      -281.1237
   4   2.0000     -10.315297      -280.6935
   5   2.0000     -10.311273      -280.5840
   6   2.0000     -10.307478      -280.4807
   7   2.0000     -10.304927      -280.4113
   8   2.0000     -10.297699      -280.2146
   9   2.0000     -10.295589      -280.1572
  10   2.0000     -10.294381      -280.1243
  11   2.0000     -10.294013      -280.1143
  12   2.0000     -10.292452      -280.0719
  13   2.0000     -10.289926      -280.0031
  14   2.0000     -10.283254      -279.8216
  15   2.0000     -10.275748      -279.6173
  16   2.0000      -8.082095      -219.9250
  17   2.0000      -8.082009      -219.9227
  18   2.0000      -6.040563      -164.3721
  19   2.0000      -6.040531      -164.3712
  20   2.0000      -6.036523      -164.2621
  21   2.0000      -6.036508      -164.2617
  22   2.0000      -6.032960      -164.1652
  23   2.0000      -6.032643      -164.1566
  24   2.0000      -1.007989       -27.4288
  25   2.0000      -0.985054       -26.8047
  26   2.0000      -0.909068       -24.7370
  27   2.0000      -0.903608       -24.5884
  28   2.0000      -0.868371       -23.6296
  29   2.0000      -0.851316       -23.1655
  30   2.0000      -0.843213       -22.9450
  31   2.0000      -0.815016       -22.1777
  32   2.0000      -0.783957       -21.3326
  33   2.0000      -0.772026       -21.0079
  34   2.0000      -0.710823       -19.3425
  35   2.0000      -0.698888       -19.0177
  36   2.0000      -0.687545       -18.7091
  37   2.0000      -0.653683       -17.7876
  38   2.0000      -0.634679       -17.2705
  39   2.0000      -0.620480       -16.8841
  40   2.0000      -0.594063       -16.1653
  41   2.0000      -0.572643       -15.5824
  42   2.0000      -0.561274       -15.2730
  43   2.0000      -0.554722       -15.0948
  44   2.0000      -0.539375       -14.6771
  45   2.0000      -0.528512       -14.3815
  46   2.0000      -0.518840       -14.1184
  47   2.0000      -0.508830       -13.8460
  48   2.0000      -0.499945       -13.6042
  49   2.0000      -0.496414       -13.5081
  50   2.0000      -0.486220       -13.2307
  51   2.0000      -0.481195       -13.0940
  52   2.0000      -0.471353       -12.8262
  53   2.0000      -0.463997       -12.6260
  54   2.0000      -0.461358       -12.5542
  55   2.0000      -0.449459       -12.2304
  56   2.0000      -0.449084       -12.2202
  57   2.0000      -0.438933       -11.9440
  58   2.0000      -0.432078       -11.7574
  59   2.0000      -0.426116       -11.5952
  60   2.0000      -0.423657       -11.5283
  61   2.0000      -0.418922       -11.3995
  62   2.0000      -0.403848       -10.9893
  63   2.0000      -0.351879        -9.5751
  64   2.0000      -0.329208        -8.9582
  65   2.0000      -0.326020        -8.8715
  66   2.0000      -0.286591        -7.7985
  67   0.0000       0.026228         0.7137
  68   0.0000       0.072024         1.9599
  69   0.0000       0.108935         2.9643
  70   0.0000       0.118494         3.2244
  71   0.0000       0.127212         3.4616

MULLIKEN ATOMIC CHARGES
-----------------------
   0 S :    0.104953
   1 C :   -0.139227
   2 C :   -0.098338
   3 C :    0.019720
   4 C :   -0.145524
   5 H :    0.013418
   6 C :    0.071582
   7 H :    0.008594
   8 H :    0.024260
   9 C :   -0.106827
  10 H :    0.042877
  11 H :    0.052246
  12 C :   -0.039914
  13 H :    0.042473
  14 H :    0.030042
  15 H :    0.030022
  16 S :    0.104895
  17 C :   -0.077608
  18 C :   -0.062501
  19 C :   -0.047524
  20 C :   -0.135812
  21 H :    0.038729
  22 C :    0.049737
  23 H :    0.042088
  24 H :    0.025132
  25 C :   -0.070908
  26 H :    0.017875
  27 H :    0.023047
  28 C :   -0.030508
  29 H :    0.021571
  30 H :    0.015987
  31 H :    0.054929
  32 H :    0.064322
  33 H :    0.056194
Sum of atomic charges:   -0.0000000

LOEWDIN ATOMIC CHARGES
----------------------
   0 S :    0.416171
   1 C :   -0.226800
   2 C :   -0.056586
   3 C :   -0.070889
   4 C :   -0.188388
   5 H :    0.033232
   6 C :   -0.042086
   7 H :    0.028672
   8 H :    0.033269
   9 C :   -0.046794
  10 H :    0.028117
  11 H :    0.033446
  12 C :   -0.061189
  13 H :    0.026181
  14 H :    0.031349
  15 H :    0.019575
  16 S :    0.417305
  17 C :   -0.200568
  18 C :   -0.069169
  19 C :   -0.058242
  20 C :   -0.200705
  21 H :    0.036615
  22 C :   -0.029893
  23 H :    0.040410
  24 H :    0.026831
  25 C :   -0.034521
  26 H :    0.017856
  27 H :    0.021031
  28 C :   -0.057358
  29 H :    0.023168
  30 H :    0.009574
  31 H :    0.034322
  32 H :    0.038402
  33 H :    0.027663

  Mayer bond orders larger than 0.100000
B(  0-S ,  1-C ) :   1.1313 B(  0-S ,  4-C ) :   1.1719 B(  1-C ,  2-C ) :   1.5966
B(  1-C , 32-H ) :   0.9601 B(  2-C ,  3-C ) :   1.2612 B(  2-C ,  6-C ) :   1.0237
B(  3-C ,  4-C ) :   1.5456 B(  3-C ,  5-H ) :   0.9897 B(  4-C , 20-C ) :   1.0466
B(  6-C ,  7-H ) :   0.9413 B(  6-C ,  8-H ) :   0.9294 B(  6-C ,  9-C ) :   1.0432
B(  9-C , 10-H ) :   0.9630 B(  9-C , 11-H ) :   0.9513 B(  9-C , 12-C ) :   1.0861
B( 12-C , 13-H ) :   0.9739 B( 12-C , 14-H ) :   0.9769 B( 12-C , 15-H ) :   0.9756
B( 16-S , 17-C ) :   1.1462 B( 16-S , 20-C ) :   1.1542 B( 17-C , 18-C ) :   1.6331
B( 17-C , 33-H ) :   0.9649 B( 18-C , 19-C ) :   1.2349 B( 18-C , 21-H ) :   0.9776
B( 19-C , 20-C ) :   1.5545 B( 19-C , 22-C ) :   1.0495 B( 22-C , 23-H ) :   0.9369
B( 22-C , 24-H ) :   0.9385 B( 22-C , 25-C ) :   1.0592 B( 25-C , 26-H ) :   0.9611
B( 25-C , 27-H ) :   0.9591 B( 25-C , 28-C ) :   1.0643 B( 28-C , 29-H ) :   0.9736
B( 28-C , 30-H ) :   0.9774 B( 28-C , 31-H ) :   0.9750

Dispersion correction           -0.014135495
FINAL SINGLE POINT ENERGY     -1339.857050353422

DIPOLE MOMENT
-------------
                                X             Y             Z
Electronic contribution:    -18.10365       7.43285     -24.57360
Nuclear contribution   :     18.55910      -7.61559      24.87422
                        -----------------------------------------
Total Dipole Moment    :      0.45545      -0.18273       0.30061
                        -----------------------------------------
Magnitude (a.u.)       :      0.57550
Magnitude (Debye)      :      1.46279

Rotational constants in cm-1:     0.017939     0.009068     0.006417
Rotational constants in MHz :   537.802681   271.839757   192.388028

                             ****ORCA TERMINATED NORMALLY****
TOTAL RUN TIME: 0 days 0 hours 0 minutes 33 seconds 207 msec
