                         Program Version 4.2.1 -  RELEASE  -
|  1> ! wB97X-D3 SP def2-SVP
|  2> %pal
|  3> nprocs 16
|  4> end
|  5>
|  6> * xyz 0 1
|  7> S 	 -39.3026 	 57.384 	 102.544
|  8> C 	 -40.9548 	 57.9573 	 102.753
|  9> C 	 -41.8641 	 57.0124 	 102.351
| 10> C 	 -41.1903 	 55.7667 	 102.063
| 11> C 	 -39.9016 	 55.7222 	 102.408
| 12> H 	 -41.736 	 54.8485 	 101.719
| 13> C 	 -43.3531 	 57.1884 	 102.209
| 14> H 	 -43.5325 	 56.8629 	 101.213
| 15> H 	 -43.6465 	 58.2348 	 102.314
| 16> C 	 -44.1165 	 56.1909 	 103.03
| 17> H 	 -45.163 	 56.3543 	 102.759
| 18> H 	 -43.9157 	 55.126 	 102.779
| 19> C 	 -43.9599 	 56.3855 	 104.57
| 20> H 	 -44.1462 	 57.3913 	 104.878
| 21> H 	 -44.6801 	 55.7159 	 105.088
| 22> H 	 -42.9634 	 56.1001 	 105.048
| 23> S 	 -37.8686 	 54.623 	 100.806
| 24> C 	 -37.0974 	 53.1517 	 101.257
| 25> C 	 -37.7655 	 52.5667 	 102.302
| 26> C 	 -38.9223 	 53.3366 	 102.759
| 27> C 	 -38.9466 	 54.6077 	 102.207
| 28> H 	 -37.4634 	 51.6334 	 102.69
| 29> C 	 -39.7545 	 52.7222 	 103.891
| 30> H 	 -39.757 	 51.6208 	 103.854
| 31> H 	 -40.7708 	 53.0467 	 103.738
| 32> C 	 -39.3031 	 53.2082 	 105.211
| 33> H 	 -39.2941 	 54.3006 	 105.169
| 34> H 	 -38.2748 	 52.9664 	 105.458
| 35> C 	 -40.0023 	 52.5902 	 106.427
| 36> H 	 -39.473 	 52.748 	 107.358
| 37> H 	 -40.3527 	 51.5556 	 106.267
| 38> H 	 -40.9501 	 53.0994 	 106.634
| 39> H 	 -41.2544 	 58.9833 	 102.974
| 40> H 	 -36.1563 	 52.6584 	 100.907
| 41> *
| 42>
| 43>                          ****END OF INPUT****

CARTESIAN COORDINATES (ANGSTROEM)
---------------------------------
  S    -39.302600   57.384000  102.544000
  C    -40.954800   57.957300  102.753000
  C    -41.864100   57.012400  102.351000
  C    -41.190300   55.766700  102.063000
  C    -39.901600   55.722200  102.408000
  H    -41.736000   54.848500  101.719000
  C    -43.353100   57.188400  102.209000
  H    -43.532500   56.862900  101.213000
  H    -43.646500   58.234800  102.314000
  C    -44.116500   56.190900  103.030000
  H    -45.163000   56.354300  102.759000
  H    -43.915700   55.126000  102.779000
  C    -43.959900   56.385500  104.570000
  H    -44.146200   57.391300  104.878000
  H    -44.680100   55.715900  105.088000
  H    -42.963400   56.100100  105.048000
  S    -37.868600   54.623000  100.806000
  C    -37.097400   53.151700  101.257000
  C    -37.765500   52.566700  102.302000
  C    -38.922300   53.336600  102.759000
  C    -38.946600   54.607700  102.207000
  H    -37.463400   51.633400  102.690000
  C    -39.754500   52.722200  103.891000
  H    -39.757000   51.620800  103.854000
  H    -40.770800   53.046700  103.738000
  C    -39.303100   53.208200  105.211000
  H    -39.294100   54.300600  105.169000
  H    -38.274800   52.966400  105.458000
  C    -40.002300   52.590200  106.427000
  H    -39.473000   52.748000  107.358000
  H    -40.352700   51.555600  106.267000
  H    -40.950100   53.099400  106.634000
  H    -41.254400   58.983300  102.974000
  H    -36.156300   52.658400  100.907000

 Total Charge           Charge          ....    0
 Multiplicity           Mult            ....    1
 Number of Electrons    NEL             ....  134
 Basis Dimension        Dim             ....  322

ORBITAL ENERGIES
----------------

  NO   OCC          E(Eh)            E(eV)
   0   2.0000     -88.963097     -2420.8089
   1   2.0000     -88.961165     -2420.7564
   2   2.0000     -10.328882      -281.0632
   3   2.0000     -10.328649      -281.0568
   4   2.0000     -10.315519      -280.6995
   5   2.0000     -10.314175      -280.6630
   6   2.0000     -10.305749      -280.4337
   7   2.0000     -10.300007      -280.2774
   8   2.0000     -10.297179      -280.2005
   9   2.0000     -10.293237      -280.0932
  10   2.0000     -10.291548      -280.0473
  11   2.0000     -10.289530      -279.9923
  12   2.0000     -10.287809      -279.9455
  13   2.0000     -10.281946      -279.7860
  14   2.0000     -10.277730      -279.6712
  15   2.0000     -10.275519      -279.6111
  16   2.0000      -8.077954      -219.8123
  17   2.0000      -8.075846      -219.7549
  18   2.0000      -6.036695      -164.2668
  19   2.0000      -6.034545      -164.2083
  20   2.0000      -6.032431      -164.1508
  21   2.0000      -6.030736      -164.1047
  22   2.0000      -6.028456      -164.0426
  23   2.0000      -6.026008      -163.9760
  24   2.0000      -1.007182       -27.4068
  25   2.0000      -0.986000       -26.8304
  26   2.0000      -0.918520       -24.9942
  27   2.0000      -0.914275       -24.8787
  28   2.0000      -0.867904       -23.6169
  29   2.0000      -0.845444       -23.0057
  30   2.0000      -0.839236       -22.8368
  31   2.0000      -0.816690       -22.2233
  32   2.0000      -0.785462       -21.3735
  33   2.0000      -0.775691       -21.1076
  34   2.0000      -0.708535       -19.2802
  35   2.0000      -0.696728       -18.9589
  36   2.0000      -0.689225       -18.7548
  37   2.0000      -0.656884       -17.8747
  38   2.0000      -0.638965       -17.3871
  39   2.0000      -0.623717       -16.9722
  40   2.0000      -0.594971       -16.1900
  41   2.0000      -0.570231       -15.5168
  42   2.0000      -0.562264       -15.3000
  43   2.0000      -0.554777       -15.0963
  44   2.0000      -0.538007       -14.6399
  45   2.0000      -0.529398       -14.4056
  46   2.0000      -0.523800       -14.2533
  47   2.0000      -0.508933       -13.8488
  48   2.0000      -0.500280       -13.6133
  49   2.0000      -0.496830       -13.5194
  50   2.0000      -0.490329       -13.3425
  51   2.0000      -0.480093       -13.0640
  52   2.0000      -0.470359       -12.7991
  53   2.0000      -0.464942       -12.6517
  54   2.0000      -0.457051       -12.4370
  55   2.0000      -0.447484       -12.1767
  56   2.0000      -0.443678       -12.0731
  57   2.0000      -0.442272       -12.0348
  58   2.0000      -0.437459       -11.9039
  59   2.0000      -0.425611       -11.5815
  60   2.0000      -0.418845       -11.3973
  61   2.0000      -0.413741       -11.2585
  62   2.0000      -0.398138       -10.8339
  63   2.0000      -0.342639        -9.3237
  64   2.0000      -0.325781        -8.8650
  65   2.0000      -0.322020        -8.7626
  66   2.0000      -0.304271        -8.2796
  67   0.0000       0.033765         0.9188
  68   0.0000       0.063023         1.7149
  69   0.0000       0.108673         2.9571
  70   0.0000       0.114324         3.1109
  71   0.0000       0.129187         3.5154

MULLIKEN ATOMIC CHARGES
-----------------------
   0 S :    0.088233
   1 C :   -0.113506
   2 C :   -0.109413
   3 C :    0.026579
   4 C :   -0.166161
   5 H :    0.035209
   6 C :    0.128599
   7 H :    0.021493
   8 H :    0.024626
   9 C :   -0.094522
  10 H :    0.029748
  11 H :    0.037904
  12 C :   -0.071344
  13 H :    0.023007
  14 H :    0.033780
  15 H :    0.050321
  16 S :    0.110266
  17 C :   -0.085229
  18 C :   -0.034339
  19 C :   -0.056627
  20 C :   -0.150485
  21 H :    0.000656
  22 C :    0.101771
  23 H :    0.021770
  24 H :    0.011407
  25 C :   -0.073801
  26 H :    0.033050
  27 H :    0.017345
  28 C :   -0.035128
  29 H :    0.034998
  30 H :    0.029807
  31 H :    0.015263
  32 H :    0.044075
  33 H :    0.070647
Sum of atomic charges:    0.0000000

LOEWDIN ATOMIC CHARGES
----------------------
   0 S :    0.378744
   1 C :   -0.189098
   2 C :   -0.062715
   3 C :   -0.057207
   4 C :   -0.188657
   5 H :    0.038592
   6 C :   -0.028971
   7 H :    0.035143
   8 H :    0.032208
   9 C :   -0.042209
  10 H :    0.026484
  11 H :    0.027904
  12 C :   -0.074252
  13 H :    0.017578
  14 H :    0.028161
  15 H :    0.034445
  16 S :    0.405610
  17 C :   -0.203795
  18 C :   -0.069593
  19 C :   -0.046224
  20 C :   -0.200340
  21 H :    0.021539
  22 C :   -0.029205
  23 H :    0.030547
  24 H :    0.026612
  25 C :   -0.046075
  26 H :    0.029413
  27 H :    0.023250
  28 C :   -0.070581
  29 H :    0.026917
  30 H :    0.027930
  31 H :    0.022425
  32 H :    0.029265
  33 H :    0.046153

  Mayer bond orders larger than 0.100000
B(  0-S ,  1-C ) :   1.1206 B(  0-S ,  4-C ) :   1.1195 B(  1-C ,  2-C ) :   1.6483
B(  1-C , 32-H ) :   0.9668 B(  2-C ,  3-C ) :   1.1955 B(  2-C ,  6-C ) :   1.0239
B(  3-C ,  4-C ) :   1.6408 B(  3-C ,  5-H ) :   0.9797 B(  4-C , 20-C ) :   1.0103
B(  6-C ,  7-H ) :   0.9223 B(  6-C ,  8-H ) :   0.9443 B(  6-C ,  9-C ) :   1.0816
B(  9-C , 10-H ) :   0.9535 B(  9-C , 11-H ) :   0.9532 B(  9-C , 12-C ) :   1.0668
B( 12-C , 13-H ) :   0.9773 B( 12-C , 14-H ) :   0.9754 B( 12-C , 15-H ) :   0.9740
B( 16-S , 17-C ) :   1.1428 B( 16-S , 20-C ) :   1.1337 B( 17-C , 18-C ) :   1.6387
B( 17-C , 33-H ) :   0.9581 B( 18-C , 19-C ) :   1.2154 B( 18-C , 21-H ) :   0.9939
B( 19-C , 20-C ) :   1.6241 B( 19-C , 22-C ) :   1.0506 B( 22-C , 23-H ) :   0.9324
B( 22-C , 24-H ) :   0.9215 B( 22-C , 25-C ) :   1.0841 B( 25-C , 26-H ) :   0.9514
B( 25-C , 27-H ) :   0.9574 B( 25-C , 28-C ) :   1.0712 B( 28-C , 29-H ) :   0.9765
B( 28-C , 30-H ) :   0.9717 B( 28-C , 31-H ) :   0.9711

Dispersion correction           -0.014612384
FINAL SINGLE POINT ENERGY     -1339.866907477813

DIPOLE MOMENT
-------------
                                X             Y             Z
Electronic contribution:     20.25419       8.65453     -19.11252
Nuclear contribution   :    -20.90117      -8.97481      19.28982
                        -----------------------------------------
Total Dipole Moment    :     -0.64698      -0.32028       0.17729
                        -----------------------------------------
Magnitude (a.u.)       :      0.74337
Magnitude (Debye)      :      1.88949

Rotational constants in cm-1:     0.017134     0.009822     0.007292
Rotational constants in MHz :   513.668519   294.467209   218.622904

                             ****ORCA TERMINATED NORMALLY****
TOTAL RUN TIME: 0 days 0 hours 0 minutes 31 seconds 206 msec
