                         Program Version 4.2.1 -  RELEASE  -
|  1> ! wB97X-D3 SP def2-SVP
|  2> %pal
|  3> nprocs 16
|  4> end
|  5>
|  6> * xyz 0 1
|  7> S 	 -96.2028 	 52.4586 	 122.372
|  8> C 	 -96.7534 	 51.9726 	 120.767
|  9> C 	 -96.0548 	 50.8473 	 120.334
| 10> C 	 -94.96 	 50.4724 	 121.181
| 11> C 	 -95.0211 	 51.2065 	 122.377
| 12> H 	 -94.2274 	 49.7266 	 121.097
| 13> C 	 -96.358 	 50.0668 	 119.038
| 14> H 	 -95.6172 	 50.325 	 118.188
| 15> H 	 -97.3348 	 50.5218 	 118.72
| 16> C 	 -96.4651 	 48.4942 	 119.232
| 17> H 	 -96.5576 	 47.962 	 118.289
| 18> H 	 -95.5238 	 48.0758 	 119.578
| 19> C 	 -97.6265 	 48.1004 	 120.124
| 20> H 	 -97.6545 	 47.0638 	 120.37
| 21> H 	 -97.5289 	 48.6326 	 121.093
| 22> H 	 -98.531 	 48.3491 	 119.537
| 23> S 	 -93.6152 	 52.2064 	 124.387
| 24> C 	 -92.9033 	 51.1472 	 125.579
| 25> C 	 -93.1016 	 49.8092 	 125.277
| 26> C 	 -93.8936 	 49.5983 	 124.119
| 27> C 	 -94.266 	 50.8323 	 123.555
| 28> H 	 -92.7996 	 49.0368 	 125.958
| 29> C 	 -94.3446 	 48.2279 	 123.582
| 30> H 	 -93.9215 	 47.9346 	 122.589
| 31> H 	 -95.4409 	 48.17 	 123.418
| 32> C 	 -93.8972 	 47.0594 	 124.499
| 33> H 	 -94.2845 	 47.2167 	 125.511
| 34> H 	 -92.8595 	 46.8595 	 124.538
| 35> C 	 -94.5882 	 45.7659 	 124.068
| 36> H 	 -94.0042 	 45.2615 	 123.28
| 37> H 	 -95.6313 	 46.0251 	 123.859
| 38> H 	 -94.5594 	 44.9784 	 124.813
| 39> H 	 -97.5066 	 52.5252 	 120.227
| 40> H 	 -92.4275 	 51.5559 	 126.467
| 41> *
| 42>
| 43>                          ****END OF INPUT****

CARTESIAN COORDINATES (ANGSTROEM)
---------------------------------
  S    -96.202800   52.458600  122.372000
  C    -96.753400   51.972600  120.767000
  C    -96.054800   50.847300  120.334000
  C    -94.960000   50.472400  121.181000
  C    -95.021100   51.206500  122.377000
  H    -94.227400   49.726600  121.097000
  C    -96.358000   50.066800  119.038000
  H    -95.617200   50.325000  118.188000
  H    -97.334800   50.521800  118.720000
  C    -96.465100   48.494200  119.232000
  H    -96.557600   47.962000  118.289000
  H    -95.523800   48.075800  119.578000
  C    -97.626500   48.100400  120.124000
  H    -97.654500   47.063800  120.370000
  H    -97.528900   48.632600  121.093000
  H    -98.531000   48.349100  119.537000
  S    -93.615200   52.206400  124.387000
  C    -92.903300   51.147200  125.579000
  C    -93.101600   49.809200  125.277000
  C    -93.893600   49.598300  124.119000
  C    -94.266000   50.832300  123.555000
  H    -92.799600   49.036800  125.958000
  C    -94.344600   48.227900  123.582000
  H    -93.921500   47.934600  122.589000
  H    -95.440900   48.170000  123.418000
  C    -93.897200   47.059400  124.499000
  H    -94.284500   47.216700  125.511000
  H    -92.859500   46.859500  124.538000
  C    -94.588200   45.765900  124.068000
  H    -94.004200   45.261500  123.280000
  H    -95.631300   46.025100  123.859000
  H    -94.559400   44.978400  124.813000
  H    -97.506600   52.525200  120.227000
  H    -92.427500   51.555900  126.467000

 Total Charge           Charge          ....    0
 Multiplicity           Mult            ....    1
 Number of Electrons    NEL             ....  134
 Basis Dimension        Dim             ....  322

ORBITAL ENERGIES
----------------

  NO   OCC          E(Eh)            E(eV)
   0   2.0000     -88.968165     -2420.9469
   1   2.0000     -88.965065     -2420.8625
   2   2.0000     -10.325697      -280.9765
   3   2.0000     -10.323543      -280.9179
   4   2.0000     -10.316678      -280.7311
   5   2.0000     -10.315945      -280.7111
   6   2.0000     -10.308547      -280.5098
   7   2.0000     -10.306521      -280.4547
   8   2.0000     -10.305798      -280.4350
   9   2.0000     -10.303823      -280.3813
  10   2.0000     -10.294702      -280.1331
  11   2.0000     -10.290328      -280.0141
  12   2.0000     -10.288976      -279.9773
  13   2.0000     -10.284777      -279.8630
  14   2.0000     -10.279142      -279.7097
  15   2.0000     -10.275440      -279.6089
  16   2.0000      -8.083022      -219.9502
  17   2.0000      -8.080460      -219.8805
  18   2.0000      -6.041439      -164.3959
  19   2.0000      -6.038737      -164.3224
  20   2.0000      -6.037480      -164.2882
  21   2.0000      -6.034832      -164.2161
  22   2.0000      -6.033920      -164.1913
  23   2.0000      -6.031481      -164.1249
  24   2.0000      -1.008648       -27.4467
  25   2.0000      -0.982343       -26.7309
  26   2.0000      -0.912163       -24.8212
  27   2.0000      -0.903706       -24.5911
  28   2.0000      -0.868667       -23.6376
  29   2.0000      -0.855439       -23.2777
  30   2.0000      -0.845103       -22.9964
  31   2.0000      -0.810379       -22.0515
  32   2.0000      -0.778998       -21.1976
  33   2.0000      -0.767166       -20.8756
  34   2.0000      -0.707850       -19.2616
  35   2.0000      -0.699978       -19.0474
  36   2.0000      -0.692055       -18.8318
  37   2.0000      -0.655757       -17.8440
  38   2.0000      -0.642229       -17.4759
  39   2.0000      -0.618067       -16.8185
  40   2.0000      -0.601686       -16.3727
  41   2.0000      -0.579056       -15.7569
  42   2.0000      -0.557228       -15.1629
  43   2.0000      -0.549406       -14.9501
  44   2.0000      -0.541637       -14.7387
  45   2.0000      -0.525795       -14.3076
  46   2.0000      -0.520519       -14.1641
  47   2.0000      -0.511274       -13.9125
  48   2.0000      -0.497648       -13.5417
  49   2.0000      -0.497243       -13.5307
  50   2.0000      -0.484524       -13.1846
  51   2.0000      -0.479497       -13.0478
  52   2.0000      -0.471396       -12.8273
  53   2.0000      -0.461384       -12.5549
  54   2.0000      -0.455192       -12.3864
  55   2.0000      -0.449506       -12.2317
  56   2.0000      -0.447911       -12.1883
  57   2.0000      -0.443926       -12.0798
  58   2.0000      -0.435449       -11.8492
  59   2.0000      -0.427117       -11.6224
  60   2.0000      -0.419983       -11.4283
  61   2.0000      -0.414160       -11.2699
  62   2.0000      -0.412957       -11.2371
  63   2.0000      -0.346090        -9.4176
  64   2.0000      -0.333336        -9.0705
  65   2.0000      -0.331499        -9.0205
  66   2.0000      -0.285670        -7.7735
  67   0.0000       0.023500         0.6395
  68   0.0000       0.077892         2.1195
  69   0.0000       0.105781         2.8784
  70   0.0000       0.117472         3.1966
  71   0.0000       0.125608         3.4180

MULLIKEN ATOMIC CHARGES
-----------------------
   0 S :    0.116094
   1 C :   -0.122811
   2 C :   -0.086837
   3 C :    0.042388
   4 C :   -0.138259
   5 H :   -0.006569
   6 C :    0.030178
   7 H :    0.059632
   8 H :    0.019140
   9 C :   -0.071072
  10 H :    0.024279
  11 H :    0.017732
  12 C :   -0.051648
  13 H :    0.027153
  14 H :    0.050885
  15 H :    0.036159
  16 S :    0.103876
  17 C :   -0.088747
  18 C :   -0.037154
  19 C :   -0.005725
  20 C :   -0.169647
  21 H :    0.018124
  22 C :    0.026911
  23 H :    0.039618
  24 H :    0.046065
  25 C :   -0.101856
  26 H :    0.034118
  27 H :    0.033671
  28 C :   -0.043138
  29 H :    0.029924
  30 H :    0.035216
  31 H :    0.023360
  32 H :    0.049937
  33 H :    0.059002
Sum of atomic charges:   -0.0000000

LOEWDIN ATOMIC CHARGES
----------------------
   0 S :    0.411606
   1 C :   -0.200626
   2 C :   -0.059923
   3 C :   -0.056780
   4 C :   -0.203115
   5 H :    0.022955
   6 C :   -0.037044
   7 H :    0.042010
   8 H :    0.028869
   9 C :   -0.045213
  10 H :    0.023940
  11 H :    0.017533
  12 C :   -0.065451
  13 H :    0.020611
  14 H :    0.031217
  15 H :    0.030249
  16 S :    0.417922
  17 C :   -0.187548
  18 C :   -0.068724
  19 C :   -0.058322
  20 C :   -0.198640
  21 H :    0.031318
  22 C :   -0.032966
  23 H :    0.033464
  24 H :    0.037460
  25 C :   -0.043356
  26 H :    0.024032
  27 H :    0.019247
  28 C :   -0.065410
  29 H :    0.026039
  30 H :    0.026299
  31 H :    0.023503
  32 H :    0.027122
  33 H :    0.027722

  Mayer bond orders larger than 0.100000
B(  0-S ,  1-C ) :   1.1260 B(  0-S ,  4-C ) :   1.1711 B(  1-C ,  2-C ) :   1.6022
B(  1-C , 32-H ) :   0.9717 B(  2-C ,  3-C ) :   1.2240 B(  2-C ,  6-C ) :   1.0129
B(  3-C ,  4-C ) :   1.5439 B(  3-C ,  5-H ) :   1.0067 B(  4-C , 20-C ) :   1.0463
B(  6-C ,  7-H ) :   0.9443 B(  6-C ,  8-H ) :   0.9477 B(  6-C ,  9-C ) :   1.0550
B(  9-C , 10-H ) :   0.9568 B(  9-C , 11-H ) :   0.9547 B(  9-C , 12-C ) :   1.0754
B( 12-C , 13-H ) :   0.9728 B( 12-C , 14-H ) :   0.9744 B( 12-C , 15-H ) :   0.9753
B( 16-S , 17-C ) :   1.1614 B( 16-S , 20-C ) :   1.1683 B( 17-C , 18-C ) :   1.5741
B( 17-C , 20-C ) :   0.1058 B( 17-C , 33-H ) :   0.9672 B( 18-C , 19-C ) :   1.2754
B( 18-C , 21-H ) :   0.9876 B( 19-C , 20-C ) :   1.5679 B( 19-C , 22-C ) :   1.0202
B( 22-C , 23-H ) :   0.9344 B( 22-C , 24-H ) :   0.9376 B( 22-C , 25-C ) :   1.0794
B( 25-C , 26-H ) :   0.9522 B( 25-C , 27-H ) :   0.9527 B( 25-C , 28-C ) :   1.0868
B( 28-C , 29-H ) :   0.9730 B( 28-C , 30-H ) :   0.9743 B( 28-C , 31-H ) :   0.9729

Dispersion correction           -0.014656896
FINAL SINGLE POINT ENERGY     -1339.881330602137

DIPOLE MOMENT
-------------
                                X             Y             Z
Electronic contribution:      5.79500      30.23597       9.21115
Nuclear contribution   :     -5.78866     -30.94163      -9.31771
                        -----------------------------------------
Total Dipole Moment    :      0.00634      -0.70566      -0.10656
                        -----------------------------------------
Magnitude (a.u.)       :      0.71369
Magnitude (Debye)      :      1.81405

Rotational constants in cm-1:     0.015694     0.011033     0.006908
Rotational constants in MHz :   470.484649   330.746272   207.103919

                             ****ORCA TERMINATED NORMALLY****
TOTAL RUN TIME: 0 days 0 hours 0 minutes 35 seconds 208 msec
