                         Program Version 4.2.1 -  RELEASE  -
|  1> ! wB97X-D3 SP def2-SVP
|  2> %pal
|  3> nprocs 16
|  4> end
|  5>
|  6> * xyz 0 1
|  7> S 	 -31.7202 	 68.3316 	 100.45
|  8> C 	 -32.0346 	 69.9998 	 100.561
|  9> C 	 -31.0749 	 70.8068 	 99.9579
| 10> C 	 -30.2277 	 69.9898 	 99.209
| 11> C 	 -30.3942 	 68.6409 	 99.3855
| 12> H 	 -29.5039 	 70.3223 	 98.5129
| 13> C 	 -30.961 	 72.3398 	 99.895
| 14> H 	 -31.801 	 72.8421 	 100.314
| 15> H 	 -30.9101 	 72.6205 	 98.796
| 16> C 	 -29.6872 	 72.8523 	 100.622
| 17> H 	 -28.8289 	 72.6796 	 99.9402
| 18> H 	 -29.857 	 73.9297 	 100.676
| 19> C 	 -29.3352 	 72.4965 	 102.069
| 20> H 	 -30.1137 	 72.6545 	 102.785
| 21> H 	 -29.1808 	 71.4184 	 102.235
| 22> H 	 -28.4749 	 73.0627 	 102.409
| 23> S 	 -30.2181 	 66.4214 	 97.8892
| 24> C 	 -28.6012 	 65.9059 	 97.2657
| 25> C 	 -27.5943 	 66.6028 	 97.8917
| 26> C 	 -28.0838 	 67.6384 	 98.8058
| 27> C 	 -29.4618 	 67.6367 	 98.8878
| 28> H 	 -26.5444 	 66.5468 	 97.6325
| 29> C 	 -27.1675 	 68.7329 	 99.3664
| 30> H 	 -27.6059 	 69.6425 	 99.23
| 31> H 	 -26.3033 	 68.8329 	 98.7304
| 32> C 	 -26.7851 	 68.7081 	 100.935
| 33> H 	 -26.2314 	 69.5953 	 100.971
| 34> H 	 -26.1048 	 67.9115 	 101.078
| 35> C 	 -27.8601 	 68.5656 	 102.031
| 36> H 	 -28.4164 	 69.474 	 102.064
| 37> H 	 -27.4062 	 68.4342 	 103.03
| 38> H 	 -28.6397 	 67.8723 	 101.734
| 39> H 	 -32.7792 	 70.3731 	 101.24
| 40> H 	 -28.4828 	 65.1891 	 96.5065
| 41> *
| 42>
| 43>                          ****END OF INPUT****

CARTESIAN COORDINATES (ANGSTROEM)
---------------------------------
  S    -31.720200   68.331600  100.450000
  C    -32.034600   69.999800  100.561000
  C    -31.074900   70.806800   99.957900
  C    -30.227700   69.989800   99.209000
  C    -30.394200   68.640900   99.385500
  H    -29.503900   70.322300   98.512900
  C    -30.961000   72.339800   99.895000
  H    -31.801000   72.842100  100.314000
  H    -30.910100   72.620500   98.796000
  C    -29.687200   72.852300  100.622000
  H    -28.828900   72.679600   99.940200
  H    -29.857000   73.929700  100.676000
  C    -29.335200   72.496500  102.069000
  H    -30.113700   72.654500  102.785000
  H    -29.180800   71.418400  102.235000
  H    -28.474900   73.062700  102.409000
  S    -30.218100   66.421400   97.889200
  C    -28.601200   65.905900   97.265700
  C    -27.594300   66.602800   97.891700
  C    -28.083800   67.638400   98.805800
  C    -29.461800   67.636700   98.887800
  H    -26.544400   66.546800   97.632500
  C    -27.167500   68.732900   99.366400
  H    -27.605900   69.642500   99.230000
  H    -26.303300   68.832900   98.730400
  C    -26.785100   68.708100  100.935000
  H    -26.231400   69.595300  100.971000
  H    -26.104800   67.911500  101.078000
  C    -27.860100   68.565600  102.031000
  H    -28.416400   69.474000  102.064000
  H    -27.406200   68.434200  103.030000
  H    -28.639700   67.872300  101.734000
  H    -32.779200   70.373100  101.240000
  H    -28.482800   65.189100   96.506500

 Total Charge           Charge          ....    0
 Multiplicity           Mult            ....    1
 Number of Electrons    NEL             ....  134
 Basis Dimension        Dim             ....  322

ORBITAL ENERGIES
----------------

  NO   OCC          E(Eh)            E(eV)
   0   2.0000     -88.968425     -2420.9539
   1   2.0000     -88.962053     -2420.7805
   2   2.0000     -10.323824      -280.9255
   3   2.0000     -10.321600      -280.8650
   4   2.0000     -10.319893      -280.8186
   5   2.0000     -10.309552      -280.5372
   6   2.0000     -10.305667      -280.4314
   7   2.0000     -10.301393      -280.3152
   8   2.0000     -10.299350      -280.2596
   9   2.0000     -10.298875      -280.2466
  10   2.0000     -10.292467      -280.0723
  11   2.0000     -10.287577      -279.9392
  12   2.0000     -10.283724      -279.8344
  13   2.0000     -10.279648      -279.7234
  14   2.0000     -10.277672      -279.6697
  15   2.0000     -10.271265      -279.4953
  16   2.0000      -8.084216      -219.9827
  17   2.0000      -8.076400      -219.7700
  18   2.0000      -6.042412      -164.4224
  19   2.0000      -6.038611      -164.3190
  20   2.0000      -6.035211      -164.2264
  21   2.0000      -6.035041      -164.2218
  22   2.0000      -6.030978      -164.1113
  23   2.0000      -6.027029      -164.0038
  24   2.0000      -1.012365       -27.5479
  25   2.0000      -0.981894       -26.7187
  26   2.0000      -0.909321       -24.7439
  27   2.0000      -0.897150       -24.4127
  28   2.0000      -0.869460       -23.6592
  29   2.0000      -0.855130       -23.2693
  30   2.0000      -0.843058       -22.9408
  31   2.0000      -0.814072       -22.1520
  32   2.0000      -0.788670       -21.4608
  33   2.0000      -0.778131       -21.1740
  34   2.0000      -0.706216       -19.2171
  35   2.0000      -0.698500       -19.0072
  36   2.0000      -0.693202       -18.8630
  37   2.0000      -0.665407       -18.1067
  38   2.0000      -0.646444       -17.5906
  39   2.0000      -0.625243       -17.0137
  40   2.0000      -0.596756       -16.2386
  41   2.0000      -0.562548       -15.3077
  42   2.0000      -0.549736       -14.9591
  43   2.0000      -0.549240       -14.9456
  44   2.0000      -0.541861       -14.7448
  45   2.0000      -0.537180       -14.6174
  46   2.0000      -0.517499       -14.0819
  47   2.0000      -0.507407       -13.8072
  48   2.0000      -0.503276       -13.6948
  49   2.0000      -0.494583       -13.4583
  50   2.0000      -0.490380       -13.3439
  51   2.0000      -0.483456       -13.1555
  52   2.0000      -0.474325       -12.9070
  53   2.0000      -0.464174       -12.6308
  54   2.0000      -0.461740       -12.5646
  55   2.0000      -0.447464       -12.1761
  56   2.0000      -0.445470       -12.1218
  57   2.0000      -0.443380       -12.0650
  58   2.0000      -0.436904       -11.8888
  59   2.0000      -0.423650       -11.5281
  60   2.0000      -0.418487       -11.3876
  61   2.0000      -0.413424       -11.2498
  62   2.0000      -0.407194       -11.0803
  63   2.0000      -0.347588        -9.4583
  64   2.0000      -0.334626        -9.1056
  65   2.0000      -0.324885        -8.8406
  66   2.0000      -0.292419        -7.9571
  67   0.0000       0.033309         0.9064
  68   0.0000       0.068994         1.8774
  69   0.0000       0.107078         2.9137
  70   0.0000       0.118237         3.2174
  71   0.0000       0.124114         3.3773

MULLIKEN ATOMIC CHARGES
-----------------------
   0 S :    0.131793
   1 C :   -0.120205
   2 C :   -0.079108
   3 C :    0.011277
   4 C :   -0.144595
   5 H :    0.006036
   6 C :    0.082452
   7 H :    0.010119
   8 H :    0.050294
   9 C :   -0.106068
  10 H :    0.035120
  11 H :    0.031596
  12 C :   -0.022688
  13 H :    0.013600
  14 H :    0.027241
  15 H :    0.039668
  16 S :    0.084595
  17 C :   -0.076250
  18 C :   -0.016926
  19 C :   -0.059831
  20 C :   -0.146599
  21 H :    0.022643
  22 C :    0.099493
  23 H :   -0.021947
  24 H :    0.009034
  25 C :   -0.046438
  26 H :    0.013966
  27 H :    0.018245
  28 C :   -0.002136
  29 H :   -0.008789
  30 H :    0.044987
  31 H :    0.034942
  32 H :    0.040636
  33 H :    0.043846
Sum of atomic charges:   -0.0000000

LOEWDIN ATOMIC CHARGES
----------------------
   0 S :    0.438589
   1 C :   -0.211390
   2 C :   -0.065100
   3 C :   -0.058218
   4 C :   -0.210310
   5 H :    0.024342
   6 C :   -0.025255
   7 H :    0.022160
   8 H :    0.045010
   9 C :   -0.046225
  10 H :    0.024480
  11 H :    0.027347
  12 C :   -0.068189
  13 H :    0.022278
  14 H :    0.025306
  15 H :    0.031303
  16 S :    0.379341
  17 C :   -0.156047
  18 C :   -0.063155
  19 C :   -0.053881
  20 C :   -0.198690
  21 H :    0.032184
  22 C :   -0.023025
  23 H :    0.011520
  24 H :    0.030889
  25 C :   -0.023397
  26 H :    0.016360
  27 H :    0.014854
  28 C :   -0.063898
  29 H :    0.017090
  30 H :    0.034553
  31 H :    0.028472
  32 H :    0.021710
  33 H :    0.018994

  Mayer bond orders larger than 0.100000
B(  0-S ,  1-C ) :   1.1669 B(  0-S ,  4-C ) :   1.1627 B(  1-C ,  2-C ) :   1.5836
B(  1-C , 32-H ) :   0.9661 B(  2-C ,  3-C ) :   1.2580 B(  2-C ,  6-C ) :   1.0243
B(  3-C ,  4-C ) :   1.5700 B(  3-C ,  5-H ) :   0.9983 B(  4-C , 20-C ) :   1.0054
B(  6-C ,  7-H ) :   0.9409 B(  6-C ,  8-H ) :   0.9454 B(  6-C ,  9-C ) :   1.0664
B(  9-C , 10-H ) :   0.9575 B(  9-C , 11-H ) :   0.9564 B(  9-C , 12-C ) :   1.0768
B( 12-C , 13-H ) :   0.9619 B( 12-C , 14-H ) :   0.9705 B( 12-C , 15-H ) :   0.9698
B( 16-S , 17-C ) :   1.1311 B( 16-S , 20-C ) :   1.1329 B( 17-C , 18-C ) :   1.6314
B( 17-C , 33-H ) :   0.9783 B( 18-C , 19-C ) :   1.2144 B( 18-C , 21-H ) :   0.9862
B( 19-C , 20-C ) :   1.6347 B( 19-C , 22-C ) :   1.0349 B( 22-C , 23-H ) :   0.9326
B( 22-C , 24-H ) :   0.9305 B( 22-C , 25-C ) :   1.0554 B( 25-C , 26-H ) :   0.9572
B( 25-C , 27-H ) :   0.9615 B( 25-C , 28-C ) :   1.0789 B( 28-C , 29-H ) :   0.9755
B( 28-C , 30-H ) :   0.9695 B( 28-C , 31-H ) :   0.9602

Dispersion correction           -0.016990995
FINAL SINGLE POINT ENERGY     -1339.867671260032

DIPOLE MOMENT
-------------
                                X             Y             Z
Electronic contribution:    -14.96346     -21.04487     -12.99961
Nuclear contribution   :     15.42947      21.75011      13.00554
                        -----------------------------------------
Total Dipole Moment    :      0.46601       0.70524       0.00593
                        -----------------------------------------
Magnitude (a.u.)       :      0.84532
Magnitude (Debye)      :      2.14863

Rotational constants in cm-1:     0.020303     0.010237     0.008213
Rotational constants in MHz :   608.667120   306.893402   246.224262

                             ****ORCA TERMINATED NORMALLY****
TOTAL RUN TIME: 0 days 0 hours 0 minutes 33 seconds 715 msec
