                         Program Version 4.2.1 -  RELEASE  -
|  1> ! wB97X-D3 SP def2-SVP
|  2> %pal
|  3> nprocs 16
|  4> end
|  5>
|  6> * xyz 0 1
|  7> S 	 -67.9339 	 44.1698 	 125.823
|  8> C 	 -68.6709 	 45.6143 	 125.301
|  9> C 	 -67.8587 	 46.2606 	 124.44
| 10> C 	 -66.6468 	 45.5929 	 124.085
| 11> C 	 -66.5433 	 44.405 	 124.747
| 12> H 	 -65.8589 	 45.9695 	 123.48
| 13> C 	 -67.8941 	 47.7171 	 124.006
| 14> H 	 -68.7968 	 47.7863 	 123.368
| 15> H 	 -67.0847 	 47.9981 	 123.26
| 16> C 	 -67.9639 	 48.7003 	 125.131
| 17> H 	 -68.8452 	 48.4747 	 125.669
| 18> H 	 -67.1451 	 48.5792 	 125.796
| 19> C 	 -67.9278 	 50.1583 	 124.604
| 20> H 	 -66.9723 	 50.2614 	 124.077
| 21> H 	 -68.7254 	 50.2588 	 123.871
| 22> H 	 -68.0584 	 50.9266 	 125.3
| 23> S 	 -65.2204 	 42.519 	 126.187
| 24> C 	 -63.8648 	 41.7378 	 125.412
| 25> C 	 -63.4717 	 42.257 	 124.198
| 26> C 	 -64.4602 	 43.2042 	 123.717
| 27> C 	 -65.412 	 43.4929 	 124.713
| 28> H 	 -62.6115 	 41.8535 	 123.658
| 29> C 	 -64.3835 	 43.8516 	 122.368
| 30> H 	 -63.4018 	 43.5877 	 121.968
| 31> H 	 -64.2569 	 44.9037 	 122.421
| 32> C 	 -65.5225 	 43.5485 	 121.412
| 33> H 	 -66.4768 	 43.9472 	 121.709
| 34> H 	 -65.6416 	 42.4388 	 121.511
| 35> C 	 -65.2493 	 43.7474 	 119.893
| 36> H 	 -65.2608 	 42.8425 	 119.366
| 37> H 	 -64.1937 	 44.1289 	 119.742
| 38> H 	 -65.9103 	 44.4928 	 119.53
| 39> H 	 -69.5505 	 46.0278 	 125.67
| 40> H 	 -63.284 	 40.9409 	 125.869
| 41> *
| 42>
| 43>                          ****END OF INPUT****

CARTESIAN COORDINATES (ANGSTROEM)
---------------------------------
  S    -67.933900   44.169800  125.823000
  C    -68.670900   45.614300  125.301000
  C    -67.858700   46.260600  124.440000
  C    -66.646800   45.592900  124.085000
  C    -66.543300   44.405000  124.747000
  H    -65.858900   45.969500  123.480000
  C    -67.894100   47.717100  124.006000
  H    -68.796800   47.786300  123.368000
  H    -67.084700   47.998100  123.260000
  C    -67.963900   48.700300  125.131000
  H    -68.845200   48.474700  125.669000
  H    -67.145100   48.579200  125.796000
  C    -67.927800   50.158300  124.604000
  H    -66.972300   50.261400  124.077000
  H    -68.725400   50.258800  123.871000
  H    -68.058400   50.926600  125.300000
  S    -65.220400   42.519000  126.187000
  C    -63.864800   41.737800  125.412000
  C    -63.471700   42.257000  124.198000
  C    -64.460200   43.204200  123.717000
  C    -65.412000   43.492900  124.713000
  H    -62.611500   41.853500  123.658000
  C    -64.383500   43.851600  122.368000
  H    -63.401800   43.587700  121.968000
  H    -64.256900   44.903700  122.421000
  C    -65.522500   43.548500  121.412000
  H    -66.476800   43.947200  121.709000
  H    -65.641600   42.438800  121.511000
  C    -65.249300   43.747400  119.893000
  H    -65.260800   42.842500  119.366000
  H    -64.193700   44.128900  119.742000
  H    -65.910300   44.492800  119.530000
  H    -69.550500   46.027800  125.670000
  H    -63.284000   40.940900  125.869000

 Total Charge           Charge          ....    0
 Multiplicity           Mult            ....    1
 Number of Electrons    NEL             ....  134
 Basis Dimension        Dim             ....  322

ORBITAL ENERGIES
----------------

  NO   OCC          E(Eh)            E(eV)
   0   2.0000     -88.968732     -2420.9623
   1   2.0000     -88.964968     -2420.8599
   2   2.0000     -10.328680      -281.0577
   3   2.0000     -10.327428      -281.0236
   4   2.0000     -10.316520      -280.7268
   5   2.0000     -10.308016      -280.4954
   6   2.0000     -10.303707      -280.3781
   7   2.0000     -10.298231      -280.2291
   8   2.0000     -10.293667      -280.1049
   9   2.0000     -10.290988      -280.0320
  10   2.0000     -10.289029      -279.9787
  11   2.0000     -10.285544      -279.8839
  12   2.0000     -10.282791      -279.8090
  13   2.0000     -10.277242      -279.6580
  14   2.0000     -10.275080      -279.5991
  15   2.0000     -10.274169      -279.5744
  16   2.0000      -8.083212      -219.9554
  17   2.0000      -8.080187      -219.8731
  18   2.0000      -6.041650      -164.4017
  19   2.0000      -6.038890      -164.3265
  20   2.0000      -6.037958      -164.3012
  21   2.0000      -6.034609      -164.2101
  22   2.0000      -6.033863      -164.1898
  23   2.0000      -6.030742      -164.1048
  24   2.0000      -1.010162       -27.4879
  25   2.0000      -0.985137       -26.8069
  26   2.0000      -0.914887       -24.8953
  27   2.0000      -0.910455       -24.7747
  28   2.0000      -0.872566       -23.7437
  29   2.0000      -0.855593       -23.2819
  30   2.0000      -0.847259       -23.0551
  31   2.0000      -0.815449       -22.1895
  32   2.0000      -0.783643       -21.3240
  33   2.0000      -0.770274       -20.9602
  34   2.0000      -0.712698       -19.3935
  35   2.0000      -0.704673       -19.1751
  36   2.0000      -0.690754       -18.7964
  37   2.0000      -0.667028       -18.1508
  38   2.0000      -0.643878       -17.5208
  39   2.0000      -0.619371       -16.8539
  40   2.0000      -0.597876       -16.2690
  41   2.0000      -0.574908       -15.6441
  42   2.0000      -0.567815       -15.4510
  43   2.0000      -0.557656       -15.1746
  44   2.0000      -0.524850       -14.2819
  45   2.0000      -0.521619       -14.1940
  46   2.0000      -0.519108       -14.1256
  47   2.0000      -0.515492       -14.0272
  48   2.0000      -0.510756       -13.8984
  49   2.0000      -0.502053       -13.6615
  50   2.0000      -0.490452       -13.3459
  51   2.0000      -0.483763       -13.1639
  52   2.0000      -0.479128       -13.0377
  53   2.0000      -0.464431       -12.6378
  54   2.0000      -0.458197       -12.4682
  55   2.0000      -0.455150       -12.3853
  56   2.0000      -0.445029       -12.1099
  57   2.0000      -0.439949       -11.9716
  58   2.0000      -0.435146       -11.8409
  59   2.0000      -0.428466       -11.6592
  60   2.0000      -0.417969       -11.3735
  61   2.0000      -0.406153       -11.0520
  62   2.0000      -0.405413       -11.0319
  63   2.0000      -0.361154        -9.8275
  64   2.0000      -0.336507        -9.1568
  65   2.0000      -0.326753        -8.8914
  66   2.0000      -0.281522        -7.6606
  67   0.0000       0.021517         0.5855
  68   0.0000       0.080095         2.1795
  69   0.0000       0.095872         2.6088
  70   0.0000       0.124974         3.4007
  71   0.0000       0.139781         3.8036

MULLIKEN ATOMIC CHARGES
-----------------------
   0 S :    0.100993
   1 C :   -0.090647
   2 C :   -0.047234
   3 C :   -0.007951
   4 C :   -0.098541
   5 H :   -0.002995
   6 C :    0.005078
   7 H :    0.026194
   8 H :    0.022378
   9 C :   -0.029425
  10 H :    0.012733
  11 H :    0.024200
  12 C :   -0.022076
  13 H :    0.028249
  14 H :    0.018450
  15 H :    0.027085
  16 S :    0.103814
  17 C :   -0.083183
  18 C :   -0.032531
  19 C :   -0.068747
  20 C :   -0.129215
  21 H :    0.028552
  22 C :    0.084484
  23 H :   -0.000275
  24 H :    0.020468
  25 C :   -0.098920
  26 H :    0.041420
  27 H :    0.030265
  28 C :   -0.022245
  29 H :    0.032174
  30 H :    0.022131
  31 H :    0.034501
  32 H :    0.018471
  33 H :    0.052347
Sum of atomic charges:    0.0000000

LOEWDIN ATOMIC CHARGES
----------------------
   0 S :    0.405203
   1 C :   -0.204062
   2 C :   -0.061150
   3 C :   -0.062721
   4 C :   -0.178513
   5 H :    0.027562
   6 C :   -0.037729
   7 H :    0.030793
   8 H :    0.030009
   9 C :   -0.033766
  10 H :    0.016214
  11 H :    0.021104
  12 C :   -0.055585
  13 H :    0.027346
  14 H :    0.023082
  15 H :    0.017069
  16 S :    0.393596
  17 C :   -0.181883
  18 C :   -0.070067
  19 C :   -0.049175
  20 C :   -0.180748
  21 H :    0.037031
  22 C :   -0.037415
  23 H :    0.030358
  24 H :    0.021805
  25 C :   -0.043394
  26 H :    0.022955
  27 H :    0.031119
  28 C :   -0.058819
  29 H :    0.021273
  30 H :    0.029706
  31 H :    0.023032
  32 H :    0.018575
  33 H :    0.027197

  Mayer bond orders larger than 0.100000
B(  0-S ,  1-C ) :   1.1193 B(  0-S ,  4-C ) :   1.1432 B(  1-C ,  2-C ) :   1.6249
B(  1-C , 32-H ) :   0.9791 B(  2-C ,  3-C ) :   1.2313 B(  2-C ,  6-C ) :   1.0093
B(  3-C ,  4-C ) :   1.5610 B(  3-C ,  5-H ) :   1.0065 B(  4-C , 20-C ) :   1.0867
B(  6-C ,  7-H ) :   0.9265 B(  6-C ,  8-H ) :   0.9529 B(  6-C ,  9-C ) :   1.0702
B(  9-C , 10-H ) :   0.9491 B(  9-C , 11-H ) :   0.9575 B(  9-C , 12-C ) :   1.0788
B( 12-C , 13-H ) :   0.9754 B( 12-C , 14-H ) :   0.9758 B( 12-C , 15-H ) :   0.9758
B( 16-S , 17-C ) :   1.1496 B( 16-S , 20-C ) :   1.1225 B( 17-C , 18-C ) :   1.6399
B( 17-C , 33-H ) :   0.9623 B( 18-C , 19-C ) :   1.2228 B( 18-C , 21-H ) :   0.9830
B( 19-C , 20-C ) :   1.5942 B( 19-C , 22-C ) :   1.0497 B( 22-C , 23-H ) :   0.9212
B( 22-C , 24-H ) :   0.9235 B( 22-C , 25-C ) :   1.0560 B( 25-C , 26-H ) :   0.9595
B( 25-C , 27-H ) :   0.9635 B( 25-C , 28-C ) :   1.0639 B( 28-C , 29-H ) :   0.9811
B( 28-C , 30-H ) :   0.9771 B( 28-C , 31-H ) :   0.9780

Dispersion correction           -0.014001823
FINAL SINGLE POINT ENERGY     -1339.868599048323

DIPOLE MOMENT
-------------
                                X             Y             Z
Electronic contribution:     -0.22306     -20.06190      20.43451
Nuclear contribution   :      0.48275      20.41842     -20.85965
                        -----------------------------------------
Total Dipole Moment    :      0.25969       0.35652      -0.42514
                        -----------------------------------------
Magnitude (a.u.)       :      0.61261
Magnitude (Debye)      :      1.55714

Rotational constants in cm-1:     0.017989     0.008643     0.006666
Rotational constants in MHz :   539.306444   259.109927   199.840949

                             ****ORCA TERMINATED NORMALLY****
TOTAL RUN TIME: 0 days 0 hours 0 minutes 31 seconds 805 msec
