                         Program Version 4.2.1 -  RELEASE  -
|  1> ! wB97X-D3 SP def2-SVP
|  2> %pal
|  3> nprocs 16
|  4> end
|  5>
|  6> * xyz 0 1
|  7> S 	 0.684361 	 77.2527 	 48.0493
|  8> C 	 0.22036 	 76.4828 	 49.5524
|  9> C 	 1.05317 	 76.7968 	 50.6545
| 10> C 	 1.95209 	 77.8604 	 50.249
| 11> C 	 1.76334 	 78.3173 	 48.96
| 12> H 	 2.66467 	 78.446 	 50.7782
| 13> C 	 0.857413 	 76.4335 	 52.0913
| 14> H 	 1.83655 	 76.2373 	 52.477
| 15> H 	 0.135419 	 75.5834 	 52.2385
| 16> C 	 0.413003 	 77.5806 	 53.1165
| 17> H 	 0.447729 	 77.1205 	 54.1205
| 18> H 	 1.1993 	 78.394 	 53.2155
| 19> C 	 -0.931238 	 78.2106 	 52.7072
| 20> H 	 -0.885979 	 78.8616 	 51.8549
| 21> H 	 -1.53907 	 77.3584 	 52.4131
| 22> H 	 -1.36061 	 78.7424 	 53.5656
| 23> S 	 3.14646 	 79.2456 	 46.679
| 24> C 	 3.86508 	 80.8636 	 46.8058
| 25> C 	 3.72891 	 81.4602 	 48.0119
| 26> C 	 2.83198 	 80.655 	 48.8869
| 27> C 	 2.54042 	 79.3929 	 48.3236
| 28> H 	 4.23863 	 82.402 	 48.1343
| 29> C 	 2.5213 	 81.1837 	 50.252
| 30> H 	 2.17759 	 80.3311 	 50.8021
| 31> H 	 1.62231 	 81.6945 	 50.1618
| 32> C 	 3.65353 	 81.8995 	 50.9975
| 33> H 	 3.17378 	 82.3328 	 51.9227
| 34> H 	 4.01492 	 82.7485 	 50.4876
| 35> C 	 4.74452 	 80.9357 	 51.28
| 36> H 	 5.03515 	 80.5086 	 50.3173
| 37> H 	 4.5004 	 80.028 	 51.8869
| 38> H 	 5.5839 	 81.4886 	 51.7186
| 39> H 	 -0.68618 	 75.9088 	 49.6704
| 40> H 	 4.70506 	 81.1877 	 46.1534
| 41> *
| 42>
| 43>                          ****END OF INPUT****

CARTESIAN COORDINATES (ANGSTROEM)
---------------------------------
  S      0.684361   77.252700   48.049300
  C      0.220360   76.482800   49.552400
  C      1.053170   76.796800   50.654500
  C      1.952090   77.860400   50.249000
  C      1.763340   78.317300   48.960000
  H      2.664670   78.446000   50.778200
  C      0.857413   76.433500   52.091300
  H      1.836550   76.237300   52.477000
  H      0.135419   75.583400   52.238500
  C      0.413003   77.580600   53.116500
  H      0.447729   77.120500   54.120500
  H      1.199300   78.394000   53.215500
  C     -0.931238   78.210600   52.707200
  H     -0.885979   78.861600   51.854900
  H     -1.539070   77.358400   52.413100
  H     -1.360610   78.742400   53.565600
  S      3.146460   79.245600   46.679000
  C      3.865080   80.863600   46.805800
  C      3.728910   81.460200   48.011900
  C      2.831980   80.655000   48.886900
  C      2.540420   79.392900   48.323600
  H      4.238630   82.402000   48.134300
  C      2.521300   81.183700   50.252000
  H      2.177590   80.331100   50.802100
  H      1.622310   81.694500   50.161800
  C      3.653530   81.899500   50.997500
  H      3.173780   82.332800   51.922700
  H      4.014920   82.748500   50.487600
  C      4.744520   80.935700   51.280000
  H      5.035150   80.508600   50.317300
  H      4.500400   80.028000   51.886900
  H      5.583900   81.488600   51.718600
  H     -0.686180   75.908800   49.670400
  H      4.705060   81.187700   46.153400

 Total Charge           Charge          ....    0
 Multiplicity           Mult            ....    1
 Number of Electrons    NEL             ....  134
 Basis Dimension        Dim             ....  322

ORBITAL ENERGIES
----------------

  NO   OCC          E(Eh)            E(eV)
   0   2.0000     -88.968268     -2420.9497
   1   2.0000     -88.966655     -2420.9058
   2   2.0000     -10.332332      -281.1571
   3   2.0000     -10.331279      -281.1284
   4   2.0000     -10.318454      -280.7794
   5   2.0000     -10.316805      -280.7345
   6   2.0000     -10.310756      -280.5699
   7   2.0000     -10.310305      -280.5577
   8   2.0000     -10.299838      -280.2728
   9   2.0000     -10.299151      -280.2541
  10   2.0000     -10.296786      -280.1898
  11   2.0000     -10.294735      -280.1340
  12   2.0000     -10.288158      -279.9550
  13   2.0000     -10.280539      -279.7477
  14   2.0000     -10.278760      -279.6993
  15   2.0000     -10.276589      -279.6402
  16   2.0000      -8.082710      -219.9417
  17   2.0000      -8.080978      -219.8946
  18   2.0000      -6.041257      -164.3910
  19   2.0000      -6.039664      -164.3476
  20   2.0000      -6.037401      -164.2860
  21   2.0000      -6.035747      -164.2410
  22   2.0000      -6.033323      -164.1751
  23   2.0000      -6.031386      -164.1224
  24   2.0000      -1.001749       -27.2590
  25   2.0000      -0.978560       -26.6280
  26   2.0000      -0.919815       -25.0294
  27   2.0000      -0.907211       -24.6865
  28   2.0000      -0.869032       -23.6476
  29   2.0000      -0.851932       -23.1822
  30   2.0000      -0.844119       -22.9696
  31   2.0000      -0.818145       -22.2629
  32   2.0000      -0.785030       -21.3617
  33   2.0000      -0.772025       -21.0079
  34   2.0000      -0.711769       -19.3682
  35   2.0000      -0.698604       -19.0100
  36   2.0000      -0.692657       -18.8482
  37   2.0000      -0.653813       -17.7912
  38   2.0000      -0.640341       -17.4246
  39   2.0000      -0.620498       -16.8846
  40   2.0000      -0.595822       -16.2132
  41   2.0000      -0.567020       -15.4294
  42   2.0000      -0.563517       -15.3341
  43   2.0000      -0.553575       -15.0635
  44   2.0000      -0.540192       -14.6994
  45   2.0000      -0.534208       -14.5365
  46   2.0000      -0.520943       -14.1756
  47   2.0000      -0.511583       -13.9209
  48   2.0000      -0.501599       -13.6492
  49   2.0000      -0.494143       -13.4463
  50   2.0000      -0.491827       -13.3833
  51   2.0000      -0.481313       -13.0972
  52   2.0000      -0.468625       -12.7519
  53   2.0000      -0.461564       -12.5598
  54   2.0000      -0.460232       -12.5235
  55   2.0000      -0.454504       -12.3677
  56   2.0000      -0.444616       -12.0986
  57   2.0000      -0.438497       -11.9321
  58   2.0000      -0.434499       -11.8233
  59   2.0000      -0.426837       -11.6148
  60   2.0000      -0.421077       -11.4581
  61   2.0000      -0.418199       -11.3798
  62   2.0000      -0.412644       -11.2286
  63   2.0000      -0.355697        -9.6790
  64   2.0000      -0.332282        -9.0419
  65   2.0000      -0.324842        -8.8394
  66   2.0000      -0.284405        -7.7391
  67   0.0000       0.026840         0.7303
  68   0.0000       0.066866         1.8195
  69   0.0000       0.096359         2.6221
  70   0.0000       0.113035         3.0758
  71   0.0000       0.124672         3.3925

MULLIKEN ATOMIC CHARGES
-----------------------
   0 S :    0.109695
   1 C :   -0.120633
   2 C :   -0.041641
   3 C :    0.029787
   4 C :   -0.163186
   5 H :   -0.010534
   6 C :    0.040630
   7 H :    0.028354
   8 H :    0.042761
   9 C :   -0.122567
  10 H :    0.038568
  11 H :    0.030925
  12 C :   -0.028632
  13 H :    0.044392
  14 H :    0.019451
  15 H :    0.041158
  16 S :    0.096494
  17 C :   -0.096142
  18 C :   -0.040565
  19 C :   -0.130844
  20 C :   -0.123061
  21 H :    0.028653
  22 C :    0.143182
  23 H :   -0.021285
  24 H :    0.016133
  25 C :   -0.040508
  26 H :    0.031857
  27 H :    0.021627
  28 C :   -0.061507
  29 H :    0.038241
  30 H :    0.041812
  31 H :    0.038444
  32 H :    0.048174
  33 H :    0.070767
Sum of atomic charges:    0.0000000

LOEWDIN ATOMIC CHARGES
----------------------
   0 S :    0.389892
   1 C :   -0.193514
   2 C :   -0.058484
   3 C :   -0.057152
   4 C :   -0.180631
   5 H :    0.022823
   6 C :   -0.036462
   7 H :    0.033430
   8 H :    0.035760
   9 C :   -0.043073
  10 H :    0.027128
  11 H :    0.022263
  12 C :   -0.066247
  13 H :    0.026781
  14 H :    0.023228
  15 H :    0.029132
  16 S :    0.379066
  17 C :   -0.184105
  18 C :   -0.069944
  19 C :   -0.048727
  20 C :   -0.199277
  21 H :    0.035540
  22 C :   -0.035597
  23 H :    0.025695
  24 H :    0.028687
  25 C :   -0.035895
  26 H :    0.032055
  27 H :    0.016935
  28 C :   -0.068322
  29 H :    0.028881
  30 H :    0.029187
  31 H :    0.028678
  32 H :    0.024819
  33 H :    0.037450

  Mayer bond orders larger than 0.100000
B(  0-S ,  1-C ) :   1.1398 B(  0-S ,  4-C ) :   1.1239 B(  1-C ,  2-C ) :   1.6064
B(  1-C , 32-H ) :   0.9672 B(  2-C ,  3-C ) :   1.1836 B(  2-C ,  6-C ) :   1.0529
B(  3-C ,  4-C ) :   1.6137 B(  3-C ,  5-H ) :   0.9884 B(  4-C , 20-C ) :   1.0522
B(  6-C ,  7-H ) :   0.9265 B(  6-C ,  8-H ) :   0.9465 B(  6-C ,  9-C ) :   1.0671
B(  9-C , 10-H ) :   0.9571 B(  9-C , 11-H ) :   0.9536 B(  9-C , 12-C ) :   1.0637
B( 12-C , 13-H ) :   0.9734 B( 12-C , 14-H ) :   0.9773 B( 12-C , 15-H ) :   0.9747
B( 16-S , 17-C ) :   1.1244 B( 16-S , 20-C ) :   1.1216 B( 17-C , 18-C ) :   1.6987
B( 17-C , 33-H ) :   0.9492 B( 18-C , 19-C ) :   1.1725 B( 18-C , 21-H ) :   0.9851
B( 19-C , 20-C ) :   1.6166 B( 19-C , 22-C ) :   1.0365 B( 22-C , 23-H ) :   0.9193
B( 22-C , 24-H ) :   0.9042 B( 22-C , 25-C ) :   1.0742 B( 25-C , 26-H ) :   0.9477
B( 25-C , 27-H ) :   0.9479 B( 25-C , 28-C ) :   1.0820 B( 28-C , 29-H ) :   0.9696
B( 28-C , 30-H ) :   0.9695 B( 28-C , 31-H ) :   0.9703

Dispersion correction           -0.015712183
FINAL SINGLE POINT ENERGY     -1339.861203771067

DIPOLE MOMENT
-------------
                                X             Y             Z
Electronic contribution:     -0.00451      -7.65177     -28.28419
Nuclear contribution   :      0.14125       8.02477      29.06498
                        -----------------------------------------
Total Dipole Moment    :      0.13674       0.37300       0.78079
                        -----------------------------------------
Magnitude (a.u.)       :      0.87605
Magnitude (Debye)      :      2.22674

Rotational constants in cm-1:     0.018319     0.010242     0.007195
Rotational constants in MHz :   549.203903   307.049293   215.706313

                             ****ORCA TERMINATED NORMALLY****
TOTAL RUN TIME: 0 days 0 hours 0 minutes 36 seconds 367 msec
