                         Program Version 4.2.1 -  RELEASE  -
|  1> ! wB97X-D3 SP def2-SVP
|  2> %pal
|  3> nprocs 16
|  4> end
|  5>
|  6> * xyz 0 1
|  7> S 	 -114.622 	 53.1897 	 130.011
|  8> C 	 -114.375 	 54.4084 	 131.137
|  9> C 	 -113.415 	 53.9826 	 132.038
| 10> C 	 -113.252 	 52.5634 	 132.03
| 11> C 	 -114.054 	 51.9683 	 131.119
| 12> H 	 -112.691 	 51.91 	 132.567
| 13> C 	 -112.676 	 54.9544 	 133.036
| 14> H 	 -112.002 	 54.3559 	 133.68
| 15> H 	 -113.399 	 55.4473 	 133.723
| 16> C 	 -111.832 	 56.057 	 132.432
| 17> H 	 -111.149 	 55.554 	 131.738
| 18> H 	 -112.448 	 56.8046 	 131.871
| 19> C 	 -110.975 	 56.6619 	 133.559
| 20> H 	 -110.193 	 57.3206 	 133.213
| 21> H 	 -111.542 	 57.0987 	 134.411
| 22> H 	 -110.242 	 55.9046 	 133.885
| 23> S 	 -114.11 	 49.8043 	 129.274
| 24> C 	 -114.312 	 48.1882 	 129.865
| 25> C 	 -114.525 	 48.1778 	 131.25
| 26> C 	 -114.453 	 49.5093 	 131.837
| 27> C 	 -114.213 	 50.5317 	 130.938
| 28> H 	 -114.806 	 47.3725 	 131.86
| 29> C 	 -114.785 	 49.6498 	 133.305
| 30> H 	 -115.779 	 49.2385 	 133.45
| 31> H 	 -114.821 	 50.6879 	 133.557
| 32> C 	 -113.696 	 49.1493 	 134.257
| 33> H 	 -112.812 	 49.7234 	 134.199
| 34> H 	 -113.324 	 48.2323 	 133.907
| 35> C 	 -114.173 	 49.0826 	 135.684
| 36> H 	 -114.865 	 48.2097 	 135.598
| 37> H 	 -114.757 	 49.9169 	 135.972
| 38> H 	 -113.413 	 48.6525 	 136.37
| 39> H 	 -114.542 	 55.4073 	 130.942
| 40> H 	 -114.325 	 47.3385 	 129.217
| 41> *
| 42>
| 43>                          ****END OF INPUT****

CARTESIAN COORDINATES (ANGSTROEM)
---------------------------------
  S    -114.622000   53.189700  130.011000
  C    -114.375000   54.408400  131.137000
  C    -113.415000   53.982600  132.038000
  C    -113.252000   52.563400  132.030000
  C    -114.054000   51.968300  131.119000
  H    -112.691000   51.910000  132.567000
  C    -112.676000   54.954400  133.036000
  H    -112.002000   54.355900  133.680000
  H    -113.399000   55.447300  133.723000
  C    -111.832000   56.057000  132.432000
  H    -111.149000   55.554000  131.738000
  H    -112.448000   56.804600  131.871000
  C    -110.975000   56.661900  133.559000
  H    -110.193000   57.320600  133.213000
  H    -111.542000   57.098700  134.411000
  H    -110.242000   55.904600  133.885000
  S    -114.110000   49.804300  129.274000
  C    -114.312000   48.188200  129.865000
  C    -114.525000   48.177800  131.250000
  C    -114.453000   49.509300  131.837000
  C    -114.213000   50.531700  130.938000
  H    -114.806000   47.372500  131.860000
  C    -114.785000   49.649800  133.305000
  H    -115.779000   49.238500  133.450000
  H    -114.821000   50.687900  133.557000
  C    -113.696000   49.149300  134.257000
  H    -112.812000   49.723400  134.199000
  H    -113.324000   48.232300  133.907000
  C    -114.173000   49.082600  135.684000
  H    -114.865000   48.209700  135.598000
  H    -114.757000   49.916900  135.972000
  H    -113.413000   48.652500  136.370000
  H    -114.542000   55.407300  130.942000
  H    -114.325000   47.338500  129.217000

 Total Charge           Charge          ....    0
 Multiplicity           Mult            ....    1
 Number of Electrons    NEL             ....  134
 Basis Dimension        Dim             ....  322

ORBITAL ENERGIES
----------------

  NO   OCC          E(Eh)            E(eV)
   0   2.0000     -88.964068     -2420.8354
   1   2.0000     -88.961257     -2420.7589
   2   2.0000     -10.332134      -281.1516
   3   2.0000     -10.324964      -280.9566
   4   2.0000     -10.322999      -280.9031
   5   2.0000     -10.305198      -280.4187
   6   2.0000     -10.304401      -280.3970
   7   2.0000     -10.304267      -280.3934
   8   2.0000     -10.296243      -280.1750
   9   2.0000     -10.295368      -280.1512
  10   2.0000     -10.290898      -280.0296
  11   2.0000     -10.286816      -279.9185
  12   2.0000     -10.285994      -279.8961
  13   2.0000     -10.282472      -279.8003
  14   2.0000     -10.278635      -279.6959
  15   2.0000     -10.275889      -279.6211
  16   2.0000      -8.078344      -219.8229
  17   2.0000      -8.077978      -219.8130
  18   2.0000      -6.037023      -164.2758
  19   2.0000      -6.036418      -164.2593
  20   2.0000      -6.032925      -164.1642
  21   2.0000      -6.032509      -164.1529
  22   2.0000      -6.028955      -164.0562
  23   2.0000      -6.028373      -164.0404
  24   2.0000      -1.015176       -27.6243
  25   2.0000      -0.984081       -26.7782
  26   2.0000      -0.916480       -24.9387
  27   2.0000      -0.910241       -24.7689
  28   2.0000      -0.877216       -23.8703
  29   2.0000      -0.853187       -23.2164
  30   2.0000      -0.848851       -23.0984
  31   2.0000      -0.814742       -22.1702
  32   2.0000      -0.780998       -21.2520
  33   2.0000      -0.770044       -20.9540
  34   2.0000      -0.708510       -19.2795
  35   2.0000      -0.702778       -19.1236
  36   2.0000      -0.695383       -18.9223
  37   2.0000      -0.669105       -18.2073
  38   2.0000      -0.657000       -17.8779
  39   2.0000      -0.616094       -16.7648
  40   2.0000      -0.602404       -16.3922
  41   2.0000      -0.570511       -15.5244
  42   2.0000      -0.569593       -15.4994
  43   2.0000      -0.563498       -15.3336
  44   2.0000      -0.536257       -14.5923
  45   2.0000      -0.523975       -14.2581
  46   2.0000      -0.521609       -14.1937
  47   2.0000      -0.515004       -14.0140
  48   2.0000      -0.510074       -13.8798
  49   2.0000      -0.503212       -13.6931
  50   2.0000      -0.498449       -13.5635
  51   2.0000      -0.480213       -13.0673
  52   2.0000      -0.471397       -12.8274
  53   2.0000      -0.465305       -12.6616
  54   2.0000      -0.463459       -12.6114
  55   2.0000      -0.455383       -12.3916
  56   2.0000      -0.444916       -12.1068
  57   2.0000      -0.432889       -11.7795
  58   2.0000      -0.430683       -11.7195
  59   2.0000      -0.424782       -11.5589
  60   2.0000      -0.417417       -11.3585
  61   2.0000      -0.413162       -11.2427
  62   2.0000      -0.408129       -11.1057
  63   2.0000      -0.357116        -9.7176
  64   2.0000      -0.328617        -8.9421
  65   2.0000      -0.325585        -8.8596
  66   2.0000      -0.288757        -7.8575
  67   0.0000       0.024406         0.6641
  68   0.0000       0.064383         1.7519
  69   0.0000       0.108749         2.9592
  70   0.0000       0.118818         3.2332
  71   0.0000       0.134512         3.6603

MULLIKEN ATOMIC CHARGES
-----------------------
   0 S :    0.110519
   1 C :   -0.053973
   2 C :   -0.080407
   3 C :    0.063703
   4 C :   -0.146855
   5 H :   -0.039384
   6 C :    0.035706
   7 H :    0.016094
   8 H :    0.039566
   9 C :   -0.078624
  10 H :    0.030915
  11 H :    0.041113
  12 C :   -0.061548
  13 H :    0.024533
  14 H :    0.049679
  15 H :    0.023484
  16 S :    0.085265
  17 C :   -0.072628
  18 C :    0.004883
  19 C :   -0.074504
  20 C :   -0.138595
  21 H :    0.001745
  22 C :    0.050887
  23 H :    0.035894
  24 H :    0.015640
  25 C :   -0.037607
  26 H :    0.007226
  27 H :   -0.003135
  28 C :   -0.026165
  29 H :    0.016674
  30 H :    0.035439
  31 H :    0.043360
  32 H :    0.022038
  33 H :    0.059061
Sum of atomic charges:   -0.0000000

LOEWDIN ATOMIC CHARGES
----------------------
   0 S :    0.428476
   1 C :   -0.199879
   2 C :   -0.057981
   3 C :   -0.052505
   4 C :   -0.186194
   5 H :    0.015644
   6 C :   -0.036371
   7 H :    0.027962
   8 H :    0.032805
   9 C :   -0.045736
  10 H :    0.027324
  11 H :    0.024263
  12 C :   -0.076195
  13 H :    0.025831
  14 H :    0.030279
  15 H :    0.030775
  16 S :    0.377170
  17 C :   -0.175266
  18 C :   -0.066095
  19 C :   -0.052844
  20 C :   -0.176705
  21 H :    0.022038
  22 C :   -0.027761
  23 H :    0.032949
  24 H :    0.026863
  25 C :   -0.037232
  26 H :    0.014512
  27 H :    0.012187
  28 C :   -0.064459
  29 H :    0.030412
  30 H :    0.021547
  31 H :    0.034335
  32 H :    0.013055
  33 H :    0.026798

  Mayer bond orders larger than 0.100000
B(  0-S ,  1-C ) :   1.1558 B(  0-S ,  4-C ) :   1.1503 B(  1-C ,  2-C ) :   1.5890
B(  1-C , 32-H ) :   0.9807 B(  2-C ,  3-C ) :   1.2201 B(  2-C ,  6-C ) :   1.0048
B(  3-C ,  4-C ) :   1.5524 B(  3-C ,  5-H ) :   1.0296 B(  4-C , 20-C ) :   1.0663
B(  6-C ,  7-H ) :   0.9518 B(  6-C ,  8-H ) :   0.9452 B(  6-C ,  9-C ) :   1.0578
B(  9-C , 10-H ) :   0.9546 B(  9-C , 11-H ) :   0.9553 B(  9-C , 12-C ) :   1.0861
B( 12-C , 13-H ) :   0.9693 B( 12-C , 14-H ) :   0.9750 B( 12-C , 15-H ) :   0.9671
B( 16-S , 17-C ) :   1.1642 B( 16-S , 20-C ) :   1.1012 B( 17-C , 18-C ) :   1.5817
B( 17-C , 33-H ) :   0.9724 B( 18-C , 19-C ) :   1.2330 B( 18-C , 21-H ) :   0.9949
B( 19-C , 20-C ) :   1.6282 B( 19-C , 22-C ) :   1.0508 B( 22-C , 23-H ) :   0.9447
B( 22-C , 24-H ) :   0.9266 B( 22-C , 25-C ) :   1.0513 B( 25-C , 26-H ) :   0.9443
B( 25-C , 27-H ) :   0.9565 B( 25-C , 28-C ) :   1.0792 B( 28-C , 29-H ) :   0.9762
B( 28-C , 30-H ) :   0.9731 B( 28-C , 31-H ) :   0.9694

Dispersion correction           -0.013572427
FINAL SINGLE POINT ENERGY     -1339.847358415368

DIPOLE MOMENT
-------------
                                X             Y             Z
Electronic contribution:    -10.04440      -7.50447     -27.11707
Nuclear contribution   :     10.31003       7.47509      27.70316
                        -----------------------------------------
Total Dipole Moment    :      0.26563      -0.02937       0.58609
                        -----------------------------------------
Magnitude (a.u.)       :      0.64415
Magnitude (Debye)      :      1.63729

Rotational constants in cm-1:     0.018131     0.008051     0.006018
Rotational constants in MHz :   543.552651   241.367921   180.420025

                             ****ORCA TERMINATED NORMALLY****
TOTAL RUN TIME: 0 days 0 hours 0 minutes 33 seconds 208 msec
