                         Program Version 4.2.1 -  RELEASE  -
|  1> ! wB97X-D3 SP def2-SVP
|  2> %pal
|  3> nprocs 16
|  4> end
|  5>
|  6> * xyz 0 1
|  7> S 	 -89.808 	 54.4721 	 127.826
|  8> C 	 -90.3579 	 53.0694 	 128.72
|  9> C 	 -91.376 	 53.3877 	 129.58
| 10> C 	 -91.7771 	 54.788 	 129.413
| 11> C 	 -90.9924 	 55.5329 	 128.589
| 12> H 	 -92.6317 	 55.3239 	 129.85
| 13> C 	 -92.2111 	 52.3226 	 130.232
| 14> H 	 -91.5166 	 51.7112 	 130.769
| 15> H 	 -92.5689 	 51.6648 	 129.46
| 16> C 	 -93.3676 	 52.7038 	 131.109
| 17> H 	 -92.9106 	 53.3693 	 131.858
| 18> H 	 -94.1914 	 53.2453 	 130.515
| 19> C 	 -94.1771 	 51.6268 	 131.831
| 20> H 	 -94.7581 	 50.9765 	 131.169
| 21> H 	 -93.4196 	 50.9943 	 132.381
| 22> H 	 -94.6074 	 52.1747 	 132.624
| 23> S 	 -90.4122 	 57.9493 	 129.735
| 24> C 	 -90.7593 	 59.4192 	 128.797
| 25> C 	 -91.179 	 59.1368 	 127.536
| 26> C 	 -91.2058 	 57.7673 	 127.235
| 27> C 	 -90.966 	 56.999 	 128.389
| 28> H 	 -91.2832 	 59.972 	 126.873
| 29> C 	 -91.5336 	 57.3184 	 125.827
| 30> H 	 -92.3385 	 58.0379 	 125.566
| 31> H 	 -91.8767 	 56.2597 	 125.677
| 32> C 	 -90.3661 	 57.4339 	 124.838
| 33> H 	 -89.4801 	 56.9359 	 125.19
| 34> H 	 -90.0822 	 58.4823 	 124.778
| 35> C 	 -90.7568 	 56.924 	 123.457
| 36> H 	 -90.1936 	 57.2153 	 122.542
| 37> H 	 -91.8245 	 57.1706 	 123.328
| 38> H 	 -90.6105 	 55.8509 	 123.501
| 39> H 	 -90.0044 	 52.0589 	 128.525
| 40> H 	 -90.476 	 60.3802 	 129.057
| 41> *
| 42>
| 43>                          ****END OF INPUT****

CARTESIAN COORDINATES (ANGSTROEM)
---------------------------------
  S    -89.808000   54.472100  127.826000
  C    -90.357900   53.069400  128.720000
  C    -91.376000   53.387700  129.580000
  C    -91.777100   54.788000  129.413000
  C    -90.992400   55.532900  128.589000
  H    -92.631700   55.323900  129.850000
  C    -92.211100   52.322600  130.232000
  H    -91.516600   51.711200  130.769000
  H    -92.568900   51.664800  129.460000
  C    -93.367600   52.703800  131.109000
  H    -92.910600   53.369300  131.858000
  H    -94.191400   53.245300  130.515000
  C    -94.177100   51.626800  131.831000
  H    -94.758100   50.976500  131.169000
  H    -93.419600   50.994300  132.381000
  H    -94.607400   52.174700  132.624000
  S    -90.412200   57.949300  129.735000
  C    -90.759300   59.419200  128.797000
  C    -91.179000   59.136800  127.536000
  C    -91.205800   57.767300  127.235000
  C    -90.966000   56.999000  128.389000
  H    -91.283200   59.972000  126.873000
  C    -91.533600   57.318400  125.827000
  H    -92.338500   58.037900  125.566000
  H    -91.876700   56.259700  125.677000
  C    -90.366100   57.433900  124.838000
  H    -89.480100   56.935900  125.190000
  H    -90.082200   58.482300  124.778000
  C    -90.756800   56.924000  123.457000
  H    -90.193600   57.215300  122.542000
  H    -91.824500   57.170600  123.328000
  H    -90.610500   55.850900  123.501000
  H    -90.004400   52.058900  128.525000
  H    -90.476000   60.380200  129.057000

 Total Charge           Charge          ....    0
 Multiplicity           Mult            ....    1
 Number of Electrons    NEL             ....  134
 Basis Dimension        Dim             ....  322

ORBITAL ENERGIES
----------------

  NO   OCC          E(Eh)            E(eV)
   0   2.0000     -88.968564     -2420.9577
   1   2.0000     -88.960508     -2420.7385
   2   2.0000     -10.328586      -281.0551
   3   2.0000     -10.326034      -280.9857
   4   2.0000     -10.312546      -280.6186
   5   2.0000     -10.311625      -280.5936
   6   2.0000     -10.305129      -280.4168
   7   2.0000     -10.302348      -280.3411
   8   2.0000     -10.296685      -280.1871
   9   2.0000     -10.294253      -280.1209
  10   2.0000     -10.289622      -279.9948
  11   2.0000     -10.289006      -279.9781
  12   2.0000     -10.284105      -279.8447
  13   2.0000     -10.281502      -279.7739
  14   2.0000     -10.281088      -279.7626
  15   2.0000     -10.277903      -279.6760
  16   2.0000      -8.082904      -219.9470
  17   2.0000      -8.075085      -219.7342
  18   2.0000      -6.041372      -164.3941
  19   2.0000      -6.037538      -164.2897
  20   2.0000      -6.033694      -164.1852
  21   2.0000      -6.033654      -164.1841
  22   2.0000      -6.029529      -164.0718
  23   2.0000      -6.025850      -163.9717
  24   2.0000      -1.005112       -27.3505
  25   2.0000      -0.984294       -26.7840
  26   2.0000      -0.914811       -24.8933
  27   2.0000      -0.911226       -24.7957
  28   2.0000      -0.873092       -23.7580
  29   2.0000      -0.852910       -23.2089
  30   2.0000      -0.843318       -22.9479
  31   2.0000      -0.820268       -22.3206
  32   2.0000      -0.783144       -21.3104
  33   2.0000      -0.769108       -20.9285
  34   2.0000      -0.708935       -19.2911
  35   2.0000      -0.694582       -18.9005
  36   2.0000      -0.680672       -18.5220
  37   2.0000      -0.665399       -18.1064
  38   2.0000      -0.640630       -17.4324
  39   2.0000      -0.613393       -16.6913
  40   2.0000      -0.601229       -16.3603
  41   2.0000      -0.579030       -15.7562
  42   2.0000      -0.567177       -15.4337
  43   2.0000      -0.564702       -15.3663
  44   2.0000      -0.531087       -14.4516
  45   2.0000      -0.524140       -14.2626
  46   2.0000      -0.516102       -14.0438
  47   2.0000      -0.511867       -13.9286
  48   2.0000      -0.508182       -13.8283
  49   2.0000      -0.500629       -13.6228
  50   2.0000      -0.489410       -13.3175
  51   2.0000      -0.477617       -12.9966
  52   2.0000      -0.467800       -12.7295
  53   2.0000      -0.464664       -12.6441
  54   2.0000      -0.455534       -12.3957
  55   2.0000      -0.452132       -12.3031
  56   2.0000      -0.445400       -12.1199
  57   2.0000      -0.436728       -11.8840
  58   2.0000      -0.429058       -11.6753
  59   2.0000      -0.423858       -11.5338
  60   2.0000      -0.419837       -11.4243
  61   2.0000      -0.410640       -11.1741
  62   2.0000      -0.407232       -11.0814
  63   2.0000      -0.340584        -9.2678
  64   2.0000      -0.332987        -9.0610
  65   2.0000      -0.321716        -8.7543
  66   2.0000      -0.301206        -8.1962
  67   0.0000       0.037148         1.0108
  68   0.0000       0.063252         1.7212
  69   0.0000       0.111202         3.0260
  70   0.0000       0.113653         3.0927
  71   0.0000       0.132955         3.6179

MULLIKEN ATOMIC CHARGES
-----------------------
   0 S :    0.098514
   1 C :   -0.132214
   2 C :   -0.058941
   3 C :    0.003673
   4 C :   -0.155031
   5 H :    0.024662
   6 C :    0.082192
   7 H :    0.014437
   8 H :    0.026595
   9 C :   -0.151811
  10 H :    0.034406
  11 H :    0.042207
  12 C :   -0.005614
  13 H :    0.050030
  14 H :    0.015726
  15 H :    0.031913
  16 S :    0.125604
  17 C :   -0.061447
  18 C :   -0.036865
  19 C :    0.011358
  20 C :   -0.186185
  21 H :    0.014976
  22 C :    0.021943
  23 H :    0.036861
  24 H :    0.037767
  25 C :   -0.054572
  26 H :    0.026843
  27 H :    0.014325
  28 C :   -0.058049
  29 H :    0.043039
  30 H :    0.033047
  31 H :    0.033083
  32 H :    0.051811
  33 H :    0.025718
Sum of atomic charges:    0.0000000

LOEWDIN ATOMIC CHARGES
----------------------
   0 S :    0.389100
   1 C :   -0.189881
   2 C :   -0.063668
   3 C :   -0.068852
   4 C :   -0.195988
   5 H :    0.036703
   6 C :   -0.040780
   7 H :    0.028938
   8 H :    0.030695
   9 C :   -0.052962
  10 H :    0.026462
  11 H :    0.031377
  12 C :   -0.061486
  13 H :    0.028348
  14 H :    0.026512
  15 H :    0.028300
  16 S :    0.411958
  17 C :   -0.163508
  18 C :   -0.067206
  19 C :   -0.051611
  20 C :   -0.206238
  21 H :    0.031750
  22 C :   -0.035083
  23 H :    0.036822
  24 H :    0.034827
  25 C :   -0.040373
  26 H :    0.020950
  27 H :    0.017582
  28 C :   -0.071796
  29 H :    0.031284
  30 H :    0.027183
  31 H :    0.026124
  32 H :    0.030092
  33 H :    0.014424

  Mayer bond orders larger than 0.100000
B(  0-S ,  1-C ) :   1.1395 B(  0-S ,  4-C ) :   1.1299 B(  1-C ,  2-C ) :   1.6256
B(  1-C , 32-H ) :   0.9728 B(  2-C ,  3-C ) :   1.2037 B(  2-C ,  6-C ) :   1.0173
B(  3-C ,  4-C ) :   1.6296 B(  3-C ,  5-H ) :   0.9908 B(  4-C , 20-C ) :   1.0093
B(  6-C ,  7-H ) :   0.9262 B(  6-C ,  8-H ) :   0.9380 B(  6-C ,  9-C ) :   1.0884
B(  9-C , 10-H ) :   0.9555 B(  9-C , 11-H ) :   0.9442 B(  9-C , 12-C ) :   1.0852
B( 12-C , 13-H ) :   0.9750 B( 12-C , 14-H ) :   0.9700 B( 12-C , 15-H ) :   0.9705
B( 16-S , 17-C ) :   1.1456 B( 16-S , 20-C ) :   1.1599 B( 17-C , 18-C ) :   1.6292
B( 17-C , 33-H ) :   0.9710 B( 18-C , 19-C ) :   1.2457 B( 18-C , 21-H ) :   0.9868
B( 19-C , 20-C ) :   1.5737 B( 19-C , 22-C ) :   1.0381 B( 22-C , 23-H ) :   0.9293
B( 22-C , 24-H ) :   0.9419 B( 22-C , 25-C ) :   1.0620 B( 25-C , 26-H ) :   0.9576
B( 25-C , 27-H ) :   0.9523 B( 25-C , 28-C ) :   1.0723 B( 28-C , 29-H ) :   0.9750
B( 28-C , 30-H ) :   0.9726 B( 28-C , 31-H ) :   0.9759

Dispersion correction           -0.013695225
FINAL SINGLE POINT ENERGY     -1339.868834012653

DIPOLE MOMENT
-------------
                                X             Y             Z
Electronic contribution:     12.54242      10.42471       6.40064
Nuclear contribution   :    -12.81571     -10.50430      -6.56980
                        -----------------------------------------
Total Dipole Moment    :     -0.27330      -0.07959      -0.16916
                        -----------------------------------------
Magnitude (a.u.)       :      0.33113
Magnitude (Debye)      :      0.84165

Rotational constants in cm-1:     0.020207     0.007395     0.006241
Rotational constants in MHz :   605.805111   221.681572   187.108490

                             ****ORCA TERMINATED NORMALLY****
TOTAL RUN TIME: 0 days 0 hours 0 minutes 32 seconds 982 msec
