                         Program Version 4.2.1 -  RELEASE  -
|  1> ! wB97X-D3 SP def2-SVP
|  2> %pal
|  3> nprocs 16
|  4> end
|  5>
|  6> * xyz 0 1
|  7> S 	 56.8626 	 4.14915 	 81.2238
|  8> C 	 57.041 	 3.10825 	 79.8503
|  9> C 	 55.7956 	 2.88726 	 79.2807
| 10> C 	 54.7666 	 3.79571 	 79.7098
| 11> C 	 55.1948 	 4.63479 	 80.6906
| 12> H 	 53.7789 	 3.89092 	 79.2576
| 13> C 	 55.4296 	 1.87654 	 78.251
| 14> H 	 56.231 	 1.81285 	 77.4937
| 15> H 	 54.5043 	 2.25736 	 77.7946
| 16> C 	 55.1841 	 0.420704 	 78.7561
| 17> H 	 54.9363 	 -0.155956 	 77.8746
| 18> H 	 56.0535 	 0.0238098 	 79.1523
| 19> C 	 54.0262 	 0.259708 	 79.9229
| 20> H 	 53.745 	 -0.833487 	 80.0031
| 21> H 	 54.4537 	 0.563616 	 80.9144
| 22> H 	 53.2034 	 0.913121 	 79.8085
| 23> S 	 54.9958 	 7.33656 	 81.2617
| 24> C 	 53.7939 	 7.87393 	 82.4329
| 25> C 	 53.065 	 6.81592 	 82.895
| 26> C 	 53.3622 	 5.57274 	 82.3195
| 27> C 	 54.3734 	 5.66352 	 81.3534
| 28> H 	 52.2494 	 6.93615 	 83.5958
| 29> C 	 52.6321 	 4.2578 	 82.7318
| 30> H 	 52.3651 	 3.73654 	 81.8125
| 31> H 	 51.6903 	 4.59382 	 83.2006
| 32> C 	 53.3486 	 3.26394 	 83.734
| 33> H 	 53.5237 	 3.80442 	 84.5217
| 34> H 	 54.2647 	 2.87349 	 83.3247
| 35> C 	 52.4842 	 2.06015 	 84.1681
| 36> H 	 52.8493 	 1.11314 	 83.7626
| 37> H 	 51.4186 	 2.19517 	 83.9219
| 38> H 	 52.4829 	 2.0172 	 85.252
| 39> H 	 57.9307 	 2.46888 	 79.6811
| 40> H 	 53.7093 	 8.90063 	 82.7916
| 41> *
| 42>
| 43>                          ****END OF INPUT****

CARTESIAN COORDINATES (ANGSTROEM)
---------------------------------
  S     56.862600    4.149150   81.223800
  C     57.041000    3.108250   79.850300
  C     55.795600    2.887260   79.280700
  C     54.766600    3.795710   79.709800
  C     55.194800    4.634790   80.690600
  H     53.778900    3.890920   79.257600
  C     55.429600    1.876540   78.251000
  H     56.231000    1.812850   77.493700
  H     54.504300    2.257360   77.794600
  C     55.184100    0.420704   78.756100
  H     54.936300   -0.155956   77.874600
  H     56.053500    0.023810   79.152300
  C     54.026200    0.259708   79.922900
  H     53.745000   -0.833487   80.003100
  H     54.453700    0.563616   80.914400
  H     53.203400    0.913121   79.808500
  S     54.995800    7.336560   81.261700
  C     53.793900    7.873930   82.432900
  C     53.065000    6.815920   82.895000
  C     53.362200    5.572740   82.319500
  C     54.373400    5.663520   81.353400
  H     52.249400    6.936150   83.595800
  C     52.632100    4.257800   82.731800
  H     52.365100    3.736540   81.812500
  H     51.690300    4.593820   83.200600
  C     53.348600    3.263940   83.734000
  H     53.523700    3.804420   84.521700
  H     54.264700    2.873490   83.324700
  C     52.484200    2.060150   84.168100
  H     52.849300    1.113140   83.762600
  H     51.418600    2.195170   83.921900
  H     52.482900    2.017200   85.252000
  H     57.930700    2.468880   79.681100
  H     53.709300    8.900630   82.791600

 Total Charge           Charge          ....    0
 Multiplicity           Mult            ....    1
 Number of Electrons    NEL             ....  134
 Basis Dimension        Dim             ....  322

ORBITAL ENERGIES
----------------

  NO   OCC          E(Eh)            E(eV)
   0   2.0000     -88.965341     -2420.8700
   1   2.0000     -88.964706     -2420.8527
   2   2.0000     -10.331585      -281.1367
   3   2.0000     -10.328875      -281.0630
   4   2.0000     -10.319894      -280.8186
   5   2.0000     -10.315843      -280.7084
   6   2.0000     -10.306893      -280.4648
   7   2.0000     -10.298216      -280.2287
   8   2.0000     -10.297945      -280.2213
   9   2.0000     -10.293413      -280.0980
  10   2.0000     -10.291962      -280.0585
  11   2.0000     -10.290956      -280.0311
  12   2.0000     -10.289523      -279.9921
  13   2.0000     -10.287839      -279.9463
  14   2.0000     -10.277298      -279.6595
  15   2.0000     -10.273569      -279.5580
  16   2.0000      -8.079372      -219.8509
  17   2.0000      -8.078604      -219.8300
  18   2.0000      -6.037873      -164.2989
  19   2.0000      -6.037224      -164.2812
  20   2.0000      -6.033892      -164.1906
  21   2.0000      -6.033361      -164.1761
  22   2.0000      -6.030260      -164.0917
  23   2.0000      -6.029131      -164.0610
  24   2.0000      -1.001090       -27.2410
  25   2.0000      -0.982188       -26.7267
  26   2.0000      -0.901726       -24.5372
  27   2.0000      -0.900694       -24.5091
  28   2.0000      -0.866794       -23.5867
  29   2.0000      -0.850887       -23.1538
  30   2.0000      -0.839478       -22.8434
  31   2.0000      -0.811985       -22.0952
  32   2.0000      -0.778234       -21.1768
  33   2.0000      -0.767279       -20.8787
  34   2.0000      -0.708498       -19.2792
  35   2.0000      -0.708122       -19.2690
  36   2.0000      -0.693902       -18.8820
  37   2.0000      -0.661050       -17.9881
  38   2.0000      -0.640524       -17.4296
  39   2.0000      -0.611151       -16.6303
  40   2.0000      -0.592579       -16.1249
  41   2.0000      -0.570501       -15.5241
  42   2.0000      -0.567643       -15.4464
  43   2.0000      -0.541093       -14.7239
  44   2.0000      -0.534929       -14.5562
  45   2.0000      -0.516523       -14.0553
  46   2.0000      -0.513102       -13.9622
  47   2.0000      -0.512648       -13.9499
  48   2.0000      -0.502338       -13.6693
  49   2.0000      -0.496784       -13.5182
  50   2.0000      -0.481877       -13.1125
  51   2.0000      -0.479774       -13.0553
  52   2.0000      -0.471705       -12.8357
  53   2.0000      -0.465778       -12.6745
  54   2.0000      -0.461497       -12.5580
  55   2.0000      -0.446189       -12.1414
  56   2.0000      -0.441583       -12.0161
  57   2.0000      -0.438468       -11.9313
  58   2.0000      -0.433266       -11.7898
  59   2.0000      -0.427213       -11.6250
  60   2.0000      -0.418248       -11.3811
  61   2.0000      -0.417794       -11.3688
  62   2.0000      -0.415744       -11.3130
  63   2.0000      -0.341239        -9.2856
  64   2.0000      -0.334363        -9.0985
  65   2.0000      -0.320932        -8.7330
  66   2.0000      -0.300498        -8.1770
  67   0.0000       0.029328         0.7981
  68   0.0000       0.055301         1.5048
  69   0.0000       0.109696         2.9850
  70   0.0000       0.116101         3.1593
  71   0.0000       0.126629         3.4457

MULLIKEN ATOMIC CHARGES
-----------------------
   0 S :    0.106423
   1 C :   -0.124298
   2 C :   -0.091131
   3 C :    0.025182
   4 C :   -0.127537
   5 H :    0.026893
   6 C :    0.040102
   7 H :    0.033764
   8 H :    0.022925
   9 C :   -0.037182
  10 H :    0.033562
  11 H :    0.013411
  12 C :   -0.094638
  13 H :    0.051824
  14 H :    0.043232
  15 H :    0.027081
  16 S :    0.101391
  17 C :   -0.091365
  18 C :   -0.031203
  19 C :   -0.021986
  20 C :   -0.212067
  21 H :    0.014372
  22 C :    0.050140
  23 H :    0.027610
  24 H :    0.014909
  25 C :    0.018042
  26 H :   -0.014968
  27 H :    0.032541
  28 C :   -0.062820
  29 H :    0.041412
  30 H :    0.027294
  31 H :    0.027347
  32 H :    0.065109
  33 H :    0.064629
Sum of atomic charges:   -0.0000000

LOEWDIN ATOMIC CHARGES
----------------------
   0 S :    0.381883
   1 C :   -0.207810
   2 C :   -0.067967
   3 C :   -0.060011
   4 C :   -0.176038
   5 H :    0.037098
   6 C :   -0.035981
   7 H :    0.034755
   8 H :    0.029157
   9 C :   -0.024468
  10 H :    0.023214
  11 H :    0.011009
  12 C :   -0.072214
  13 H :    0.034720
  14 H :    0.030558
  15 H :    0.013622
  16 S :    0.394368
  17 C :   -0.176400
  18 C :   -0.078931
  19 C :   -0.050244
  20 C :   -0.194551
  21 H :    0.030757
  22 C :   -0.024017
  23 H :    0.027762
  24 H :    0.027834
  25 C :   -0.019624
  26 H :   -0.000809
  27 H :    0.025703
  28 C :   -0.064517
  29 H :    0.027259
  30 H :    0.025748
  31 H :    0.026920
  32 H :    0.037227
  33 H :    0.033989

  Mayer bond orders larger than 0.100000
B(  0-S ,  1-C ) :   1.1283 B(  0-S ,  4-C ) :   1.1274 B(  1-C ,  2-C ) :   1.6168
B(  1-C , 32-H ) :   0.9646 B(  2-C ,  3-C ) :   1.2166 B(  2-C ,  6-C ) :   1.0333
B(  3-C ,  4-C ) :   1.6085 B(  3-C ,  5-H ) :   0.9896 B(  4-C , 20-C ) :   1.0380
B(  6-C ,  7-H ) :   0.9395 B(  6-C ,  8-H ) :   0.9440 B(  6-C ,  9-C ) :   1.0707
B(  9-C , 10-H ) :   0.9622 B(  9-C , 11-H ) :   0.9596 B(  9-C , 12-C ) :   1.0517
B( 12-C , 13-H ) :   0.9780 B( 12-C , 14-H ) :   0.9767 B( 12-C , 15-H ) :   0.9828
B( 16-S , 17-C ) :   1.1619 B( 16-S , 20-C ) :   1.1442 B( 17-C , 18-C ) :   1.5885
B( 17-C , 20-C ) :   0.1027 B( 17-C , 33-H ) :   0.9662 B( 18-C , 19-C ) :   1.2798
B( 18-C , 21-H ) :   0.9854 B( 19-C , 20-C ) :   1.5772 B( 19-C , 22-C ) :   1.0233
B( 22-C , 23-H ) :   0.9408 B( 22-C , 24-H ) :   0.9343 B( 22-C , 25-C ) :   1.0667
B( 25-C , 26-H ) :   0.9547 B( 25-C , 27-H ) :   0.9591 B( 25-C , 28-C ) :   1.0739
B( 28-C , 29-H ) :   0.9798 B( 28-C , 30-H ) :   0.9763 B( 28-C , 31-H ) :   0.9785

Dispersion correction           -0.015329262
FINAL SINGLE POINT ENERGY     -1339.863432737290

DIPOLE MOMENT
-------------
                                X             Y             Z
Electronic contribution:     13.92006      25.97320      -2.48924
Nuclear contribution   :    -14.32689     -26.44233       2.61268
                        -----------------------------------------
Total Dipole Moment    :     -0.40683      -0.46913       0.12344
                        -----------------------------------------
Magnitude (a.u.)       :      0.63311
Magnitude (Debye)      :      1.60924

Rotational constants in cm-1:     0.017737     0.009872     0.007354
Rotational constants in MHz :   531.735836   295.965595   220.472748

                             ****ORCA TERMINATED NORMALLY****
TOTAL RUN TIME: 0 days 0 hours 0 minutes 29 seconds 275 msec
