                         Program Version 4.2.1 -  RELEASE  -
|  1> ! wB97X-D3 SP def2-SVP
|  2> %pal
|  3> nprocs 16
|  4> end
|  5>
|  6> * xyz 0 1
|  7> S 	 -48.3341 	 63.1021 	 142.729
|  8> C 	 -46.8996 	 62.1231 	 142.524
|  9> C 	 -45.8684 	 62.813 	 141.865
| 10> C 	 -46.2413 	 64.1442 	 141.577
| 11> C 	 -47.4782 	 64.5032 	 142.109
| 12> H 	 -45.5751 	 64.932 	 141.229
| 13> C 	 -44.5244 	 62.3086 	 141.485
| 14> H 	 -44.2382 	 62.3302 	 140.428
| 15> H 	 -44.4371 	 61.2646 	 141.77
| 16> C 	 -43.4079 	 63.0351 	 142.252
| 17> H 	 -43.6148 	 63.3479 	 143.307
| 18> H 	 -42.6712 	 62.2197 	 142.369
| 19> C 	 -42.6965 	 64.1619 	 141.426
| 20> H 	 -42.5925 	 63.9181 	 140.408
| 21> H 	 -43.3255 	 65.0464 	 141.363
| 22> H 	 -41.6984 	 64.4652 	 141.74
| 23> S 	 -49.6809 	 66.1123 	 141.953
| 24> C 	 -49.568 	 67.8461 	 142.333
| 25> C 	 -48.2533 	 68.2084 	 142.664
| 26> C 	 -47.3135 	 67.0746 	 142.614
| 27> C 	 -47.9361 	 65.862 	 142.299
| 28> H 	 -48.0554 	 69.2278 	 142.953
| 29> C 	 -45.8739 	 67.1617 	 143.182
| 30> H 	 -45.6374 	 66.1009 	 143.316
| 31> H 	 -45.8916 	 67.5722 	 144.141
| 32> C 	 -44.8226 	 67.8735 	 142.353
| 33> H 	 -45.0723 	 68.8797 	 142.167
| 34> H 	 -44.6828 	 67.2896 	 141.402
| 35> C 	 -43.4807 	 68.0543 	 143.088
| 36> H 	 -42.689 	 68.47 	 142.378
| 37> H 	 -43.1682 	 67.1078 	 143.415
| 38> H 	 -43.449 	 68.7295 	 143.962
| 39> H 	 -46.8064 	 61.0284 	 142.679
| 40> H 	 -50.3991 	 68.4675 	 142.245
| 41> *
| 42>
| 43>                          ****END OF INPUT****

CARTESIAN COORDINATES (ANGSTROEM)
---------------------------------
  S    -48.334100   63.102100  142.729000
  C    -46.899600   62.123100  142.524000
  C    -45.868400   62.813000  141.865000
  C    -46.241300   64.144200  141.577000
  C    -47.478200   64.503200  142.109000
  H    -45.575100   64.932000  141.229000
  C    -44.524400   62.308600  141.485000
  H    -44.238200   62.330200  140.428000
  H    -44.437100   61.264600  141.770000
  C    -43.407900   63.035100  142.252000
  H    -43.614800   63.347900  143.307000
  H    -42.671200   62.219700  142.369000
  C    -42.696500   64.161900  141.426000
  H    -42.592500   63.918100  140.408000
  H    -43.325500   65.046400  141.363000
  H    -41.698400   64.465200  141.740000
  S    -49.680900   66.112300  141.953000
  C    -49.568000   67.846100  142.333000
  C    -48.253300   68.208400  142.664000
  C    -47.313500   67.074600  142.614000
  C    -47.936100   65.862000  142.299000
  H    -48.055400   69.227800  142.953000
  C    -45.873900   67.161700  143.182000
  H    -45.637400   66.100900  143.316000
  H    -45.891600   67.572200  144.141000
  C    -44.822600   67.873500  142.353000
  H    -45.072300   68.879700  142.167000
  H    -44.682800   67.289600  141.402000
  C    -43.480700   68.054300  143.088000
  H    -42.689000   68.470000  142.378000
  H    -43.168200   67.107800  143.415000
  H    -43.449000   68.729500  143.962000
  H    -46.806400   61.028400  142.679000
  H    -50.399100   68.467500  142.245000

 Total Charge           Charge          ....    0
 Multiplicity           Mult            ....    1
 Number of Electrons    NEL             ....  134
 Basis Dimension        Dim             ....  322

ORBITAL ENERGIES
----------------

  NO   OCC          E(Eh)            E(eV)
   0   2.0000     -88.971909     -2421.0487
   1   2.0000     -88.962083     -2420.7813
   2   2.0000     -10.332880      -281.1720
   3   2.0000     -10.331030      -281.1216
   4   2.0000     -10.320979      -280.8481
   5   2.0000     -10.319361      -280.8041
   6   2.0000     -10.313753      -280.6515
   7   2.0000     -10.303068      -280.3607
   8   2.0000     -10.301804      -280.3263
   9   2.0000     -10.294999      -280.1412
  10   2.0000     -10.294168      -280.1186
  11   2.0000     -10.293387      -280.0973
  12   2.0000     -10.287673      -279.9418
  13   2.0000     -10.287353      -279.9331
  14   2.0000     -10.280913      -279.7579
  15   2.0000     -10.278895      -279.7029
  16   2.0000      -8.086223      -220.0373
  17   2.0000      -8.076133      -219.7627
  18   2.0000      -6.044758      -164.4862
  19   2.0000      -6.040880      -164.3807
  20   2.0000      -6.036877      -164.2718
  21   2.0000      -6.034725      -164.2132
  22   2.0000      -6.030782      -164.1059
  23   2.0000      -6.026810      -163.9978
  24   2.0000      -1.003719       -27.3126
  25   2.0000      -0.975277       -26.5386
  26   2.0000      -0.915749       -24.9188
  27   2.0000      -0.908919       -24.7330
  28   2.0000      -0.868051       -23.6209
  29   2.0000      -0.851970       -23.1833
  30   2.0000      -0.842595       -22.9282
  31   2.0000      -0.814376       -22.1603
  32   2.0000      -0.785538       -21.3756
  33   2.0000      -0.773047       -21.0357
  34   2.0000      -0.707354       -19.2481
  35   2.0000      -0.701463       -19.0878
  36   2.0000      -0.697457       -18.9788
  37   2.0000      -0.665085       -18.0979
  38   2.0000      -0.640293       -17.4233
  39   2.0000      -0.624211       -16.9856
  40   2.0000      -0.593136       -16.1401
  41   2.0000      -0.575270       -15.6539
  42   2.0000      -0.572322       -15.5737
  43   2.0000      -0.545403       -14.8412
  44   2.0000      -0.533173       -14.5084
  45   2.0000      -0.527635       -14.3577
  46   2.0000      -0.514706       -14.0059
  47   2.0000      -0.512916       -13.9571
  48   2.0000      -0.504840       -13.7374
  49   2.0000      -0.501018       -13.6334
  50   2.0000      -0.493897       -13.4396
  51   2.0000      -0.488594       -13.2953
  52   2.0000      -0.467138       -12.7115
  53   2.0000      -0.461782       -12.5657
  54   2.0000      -0.456103       -12.4112
  55   2.0000      -0.451599       -12.2886
  56   2.0000      -0.445816       -12.1313
  57   2.0000      -0.443876       -12.0785
  58   2.0000      -0.431770       -11.7490
  59   2.0000      -0.431359       -11.7379
  60   2.0000      -0.424556       -11.5528
  61   2.0000      -0.412264       -11.2183
  62   2.0000      -0.407822       -11.0974
  63   2.0000      -0.349998        -9.5239
  64   2.0000      -0.333893        -9.0857
  65   2.0000      -0.328720        -8.9449
  66   2.0000      -0.287001        -7.8097
  67   0.0000       0.020862         0.5677
  68   0.0000       0.070024         1.9054
  69   0.0000       0.102579         2.7913
  70   0.0000       0.115555         3.1444
  71   0.0000       0.122571         3.3353

MULLIKEN ATOMIC CHARGES
-----------------------
   0 S :    0.128397
   1 C :   -0.119018
   2 C :   -0.094570
   3 C :    0.037406
   4 C :   -0.139474
   5 H :   -0.002964
   6 C :    0.083412
   7 H :    0.040068
   8 H :    0.010614
   9 C :   -0.110792
  10 H :    0.049923
  11 H :    0.027326
  12 C :   -0.019532
  13 H :    0.007581
  14 H :    0.011344
  15 H :    0.036240
  16 S :    0.070254
  17 C :   -0.072292
  18 C :   -0.021973
  19 C :   -0.030008
  20 C :   -0.144905
  21 H :    0.022609
  22 C :    0.058135
  23 H :    0.025657
  24 H :    0.013304
  25 C :   -0.056943
  26 H :    0.020116
  27 H :    0.039443
  28 C :   -0.062402
  29 H :    0.042607
  30 H :    0.013852
  31 H :    0.036127
  32 H :    0.057189
  33 H :    0.043266
Sum of atomic charges:    0.0000000

LOEWDIN ATOMIC CHARGES
----------------------
   0 S :    0.412074
   1 C :   -0.208117
   2 C :   -0.063241
   3 C :   -0.059865
   4 C :   -0.195201
   5 H :    0.029626
   6 C :   -0.031752
   7 H :    0.037586
   8 H :    0.029492
   9 C :   -0.041887
  10 H :    0.031553
  11 H :    0.027018
  12 C :   -0.067213
  13 H :    0.017550
  14 H :    0.019314
  15 H :    0.028233
  16 S :    0.364619
  17 C :   -0.159473
  18 C :   -0.065438
  19 C :   -0.050384
  20 C :   -0.178198
  21 H :    0.031086
  22 C :   -0.028632
  23 H :    0.032048
  24 H :    0.023128
  25 C :   -0.038555
  26 H :    0.018130
  27 H :    0.027384
  28 C :   -0.066576
  29 H :    0.035604
  30 H :    0.011855
  31 H :    0.026686
  32 H :    0.035598
  33 H :    0.015945

  Mayer bond orders larger than 0.100000
B(  0-S ,  1-C ) :   1.1341 B(  0-S ,  4-C ) :   1.1523 B(  1-C ,  2-C ) :   1.6055
B(  1-C , 32-H ) :   0.9575 B(  2-C ,  3-C ) :   1.2449 B(  2-C ,  6-C ) :   1.0494
B(  3-C ,  4-C ) :   1.5517 B(  3-C ,  5-H ) :   0.9922 B(  4-C , 20-C ) :   1.0517
B(  6-C ,  7-H ) :   0.9386 B(  6-C ,  8-H ) :   0.9373 B(  6-C ,  9-C ) :   1.0489
B(  9-C , 10-H ) :   0.9606 B(  9-C , 11-H ) :   0.9600 B(  9-C , 12-C ) :   1.0676
B( 12-C , 13-H ) :   0.9704 B( 12-C , 14-H ) :   0.9730 B( 12-C , 15-H ) :   0.9724
B( 16-S , 17-C ) :   1.1426 B( 16-S , 20-C ) :   1.1179 B( 17-C , 18-C ) :   1.6248
B( 17-C , 33-H ) :   0.9783 B( 18-C , 19-C ) :   1.1987 B( 18-C , 21-H ) :   0.9927
B( 19-C , 20-C ) :   1.6165 B( 19-C , 22-C ) :   1.0277 B( 22-C , 23-H ) :   0.9354
B( 22-C , 24-H ) :   0.9399 B( 22-C , 25-C ) :   1.0694 B( 25-C , 26-H ) :   0.9555
B( 25-C , 27-H ) :   0.9476 B( 25-C , 28-C ) :   1.0801 B( 28-C , 29-H ) :   0.9743
B( 28-C , 30-H ) :   0.9745 B( 28-C , 31-H ) :   0.9736

Dispersion correction           -0.015548092
FINAL SINGLE POINT ENERGY     -1339.870613452001

DIPOLE MOMENT
-------------
                                X             Y             Z
Electronic contribution:    -33.55687      -6.41962       0.01671
Nuclear contribution   :     34.31503       6.59276       0.05582
                        -----------------------------------------
Total Dipole Moment    :      0.75816       0.17314       0.07253
                        -----------------------------------------
Magnitude (a.u.)       :      0.78105
Magnitude (Debye)      :      1.98527

Rotational constants in cm-1:     0.015924     0.011407     0.007009
Rotational constants in MHz :   477.395555   341.968028   210.131758

                             ****ORCA TERMINATED NORMALLY****
TOTAL RUN TIME: 0 days 0 hours 0 minutes 36 seconds 884 msec
