                         Program Version 4.2.1 -  RELEASE  -
|  1> ! wB97X-D3 SP def2-SVP
|  2> %pal
|  3> nprocs 16
|  4> end
|  5>
|  6> * xyz 0 1
|  7> S 	 -6.71778 	 76.3766 	 48.9923
|  8> C 	 -5.04014 	 76.9917 	 48.7368
|  9> C 	 -4.07978 	 75.9929 	 49.0719
| 10> C 	 -4.74472 	 74.8512 	 49.6195
| 11> C 	 -6.17428 	 74.8709 	 49.5996
| 12> H 	 -4.27286 	 74.1039 	 50.1733
| 13> C 	 -2.55894 	 76.0842 	 49.0541
| 14> H 	 -2.29541 	 76.1859 	 50.068
| 15> H 	 -2.28512 	 76.9379 	 48.4655
| 16> C 	 -1.85871 	 74.7928 	 48.5674
| 17> H 	 -2.07956 	 73.9019 	 49.1545
| 18> H 	 -2.27926 	 74.5173 	 47.5838
| 19> C 	 -0.305239 	 74.8698 	 48.47
| 20> H 	 0.134715 	 75.1801 	 49.3758
| 21> H 	 0.172215 	 73.9511 	 48.275
| 22> H 	 0.0171156 	 75.6999 	 47.7851
| 23> S 	 -7.86756 	 74.2481 	 51.6945
| 24> C 	 -8.53918 	 72.6179 	 51.8135
| 25> C 	 -8.23565 	 71.9002 	 50.6987
| 26> C 	 -7.21048 	 72.5133 	 49.9529
| 27> C 	 -7.03648 	 73.8315 	 50.2059
| 28> H 	 -8.4762 	 70.8647 	 50.5571
| 29> C 	 -6.65544 	 71.7518 	 48.7364
| 30> H 	 -6.68161 	 70.7185 	 49.0395
| 31> H 	 -5.63591 	 72.1177 	 48.6131
| 32> C 	 -7.32788 	 71.9407 	 47.4097
| 33> H 	 -6.7906 	 71.4098 	 46.624
| 34> H 	 -7.39667 	 73.0011 	 47.1523
| 35> C 	 -8.82653 	 71.4667 	 47.3257
| 36> H 	 -8.90319 	 70.3757 	 47.2586
| 37> H 	 -9.3521 	 71.858 	 46.4201
| 38> H 	 -9.32781 	 71.7408 	 48.2424
| 39> H 	 -4.84845 	 78.0036 	 48.4843
| 40> H 	 -9.21742 	 72.2048 	 52.5793
| 41> *
| 42>
| 43>                          ****END OF INPUT****

CARTESIAN COORDINATES (ANGSTROEM)
---------------------------------
  S     -6.717780   76.376600   48.992300
  C     -5.040140   76.991700   48.736800
  C     -4.079780   75.992900   49.071900
  C     -4.744720   74.851200   49.619500
  C     -6.174280   74.870900   49.599600
  H     -4.272860   74.103900   50.173300
  C     -2.558940   76.084200   49.054100
  H     -2.295410   76.185900   50.068000
  H     -2.285120   76.937900   48.465500
  C     -1.858710   74.792800   48.567400
  H     -2.079560   73.901900   49.154500
  H     -2.279260   74.517300   47.583800
  C     -0.305239   74.869800   48.470000
  H      0.134715   75.180100   49.375800
  H      0.172215   73.951100   48.275000
  H      0.017116   75.699900   47.785100
  S     -7.867560   74.248100   51.694500
  C     -8.539180   72.617900   51.813500
  C     -8.235650   71.900200   50.698700
  C     -7.210480   72.513300   49.952900
  C     -7.036480   73.831500   50.205900
  H     -8.476200   70.864700   50.557100
  C     -6.655440   71.751800   48.736400
  H     -6.681610   70.718500   49.039500
  H     -5.635910   72.117700   48.613100
  C     -7.327880   71.940700   47.409700
  H     -6.790600   71.409800   46.624000
  H     -7.396670   73.001100   47.152300
  C     -8.826530   71.466700   47.325700
  H     -8.903190   70.375700   47.258600
  H     -9.352100   71.858000   46.420100
  H     -9.327810   71.740800   48.242400
  H     -4.848450   78.003600   48.484300
  H     -9.217420   72.204800   52.579300

 Total Charge           Charge          ....    0
 Multiplicity           Mult            ....    1
 Number of Electrons    NEL             ....  134
 Basis Dimension        Dim             ....  322

ORBITAL ENERGIES
----------------

  NO   OCC          E(Eh)            E(eV)
   0   2.0000     -88.970953     -2421.0227
   1   2.0000     -88.964997     -2420.8606
   2   2.0000     -10.334042      -281.2036
   3   2.0000     -10.325846      -280.9805
   4   2.0000     -10.321860      -280.8721
   5   2.0000     -10.320698      -280.8405
   6   2.0000     -10.310849      -280.5725
   7   2.0000     -10.296177      -280.1732
   8   2.0000     -10.294934      -280.1394
   9   2.0000     -10.292793      -280.0811
  10   2.0000     -10.292420      -280.0710
  11   2.0000     -10.288296      -279.9588
  12   2.0000     -10.285699      -279.8881
  13   2.0000     -10.281966      -279.7865
  14   2.0000     -10.277794      -279.6730
  15   2.0000     -10.274451      -279.5820
  16   2.0000      -8.084986      -220.0037
  17   2.0000      -8.079585      -219.8567
  18   2.0000      -6.043448      -164.4506
  19   2.0000      -6.039398      -164.3404
  20   2.0000      -6.038194      -164.3076
  21   2.0000      -6.036036      -164.2489
  22   2.0000      -6.034104      -164.1963
  23   2.0000      -6.030234      -164.0910
  24   2.0000      -1.007571       -27.4174
  25   2.0000      -0.982020       -26.7221
  26   2.0000      -0.912590       -24.8328
  27   2.0000      -0.905818       -24.6486
  28   2.0000      -0.867798       -23.6140
  29   2.0000      -0.847253       -23.0549
  30   2.0000      -0.842464       -22.9246
  31   2.0000      -0.811165       -22.0729
  32   2.0000      -0.786845       -21.4111
  33   2.0000      -0.775282       -21.0965
  34   2.0000      -0.712549       -19.3894
  35   2.0000      -0.701598       -19.0915
  36   2.0000      -0.686025       -18.6677
  37   2.0000      -0.665602       -18.1119
  38   2.0000      -0.644654       -17.5419
  39   2.0000      -0.618557       -16.8318
  40   2.0000      -0.589353       -16.0371
  41   2.0000      -0.570435       -15.5223
  42   2.0000      -0.566819       -15.4239
  43   2.0000      -0.549440       -14.9510
  44   2.0000      -0.545195       -14.8355
  45   2.0000      -0.529634       -14.4121
  46   2.0000      -0.517891       -14.0925
  47   2.0000      -0.507289       -13.8040
  48   2.0000      -0.505549       -13.7567
  49   2.0000      -0.497843       -13.5470
  50   2.0000      -0.487236       -13.2584
  51   2.0000      -0.479765       -13.0551
  52   2.0000      -0.471324       -12.8254
  53   2.0000      -0.468691       -12.7537
  54   2.0000      -0.456972       -12.4348
  55   2.0000      -0.453313       -12.3353
  56   2.0000      -0.445826       -12.1315
  57   2.0000      -0.440062       -11.9747
  58   2.0000      -0.433726       -11.8023
  59   2.0000      -0.424976       -11.5642
  60   2.0000      -0.419558       -11.4168
  61   2.0000      -0.413431       -11.2500
  62   2.0000      -0.406044       -11.0490
  63   2.0000      -0.340057        -9.2534
  64   2.0000      -0.332369        -9.0442
  65   2.0000      -0.328442        -8.9373
  66   2.0000      -0.298591        -8.1251
  67   0.0000       0.032397         0.8816
  68   0.0000       0.060521         1.6469
  69   0.0000       0.116661         3.1745
  70   0.0000       0.118621         3.2278
  71   0.0000       0.121006         3.2927

MULLIKEN ATOMIC CHARGES
-----------------------
   0 S :    0.115106
   1 C :   -0.135387
   2 C :   -0.083198
   3 C :    0.037174
   4 C :   -0.164837
   5 H :   -0.000642
   6 C :    0.133034
   7 H :    0.032742
   8 H :    0.020916
   9 C :   -0.123481
  10 H :    0.030847
  11 H :    0.033402
  12 C :   -0.013269
  13 H :    0.006410
  14 H :    0.030046
  15 H :    0.031204
  16 S :    0.106244
  17 C :   -0.093024
  18 C :   -0.016317
  19 C :   -0.093336
  20 C :   -0.141518
  21 H :    0.018481
  22 C :    0.093566
  23 H :    0.013886
  24 H :    0.023814
  25 C :   -0.046710
  26 H :    0.032501
  27 H :    0.034589
  28 C :   -0.091657
  29 H :    0.020649
  30 H :    0.044048
  31 H :    0.036614
  32 H :    0.041749
  33 H :    0.066353
Sum of atomic charges:    0.0000000

LOEWDIN ATOMIC CHARGES
----------------------
   0 S :    0.413251
   1 C :   -0.186999
   2 C :   -0.049969
   3 C :   -0.060183
   4 C :   -0.212120
   5 H :    0.018557
   6 C :   -0.020503
   7 H :    0.032118
   8 H :    0.029689
   9 C :   -0.041352
  10 H :    0.023091
  11 H :    0.026104
  12 C :   -0.062933
  13 H :    0.017137
  14 H :    0.022743
  15 H :    0.030804
  16 S :    0.398346
  17 C :   -0.175605
  18 C :   -0.076624
  19 C :   -0.058631
  20 C :   -0.199049
  21 H :    0.029540
  22 C :   -0.028747
  23 H :    0.025205
  24 H :    0.033504
  25 C :   -0.036709
  26 H :    0.025201
  27 H :    0.027864
  28 C :   -0.073594
  29 H :    0.018899
  30 H :    0.031520
  31 H :    0.021634
  32 H :    0.019426
  33 H :    0.038386

  Mayer bond orders larger than 0.100000
B(  0-S ,  1-C ) :   1.1461 B(  0-S ,  4-C ) :   1.1753 B(  1-C ,  2-C ) :   1.5656
B(  1-C ,  4-C ) :   0.1073 B(  1-C , 32-H ) :   0.9775 B(  2-C ,  3-C ) :   1.2674
B(  2-C ,  6-C ) :   1.0253 B(  3-C ,  4-C ) :   1.5429 B(  3-C ,  5-H ) :   0.9936
B(  4-C , 20-C ) :   1.0093 B(  6-C ,  7-H ) :   0.9300 B(  6-C ,  8-H ) :   0.9423
B(  6-C ,  9-C ) :   1.0593 B(  9-C , 10-H ) :   0.9520 B(  9-C , 11-H ) :   0.9607
B(  9-C , 12-C ) :   1.0855 B( 12-C , 13-H ) :   0.9710 B( 12-C , 14-H ) :   0.9749
B( 12-C , 15-H ) :   0.9743 B( 16-S , 17-C ) :   1.1544 B( 16-S , 20-C ) :   1.1283
B( 17-C , 18-C ) :   1.6210 B( 17-C , 33-H ) :   0.9615 B( 18-C , 19-C ) :   1.2416
B( 18-C , 21-H ) :   0.9765 B( 19-C , 20-C ) :   1.6336 B( 19-C , 22-C ) :   1.0485
B( 22-C , 23-H ) :   0.9319 B( 22-C , 24-H ) :   0.9222 B( 22-C , 25-C ) :   1.0860
B( 25-C , 26-H ) :   0.9547 B( 25-C , 27-H ) :   0.9555 B( 25-C , 28-C ) :   1.0687
B( 28-C , 29-H ) :   0.9766 B( 28-C , 30-H ) :   0.9765 B( 28-C , 31-H ) :   0.9752

Dispersion correction           -0.014369332
FINAL SINGLE POINT ENERGY     -1339.869940277190

DIPOLE MOMENT
-------------
                                X             Y             Z
Electronic contribution:    -16.83830      12.20028      13.83559
Nuclear contribution   :     17.36828     -12.53239     -13.85156
                        -----------------------------------------
Total Dipole Moment    :      0.52998      -0.33211      -0.01597
                        -----------------------------------------
Magnitude (a.u.)       :      0.62565
Magnitude (Debye)      :      1.59027

Rotational constants in cm-1:     0.018959     0.007916     0.007024
Rotational constants in MHz :   568.378567   237.317231   210.586857

                             ****ORCA TERMINATED NORMALLY****
TOTAL RUN TIME: 0 days 0 hours 0 minutes 33 seconds 816 msec
