                         Program Version 4.2.1 -  RELEASE  -
|  1> ! wB97X-D3 SP def2-SVP
|  2> %pal
|  3> nprocs 16
|  4> end
|  5>
|  6> * xyz 0 1
|  7> S 	 3.11252 	 -3.28738 	 79.3341
|  8> C 	 3.58001 	 -2.25231 	 80.7194
|  9> C 	 3.30513 	 -2.76554 	 81.9503
| 10> C 	 2.69096 	 -3.98978 	 81.6977
| 11> C 	 2.36344 	 -4.31943 	 80.4043
| 12> H 	 2.40564 	 -4.74862 	 82.4094
| 13> C 	 3.85779 	 -2.33639 	 83.3001
| 14> H 	 4.91834 	 -2.61524 	 83.3746
| 15> H 	 3.34325 	 -2.98309 	 84.0683
| 16> C 	 3.68699 	 -0.833042 	 83.6108
| 17> H 	 4.05174 	 -0.735576 	 84.6412
| 18> H 	 4.3438 	 -0.163009 	 82.9471
| 19> C 	 2.19529 	 -0.240931 	 83.5321
| 20> H 	 1.60523 	 -0.753876 	 84.2596
| 21> H 	 2.15539 	 0.780987 	 83.749
| 22> H 	 1.80444 	 -0.401903 	 82.5488
| 23> S 	 0.503643 	 -5.40666 	 78.8721
| 24> C 	 0.429259 	 -7.17421 	 78.6137
| 25> C 	 1.40736 	 -7.80433 	 79.3543
| 26> C 	 2.17667 	 -6.91764 	 80.1997
| 27> C 	 1.79194 	 -5.57712 	 79.9773
| 28> H 	 1.5815 	 -8.90195 	 79.3328
| 29> C 	 3.43316 	 -7.39983 	 80.9866
| 30> H 	 2.95203 	 -8.15209 	 81.5914
| 31> H 	 3.80143 	 -6.51084 	 81.6501
| 32> C 	 4.545 	 -7.99933 	 80.0436
| 33> H 	 4.80472 	 -7.25574 	 79.2572
| 34> H 	 4.2102 	 -8.89389 	 79.4749
| 35> C 	 5.78304 	 -8.41648 	 80.798
| 36> H 	 6.33942 	 -7.60463 	 81.2891
| 37> H 	 6.40364 	 -8.8151 	 80.0005
| 38> H 	 5.59543 	 -9.28535 	 81.4298
| 39> H 	 4.21542 	 -1.45633 	 80.6644
| 40> H 	 -0.102625 	 -7.73731 	 77.877
| 41> *
| 42>
| 43>                          ****END OF INPUT****

CARTESIAN COORDINATES (ANGSTROEM)
---------------------------------
  S      3.112520   -3.287380   79.334100
  C      3.580010   -2.252310   80.719400
  C      3.305130   -2.765540   81.950300
  C      2.690960   -3.989780   81.697700
  C      2.363440   -4.319430   80.404300
  H      2.405640   -4.748620   82.409400
  C      3.857790   -2.336390   83.300100
  H      4.918340   -2.615240   83.374600
  H      3.343250   -2.983090   84.068300
  C      3.686990   -0.833042   83.610800
  H      4.051740   -0.735576   84.641200
  H      4.343800   -0.163009   82.947100
  C      2.195290   -0.240931   83.532100
  H      1.605230   -0.753876   84.259600
  H      2.155390    0.780987   83.749000
  H      1.804440   -0.401903   82.548800
  S      0.503643   -5.406660   78.872100
  C      0.429259   -7.174210   78.613700
  C      1.407360   -7.804330   79.354300
  C      2.176670   -6.917640   80.199700
  C      1.791940   -5.577120   79.977300
  H      1.581500   -8.901950   79.332800
  C      3.433160   -7.399830   80.986600
  H      2.952030   -8.152090   81.591400
  H      3.801430   -6.510840   81.650100
  C      4.545000   -7.999330   80.043600
  H      4.804720   -7.255740   79.257200
  H      4.210200   -8.893890   79.474900
  C      5.783040   -8.416480   80.798000
  H      6.339420   -7.604630   81.289100
  H      6.403640   -8.815100   80.000500
  H      5.595430   -9.285350   81.429800
  H      4.215420   -1.456330   80.664400
  H     -0.102625   -7.737310   77.877000

 Total Charge           Charge          ....    0
 Multiplicity           Mult            ....    1
 Number of Electrons    NEL             ....  134
 Basis Dimension        Dim             ....  322

ORBITAL ENERGIES
----------------

  NO   OCC          E(Eh)            E(eV)
   0   2.0000     -88.968233     -2420.9487
   1   2.0000     -88.964941     -2420.8591
   2   2.0000     -10.322051      -280.8773
   3   2.0000     -10.315480      -280.6985
   4   2.0000     -10.315104      -280.6882
   5   2.0000     -10.305146      -280.4173
   6   2.0000     -10.304684      -280.4047
   7   2.0000     -10.304464      -280.3987
   8   2.0000     -10.302200      -280.3371
   9   2.0000     -10.300722      -280.2969
  10   2.0000     -10.297297      -280.2037
  11   2.0000     -10.296453      -280.1807
  12   2.0000     -10.293372      -280.0969
  13   2.0000     -10.282754      -279.8080
  14   2.0000     -10.276902      -279.6487
  15   2.0000     -10.271911      -279.5129
  16   2.0000      -8.083848      -219.9727
  17   2.0000      -8.079744      -219.8610
  18   2.0000      -6.042112      -164.4142
  19   2.0000      -6.038405      -164.3133
  20   2.0000      -6.038280      -164.3100
  21   2.0000      -6.034613      -164.2102
  22   2.0000      -6.034164      -164.1979
  23   2.0000      -6.030542      -164.0994
  24   2.0000      -1.016456       -27.6592
  25   2.0000      -0.984363       -26.7859
  26   2.0000      -0.911906       -24.8142
  27   2.0000      -0.901442       -24.5295
  28   2.0000      -0.868103       -23.6223
  29   2.0000      -0.849489       -23.1158
  30   2.0000      -0.846349       -23.0303
  31   2.0000      -0.811071       -22.0704
  32   2.0000      -0.791043       -21.5254
  33   2.0000      -0.767945       -20.8968
  34   2.0000      -0.707586       -19.2544
  35   2.0000      -0.700746       -19.0683
  36   2.0000      -0.690689       -18.7946
  37   2.0000      -0.658607       -17.9216
  38   2.0000      -0.641159       -17.4468
  39   2.0000      -0.609963       -16.5979
  40   2.0000      -0.585147       -15.9227
  41   2.0000      -0.574454       -15.6317
  42   2.0000      -0.562693       -15.3116
  43   2.0000      -0.551601       -15.0098
  44   2.0000      -0.540240       -14.7007
  45   2.0000      -0.523419       -14.2430
  46   2.0000      -0.518648       -14.1131
  47   2.0000      -0.505439       -13.7537
  48   2.0000      -0.501047       -13.6342
  49   2.0000      -0.494179       -13.4473
  50   2.0000      -0.489558       -13.3216
  51   2.0000      -0.481806       -13.1106
  52   2.0000      -0.469087       -12.7645
  53   2.0000      -0.464270       -12.6334
  54   2.0000      -0.459388       -12.5006
  55   2.0000      -0.446494       -12.1497
  56   2.0000      -0.445890       -12.1333
  57   2.0000      -0.439602       -11.9622
  58   2.0000      -0.430172       -11.7056
  59   2.0000      -0.426454       -11.6044
  60   2.0000      -0.422671       -11.5015
  61   2.0000      -0.419116       -11.4047
  62   2.0000      -0.413216       -11.2442
  63   2.0000      -0.343515        -9.3475
  64   2.0000      -0.337840        -9.1931
  65   2.0000      -0.323344        -8.7986
  66   2.0000      -0.290696        -7.9103
  67   0.0000       0.035992         0.9794
  68   0.0000       0.069056         1.8791
  69   0.0000       0.105864         2.8807
  70   0.0000       0.116174         3.1613
  71   0.0000       0.130266         3.5447

MULLIKEN ATOMIC CHARGES
-----------------------
   0 S :    0.132080
   1 C :   -0.089988
   2 C :   -0.052738
   3 C :   -0.019602
   4 C :   -0.128652
   5 H :   -0.000034
   6 C :    0.065187
   7 H :    0.053289
   8 H :    0.032740
   9 C :   -0.127927
  10 H :    0.033917
  11 H :    0.043116
  12 C :   -0.017496
  13 H :    0.024884
  14 H :    0.026621
  15 H :    0.040630
  16 S :    0.108538
  17 C :   -0.071937
  18 C :   -0.069555
  19 C :   -0.033031
  20 C :   -0.199045
  21 H :    0.033005
  22 C :    0.056804
  23 H :    0.029990
  24 H :    0.046883
  25 C :   -0.108735
  26 H :    0.043449
  27 H :    0.030672
  28 C :   -0.029762
  29 H :    0.044521
  30 H :    0.025405
  31 H :    0.031037
  32 H :   -0.002325
  33 H :    0.048058
Sum of atomic charges:   -0.0000000

LOEWDIN ATOMIC CHARGES
----------------------
   0 S :    0.436222
   1 C :   -0.168574
   2 C :   -0.064529
   3 C :   -0.067642
   4 C :   -0.234844
   5 H :    0.023086
   6 C :   -0.030253
   7 H :    0.040667
   8 H :    0.036869
   9 C :   -0.044046
  10 H :    0.024751
  11 H :    0.028067
  12 C :   -0.054011
  13 H :    0.022033
  14 H :    0.019716
  15 H :    0.024737
  16 S :    0.413488
  17 C :   -0.185116
  18 C :   -0.070394
  19 C :   -0.062622
  20 C :   -0.214861
  21 H :    0.036013
  22 C :   -0.036992
  23 H :    0.028818
  24 H :    0.042654
  25 C :   -0.044465
  26 H :    0.030497
  27 H :    0.027372
  28 C :   -0.068765
  29 H :    0.027646
  30 H :    0.028931
  31 H :    0.025572
  32 H :    0.002399
  33 H :    0.027577

  Mayer bond orders larger than 0.100000
B(  0-S ,  1-C ) :   1.1517 B(  0-S ,  4-C ) :   1.1660 B(  1-C ,  2-C ) :   1.5931
B(  1-C , 32-H ) :   0.9734 B(  2-C ,  3-C ) :   1.2503 B(  2-C ,  6-C ) :   1.0074
B(  3-C ,  4-C ) :   1.5740 B(  3-C ,  5-H ) :   0.9995 B(  4-C , 20-C ) :   1.0117
B(  6-C ,  7-H ) :   0.9383 B(  6-C ,  8-H ) :   0.9419 B(  6-C ,  9-C ) :   1.0684
B(  9-C , 10-H ) :   0.9584 B(  9-C , 11-H ) :   0.9571 B(  9-C , 12-C ) :   1.0678
B( 12-C , 13-H ) :   0.9779 B( 12-C , 14-H ) :   0.9770 B( 12-C , 15-H ) :   0.9747
B( 16-S , 17-C ) :   1.1282 B( 16-S , 20-C ) :   1.1623 B( 17-C , 18-C ) :   1.6336
B( 17-C , 33-H ) :   0.9693 B( 18-C , 19-C ) :   1.2401 B( 18-C , 21-H ) :   0.9762
B( 19-C , 20-C ) :   1.5822 B( 19-C , 22-C ) :   1.0256 B( 22-C , 23-H ) :   0.9291
B( 22-C , 24-H ) :   0.9404 B( 22-C , 25-C ) :   1.0573 B( 25-C , 26-H ) :   0.9581
B( 25-C , 27-H ) :   0.9512 B( 25-C , 28-C ) :   1.0955 B( 28-C , 29-H ) :   0.9738
B( 28-C , 30-H ) :   0.9705 B( 28-C , 31-H ) :   0.9719

Dispersion correction           -0.014160105
FINAL SINGLE POINT ENERGY     -1339.859096485781

DIPOLE MOMENT
-------------
                                X             Y             Z
Electronic contribution:    -14.30741       0.86461     -17.86470
Nuclear contribution   :     14.89153      -1.16628      18.26220
                        -----------------------------------------
Total Dipole Moment    :      0.58412      -0.30167       0.39750
                        -----------------------------------------
Magnitude (a.u.)       :      0.76825
Magnitude (Debye)      :      1.95274

Rotational constants in cm-1:     0.019733     0.008118     0.006585
Rotational constants in MHz :   591.582922   243.370691   197.419543

                             ****ORCA TERMINATED NORMALLY****
TOTAL RUN TIME: 0 days 0 hours 0 minutes 35 seconds 114 msec
