                         Program Version 4.2.1 -  RELEASE  -
|  1> ! wB97X-D3 SP def2-SVP
|  2> %pal
|  3> nprocs 16
|  4> end
|  5>
|  6> * xyz 0 1
|  7> S 	 9.64822 	 -9.92484 	 70.1234
|  8> C 	 10.7454 	 -8.79641 	 69.3336
|  9> C 	 10.2866 	 -7.53284 	 69.1377
| 10> C 	 8.84405 	 -7.53532 	 69.4203
| 11> C 	 8.39679 	 -8.75209 	 69.9622
| 12> H 	 8.30236 	 -6.60837 	 69.3599
| 13> C 	 11.1265 	 -6.34608 	 68.5213
| 14> H 	 11.8904 	 -6.80298 	 67.9737
| 15> H 	 11.617 	 -5.82571 	 69.3607
| 16> C 	 10.279 	 -5.39039 	 67.6594
| 17> H 	 9.46205 	 -4.90769 	 68.233
| 18> H 	 10.8469 	 -4.51102 	 67.2353
| 19> C 	 9.73249 	 -6.15424 	 66.4994
| 20> H 	 8.91758 	 -6.80867 	 66.9062
| 21> H 	 9.29511 	 -5.49998 	 65.7145
| 22> H 	 10.5543 	 -6.73777 	 65.9777
| 23> S 	 6.424 	 -9.96561 	 68.6027
| 24> C 	 4.80948 	 -10.3225 	 69.2409
| 25> C 	 4.72154 	 -9.8997 	 70.5539
| 26> C 	 5.93761 	 -9.15439 	 70.9689
| 27> C 	 6.97004 	 -9.02656 	 70.0087
| 28> H 	 3.88606 	 -10.2213 	 71.0969
| 29> C 	 6.02401 	 -8.61367 	 72.3822
| 30> H 	 5.1753 	 -8.14271 	 72.7681
| 31> H 	 6.79024 	 -7.81213 	 72.3131
| 32> C 	 6.57366 	 -9.55359 	 73.3879
| 33> H 	 7.5126 	 -9.91912 	 72.9239
| 34> H 	 5.92138 	 -10.383 	 73.5915
| 35> C 	 7.0594 	 -8.89238 	 74.7213
| 36> H 	 6.29823 	 -8.88188 	 75.5695
| 37> H 	 7.30688 	 -7.85702 	 74.6371
| 38> H 	 7.99899 	 -9.4018 	 74.9959
| 39> H 	 11.7709 	 -8.93147 	 69.3289
| 40> H 	 4.06667 	 -10.9464 	 68.8145
| 41> *
| 42>
| 43>                          ****END OF INPUT****

CARTESIAN COORDINATES (ANGSTROEM)
---------------------------------
  S      9.648220   -9.924840   70.123400
  C     10.745400   -8.796410   69.333600
  C     10.286600   -7.532840   69.137700
  C      8.844050   -7.535320   69.420300
  C      8.396790   -8.752090   69.962200
  H      8.302360   -6.608370   69.359900
  C     11.126500   -6.346080   68.521300
  H     11.890400   -6.802980   67.973700
  H     11.617000   -5.825710   69.360700
  C     10.279000   -5.390390   67.659400
  H      9.462050   -4.907690   68.233000
  H     10.846900   -4.511020   67.235300
  C      9.732490   -6.154240   66.499400
  H      8.917580   -6.808670   66.906200
  H      9.295110   -5.499980   65.714500
  H     10.554300   -6.737770   65.977700
  S      6.424000   -9.965610   68.602700
  C      4.809480  -10.322500   69.240900
  C      4.721540   -9.899700   70.553900
  C      5.937610   -9.154390   70.968900
  C      6.970040   -9.026560   70.008700
  H      3.886060  -10.221300   71.096900
  C      6.024010   -8.613670   72.382200
  H      5.175300   -8.142710   72.768100
  H      6.790240   -7.812130   72.313100
  C      6.573660   -9.553590   73.387900
  H      7.512600   -9.919120   72.923900
  H      5.921380  -10.383000   73.591500
  C      7.059400   -8.892380   74.721300
  H      6.298230   -8.881880   75.569500
  H      7.306880   -7.857020   74.637100
  H      7.998990   -9.401800   74.995900
  H     11.770900   -8.931470   69.328900
  H      4.066670  -10.946400   68.814500

 Total Charge           Charge          ....    0
 Multiplicity           Mult            ....    1
 Number of Electrons    NEL             ....  134
 Basis Dimension        Dim             ....  322

ORBITAL ENERGIES
----------------

  NO   OCC          E(Eh)            E(eV)
   0   2.0000     -88.973772     -2421.0994
   1   2.0000     -88.957261     -2420.6501
   2   2.0000     -10.333822      -281.1976
   3   2.0000     -10.330597      -281.1098
   4   2.0000     -10.316592      -280.7287
   5   2.0000     -10.313401      -280.6419
   6   2.0000     -10.308269      -280.5023
   7   2.0000     -10.306549      -280.4554
   8   2.0000     -10.301522      -280.3187
   9   2.0000     -10.301013      -280.3048
  10   2.0000     -10.294031      -280.1148
  11   2.0000     -10.293961      -280.1129
  12   2.0000     -10.280397      -279.7438
  13   2.0000     -10.280116      -279.7362
  14   2.0000     -10.279294      -279.7138
  15   2.0000     -10.278550      -279.6936
  16   2.0000      -8.088509      -220.0995
  17   2.0000      -8.071503      -219.6368
  18   2.0000      -6.047058      -164.5488
  19   2.0000      -6.043150      -164.4425
  20   2.0000      -6.039084      -164.3318
  21   2.0000      -6.030192      -164.0899
  22   2.0000      -6.025926      -163.9738
  23   2.0000      -6.022206      -163.8726
  24   2.0000      -1.005051       -27.3488
  25   2.0000      -0.976300       -26.5665
  26   2.0000      -0.916300       -24.9338
  27   2.0000      -0.909024       -24.7358
  28   2.0000      -0.873484       -23.7687
  29   2.0000      -0.846710       -23.0401
  30   2.0000      -0.835444       -22.7336
  31   2.0000      -0.816271       -22.2119
  32   2.0000      -0.783084       -21.3088
  33   2.0000      -0.768133       -20.9020
  34   2.0000      -0.710434       -19.3319
  35   2.0000      -0.691577       -18.8188
  36   2.0000      -0.689172       -18.7533
  37   2.0000      -0.660318       -17.9682
  38   2.0000      -0.640882       -17.4393
  39   2.0000      -0.624886       -17.0040
  40   2.0000      -0.590975       -16.0813
  41   2.0000      -0.574842       -15.6422
  42   2.0000      -0.566819       -15.4239
  43   2.0000      -0.557419       -15.1681
  44   2.0000      -0.544809       -14.8250
  45   2.0000      -0.519726       -14.1425
  46   2.0000      -0.517656       -14.0861
  47   2.0000      -0.512314       -13.9408
  48   2.0000      -0.503610       -13.7039
  49   2.0000      -0.494196       -13.4478
  50   2.0000      -0.486796       -13.2464
  51   2.0000      -0.476023       -12.9532
  52   2.0000      -0.471188       -12.8217
  53   2.0000      -0.460333       -12.5263
  54   2.0000      -0.454162       -12.3584
  55   2.0000      -0.450112       -12.2482
  56   2.0000      -0.440912       -11.9978
  57   2.0000      -0.435982       -11.8637
  58   2.0000      -0.430252       -11.7078
  59   2.0000      -0.426187       -11.5971
  60   2.0000      -0.414460       -11.2780
  61   2.0000      -0.410406       -11.1677
  62   2.0000      -0.406179       -11.0527
  63   2.0000      -0.338833        -9.2201
  64   2.0000      -0.324557        -8.8317
  65   2.0000      -0.320444        -8.7197
  66   2.0000      -0.311068        -8.4646
  67   0.0000       0.040574         1.1041
  68   0.0000       0.045454         1.2369
  69   0.0000       0.102638         2.7929
  70   0.0000       0.121140         3.2964
  71   0.0000       0.125571         3.4169

MULLIKEN ATOMIC CHARGES
-----------------------
   0 S :    0.141477
   1 C :   -0.098022
   2 C :   -0.132189
   3 C :    0.019287
   4 C :   -0.140910
   5 H :    0.018700
   6 C :    0.126522
   7 H :    0.011595
   8 H :    0.045857
   9 C :   -0.108630
  10 H :    0.037060
  11 H :    0.039031
  12 C :   -0.084487
  13 H :    0.054399
  14 H :    0.037812
  15 H :    0.040476
  16 S :    0.080322
  17 C :   -0.073322
  18 C :   -0.010381
  19 C :   -0.067111
  20 C :   -0.135126
  21 H :    0.006287
  22 C :    0.079681
  23 H :    0.011157
  24 H :    0.015657
  25 C :   -0.068901
  26 H :    0.020022
  27 H :    0.026984
  28 C :   -0.060826
  29 H :    0.040195
  30 H :    0.017266
  31 H :    0.040605
  32 H :    0.021148
  33 H :    0.048362
Sum of atomic charges:   -0.0000000

LOEWDIN ATOMIC CHARGES
----------------------
   0 S :    0.420735
   1 C :   -0.183781
   2 C :   -0.054057
   3 C :   -0.047924
   4 C :   -0.220802
   5 H :    0.029053
   6 C :   -0.017980
   7 H :    0.022202
   8 H :    0.036902
   9 C :   -0.054614
  10 H :    0.025370
  11 H :    0.031678
  12 C :   -0.075169
  13 H :    0.033272
  14 H :    0.026548
  15 H :    0.031569
  16 S :    0.385980
  17 C :   -0.168930
  18 C :   -0.069543
  19 C :   -0.042538
  20 C :   -0.195869
  21 H :    0.024632
  22 C :   -0.038882
  23 H :    0.018184
  24 H :    0.033292
  25 C :   -0.039220
  26 H :    0.025513
  27 H :    0.019175
  28 C :   -0.071438
  29 H :    0.030056
  30 H :    0.018219
  31 H :    0.032112
  32 H :    0.010783
  33 H :    0.025473

  Mayer bond orders larger than 0.100000
B(  0-S ,  1-C ) :   1.1360 B(  0-S ,  4-C ) :   1.1499 B(  1-C ,  2-C ) :   1.6696
B(  1-C , 32-H ) :   0.9570 B(  2-C ,  3-C ) :   1.2306 B(  2-C ,  6-C ) :   0.9852
B(  3-C ,  4-C ) :   1.5669 B(  3-C ,  5-H ) :   0.9881 B(  4-C , 20-C ) :   1.0234
B(  6-C ,  7-H ) :   0.9477 B(  6-C ,  8-H ) :   0.9344 B(  6-C ,  9-C ) :   1.0727
B(  9-C , 10-H ) :   0.9503 B(  9-C , 11-H ) :   0.9546 B(  9-C , 12-C ) :   1.0767
B( 12-C , 13-H ) :   0.9681 B( 12-C , 14-H ) :   0.9725 B( 12-C , 15-H ) :   0.9735
B( 16-S , 17-C ) :   1.1565 B( 16-S , 20-C ) :   1.1180 B( 17-C , 18-C ) :   1.6254
B( 17-C , 33-H ) :   0.9680 B( 18-C , 19-C ) :   1.2125 B( 18-C , 21-H ) :   1.0013
B( 19-C , 20-C ) :   1.6074 B( 19-C , 22-C ) :   1.0514 B( 22-C , 23-H ) :   0.9409
B( 22-C , 24-H ) :   0.9311 B( 22-C , 25-C ) :   1.0722 B( 25-C , 26-H ) :   0.9572
B( 25-C , 27-H ) :   0.9570 B( 25-C , 28-C ) :   1.0678 B( 28-C , 29-H ) :   0.9761
B( 28-C , 30-H ) :   0.9749 B( 28-C , 31-H ) :   0.9807

Dispersion correction           -0.014375711
FINAL SINGLE POINT ENERGY     -1339.847014871430

DIPOLE MOMENT
-------------
                                X             Y             Z
Electronic contribution:     -3.23166     -14.63640      -7.05594
Nuclear contribution   :      3.38543      15.00813       7.24981
                        -----------------------------------------
Total Dipole Moment    :      0.15377       0.37172       0.19386
                        -----------------------------------------
Magnitude (a.u.)       :      0.44655
Magnitude (Debye)      :      1.13504

Rotational constants in cm-1:     0.019183     0.008508     0.007215
Rotational constants in MHz :   575.088507   255.056990   216.295012

                             ****ORCA TERMINATED NORMALLY****
TOTAL RUN TIME: 0 days 0 hours 0 minutes 34 seconds 967 msec
