                         Program Version 4.2.1 -  RELEASE  -
|  1> ! wB97X-D3 SP def2-SVP
|  2> %pal
|  3> nprocs 16
|  4> end
|  5>
|  6> * xyz 0 1
|  7> S 	 5.42275 	 -6.31067 	 92.6046
|  8> C 	 5.79711 	 -5.59789 	 94.113
|  9> C 	 4.70406 	 -4.99437 	 94.6895
| 10> C 	 3.611 	 -5.02564 	 93.7619
| 11> C 	 3.79607 	 -5.69133 	 92.562
| 12> H 	 2.56795 	 -4.60649 	 93.8281
| 13> C 	 4.60465 	 -4.28125 	 96.0611
| 14> H 	 4.57633 	 -3.21508 	 95.9662
| 15> H 	 5.46419 	 -4.61069 	 96.7353
| 16> C 	 3.30111 	 -4.75348 	 96.8417
| 17> H 	 3.47255 	 -4.28622 	 97.8689
| 18> H 	 2.42108 	 -4.30897 	 96.4075
| 19> C 	 3.11766 	 -6.27137 	 96.995
| 20> H 	 2.57691 	 -6.78695 	 96.1813
| 21> H 	 4.1005 	 -6.72986 	 96.9503
| 22> H 	 2.61854 	 -6.4711 	 97.9173
| 23> S 	 3.08229 	 -4.62926 	 90.2218
| 24> C 	 1.69692 	 -5.00533 	 89.3808
| 25> C 	 0.963445 	 -5.85105 	 90.2196
| 26> C 	 1.63659 	 -6.34971 	 91.3867
| 27> C 	 2.85982 	 -5.78498 	 91.4446
| 28> H 	 -0.0817731 	 -6.04536 	 89.9991
| 29> C 	 1.00845 	 -7.30596 	 92.4516
| 30> H 	 -0.0495955 	 -7.50268 	 92.2613
| 31> H 	 0.945848 	 -6.79035 	 93.4617
| 32> C 	 1.70569 	 -8.65495 	 92.5944
| 33> H 	 2.70016 	 -8.45565 	 92.915
| 34> H 	 1.79665 	 -9.13732 	 91.6581
| 35> C 	 1.013 	 -9.49111 	 93.6438
| 36> H 	 1.60093 	 -10.3453 	 93.9789
| 37> H 	 0.14111 	 -10.0364 	 93.2849
| 38> H 	 0.499505 	 -9.02828 	 94.5234
| 39> H 	 6.76792 	 -5.73536 	 94.6058
| 40> H 	 1.17576 	 -4.5119 	 88.5564
| 41> *
| 42>
| 43>                          ****END OF INPUT****

CARTESIAN COORDINATES (ANGSTROEM)
---------------------------------
  S      5.422750   -6.310670   92.604600
  C      5.797110   -5.597890   94.113000
  C      4.704060   -4.994370   94.689500
  C      3.611000   -5.025640   93.761900
  C      3.796070   -5.691330   92.562000
  H      2.567950   -4.606490   93.828100
  C      4.604650   -4.281250   96.061100
  H      4.576330   -3.215080   95.966200
  H      5.464190   -4.610690   96.735300
  C      3.301110   -4.753480   96.841700
  H      3.472550   -4.286220   97.868900
  H      2.421080   -4.308970   96.407500
  C      3.117660   -6.271370   96.995000
  H      2.576910   -6.786950   96.181300
  H      4.100500   -6.729860   96.950300
  H      2.618540   -6.471100   97.917300
  S      3.082290   -4.629260   90.221800
  C      1.696920   -5.005330   89.380800
  C      0.963445   -5.851050   90.219600
  C      1.636590   -6.349710   91.386700
  C      2.859820   -5.784980   91.444600
  H     -0.081773   -6.045360   89.999100
  C      1.008450   -7.305960   92.451600
  H     -0.049596   -7.502680   92.261300
  H      0.945848   -6.790350   93.461700
  C      1.705690   -8.654950   92.594400
  H      2.700160   -8.455650   92.915000
  H      1.796650   -9.137320   91.658100
  C      1.013000   -9.491110   93.643800
  H      1.600930  -10.345300   93.978900
  H      0.141110  -10.036400   93.284900
  H      0.499505   -9.028280   94.523400
  H      6.767920   -5.735360   94.605800
  H      1.175760   -4.511900   88.556400

 Total Charge           Charge          ....    0
 Multiplicity           Mult            ....    1
 Number of Electrons    NEL             ....  134
 Basis Dimension        Dim             ....  322

ORBITAL ENERGIES
----------------

  NO   OCC          E(Eh)            E(eV)
   0   2.0000     -88.964027     -2420.8342
   1   2.0000     -88.963196     -2420.8116
   2   2.0000     -10.325536      -280.9721
   3   2.0000     -10.319374      -280.8044
   4   2.0000     -10.314180      -280.6631
   5   2.0000     -10.312809      -280.6258
   6   2.0000     -10.304458      -280.3985
   7   2.0000     -10.303569      -280.3744
   8   2.0000     -10.303341      -280.3682
   9   2.0000     -10.299251      -280.2569
  10   2.0000     -10.296685      -280.1870
  11   2.0000     -10.292875      -280.0834
  12   2.0000     -10.292216      -280.0654
  13   2.0000     -10.278056      -279.6801
  14   2.0000     -10.276416      -279.6355
  15   2.0000     -10.274290      -279.5776
  16   2.0000      -8.081214      -219.9010
  17   2.0000      -8.078691      -219.8323
  18   2.0000      -6.039530      -164.3440
  19   2.0000      -6.037032      -164.2760
  20   2.0000      -6.035208      -164.2264
  21   2.0000      -6.032948      -164.1649
  22   2.0000      -6.032134      -164.1427
  23   2.0000      -6.029715      -164.0769
  24   2.0000      -1.021538       -27.7975
  25   2.0000      -0.994919       -27.0731
  26   2.0000      -0.911337       -24.7987
  27   2.0000      -0.903549       -24.5868
  28   2.0000      -0.873512       -23.7695
  29   2.0000      -0.852345       -23.1935
  30   2.0000      -0.840460       -22.8701
  31   2.0000      -0.812421       -22.1071
  32   2.0000      -0.782404       -21.2903
  33   2.0000      -0.777102       -21.1460
  34   2.0000      -0.709070       -19.2948
  35   2.0000      -0.698207       -18.9992
  36   2.0000      -0.688289       -18.7293
  37   2.0000      -0.662797       -18.0356
  38   2.0000      -0.643214       -17.5027
  39   2.0000      -0.616346       -16.7716
  40   2.0000      -0.597136       -16.2489
  41   2.0000      -0.568612       -15.4727
  42   2.0000      -0.560969       -15.2647
  43   2.0000      -0.556875       -15.1533
  44   2.0000      -0.533422       -14.5152
  45   2.0000      -0.522808       -14.2263
  46   2.0000      -0.520208       -14.1556
  47   2.0000      -0.512619       -13.9491
  48   2.0000      -0.506273       -13.7764
  49   2.0000      -0.496437       -13.5087
  50   2.0000      -0.492019       -13.3885
  51   2.0000      -0.481382       -13.0991
  52   2.0000      -0.475265       -12.9326
  53   2.0000      -0.463122       -12.6022
  54   2.0000      -0.455063       -12.3829
  55   2.0000      -0.452062       -12.3012
  56   2.0000      -0.443263       -12.0618
  57   2.0000      -0.433707       -11.8018
  58   2.0000      -0.430950       -11.7267
  59   2.0000      -0.422983       -11.5100
  60   2.0000      -0.419635       -11.4189
  61   2.0000      -0.409871       -11.1532
  62   2.0000      -0.409247       -11.1362
  63   2.0000      -0.335770        -9.1368
  64   2.0000      -0.332637        -9.0515
  65   2.0000      -0.324393        -8.8272
  66   2.0000      -0.312071        -8.4919
  67   0.0000       0.045045         1.2257
  68   0.0000       0.062607         1.7036
  69   0.0000       0.115877         3.1532
  70   0.0000       0.123692         3.3658
  71   0.0000       0.133969         3.6455

MULLIKEN ATOMIC CHARGES
-----------------------
   0 S :    0.116742
   1 C :   -0.133458
   2 C :   -0.073932
   3 C :    0.027513
   4 C :   -0.210132
   5 H :    0.027711
   6 C :    0.066370
   7 H :    0.047537
   8 H :    0.033814
   9 C :   -0.136470
  10 H :    0.042172
  11 H :    0.035380
  12 C :   -0.028343
  13 H :    0.039358
  14 H :    0.022490
  15 H :    0.036105
  16 S :    0.138257
  17 C :   -0.072317
  18 C :   -0.093986
  19 C :    0.002353
  20 C :   -0.172566
  21 H :    0.013833
  22 C :    0.045612
  23 H :    0.012291
  24 H :    0.034325
  25 C :   -0.006702
  26 H :    0.025601
  27 H :    0.026956
  28 C :   -0.067887
  29 H :    0.031433
  30 H :    0.013845
  31 H :    0.031600
  32 H :    0.057181
  33 H :    0.067316
Sum of atomic charges:    0.0000000

LOEWDIN ATOMIC CHARGES
----------------------
   0 S :    0.424199
   1 C :   -0.206338
   2 C :   -0.075460
   3 C :   -0.065710
   4 C :   -0.215778
   5 H :    0.037864
   6 C :   -0.026316
   7 H :    0.030497
   8 H :    0.034899
   9 C :   -0.044791
  10 H :    0.031831
  11 H :    0.016858
  12 C :   -0.068806
  13 H :    0.030135
  14 H :    0.026112
  15 H :    0.024984
  16 S :    0.478102
  17 C :   -0.226759
  18 C :   -0.076390
  19 C :   -0.057423
  20 C :   -0.222738
  21 H :    0.024415
  22 C :   -0.027986
  23 H :    0.025799
  24 H :    0.035639
  25 C :   -0.033114
  26 H :    0.021050
  27 H :    0.025209
  28 C :   -0.079765
  29 H :    0.028434
  30 H :    0.024393
  31 H :    0.031344
  32 H :    0.033729
  33 H :    0.041881

  Mayer bond orders larger than 0.100000
B(  0-S ,  1-C ) :   1.1720 B(  0-S ,  4-C ) :   1.1458 B(  1-C ,  2-C ) :   1.5941
B(  1-C , 32-H ) :   0.9654 B(  2-C ,  3-C ) :   1.2317 B(  2-C ,  6-C ) :   1.0154
B(  3-C ,  4-C ) :   1.6026 B(  3-C ,  5-H ) :   0.9825 B(  4-C , 20-C ) :   0.9970
B(  6-C ,  7-H ) :   0.9458 B(  6-C ,  8-H ) :   0.9460 B(  6-C ,  9-C ) :   1.0697
B(  9-C , 10-H ) :   0.9635 B(  9-C , 11-H ) :   0.9558 B(  9-C , 12-C ) :   1.0679
B( 12-C , 13-H ) :   0.9710 B( 12-C , 14-H ) :   0.9747 B( 12-C , 15-H ) :   0.9758
B( 16-S , 17-C ) :   1.1832 B( 16-S , 20-C ) :   1.1968 B( 17-C , 18-C ) :   1.5641
B( 17-C , 33-H ) :   0.9671 B( 18-C , 19-C ) :   1.2847 B( 18-C , 21-H ) :   0.9858
B( 19-C , 20-C ) :   1.5680 B( 19-C , 22-C ) :   1.0276 B( 22-C , 23-H ) :   0.9402
B( 22-C , 24-H ) :   0.9341 B( 22-C , 25-C ) :   1.0671 B( 25-C , 26-H ) :   0.9541
B( 25-C , 27-H ) :   0.9511 B( 25-C , 28-C ) :   1.0793 B( 28-C , 29-H ) :   0.9723
B( 28-C , 30-H ) :   0.9687 B( 28-C , 31-H ) :   0.9734

Dispersion correction           -0.015378892
FINAL SINGLE POINT ENERGY     -1339.870954721317

DIPOLE MOMENT
-------------
                                X             Y             Z
Electronic contribution:     12.52601      10.73382     -23.19133
Nuclear contribution   :    -13.02495     -10.69039      23.68986
                        -----------------------------------------
Total Dipole Moment    :     -0.49895       0.04343       0.49853
                        -----------------------------------------
Magnitude (a.u.)       :      0.70666
Magnitude (Debye)      :      1.79618

Rotational constants in cm-1:     0.017015     0.010160     0.007957
Rotational constants in MHz :   510.109198   304.600495   238.540590

                             ****ORCA TERMINATED NORMALLY****
TOTAL RUN TIME: 0 days 0 hours 0 minutes 33 seconds 480 msec
