                         Program Version 4.2.1 -  RELEASE  -
|  1> ! wB97X-D3 SP def2-SVP
|  2> %pal
|  3> nprocs 16
|  4> end
|  5>
|  6> * xyz 0 1
|  7> S 	 0.984612 	 -27.3427 	 84.8048
|  8> C 	 1.951 	 -28.6184 	 84.0865
|  9> C 	 3.23692 	 -28.1197 	 83.9539
| 10> C 	 3.42346 	 -26.7394 	 84.469
| 11> C 	 2.22741 	 -26.0803 	 84.7464
| 12> H 	 4.35674 	 -26.2295 	 84.5399
| 13> C 	 4.52104 	 -28.8689 	 83.5223
| 14> H 	 4.28054 	 -29.7841 	 83.0395
| 15> H 	 5.0735 	 -29.2171 	 84.4228
| 16> C 	 5.52618 	 -28.1152 	 82.5993
| 17> H 	 5.0883 	 -27.588 	 81.7304
| 18> H 	 6.09011 	 -27.3719 	 83.1127
| 19> C 	 6.59115 	 -29.1789 	 82.1549
| 20> H 	 6.22611 	 -29.996 	 81.5424
| 21> H 	 7.40012 	 -28.683 	 81.6201
| 22> H 	 7.16 	 -29.594 	 82.989
| 23> S 	 3.28343 	 -23.9448 	 86.0407
| 24> C 	 2.40479 	 -22.439 	 86.0344
| 25> C 	 1.2165 	 -22.5026 	 85.4
| 26> C 	 0.914277 	 -23.8108 	 84.9259
| 27> C 	 1.98539 	 -24.6939 	 85.1379
| 28> H 	 0.624127 	 -21.6454 	 85.1391
| 29> C 	 -0.325239 	 -24.0314 	 84.0872
| 30> H 	 -0.999701 	 -23.2407 	 84.2447
| 31> H 	 -0.957316 	 -24.852 	 84.3964
| 32> C 	 -0.0200606 	 -24.2504 	 82.5704
| 33> H 	 -1.03135 	 -24.3826 	 82.1401
| 34> H 	 0.467594 	 -25.2023 	 82.4879
| 35> C 	 0.777372 	 -23.1519 	 81.9062
| 36> H 	 1.69939 	 -22.9317 	 82.3155
| 37> H 	 0.146317 	 -22.2734 	 81.9144
| 38> H 	 1.011 	 -23.2886 	 80.8603
| 39> H 	 1.59808 	 -29.5861 	 83.7274
| 40> H 	 2.92057 	 -21.5324 	 86.2427
| 41> *
| 42>
| 43>                          ****END OF INPUT****

CARTESIAN COORDINATES (ANGSTROEM)
---------------------------------
  S      0.984612  -27.342700   84.804800
  C      1.951000  -28.618400   84.086500
  C      3.236920  -28.119700   83.953900
  C      3.423460  -26.739400   84.469000
  C      2.227410  -26.080300   84.746400
  H      4.356740  -26.229500   84.539900
  C      4.521040  -28.868900   83.522300
  H      4.280540  -29.784100   83.039500
  H      5.073500  -29.217100   84.422800
  C      5.526180  -28.115200   82.599300
  H      5.088300  -27.588000   81.730400
  H      6.090110  -27.371900   83.112700
  C      6.591150  -29.178900   82.154900
  H      6.226110  -29.996000   81.542400
  H      7.400120  -28.683000   81.620100
  H      7.160000  -29.594000   82.989000
  S      3.283430  -23.944800   86.040700
  C      2.404790  -22.439000   86.034400
  C      1.216500  -22.502600   85.400000
  C      0.914277  -23.810800   84.925900
  C      1.985390  -24.693900   85.137900
  H      0.624127  -21.645400   85.139100
  C     -0.325239  -24.031400   84.087200
  H     -0.999701  -23.240700   84.244700
  H     -0.957316  -24.852000   84.396400
  C     -0.020061  -24.250400   82.570400
  H     -1.031350  -24.382600   82.140100
  H      0.467594  -25.202300   82.487900
  C      0.777372  -23.151900   81.906200
  H      1.699390  -22.931700   82.315500
  H      0.146317  -22.273400   81.914400
  H      1.011000  -23.288600   80.860300
  H      1.598080  -29.586100   83.727400
  H      2.920570  -21.532400   86.242700

 Total Charge           Charge          ....    0
 Multiplicity           Mult            ....    1
 Number of Electrons    NEL             ....  134
 Basis Dimension        Dim             ....  322

ORBITAL ENERGIES
----------------

  NO   OCC          E(Eh)            E(eV)
   0   2.0000     -88.968046     -2420.9436
   1   2.0000     -88.960911     -2420.7495
   2   2.0000     -10.335733      -281.2496
   3   2.0000     -10.331340      -281.1301
   4   2.0000     -10.318212      -280.7728
   5   2.0000     -10.313010      -280.6313
   6   2.0000     -10.308428      -280.5066
   7   2.0000     -10.306231      -280.4468
   8   2.0000     -10.296398      -280.1792
   9   2.0000     -10.294021      -280.1146
  10   2.0000     -10.291948      -280.0582
  11   2.0000     -10.290559      -280.0203
  12   2.0000     -10.285424      -279.8806
  13   2.0000     -10.281753      -279.7807
  14   2.0000     -10.278461      -279.6911
  15   2.0000     -10.263440      -279.2824
  16   2.0000      -8.083030      -219.9504
  17   2.0000      -8.074968      -219.7311
  18   2.0000      -6.041511      -164.3979
  19   2.0000      -6.037589      -164.2912
  20   2.0000      -6.033807      -164.1882
  21   2.0000      -6.033737      -164.1863
  22   2.0000      -6.029430      -164.0691
  23   2.0000      -6.025544      -163.9634
  24   2.0000      -1.006554       -27.3897
  25   2.0000      -0.981132       -26.6980
  26   2.0000      -0.908329       -24.7169
  27   2.0000      -0.903156       -24.5761
  28   2.0000      -0.873724       -23.7752
  29   2.0000      -0.849854       -23.1257
  30   2.0000      -0.835893       -22.7458
  31   2.0000      -0.815295       -22.1853
  32   2.0000      -0.787265       -21.4226
  33   2.0000      -0.769008       -20.9258
  34   2.0000      -0.714478       -19.4419
  35   2.0000      -0.702246       -19.1091
  36   2.0000      -0.688595       -18.7376
  37   2.0000      -0.670687       -18.2503
  38   2.0000      -0.636702       -17.3255
  39   2.0000      -0.615826       -16.7575
  40   2.0000      -0.602833       -16.4039
  41   2.0000      -0.566991       -15.4286
  42   2.0000      -0.561535       -15.2801
  43   2.0000      -0.555034       -15.1032
  44   2.0000      -0.539978       -14.6936
  45   2.0000      -0.520371       -14.1600
  46   2.0000      -0.514778       -14.0078
  47   2.0000      -0.510442       -13.8898
  48   2.0000      -0.503451       -13.6996
  49   2.0000      -0.494555       -13.4575
  50   2.0000      -0.490621       -13.3505
  51   2.0000      -0.479854       -13.0575
  52   2.0000      -0.474351       -12.9077
  53   2.0000      -0.467006       -12.7079
  54   2.0000      -0.456367       -12.4184
  55   2.0000      -0.450688       -12.2638
  56   2.0000      -0.441028       -12.0010
  57   2.0000      -0.439387       -11.9563
  58   2.0000      -0.436597       -11.8804
  59   2.0000      -0.425951       -11.5907
  60   2.0000      -0.418409       -11.3855
  61   2.0000      -0.416213       -11.3257
  62   2.0000      -0.403663       -10.9842
  63   2.0000      -0.355823        -9.6824
  64   2.0000      -0.334473        -9.1015
  65   2.0000      -0.319823        -8.7028
  66   2.0000      -0.290091        -7.8938
  67   0.0000       0.018066         0.4916
  68   0.0000       0.085775         2.3341
  69   0.0000       0.102267         2.7828
  70   0.0000       0.120711         3.2847
  71   0.0000       0.127611         3.4725

MULLIKEN ATOMIC CHARGES
-----------------------
   0 S :    0.084561
   1 C :   -0.115757
   2 C :   -0.074400
   3 C :    0.003477
   4 C :   -0.111432
   5 H :    0.008916
   6 C :    0.049796
   7 H :    0.003672
   8 H :    0.044641
   9 C :   -0.070865
  10 H :    0.044576
  11 H :    0.025115
  12 C :   -0.072410
  13 H :    0.039843
  14 H :    0.024736
  15 H :    0.025702
  16 S :    0.099715
  17 C :   -0.066377
  18 C :   -0.024851
  19 C :   -0.051486
  20 C :   -0.149629
  21 H :    0.018962
  22 C :    0.079553
  23 H :   -0.003270
  24 H :    0.025757
  25 C :   -0.061482
  26 H :    0.029228
  27 H :    0.032420
  28 C :   -0.007971
  29 H :    0.024789
  30 H :    0.012774
  31 H :    0.023769
  32 H :    0.057336
  33 H :    0.050591
Sum of atomic charges:   -0.0000000

LOEWDIN ATOMIC CHARGES
----------------------
   0 S :    0.390280
   1 C :   -0.202538
   2 C :   -0.059798
   3 C :   -0.070556
   4 C :   -0.181056
   5 H :    0.019873
   6 C :   -0.034395
   7 H :    0.020756
   8 H :    0.040432
   9 C :   -0.036425
  10 H :    0.029807
  11 H :    0.018108
  12 C :   -0.068958
  13 H :    0.022752
  14 H :    0.025058
  15 H :    0.025522
  16 S :    0.413780
  17 C :   -0.178014
  18 C :   -0.064321
  19 C :   -0.049084
  20 C :   -0.196408
  21 H :    0.033347
  22 C :   -0.032567
  23 H :    0.020430
  24 H :    0.031671
  25 C :   -0.030302
  26 H :    0.028091
  27 H :    0.018441
  28 C :   -0.062106
  29 H :    0.016980
  30 H :    0.023544
  31 H :    0.028084
  32 H :    0.036650
  33 H :    0.022924

  Mayer bond orders larger than 0.100000
B(  0-S ,  1-C ) :   1.1155 B(  0-S ,  4-C ) :   1.1337 B(  1-C ,  2-C ) :   1.6256
B(  1-C , 32-H ) :   0.9715 B(  2-C ,  3-C ) :   1.2153 B(  2-C ,  6-C ) :   1.0239
B(  3-C ,  4-C ) :   1.5724 B(  3-C ,  5-H ) :   0.9911 B(  4-C , 20-C ) :   1.0702
B(  6-C ,  7-H ) :   0.9513 B(  6-C ,  8-H ) :   0.9389 B(  6-C ,  9-C ) :   1.0551
B(  9-C , 10-H ) :   0.9623 B(  9-C , 11-H ) :   0.9511 B(  9-C , 12-C ) :   1.0820
B( 12-C , 13-H ) :   0.9787 B( 12-C , 14-H ) :   0.9735 B( 12-C , 15-H ) :   0.9732
B( 16-S , 17-C ) :   1.1496 B( 16-S , 20-C ) :   1.1474 B( 17-C , 18-C ) :   1.6166
B( 17-C , 33-H ) :   0.9653 B( 18-C , 19-C ) :   1.2494 B( 18-C , 21-H ) :   0.9896
B( 19-C , 20-C ) :   1.5564 B( 19-C , 22-C ) :   1.0550 B( 22-C , 23-H ) :   0.9296
B( 22-C , 24-H ) :   0.9259 B( 22-C , 25-C ) :   1.0684 B( 25-C , 26-H ) :   0.9556
B( 25-C , 27-H ) :   0.9556 B( 25-C , 28-C ) :   1.0756 B( 28-C , 29-H ) :   0.9730
B( 28-C , 30-H ) :   0.9739 B( 28-C , 31-H ) :   0.9709

Dispersion correction           -0.014782369
FINAL SINGLE POINT ENERGY     -1339.875974837048

DIPOLE MOMENT
-------------
                                X             Y             Z
Electronic contribution:     -7.18511       3.90925      18.96264
Nuclear contribution   :      7.41497      -3.77628     -19.40770
                        -----------------------------------------
Total Dipole Moment    :      0.22985       0.13297      -0.44506
                        -----------------------------------------
Magnitude (a.u.)       :      0.51826
Magnitude (Debye)      :      1.31730

Rotational constants in cm-1:     0.020143     0.007963     0.007305
Rotational constants in MHz :   603.884680   238.724814   219.007525

                             ****ORCA TERMINATED NORMALLY****
TOTAL RUN TIME: 0 days 0 hours 0 minutes 32 seconds 85 msec
