                         Program Version 4.2.1 -  RELEASE  -
|  1> ! wB97X-D3 SP def2-SVP
|  2> %pal
|  3> nprocs 16
|  4> end
|  5>
|  6> * xyz 0 1
|  7> S 	 -47.7829 	 61.9828 	 140.113
|  8> C 	 -47.0008 	 60.4225 	 139.987
|  9> C 	 -47.8305 	 59.3706 	 140.361
| 10> C 	 -49.1206 	 59.9013 	 140.545
| 11> C 	 -49.3308 	 61.2205 	 140.372
| 12> H 	 -49.9208 	 59.2793 	 140.882
| 13> C 	 -47.4142 	 57.9634 	 140.483
| 14> H 	 -47.7799 	 57.6715 	 141.523
| 15> H 	 -46.3204 	 57.8634 	 140.357
| 16> C 	 -47.9665 	 57.0925 	 139.425
| 17> H 	 -49.0044 	 57.1603 	 139.46
| 18> H 	 -47.7008 	 57.5175 	 138.463
| 19> C 	 -47.5299 	 55.6457 	 139.478
| 20> H 	 -46.4894 	 55.6895 	 139.223
| 21> H 	 -47.6498 	 55.14 	 140.47
| 22> H 	 -48.0232 	 55.0315 	 138.753
| 23> S 	 -50.6313 	 63.3686 	 141.36
| 24> C 	 -52.3403 	 63.564 	 141.157
| 25> C 	 -52.8281 	 62.6936 	 140.195
| 26> C 	 -51.7879 	 61.7239 	 139.791
| 27> C 	 -50.5701 	 61.9453 	 140.375
| 28> H 	 -53.899 	 62.7732 	 139.91
| 29> C 	 -52.0857 	 60.5079 	 138.991
| 30> H 	 -51.1815 	 60.1919 	 138.502
| 31> H 	 -52.6239 	 60.7592 	 138.142
| 32> C 	 -52.8638 	 59.4376 	 139.812
| 33> H 	 -53.8959 	 59.828 	 139.844
| 34> H 	 -52.637 	 59.404 	 140.914
| 35> C 	 -52.7497 	 58.0647 	 139.114
| 36> H 	 -51.6749 	 57.7212 	 139.229
| 37> H 	 -52.9078 	 58.2774 	 138.018
| 38> H 	 -53.5216 	 57.3303 	 139.453
| 39> H 	 -45.9002 	 60.3793 	 139.849
| 40> H 	 -52.9439 	 64.3812 	 141.502
| 41> *
| 42>
| 43>                          ****END OF INPUT****

CARTESIAN COORDINATES (ANGSTROEM)
---------------------------------
  S    -47.782900   61.982800  140.113000
  C    -47.000800   60.422500  139.987000
  C    -47.830500   59.370600  140.361000
  C    -49.120600   59.901300  140.545000
  C    -49.330800   61.220500  140.372000
  H    -49.920800   59.279300  140.882000
  C    -47.414200   57.963400  140.483000
  H    -47.779900   57.671500  141.523000
  H    -46.320400   57.863400  140.357000
  C    -47.966500   57.092500  139.425000
  H    -49.004400   57.160300  139.460000
  H    -47.700800   57.517500  138.463000
  C    -47.529900   55.645700  139.478000
  H    -46.489400   55.689500  139.223000
  H    -47.649800   55.140000  140.470000
  H    -48.023200   55.031500  138.753000
  S    -50.631300   63.368600  141.360000
  C    -52.340300   63.564000  141.157000
  C    -52.828100   62.693600  140.195000
  C    -51.787900   61.723900  139.791000
  C    -50.570100   61.945300  140.375000
  H    -53.899000   62.773200  139.910000
  C    -52.085700   60.507900  138.991000
  H    -51.181500   60.191900  138.502000
  H    -52.623900   60.759200  138.142000
  C    -52.863800   59.437600  139.812000
  H    -53.895900   59.828000  139.844000
  H    -52.637000   59.404000  140.914000
  C    -52.749700   58.064700  139.114000
  H    -51.674900   57.721200  139.229000
  H    -52.907800   58.277400  138.018000
  H    -53.521600   57.330300  139.453000
  H    -45.900200   60.379300  139.849000
  H    -52.943900   64.381200  141.502000

 Total Charge           Charge          ....    0
 Multiplicity           Mult            ....    1
 Number of Electrons    NEL             ....  134
 Basis Dimension        Dim             ....  322

ORBITAL ENERGIES
----------------

  NO   OCC          E(Eh)            E(eV)
   0   2.0000     -88.962831     -2420.8017
   1   2.0000     -88.960766     -2420.7455
   2   2.0000     -10.323790      -280.9246
   3   2.0000     -10.321227      -280.8549
   4   2.0000     -10.316149      -280.7167
   5   2.0000     -10.315981      -280.7121
   6   2.0000     -10.303627      -280.3760
   7   2.0000     -10.300967      -280.3036
   8   2.0000     -10.298296      -280.2309
   9   2.0000     -10.295754      -280.1617
  10   2.0000     -10.293370      -280.0968
  11   2.0000     -10.292341      -280.0688
  12   2.0000     -10.286396      -279.9071
  13   2.0000     -10.280766      -279.7539
  14   2.0000     -10.277497      -279.6649
  15   2.0000     -10.276507      -279.6380
  16   2.0000      -8.078083      -219.8158
  17   2.0000      -8.076524      -219.7734
  18   2.0000      -6.036548      -164.2628
  19   2.0000      -6.035099      -164.2234
  20   2.0000      -6.032642      -164.1565
  21   2.0000      -6.030843      -164.1076
  22   2.0000      -6.028736      -164.0502
  23   2.0000      -6.027191      -164.0082
  24   2.0000      -1.013326       -27.5740
  25   2.0000      -0.988667       -26.9030
  26   2.0000      -0.927880       -25.2489
  27   2.0000      -0.909969       -24.7615
  28   2.0000      -0.875120       -23.8132
  29   2.0000      -0.853114       -23.2144
  30   2.0000      -0.843720       -22.9588
  31   2.0000      -0.819833       -22.3088
  32   2.0000      -0.783791       -21.3280
  33   2.0000      -0.769649       -20.9432
  34   2.0000      -0.709220       -19.2989
  35   2.0000      -0.700617       -19.0648
  36   2.0000      -0.695153       -18.9161
  37   2.0000      -0.662435       -18.0258
  38   2.0000      -0.643984       -17.5237
  39   2.0000      -0.630246       -17.1499
  40   2.0000      -0.594785       -16.1849
  41   2.0000      -0.576707       -15.6930
  42   2.0000      -0.570480       -15.5236
  43   2.0000      -0.556125       -15.1329
  44   2.0000      -0.529457       -14.4073
  45   2.0000      -0.529319       -14.4035
  46   2.0000      -0.522872       -14.2281
  47   2.0000      -0.511916       -13.9299
  48   2.0000      -0.507710       -13.8155
  49   2.0000      -0.502599       -13.6764
  50   2.0000      -0.493493       -13.4286
  51   2.0000      -0.483785       -13.1645
  52   2.0000      -0.467462       -12.7203
  53   2.0000      -0.463394       -12.6096
  54   2.0000      -0.459642       -12.5075
  55   2.0000      -0.448947       -12.2165
  56   2.0000      -0.443886       -12.0788
  57   2.0000      -0.440734       -11.9930
  58   2.0000      -0.435866       -11.8605
  59   2.0000      -0.426466       -11.6047
  60   2.0000      -0.420664       -11.4469
  61   2.0000      -0.417313       -11.3557
  62   2.0000      -0.409411       -11.1406
  63   2.0000      -0.350997        -9.5511
  64   2.0000      -0.331658        -9.0249
  65   2.0000      -0.324761        -8.8372
  66   2.0000      -0.293241        -7.9795
  67   0.0000       0.034048         0.9265
  68   0.0000       0.070449         1.9170
  69   0.0000       0.111260         3.0275
  70   0.0000       0.121475         3.3055
  71   0.0000       0.128644         3.5006

MULLIKEN ATOMIC CHARGES
-----------------------
   0 S :    0.106235
   1 C :   -0.149813
   2 C :   -0.069763
   3 C :    0.006387
   4 C :   -0.115391
   5 H :   -0.010384
   6 C :    0.074159
   7 H :    0.042709
   8 H :    0.016005
   9 C :   -0.066396
  10 H :    0.004824
  11 H :    0.020819
  12 C :   -0.017690
  13 H :    0.021574
  14 H :    0.035470
  15 H :    0.031030
  16 S :    0.097372
  17 C :   -0.082312
  18 C :   -0.059971
  19 C :   -0.066697
  20 C :   -0.131165
  21 H :    0.038775
  22 C :    0.096478
  23 H :    0.017758
  24 H :   -0.000565
  25 C :   -0.095418
  26 H :    0.025741
  27 H :    0.046322
  28 C :   -0.074133
  29 H :    0.053403
  30 H :    0.037274
  31 H :    0.052330
  32 H :    0.060085
  33 H :    0.054947
Sum of atomic charges:    0.0000000

LOEWDIN ATOMIC CHARGES
----------------------
   0 S :    0.401204
   1 C :   -0.194554
   2 C :   -0.065510
   3 C :   -0.061642
   4 C :   -0.195405
   5 H :    0.025352
   6 C :   -0.031632
   7 H :    0.042463
   8 H :    0.032727
   9 C :   -0.042091
  10 H :    0.009925
  11 H :    0.027366
  12 C :   -0.060145
  13 H :    0.022656
  14 H :    0.030319
  15 H :    0.024947
  16 S :    0.410894
  17 C :   -0.187736
  18 C :   -0.076479
  19 C :   -0.049972
  20 C :   -0.202519
  21 H :    0.039395
  22 C :   -0.034387
  23 H :    0.028306
  24 H :    0.022706
  25 C :   -0.045015
  26 H :    0.024197
  27 H :    0.026767
  28 C :   -0.074333
  29 H :    0.031503
  30 H :    0.030453
  31 H :    0.030761
  32 H :    0.030542
  33 H :    0.028940

  Mayer bond orders larger than 0.100000
B(  0-S ,  1-C ) :   1.1530 B(  0-S ,  4-C ) :   1.1363 B(  1-C ,  2-C ) :   1.5877
B(  1-C ,  4-C ) :   0.1012 B(  1-C , 32-H ) :   0.9619 B(  2-C ,  3-C ) :   1.2453
B(  2-C ,  6-C ) :   1.0371 B(  3-C ,  4-C ) :   1.5805 B(  3-C ,  5-H ) :   1.0059
B(  4-C , 20-C ) :   1.0326 B(  6-C ,  7-H ) :   0.9247 B(  6-C ,  8-H ) :   0.9349
B(  6-C ,  9-C ) :   1.0757 B(  9-C , 10-H ) :   0.9507 B(  9-C , 11-H ) :   0.9460
B(  9-C , 12-C ) :   1.0904 B( 12-C , 13-H ) :   0.9729 B( 12-C , 14-H ) :   0.9725
B( 12-C , 15-H ) :   0.9719 B( 16-S , 17-C ) :   1.1576 B( 16-S , 20-C ) :   1.1246
B( 17-C , 18-C ) :   1.6348 B( 17-C , 33-H ) :   0.9660 B( 18-C , 19-C ) :   1.1921
B( 18-C , 21-H ) :   0.9866 B( 19-C , 20-C ) :   1.6310 B( 19-C , 22-C ) :   1.0734
B( 22-C , 23-H ) :   0.9339 B( 22-C , 24-H ) :   0.9116 B( 22-C , 25-C ) :   1.0301
B( 25-C , 26-H ) :   0.9509 B( 25-C , 27-H ) :   0.9631 B( 25-C , 28-C ) :   1.0680
B( 28-C , 29-H ) :   0.9759 B( 28-C , 30-H ) :   0.9695 B( 28-C , 31-H ) :   0.9722

Dispersion correction           -0.014813516
FINAL SINGLE POINT ENERGY     -1339.877873618419

DIPOLE MOMENT
-------------
                                X             Y             Z
Electronic contribution:      5.52523      31.24336       7.89127
Nuclear contribution   :     -5.86381     -31.86792      -8.07837
                        -----------------------------------------
Total Dipole Moment    :     -0.33858      -0.62456      -0.18710
                        -----------------------------------------
Magnitude (a.u.)       :      0.73465
Magnitude (Debye)      :      1.86734

Rotational constants in cm-1:     0.018887     0.009547     0.006678
Rotational constants in MHz :   566.213959   286.226446   200.206973

                             ****ORCA TERMINATED NORMALLY****
TOTAL RUN TIME: 0 days 0 hours 0 minutes 36 seconds 626 msec
