                         Program Version 4.2.1 -  RELEASE  -
|  1> ! wB97X-D3 SP def2-SVP
|  2> %pal
|  3> nprocs 16
|  4> end
|  5>
|  6> * xyz 0 1
|  7> S 	 -11.4995 	 31.2604 	 36.8345
|  8> C 	 -10.66 	 31.0716 	 35.3087
|  9> C 	 -11.455 	 31.5083 	 34.213
| 10> C 	 -12.7539 	 31.8719 	 34.6764
| 11> C 	 -13.0008 	 31.6737 	 35.9831
| 12> H 	 -13.5132 	 32.2009 	 33.9943
| 13> C 	 -10.929 	 31.713 	 32.822
| 14> H 	 -10.0908 	 31.0799 	 32.6925
| 15> H 	 -10.6047 	 32.8011 	 32.6553
| 16> C 	 -11.9792 	 31.4496 	 31.7225
| 17> H 	 -12.3034 	 30.4237 	 31.5832
| 18> H 	 -12.864 	 31.9628 	 31.995
| 19> C 	 -11.6202 	 31.9261 	 30.3642
| 20> H 	 -12.3941 	 31.6036 	 29.6546
| 21> H 	 -11.491 	 32.983 	 30.191
| 22> H 	 -10.7021 	 31.4203 	 30.0506
| 23> S 	 -14.6386 	 33.0791 	 37.6316
| 24> C 	 -16.2552 	 32.4846 	 38.0221
| 25> C 	 -16.4428 	 31.29 	 37.4001
| 26> C 	 -15.3123 	 30.8585 	 36.5936
| 27> C 	 -14.2424 	 31.7197 	 36.6704
| 28> H 	 -17.3068 	 30.6834 	 37.511
| 29> C 	 -15.3361 	 29.629 	 35.7067
| 30> H 	 -15.9901 	 28.8356 	 36.1077
| 31> H 	 -14.3602 	 29.1521 	 35.7489
| 32> C 	 -15.9078 	 29.7989 	 34.2721
| 33> H 	 -15.5799 	 28.9879 	 33.5874
| 34> H 	 -15.4672 	 30.6377 	 33.8494
| 35> C 	 -17.4394 	 30.0388 	 34.0827
| 36> H 	 -17.9078 	 29.115 	 34.5105
| 37> H 	 -17.7529 	 30.1062 	 33.0743
| 38> H 	 -17.6735 	 30.8876 	 34.7491
| 39> H 	 -9.63384 	 30.8008 	 35.0523
| 40> H 	 -16.9008 	 32.7903 	 38.8609
| 41> *
| 42>
| 43>                          ****END OF INPUT****

CARTESIAN COORDINATES (ANGSTROEM)
---------------------------------
  S    -11.499500   31.260400   36.834500
  C    -10.660000   31.071600   35.308700
  C    -11.455000   31.508300   34.213000
  C    -12.753900   31.871900   34.676400
  C    -13.000800   31.673700   35.983100
  H    -13.513200   32.200900   33.994300
  C    -10.929000   31.713000   32.822000
  H    -10.090800   31.079900   32.692500
  H    -10.604700   32.801100   32.655300
  C    -11.979200   31.449600   31.722500
  H    -12.303400   30.423700   31.583200
  H    -12.864000   31.962800   31.995000
  C    -11.620200   31.926100   30.364200
  H    -12.394100   31.603600   29.654600
  H    -11.491000   32.983000   30.191000
  H    -10.702100   31.420300   30.050600
  S    -14.638600   33.079100   37.631600
  C    -16.255200   32.484600   38.022100
  C    -16.442800   31.290000   37.400100
  C    -15.312300   30.858500   36.593600
  C    -14.242400   31.719700   36.670400
  H    -17.306800   30.683400   37.511000
  C    -15.336100   29.629000   35.706700
  H    -15.990100   28.835600   36.107700
  H    -14.360200   29.152100   35.748900
  C    -15.907800   29.798900   34.272100
  H    -15.579900   28.987900   33.587400
  H    -15.467200   30.637700   33.849400
  C    -17.439400   30.038800   34.082700
  H    -17.907800   29.115000   34.510500
  H    -17.752900   30.106200   33.074300
  H    -17.673500   30.887600   34.749100
  H     -9.633840   30.800800   35.052300
  H    -16.900800   32.790300   38.860900

 Total Charge           Charge          ....    0
 Multiplicity           Mult            ....    1
 Number of Electrons    NEL             ....  134
 Basis Dimension        Dim             ....  322

ORBITAL ENERGIES
----------------

  NO   OCC          E(Eh)            E(eV)
   0   2.0000     -88.969992     -2420.9966
   1   2.0000     -88.963523     -2420.8205
   2   2.0000     -10.324765      -280.9511
   3   2.0000     -10.320280      -280.8291
   4   2.0000     -10.319185      -280.7993
   5   2.0000     -10.318650      -280.7847
   6   2.0000     -10.302436      -280.3435
   7   2.0000     -10.301842      -280.3274
   8   2.0000     -10.298076      -280.2249
   9   2.0000     -10.292607      -280.0761
  10   2.0000     -10.291777      -280.0535
  11   2.0000     -10.291014      -280.0327
  12   2.0000     -10.281144      -279.7642
  13   2.0000     -10.280774      -279.7541
  14   2.0000     -10.279490      -279.7191
  15   2.0000     -10.275142      -279.6008
  16   2.0000      -8.083973      -219.9761
  17   2.0000      -8.078828      -219.8361
  18   2.0000      -6.042567      -164.4266
  19   2.0000      -6.038638      -164.3197
  20   2.0000      -6.037438      -164.2870
  21   2.0000      -6.034624      -164.2105
  22   2.0000      -6.033101      -164.1690
  23   2.0000      -6.029580      -164.0732
  24   2.0000      -1.011707       -27.5300
  25   2.0000      -0.984952       -26.8019
  26   2.0000      -0.918264       -24.9872
  27   2.0000      -0.902687       -24.5634
  28   2.0000      -0.877752       -23.8849
  29   2.0000      -0.852687       -23.2028
  30   2.0000      -0.844333       -22.9755
  31   2.0000      -0.822858       -22.3911
  32   2.0000      -0.783341       -21.3158
  33   2.0000      -0.770182       -20.9577
  34   2.0000      -0.715573       -19.4717
  35   2.0000      -0.696977       -18.9657
  36   2.0000      -0.688772       -18.7425
  37   2.0000      -0.664629       -18.0855
  38   2.0000      -0.643886       -17.5210
  39   2.0000      -0.625401       -17.0180
  40   2.0000      -0.594938       -16.1891
  41   2.0000      -0.574599       -15.6356
  42   2.0000      -0.568250       -15.4629
  43   2.0000      -0.554314       -15.0837
  44   2.0000      -0.541812       -14.7435
  45   2.0000      -0.529457       -14.4072
  46   2.0000      -0.520736       -14.1700
  47   2.0000      -0.511888       -13.9292
  48   2.0000      -0.506356       -13.7787
  49   2.0000      -0.499731       -13.5984
  50   2.0000      -0.490511       -13.3475
  51   2.0000      -0.479001       -13.0343
  52   2.0000      -0.470136       -12.7930
  53   2.0000      -0.465885       -12.6774
  54   2.0000      -0.458769       -12.4837
  55   2.0000      -0.455349       -12.3907
  56   2.0000      -0.450264       -12.2523
  57   2.0000      -0.434252       -11.8166
  58   2.0000      -0.430279       -11.7085
  59   2.0000      -0.425423       -11.5763
  60   2.0000      -0.419703       -11.4207
  61   2.0000      -0.414479       -11.2785
  62   2.0000      -0.406610       -11.0644
  63   2.0000      -0.341815        -9.3013
  64   2.0000      -0.333425        -9.0729
  65   2.0000      -0.322022        -8.7627
  66   2.0000      -0.306311        -8.3351
  67   0.0000       0.037207         1.0125
  68   0.0000       0.055297         1.5047
  69   0.0000       0.113731         3.0948
  70   0.0000       0.120887         3.2895
  71   0.0000       0.130230         3.5437

MULLIKEN ATOMIC CHARGES
-----------------------
   0 S :    0.128425
   1 C :   -0.101846
   2 C :   -0.124974
   3 C :    0.064971
   4 C :   -0.176420
   5 H :    0.011120
   6 C :    0.089274
   7 H :    0.010768
   8 H :    0.055746
   9 C :   -0.082260
  10 H :    0.028900
  11 H :    0.013566
  12 C :   -0.048026
  13 H :    0.030152
  14 H :    0.030216
  15 H :    0.022049
  16 S :    0.107045
  17 C :   -0.091149
  18 C :   -0.023127
  19 C :   -0.047257
  20 C :   -0.167734
  21 H :    0.010151
  22 C :    0.075445
  23 H :    0.012334
  24 H :    0.038679
  25 C :   -0.057939
  26 H :    0.028272
  27 H :   -0.005993
  28 C :   -0.054636
  29 H :    0.023233
  30 H :    0.039229
  31 H :    0.045251
  32 H :    0.042951
  33 H :    0.073586
Sum of atomic charges:   -0.0000000

LOEWDIN ATOMIC CHARGES
----------------------
   0 S :    0.403339
   1 C :   -0.199112
   2 C :   -0.065332
   3 C :   -0.050669
   4 C :   -0.192336
   5 H :    0.027863
   6 C :   -0.028645
   7 H :    0.023316
   8 H :    0.046853
   9 C :   -0.044957
  10 H :    0.028026
  11 H :    0.016109
  12 C :   -0.065682
  13 H :    0.030525
  14 H :    0.020687
  15 H :    0.023551
  16 S :    0.415768
  17 C :   -0.189926
  18 C :   -0.066678
  19 C :   -0.054918
  20 C :   -0.216572
  21 H :    0.025794
  22 C :   -0.034798
  23 H :    0.029813
  24 H :    0.037555
  25 C :   -0.040026
  26 H :    0.027008
  27 H :    0.005883
  28 C :   -0.062654
  29 H :    0.024547
  30 H :    0.022509
  31 H :    0.029821
  32 H :    0.031616
  33 H :    0.041721

  Mayer bond orders larger than 0.100000
B(  0-S ,  1-C ) :   1.1453 B(  0-S ,  4-C ) :   1.1245 B(  1-C ,  2-C ) :   1.6108
B(  1-C ,  4-C ) :   0.1024 B(  1-C , 32-H ) :   0.9620 B(  2-C ,  3-C ) :   1.2387
B(  2-C ,  6-C ) :   1.0363 B(  3-C ,  4-C ) :   1.6139 B(  3-C ,  5-H ) :   0.9902
B(  4-C , 20-C ) :   1.0163 B(  6-C ,  7-H ) :   0.9323 B(  6-C ,  8-H ) :   0.9369
B(  6-C ,  9-C ) :   1.0567 B(  9-C , 10-H ) :   0.9519 B(  9-C , 11-H ) :   0.9507
B(  9-C , 12-C ) :   1.1047 B( 12-C , 13-H ) :   0.9704 B( 12-C , 14-H ) :   0.9734
B( 12-C , 15-H ) :   0.9711 B( 16-S , 17-C ) :   1.1424 B( 16-S , 20-C ) :   1.1557
B( 17-C , 18-C ) :   1.6135 B( 17-C , 33-H ) :   0.9608 B( 18-C , 19-C ) :   1.2449
B( 18-C , 21-H ) :   0.9890 B( 19-C , 20-C ) :   1.6051 B( 19-C , 22-C ) :   1.0605
B( 22-C , 23-H ) :   0.9365 B( 22-C , 24-H ) :   0.9248 B( 22-C , 25-C ) :   1.0559
B( 25-C , 26-H ) :   0.9545 B( 25-C , 27-H ) :   0.9535 B( 25-C , 28-C ) :   1.0734
B( 28-C , 29-H ) :   0.9769 B( 28-C , 30-H ) :   0.9744 B( 28-C , 31-H ) :   0.9748

Dispersion correction           -0.014898464
FINAL SINGLE POINT ENERGY     -1339.873187231482

DIPOLE MOMENT
-------------
                                X             Y             Z
Electronic contribution:      6.54824       8.62358      28.40553
Nuclear contribution   :     -6.68427      -8.88728     -29.01171
                        -----------------------------------------
Total Dipole Moment    :     -0.13604      -0.26370      -0.60618
                        -----------------------------------------
Magnitude (a.u.)       :      0.67491
Magnitude (Debye)      :      1.71548

Rotational constants in cm-1:     0.017609     0.009373     0.007083
Rotational constants in MHz :   527.905964   281.003099   212.345303

                             ****ORCA TERMINATED NORMALLY****
TOTAL RUN TIME: 0 days 0 hours 0 minutes 33 seconds 480 msec
