                         Program Version 4.2.1 -  RELEASE  -
|  1> ! wB97X-D3 SP def2-SVP
|  2> %pal
|  3> nprocs 16
|  4> end
|  5>
|  6> * xyz 0 1
|  7> S 	 -63.1729 	 43.8056 	 131.359
|  8> C 	 -64.1656 	 43.9337 	 132.775
|  9> C 	 -63.5343 	 43.313 	 133.844
| 10> C 	 -62.1743 	 42.9194 	 133.517
| 11> C 	 -61.7969 	 43.1946 	 132.237
| 12> H 	 -61.4093 	 42.5145 	 134.181
| 13> C 	 -64.1177 	 43.2152 	 135.246
| 14> H 	 -64.921 	 43.978 	 135.317
| 15> H 	 -63.3838 	 43.4144 	 136.073
| 16> C 	 -64.8882 	 41.8489 	 135.472
| 17> H 	 -65.6145 	 41.7104 	 134.705
| 18> H 	 -64.2781 	 40.8871 	 135.524
| 19> C 	 -65.6299 	 41.8005 	 136.814
| 20> H 	 -66.3421 	 40.9856 	 136.734
| 21> H 	 -64.9276 	 41.7182 	 137.626
| 22> H 	 -66.2509 	 42.6688 	 136.91
| 23> S 	 -60.0381 	 41.6942 	 130.71
| 24> C 	 -58.4607 	 42.3631 	 130.376
| 25> C 	 -58.2151 	 43.5451 	 131.057
| 26> C 	 -59.3928 	 43.9937 	 131.815
| 27> C 	 -60.4539 	 43.1166 	 131.692
| 28> H 	 -57.242 	 43.9926 	 130.896
| 29> C 	 -59.286 	 45.2502 	 132.701
| 30> H 	 -58.2161 	 45.2277 	 133.004
| 31> H 	 -59.7081 	 45.2074 	 133.756
| 32> C 	 -59.6892 	 46.5417 	 131.932
| 33> H 	 -59.1318 	 46.575 	 131.058
| 34> H 	 -59.4456 	 47.4069 	 132.51
| 35> C 	 -61.2075 	 46.5156 	 131.632
| 36> H 	 -61.7649 	 46.2867 	 132.554
| 37> H 	 -61.3797 	 45.706 	 130.933
| 38> H 	 -61.599 	 47.4019 	 131.201
| 39> H 	 -65.1855 	 44.0992 	 132.822
| 40> H 	 -57.6637 	 41.9148 	 129.764
| 41> *
| 42>
| 43>                          ****END OF INPUT****

CARTESIAN COORDINATES (ANGSTROEM)
---------------------------------
  S    -63.172900   43.805600  131.359000
  C    -64.165600   43.933700  132.775000
  C    -63.534300   43.313000  133.844000
  C    -62.174300   42.919400  133.517000
  C    -61.796900   43.194600  132.237000
  H    -61.409300   42.514500  134.181000
  C    -64.117700   43.215200  135.246000
  H    -64.921000   43.978000  135.317000
  H    -63.383800   43.414400  136.073000
  C    -64.888200   41.848900  135.472000
  H    -65.614500   41.710400  134.705000
  H    -64.278100   40.887100  135.524000
  C    -65.629900   41.800500  136.814000
  H    -66.342100   40.985600  136.734000
  H    -64.927600   41.718200  137.626000
  H    -66.250900   42.668800  136.910000
  S    -60.038100   41.694200  130.710000
  C    -58.460700   42.363100  130.376000
  C    -58.215100   43.545100  131.057000
  C    -59.392800   43.993700  131.815000
  C    -60.453900   43.116600  131.692000
  H    -57.242000   43.992600  130.896000
  C    -59.286000   45.250200  132.701000
  H    -58.216100   45.227700  133.004000
  H    -59.708100   45.207400  133.756000
  C    -59.689200   46.541700  131.932000
  H    -59.131800   46.575000  131.058000
  H    -59.445600   47.406900  132.510000
  C    -61.207500   46.515600  131.632000
  H    -61.764900   46.286700  132.554000
  H    -61.379700   45.706000  130.933000
  H    -61.599000   47.401900  131.201000
  H    -65.185500   44.099200  132.822000
  H    -57.663700   41.914800  129.764000

 Total Charge           Charge          ....    0
 Multiplicity           Mult            ....    1
 Number of Electrons    NEL             ....  134
 Basis Dimension        Dim             ....  322

ORBITAL ENERGIES
----------------

  NO   OCC          E(Eh)            E(eV)
   0   2.0000     -88.966586     -2420.9039
   1   2.0000     -88.962997     -2420.8062
   2   2.0000     -10.327769      -281.0329
   3   2.0000     -10.324081      -280.9325
   4   2.0000     -10.319557      -280.8094
   5   2.0000     -10.312731      -280.6237
   6   2.0000     -10.309681      -280.5407
   7   2.0000     -10.304327      -280.3950
   8   2.0000     -10.303283      -280.3666
   9   2.0000     -10.298630      -280.2400
  10   2.0000     -10.297937      -280.2211
  11   2.0000     -10.293643      -280.1043
  12   2.0000     -10.289266      -279.9852
  13   2.0000     -10.276492      -279.6376
  14   2.0000     -10.272956      -279.5414
  15   2.0000     -10.262184      -279.2482
  16   2.0000      -8.080962      -219.8942
  17   2.0000      -8.077684      -219.8050
  18   2.0000      -6.039501      -164.3432
  19   2.0000      -6.036257      -164.2549
  20   2.0000      -6.035561      -164.2360
  21   2.0000      -6.032121      -164.1424
  22   2.0000      -6.031673      -164.1302
  23   2.0000      -6.028405      -164.0412
  24   2.0000      -1.005450       -27.3597
  25   2.0000      -0.981518       -26.7085
  26   2.0000      -0.905911       -24.6511
  27   2.0000      -0.901577       -24.5332
  28   2.0000      -0.871402       -23.7121
  29   2.0000      -0.847253       -23.0549
  30   2.0000      -0.841044       -22.8860
  31   2.0000      -0.815787       -22.1987
  32   2.0000      -0.780162       -21.2293
  33   2.0000      -0.766706       -20.8631
  34   2.0000      -0.707966       -19.2647
  35   2.0000      -0.693864       -18.8810
  36   2.0000      -0.691377       -18.8133
  37   2.0000      -0.656186       -17.8557
  38   2.0000      -0.646323       -17.5874
  39   2.0000      -0.615055       -16.7365
  40   2.0000      -0.594618       -16.1804
  41   2.0000      -0.573440       -15.6041
  42   2.0000      -0.561877       -15.2894
  43   2.0000      -0.546847       -14.8805
  44   2.0000      -0.537979       -14.6392
  45   2.0000      -0.523793       -14.2531
  46   2.0000      -0.513831       -13.9821
  47   2.0000      -0.509776       -13.8717
  48   2.0000      -0.506806       -13.7909
  49   2.0000      -0.500388       -13.6162
  50   2.0000      -0.485029       -13.1983
  51   2.0000      -0.474352       -12.9078
  52   2.0000      -0.467424       -12.7193
  53   2.0000      -0.459518       -12.5041
  54   2.0000      -0.456225       -12.4145
  55   2.0000      -0.444048       -12.0832
  56   2.0000      -0.442134       -12.0311
  57   2.0000      -0.435692       -11.8558
  58   2.0000      -0.430474       -11.7138
  59   2.0000      -0.424316       -11.5462
  60   2.0000      -0.419235       -11.4080
  61   2.0000      -0.414301       -11.2737
  62   2.0000      -0.408982       -11.1290
  63   2.0000      -0.333506        -9.0751
  64   2.0000      -0.329248        -8.9593
  65   2.0000      -0.321654        -8.7527
  66   2.0000      -0.312740        -8.5101
  67   0.0000       0.045372         1.2346
  68   0.0000       0.052823         1.4374
  69   0.0000       0.111977         3.0471
  70   0.0000       0.122200         3.3252
  71   0.0000       0.128889         3.5073

MULLIKEN ATOMIC CHARGES
-----------------------
   0 S :    0.114467
   1 C :   -0.071186
   2 C :   -0.097524
   3 C :    0.062391
   4 C :   -0.169873
   5 H :    0.014010
   6 C :    0.037097
   7 H :    0.022560
   8 H :    0.044246
   9 C :   -0.108538
  10 H :    0.019883
  11 H :    0.041258
  12 C :   -0.021042
  13 H :    0.030401
  14 H :    0.036126
  15 H :    0.013020
  16 S :    0.114791
  17 C :   -0.097944
  18 C :   -0.048637
  19 C :   -0.004415
  20 C :   -0.195818
  21 H :    0.025960
  22 C :    0.008301
  23 H :    0.023019
  24 H :    0.042324
  25 C :   -0.003025
  26 H :    0.008816
  27 H :    0.021108
  28 C :   -0.039240
  29 H :    0.031841
  30 H :    0.033280
  31 H :    0.024414
  32 H :    0.024501
  33 H :    0.063428
Sum of atomic charges:   -0.0000000

LOEWDIN ATOMIC CHARGES
----------------------
   0 S :    0.433604
   1 C :   -0.194380
   2 C :   -0.062010
   3 C :   -0.055562
   4 C :   -0.203929
   5 H :    0.034568
   6 C :   -0.034455
   7 H :    0.032223
   8 H :    0.035981
   9 C :   -0.042433
  10 H :    0.016309
  11 H :    0.030800
  12 C :   -0.061494
  13 H :    0.028044
  14 H :    0.022361
  15 H :    0.016381
  16 S :    0.396524
  17 C :   -0.188107
  18 C :   -0.075501
  19 C :   -0.044439
  20 C :   -0.199109
  21 H :    0.033907
  22 C :   -0.039516
  23 H :    0.032392
  24 H :    0.036477
  25 C :   -0.026569
  26 H :    0.013849
  27 H :    0.018799
  28 C :   -0.063762
  29 H :    0.026282
  30 H :    0.012223
  31 H :    0.018074
  32 H :    0.016712
  33 H :    0.035759

  Mayer bond orders larger than 0.100000
B(  0-S ,  1-C ) :   1.1470 B(  0-S ,  4-C ) :   1.1484 B(  1-C ,  2-C ) :   1.6162
B(  1-C , 32-H ) :   0.9692 B(  2-C ,  3-C ) :   1.2174 B(  2-C ,  6-C ) :   1.0312
B(  3-C ,  4-C ) :   1.6110 B(  3-C ,  5-H ) :   0.9948 B(  4-C , 20-C ) :   1.0180
B(  6-C ,  7-H ) :   0.9427 B(  6-C ,  8-H ) :   0.9494 B(  6-C ,  9-C ) :   1.0482
B(  9-C , 10-H ) :   0.9598 B(  9-C , 11-H ) :   0.9598 B(  9-C , 12-C ) :   1.0841
B( 12-C , 13-H ) :   0.9745 B( 12-C , 14-H ) :   0.9779 B( 12-C , 15-H ) :   0.9727
B( 16-S , 17-C ) :   1.1466 B( 16-S , 20-C ) :   1.1321 B( 17-C , 18-C ) :   1.6574
B( 17-C , 33-H ) :   0.9599 B( 18-C , 19-C ) :   1.2027 B( 18-C , 21-H ) :   0.9853
B( 19-C , 20-C ) :   1.6326 B( 19-C , 22-C ) :   1.0159 B( 22-C , 23-H ) :   0.9366
B( 22-C , 24-H ) :   0.9486 B( 22-C , 25-C ) :   1.0673 B( 25-C , 26-H ) :   0.9545
B( 25-C , 27-H ) :   0.9555 B( 25-C , 28-C ) :   1.0755 B( 28-C , 29-H ) :   0.9753
B( 28-C , 30-H ) :   0.9678 B( 28-C , 31-H ) :   0.9732

Dispersion correction           -0.015424470
FINAL SINGLE POINT ENERGY     -1339.875112890944

DIPOLE MOMENT
-------------
                                X             Y             Z
Electronic contribution:      8.03029      -8.62545     -18.88914
Nuclear contribution   :     -7.89351       8.78494      19.37105
                        -----------------------------------------
Total Dipole Moment    :      0.13678       0.15948       0.48192
                        -----------------------------------------
Magnitude (a.u.)       :      0.52573
Magnitude (Debye)      :      1.33629

Rotational constants in cm-1:     0.022415     0.007799     0.006978
Rotational constants in MHz :   671.988103   233.795433   209.180308

                             ****ORCA TERMINATED NORMALLY****
TOTAL RUN TIME: 0 days 0 hours 0 minutes 34 seconds 148 msec
