                         Program Version 4.2.1 -  RELEASE  -
|  1> ! wB97X-D3 SP def2-SVP
|  2> %pal
|  3> nprocs 16
|  4> end
|  5>
|  6> * xyz 0 1
|  7> S 	 59.5329 	 -0.402015 	 86.3607
|  8> C 	 59.1738 	 0.96723 	 85.3293
|  9> C 	 57.847 	 1.25734 	 85.3924
| 10> C 	 57.1468 	 0.522503 	 86.4009
| 11> C 	 57.8368 	 -0.51287 	 86.8728
| 12> H 	 56.102 	 0.585124 	 86.6945
| 13> C 	 57.2467 	 2.37487 	 84.4741
| 14> H 	 57.8949 	 2.63145 	 83.6412
| 15> H 	 57.1976 	 3.33007 	 85.0263
| 16> C 	 55.8432 	 2.15795 	 84.0099
| 17> H 	 55.6502 	 1.17976 	 83.4885
| 18> H 	 55.1486 	 2.20523 	 84.8538
| 19> C 	 55.3972 	 3.3858 	 83.2327
| 20> H 	 55.5871 	 4.28421 	 83.7501
| 21> H 	 55.9082 	 3.3546 	 82.3199
| 22> H 	 54.3688 	 3.51333 	 83.0523
| 23> S 	 57.7817 	 -1.22785 	 89.5309
| 24> C 	 56.4638 	 -2.25133 	 90.0307
| 25> C 	 55.9297 	 -2.91402 	 88.9364
| 26> C 	 56.4797 	 -2.47233 	 87.7292
| 27> C 	 57.3184 	 -1.41091 	 87.8687
| 28> H 	 55.1938 	 -3.7098 	 88.9815
| 29> C 	 56.1344 	 -3.13248 	 86.4249
| 30> H 	 56.1481 	 -4.21628 	 86.5903
| 31> H 	 57.0073 	 -2.96785 	 85.8116
| 32> C 	 54.7677 	 -2.71438 	 85.825
| 33> H 	 54.8404 	 -1.61104 	 85.5825
| 34> H 	 53.9784 	 -2.83494 	 86.5888
| 35> C 	 54.3313 	 -3.63165 	 84.7111
| 36> H 	 53.3154 	 -3.36948 	 84.3367
| 37> H 	 54.2804 	 -4.69882 	 84.9992
| 38> H 	 55.0747 	 -3.55558 	 83.9393
| 39> H 	 59.874 	 1.4236 	 84.6096
| 40> H 	 56.3345 	 -2.46636 	 91.0987
| 41> *
| 42>
| 43>                          ****END OF INPUT****

CARTESIAN COORDINATES (ANGSTROEM)
---------------------------------
  S     59.532900   -0.402015   86.360700
  C     59.173800    0.967230   85.329300
  C     57.847000    1.257340   85.392400
  C     57.146800    0.522503   86.400900
  C     57.836800   -0.512870   86.872800
  H     56.102000    0.585124   86.694500
  C     57.246700    2.374870   84.474100
  H     57.894900    2.631450   83.641200
  H     57.197600    3.330070   85.026300
  C     55.843200    2.157950   84.009900
  H     55.650200    1.179760   83.488500
  H     55.148600    2.205230   84.853800
  C     55.397200    3.385800   83.232700
  H     55.587100    4.284210   83.750100
  H     55.908200    3.354600   82.319900
  H     54.368800    3.513330   83.052300
  S     57.781700   -1.227850   89.530900
  C     56.463800   -2.251330   90.030700
  C     55.929700   -2.914020   88.936400
  C     56.479700   -2.472330   87.729200
  C     57.318400   -1.410910   87.868700
  H     55.193800   -3.709800   88.981500
  C     56.134400   -3.132480   86.424900
  H     56.148100   -4.216280   86.590300
  H     57.007300   -2.967850   85.811600
  C     54.767700   -2.714380   85.825000
  H     54.840400   -1.611040   85.582500
  H     53.978400   -2.834940   86.588800
  C     54.331300   -3.631650   84.711100
  H     53.315400   -3.369480   84.336700
  H     54.280400   -4.698820   84.999200
  H     55.074700   -3.555580   83.939300
  H     59.874000    1.423600   84.609600
  H     56.334500   -2.466360   91.098700

 Total Charge           Charge          ....    0
 Multiplicity           Mult            ....    1
 Number of Electrons    NEL             ....  134
 Basis Dimension        Dim             ....  322

ORBITAL ENERGIES
----------------

  NO   OCC          E(Eh)            E(eV)
   0   2.0000     -88.961759     -2420.7725
   1   2.0000     -88.961283     -2420.7596
   2   2.0000     -10.322252      -280.8828
   3   2.0000     -10.318681      -280.7856
   4   2.0000     -10.316040      -280.7137
   5   2.0000     -10.313475      -280.6439
   6   2.0000     -10.301276      -280.3120
   7   2.0000     -10.293600      -280.1031
   8   2.0000     -10.292909      -280.0843
   9   2.0000     -10.291376      -280.0426
  10   2.0000     -10.291070      -280.0342
  11   2.0000     -10.290618      -280.0220
  12   2.0000     -10.287009      -279.9237
  13   2.0000     -10.286055      -279.8978
  14   2.0000     -10.278849      -279.7017
  15   2.0000     -10.264985      -279.3244
  16   2.0000      -8.076901      -219.7836
  17   2.0000      -8.076363      -219.7690
  18   2.0000      -6.035278      -164.2283
  19   2.0000      -6.034910      -164.2182
  20   2.0000      -6.031436      -164.1237
  21   2.0000      -6.030991      -164.1116
  22   2.0000      -6.027598      -164.0193
  23   2.0000      -6.026980      -164.0025
  24   2.0000      -1.013601       -27.5815
  25   2.0000      -0.989606       -26.9285
  26   2.0000      -0.917296       -24.9609
  27   2.0000      -0.909626       -24.7522
  28   2.0000      -0.876663       -23.8552
  29   2.0000      -0.854607       -23.2550
  30   2.0000      -0.845539       -23.0083
  31   2.0000      -0.818214       -22.2647
  32   2.0000      -0.781737       -21.2722
  33   2.0000      -0.771017       -20.9804
  34   2.0000      -0.708284       -19.2734
  35   2.0000      -0.696488       -18.9524
  36   2.0000      -0.689291       -18.7566
  37   2.0000      -0.664783       -18.0897
  38   2.0000      -0.646719       -17.5981
  39   2.0000      -0.616979       -16.7889
  40   2.0000      -0.598829       -16.2950
  41   2.0000      -0.576367       -15.6837
  42   2.0000      -0.566350       -15.4112
  43   2.0000      -0.560296       -15.2464
  44   2.0000      -0.532794       -14.4981
  45   2.0000      -0.521401       -14.1881
  46   2.0000      -0.519105       -14.1256
  47   2.0000      -0.514648       -14.0043
  48   2.0000      -0.505571       -13.7573
  49   2.0000      -0.501978       -13.6595
  50   2.0000      -0.493967       -13.4415
  51   2.0000      -0.479593       -13.0504
  52   2.0000      -0.471952       -12.8425
  53   2.0000      -0.464954       -12.6520
  54   2.0000      -0.457512       -12.4495
  55   2.0000      -0.452037       -12.3005
  56   2.0000      -0.447643       -12.1810
  57   2.0000      -0.438005       -11.9187
  58   2.0000      -0.434939       -11.8353
  59   2.0000      -0.426468       -11.6048
  60   2.0000      -0.417702       -11.3663
  61   2.0000      -0.411946       -11.2096
  62   2.0000      -0.410060       -11.1583
  63   2.0000      -0.340953        -9.2778
  64   2.0000      -0.327624        -8.9151
  65   2.0000      -0.323239        -8.7958
  66   2.0000      -0.306820        -8.3490
  67   0.0000       0.042846         1.1659
  68   0.0000       0.057301         1.5592
  69   0.0000       0.112073         3.0497
  70   0.0000       0.127762         3.4766
  71   0.0000       0.129632         3.5275

MULLIKEN ATOMIC CHARGES
-----------------------
   0 S :    0.095601
   1 C :   -0.134132
   2 C :   -0.042831
   3 C :    0.039637
   4 C :   -0.167190
   5 H :    0.024907
   6 C :    0.055606
   7 H :    0.012810
   8 H :    0.032027
   9 C :   -0.102703
  10 H :    0.045782
  11 H :    0.025245
  12 C :   -0.000705
  13 H :    0.009601
  14 H :    0.018212
  15 H :    0.016444
  16 S :    0.114633
  17 C :   -0.102771
  18 C :   -0.018096
  19 C :   -0.031978
  20 C :   -0.197891
  21 H :    0.014537
  22 C :    0.075715
  23 H :    0.016101
  24 H :    0.026042
  25 C :   -0.084187
  26 H :    0.042167
  27 H :    0.024802
  28 C :   -0.032737
  29 H :    0.039623
  30 H :    0.031934
  31 H :    0.025883
  32 H :    0.060432
  33 H :    0.067481
Sum of atomic charges:    0.0000000

LOEWDIN ATOMIC CHARGES
----------------------
   0 S :    0.378095
   1 C :   -0.193771
   2 C :   -0.063294
   3 C :   -0.055789
   4 C :   -0.186970
   5 H :    0.036392
   6 C :   -0.031811
   7 H :    0.025974
   8 H :    0.036032
   9 C :   -0.047793
  10 H :    0.028921
  11 H :    0.023394
  12 C :   -0.054753
  13 H :    0.021238
  14 H :    0.018088
  15 H :    0.021140
  16 S :    0.414304
  17 C :   -0.183553
  18 C :   -0.070247
  19 C :   -0.057280
  20 C :   -0.208708
  21 H :    0.031114
  22 C :   -0.031303
  23 H :    0.031255
  24 H :    0.029797
  25 C :   -0.043578
  26 H :    0.030982
  27 H :    0.023522
  28 C :   -0.067654
  29 H :    0.029973
  30 H :    0.027838
  31 H :    0.021133
  32 H :    0.036619
  33 H :    0.030694

  Mayer bond orders larger than 0.100000
B(  0-S ,  1-C ) :   1.1221 B(  0-S ,  4-C ) :   1.1176 B(  1-C ,  2-C ) :   1.6544
B(  1-C , 32-H ) :   0.9651 B(  2-C ,  3-C ) :   1.1945 B(  2-C ,  6-C ) :   1.0067
B(  3-C ,  4-C ) :   1.6487 B(  3-C ,  5-H ) :   0.9825 B(  4-C , 20-C ) :   1.0271
B(  6-C ,  7-H ) :   0.9509 B(  6-C ,  8-H ) :   0.9349 B(  6-C ,  9-C ) :   1.0679
B(  9-C , 10-H ) :   0.9600 B(  9-C , 11-H ) :   0.9458 B(  9-C , 12-C ) :   1.0834
B( 12-C , 13-H ) :   0.9682 B( 12-C , 14-H ) :   0.9751 B( 12-C , 15-H ) :   0.9708
B( 16-S , 17-C ) :   1.1721 B( 16-S , 20-C ) :   1.1443 B( 17-C , 18-C ) :   1.5625
B( 17-C , 20-C ) :   0.1043 B( 17-C , 33-H ) :   0.9691 B( 18-C , 19-C ) :   1.2660
B( 18-C , 21-H ) :   0.9937 B( 19-C , 20-C ) :   1.5997 B( 19-C , 22-C ) :   1.0442
B( 22-C , 23-H ) :   0.9347 B( 22-C , 24-H ) :   0.9231 B( 22-C , 25-C ) :   1.0575
B( 25-C , 26-H ) :   0.9494 B( 25-C , 27-H ) :   0.9590 B( 25-C , 28-C ) :   1.0816
B( 28-C , 29-H ) :   0.9727 B( 28-C , 30-H ) :   0.9719 B( 28-C , 31-H ) :   0.9737

Dispersion correction           -0.014203343
FINAL SINGLE POINT ENERGY     -1339.873436582408

DIPOLE MOMENT
-------------
                                X             Y             Z
Electronic contribution:     20.99471      -4.24863      21.75473
Nuclear contribution   :    -21.55972       4.29273     -22.10933
                        -----------------------------------------
Total Dipole Moment    :     -0.56502       0.04410      -0.35460
                        -----------------------------------------
Magnitude (a.u.)       :      0.66853
Magnitude (Debye)      :      1.69926

Rotational constants in cm-1:     0.016444     0.009162     0.007053
Rotational constants in MHz :   492.983262   274.677802   211.433543

                             ****ORCA TERMINATED NORMALLY****
TOTAL RUN TIME: 0 days 0 hours 0 minutes 30 seconds 140 msec
