                         Program Version 4.2.1 -  RELEASE  -
|  1> ! wB97X-D3 SP def2-SVP
|  2> %pal
|  3> nprocs 16
|  4> end
|  5>
|  6> * xyz 0 1
|  7> S 	 1.11958 	 -11.6176 	 70.0298
|  8> C 	 1.90244 	 -12.8458 	 69.0097
|  9> C 	 2.16155 	 -13.9887 	 69.6871
| 10> C 	 1.77792 	 -13.8712 	 71.0804
| 11> C 	 1.43119 	 -12.5648 	 71.5029
| 12> H 	 1.8299 	 -14.5867 	 71.9357
| 13> C 	 2.73009 	 -15.2736 	 69.0709
| 14> H 	 2.59597 	 -16.0028 	 69.8923
| 15> H 	 3.79103 	 -15.1177 	 68.9517
| 16> C 	 2.03282 	 -15.8176 	 67.789
| 17> H 	 0.943551 	 -15.9926 	 67.9509
| 18> H 	 2.0693 	 -15.03 	 67.0351
| 19> C 	 2.6879 	 -17.0663 	 67.1986
| 20> H 	 3.66155 	 -16.8106 	 66.9027
| 21> H 	 2.83195 	 -17.8756 	 67.8992
| 22> H 	 2.2439 	 -17.4562 	 66.2822
| 23> S 	 -0.668956 	 -11.7218 	 73.0256
| 24> C 	 -0.480236 	 -11.4024 	 74.6738
| 25> C 	 0.770154 	 -11.7896 	 75.1578
| 26> C 	 1.59486 	 -12.2345 	 74.067
| 27> C 	 0.997901 	 -12.1731 	 72.8134
| 28> H 	 1.02893 	 -11.7946 	 76.1696
| 29> C 	 3.0083 	 -12.6661 	 74.3594
| 30> H 	 3.24785 	 -13.3199 	 73.5644
| 31> H 	 3.01218 	 -13.2 	 75.282
| 32> C 	 4.17396 	 -11.5965 	 74.3495
| 33> H 	 3.98135 	 -10.9072 	 75.1486
| 34> H 	 4.21638 	 -11.0928 	 73.3634
| 35> C 	 5.62865 	 -12.1338 	 74.5263
| 36> H 	 5.69569 	 -13.1407 	 74.1111
| 37> H 	 5.89976 	 -12.2208 	 75.5935
| 38> H 	 6.26959 	 -11.5207 	 73.9215
| 39> H 	 2.11708 	 -12.6369 	 67.9031
| 40> H 	 -1.31032 	 -11.0348 	 75.2693
| 41> *
| 42>
| 43>                          ****END OF INPUT****

CARTESIAN COORDINATES (ANGSTROEM)
---------------------------------
  S      1.119580  -11.617600   70.029800
  C      1.902440  -12.845800   69.009700
  C      2.161550  -13.988700   69.687100
  C      1.777920  -13.871200   71.080400
  C      1.431190  -12.564800   71.502900
  H      1.829900  -14.586700   71.935700
  C      2.730090  -15.273600   69.070900
  H      2.595970  -16.002800   69.892300
  H      3.791030  -15.117700   68.951700
  C      2.032820  -15.817600   67.789000
  H      0.943551  -15.992600   67.950900
  H      2.069300  -15.030000   67.035100
  C      2.687900  -17.066300   67.198600
  H      3.661550  -16.810600   66.902700
  H      2.831950  -17.875600   67.899200
  H      2.243900  -17.456200   66.282200
  S     -0.668956  -11.721800   73.025600
  C     -0.480236  -11.402400   74.673800
  C      0.770154  -11.789600   75.157800
  C      1.594860  -12.234500   74.067000
  C      0.997901  -12.173100   72.813400
  H      1.028930  -11.794600   76.169600
  C      3.008300  -12.666100   74.359400
  H      3.247850  -13.319900   73.564400
  H      3.012180  -13.200000   75.282000
  C      4.173960  -11.596500   74.349500
  H      3.981350  -10.907200   75.148600
  H      4.216380  -11.092800   73.363400
  C      5.628650  -12.133800   74.526300
  H      5.695690  -13.140700   74.111100
  H      5.899760  -12.220800   75.593500
  H      6.269590  -11.520700   73.921500
  H      2.117080  -12.636900   67.903100
  H     -1.310320  -11.034800   75.269300

 Total Charge           Charge          ....    0
 Multiplicity           Mult            ....    1
 Number of Electrons    NEL             ....  134
 Basis Dimension        Dim             ....  322

ORBITAL ENERGIES
----------------

  NO   OCC          E(Eh)            E(eV)
   0   2.0000     -88.963933     -2420.8317
   1   2.0000     -88.963487     -2420.8195
   2   2.0000     -10.332854      -281.1712
   3   2.0000     -10.322965      -280.9022
   4   2.0000     -10.321108      -280.8516
   5   2.0000     -10.315909      -280.7102
   6   2.0000     -10.305934      -280.4387
   7   2.0000     -10.304000      -280.3861
   8   2.0000     -10.302939      -280.3572
   9   2.0000     -10.298564      -280.2382
  10   2.0000     -10.293877      -280.1106
  11   2.0000     -10.291232      -280.0387
  12   2.0000     -10.285370      -279.8791
  13   2.0000     -10.282908      -279.8121
  14   2.0000     -10.276763      -279.6449
  15   2.0000     -10.274495      -279.5832
  16   2.0000      -8.079804      -219.8626
  17   2.0000      -8.077953      -219.8123
  18   2.0000      -6.038129      -164.3058
  19   2.0000      -6.036600      -164.2642
  20   2.0000      -6.033989      -164.1932
  21   2.0000      -6.032623      -164.1560
  22   2.0000      -6.030749      -164.1050
  23   2.0000      -6.028538      -164.0448
  24   2.0000      -1.008719       -27.4486
  25   2.0000      -0.982910       -26.7463
  26   2.0000      -0.908732       -24.7279
  27   2.0000      -0.902187       -24.5498
  28   2.0000      -0.872564       -23.7437
  29   2.0000      -0.851717       -23.1764
  30   2.0000      -0.844402       -22.9774
  31   2.0000      -0.810753       -22.0617
  32   2.0000      -0.783688       -21.3252
  33   2.0000      -0.772112       -21.0102
  34   2.0000      -0.708672       -19.2839
  35   2.0000      -0.701965       -19.1014
  36   2.0000      -0.690168       -18.7804
  37   2.0000      -0.668245       -18.1839
  38   2.0000      -0.637011       -17.3340
  39   2.0000      -0.609081       -16.5739
  40   2.0000      -0.593351       -16.1459
  41   2.0000      -0.570938       -15.5360
  42   2.0000      -0.566679       -15.4201
  43   2.0000      -0.559143       -15.2151
  44   2.0000      -0.526106       -14.3161
  45   2.0000      -0.521339       -14.1863
  46   2.0000      -0.520204       -14.1555
  47   2.0000      -0.510327       -13.8867
  48   2.0000      -0.504328       -13.7235
  49   2.0000      -0.500228       -13.6119
  50   2.0000      -0.495810       -13.4917
  51   2.0000      -0.484341       -13.1796
  52   2.0000      -0.475025       -12.9261
  53   2.0000      -0.464110       -12.6291
  54   2.0000      -0.456985       -12.4352
  55   2.0000      -0.446166       -12.1408
  56   2.0000      -0.443489       -12.0680
  57   2.0000      -0.435773       -11.8580
  58   2.0000      -0.430394       -11.7116
  59   2.0000      -0.424242       -11.5442
  60   2.0000      -0.422620       -11.5001
  61   2.0000      -0.416553       -11.3350
  62   2.0000      -0.412765       -11.2319
  63   2.0000      -0.343831        -9.3561
  64   2.0000      -0.330371        -8.9898
  65   2.0000      -0.327152        -8.9022
  66   2.0000      -0.293868        -7.9966
  67   0.0000       0.027745         0.7550
  68   0.0000       0.065034         1.7697
  69   0.0000       0.109487         2.9793
  70   0.0000       0.119981         3.2648
  71   0.0000       0.133822         3.6415

MULLIKEN ATOMIC CHARGES
-----------------------
   0 S :    0.093300
   1 C :   -0.164032
   2 C :   -0.067115
   3 C :    0.021483
   4 C :   -0.186271
   5 H :    0.036505
   6 C :    0.075153
   7 H :    0.024283
   8 H :    0.041133
   9 C :   -0.088067
  10 H :    0.042348
  11 H :    0.022128
  12 C :   -0.013154
  13 H :    0.005515
  14 H :    0.025950
  15 H :    0.034768
  16 S :    0.120276
  17 C :   -0.092231
  18 C :   -0.007277
  19 C :   -0.066946
  20 C :   -0.150626
  21 H :   -0.001951
  22 C :    0.105485
  23 H :   -0.004950
  24 H :    0.015354
  25 C :   -0.081605
  26 H :    0.024797
  27 H :    0.038544
  28 C :   -0.044475
  29 H :    0.021339
  30 H :    0.039730
  31 H :    0.035572
  32 H :    0.082417
  33 H :    0.062622
Sum of atomic charges:   -0.0000000

LOEWDIN ATOMIC CHARGES
----------------------
   0 S :    0.376844
   1 C :   -0.192303
   2 C :   -0.071727
   3 C :   -0.061563
   4 C :   -0.192352
   5 H :    0.037414
   6 C :   -0.028612
   7 H :    0.032744
   8 H :    0.032982
   9 C :   -0.039994
  10 H :    0.030474
  11 H :    0.020020
  12 C :   -0.063564
  13 H :    0.017723
  14 H :    0.023553
  15 H :    0.030078
  16 S :    0.441266
  17 C :   -0.196236
  18 C :   -0.066871
  19 C :   -0.049510
  20 C :   -0.216455
  21 H :    0.022801
  22 C :   -0.031230
  23 H :    0.020289
  24 H :    0.025502
  25 C :   -0.034045
  26 H :    0.017188
  27 H :    0.030094
  28 C :   -0.065493
  29 H :    0.023411
  30 H :    0.027046
  31 H :    0.026341
  32 H :    0.044985
  33 H :    0.029199

  Mayer bond orders larger than 0.100000
B(  0-S ,  1-C ) :   1.1315 B(  0-S ,  4-C ) :   1.1342 B(  1-C ,  2-C ) :   1.6290
B(  1-C , 32-H ) :   0.9584 B(  2-C ,  3-C ) :   1.2255 B(  2-C ,  6-C ) :   1.0025
B(  3-C ,  4-C ) :   1.5833 B(  3-C ,  5-H ) :   0.9769 B(  4-C , 20-C ) :   1.0608
B(  6-C ,  7-H ) :   0.9438 B(  6-C ,  8-H ) :   0.9375 B(  6-C ,  9-C ) :   1.0599
B(  9-C , 10-H ) :   0.9595 B(  9-C , 11-H ) :   0.9550 B(  9-C , 12-C ) :   1.0839
B( 12-C , 13-H ) :   0.9701 B( 12-C , 14-H ) :   0.9759 B( 12-C , 15-H ) :   0.9730
B( 16-S , 17-C ) :   1.1966 B( 16-S , 20-C ) :   1.1475 B( 17-C , 18-C ) :   1.5509
B( 17-C , 33-H ) :   0.9677 B( 18-C , 19-C ) :   1.2614 B( 18-C , 21-H ) :   1.0079
B( 19-C , 20-C ) :   1.5760 B( 19-C , 22-C ) :   1.0583 B( 22-C , 23-H ) :   0.9172
B( 22-C , 24-H ) :   0.9337 B( 22-C , 25-C ) :   1.0699 B( 25-C , 26-H ) :   0.9609
B( 25-C , 27-H ) :   0.9625 B( 25-C , 28-C ) :   1.0714 B( 28-C , 29-H ) :   0.9754
B( 28-C , 30-H ) :   0.9776 B( 28-C , 31-H ) :   0.9792

Dispersion correction           -0.013345468
FINAL SINGLE POINT ENERGY     -1339.874586983401

DIPOLE MOMENT
-------------
                                X             Y             Z
Electronic contribution:    -21.20691      16.25023       3.50501
Nuclear contribution   :     21.57596     -16.74682      -3.42699
                        -----------------------------------------
Total Dipole Moment    :      0.36904      -0.49660       0.07802
                        -----------------------------------------
Magnitude (a.u.)       :      0.62361
Magnitude (Debye)      :      1.58509

Rotational constants in cm-1:     0.018655     0.007437     0.006087
Rotational constants in MHz :   559.250802   222.958257   182.474697

                             ****ORCA TERMINATED NORMALLY****
TOTAL RUN TIME: 0 days 0 hours 0 minutes 33 seconds 161 msec
