                         Program Version 4.2.1 -  RELEASE  -
|  1> ! wB97X-D3 SP def2-SVP
|  2> %pal
|  3> nprocs 16
|  4> end
|  5>
|  6> * xyz 0 1
|  7> S 	 -111.035 	 48.2657 	 127.239
|  8> C 	 -111.636 	 49.4613 	 128.391
|  9> C 	 -111.92 	 48.846 	 129.585
| 10> C 	 -111.653 	 47.455 	 129.55
| 11> C 	 -111.24 	 46.9547 	 128.357
| 12> H 	 -111.833 	 46.7578 	 130.347
| 13> C 	 -112.598 	 49.4327 	 130.838
| 14> H 	 -113.348 	 48.6983 	 131.21
| 15> H 	 -113.205 	 50.2373 	 130.394
| 16> C 	 -111.682 	 49.9305 	 131.983
| 17> H 	 -110.956 	 49.0859 	 132.178
| 18> H 	 -111.025 	 50.7514 	 131.604
| 19> C 	 -112.457 	 50.4053 	 133.252
| 20> H 	 -113.17 	 51.2173 	 132.982
| 21> H 	 -112.97 	 49.6646 	 133.803
| 22> H 	 -111.66 	 50.8368 	 133.817
| 23> S 	 -111.675 	 45.2562 	 126.312
| 24> C 	 -111.422 	 43.5722 	 126.572
| 25> C 	 -111.097 	 43.2402 	 127.843
| 26> C 	 -110.801 	 44.4235 	 128.594
| 27> C 	 -110.994 	 45.6256 	 127.88
| 28> H 	 -111.011 	 42.1854 	 128.103
| 29> C 	 -110.338 	 44.2618 	 130.033
| 30> H 	 -111.156 	 43.9651 	 130.645
| 31> H 	 -110.065 	 45.2685 	 130.341
| 32> C 	 -109.216 	 43.2422 	 130.14
| 33> H 	 -108.369 	 43.5521 	 129.617
| 34> H 	 -109.496 	 42.2288 	 129.771
| 35> C 	 -108.898 	 43.1457 	 131.633
| 36> H 	 -109.818 	 42.7608 	 132.064
| 37> H 	 -108.663 	 44.1433 	 132.012
| 38> H 	 -108.08 	 42.3961 	 131.829
| 39> H 	 -111.932 	 50.5296 	 128.264
| 40> H 	 -111.546 	 42.7539 	 125.921
| 41> *
| 42>
| 43>                          ****END OF INPUT****

CARTESIAN COORDINATES (ANGSTROEM)
---------------------------------
  S    -111.035000   48.265700  127.239000
  C    -111.636000   49.461300  128.391000
  C    -111.920000   48.846000  129.585000
  C    -111.653000   47.455000  129.550000
  C    -111.240000   46.954700  128.357000
  H    -111.833000   46.757800  130.347000
  C    -112.598000   49.432700  130.838000
  H    -113.348000   48.698300  131.210000
  H    -113.205000   50.237300  130.394000
  C    -111.682000   49.930500  131.983000
  H    -110.956000   49.085900  132.178000
  H    -111.025000   50.751400  131.604000
  C    -112.457000   50.405300  133.252000
  H    -113.170000   51.217300  132.982000
  H    -112.970000   49.664600  133.803000
  H    -111.660000   50.836800  133.817000
  S    -111.675000   45.256200  126.312000
  C    -111.422000   43.572200  126.572000
  C    -111.097000   43.240200  127.843000
  C    -110.801000   44.423500  128.594000
  C    -110.994000   45.625600  127.880000
  H    -111.011000   42.185400  128.103000
  C    -110.338000   44.261800  130.033000
  H    -111.156000   43.965100  130.645000
  H    -110.065000   45.268500  130.341000
  C    -109.216000   43.242200  130.140000
  H    -108.369000   43.552100  129.617000
  H    -109.496000   42.228800  129.771000
  C    -108.898000   43.145700  131.633000
  H    -109.818000   42.760800  132.064000
  H    -108.663000   44.143300  132.012000
  H    -108.080000   42.396100  131.829000
  H    -111.932000   50.529600  128.264000
  H    -111.546000   42.753900  125.921000

 Total Charge           Charge          ....    0
 Multiplicity           Mult            ....    1
 Number of Electrons    NEL             ....  134
 Basis Dimension        Dim             ....  322

ORBITAL ENERGIES
----------------

  NO   OCC          E(Eh)            E(eV)
   0   2.0000     -88.966465     -2420.9006
   1   2.0000     -88.962765     -2420.7999
   2   2.0000     -10.325269      -280.9649
   3   2.0000     -10.324803      -280.9522
   4   2.0000     -10.315541      -280.7001
   5   2.0000     -10.309944      -280.5478
   6   2.0000     -10.305910      -280.4381
   7   2.0000     -10.297682      -280.2142
   8   2.0000     -10.297556      -280.2107
   9   2.0000     -10.295679      -280.1597
  10   2.0000     -10.290427      -280.0168
  11   2.0000     -10.288537      -279.9653
  12   2.0000     -10.285135      -279.8727
  13   2.0000     -10.282755      -279.8080
  14   2.0000     -10.280422      -279.7445
  15   2.0000     -10.280147      -279.7370
  16   2.0000      -8.081697      -219.9142
  17   2.0000      -8.077629      -219.8035
  18   2.0000      -6.040237      -164.3632
  19   2.0000      -6.036368      -164.2579
  20   2.0000      -6.036221      -164.2539
  21   2.0000      -6.032276      -164.1466
  22   2.0000      -6.032018      -164.1396
  23   2.0000      -6.028226      -164.0364
  24   2.0000      -1.013278       -27.5727
  25   2.0000      -0.987836       -26.8804
  26   2.0000      -0.919344       -25.0166
  27   2.0000      -0.905763       -24.6471
  28   2.0000      -0.874655       -23.8006
  29   2.0000      -0.853521       -23.2255
  30   2.0000      -0.843532       -22.9537
  31   2.0000      -0.818412       -22.2701
  32   2.0000      -0.782482       -21.2924
  33   2.0000      -0.768677       -20.9168
  34   2.0000      -0.708334       -19.2747
  35   2.0000      -0.703300       -19.1378
  36   2.0000      -0.697252       -18.9732
  37   2.0000      -0.659005       -17.9324
  38   2.0000      -0.637435       -17.3455
  39   2.0000      -0.620774       -16.8921
  40   2.0000      -0.596230       -16.2242
  41   2.0000      -0.577040       -15.7021
  42   2.0000      -0.569142       -15.4871
  43   2.0000      -0.555637       -15.1197
  44   2.0000      -0.528760       -14.3883
  45   2.0000      -0.526706       -14.3324
  46   2.0000      -0.522368       -14.2144
  47   2.0000      -0.512701       -13.9513
  48   2.0000      -0.507874       -13.8200
  49   2.0000      -0.495815       -13.4918
  50   2.0000      -0.489081       -13.3086
  51   2.0000      -0.485626       -13.2146
  52   2.0000      -0.468198       -12.7403
  53   2.0000      -0.462181       -12.5766
  54   2.0000      -0.460289       -12.5251
  55   2.0000      -0.450239       -12.2516
  56   2.0000      -0.445450       -12.1213
  57   2.0000      -0.440810       -11.9951
  58   2.0000      -0.436661       -11.8822
  59   2.0000      -0.428533       -11.6610
  60   2.0000      -0.418942       -11.4000
  61   2.0000      -0.413595       -11.2545
  62   2.0000      -0.413066       -11.2401
  63   2.0000      -0.357865        -9.7380
  64   2.0000      -0.330809        -9.0018
  65   2.0000      -0.328912        -8.9501
  66   2.0000      -0.287439        -7.8216
  67   0.0000       0.024348         0.6626
  68   0.0000       0.081998         2.2313
  69   0.0000       0.106506         2.8982
  70   0.0000       0.121950         3.3184
  71   0.0000       0.128967         3.5094

MULLIKEN ATOMIC CHARGES
-----------------------
   0 S :    0.092302
   1 C :   -0.120636
   2 C :   -0.096867
   3 C :    0.008046
   4 C :   -0.139706
   5 H :   -0.002835
   6 C :    0.040115
   7 H :    0.033844
   8 H :    0.016469
   9 C :   -0.101172
  10 H :    0.034347
  11 H :    0.035408
  12 C :   -0.018789
  13 H :    0.036257
  14 H :    0.034463
  15 H :    0.034041
  16 S :    0.106314
  17 C :   -0.044437
  18 C :   -0.052870
  19 C :   -0.094286
  20 C :   -0.070866
  21 H :    0.025299
  22 C :    0.070144
  23 H :    0.025132
  24 H :    0.019677
  25 C :   -0.071698
  26 H :    0.023544
  27 H :    0.032744
  28 C :   -0.038534
  29 H :    0.021672
  30 H :    0.034259
  31 H :    0.041706
  32 H :    0.057306
  33 H :    0.029605
Sum of atomic charges:   -0.0000000

LOEWDIN ATOMIC CHARGES
----------------------
   0 S :    0.398811
   1 C :   -0.205984
   2 C :   -0.066184
   3 C :   -0.074622
   4 C :   -0.190695
   5 H :    0.026037
   6 C :   -0.038696
   7 H :    0.033333
   8 H :    0.027246
   9 C :   -0.044952
  10 H :    0.028026
  11 H :    0.028871
  12 C :   -0.060373
  13 H :    0.031551
  14 H :    0.019419
  15 H :    0.028093
  16 S :    0.419765
  17 C :   -0.178621
  18 C :   -0.074079
  19 C :   -0.043231
  20 C :   -0.213237
  21 H :    0.035433
  22 C :   -0.029750
  23 H :    0.027410
  24 H :    0.028436
  25 C :   -0.032503
  26 H :    0.017159
  27 H :    0.025152
  28 C :   -0.061748
  29 H :    0.021707
  30 H :    0.024849
  31 H :    0.029120
  32 H :    0.041494
  33 H :    0.022764

  Mayer bond orders larger than 0.100000
B(  0-S ,  1-C ) :   1.1213 B(  0-S ,  4-C ) :   1.1389 B(  1-C ,  2-C ) :   1.6413
B(  1-C , 32-H ) :   0.9584 B(  2-C ,  3-C ) :   1.2348 B(  2-C ,  6-C ) :   1.0061
B(  3-C ,  4-C ) :   1.5962 B(  3-C ,  5-H ) :   0.9927 B(  4-C , 20-C ) :   1.0353
B(  6-C ,  7-H ) :   0.9498 B(  6-C ,  8-H ) :   0.9388 B(  6-C ,  9-C ) :   1.0564
B(  9-C , 10-H ) :   0.9567 B(  9-C , 11-H ) :   0.9561 B(  9-C , 12-C ) :   1.0701
B( 12-C , 13-H ) :   0.9743 B( 12-C , 14-H ) :   0.9777 B( 12-C , 15-H ) :   0.9751
B( 16-S , 17-C ) :   1.1612 B( 16-S , 20-C ) :   1.1193 B( 17-C , 18-C ) :   1.6334
B( 17-C , 33-H ) :   0.9628 B( 18-C , 19-C ) :   1.2340 B( 18-C , 21-H ) :   0.9895
B( 19-C , 20-C ) :   1.5920 B( 19-C , 22-C ) :   1.0359 B( 22-C , 23-H ) :   0.9298
B( 22-C , 24-H ) :   0.9347 B( 22-C , 25-C ) :   1.0676 B( 25-C , 26-H ) :   0.9549
B( 25-C , 27-H ) :   0.9522 B( 25-C , 28-C ) :   1.0830 B( 28-C , 29-H ) :   0.9756
B( 28-C , 30-H ) :   0.9730 B( 28-C , 31-H ) :   0.9730

Dispersion correction           -0.013229748
FINAL SINGLE POINT ENERGY     -1339.872573683687

DIPOLE MOMENT
-------------
                                X             Y             Z
Electronic contribution:     -3.03454      -0.03296     -30.67297
Nuclear contribution   :      2.86221      -0.30100      31.37051
                        -----------------------------------------
Total Dipole Moment    :     -0.17233      -0.33396       0.69754
                        -----------------------------------------
Magnitude (a.u.)       :      0.79233
Magnitude (Debye)      :      2.01394

Rotational constants in cm-1:     0.017100     0.008439     0.006037
Rotational constants in MHz :   512.650114   253.003168   180.982673

                             ****ORCA TERMINATED NORMALLY****
TOTAL RUN TIME: 0 days 0 hours 0 minutes 34 seconds 651 msec
