                         Program Version 4.2.1 -  RELEASE  -
|  1> ! wB97X-D3 SP def2-SVP
|  2> %pal
|  3> nprocs 16
|  4> end
|  5>
|  6> * xyz 0 1
|  7> S 	 -92.6664 	 40.4639 	 121.575
|  8> C 	 -92.3012 	 39.9115 	 123.19
|  9> C 	 -93.4602 	 39.9383 	 124.002
| 10> C 	 -94.6184 	 40.3514 	 123.264
| 11> C 	 -94.3399 	 40.6026 	 121.926
| 12> H 	 -95.6062 	 40.4418 	 123.627
| 13> C 	 -93.5072 	 39.5971 	 125.489
| 14> H 	 -92.6562 	 38.9787 	 125.635
| 15> H 	 -94.4005 	 39.0294 	 125.703
| 16> C 	 -93.4047 	 40.8135 	 126.383
| 17> H 	 -92.6172 	 41.5141 	 126.075
| 18> H 	 -94.3182 	 41.4036 	 126.274
| 19> C 	 -93.2956 	 40.5575 	 127.957
| 20> H 	 -93.248 	 41.4882 	 128.574
| 21> H 	 -94.1161 	 39.9153 	 128.104
| 22> H 	 -92.404 	 40.0639 	 128.301
| 23> S 	 -95.1806 	 42.5985 	 120.192
| 24> C 	 -96.6594 	 42.4513 	 119.253
| 25> C 	 -97.1617 	 41.1775 	 119.388
| 26> C 	 -96.5219 	 40.4425 	 120.404
| 27> C 	 -95.4169 	 41.043 	 120.969
| 28> H 	 -97.9967 	 40.8631 	 118.794
| 29> C 	 -97.2406 	 39.146 	 120.936
| 30> H 	 -98.3058 	 39.4798 	 120.901
| 31> H 	 -97.0556 	 39.0259 	 121.974
| 32> C 	 -97.124 	 37.8755 	 120.06
| 33> H 	 -96.1927 	 37.5394 	 120.131
| 34> H 	 -97.1578 	 38.0093 	 118.971
| 35> C 	 -98.169 	 36.8116 	 120.437
| 36> H 	 -98.9766 	 36.8386 	 119.669
| 37> H 	 -98.6961 	 37.0069 	 121.375
| 38> H 	 -97.7029 	 35.8181 	 120.255
| 39> H 	 -91.3663 	 39.4812 	 123.459
| 40> H 	 -97.0326 	 43.1548 	 118.549
| 41> *
| 42>
| 43>                          ****END OF INPUT****

CARTESIAN COORDINATES (ANGSTROEM)
---------------------------------
  S    -92.666400   40.463900  121.575000
  C    -92.301200   39.911500  123.190000
  C    -93.460200   39.938300  124.002000
  C    -94.618400   40.351400  123.264000
  C    -94.339900   40.602600  121.926000
  H    -95.606200   40.441800  123.627000
  C    -93.507200   39.597100  125.489000
  H    -92.656200   38.978700  125.635000
  H    -94.400500   39.029400  125.703000
  C    -93.404700   40.813500  126.383000
  H    -92.617200   41.514100  126.075000
  H    -94.318200   41.403600  126.274000
  C    -93.295600   40.557500  127.957000
  H    -93.248000   41.488200  128.574000
  H    -94.116100   39.915300  128.104000
  H    -92.404000   40.063900  128.301000
  S    -95.180600   42.598500  120.192000
  C    -96.659400   42.451300  119.253000
  C    -97.161700   41.177500  119.388000
  C    -96.521900   40.442500  120.404000
  C    -95.416900   41.043000  120.969000
  H    -97.996700   40.863100  118.794000
  C    -97.240600   39.146000  120.936000
  H    -98.305800   39.479800  120.901000
  H    -97.055600   39.025900  121.974000
  C    -97.124000   37.875500  120.060000
  H    -96.192700   37.539400  120.131000
  H    -97.157800   38.009300  118.971000
  C    -98.169000   36.811600  120.437000
  H    -98.976600   36.838600  119.669000
  H    -98.696100   37.006900  121.375000
  H    -97.702900   35.818100  120.255000
  H    -91.366300   39.481200  123.459000
  H    -97.032600   43.154800  118.549000

 Total Charge           Charge          ....    0
 Multiplicity           Mult            ....    1
 Number of Electrons    NEL             ....  134
 Basis Dimension        Dim             ....  322

ORBITAL ENERGIES
----------------

  NO   OCC          E(Eh)            E(eV)
   0   2.0000     -88.971646     -2421.0416
   1   2.0000     -88.961016     -2420.7523
   2   2.0000     -10.331884      -281.1448
   3   2.0000     -10.328717      -281.0587
   4   2.0000     -10.316599      -280.7289
   5   2.0000     -10.315075      -280.6875
   6   2.0000     -10.307027      -280.4685
   7   2.0000     -10.302688      -280.3504
   8   2.0000     -10.294117      -280.1172
   9   2.0000     -10.291593      -280.0485
  10   2.0000     -10.290645      -280.0227
  11   2.0000     -10.289698      -279.9969
  12   2.0000     -10.288104      -279.9535
  13   2.0000     -10.281853      -279.7835
  14   2.0000     -10.279110      -279.7088
  15   2.0000     -10.275638      -279.6143
  16   2.0000      -8.086587      -220.0472
  17   2.0000      -8.075804      -219.7538
  18   2.0000      -6.044995      -164.4927
  19   2.0000      -6.040969      -164.3831
  20   2.0000      -6.037535      -164.2897
  21   2.0000      -6.034290      -164.2014
  22   2.0000      -6.030274      -164.0921
  23   2.0000      -6.026611      -163.9924
  24   2.0000      -1.005919       -27.3725
  25   2.0000      -0.985954       -26.8292
  26   2.0000      -0.910570       -24.7779
  27   2.0000      -0.902818       -24.5669
  28   2.0000      -0.864752       -23.5311
  29   2.0000      -0.849742       -23.1227
  30   2.0000      -0.845368       -23.0036
  31   2.0000      -0.815253       -22.1842
  32   2.0000      -0.781567       -21.2675
  33   2.0000      -0.770231       -20.9590
  34   2.0000      -0.708995       -19.2927
  35   2.0000      -0.701674       -19.0935
  36   2.0000      -0.695901       -18.9364
  37   2.0000      -0.663158       -18.0455
  38   2.0000      -0.648303       -17.6412
  39   2.0000      -0.619565       -16.8592
  40   2.0000      -0.593794       -16.1580
  41   2.0000      -0.576781       -15.6950
  42   2.0000      -0.560169       -15.2430
  43   2.0000      -0.551594       -15.0096
  44   2.0000      -0.532495       -14.4899
  45   2.0000      -0.526180       -14.3181
  46   2.0000      -0.515860       -14.0373
  47   2.0000      -0.509789       -13.8721
  48   2.0000      -0.506669       -13.7872
  49   2.0000      -0.500498       -13.6193
  50   2.0000      -0.490681       -13.3521
  51   2.0000      -0.481258       -13.0957
  52   2.0000      -0.476129       -12.9561
  53   2.0000      -0.461672       -12.5627
  54   2.0000      -0.460348       -12.5267
  55   2.0000      -0.451601       -12.2887
  56   2.0000      -0.446373       -12.1464
  57   2.0000      -0.443238       -12.0611
  58   2.0000      -0.440163       -11.9775
  59   2.0000      -0.419782       -11.4229
  60   2.0000      -0.415151       -11.2968
  61   2.0000      -0.410139       -11.1604
  62   2.0000      -0.404732       -11.0133
  63   2.0000      -0.342626        -9.3233
  64   2.0000      -0.332229        -9.0404
  65   2.0000      -0.326910        -8.8957
  66   2.0000      -0.297948        -8.1076
  67   0.0000       0.039239         1.0677
  68   0.0000       0.060751         1.6531
  69   0.0000       0.120234         3.2717
  70   0.0000       0.122109         3.3227
  71   0.0000       0.129512         3.5242

MULLIKEN ATOMIC CHARGES
-----------------------
   0 S :    0.134640
   1 C :   -0.125827
   2 C :   -0.099979
   3 C :    0.036898
   4 C :   -0.133892
   5 H :    0.002278
   6 C :    0.121437
   7 H :    0.006752
   8 H :    0.023908
   9 C :   -0.094860
  10 H :    0.031995
  11 H :    0.025300
  12 C :   -0.043266
  13 H :    0.045530
  14 H :    0.024261
  15 H :    0.024150
  16 S :    0.087492
  17 C :   -0.082061
  18 C :   -0.029376
  19 C :   -0.026570
  20 C :   -0.178615
  21 H :    0.017176
  22 C :    0.046122
  23 H :    0.027037
  24 H :    0.015686
  25 C :   -0.011079
  26 H :   -0.002687
  27 H :    0.020294
  28 C :   -0.067771
  29 H :    0.026876
  30 H :    0.043179
  31 H :    0.041861
  32 H :    0.044012
  33 H :    0.049098
Sum of atomic charges:    0.0000000

LOEWDIN ATOMIC CHARGES
----------------------
   0 S :    0.433438
   1 C :   -0.202484
   2 C :   -0.050210
   3 C :   -0.059860
   4 C :   -0.206739
   5 H :    0.024730
   6 C :   -0.027678
   7 H :    0.025437
   8 H :    0.029509
   9 C :   -0.040198
  10 H :    0.024177
  11 H :    0.023742
  12 C :   -0.066296
  13 H :    0.035236
  14 H :    0.018049
  15 H :    0.019169
  16 S :    0.395268
  17 C :   -0.175244
  18 C :   -0.070361
  19 C :   -0.060107
  20 C :   -0.197203
  21 H :    0.030841
  22 C :   -0.021485
  23 H :    0.032666
  24 H :    0.021854
  25 C :   -0.037458
  26 H :    0.005428
  27 H :    0.029445
  28 C :   -0.069980
  29 H :    0.027678
  30 H :    0.026766
  31 H :    0.034093
  32 H :    0.022545
  33 H :    0.025233

  Mayer bond orders larger than 0.100000
B(  0-S ,  1-C ) :   1.1488 B(  0-S ,  4-C ) :   1.1787 B(  1-C ,  2-C ) :   1.5760
B(  1-C , 32-H ) :   0.9740 B(  2-C ,  3-C ) :   1.2555 B(  2-C ,  6-C ) :   1.0314
B(  3-C ,  4-C ) :   1.5523 B(  3-C ,  5-H ) :   1.0004 B(  4-C , 20-C ) :   0.9994
B(  6-C ,  7-H ) :   0.9333 B(  6-C ,  8-H ) :   0.9357 B(  6-C ,  9-C ) :   1.0657
B(  9-C , 10-H ) :   0.9585 B(  9-C , 11-H ) :   0.9572 B(  9-C , 12-C ) :   1.0649
B( 12-C , 13-H ) :   0.9762 B( 12-C , 14-H ) :   0.9773 B( 12-C , 15-H ) :   0.9795
B( 16-S , 17-C ) :   1.1584 B( 16-S , 20-C ) :   1.1369 B( 17-C , 18-C ) :   1.6058
B( 17-C , 33-H ) :   0.9718 B( 18-C , 19-C ) :   1.2588 B( 18-C , 21-H ) :   0.9907
B( 19-C , 20-C ) :   1.6194 B( 19-C , 22-C ) :   1.0078 B( 22-C , 23-H ) :   0.9515
B( 22-C , 24-H ) :   0.9447 B( 22-C , 25-C ) :   1.0485 B( 25-C , 26-H ) :   0.9577
B( 25-C , 27-H ) :   0.9581 B( 25-C , 28-C ) :   1.0623 B( 28-C , 29-H ) :   0.9786
B( 28-C , 30-H ) :   0.9786 B( 28-C , 31-H ) :   0.9753

Dispersion correction           -0.013314152
FINAL SINGLE POINT ENERGY     -1339.858907338227

DIPOLE MOMENT
-------------
                                X             Y             Z
Electronic contribution:     10.33998      15.52442     -17.80978
Nuclear contribution   :    -10.67475     -15.92646      18.04033
                        -----------------------------------------
Total Dipole Moment    :     -0.33477      -0.40204       0.23054
                        -----------------------------------------
Magnitude (a.u.)       :      0.57171
Magnitude (Debye)      :      1.45318

Rotational constants in cm-1:     0.017726     0.007466     0.006270
Rotational constants in MHz :   531.412261   223.814591   187.960963

                             ****ORCA TERMINATED NORMALLY****
TOTAL RUN TIME: 0 days 0 hours 0 minutes 31 seconds 611 msec
