                         Program Version 4.2.1 -  RELEASE  -
|  1> ! wB97X-D3 SP def2-SVP
|  2> %pal
|  3> nprocs 16
|  4> end
|  5>
|  6> * xyz 0 1
|  7> S 	 -4.7446 	 -7.89337 	 82.3817
|  8> C 	 -5.87091 	 -8.65449 	 81.2671
|  9> C 	 -7.0923 	 -8.03246 	 81.2579
| 10> C 	 -7.17651 	 -6.95258 	 82.2679
| 11> C 	 -6.09464 	 -6.84796 	 83.0671
| 12> H 	 -8.0544 	 -6.33386 	 82.5199
| 13> C 	 -8.36211 	 -8.47787 	 80.5723
| 14> H 	 -8.95603 	 -7.62275 	 80.2224
| 15> H 	 -8.95041 	 -8.97718 	 81.3583
| 16> C 	 -8.23369 	 -9.48294 	 79.4141
| 17> H 	 -7.42092 	 -9.13014 	 78.8061
| 18> H 	 -8.16129 	 -10.4887 	 79.8259
| 19> C 	 -9.48384 	 -9.35936 	 78.5295
| 20> H 	 -10.4284 	 -9.72156 	 78.8855
| 21> H 	 -9.60129 	 -8.41771 	 78.1037
| 22> H 	 -9.38526 	 -9.98038 	 77.6624
| 23> S 	 -5.26339 	 -6.55319 	 85.6325
| 24> C 	 -5.35179 	 -5.05693 	 86.4918
| 25> C 	 -6.03271 	 -4.13521 	 85.6958
| 26> C 	 -6.43325 	 -4.61564 	 84.4003
| 27> C 	 -5.97061 	 -5.90715 	 84.2026
| 28> H 	 -6.37288 	 -3.13743 	 86.0761
| 29> C 	 -7.00147 	 -3.68955 	 83.3603
| 30> H 	 -7.33853 	 -4.40336 	 82.55
| 31> H 	 -6.22534 	 -2.97304 	 83.0229
| 32> C 	 -8.24573 	 -2.9367 	 83.8588
| 33> H 	 -8.03058 	 -2.21563 	 84.6906
| 34> H 	 -9.00327 	 -3.64095 	 84.1458
| 35> C 	 -8.89261 	 -2.15435 	 82.6413
| 36> H 	 -8.18542 	 -1.37748 	 82.4071
| 37> H 	 -9.77791 	 -1.76982 	 83.091
| 38> H 	 -9.06934 	 -2.79829 	 81.7148
| 39> H 	 -5.62056 	 -9.47225 	 80.6344
| 40> H 	 -4.95572 	 -4.89478 	 87.5109
| 41> *
| 42>
| 43>                          ****END OF INPUT****

CARTESIAN COORDINATES (ANGSTROEM)
---------------------------------
  S     -4.744600   -7.893370   82.381700
  C     -5.870910   -8.654490   81.267100
  C     -7.092300   -8.032460   81.257900
  C     -7.176510   -6.952580   82.267900
  C     -6.094640   -6.847960   83.067100
  H     -8.054400   -6.333860   82.519900
  C     -8.362110   -8.477870   80.572300
  H     -8.956030   -7.622750   80.222400
  H     -8.950410   -8.977180   81.358300
  C     -8.233690   -9.482940   79.414100
  H     -7.420920   -9.130140   78.806100
  H     -8.161290  -10.488700   79.825900
  C     -9.483840   -9.359360   78.529500
  H    -10.428400   -9.721560   78.885500
  H     -9.601290   -8.417710   78.103700
  H     -9.385260   -9.980380   77.662400
  S     -5.263390   -6.553190   85.632500
  C     -5.351790   -5.056930   86.491800
  C     -6.032710   -4.135210   85.695800
  C     -6.433250   -4.615640   84.400300
  C     -5.970610   -5.907150   84.202600
  H     -6.372880   -3.137430   86.076100
  C     -7.001470   -3.689550   83.360300
  H     -7.338530   -4.403360   82.550000
  H     -6.225340   -2.973040   83.022900
  C     -8.245730   -2.936700   83.858800
  H     -8.030580   -2.215630   84.690600
  H     -9.003270   -3.640950   84.145800
  C     -8.892610   -2.154350   82.641300
  H     -8.185420   -1.377480   82.407100
  H     -9.777910   -1.769820   83.091000
  H     -9.069340   -2.798290   81.714800
  H     -5.620560   -9.472250   80.634400
  H     -4.955720   -4.894780   87.510900

 Total Charge           Charge          ....    0
 Multiplicity           Mult            ....    1
 Number of Electrons    NEL             ....  134
 Basis Dimension        Dim             ....  322

ORBITAL ENERGIES
----------------

  NO   OCC          E(Eh)            E(eV)
   0   2.0000     -88.963197     -2420.8117
   1   2.0000     -88.962336     -2420.7882
   2   2.0000     -10.334075      -281.2045
   3   2.0000     -10.326256      -280.9917
   4   2.0000     -10.320629      -280.8386
   5   2.0000     -10.312883      -280.6278
   6   2.0000     -10.304548      -280.4010
   7   2.0000     -10.301257      -280.3115
   8   2.0000     -10.297959      -280.2217
   9   2.0000     -10.296886      -280.1925
  10   2.0000     -10.296062      -280.1701
  11   2.0000     -10.292295      -280.0676
  12   2.0000     -10.291890      -280.0566
  13   2.0000     -10.288894      -279.9750
  14   2.0000     -10.282156      -279.7917
  15   2.0000     -10.270254      -279.4678
  16   2.0000      -8.078975      -219.8401
  17   2.0000      -8.075819      -219.7542
  18   2.0000      -6.037387      -164.2857
  19   2.0000      -6.034674      -164.2118
  20   2.0000      -6.033197      -164.1716
  21   2.0000      -6.030713      -164.1040
  22   2.0000      -6.029894      -164.0818
  23   2.0000      -6.026065      -163.9776
  24   2.0000      -1.005577       -27.3631
  25   2.0000      -0.979398       -26.6508
  26   2.0000      -0.912654       -24.8346
  27   2.0000      -0.909799       -24.7569
  28   2.0000      -0.870146       -23.6779
  29   2.0000      -0.850426       -23.1413
  30   2.0000      -0.843905       -22.9638
  31   2.0000      -0.814745       -22.1703
  32   2.0000      -0.777730       -21.1631
  33   2.0000      -0.769568       -20.9410
  34   2.0000      -0.713848       -19.4248
  35   2.0000      -0.698780       -19.0148
  36   2.0000      -0.689100       -18.7514
  37   2.0000      -0.658038       -17.9061
  38   2.0000      -0.638738       -17.3809
  39   2.0000      -0.609520       -16.5859
  40   2.0000      -0.593334       -16.1455
  41   2.0000      -0.583843       -15.8872
  42   2.0000      -0.572518       -15.5790
  43   2.0000      -0.564470       -15.3600
  44   2.0000      -0.531149       -14.4533
  45   2.0000      -0.521493       -14.1906
  46   2.0000      -0.515758       -14.0345
  47   2.0000      -0.508093       -13.8259
  48   2.0000      -0.505678       -13.7602
  49   2.0000      -0.495508       -13.4835
  50   2.0000      -0.492652       -13.4057
  51   2.0000      -0.478163       -13.0115
  52   2.0000      -0.474419       -12.9096
  53   2.0000      -0.465144       -12.6572
  54   2.0000      -0.462484       -12.5848
  55   2.0000      -0.447355       -12.1732
  56   2.0000      -0.444499       -12.0954
  57   2.0000      -0.437702       -11.9105
  58   2.0000      -0.434520       -11.8239
  59   2.0000      -0.428780       -11.6677
  60   2.0000      -0.419411       -11.4127
  61   2.0000      -0.414401       -11.2764
  62   2.0000      -0.407645       -11.0926
  63   2.0000      -0.353634        -9.6229
  64   2.0000      -0.328479        -8.9384
  65   2.0000      -0.322382        -8.7725
  66   2.0000      -0.294748        -8.0205
  67   0.0000       0.030407         0.8274
  68   0.0000       0.076731         2.0880
  69   0.0000       0.105478         2.8702
  70   0.0000       0.115451         3.1416
  71   0.0000       0.127528         3.4702

MULLIKEN ATOMIC CHARGES
-----------------------
   0 S :    0.090526
   1 C :   -0.114331
   2 C :   -0.065257
   3 C :   -0.005675
   4 C :   -0.110676
   5 H :    0.030711
   6 C :    0.020780
   7 H :    0.028781
   8 H :    0.046758
   9 C :   -0.061630
  10 H :    0.034221
  11 H :    0.042747
  12 C :   -0.024370
  13 H :    0.023238
  14 H :    0.016704
  15 H :    0.010720
  16 S :    0.110229
  17 C :   -0.103183
  18 C :   -0.048730
  19 C :   -0.034985
  20 C :   -0.170217
  21 H :    0.030810
  22 C :    0.049328
  23 H :    0.018245
  24 H :    0.054847
  25 C :   -0.137478
  26 H :    0.046231
  27 H :    0.029732
  28 C :   -0.036044
  29 H :    0.029037
  30 H :    0.033492
  31 H :    0.047891
  32 H :    0.042746
  33 H :    0.074803
Sum of atomic charges:   -0.0000000

LOEWDIN ATOMIC CHARGES
----------------------
   0 S :    0.350388
   1 C :   -0.188737
   2 C :   -0.062441
   3 C :   -0.064595
   4 C :   -0.162743
   5 H :    0.035441
   6 C :   -0.038133
   7 H :    0.030621
   8 H :    0.039731
   9 C :   -0.035277
  10 H :    0.025843
  11 H :    0.028911
  12 C :   -0.061867
  13 H :    0.023039
  14 H :    0.017153
  15 H :    0.024628
  16 S :    0.431808
  17 C :   -0.200119
  18 C :   -0.076719
  19 C :   -0.066095
  20 C :   -0.206743
  21 H :    0.033847
  22 C :   -0.036630
  23 H :    0.035478
  24 H :    0.039101
  25 C :   -0.039632
  26 H :    0.026684
  27 H :    0.020199
  28 C :   -0.062342
  29 H :    0.020696
  30 H :    0.021602
  31 H :    0.033444
  32 H :    0.024440
  33 H :    0.039017

  Mayer bond orders larger than 0.100000
B(  0-S ,  1-C ) :   1.1023 B(  0-S ,  4-C ) :   1.0979 B(  1-C ,  2-C ) :   1.6717
B(  1-C , 32-H ) :   0.9662 B(  2-C ,  3-C ) :   1.1721 B(  2-C ,  6-C ) :   1.0216
B(  3-C ,  4-C ) :   1.6664 B(  3-C ,  5-H ) :   0.9791 B(  4-C , 20-C ) :   1.0304
B(  6-C ,  7-H ) :   0.9467 B(  6-C ,  8-H ) :   0.9342 B(  6-C ,  9-C ) :   1.0739
B(  9-C , 10-H ) :   0.9563 B(  9-C , 11-H ) :   0.9497 B(  9-C , 12-C ) :   1.0987
B( 12-C , 13-H ) :   0.9734 B( 12-C , 14-H ) :   0.9733 B( 12-C , 15-H ) :   0.9680
B( 16-S , 17-C ) :   1.1645 B( 16-S , 20-C ) :   1.1643 B( 17-C , 18-C ) :   1.5791
B( 17-C , 33-H ) :   0.9690 B( 18-C , 19-C ) :   1.2582 B( 18-C , 21-H ) :   0.9795
B( 19-C , 20-C ) :   1.5701 B( 19-C , 22-C ) :   1.0445 B( 22-C , 23-H ) :   0.9317
B( 22-C , 24-H ) :   0.9364 B( 22-C , 25-C ) :   1.0629 B( 25-C , 26-H ) :   0.9530
B( 25-C , 27-H ) :   0.9593 B( 25-C , 28-C ) :   1.0769 B( 28-C , 29-H ) :   0.9763
B( 28-C , 30-H ) :   0.9766 B( 28-C , 31-H ) :   0.9751

Dispersion correction           -0.013299986
FINAL SINGLE POINT ENERGY     -1339.872630718752

DIPOLE MOMENT
-------------
                                X             Y             Z
Electronic contribution:     23.23162      -7.50604      18.22626
Nuclear contribution   :    -23.91296       7.76243     -18.46455
                        -----------------------------------------
Total Dipole Moment    :     -0.68134       0.25639      -0.23830
                        -----------------------------------------
Magnitude (a.u.)       :      0.76599
Magnitude (Debye)      :      1.94700

Rotational constants in cm-1:     0.017941     0.007933     0.005856
Rotational constants in MHz :   537.868314   237.814629   175.565416

                             ****ORCA TERMINATED NORMALLY****
TOTAL RUN TIME: 0 days 0 hours 0 minutes 32 seconds 947 msec
