                         Program Version 4.2.1 -  RELEASE  -
|  1> ! wB97X-D3 SP def2-SVP
|  2> %pal
|  3> nprocs 16
|  4> end
|  5>
|  6> * xyz 0 1
|  7> S 	 55.7813 	 21.2519 	 48.1794
|  8> C 	 54.7112 	 22.6091 	 48.0048
|  9> C 	 53.4865 	 22.3355 	 48.5474
| 10> C 	 53.449 	 21.016 	 49.1437
| 11> C 	 54.5363 	 20.2783 	 48.8858
| 12> H 	 52.6785 	 20.6568 	 49.7659
| 13> C 	 52.2843 	 23.3495 	 48.6281
| 14> H 	 52.7616 	 24.3216 	 48.6891
| 15> H 	 51.8797 	 23.0358 	 49.5674
| 16> C 	 51.0715 	 23.4031 	 47.6232
| 17> H 	 50.3408 	 22.6124 	 47.7426
| 18> H 	 50.5864 	 24.3656 	 47.7622
| 19> C 	 51.5175 	 23.4072 	 46.1462
| 20> H 	 52.1684 	 24.2497 	 46.0266
| 21> H 	 52.0247 	 22.4937 	 45.7971
| 22> H 	 50.6238 	 23.6199 	 45.4177
| 23> S 	 56.4895 	 18.6786 	 49.7013
| 24> C 	 56.2132 	 17.0114 	 50.0551
| 25> C 	 54.9004 	 16.6659 	 49.8792
| 26> C 	 54.0639 	 17.7569 	 49.5279
| 27> C 	 54.7935 	 18.9146 	 49.2836
| 28> H 	 54.5949 	 15.6409 	 49.9795
| 29> C 	 52.6007 	 17.5438 	 49.2305
| 30> H 	 52.1005 	 18.5478 	 49.4595
| 31> H 	 52.0794 	 16.8524 	 49.8687
| 32> C 	 52.3899 	 17.1282 	 47.7235
| 33> H 	 52.737 	 16.1189 	 47.6317
| 34> H 	 53.0515 	 17.6887 	 47.1159
| 35> C 	 50.9242 	 17.1363 	 47.2423
| 36> H 	 50.2456 	 16.5687 	 47.8996
| 37> H 	 50.8952 	 16.6477 	 46.2482
| 38> H 	 50.7075 	 18.2089 	 47.1864
| 39> H 	 54.8778 	 23.6414 	 47.5462
| 40> H 	 56.9364 	 16.2728 	 50.3089
| 41> *
| 42>
| 43>                          ****END OF INPUT****

CARTESIAN COORDINATES (ANGSTROEM)
---------------------------------
  S     55.781300   21.251900   48.179400
  C     54.711200   22.609100   48.004800
  C     53.486500   22.335500   48.547400
  C     53.449000   21.016000   49.143700
  C     54.536300   20.278300   48.885800
  H     52.678500   20.656800   49.765900
  C     52.284300   23.349500   48.628100
  H     52.761600   24.321600   48.689100
  H     51.879700   23.035800   49.567400
  C     51.071500   23.403100   47.623200
  H     50.340800   22.612400   47.742600
  H     50.586400   24.365600   47.762200
  C     51.517500   23.407200   46.146200
  H     52.168400   24.249700   46.026600
  H     52.024700   22.493700   45.797100
  H     50.623800   23.619900   45.417700
  S     56.489500   18.678600   49.701300
  C     56.213200   17.011400   50.055100
  C     54.900400   16.665900   49.879200
  C     54.063900   17.756900   49.527900
  C     54.793500   18.914600   49.283600
  H     54.594900   15.640900   49.979500
  C     52.600700   17.543800   49.230500
  H     52.100500   18.547800   49.459500
  H     52.079400   16.852400   49.868700
  C     52.389900   17.128200   47.723500
  H     52.737000   16.118900   47.631700
  H     53.051500   17.688700   47.115900
  C     50.924200   17.136300   47.242300
  H     50.245600   16.568700   47.899600
  H     50.895200   16.647700   46.248200
  H     50.707500   18.208900   47.186400
  H     54.877800   23.641400   47.546200
  H     56.936400   16.272800   50.308900

 Total Charge           Charge          ....    0
 Multiplicity           Mult            ....    1
 Number of Electrons    NEL             ....  134
 Basis Dimension        Dim             ....  322

ORBITAL ENERGIES
----------------

  NO   OCC          E(Eh)            E(eV)
   0   2.0000     -88.966062     -2420.8896
   1   2.0000     -88.963923     -2420.8314
   2   2.0000     -10.327568      -281.0274
   3   2.0000     -10.324606      -280.9468
   4   2.0000     -10.315883      -280.7095
   5   2.0000     -10.311503      -280.5903
   6   2.0000     -10.304931      -280.4114
   7   2.0000     -10.302194      -280.3369
   8   2.0000     -10.297393      -280.2063
   9   2.0000     -10.297049      -280.1970
  10   2.0000     -10.292204      -280.0651
  11   2.0000     -10.289329      -279.9869
  12   2.0000     -10.286718      -279.9158
  13   2.0000     -10.282395      -279.7982
  14   2.0000     -10.282152      -279.7916
  15   2.0000     -10.281460      -279.7727
  16   2.0000      -8.081387      -219.9057
  17   2.0000      -8.079209      -219.8464
  18   2.0000      -6.040106      -164.3596
  19   2.0000      -6.037716      -164.2946
  20   2.0000      -6.035880      -164.2446
  21   2.0000      -6.033637      -164.1836
  22   2.0000      -6.031793      -164.1334
  23   2.0000      -6.029931      -164.0828
  24   2.0000      -1.015499       -27.6331
  25   2.0000      -0.988687       -26.9035
  26   2.0000      -0.906524       -24.6678
  27   2.0000      -0.903438       -24.5838
  28   2.0000      -0.873411       -23.7667
  29   2.0000      -0.854684       -23.2571
  30   2.0000      -0.844082       -22.9687
  31   2.0000      -0.817246       -22.2384
  32   2.0000      -0.780219       -21.2308
  33   2.0000      -0.771778       -21.0012
  34   2.0000      -0.708442       -19.2777
  35   2.0000      -0.697281       -18.9740
  36   2.0000      -0.694772       -18.9057
  37   2.0000      -0.666768       -18.1437
  38   2.0000      -0.635926       -17.3044
  39   2.0000      -0.622834       -16.9482
  40   2.0000      -0.596286       -16.2258
  41   2.0000      -0.566432       -15.4134
  42   2.0000      -0.561777       -15.2867
  43   2.0000      -0.554046       -15.0763
  44   2.0000      -0.534399       -14.5417
  45   2.0000      -0.523134       -14.2352
  46   2.0000      -0.517523       -14.0825
  47   2.0000      -0.515195       -14.0192
  48   2.0000      -0.504391       -13.7252
  49   2.0000      -0.499958       -13.6045
  50   2.0000      -0.493508       -13.4290
  51   2.0000      -0.483852       -13.1663
  52   2.0000      -0.468797       -12.7566
  53   2.0000      -0.461760       -12.5651
  54   2.0000      -0.458325       -12.4716
  55   2.0000      -0.452834       -12.3223
  56   2.0000      -0.446126       -12.1397
  57   2.0000      -0.434702       -11.8289
  58   2.0000      -0.432231       -11.7616
  59   2.0000      -0.427332       -11.6283
  60   2.0000      -0.424347       -11.5471
  61   2.0000      -0.411706       -11.2031
  62   2.0000      -0.409893       -11.1538
  63   2.0000      -0.359966        -9.7952
  64   2.0000      -0.333946        -9.0871
  65   2.0000      -0.326557        -8.8861
  66   2.0000      -0.287228        -7.8159
  67   0.0000       0.024748         0.6734
  68   0.0000       0.080902         2.2014
  69   0.0000       0.104760         2.8507
  70   0.0000       0.121700         3.3116
  71   0.0000       0.124661         3.3922

MULLIKEN ATOMIC CHARGES
-----------------------
   0 S :    0.106756
   1 C :   -0.133323
   2 C :   -0.117842
   3 C :   -0.006561
   4 C :   -0.086290
   5 H :    0.002698
   6 C :    0.075093
   7 H :    0.026327
   8 H :    0.020488
   9 C :   -0.034958
  10 H :    0.031705
  11 H :    0.033608
  12 C :   -0.100408
  13 H :    0.017743
  14 H :    0.053260
  15 H :    0.042149
  16 S :    0.088925
  17 C :   -0.060550
  18 C :   -0.040864
  19 C :   -0.043255
  20 C :   -0.137707
  21 H :    0.011387
  22 C :    0.047466
  23 H :    0.015356
  24 H :    0.019359
  25 C :   -0.058997
  26 H :    0.012074
  27 H :    0.028288
  28 C :   -0.044747
  29 H :    0.036392
  30 H :    0.042324
  31 H :    0.041710
  32 H :    0.068394
  33 H :    0.044000
Sum of atomic charges:   -0.0000000

LOEWDIN ATOMIC CHARGES
----------------------
   0 S :    0.408074
   1 C :   -0.217112
   2 C :   -0.064617
   3 C :   -0.067059
   4 C :   -0.196228
   5 H :    0.022831
   6 C :   -0.026743
   7 H :    0.029837
   8 H :    0.029551
   9 C :   -0.036707
  10 H :    0.021452
  11 H :    0.029732
  12 C :   -0.075177
  13 H :    0.015675
  14 H :    0.027191
  15 H :    0.034800
  16 S :    0.406783
  17 C :   -0.186667
  18 C :   -0.068890
  19 C :   -0.058055
  20 C :   -0.182893
  21 H :    0.030030
  22 C :   -0.032688
  23 H :    0.030747
  24 H :    0.025357
  25 C :   -0.032760
  26 H :    0.017604
  27 H :    0.021099
  28 C :   -0.065248
  29 H :    0.025944
  30 H :    0.031790
  31 H :    0.028099
  32 H :    0.048170
  33 H :    0.026076

  Mayer bond orders larger than 0.100000
B(  0-S ,  1-C ) :   1.1189 B(  0-S ,  4-C ) :   1.1329 B(  1-C ,  2-C ) :   1.6535
B(  1-C , 32-H ) :   0.9551 B(  2-C ,  3-C ) :   1.2148 B(  2-C ,  6-C ) :   1.0009
B(  3-C ,  4-C ) :   1.6069 B(  3-C ,  5-H ) :   0.9990 B(  4-C , 20-C ) :   1.0548
B(  6-C ,  7-H ) :   0.9455 B(  6-C ,  8-H ) :   0.9404 B(  6-C ,  9-C ) :   1.0664
B(  9-C , 10-H ) :   0.9606 B(  9-C , 11-H ) :   0.9533 B(  9-C , 12-C ) :   1.0752
B( 12-C , 13-H ) :   0.9774 B( 12-C , 14-H ) :   0.9754 B( 12-C , 15-H ) :   0.9744
B( 16-S , 17-C ) :   1.1514 B( 16-S , 20-C ) :   1.1377 B( 17-C , 18-C ) :   1.6187
B( 17-C , 20-C ) :   0.1008 B( 17-C , 33-H ) :   0.9685 B( 18-C , 19-C ) :   1.2347
B( 18-C , 21-H ) :   0.9926 B( 19-C , 20-C ) :   1.5919 B( 19-C , 22-C ) :   1.0577
B( 22-C , 23-H ) :   0.9374 B( 22-C , 24-H ) :   0.9317 B( 22-C , 25-C ) :   1.0512
B( 25-C , 26-H ) :   0.9537 B( 25-C , 27-H ) :   0.9599 B( 25-C , 28-C ) :   1.0765
B( 28-C , 29-H ) :   0.9741 B( 28-C , 30-H ) :   0.9731 B( 28-C , 31-H ) :   0.9796

Dispersion correction           -0.014051961
FINAL SINGLE POINT ENERGY     -1339.872580159029

DIPOLE MOMENT
-------------
                                X             Y             Z
Electronic contribution:     28.12155      -2.77965      10.48320
Nuclear contribution   :    -28.74522       2.66120     -10.48912
                        -----------------------------------------
Total Dipole Moment    :     -0.62367      -0.11845      -0.00592
                        -----------------------------------------
Magnitude (a.u.)       :      0.63485
Magnitude (Debye)      :      1.61366

Rotational constants in cm-1:     0.018233     0.009306     0.006708
Rotational constants in MHz :   546.625052   278.991099   201.088549

                             ****ORCA TERMINATED NORMALLY****
TOTAL RUN TIME: 0 days 0 hours 0 minutes 29 seconds 916 msec
