                         Program Version 4.2.1 -  RELEASE  -
|  1> ! wB97X-D3 SP def2-SVP
|  2> %pal
|  3> nprocs 16
|  4> end
|  5>
|  6> * xyz 0 1
|  7> S 	 66.7868 	 -6.97635 	 87.6484
|  8> C 	 65.3629 	 -6.39945 	 88.51
|  9> C 	 65.5162 	 -5.19072 	 89.1505
| 10> C 	 66.8171 	 -4.71394 	 88.9587
| 11> C 	 67.6353 	 -5.42511 	 88.1406
| 12> H 	 67.0475 	 -3.80497 	 89.4758
| 13> C 	 64.4312 	 -4.54244 	 90.0772
| 14> H 	 64.9095 	 -4.19077 	 91.0054
| 15> H 	 63.7137 	 -5.29332 	 90.3924
| 16> C 	 63.5795 	 -3.38226 	 89.4717
| 17> H 	 64.1472 	 -2.45564 	 89.2504
| 18> H 	 63.0823 	 -3.80755 	 88.5298
| 19> C 	 62.4622 	 -2.9047 	 90.4944
| 20> H 	 62.1131 	 -1.92885 	 90.2144
| 21> H 	 61.6539 	 -3.57425 	 90.4833
| 22> H 	 62.7542 	 -2.83474 	 91.4892
| 23> S 	 70.0988 	 -6.39378 	 87.6366
| 24> C 	 71.4502 	 -5.40542 	 87.1574
| 25> C 	 70.9868 	 -4.09257 	 87.0165
| 26> C 	 69.5912 	 -3.91335 	 87.3348
| 27> C 	 68.9686 	 -5.08974 	 87.6372
| 28> H 	 71.6385 	 -3.28353 	 86.6499
| 29> C 	 69.0861 	 -2.50678 	 87.2786
| 30> H 	 67.943 	 -2.54854 	 87.2392
| 31> H 	 69.3202 	 -1.91006 	 86.3729
| 32> C 	 69.3918 	 -1.687 	 88.4856
| 33> H 	 70.3946 	 -1.23173 	 88.3038
| 34> H 	 69.4377 	 -2.33219 	 89.3535
| 35> C 	 68.481 	 -0.540023 	 88.6568
| 36> H 	 67.5022 	 -0.852411 	 88.9353
| 37> H 	 68.5604 	 0.0606058 	 87.7627
| 38> H 	 68.8262 	 0.113781 	 89.4762
| 39> H 	 64.545 	 -6.9852 	 88.5798
| 40> H 	 72.4362 	 -5.76201 	 86.9387
| 41> *
| 42>
| 43>                          ****END OF INPUT****

CARTESIAN COORDINATES (ANGSTROEM)
---------------------------------
  S     66.786800   -6.976350   87.648400
  C     65.362900   -6.399450   88.510000
  C     65.516200   -5.190720   89.150500
  C     66.817100   -4.713940   88.958700
  C     67.635300   -5.425110   88.140600
  H     67.047500   -3.804970   89.475800
  C     64.431200   -4.542440   90.077200
  H     64.909500   -4.190770   91.005400
  H     63.713700   -5.293320   90.392400
  C     63.579500   -3.382260   89.471700
  H     64.147200   -2.455640   89.250400
  H     63.082300   -3.807550   88.529800
  C     62.462200   -2.904700   90.494400
  H     62.113100   -1.928850   90.214400
  H     61.653900   -3.574250   90.483300
  H     62.754200   -2.834740   91.489200
  S     70.098800   -6.393780   87.636600
  C     71.450200   -5.405420   87.157400
  C     70.986800   -4.092570   87.016500
  C     69.591200   -3.913350   87.334800
  C     68.968600   -5.089740   87.637200
  H     71.638500   -3.283530   86.649900
  C     69.086100   -2.506780   87.278600
  H     67.943000   -2.548540   87.239200
  H     69.320200   -1.910060   86.372900
  C     69.391800   -1.687000   88.485600
  H     70.394600   -1.231730   88.303800
  H     69.437700   -2.332190   89.353500
  C     68.481000   -0.540023   88.656800
  H     67.502200   -0.852411   88.935300
  H     68.560400    0.060606   87.762700
  H     68.826200    0.113781   89.476200
  H     64.545000   -6.985200   88.579800
  H     72.436200   -5.762010   86.938700

 Total Charge           Charge          ....    0
 Multiplicity           Mult            ....    1
 Number of Electrons    NEL             ....  134
 Basis Dimension        Dim             ....  322

ORBITAL ENERGIES
----------------

  NO   OCC          E(Eh)            E(eV)
   0   2.0000     -88.967105     -2420.9180
   1   2.0000     -88.962615     -2420.7958
   2   2.0000     -10.335655      -281.2475
   3   2.0000     -10.327099      -281.0147
   4   2.0000     -10.319054      -280.7957
   5   2.0000     -10.308856      -280.5182
   6   2.0000     -10.302540      -280.3464
   7   2.0000     -10.301940      -280.3300
   8   2.0000     -10.301415      -280.3158
   9   2.0000     -10.300520      -280.2914
  10   2.0000     -10.296748      -280.1888
  11   2.0000     -10.291489      -280.0457
  12   2.0000     -10.291448      -280.0445
  13   2.0000     -10.279038      -279.7068
  14   2.0000     -10.273392      -279.5532
  15   2.0000     -10.272241      -279.5219
  16   2.0000      -8.080629      -219.8851
  17   2.0000      -8.078184      -219.8186
  18   2.0000      -6.039232      -164.3358
  19   2.0000      -6.036762      -164.2686
  20   2.0000      -6.035490      -164.2340
  21   2.0000      -6.032414      -164.1503
  22   2.0000      -6.031187      -164.1169
  23   2.0000      -6.028973      -164.0567
  24   2.0000      -1.008071       -27.4310
  25   2.0000      -0.983958       -26.7748
  26   2.0000      -0.923167       -25.1207
  27   2.0000      -0.901189       -24.5226
  28   2.0000      -0.869083       -23.6490
  29   2.0000      -0.857496       -23.3336
  30   2.0000      -0.847796       -23.0697
  31   2.0000      -0.816344       -22.2139
  32   2.0000      -0.782232       -21.2856
  33   2.0000      -0.775275       -21.0963
  34   2.0000      -0.706711       -19.2306
  35   2.0000      -0.699185       -19.0258
  36   2.0000      -0.690678       -18.7943
  37   2.0000      -0.667374       -18.1602
  38   2.0000      -0.644909       -17.5489
  39   2.0000      -0.630917       -17.1681
  40   2.0000      -0.604513       -16.4496
  41   2.0000      -0.579693       -15.7742
  42   2.0000      -0.565941       -15.4000
  43   2.0000      -0.558693       -15.2028
  44   2.0000      -0.525271       -14.2934
  45   2.0000      -0.523142       -14.2354
  46   2.0000      -0.517965       -14.0945
  47   2.0000      -0.515576       -14.0295
  48   2.0000      -0.503229       -13.6936
  49   2.0000      -0.500803       -13.6275
  50   2.0000      -0.496210       -13.5026
  51   2.0000      -0.485702       -13.2166
  52   2.0000      -0.474100       -12.9009
  53   2.0000      -0.467471       -12.7205
  54   2.0000      -0.461824       -12.5669
  55   2.0000      -0.446542       -12.1510
  56   2.0000      -0.441463       -12.0128
  57   2.0000      -0.437014       -11.8918
  58   2.0000      -0.430724       -11.7206
  59   2.0000      -0.428334       -11.6556
  60   2.0000      -0.421530       -11.4704
  61   2.0000      -0.419328       -11.4105
  62   2.0000      -0.405863       -11.0441
  63   2.0000      -0.354783        -9.6541
  64   2.0000      -0.336441        -9.1550
  65   2.0000      -0.328427        -8.9370
  66   2.0000      -0.290344        -7.9007
  67   0.0000       0.026106         0.7104
  68   0.0000       0.072478         1.9722
  69   0.0000       0.102455         2.7879
  70   0.0000       0.118504         3.2247
  71   0.0000       0.130959         3.5636

MULLIKEN ATOMIC CHARGES
-----------------------
   0 S :    0.093405
   1 C :   -0.083396
   2 C :   -0.066122
   3 C :    0.021054
   4 C :   -0.096307
   5 H :   -0.010443
   6 C :    0.050761
   7 H :    0.031120
   8 H :    0.021413
   9 C :   -0.114059
  10 H :    0.041484
  11 H :    0.048747
  12 C :   -0.010410
  13 H :    0.027153
  14 H :    0.019941
  15 H :    0.014418
  16 S :    0.092783
  17 C :   -0.080187
  18 C :   -0.045735
  19 C :   -0.031771
  20 C :   -0.115020
  21 H :    0.028724
  22 C :    0.003357
  23 H :    0.022426
  24 H :    0.034001
  25 C :   -0.070556
  26 H :    0.022801
  27 H :    0.031155
  28 C :   -0.016451
  29 H :    0.023046
  30 H :    0.025958
  31 H :    0.029795
  32 H :    0.000546
  33 H :    0.056368
Sum of atomic charges:   -0.0000000

LOEWDIN ATOMIC CHARGES
----------------------
   0 S :    0.362868
   1 C :   -0.161346
   2 C :   -0.064342
   3 C :   -0.058505
   4 C :   -0.162473
   5 H :    0.028435
   6 C :   -0.029788
   7 H :    0.030562
   8 H :    0.029744
   9 C :   -0.040199
  10 H :    0.023882
  11 H :    0.033941
  12 C :   -0.057466
  13 H :    0.025875
  14 H :    0.018354
  15 H :    0.015906
  16 S :    0.418469
  17 C :   -0.185651
  18 C :   -0.068750
  19 C :   -0.061036
  20 C :   -0.200598
  21 H :    0.033688
  22 C :   -0.042520
  23 H :    0.031921
  24 H :    0.033502
  25 C :   -0.046414
  26 H :    0.026520
  27 H :    0.021165
  28 C :   -0.058421
  29 H :    0.016964
  30 H :    0.026190
  31 H :    0.030349
  32 H :    0.000804
  33 H :    0.028370

  Mayer bond orders larger than 0.100000
B(  0-S ,  1-C ) :   1.1415 B(  0-S ,  4-C ) :   1.1131 B(  1-C ,  2-C ) :   1.6196
B(  1-C ,  4-C ) :   0.1022 B(  1-C , 32-H ) :   0.9765 B(  2-C ,  3-C ) :   1.2618
B(  2-C ,  6-C ) :   1.0097 B(  3-C ,  4-C ) :   1.5821 B(  3-C ,  5-H ) :   0.9981
B(  4-C , 20-C ) :   1.0264 B(  6-C ,  7-H ) :   0.9448 B(  6-C ,  8-H ) :   0.9476
B(  6-C ,  9-C ) :   1.0543 B(  9-C , 10-H ) :   0.9636 B(  9-C , 11-H ) :   0.9585
B(  9-C , 12-C ) :   1.0661 B( 12-C , 13-H ) :   0.9773 B( 12-C , 14-H ) :   0.9770
B( 12-C , 15-H ) :   0.9759 B( 16-S , 17-C ) :   1.1582 B( 16-S , 20-C ) :   1.1439
B( 17-C , 18-C ) :   1.5831 B( 17-C , 33-H ) :   0.9753 B( 18-C , 19-C ) :   1.2392
B( 18-C , 21-H ) :   0.9870 B( 19-C , 20-C ) :   1.6052 B( 19-C , 22-C ) :   1.0562
B( 22-C , 23-H ) :   0.9395 B( 22-C , 24-H ) :   0.9320 B( 22-C , 25-C ) :   1.0580
B( 25-C , 26-H ) :   0.9443 B( 25-C , 27-H ) :   0.9544 B( 25-C , 28-C ) :   1.1051
B( 28-C , 29-H ) :   0.9724 B( 28-C , 30-H ) :   0.9673 B( 28-C , 31-H ) :   0.9688

Dispersion correction           -0.013863120
FINAL SINGLE POINT ENERGY     -1339.873479792546

DIPOLE MOMENT
-------------
                                X             Y             Z
Electronic contribution:     15.94653     -27.73510     -10.44953
Nuclear contribution   :    -16.15083      28.42699      10.74038
                        -----------------------------------------
Total Dipole Moment    :     -0.20430       0.69189       0.29085
                        -----------------------------------------
Magnitude (a.u.)       :      0.77785
Magnitude (Debye)      :      1.97713

Rotational constants in cm-1:     0.018029     0.008865     0.006170
Rotational constants in MHz :   540.498513   265.772108   184.962268

                             ****ORCA TERMINATED NORMALLY****
TOTAL RUN TIME: 0 days 0 hours 0 minutes 29 seconds 757 msec
