                         Program Version 4.2.1 -  RELEASE  -
|  1> ! wB97X-D3 SP def2-SVP
|  2> %pal
|  3> nprocs 16
|  4> end
|  5>
|  6> * xyz 0 1
|  7> S 	 -33.4252 	 27.0727 	 43.8624
|  8> C 	 -31.8835 	 26.288 	 43.5458
|  9> C 	 -30.8693 	 27.1458 	 43.8639
| 10> C 	 -31.3705 	 28.451 	 44.2677
| 11> C 	 -32.6995 	 28.5996 	 44.197
| 12> H 	 -30.776 	 29.3635 	 44.486
| 13> C 	 -29.3936 	 26.8783 	 43.5849
| 14> H 	 -29.1254 	 27.805 	 43.0366
| 15> H 	 -29.3327 	 26.1223 	 42.839
| 16> C 	 -28.4921 	 26.6221 	 44.7704
| 17> H 	 -28.8359 	 27.0835 	 45.6954
| 18> H 	 -28.6808 	 25.6168 	 45.0705
| 19> C 	 -27.0048 	 26.8232 	 44.5027
| 20> H 	 -26.4824 	 26.4851 	 45.4301
| 21> H 	 -26.5763 	 26.4208 	 43.6332
| 22> H 	 -26.8351 	 27.9092 	 44.6465
| 23> S 	 -34.8331 	 29.7742 	 45.4318
| 24> C 	 -35.2489 	 31.4311 	 45.2236
| 25> C 	 -34.3898 	 32.0418 	 44.3076
| 26> C 	 -33.4209 	 31.1132 	 43.9079
| 27> C 	 -33.5094 	 29.8423 	 44.3723
| 28> H 	 -34.6125 	 33.0655 	 43.9939
| 29> C 	 -32.415 	 31.4605 	 42.7479
| 30> H 	 -33.0484 	 31.7904 	 41.9269
| 31> H 	 -31.9058 	 30.4788 	 42.5145
| 32> C 	 -31.5153 	 32.6383 	 42.9965
| 33> H 	 -32.1619 	 33.5106 	 43.2352
| 34> H 	 -30.9563 	 32.8031 	 42.0312
| 35> C 	 -30.4357 	 32.3339 	 44.0642
| 36> H 	 -29.8555 	 31.4304 	 43.8021
| 37> H 	 -30.8729 	 32.0151 	 45.0365
| 38> H 	 -29.7594 	 33.1595 	 44.1921
| 39> H 	 -31.8371 	 25.2074 	 43.1929
| 40> H 	 -36.1555 	 31.9197 	 45.6336
| 41> *
| 42>
| 43>                          ****END OF INPUT****

CARTESIAN COORDINATES (ANGSTROEM)
---------------------------------
  S    -33.425200   27.072700   43.862400
  C    -31.883500   26.288000   43.545800
  C    -30.869300   27.145800   43.863900
  C    -31.370500   28.451000   44.267700
  C    -32.699500   28.599600   44.197000
  H    -30.776000   29.363500   44.486000
  C    -29.393600   26.878300   43.584900
  H    -29.125400   27.805000   43.036600
  H    -29.332700   26.122300   42.839000
  C    -28.492100   26.622100   44.770400
  H    -28.835900   27.083500   45.695400
  H    -28.680800   25.616800   45.070500
  C    -27.004800   26.823200   44.502700
  H    -26.482400   26.485100   45.430100
  H    -26.576300   26.420800   43.633200
  H    -26.835100   27.909200   44.646500
  S    -34.833100   29.774200   45.431800
  C    -35.248900   31.431100   45.223600
  C    -34.389800   32.041800   44.307600
  C    -33.420900   31.113200   43.907900
  C    -33.509400   29.842300   44.372300
  H    -34.612500   33.065500   43.993900
  C    -32.415000   31.460500   42.747900
  H    -33.048400   31.790400   41.926900
  H    -31.905800   30.478800   42.514500
  C    -31.515300   32.638300   42.996500
  H    -32.161900   33.510600   43.235200
  H    -30.956300   32.803100   42.031200
  C    -30.435700   32.333900   44.064200
  H    -29.855500   31.430400   43.802100
  H    -30.872900   32.015100   45.036500
  H    -29.759400   33.159500   44.192100
  H    -31.837100   25.207400   43.192900
  H    -36.155500   31.919700   45.633600

 Total Charge           Charge          ....    0
 Multiplicity           Mult            ....    1
 Number of Electrons    NEL             ....  134
 Basis Dimension        Dim             ....  322

ORBITAL ENERGIES
----------------

  NO   OCC          E(Eh)            E(eV)
   0   2.0000     -88.963292     -2420.8142
   1   2.0000     -88.960267     -2420.7319
   2   2.0000     -10.329038      -281.0674
   3   2.0000     -10.322824      -280.8983
   4   2.0000     -10.320249      -280.8283
   5   2.0000     -10.319925      -280.8194
   6   2.0000     -10.304648      -280.4037
   7   2.0000     -10.299147      -280.2540
   8   2.0000     -10.296130      -280.1719
   9   2.0000     -10.294178      -280.1188
  10   2.0000     -10.291048      -280.0337
  11   2.0000     -10.290482      -280.0183
  12   2.0000     -10.288654      -279.9685
  13   2.0000     -10.282347      -279.7969
  14   2.0000     -10.280367      -279.7430
  15   2.0000     -10.278485      -279.6918
  16   2.0000      -8.079702      -219.8599
  17   2.0000      -8.075916      -219.7568
  18   2.0000      -6.038020      -164.3029
  19   2.0000      -6.034510      -164.2074
  20   2.0000      -6.033755      -164.1868
  21   2.0000      -6.030771      -164.1056
  22   2.0000      -6.030311      -164.0931
  23   2.0000      -6.026502      -163.9895
  24   2.0000      -1.017916       -27.6989
  25   2.0000      -0.994646       -27.0657
  26   2.0000      -0.914618       -24.8880
  27   2.0000      -0.907034       -24.6817
  28   2.0000      -0.873421       -23.7670
  29   2.0000      -0.847977       -23.0746
  30   2.0000      -0.844757       -22.9870
  31   2.0000      -0.821227       -22.3467
  32   2.0000      -0.781917       -21.2770
  33   2.0000      -0.775024       -21.0895
  34   2.0000      -0.709210       -19.2986
  35   2.0000      -0.696211       -18.9449
  36   2.0000      -0.691043       -18.8042
  37   2.0000      -0.659238       -17.9388
  38   2.0000      -0.644056       -17.5256
  39   2.0000      -0.621258       -16.9053
  40   2.0000      -0.590179       -16.0596
  41   2.0000      -0.572057       -15.5665
  42   2.0000      -0.557715       -15.1762
  43   2.0000      -0.550102       -14.9690
  44   2.0000      -0.543070       -14.7777
  45   2.0000      -0.532898       -14.5009
  46   2.0000      -0.518095       -14.0981
  47   2.0000      -0.516757       -14.0617
  48   2.0000      -0.510454       -13.8902
  49   2.0000      -0.500687       -13.6244
  50   2.0000      -0.497443       -13.5361
  51   2.0000      -0.481790       -13.1102
  52   2.0000      -0.473795       -12.8926
  53   2.0000      -0.465849       -12.6764
  54   2.0000      -0.451652       -12.2901
  55   2.0000      -0.448459       -12.2032
  56   2.0000      -0.444583       -12.0977
  57   2.0000      -0.443003       -12.0547
  58   2.0000      -0.431778       -11.7493
  59   2.0000      -0.427418       -11.6306
  60   2.0000      -0.411266       -11.1911
  61   2.0000      -0.408280       -11.1099
  62   2.0000      -0.400211       -10.8903
  63   2.0000      -0.351928        -9.5764
  64   2.0000      -0.332260        -9.0413
  65   2.0000      -0.327028        -8.8989
  66   2.0000      -0.301910        -8.2154
  67   0.0000       0.038867         1.0576
  68   0.0000       0.074170         2.0183
  69   0.0000       0.116654         3.1743
  70   0.0000       0.122363         3.3297
  71   0.0000       0.126113         3.4317

MULLIKEN ATOMIC CHARGES
-----------------------
   0 S :    0.093992
   1 C :   -0.156631
   2 C :   -0.086739
   3 C :    0.022086
   4 C :   -0.132208
   5 H :    0.005970
   6 C :    0.072802
   7 H :    0.026287
   8 H :    0.010463
   9 C :   -0.047448
  10 H :    0.022298
  11 H :    0.007576
  12 C :   -0.033863
  13 H :    0.029565
  14 H :    0.041205
  15 H :    0.030811
  16 S :    0.110792
  17 C :   -0.112004
  18 C :   -0.052275
  19 C :   -0.041625
  20 C :   -0.136736
  21 H :    0.031912
  22 C :    0.029293
  23 H :    0.031752
  24 H :    0.041214
  25 C :   -0.077312
  26 H :    0.036780
  27 H :    0.039790
  28 C :   -0.066758
  29 H :    0.028624
  30 H :    0.043151
  31 H :    0.036719
  32 H :    0.080428
  33 H :    0.070086
Sum of atomic charges:    0.0000000

LOEWDIN ATOMIC CHARGES
----------------------
   0 S :    0.397292
   1 C :   -0.200379
   2 C :   -0.064349
   3 C :   -0.073456
   4 C :   -0.196367
   5 H :    0.035636
   6 C :   -0.029434
   7 H :    0.033524
   8 H :    0.024380
   9 C :   -0.046908
  10 H :    0.028553
  11 H :    0.019641
  12 C :   -0.063354
  13 H :    0.034891
  14 H :    0.019366
  15 H :    0.031363
  16 S :    0.442754
  17 C :   -0.194541
  18 C :   -0.079395
  19 C :   -0.066060
  20 C :   -0.220045
  21 H :    0.038286
  22 C :   -0.033591
  23 H :    0.031465
  24 H :    0.033530
  25 C :   -0.046115
  26 H :    0.026134
  27 H :    0.031940
  28 C :   -0.072192
  29 H :    0.023722
  30 H :    0.027678
  31 H :    0.022724
  32 H :    0.046320
  33 H :    0.036987

  Mayer bond orders larger than 0.100000
B(  0-S ,  1-C ) :   1.1244 B(  0-S ,  4-C ) :   1.1504 B(  1-C ,  2-C ) :   1.6361
B(  1-C , 32-H ) :   0.9633 B(  2-C ,  3-C ) :   1.1988 B(  2-C ,  6-C ) :   1.0116
B(  3-C ,  4-C ) :   1.6247 B(  3-C ,  5-H ) :   0.9921 B(  4-C , 20-C ) :   0.9778
B(  6-C ,  7-H ) :   0.9485 B(  6-C ,  8-H ) :   0.9421 B(  6-C ,  9-C ) :   1.0479
B(  9-C , 10-H ) :   0.9575 B(  9-C , 11-H ) :   0.9464 B(  9-C , 12-C ) :   1.0815
B( 12-C , 13-H ) :   0.9694 B( 12-C , 14-H ) :   0.9786 B( 12-C , 15-H ) :   0.9743
B( 16-S , 17-C ) :   1.1952 B( 16-S , 20-C ) :   1.1553 B( 17-C , 18-C ) :   1.5697
B( 17-C , 20-C ) :   0.1034 B( 17-C , 33-H ) :   0.9633 B( 18-C , 19-C ) :   1.2564
B( 18-C , 21-H ) :   0.9954 B( 19-C , 20-C ) :   1.6097 B( 19-C , 22-C ) :   1.0127
B( 22-C , 23-H ) :   0.9396 B( 22-C , 24-H ) :   0.9444 B( 22-C , 25-C ) :   1.0753
B( 25-C , 26-H ) :   0.9524 B( 25-C , 27-H ) :   0.9533 B( 25-C , 28-C ) :   1.0728
B( 28-C , 29-H ) :   0.9675 B( 28-C , 30-H ) :   0.9745 B( 28-C , 31-H ) :   0.9725

Dispersion correction           -0.014511640
FINAL SINGLE POINT ENERGY     -1339.875195327377

DIPOLE MOMENT
-------------
                                X             Y             Z
Electronic contribution:    -29.03560      -6.56036       4.27310
Nuclear contribution   :     29.51589       6.80861      -4.50639
                        -----------------------------------------
Total Dipole Moment    :      0.48029       0.24825      -0.23328
                        -----------------------------------------
Magnitude (a.u.)       :      0.58884
Magnitude (Debye)      :      1.49670

Rotational constants in cm-1:     0.019215     0.008719     0.006625
Rotational constants in MHz :   576.038620   261.399534   198.611341

                             ****ORCA TERMINATED NORMALLY****
TOTAL RUN TIME: 0 days 0 hours 0 minutes 34 seconds 594 msec
