                         Program Version 4.2.1 -  RELEASE  -
|  1> ! wB97X-D3 SP def2-SVP
|  2> %pal
|  3> nprocs 16
|  4> end
|  5>
|  6> * xyz 0 1
|  7> S 	 -50.7249 	 9.55761 	 80.7622
|  8> C 	 -50.665 	 10.5602 	 82.1796
|  9> C 	 -50.9652 	 9.83558 	 83.291
| 10> C 	 -51.328 	 8.47915 	 83.0633
| 11> C 	 -51.1963 	 8.15698 	 81.7209
| 12> H 	 -51.7497 	 7.81884 	 83.8568
| 13> C 	 -50.9538 	 10.4348 	 84.6944
| 14> H 	 -51.7209 	 9.89493 	 85.3039
| 15> H 	 -51.248 	 11.4818 	 84.6684
| 16> C 	 -49.7111 	 10.2848 	 85.5116
| 17> H 	 -49.9763 	 10.5184 	 86.5106
| 18> H 	 -49.4107 	 9.24282 	 85.4946
| 19> C 	 -48.6085 	 11.3537 	 85.159
| 20> H 	 -47.7341 	 11.0177 	 85.7295
| 21> H 	 -48.4473 	 11.2841 	 84.0883
| 22> H 	 -48.9826 	 12.3146 	 85.4796
| 23> S 	 -50.2478 	 5.57631 	 81.4042
| 24> C 	 -51.0828 	 4.50278 	 80.2751
| 25> C 	 -52.1314 	 5.12644 	 79.6337
| 26> C 	 -52.3943 	 6.41058 	 80.1696
| 27> C 	 -51.4315 	 6.83215 	 81.1171
| 28> H 	 -52.7628 	 4.60942 	 78.9915
| 29> C 	 -53.6409 	 7.09954 	 79.7
| 30> H 	 -53.7035 	 7.04964 	 78.625
| 31> H 	 -53.5153 	 8.15507 	 80.0243
| 32> C 	 -54.95 	 6.643 	 80.3572
| 33> H 	 -55.0054 	 6.96206 	 81.3803
| 34> H 	 -54.9539 	 5.56073 	 80.356
| 35> C 	 -56.1981 	 7.23988 	 79.7294
| 36> H 	 -56.2439 	 8.38322 	 79.9163
| 37> H 	 -57.1104 	 6.92035 	 80.1938
| 38> H 	 -56.3183 	 7.02802 	 78.6008
| 39> H 	 -50.3292 	 11.5731 	 82.1535
| 40> H 	 -50.8496 	 3.46099 	 80.1922
| 41> *
| 42>
| 43>                          ****END OF INPUT****

CARTESIAN COORDINATES (ANGSTROEM)
---------------------------------
  S    -50.724900    9.557610   80.762200
  C    -50.665000   10.560200   82.179600
  C    -50.965200    9.835580   83.291000
  C    -51.328000    8.479150   83.063300
  C    -51.196300    8.156980   81.720900
  H    -51.749700    7.818840   83.856800
  C    -50.953800   10.434800   84.694400
  H    -51.720900    9.894930   85.303900
  H    -51.248000   11.481800   84.668400
  C    -49.711100   10.284800   85.511600
  H    -49.976300   10.518400   86.510600
  H    -49.410700    9.242820   85.494600
  C    -48.608500   11.353700   85.159000
  H    -47.734100   11.017700   85.729500
  H    -48.447300   11.284100   84.088300
  H    -48.982600   12.314600   85.479600
  S    -50.247800    5.576310   81.404200
  C    -51.082800    4.502780   80.275100
  C    -52.131400    5.126440   79.633700
  C    -52.394300    6.410580   80.169600
  C    -51.431500    6.832150   81.117100
  H    -52.762800    4.609420   78.991500
  C    -53.640900    7.099540   79.700000
  H    -53.703500    7.049640   78.625000
  H    -53.515300    8.155070   80.024300
  C    -54.950000    6.643000   80.357200
  H    -55.005400    6.962060   81.380300
  H    -54.953900    5.560730   80.356000
  C    -56.198100    7.239880   79.729400
  H    -56.243900    8.383220   79.916300
  H    -57.110400    6.920350   80.193800
  H    -56.318300    7.028020   78.600800
  H    -50.329200   11.573100   82.153500
  H    -50.849600    3.460990   80.192200

 Total Charge           Charge          ....    0
 Multiplicity           Mult            ....    1
 Number of Electrons    NEL             ....  134
 Basis Dimension        Dim             ....  322

ORBITAL ENERGIES
----------------

  NO   OCC          E(Eh)            E(eV)
   0   2.0000     -88.966678     -2420.9064
   1   2.0000     -88.966479     -2420.9010
   2   2.0000     -10.332269      -281.1553
   3   2.0000     -10.327681      -281.0305
   4   2.0000     -10.317539      -280.7545
   5   2.0000     -10.310118      -280.5526
   6   2.0000     -10.301799      -280.3262
   7   2.0000     -10.298551      -280.2378
   8   2.0000     -10.296644      -280.1859
   9   2.0000     -10.287432      -279.9353
  10   2.0000     -10.287355      -279.9332
  11   2.0000     -10.287047      -279.9248
  12   2.0000     -10.286682      -279.9149
  13   2.0000     -10.282264      -279.7946
  14   2.0000     -10.277955      -279.6774
  15   2.0000     -10.277154      -279.6556
  16   2.0000      -8.081307      -219.9035
  17   2.0000      -8.080919      -219.8930
  18   2.0000      -6.039800      -164.3513
  19   2.0000      -6.039418      -164.3409
  20   2.0000      -6.035771      -164.2417
  21   2.0000      -6.035369      -164.2307
  22   2.0000      -6.032135      -164.1427
  23   2.0000      -6.031810      -164.1339
  24   2.0000      -1.004908       -27.3449
  25   2.0000      -0.984775       -26.7971
  26   2.0000      -0.912404       -24.8278
  27   2.0000      -0.908995       -24.7350
  28   2.0000      -0.868257       -23.6265
  29   2.0000      -0.850686       -23.1483
  30   2.0000      -0.846374       -23.0310
  31   2.0000      -0.813457       -22.1353
  32   2.0000      -0.781484       -21.2653
  33   2.0000      -0.768262       -20.9055
  34   2.0000      -0.705481       -19.1971
  35   2.0000      -0.694010       -18.8850
  36   2.0000      -0.688578       -18.7372
  37   2.0000      -0.667032       -18.1509
  38   2.0000      -0.641271       -17.4499
  39   2.0000      -0.619005       -16.8440
  40   2.0000      -0.596446       -16.2301
  41   2.0000      -0.574426       -15.6309
  42   2.0000      -0.565103       -15.3772
  43   2.0000      -0.548254       -14.9188
  44   2.0000      -0.538632       -14.6569
  45   2.0000      -0.521693       -14.1960
  46   2.0000      -0.517012       -14.0686
  47   2.0000      -0.514864       -14.0102
  48   2.0000      -0.510298       -13.8859
  49   2.0000      -0.498952       -13.5772
  50   2.0000      -0.484478       -13.1833
  51   2.0000      -0.477983       -13.0066
  52   2.0000      -0.476551       -12.9676
  53   2.0000      -0.463266       -12.6061
  54   2.0000      -0.457653       -12.4534
  55   2.0000      -0.446719       -12.1558
  56   2.0000      -0.445977       -12.1356
  57   2.0000      -0.436782       -11.8855
  58   2.0000      -0.431205       -11.7337
  59   2.0000      -0.425338       -11.5740
  60   2.0000      -0.423793       -11.5320
  61   2.0000      -0.412613       -11.2278
  62   2.0000      -0.401739       -10.9319
  63   2.0000      -0.338046        -9.1987
  64   2.0000      -0.336321        -9.1518
  65   2.0000      -0.323860        -8.8127
  66   2.0000      -0.301524        -8.2049
  67   0.0000       0.035551         0.9674
  68   0.0000       0.062053         1.6885
  69   0.0000       0.111376         3.0307
  70   0.0000       0.116406         3.1676
  71   0.0000       0.130870         3.5611

MULLIKEN ATOMIC CHARGES
-----------------------
   0 S :    0.123301
   1 C :   -0.126492
   2 C :   -0.068462
   3 C :    0.020160
   4 C :   -0.161309
   5 H :    0.037295
   6 C :    0.036512
   7 H :    0.020031
   8 H :    0.015888
   9 C :   -0.055036
  10 H :    0.016006
  11 H :    0.024404
  12 C :   -0.043969
  13 H :    0.042161
  14 H :    0.035341
  15 H :    0.030171
  16 S :    0.115166
  17 C :   -0.095411
  18 C :    0.007180
  19 C :   -0.041901
  20 C :   -0.173266
  21 H :   -0.002568
  22 C :    0.067722
  23 H :    0.027047
  24 H :    0.020451
  25 C :   -0.038957
  26 H :    0.025395
  27 H :    0.018726
  28 C :   -0.085523
  29 H :    0.040691
  30 H :    0.029059
  31 H :    0.042261
  32 H :    0.044287
  33 H :    0.053638
Sum of atomic charges:    0.0000000

LOEWDIN ATOMIC CHARGES
----------------------
   0 S :    0.412152
   1 C :   -0.197421
   2 C :   -0.068203
   3 C :   -0.063594
   4 C :   -0.193480
   5 H :    0.043786
   6 C :   -0.035460
   7 H :    0.033124
   8 H :    0.025663
   9 C :   -0.038033
  10 H :    0.018039
  11 H :    0.021837
  12 C :   -0.058515
  13 H :    0.030258
  14 H :    0.022112
  15 H :    0.022105
  16 S :    0.407349
  17 C :   -0.170273
  18 C :   -0.061645
  19 C :   -0.052335
  20 C :   -0.210990
  21 H :    0.021396
  22 C :   -0.033251
  23 H :    0.028919
  24 H :    0.031000
  25 C :   -0.038906
  26 H :    0.026890
  27 H :    0.018162
  28 C :   -0.075995
  29 H :    0.034811
  30 H :    0.021285
  31 H :    0.030042
  32 H :    0.024766
  33 H :    0.024405

  Mayer bond orders larger than 0.100000
B(  0-S ,  1-C ) :   1.1332 B(  0-S ,  4-C ) :   1.1567 B(  1-C ,  2-C ) :   1.6155
B(  1-C , 32-H ) :   0.9715 B(  2-C ,  3-C ) :   1.2469 B(  2-C ,  6-C ) :   1.0255
B(  3-C ,  4-C ) :   1.5676 B(  3-C ,  5-H ) :   0.9875 B(  4-C , 20-C ) :   1.0206
B(  6-C ,  7-H ) :   0.9378 B(  6-C ,  8-H ) :   0.9420 B(  6-C ,  9-C ) :   1.0839
B(  9-C , 10-H ) :   0.9534 B(  9-C , 11-H ) :   0.9542 B(  9-C , 12-C ) :   1.0683
B( 12-C , 13-H ) :   0.9761 B( 12-C , 14-H ) :   0.9805 B( 12-C , 15-H ) :   0.9767
B( 16-S , 17-C ) :   1.1632 B( 16-S , 20-C ) :   1.1477 B( 17-C , 18-C ) :   1.5885
B( 17-C , 20-C ) :   0.1028 B( 17-C , 33-H ) :   0.9693 B( 18-C , 19-C ) :   1.2556
B( 18-C , 21-H ) :   0.9971 B( 19-C , 20-C ) :   1.5731 B( 19-C , 22-C ) :   1.0566
B( 22-C , 23-H ) :   0.9385 B( 22-C , 24-H ) :   0.9207 B( 22-C , 25-C ) :   1.0678
B( 25-C , 26-H ) :   0.9485 B( 25-C , 27-H ) :   0.9575 B( 25-C , 28-C ) :   1.0867
B( 28-C , 29-H ) :   0.9724 B( 28-C , 30-H ) :   0.9727 B( 28-C , 31-H ) :   0.9735

Dispersion correction           -0.014015015
FINAL SINGLE POINT ENERGY     -1339.886164977076

DIPOLE MOMENT
-------------
                                X             Y             Z
Electronic contribution:     11.96951      -9.20179      -9.66765
Nuclear contribution   :    -12.36005       9.19051       9.97658
                        -----------------------------------------
Total Dipole Moment    :     -0.39053      -0.01129       0.30893
                        -----------------------------------------
Magnitude (a.u.)       :      0.49808
Magnitude (Debye)      :      1.26602

Rotational constants in cm-1:     0.021133     0.007493     0.006402
Rotational constants in MHz :   633.539351   224.638010   191.923461

                             ****ORCA TERMINATED NORMALLY****
TOTAL RUN TIME: 0 days 0 hours 0 minutes 29 seconds 247 msec
