                         Program Version 4.2.1 -  RELEASE  -
|  1> ! wB97X-D3 SP def2-SVP
|  2> %pal
|  3> nprocs 16
|  4> end
|  5>
|  6> * xyz 0 1
|  7> S 	 -50.6409 	 63.7378 	 129.825
|  8> C 	 -49.5606 	 63.7957 	 128.48
|  9> C 	 -49.426 	 62.5628 	 127.859
| 10> C 	 -50.2581 	 61.6045 	 128.523
| 11> C 	 -50.9767 	 62.1136 	 129.614
| 12> H 	 -50.364 	 60.6239 	 128.136
| 13> C 	 -48.6684 	 62.2891 	 126.583
| 14> H 	 -47.8772 	 63.0056 	 126.64
| 15> H 	 -49.3724 	 62.4501 	 125.822
| 16> C 	 -48.0411 	 60.8632 	 126.482
| 17> H 	 -47.661 	 60.5738 	 127.433
| 18> H 	 -48.8141 	 60.2224 	 126.276
| 19> C 	 -46.977 	 60.8025 	 125.394
| 20> H 	 -47.4149 	 60.7519 	 124.431
| 21> H 	 -46.4021 	 61.6731 	 125.558
| 22> H 	 -46.4254 	 59.8584 	 125.576
| 23> S 	 -53.3629 	 62.3841 	 131.206
| 24> C 	 -54.1323 	 61.0087 	 131.8
| 25> C 	 -53.5731 	 59.9098 	 131.195
| 26> C 	 -52.5621 	 60.1742 	 130.251
| 27> C 	 -52.1474 	 61.4904 	 130.244
| 28> H 	 -53.8357 	 58.9256 	 131.528
| 29> C 	 -51.8034 	 58.9384 	 129.789
| 30> H 	 -51.6313 	 58.3537 	 130.604
| 31> H 	 -50.7529 	 59.03 	 129.525
| 32> C 	 -52.4954 	 57.9817 	 128.831
| 33> H 	 -53.5265 	 57.7153 	 129.196
| 34> H 	 -51.8015 	 57.0804 	 128.793
| 35> C 	 -52.6647 	 58.5572 	 127.399
| 36> H 	 -53.4137 	 59.364 	 127.36
| 37> H 	 -53.0522 	 57.7002 	 126.869
| 38> H 	 -51.7194 	 59.0054 	 127.066
| 39> H 	 -49.0912 	 64.6563 	 128.069
| 40> H 	 -54.8637 	 60.9968 	 132.646
| 41> *
| 42>
| 43>                          ****END OF INPUT****

CARTESIAN COORDINATES (ANGSTROEM)
---------------------------------
  S    -50.640900   63.737800  129.825000
  C    -49.560600   63.795700  128.480000
  C    -49.426000   62.562800  127.859000
  C    -50.258100   61.604500  128.523000
  C    -50.976700   62.113600  129.614000
  H    -50.364000   60.623900  128.136000
  C    -48.668400   62.289100  126.583000
  H    -47.877200   63.005600  126.640000
  H    -49.372400   62.450100  125.822000
  C    -48.041100   60.863200  126.482000
  H    -47.661000   60.573800  127.433000
  H    -48.814100   60.222400  126.276000
  C    -46.977000   60.802500  125.394000
  H    -47.414900   60.751900  124.431000
  H    -46.402100   61.673100  125.558000
  H    -46.425400   59.858400  125.576000
  S    -53.362900   62.384100  131.206000
  C    -54.132300   61.008700  131.800000
  C    -53.573100   59.909800  131.195000
  C    -52.562100   60.174200  130.251000
  C    -52.147400   61.490400  130.244000
  H    -53.835700   58.925600  131.528000
  C    -51.803400   58.938400  129.789000
  H    -51.631300   58.353700  130.604000
  H    -50.752900   59.030000  129.525000
  C    -52.495400   57.981700  128.831000
  H    -53.526500   57.715300  129.196000
  H    -51.801500   57.080400  128.793000
  C    -52.664700   58.557200  127.399000
  H    -53.413700   59.364000  127.360000
  H    -53.052200   57.700200  126.869000
  H    -51.719400   59.005400  127.066000
  H    -49.091200   64.656300  128.069000
  H    -54.863700   60.996800  132.646000

 Total Charge           Charge          ....    0
 Multiplicity           Mult            ....    1
 Number of Electrons    NEL             ....  134
 Basis Dimension        Dim             ....  322

ORBITAL ENERGIES
----------------

  NO   OCC          E(Eh)            E(eV)
   0   2.0000     -88.968199     -2420.9478
   1   2.0000     -88.962218     -2420.7850
   2   2.0000     -10.332727      -281.1678
   3   2.0000     -10.328637      -281.0565
   4   2.0000     -10.315382      -280.6958
   5   2.0000     -10.307825      -280.4902
   6   2.0000     -10.298623      -280.2398
   7   2.0000     -10.298354      -280.2325
   8   2.0000     -10.293971      -280.1132
   9   2.0000     -10.289744      -279.9982
  10   2.0000     -10.288194      -279.9560
  11   2.0000     -10.286879      -279.9202
  12   2.0000     -10.279436      -279.7177
  13   2.0000     -10.278469      -279.6914
  14   2.0000     -10.276711      -279.6435
  15   2.0000     -10.275496      -279.6105
  16   2.0000      -8.084553      -219.9919
  17   2.0000      -8.077739      -219.8064
  18   2.0000      -6.042930      -164.4365
  19   2.0000      -6.038678      -164.3208
  20   2.0000      -6.036338      -164.2571
  21   2.0000      -6.035526      -164.2350
  22   2.0000      -6.031962      -164.1380
  23   2.0000      -6.028518      -164.0443
  24   2.0000      -1.015356       -27.6292
  25   2.0000      -0.994407       -27.0592
  26   2.0000      -0.920579       -25.0502
  27   2.0000      -0.912418       -24.8281
  28   2.0000      -0.874083       -23.7850
  29   2.0000      -0.855420       -23.2772
  30   2.0000      -0.844734       -22.9864
  31   2.0000      -0.813249       -22.1296
  32   2.0000      -0.788549       -21.4575
  33   2.0000      -0.780657       -21.2428
  34   2.0000      -0.717395       -19.5213
  35   2.0000      -0.695984       -18.9387
  36   2.0000      -0.687475       -18.7071
  37   2.0000      -0.657346       -17.8873
  38   2.0000      -0.634963       -17.2782
  39   2.0000      -0.628574       -17.1044
  40   2.0000      -0.606151       -16.4942
  41   2.0000      -0.588251       -16.0071
  42   2.0000      -0.570278       -15.5181
  43   2.0000      -0.552775       -15.0418
  44   2.0000      -0.539168       -14.6715
  45   2.0000      -0.530439       -14.4340
  46   2.0000      -0.523040       -14.2327
  47   2.0000      -0.514837       -14.0094
  48   2.0000      -0.507775       -13.8173
  49   2.0000      -0.502012       -13.6604
  50   2.0000      -0.499133       -13.5821
  51   2.0000      -0.483615       -13.1598
  52   2.0000      -0.470569       -12.8048
  53   2.0000      -0.468603       -12.7513
  54   2.0000      -0.462400       -12.5825
  55   2.0000      -0.454006       -12.3541
  56   2.0000      -0.440241       -11.9796
  57   2.0000      -0.438788       -11.9400
  58   2.0000      -0.435494       -11.8504
  59   2.0000      -0.428256       -11.6534
  60   2.0000      -0.422835       -11.5059
  61   2.0000      -0.409462       -11.1420
  62   2.0000      -0.406327       -11.0567
  63   2.0000      -0.362873        -9.8743
  64   2.0000      -0.333135        -9.0651
  65   2.0000      -0.326740        -8.8911
  66   2.0000      -0.281161        -7.6508
  67   0.0000       0.020130         0.5478
  68   0.0000       0.092473         2.5163
  69   0.0000       0.111748         3.0408
  70   0.0000       0.116806         3.1784
  71   0.0000       0.134497         3.6598

MULLIKEN ATOMIC CHARGES
-----------------------
   0 S :    0.118812
   1 C :   -0.114949
   2 C :   -0.122025
   3 C :    0.002802
   4 C :   -0.082967
   5 H :   -0.035927
   6 C :    0.102564
   7 H :    0.013642
   8 H :    0.042353
   9 C :   -0.094466
  10 H :    0.024187
  11 H :    0.011997
  12 C :    0.008776
  13 H :    0.027850
  14 H :    0.023067
  15 H :    0.038481
  16 S :    0.092049
  17 C :   -0.096745
  18 C :   -0.045328
  19 C :    0.007678
  20 C :   -0.120391
  21 H :    0.013038
  22 C :    0.047050
  23 H :   -0.002764
  24 H :    0.014823
  25 C :   -0.118323
  26 H :    0.034013
  27 H :    0.037644
  28 C :   -0.046941
  29 H :    0.042605
  30 H :    0.039225
  31 H :    0.030842
  32 H :    0.027900
  33 H :    0.079428
Sum of atomic charges:   -0.0000000

LOEWDIN ATOMIC CHARGES
----------------------
   0 S :    0.456480
   1 C :   -0.209815
   2 C :   -0.056527
   3 C :   -0.064643
   4 C :   -0.212721
   5 H :    0.014500
   6 C :   -0.019568
   7 H :    0.026130
   8 H :    0.031421
   9 C :   -0.030732
  10 H :    0.020770
  11 H :    0.009568
  12 C :   -0.050012
  13 H :    0.021816
  14 H :    0.020194
  15 H :    0.033873
  16 S :    0.405521
  17 C :   -0.212163
  18 C :   -0.071603
  19 C :   -0.064418
  20 C :   -0.177971
  21 H :    0.026110
  22 C :   -0.040702
  23 H :    0.022358
  24 H :    0.029822
  25 C :   -0.038711
  26 H :    0.025412
  27 H :    0.030537
  28 C :   -0.068032
  29 H :    0.028774
  30 H :    0.026973
  31 H :    0.020515
  32 H :    0.021609
  33 H :    0.045236

  Mayer bond orders larger than 0.100000
B(  0-S ,  1-C ) :   1.1550 B(  0-S ,  4-C ) :   1.1766 B(  1-C ,  2-C ) :   1.5858
B(  1-C , 32-H ) :   0.9702 B(  2-C ,  3-C ) :   1.2975 B(  2-C ,  6-C ) :   1.0088
B(  3-C ,  4-C ) :   1.4907 B(  3-C ,  5-H ) :   0.9955 B(  4-C , 20-C ) :   1.0850
B(  6-C ,  7-H ) :   0.9374 B(  6-C ,  8-H ) :   0.9333 B(  6-C ,  9-C ) :   1.0771
B(  9-C , 10-H ) :   0.9643 B(  9-C , 11-H ) :   0.9434 B(  9-C , 12-C ) :   1.0873
B( 12-C , 13-H ) :   0.9745 B( 12-C , 14-H ) :   0.9779 B( 12-C , 15-H ) :   0.9731
B( 16-S , 17-C ) :   1.1621 B( 16-S , 20-C ) :   1.1284 B( 17-C , 18-C ) :   1.5825
B( 17-C , 33-H ) :   0.9638 B( 18-C , 19-C ) :   1.2619 B( 18-C , 21-H ) :   0.9937
B( 19-C , 20-C ) :   1.5727 B( 19-C , 22-C ) :   1.0225 B( 22-C , 23-H ) :   0.9308
B( 22-C , 24-H ) :   0.9344 B( 22-C , 25-C ) :   1.0844 B( 25-C , 26-H ) :   0.9531
B( 25-C , 27-H ) :   0.9536 B( 25-C , 28-C ) :   1.0720 B( 28-C , 29-H ) :   0.9751
B( 28-C , 30-H ) :   0.9750 B( 28-C , 31-H ) :   0.9719

Dispersion correction           -0.014263484
FINAL SINGLE POINT ENERGY     -1339.855574296047

DIPOLE MOMENT
-------------
                                X             Y             Z
Electronic contribution:    -12.23671      20.82781      21.23042
Nuclear contribution   :     12.48690     -21.39836     -21.56743
                        -----------------------------------------
Total Dipole Moment    :      0.25018      -0.57055      -0.33701
                        -----------------------------------------
Magnitude (a.u.)       :      0.70830
Magnitude (Debye)      :      1.80037

Rotational constants in cm-1:     0.018883     0.009302     0.006515
Rotational constants in MHz :   566.104323   278.869708   195.325925

                             ****ORCA TERMINATED NORMALLY****
TOTAL RUN TIME: 0 days 0 hours 0 minutes 35 seconds 741 msec
