                         Program Version 4.2.1 -  RELEASE  -
|  1> ! wB97X-D3 SP def2-SVP
|  2> %pal
|  3> nprocs 16
|  4> end
|  5>
|  6> * xyz 0 1
|  7> S 	 49.9301 	 6.10166 	 87.4586
|  8> C 	 49.8 	 7.85441 	 87.2855
|  9> C 	 49.8563 	 8.29632 	 86.0142
| 10> C 	 50.1175 	 7.19973 	 85.1168
| 11> C 	 50.297 	 6.00555 	 85.7686
| 12> H 	 50.3205 	 7.24567 	 84.0562
| 13> C 	 49.5062 	 9.7348 	 85.6034
| 14> H 	 50.2771 	 10.1145 	 84.9054
| 15> H 	 49.5959 	 10.4082 	 86.4701
| 16> C 	 48.0561 	 9.88413 	 85.015
| 17> H 	 47.7354 	 9.00015 	 84.4652
| 18> H 	 47.4405 	 10.125 	 85.8511
| 19> C 	 48.0917 	 11.1258 	 84.0414
| 20> H 	 48.4809 	 10.8639 	 83.0712
| 21> H 	 47.1151 	 11.5959 	 84.0775
| 22> H 	 48.7757 	 11.8737 	 84.5544
| 23> S 	 50.19 	 4.67643 	 83.4088
| 24> C 	 51.0268 	 3.20239 	 83.1432
| 25> C 	 51.8666 	 2.94819 	 84.1848
| 26> C 	 51.6291 	 3.80824 	 85.3178
| 27> C 	 50.6937 	 4.7789 	 85.0813
| 28> H 	 52.4289 	 2.10593 	 84.2909
| 29> C 	 52.4793 	 3.7373 	 86.609
| 30> H 	 52.6947 	 4.75865 	 86.8983
| 31> H 	 53.4353 	 3.24972 	 86.3551
| 32> C 	 51.9332 	 2.91134 	 87.8138
| 33> H 	 51.734 	 1.96835 	 87.3194
| 34> H 	 50.9165 	 3.31904 	 88.1472
| 35> C 	 52.9138 	 2.77782 	 89.0102
| 36> H 	 53.1776 	 3.79208 	 89.2898
| 37> H 	 53.8534 	 2.23603 	 88.7188
| 38> H 	 52.3588 	 2.42229 	 89.92
| 39> H 	 49.4496 	 8.52645 	 88.0823
| 40> H 	 50.9953 	 2.63798 	 82.2224
| 41> *
| 42>
| 43>                          ****END OF INPUT****

CARTESIAN COORDINATES (ANGSTROEM)
---------------------------------
  S     49.930100    6.101660   87.458600
  C     49.800000    7.854410   87.285500
  C     49.856300    8.296320   86.014200
  C     50.117500    7.199730   85.116800
  C     50.297000    6.005550   85.768600
  H     50.320500    7.245670   84.056200
  C     49.506200    9.734800   85.603400
  H     50.277100   10.114500   84.905400
  H     49.595900   10.408200   86.470100
  C     48.056100    9.884130   85.015000
  H     47.735400    9.000150   84.465200
  H     47.440500   10.125000   85.851100
  C     48.091700   11.125800   84.041400
  H     48.480900   10.863900   83.071200
  H     47.115100   11.595900   84.077500
  H     48.775700   11.873700   84.554400
  S     50.190000    4.676430   83.408800
  C     51.026800    3.202390   83.143200
  C     51.866600    2.948190   84.184800
  C     51.629100    3.808240   85.317800
  C     50.693700    4.778900   85.081300
  H     52.428900    2.105930   84.290900
  C     52.479300    3.737300   86.609000
  H     52.694700    4.758650   86.898300
  H     53.435300    3.249720   86.355100
  C     51.933200    2.911340   87.813800
  H     51.734000    1.968350   87.319400
  H     50.916500    3.319040   88.147200
  C     52.913800    2.777820   89.010200
  H     53.177600    3.792080   89.289800
  H     53.853400    2.236030   88.718800
  H     52.358800    2.422290   89.920000
  H     49.449600    8.526450   88.082300
  H     50.995300    2.637980   82.222400

 Total Charge           Charge          ....    0
 Multiplicity           Mult            ....    1
 Number of Electrons    NEL             ....  134
 Basis Dimension        Dim             ....  322

ORBITAL ENERGIES
----------------

  NO   OCC          E(Eh)            E(eV)
   0   2.0000     -88.969453     -2420.9819
   1   2.0000     -88.961832     -2420.7745
   2   2.0000     -10.329242      -281.0730
   3   2.0000     -10.323530      -280.9175
   4   2.0000     -10.315636      -280.7027
   5   2.0000     -10.309792      -280.5437
   6   2.0000     -10.301997      -280.3316
   7   2.0000     -10.299561      -280.2653
   8   2.0000     -10.298473      -280.2357
   9   2.0000     -10.291538      -280.0470
  10   2.0000     -10.291047      -280.0336
  11   2.0000     -10.289525      -279.9922
  12   2.0000     -10.289112      -279.9810
  13   2.0000     -10.286691      -279.9151
  14   2.0000     -10.285441      -279.8811
  15   2.0000     -10.283652      -279.8324
  16   2.0000      -8.083798      -219.9713
  17   2.0000      -8.077472      -219.7992
  18   2.0000      -6.042334      -164.4203
  19   2.0000      -6.038614      -164.3190
  20   2.0000      -6.036007      -164.2481
  21   2.0000      -6.034315      -164.2021
  22   2.0000      -6.031877      -164.1357
  23   2.0000      -6.028128      -164.0337
  24   2.0000      -1.012794       -27.5595
  25   2.0000      -0.989342       -26.9214
  26   2.0000      -0.907642       -24.6982
  27   2.0000      -0.899833       -24.4857
  28   2.0000      -0.873346       -23.7649
  29   2.0000      -0.851198       -23.1623
  30   2.0000      -0.843646       -22.9568
  31   2.0000      -0.813749       -22.1432
  32   2.0000      -0.778451       -21.1827
  33   2.0000      -0.768942       -20.9240
  34   2.0000      -0.704377       -19.1671
  35   2.0000      -0.697116       -18.9695
  36   2.0000      -0.688223       -18.7275
  37   2.0000      -0.674874       -18.3642
  38   2.0000      -0.635897       -17.3036
  39   2.0000      -0.617028       -16.7902
  40   2.0000      -0.596526       -16.2323
  41   2.0000      -0.569089       -15.4857
  42   2.0000      -0.567595       -15.4450
  43   2.0000      -0.560889       -15.2626
  44   2.0000      -0.520494       -14.1634
  45   2.0000      -0.518052       -14.0969
  46   2.0000      -0.516356       -14.0507
  47   2.0000      -0.509096       -13.8532
  48   2.0000      -0.504210       -13.7202
  49   2.0000      -0.499937       -13.6040
  50   2.0000      -0.488890       -13.3034
  51   2.0000      -0.479711       -13.0536
  52   2.0000      -0.470439       -12.8013
  53   2.0000      -0.467526       -12.7220
  54   2.0000      -0.463198       -12.6043
  55   2.0000      -0.453443       -12.3388
  56   2.0000      -0.440641       -11.9904
  57   2.0000      -0.435294       -11.8450
  58   2.0000      -0.434170       -11.8144
  59   2.0000      -0.423977       -11.5370
  60   2.0000      -0.417349       -11.3566
  61   2.0000      -0.414278       -11.2731
  62   2.0000      -0.410651       -11.1744
  63   2.0000      -0.358640        -9.7591
  64   2.0000      -0.332775        -9.0553
  65   2.0000      -0.329130        -8.9561
  66   2.0000      -0.291128        -7.9220
  67   0.0000       0.029610         0.8057
  68   0.0000       0.079564         2.1650
  69   0.0000       0.107069         2.9135
  70   0.0000       0.111801         3.0423
  71   0.0000       0.137054         3.7294

MULLIKEN ATOMIC CHARGES
-----------------------
   0 S :    0.112444
   1 C :   -0.124232
   2 C :   -0.064682
   3 C :   -0.015621
   4 C :   -0.134421
   5 H :    0.020681
   6 C :    0.026293
   7 H :    0.036737
   8 H :    0.022945
   9 C :   -0.055889
  10 H :    0.048402
  11 H :    0.029123
  12 C :   -0.074832
  13 H :    0.050786
  14 H :    0.036152
  15 H :    0.032688
  16 S :    0.077529
  17 C :   -0.074277
  18 C :    0.023904
  19 C :   -0.075272
  20 C :   -0.115571
  21 H :   -0.015893
  22 C :    0.034933
  23 H :    0.029556
  24 H :    0.014486
  25 C :   -0.084327
  26 H :    0.020717
  27 H :    0.035116
  28 C :   -0.043592
  29 H :    0.024092
  30 H :    0.047157
  31 H :    0.048694
  32 H :    0.046493
  33 H :    0.059681
Sum of atomic charges:    0.0000000

LOEWDIN ATOMIC CHARGES
----------------------
   0 S :    0.407506
   1 C :   -0.196788
   2 C :   -0.062115
   3 C :   -0.074183
   4 C :   -0.189371
   5 H :    0.023023
   6 C :   -0.032587
   7 H :    0.030117
   8 H :    0.030208
   9 C :   -0.029683
  10 H :    0.025884
  11 H :    0.021826
  12 C :   -0.064416
  13 H :    0.024394
  14 H :    0.024574
  15 H :    0.029496
  16 S :    0.420787
  17 C :   -0.183471
  18 C :   -0.063459
  19 C :   -0.056849
  20 C :   -0.191323
  21 H :    0.014025
  22 C :   -0.034864
  23 H :    0.022158
  24 H :    0.029247
  25 C :   -0.047434
  26 H :    0.018267
  27 H :    0.021892
  28 C :   -0.072077
  29 H :    0.023886
  30 H :    0.032271
  31 H :    0.037003
  32 H :    0.029990
  33 H :    0.032068

  Mayer bond orders larger than 0.100000
B(  0-S ,  1-C ) :   1.1101 B(  0-S ,  4-C ) :   1.1417 B(  1-C ,  2-C ) :   1.6754
B(  1-C , 32-H ) :   0.9551 B(  2-C ,  3-C ) :   1.2131 B(  2-C ,  6-C ) :   1.0259
B(  3-C ,  4-C ) :   1.6033 B(  3-C ,  5-H ) :   0.9815 B(  4-C , 20-C ) :   1.0375
B(  6-C ,  7-H ) :   0.9491 B(  6-C ,  8-H ) :   0.9388 B(  6-C ,  9-C ) :   1.0403
B(  9-C , 10-H ) :   0.9679 B(  9-C , 11-H ) :   0.9593 B(  9-C , 12-C ) :   1.0688
B( 12-C , 13-H ) :   0.9802 B( 12-C , 14-H ) :   0.9752 B( 12-C , 15-H ) :   0.9751
B( 16-S , 17-C ) :   1.1638 B( 16-S , 20-C ) :   1.1332 B( 17-C , 18-C ) :   1.5928
B( 17-C , 33-H ) :   0.9703 B( 18-C , 19-C ) :   1.2580 B( 18-C , 21-H ) :   0.9985
B( 19-C , 20-C ) :   1.5979 B( 19-C , 22-C ) :   1.0385 B( 22-C , 23-H ) :   0.9347
B( 22-C , 24-H ) :   0.9387 B( 22-C , 25-C ) :   1.0542 B( 25-C , 26-H ) :   0.9564
B( 25-C , 27-H ) :   0.9524 B( 25-C , 28-C ) :   1.0751 B( 28-C , 29-H ) :   0.9736
B( 28-C , 30-H ) :   0.9731 B( 28-C , 31-H ) :   0.9728

Dispersion correction           -0.013845424
FINAL SINGLE POINT ENERGY     -1339.879599233601

DIPOLE MOMENT
-------------
                                X             Y             Z
Electronic contribution:     -2.33895      -9.41203      -6.33592
Nuclear contribution   :      2.45223       9.62970       6.30303
                        -----------------------------------------
Total Dipole Moment    :      0.11328       0.21767      -0.03289
                        -----------------------------------------
Magnitude (a.u.)       :      0.24757
Magnitude (Debye)      :      0.62928

Rotational constants in cm-1:     0.021419     0.007930     0.006038
Rotational constants in MHz :   642.114490   237.738253   181.001795

                             ****ORCA TERMINATED NORMALLY****
TOTAL RUN TIME: 0 days 0 hours 0 minutes 29 seconds 331 msec
