                         Program Version 4.2.1 -  RELEASE  -
|  1> ! wB97X-D3 SP def2-SVP
|  2> %pal
|  3> nprocs 16
|  4> end
|  5>
|  6> * xyz 0 1
|  7> S 	 24.3182 	 5.85782 	 65.8632
|  8> C 	 24.8699 	 6.73291 	 64.4658
|  9> C 	 25.0854 	 8.05886 	 64.639
| 10> C 	 24.8401 	 8.45274 	 65.9899
| 11> C 	 24.429 	 7.43411 	 66.8168
| 12> H 	 24.8185 	 9.467 	 66.327
| 13> C 	 25.5427 	 8.97675 	 63.5659
| 14> H 	 25.1086 	 8.72029 	 62.6003
| 15> H 	 26.6797 	 8.84432 	 63.4686
| 16> C 	 25.4207 	 10.5333 	 63.8337
| 17> H 	 25.8609 	 10.6852 	 64.8337
| 18> H 	 25.9403 	 10.9934 	 63.0218
| 19> C 	 24.0149 	 11.0336 	 63.8629
| 20> H 	 23.3397 	 10.3883 	 63.411
| 21> H 	 23.5527 	 11.0081 	 64.8313
| 22> H 	 23.8938 	 12.0633 	 63.5532
| 23> S 	 23.1136 	 8.40471 	 68.956
| 24> C 	 23.531 	 7.85491 	 70.5544
| 25> C 	 24.6803 	 7.05427 	 70.5593
| 26> C 	 25.1279 	 6.72292 	 69.2182
| 27> C 	 24.3673 	 7.40648 	 68.2802
| 28> H 	 24.9357 	 6.6542 	 71.4652
| 29> C 	 26.2655 	 5.84739 	 69.0895
| 30> H 	 26.3991 	 5.63373 	 67.993
| 31> H 	 26.1219 	 4.87113 	 69.5483
| 32> C 	 27.6818 	 6.27201 	 69.5094
| 33> H 	 27.7528 	 6.5717 	 70.5457
| 34> H 	 28.0772 	 7.0427 	 68.9131
| 35> C 	 28.7336 	 5.14271 	 69.3649
| 36> H 	 28.5331 	 4.29748 	 70.0466
| 37> H 	 29.67 	 5.56761 	 69.6751
| 38> H 	 28.6553 	 4.63596 	 68.4027
| 39> H 	 25.0911 	 6.21918 	 63.5252
| 40> H 	 23.0575 	 8.35007 	 71.4557
| 41> *
| 42>
| 43>                          ****END OF INPUT****

CARTESIAN COORDINATES (ANGSTROEM)
---------------------------------
  S     24.318200    5.857820   65.863200
  C     24.869900    6.732910   64.465800
  C     25.085400    8.058860   64.639000
  C     24.840100    8.452740   65.989900
  C     24.429000    7.434110   66.816800
  H     24.818500    9.467000   66.327000
  C     25.542700    8.976750   63.565900
  H     25.108600    8.720290   62.600300
  H     26.679700    8.844320   63.468600
  C     25.420700   10.533300   63.833700
  H     25.860900   10.685200   64.833700
  H     25.940300   10.993400   63.021800
  C     24.014900   11.033600   63.862900
  H     23.339700   10.388300   63.411000
  H     23.552700   11.008100   64.831300
  H     23.893800   12.063300   63.553200
  S     23.113600    8.404710   68.956000
  C     23.531000    7.854910   70.554400
  C     24.680300    7.054270   70.559300
  C     25.127900    6.722920   69.218200
  C     24.367300    7.406480   68.280200
  H     24.935700    6.654200   71.465200
  C     26.265500    5.847390   69.089500
  H     26.399100    5.633730   67.993000
  H     26.121900    4.871130   69.548300
  C     27.681800    6.272010   69.509400
  H     27.752800    6.571700   70.545700
  H     28.077200    7.042700   68.913100
  C     28.733600    5.142710   69.364900
  H     28.533100    4.297480   70.046600
  H     29.670000    5.567610   69.675100
  H     28.655300    4.635960   68.402700
  H     25.091100    6.219180   63.525200
  H     23.057500    8.350070   71.455700

 Total Charge           Charge          ....    0
 Multiplicity           Mult            ....    1
 Number of Electrons    NEL             ....  134
 Basis Dimension        Dim             ....  322

ORBITAL ENERGIES
----------------

  NO   OCC          E(Eh)            E(eV)
   0   2.0000     -88.965426     -2420.8723
   1   2.0000     -88.965146     -2420.8647
   2   2.0000     -10.333338      -281.1844
   3   2.0000     -10.326715      -281.0042
   4   2.0000     -10.320679      -280.8400
   5   2.0000     -10.309938      -280.5477
   6   2.0000     -10.303926      -280.3841
   7   2.0000     -10.297464      -280.2082
   8   2.0000     -10.295849      -280.1643
   9   2.0000     -10.295375      -280.1514
  10   2.0000     -10.290173      -280.0098
  11   2.0000     -10.288089      -279.9531
  12   2.0000     -10.286764      -279.9171
  13   2.0000     -10.279976      -279.7324
  14   2.0000     -10.276387      -279.6347
  15   2.0000     -10.264014      -279.2980
  16   2.0000      -8.080380      -219.8783
  17   2.0000      -8.078879      -219.8375
  18   2.0000      -6.038791      -164.3238
  19   2.0000      -6.037381      -164.2855
  20   2.0000      -6.034812      -164.2156
  21   2.0000      -6.033731      -164.1862
  22   2.0000      -6.031242      -164.1184
  23   2.0000      -6.029558      -164.0726
  24   2.0000      -1.003553       -27.3081
  25   2.0000      -0.982267       -26.7288
  26   2.0000      -0.912542       -24.8315
  27   2.0000      -0.910711       -24.7817
  28   2.0000      -0.870015       -23.6743
  29   2.0000      -0.856453       -23.3053
  30   2.0000      -0.847781       -23.0693
  31   2.0000      -0.817302       -22.2399
  32   2.0000      -0.783971       -21.3329
  33   2.0000      -0.769234       -20.9319
  34   2.0000      -0.710788       -19.3415
  35   2.0000      -0.699474       -19.0336
  36   2.0000      -0.686946       -18.6928
  37   2.0000      -0.666063       -18.1245
  38   2.0000      -0.638234       -17.3672
  39   2.0000      -0.628184       -17.0937
  40   2.0000      -0.602044       -16.3824
  41   2.0000      -0.570048       -15.5118
  42   2.0000      -0.559364       -15.2211
  43   2.0000      -0.548953       -14.9378
  44   2.0000      -0.543385       -14.7863
  45   2.0000      -0.530718       -14.4416
  46   2.0000      -0.517397       -14.0791
  47   2.0000      -0.516187       -14.0462
  48   2.0000      -0.509726       -13.8704
  49   2.0000      -0.498901       -13.5758
  50   2.0000      -0.488843       -13.3021
  51   2.0000      -0.480314       -13.0700
  52   2.0000      -0.468286       -12.7427
  53   2.0000      -0.461855       -12.5677
  54   2.0000      -0.453727       -12.3465
  55   2.0000      -0.450989       -12.2720
  56   2.0000      -0.443416       -12.0660
  57   2.0000      -0.432736       -11.7753
  58   2.0000      -0.431779       -11.7493
  59   2.0000      -0.426754       -11.6126
  60   2.0000      -0.422286       -11.4910
  61   2.0000      -0.415257       -11.2997
  62   2.0000      -0.410596       -11.1729
  63   2.0000      -0.342912        -9.3311
  64   2.0000      -0.331164        -9.0114
  65   2.0000      -0.322738        -8.7821
  66   2.0000      -0.296579        -8.0703
  67   0.0000       0.034464         0.9378
  68   0.0000       0.063254         1.7212
  69   0.0000       0.099576         2.7096
  70   0.0000       0.113497         3.0884
  71   0.0000       0.127278         3.4634

MULLIKEN ATOMIC CHARGES
-----------------------
   0 S :    0.101457
   1 C :   -0.138586
   2 C :   -0.050198
   3 C :    0.050438
   4 C :   -0.154311
   5 H :    0.006055
   6 C :    0.006072
   7 H :    0.032807
   8 H :    0.052534
   9 C :   -0.073874
  10 H :    0.040251
  11 H :    0.032522
  12 C :   -0.008112
  13 H :    0.009080
  14 H :    0.010310
  15 H :    0.035266
  16 S :    0.109579
  17 C :   -0.125703
  18 C :   -0.002397
  19 C :    0.020424
  20 C :   -0.179393
  21 H :   -0.008147
  22 C :    0.034495
  23 H :    0.019029
  24 H :    0.026293
  25 C :   -0.050173
  26 H :    0.019774
  27 H :    0.023792
  28 C :   -0.054336
  29 H :    0.018333
  30 H :    0.036927
  31 H :    0.031488
  32 H :    0.046911
  33 H :    0.081390
Sum of atomic charges:   -0.0000000

LOEWDIN ATOMIC CHARGES
----------------------
   0 S :    0.371754
   1 C :   -0.191757
   2 C :   -0.076966
   3 C :   -0.052261
   4 C :   -0.166354
   5 H :    0.028330
   6 C :   -0.034961
   7 H :    0.027949
   8 H :    0.044889
   9 C :   -0.037419
  10 H :    0.027332
  11 H :    0.025967
  12 C :   -0.071060
  13 H :    0.019335
  14 H :    0.025311
  15 H :    0.028836
  16 S :    0.415162
  17 C :   -0.195597
  18 C :   -0.054176
  19 C :   -0.054181
  20 C :   -0.202673
  21 H :    0.016385
  22 C :   -0.046282
  23 H :    0.031949
  24 H :    0.034015
  25 C :   -0.029419
  26 H :    0.018914
  27 H :    0.018859
  28 C :   -0.063115
  29 H :    0.022049
  30 H :    0.026723
  31 H :    0.025034
  32 H :    0.028647
  33 H :    0.038778

  Mayer bond orders larger than 0.100000
B(  0-S ,  1-C ) :   1.1368 B(  0-S ,  4-C ) :   1.1161 B(  1-C ,  2-C ) :   1.6475
B(  1-C , 32-H ) :   0.9623 B(  2-C ,  3-C ) :   1.2253 B(  2-C ,  6-C ) :   1.0130
B(  3-C ,  4-C ) :   1.6187 B(  3-C ,  5-H ) :   0.9822 B(  4-C , 20-C ) :   1.0039
B(  6-C ,  7-H ) :   0.9450 B(  6-C ,  8-H ) :   0.9329 B(  6-C ,  9-C ) :   1.0941
B(  9-C , 10-H ) :   0.9504 B(  9-C , 11-H ) :   0.9560 B(  9-C , 12-C ) :   1.0774
B( 12-C , 13-H ) :   0.9713 B( 12-C , 14-H ) :   0.9635 B( 12-C , 15-H ) :   0.9743
B( 16-S , 17-C ) :   1.1575 B( 16-S , 20-C ) :   1.1543 B( 17-C , 18-C ) :   1.6208
B( 17-C , 33-H ) :   0.9567 B( 18-C , 19-C ) :   1.2016 B( 18-C , 21-H ) :   1.0019
B( 19-C , 20-C ) :   1.5933 B( 19-C , 22-C ) :   1.0845 B( 22-C , 23-H ) :   0.9149
B( 22-C , 24-H ) :   0.9269 B( 22-C , 25-C ) :   1.0706 B( 25-C , 26-H ) :   0.9525
B( 25-C , 27-H ) :   0.9558 B( 25-C , 28-C ) :   1.0832 B( 28-C , 29-H ) :   0.9731
B( 28-C , 30-H ) :   0.9742 B( 28-C , 31-H ) :   0.9745

Dispersion correction           -0.014084291
FINAL SINGLE POINT ENERGY     -1339.862694358977

DIPOLE MOMENT
-------------
                                X             Y             Z
Electronic contribution:    -16.68769      -5.46226       5.24504
Nuclear contribution   :     17.12470       5.67870      -5.27507
                        -----------------------------------------
Total Dipole Moment    :      0.43701       0.21644      -0.03004
                        -----------------------------------------
Magnitude (a.u.)       :      0.48860
Magnitude (Debye)      :      1.24191

Rotational constants in cm-1:     0.017742     0.008551     0.007117
Rotational constants in MHz :   531.899574   256.353087   213.354973

                             ****ORCA TERMINATED NORMALLY****
TOTAL RUN TIME: 0 days 0 hours 0 minutes 29 seconds 607 msec
