                         Program Version 4.2.1 -  RELEASE  -
|  1> ! wB97X-D3 SP def2-SVP
|  2> %pal
|  3> nprocs 16
|  4> end
|  5>
|  6> * xyz 0 1
|  7> S 	 -2.18631 	 23.9175 	 36.0885
|  8> C 	 -3.01559 	 23.9352 	 34.5062
|  9> C 	 -2.07215 	 23.5918 	 33.5005
| 10> C 	 -0.783579 	 23.2334 	 34.0651
| 11> C 	 -0.702139 	 23.1797 	 35.4367
| 12> H 	 0.0724576 	 22.9642 	 33.4431
| 13> C 	 -2.30885 	 23.7896 	 31.9858
| 14> H 	 -1.53834 	 24.377 	 31.4866
| 15> H 	 -3.16724 	 24.3378 	 31.8288
| 16> C 	 -2.58592 	 22.5065 	 31.0415
| 17> H 	 -1.80435 	 21.9113 	 30.8443
| 18> H 	 -3.31836 	 21.8914 	 31.4666
| 19> C 	 -3.21118 	 22.8634 	 29.6905
| 20> H 	 -2.57071 	 23.3819 	 29.0547
| 21> H 	 -3.55038 	 21.9661 	 29.1138
| 22> H 	 -4.05233 	 23.6398 	 29.7515
| 23> S 	 0.522309 	 24.0801 	 37.734
| 24> C 	 2.14544 	 23.5014 	 38.092
| 25> C 	 2.67233 	 22.6901 	 37.0582
| 26> C 	 1.69741 	 22.3085 	 36.1013
| 27> C 	 0.473205 	 23.0711 	 36.2575
| 28> H 	 3.71657 	 22.3241 	 37.0266
| 29> C 	 2.08064 	 21.3797 	 34.9755
| 30> H 	 3.19321 	 21.1911 	 34.8807
| 31> H 	 1.82843 	 21.8686 	 34.0456
| 32> C 	 1.66826 	 19.9152 	 35.015
| 33> H 	 2.25234 	 19.4424 	 35.7931
| 34> H 	 1.88381 	 19.4777 	 34.034
| 35> C 	 0.160782 	 19.687 	 35.3961
| 36> H 	 0.00325491 	 19.9535 	 36.4488
| 37> H 	 -0.202431 	 18.694 	 35.3541
| 38> H 	 -0.471119 	 20.3216 	 34.7178
| 39> H 	 -3.96813 	 24.3539 	 34.2898
| 40> H 	 2.70733 	 23.7884 	 38.9681
| 41> *
| 42>
| 43>                          ****END OF INPUT****

CARTESIAN COORDINATES (ANGSTROEM)
---------------------------------
  S     -2.186310   23.917500   36.088500
  C     -3.015590   23.935200   34.506200
  C     -2.072150   23.591800   33.500500
  C     -0.783579   23.233400   34.065100
  C     -0.702139   23.179700   35.436700
  H      0.072458   22.964200   33.443100
  C     -2.308850   23.789600   31.985800
  H     -1.538340   24.377000   31.486600
  H     -3.167240   24.337800   31.828800
  C     -2.585920   22.506500   31.041500
  H     -1.804350   21.911300   30.844300
  H     -3.318360   21.891400   31.466600
  C     -3.211180   22.863400   29.690500
  H     -2.570710   23.381900   29.054700
  H     -3.550380   21.966100   29.113800
  H     -4.052330   23.639800   29.751500
  S      0.522309   24.080100   37.734000
  C      2.145440   23.501400   38.092000
  C      2.672330   22.690100   37.058200
  C      1.697410   22.308500   36.101300
  C      0.473205   23.071100   36.257500
  H      3.716570   22.324100   37.026600
  C      2.080640   21.379700   34.975500
  H      3.193210   21.191100   34.880700
  H      1.828430   21.868600   34.045600
  C      1.668260   19.915200   35.015000
  H      2.252340   19.442400   35.793100
  H      1.883810   19.477700   34.034000
  C      0.160782   19.687000   35.396100
  H      0.003255   19.953500   36.448800
  H     -0.202431   18.694000   35.354100
  H     -0.471119   20.321600   34.717800
  H     -3.968130   24.353900   34.289800
  H      2.707330   23.788400   38.968100

 Total Charge           Charge          ....    0
 Multiplicity           Mult            ....    1
 Number of Electrons    NEL             ....  134
 Basis Dimension        Dim             ....  322

ORBITAL ENERGIES
----------------

  NO   OCC          E(Eh)            E(eV)
   0   2.0000     -88.974450     -2421.1179
   1   2.0000     -88.966872     -2420.9117
   2   2.0000     -10.338690      -281.3301
   3   2.0000     -10.334514      -281.2164
   4   2.0000     -10.323116      -280.9063
   5   2.0000     -10.323088      -280.9055
   6   2.0000     -10.313763      -280.6518
   7   2.0000     -10.312482      -280.6169
   8   2.0000     -10.301663      -280.3225
   9   2.0000     -10.298273      -280.2303
  10   2.0000     -10.296552      -280.1834
  11   2.0000     -10.295651      -280.1589
  12   2.0000     -10.287279      -279.9311
  13   2.0000     -10.280990      -279.7600
  14   2.0000     -10.278009      -279.6788
  15   2.0000     -10.269248      -279.4405
  16   2.0000      -8.087941      -220.0841
  17   2.0000      -8.080529      -219.8824
  18   2.0000      -6.046428      -164.5317
  19   2.0000      -6.042627      -164.4282
  20   2.0000      -6.039302      -164.3377
  21   2.0000      -6.038793      -164.3239
  22   2.0000      -6.035265      -164.2279
  23   2.0000      -6.030973      -164.1111
  24   2.0000      -1.000380       -27.2217
  25   2.0000      -0.973943       -26.5023
  26   2.0000      -0.909004       -24.7352
  27   2.0000      -0.904176       -24.6039
  28   2.0000      -0.870003       -23.6740
  29   2.0000      -0.848366       -23.0852
  30   2.0000      -0.841653       -22.9025
  31   2.0000      -0.810241       -22.0478
  32   2.0000      -0.783113       -21.3096
  33   2.0000      -0.770344       -20.9621
  34   2.0000      -0.713978       -19.4283
  35   2.0000      -0.706967       -19.2375
  36   2.0000      -0.690609       -18.7924
  37   2.0000      -0.659861       -17.9557
  38   2.0000      -0.643559       -17.5121
  39   2.0000      -0.620246       -16.8778
  40   2.0000      -0.594785       -16.1849
  41   2.0000      -0.567085       -15.4312
  42   2.0000      -0.558403       -15.1949
  43   2.0000      -0.552192       -15.0259
  44   2.0000      -0.540597       -14.7104
  45   2.0000      -0.521916       -14.2021
  46   2.0000      -0.513534       -13.9740
  47   2.0000      -0.511201       -13.9105
  48   2.0000      -0.504490       -13.7279
  49   2.0000      -0.500649       -13.6233
  50   2.0000      -0.490783       -13.3549
  51   2.0000      -0.475098       -12.9281
  52   2.0000      -0.469227       -12.7683
  53   2.0000      -0.463972       -12.6253
  54   2.0000      -0.457148       -12.4396
  55   2.0000      -0.451863       -12.2958
  56   2.0000      -0.441814       -12.0224
  57   2.0000      -0.437960       -11.9175
  58   2.0000      -0.430496       -11.7144
  59   2.0000      -0.426699       -11.6111
  60   2.0000      -0.422774       -11.5043
  61   2.0000      -0.417178       -11.3520
  62   2.0000      -0.404756       -11.0140
  63   2.0000      -0.356893        -9.7115
  64   2.0000      -0.338216        -9.2033
  65   2.0000      -0.325646        -8.8613
  66   2.0000      -0.278073        -7.5667
  67   0.0000       0.008984         0.2445
  68   0.0000       0.070097         1.9074
  69   0.0000       0.088660         2.4126
  70   0.0000       0.115606         3.1458
  71   0.0000       0.125452         3.4137

MULLIKEN ATOMIC CHARGES
-----------------------
   0 S :    0.070883
   1 C :   -0.090210
   2 C :   -0.091477
   3 C :    0.010721
   4 C :   -0.092231
   5 H :    0.015373
   6 C :    0.078591
   7 H :    0.036076
   8 H :   -0.013326
   9 C :    0.001387
  10 H :    0.004299
  11 H :    0.017536
  12 C :   -0.097434
  13 H :    0.010857
  14 H :    0.047145
  15 H :    0.028734
  16 S :    0.112008
  17 C :   -0.094829
  18 C :   -0.042411
  19 C :   -0.023060
  20 C :   -0.145979
  21 H :    0.036194
  22 C :    0.015651
  23 H :    0.030609
  24 H :    0.027441
  25 C :   -0.062624
  26 H :    0.027150
  27 H :    0.035310
  28 C :   -0.063218
  29 H :    0.040688
  30 H :    0.023275
  31 H :    0.040785
  32 H :    0.045433
  33 H :    0.060653
Sum of atomic charges:    0.0000000

LOEWDIN ATOMIC CHARGES
----------------------
   0 S :    0.373189
   1 C :   -0.179440
   2 C :   -0.055618
   3 C :   -0.064415
   4 C :   -0.180794
   5 H :    0.029413
   6 C :   -0.022183
   7 H :    0.034471
   8 H :    0.017324
   9 C :   -0.023989
  10 H :    0.006052
  11 H :    0.020860
  12 C :   -0.070650
  13 H :    0.009883
  14 H :    0.034743
  15 H :    0.029081
  16 S :    0.401290
  17 C :   -0.186449
  18 C :   -0.068972
  19 C :   -0.052197
  20 C :   -0.184135
  21 H :    0.038435
  22 C :   -0.041299
  23 H :    0.042471
  24 H :    0.024213
  25 C :   -0.034951
  26 H :    0.021289
  27 H :    0.026816
  28 C :   -0.072750
  29 H :    0.028974
  30 H :    0.016997
  31 H :    0.029349
  32 H :    0.025178
  33 H :    0.027812

  Mayer bond orders larger than 0.100000
B(  0-S ,  1-C ) :   1.1303 B(  0-S ,  4-C ) :   1.1239 B(  1-C ,  2-C ) :   1.5980
B(  1-C , 32-H ) :   0.9709 B(  2-C ,  3-C ) :   1.2529 B(  2-C ,  6-C ) :   1.0355
B(  3-C ,  4-C ) :   1.5499 B(  3-C ,  5-H ) :   0.9867 B(  4-C , 20-C ) :   1.1182
B(  6-C ,  7-H ) :   0.9493 B(  6-C ,  8-H ) :   0.9383 B(  6-C ,  9-C ) :   1.0453
B(  9-C , 10-H ) :   0.9576 B(  9-C , 11-H ) :   0.9574 B(  9-C , 12-C ) :   1.0802
B( 12-C , 13-H ) :   0.9764 B( 12-C , 14-H ) :   0.9742 B( 12-C , 15-H ) :   0.9728
B( 16-S , 17-C ) :   1.1606 B( 16-S , 20-C ) :   1.1443 B( 17-C , 18-C ) :   1.5674
B( 17-C , 20-C ) :   0.1118 B( 17-C , 33-H ) :   0.9699 B( 18-C , 19-C ) :   1.2955
B( 18-C , 21-H ) :   0.9784 B( 19-C , 20-C ) :   1.5148 B( 19-C , 22-C ) :   1.0292
B( 22-C , 23-H ) :   0.9419 B( 22-C , 24-H ) :   0.9380 B( 22-C , 25-C ) :   1.0647
B( 25-C , 26-H ) :   0.9579 B( 25-C , 27-H ) :   0.9548 B( 25-C , 28-C ) :   1.0832
B( 28-C , 29-H ) :   0.9698 B( 28-C , 30-H ) :   0.9766 B( 28-C , 31-H ) :   0.9749

Dispersion correction           -0.014405204
FINAL SINGLE POINT ENERGY     -1339.846416264360

DIPOLE MOMENT
-------------
                                X             Y             Z
Electronic contribution:      1.50050      14.86915      26.08550
Nuclear contribution   :     -1.13602     -15.00632     -26.68974
                        -----------------------------------------
Total Dipole Moment    :      0.36448      -0.13716      -0.60423
                        -----------------------------------------
Magnitude (a.u.)       :      0.71886
Magnitude (Debye)      :      1.82720

Rotational constants in cm-1:     0.020400     0.008222     0.006522
Rotational constants in MHz :   611.572512   246.486501   195.535169

                             ****ORCA TERMINATED NORMALLY****
TOTAL RUN TIME: 0 days 0 hours 0 minutes 32 seconds 768 msec
