                         Program Version 4.2.1 -  RELEASE  -
|  1> ! wB97X-D3 SP def2-SVP
|  2> %pal
|  3> nprocs 16
|  4> end
|  5>
|  6> * xyz 0 1
|  7> S 	 -42.5467 	 54.7775 	 113.275
|  8> C 	 -43.8484 	 54.3706 	 112.199
|  9> C 	 -43.5091 	 54.6936 	 110.851
| 10> C 	 -42.1144 	 55.1822 	 110.733
| 11> C 	 -41.4335 	 55.2168 	 111.961
| 12> H 	 -41.7315 	 55.6612 	 109.852
| 13> C 	 -44.4866 	 54.6153 	 109.678
| 14> H 	 -45.5318 	 54.2746 	 109.891
| 15> H 	 -44.1848 	 53.8121 	 108.988
| 16> C 	 -44.5118 	 55.97 	 108.783
| 17> H 	 -43.5691 	 56.1346 	 108.264
| 18> H 	 -45.269 	 55.9462 	 108.024
| 19> C 	 -44.8378 	 57.0691 	 109.758
| 20> H 	 -45.8979 	 56.9758 	 110.105
| 21> H 	 -44.2387 	 57.132 	 110.588
| 22> H 	 -44.8974 	 57.9901 	 109.215
| 23> S 	 -40.0709 	 57.2958 	 113.009
| 24> C 	 -38.2802 	 57.2336 	 113.1
| 25> C 	 -37.856 	 56.2454 	 112.217
| 26> C 	 -38.849 	 55.4055 	 111.671
| 27> C 	 -40.1529 	 55.7639 	 112.175
| 28> H 	 -36.8179 	 56.069 	 112.075
| 29> C 	 -38.4458 	 54.2768 	 110.619
| 30> H 	 -37.4745 	 54.5859 	 110.238
| 31> H 	 -39.0787 	 54.2965 	 109.736
| 32> C 	 -38.5749 	 52.8428 	 111.119
| 33> H 	 -39.4824 	 52.4483 	 111.501
| 34> H 	 -37.8951 	 52.7509 	 111.986
| 35> C 	 -37.9467 	 51.877 	 110.129
| 36> H 	 -38.4177 	 51.9224 	 109.166
| 37> H 	 -38.0758 	 50.825 	 110.364
| 38> H 	 -36.8995 	 52.0551 	 109.971
| 39> H 	 -44.8947 	 54.2303 	 112.431
| 40> H 	 -37.6698 	 58.0176 	 113.528
| 41> *
| 42>
| 43>                          ****END OF INPUT****

CARTESIAN COORDINATES (ANGSTROEM)
---------------------------------
  S    -42.546700   54.777500  113.275000
  C    -43.848400   54.370600  112.199000
  C    -43.509100   54.693600  110.851000
  C    -42.114400   55.182200  110.733000
  C    -41.433500   55.216800  111.961000
  H    -41.731500   55.661200  109.852000
  C    -44.486600   54.615300  109.678000
  H    -45.531800   54.274600  109.891000
  H    -44.184800   53.812100  108.988000
  C    -44.511800   55.970000  108.783000
  H    -43.569100   56.134600  108.264000
  H    -45.269000   55.946200  108.024000
  C    -44.837800   57.069100  109.758000
  H    -45.897900   56.975800  110.105000
  H    -44.238700   57.132000  110.588000
  H    -44.897400   57.990100  109.215000
  S    -40.070900   57.295800  113.009000
  C    -38.280200   57.233600  113.100000
  C    -37.856000   56.245400  112.217000
  C    -38.849000   55.405500  111.671000
  C    -40.152900   55.763900  112.175000
  H    -36.817900   56.069000  112.075000
  C    -38.445800   54.276800  110.619000
  H    -37.474500   54.585900  110.238000
  H    -39.078700   54.296500  109.736000
  C    -38.574900   52.842800  111.119000
  H    -39.482400   52.448300  111.501000
  H    -37.895100   52.750900  111.986000
  C    -37.946700   51.877000  110.129000
  H    -38.417700   51.922400  109.166000
  H    -38.075800   50.825000  110.364000
  H    -36.899500   52.055100  109.971000
  H    -44.894700   54.230300  112.431000
  H    -37.669800   58.017600  113.528000

 Total Charge           Charge          ....    0
 Multiplicity           Mult            ....    1
 Number of Electrons    NEL             ....  134
 Basis Dimension        Dim             ....  322

ORBITAL ENERGIES
----------------

  NO   OCC          E(Eh)            E(eV)
   0   2.0000     -88.969590     -2420.9856
   1   2.0000     -88.967053     -2420.9166
   2   2.0000     -10.332479      -281.1611
   3   2.0000     -10.329873      -281.0901
   4   2.0000     -10.321422      -280.8602
   5   2.0000     -10.318348      -280.7765
   6   2.0000     -10.313833      -280.6537
   7   2.0000     -10.312661      -280.6218
   8   2.0000     -10.303077      -280.3610
   9   2.0000     -10.301796      -280.3261
  10   2.0000     -10.300038      -280.2783
  11   2.0000     -10.293579      -280.1025
  12   2.0000     -10.289514      -279.9919
  13   2.0000     -10.280927      -279.7582
  14   2.0000     -10.269208      -279.4393
  15   2.0000     -10.263820      -279.2927
  16   2.0000      -8.083670      -219.9678
  17   2.0000      -8.081104      -219.8980
  18   2.0000      -6.042319      -164.4199
  19   2.0000      -6.039602      -164.3459
  20   2.0000      -6.038157      -164.3066
  21   2.0000      -6.035700      -164.2397
  22   2.0000      -6.034395      -164.2042
  23   2.0000      -6.031903      -164.1364
  24   2.0000      -1.001167       -27.2431
  25   2.0000      -0.974621       -26.5208
  26   2.0000      -0.907543       -24.6955
  27   2.0000      -0.905358       -24.6360
  28   2.0000      -0.873371       -23.7656
  29   2.0000      -0.847642       -23.0655
  30   2.0000      -0.841135       -22.8885
  31   2.0000      -0.810339       -22.0504
  32   2.0000      -0.779722       -21.2173
  33   2.0000      -0.767803       -20.8930
  34   2.0000      -0.713134       -19.4054
  35   2.0000      -0.700795       -19.0696
  36   2.0000      -0.694497       -18.8982
  37   2.0000      -0.660660       -17.9775
  38   2.0000      -0.638154       -17.3651
  39   2.0000      -0.619801       -16.8656
  40   2.0000      -0.596239       -16.2245
  41   2.0000      -0.566212       -15.4074
  42   2.0000      -0.561831       -15.2882
  43   2.0000      -0.548840       -14.9347
  44   2.0000      -0.542390       -14.7592
  45   2.0000      -0.524785       -14.2801
  46   2.0000      -0.515510       -14.0277
  47   2.0000      -0.508558       -13.8386
  48   2.0000      -0.504429       -13.7262
  49   2.0000      -0.499643       -13.5960
  50   2.0000      -0.490961       -13.3597
  51   2.0000      -0.481945       -13.1144
  52   2.0000      -0.467547       -12.7226
  53   2.0000      -0.461345       -12.5538
  54   2.0000      -0.457488       -12.4489
  55   2.0000      -0.451111       -12.2754
  56   2.0000      -0.447723       -12.1832
  57   2.0000      -0.437769       -11.9123
  58   2.0000      -0.428165       -11.6510
  59   2.0000      -0.424231       -11.5439
  60   2.0000      -0.421501       -11.4696
  61   2.0000      -0.410355       -11.1663
  62   2.0000      -0.406173       -11.0525
  63   2.0000      -0.343858        -9.3568
  64   2.0000      -0.328996        -8.9524
  65   2.0000      -0.320811        -8.7297
  66   2.0000      -0.293926        -7.9981
  67   0.0000       0.019087         0.5194
  68   0.0000       0.059342         1.6148
  69   0.0000       0.105142         2.8611
  70   0.0000       0.111863         3.0440
  71   0.0000       0.130868         3.5611

MULLIKEN ATOMIC CHARGES
-----------------------
   0 S :    0.119879
   1 C :   -0.092322
   2 C :   -0.137611
   3 C :    0.055146
   4 C :   -0.166861
   5 H :    0.020825
   6 C :    0.026737
   7 H :    0.029539
   8 H :    0.039493
   9 C :   -0.081002
  10 H :    0.034918
  11 H :    0.025081
  12 C :   -0.019676
  13 H :    0.018720
  14 H :    0.037797
  15 H :    0.018167
  16 S :    0.107768
  17 C :   -0.098653
  18 C :   -0.036163
  19 C :    0.002365
  20 C :   -0.184796
  21 H :    0.012379
  22 C :    0.078513
  23 H :    0.017642
  24 H :    0.021728
  25 C :   -0.048232
  26 H :    0.037952
  27 H :    0.020725
  28 C :   -0.043976
  29 H :    0.011629
  30 H :    0.027747
  31 H :    0.024488
  32 H :    0.054991
  33 H :    0.065063
Sum of atomic charges:   -0.0000000

LOEWDIN ATOMIC CHARGES
----------------------
   0 S :    0.409954
   1 C :   -0.210939
   2 C :   -0.058145
   3 C :   -0.050614
   4 C :   -0.200227
   5 H :    0.029511
   6 C :   -0.040375
   7 H :    0.032943
   8 H :    0.031970
   9 C :   -0.033335
  10 H :    0.020363
  11 H :    0.022509
  12 C :   -0.059999
  13 H :    0.030139
  14 H :    0.013269
  15 H :    0.021178
  16 S :    0.403215
  17 C :   -0.179033
  18 C :   -0.070121
  19 C :   -0.046435
  20 C :   -0.206090
  21 H :    0.025970
  22 C :   -0.021272
  23 H :    0.031000
  24 H :    0.028295
  25 C :   -0.040272
  26 H :    0.026115
  27 H :    0.026853
  28 C :   -0.065500
  29 H :    0.017541
  30 H :    0.026880
  31 H :    0.021505
  32 H :    0.032154
  33 H :    0.030994

  Mayer bond orders larger than 0.100000
B(  0-S ,  1-C ) :   1.1443 B(  0-S ,  4-C ) :   1.1379 B(  1-C ,  2-C ) :   1.6023
B(  1-C , 32-H ) :   0.9630 B(  2-C ,  3-C ) :   1.2357 B(  2-C ,  6-C ) :   1.0264
B(  3-C ,  4-C ) :   1.5640 B(  3-C ,  5-H ) :   0.9884 B(  4-C , 20-C ) :   1.0880
B(  6-C ,  7-H ) :   0.9529 B(  6-C ,  8-H ) :   0.9412 B(  6-C ,  9-C ) :   1.0568
B(  9-C , 10-H ) :   0.9570 B(  9-C , 11-H ) :   0.9570 B(  9-C , 12-C ) :   1.0812
B( 12-C , 13-H ) :   0.9713 B( 12-C , 14-H ) :   0.9754 B( 12-C , 15-H ) :   0.9707
B( 16-S , 17-C ) :   1.1467 B( 16-S , 20-C ) :   1.1763 B( 17-C , 18-C ) :   1.5688
B( 17-C , 20-C ) :   0.1210 B( 17-C , 33-H ) :   0.9711 B( 18-C , 19-C ) :   1.2949
B( 18-C , 21-H ) :   0.9856 B( 19-C , 20-C ) :   1.5191 B( 19-C , 22-C ) :   1.0198
B( 22-C , 23-H ) :   0.9429 B( 22-C , 24-H ) :   0.9398 B( 22-C , 25-C ) :   1.0532
B( 25-C , 26-H ) :   0.9600 B( 25-C , 27-H ) :   0.9534 B( 25-C , 28-C ) :   1.0858
B( 28-C , 29-H ) :   0.9717 B( 28-C , 30-H ) :   0.9723 B( 28-C , 31-H ) :   0.9760

Dispersion correction           -0.014447977
FINAL SINGLE POINT ENERGY     -1339.851525890400

DIPOLE MOMENT
-------------
                                X             Y             Z
Electronic contribution:      1.51103       9.38640      20.01869
Nuclear contribution   :     -1.47230      -9.38379     -20.66803
                        -----------------------------------------
Total Dipole Moment    :      0.03873       0.00261      -0.64934
                        -----------------------------------------
Magnitude (a.u.)       :      0.65050
Magnitude (Debye)      :      1.65344

Rotational constants in cm-1:     0.017034     0.008977     0.007402
Rotational constants in MHz :   510.656156   269.131017   221.919274

                             ****ORCA TERMINATED NORMALLY****
TOTAL RUN TIME: 0 days 0 hours 0 minutes 28 seconds 168 msec
