                         Program Version 4.2.1 -  RELEASE  -
|  1> ! wB97X-D3 SP def2-SVP
|  2> %pal
|  3> nprocs 16
|  4> end
|  5>
|  6> * xyz 0 1
|  7> S 	 18.2669 	 -9.99867 	 79.0782
|  8> C 	 17.3764 	 -11.4444 	 79.3712
|  9> C 	 17.5022 	 -11.939 	 80.672
| 10> C 	 18.3768 	 -11.0938 	 81.4652
| 11> C 	 18.8037 	 -9.96534 	 80.7497
| 12> H 	 18.6939 	 -11.2214 	 82.4703
| 13> C 	 16.8389 	 -13.1791 	 81.2646
| 14> H 	 15.9907 	 -13.2811 	 80.6073
| 15> H 	 16.5472 	 -12.8982 	 82.2903
| 16> C 	 17.7004 	 -14.4689 	 81.366
| 17> H 	 18.6111 	 -14.2508 	 81.9188
| 18> H 	 17.139 	 -15.2076 	 81.9129
| 19> C 	 17.93 	 -15.1325 	 79.9785
| 20> H 	 18.2978 	 -16.1541 	 79.9875
| 21> H 	 16.9854 	 -15.3033 	 79.427
| 22> H 	 18.5814 	 -14.6015 	 79.2342
| 23> S 	 18.995 	 -7.61867 	 82.0368
| 24> C 	 20.5755 	 -7.18303 	 82.7497
| 25> C 	 21.5032 	 -8.09194 	 82.4491
| 26> C 	 21.0592 	 -9.10837 	 81.5071
| 27> C 	 19.7032 	 -9.02002 	 81.2846
| 28> H 	 22.5186 	 -7.93333 	 82.6728
| 29> C 	 22.0142 	 -10.0612 	 80.8769
| 30> H 	 21.4571 	 -11.0001 	 80.9592
| 31> H 	 22.8956 	 -10.1741 	 81.5747
| 32> C 	 22.2905 	 -9.75037 	 79.3802
| 33> H 	 22.8521 	 -8.88703 	 79.1937
| 34> H 	 21.3789 	 -9.59483 	 78.7918
| 35> C 	 23.0971 	 -10.8414 	 78.6967
| 36> H 	 23.1726 	 -10.7567 	 77.6568
| 37> H 	 22.7131 	 -11.8391 	 78.836
| 38> H 	 24.0808 	 -10.8704 	 79.168
| 39> H 	 16.9701 	 -12.0158 	 78.573
| 40> H 	 20.8479 	 -6.26922 	 83.2258
| 41> *
| 42>
| 43>                          ****END OF INPUT****

CARTESIAN COORDINATES (ANGSTROEM)
---------------------------------
  S     18.266900   -9.998670   79.078200
  C     17.376400  -11.444400   79.371200
  C     17.502200  -11.939000   80.672000
  C     18.376800  -11.093800   81.465200
  C     18.803700   -9.965340   80.749700
  H     18.693900  -11.221400   82.470300
  C     16.838900  -13.179100   81.264600
  H     15.990700  -13.281100   80.607300
  H     16.547200  -12.898200   82.290300
  C     17.700400  -14.468900   81.366000
  H     18.611100  -14.250800   81.918800
  H     17.139000  -15.207600   81.912900
  C     17.930000  -15.132500   79.978500
  H     18.297800  -16.154100   79.987500
  H     16.985400  -15.303300   79.427000
  H     18.581400  -14.601500   79.234200
  S     18.995000   -7.618670   82.036800
  C     20.575500   -7.183030   82.749700
  C     21.503200   -8.091940   82.449100
  C     21.059200   -9.108370   81.507100
  C     19.703200   -9.020020   81.284600
  H     22.518600   -7.933330   82.672800
  C     22.014200  -10.061200   80.876900
  H     21.457100  -11.000100   80.959200
  H     22.895600  -10.174100   81.574700
  C     22.290500   -9.750370   79.380200
  H     22.852100   -8.887030   79.193700
  H     21.378900   -9.594830   78.791800
  C     23.097100  -10.841400   78.696700
  H     23.172600  -10.756700   77.656800
  H     22.713100  -11.839100   78.836000
  H     24.080800  -10.870400   79.168000
  H     16.970100  -12.015800   78.573000
  H     20.847900   -6.269220   83.225800

 Total Charge           Charge          ....    0
 Multiplicity           Mult            ....    1
 Number of Electrons    NEL             ....  134
 Basis Dimension        Dim             ....  322

ORBITAL ENERGIES
----------------

  NO   OCC          E(Eh)            E(eV)
   0   2.0000     -88.968985     -2420.9692
   1   2.0000     -88.958956     -2420.6963
   2   2.0000     -10.323675      -280.9215
   3   2.0000     -10.315115      -280.6886
   4   2.0000     -10.311355      -280.5862
   5   2.0000     -10.311230      -280.5828
   6   2.0000     -10.304443      -280.3982
   7   2.0000     -10.298157      -280.2271
   8   2.0000     -10.295099      -280.1439
   9   2.0000     -10.295030      -280.1420
  10   2.0000     -10.294396      -280.1248
  11   2.0000     -10.294001      -280.1140
  12   2.0000     -10.283798      -279.8364
  13   2.0000     -10.283061      -279.8163
  14   2.0000     -10.280941      -279.7586
  15   2.0000     -10.265657      -279.3427
  16   2.0000      -8.083642      -219.9671
  17   2.0000      -8.073721      -219.6971
  18   2.0000      -6.041977      -164.4106
  19   2.0000      -6.038176      -164.3071
  20   2.0000      -6.034594      -164.2097
  21   2.0000      -6.032373      -164.1492
  22   2.0000      -6.028270      -164.0376
  23   2.0000      -6.024270      -163.9287
  24   2.0000      -1.006600       -27.3910
  25   2.0000      -0.980907       -26.6918
  26   2.0000      -0.908319       -24.7166
  27   2.0000      -0.906848       -24.6766
  28   2.0000      -0.875364       -23.8199
  29   2.0000      -0.850386       -23.1402
  30   2.0000      -0.847416       -23.0594
  31   2.0000      -0.814991       -22.1770
  32   2.0000      -0.781365       -21.2620
  33   2.0000      -0.766961       -20.8701
  34   2.0000      -0.713959       -19.4278
  35   2.0000      -0.703725       -19.1493
  36   2.0000      -0.696169       -18.9437
  37   2.0000      -0.663152       -18.0453
  38   2.0000      -0.647113       -17.6089
  39   2.0000      -0.612379       -16.6637
  40   2.0000      -0.591057       -16.0835
  41   2.0000      -0.565801       -15.3962
  42   2.0000      -0.561148       -15.2696
  43   2.0000      -0.549071       -14.9410
  44   2.0000      -0.541397       -14.7322
  45   2.0000      -0.530745       -14.4423
  46   2.0000      -0.517637       -14.0856
  47   2.0000      -0.513825       -13.9819
  48   2.0000      -0.504335       -13.7237
  49   2.0000      -0.497760       -13.5447
  50   2.0000      -0.489673       -13.3247
  51   2.0000      -0.478660       -13.0250
  52   2.0000      -0.468002       -12.7350
  53   2.0000      -0.458811       -12.4849
  54   2.0000      -0.457028       -12.4364
  55   2.0000      -0.447030       -12.1643
  56   2.0000      -0.440678       -11.9914
  57   2.0000      -0.438993       -11.9456
  58   2.0000      -0.435899       -11.8614
  59   2.0000      -0.431395       -11.7388
  60   2.0000      -0.421343       -11.4653
  61   2.0000      -0.417612       -11.3638
  62   2.0000      -0.415900       -11.3172
  63   2.0000      -0.337188        -9.1753
  64   2.0000      -0.329982        -8.9793
  65   2.0000      -0.312611        -8.5066
  66   2.0000      -0.308173        -8.3858
  67   0.0000       0.046034         1.2526
  68   0.0000       0.054443         1.4815
  69   0.0000       0.116173         3.1612
  70   0.0000       0.119058         3.2397
  71   0.0000       0.120986         3.2922

MULLIKEN ATOMIC CHARGES
-----------------------
   0 S :    0.127294
   1 C :   -0.110962
   2 C :   -0.102996
   3 C :    0.061551
   4 C :   -0.191785
   5 H :    0.007091
   6 C :    0.067435
   7 H :    0.020490
   8 H :    0.034271
   9 C :   -0.019903
  10 H :    0.034758
  11 H :    0.032171
  12 C :   -0.093605
  13 H :    0.030005
  14 H :    0.020082
  15 H :    0.043337
  16 S :    0.099889
  17 C :   -0.071457
  18 C :   -0.006182
  19 C :   -0.053791
  20 C :   -0.187715
  21 H :   -0.000367
  22 C :    0.085580
  23 H :    0.025559
  24 H :    0.029569
  25 C :   -0.035080
  26 H :    0.015018
  27 H :    0.022584
  28 C :   -0.022855
  29 H :    0.022550
  30 H :    0.014234
  31 H :    0.020205
  32 H :    0.038899
  33 H :    0.044128
Sum of atomic charges:   -0.0000000

LOEWDIN ATOMIC CHARGES
----------------------
   0 S :    0.422265
   1 C :   -0.206910
   2 C :   -0.059678
   3 C :   -0.044865
   4 C :   -0.205521
   5 H :    0.028182
   6 C :   -0.028020
   7 H :    0.028647
   8 H :    0.035648
   9 C :   -0.032057
  10 H :    0.025744
  11 H :    0.026546
  12 C :   -0.081118
  13 H :    0.024856
  14 H :    0.025712
  15 H :    0.028393
  16 S :    0.388123
  17 C :   -0.165380
  18 C :   -0.068594
  19 C :   -0.049597
  20 C :   -0.213155
  21 H :    0.023284
  22 C :   -0.034409
  23 H :    0.036458
  24 H :    0.036406
  25 C :   -0.031903
  26 H :    0.018356
  27 H :    0.022839
  28 C :   -0.061099
  29 H :    0.018789
  30 H :    0.020187
  31 H :    0.024211
  32 H :    0.020307
  33 H :    0.027353

  Mayer bond orders larger than 0.100000
B(  0-S ,  1-C ) :   1.1514 B(  0-S ,  4-C ) :   1.1526 B(  1-C ,  2-C ) :   1.6081
B(  1-C , 32-H ) :   0.9667 B(  2-C ,  3-C ) :   1.2312 B(  2-C ,  6-C ) :   1.0131
B(  3-C ,  4-C ) :   1.5824 B(  3-C ,  5-H ) :   0.9970 B(  4-C , 20-C ) :   1.0317
B(  6-C ,  7-H ) :   0.9438 B(  6-C ,  8-H ) :   0.9399 B(  6-C ,  9-C ) :   1.0730
B(  9-C , 10-H ) :   0.9575 B(  9-C , 11-H ) :   0.9545 B(  9-C , 12-C ) :   1.0632
B( 12-C , 13-H ) :   0.9757 B( 12-C , 14-H ) :   0.9736 B( 12-C , 15-H ) :   0.9783
B( 16-S , 17-C ) :   1.1245 B( 16-S , 20-C ) :   1.1291 B( 17-C , 18-C ) :   1.6634
B( 17-C , 33-H ) :   0.9660 B( 18-C , 19-C ) :   1.2189 B( 18-C , 21-H ) :   0.9863
B( 19-C , 20-C ) :   1.6257 B( 19-C , 22-C ) :   1.0477 B( 22-C , 23-H ) :   0.9183
B( 22-C , 24-H ) :   0.9337 B( 22-C , 25-C ) :   1.0570 B( 25-C , 26-H ) :   0.9553
B( 25-C , 27-H ) :   0.9524 B( 25-C , 28-C ) :   1.0904 B( 28-C , 29-H ) :   0.9732
B( 28-C , 30-H ) :   0.9741 B( 28-C , 31-H ) :   0.9732

Dispersion correction           -0.014925304
FINAL SINGLE POINT ENERGY     -1339.875417074907

DIPOLE MOMENT
-------------
                                X             Y             Z
Electronic contribution:     -9.61691      23.62610       4.64875
Nuclear contribution   :      9.96717     -24.17695      -4.57006
                        -----------------------------------------
Total Dipole Moment    :      0.35026      -0.55085       0.07869
                        -----------------------------------------
Magnitude (a.u.)       :      0.65750
Magnitude (Debye)      :      1.67124

Rotational constants in cm-1:     0.018462     0.008847     0.007423
Rotational constants in MHz :   553.471707   265.213431   222.546721

                             ****ORCA TERMINATED NORMALLY****
TOTAL RUN TIME: 0 days 0 hours 0 minutes 30 seconds 751 msec
