                         Program Version 4.2.1 -  RELEASE  -
|  1> ! wB97X-D3 SP def2-SVP
|  2> %pal
|  3> nprocs 16
|  4> end
|  5>
|  6> * xyz 0 1
|  7> S 	 -72.5828 	 58.5988 	 124.274
|  8> C 	 -73.1454 	 60.2753 	 124.306
|  9> C 	 -74.1102 	 60.478 	 125.297
| 10> C 	 -74.3847 	 59.2767 	 126.013
| 11> C 	 -73.5525 	 58.1941 	 125.697
| 12> H 	 -75.1217 	 59.0538 	 126.749
| 13> C 	 -74.9988 	 61.713 	 125.529
| 14> H 	 -74.577 	 62.2875 	 126.348
| 15> H 	 -75.9878 	 61.4697 	 125.712
| 16> C 	 -74.9666 	 62.6482 	 124.328
| 17> H 	 -74.0822 	 63.2796 	 124.476
| 18> H 	 -74.9708 	 62.1869 	 123.417
| 19> C 	 -76.1555 	 63.5186 	 124.385
| 20> H 	 -77.1162 	 62.9439 	 124.206
| 21> H 	 -76.2805 	 64.0955 	 125.267
| 22> H 	 -76.1794 	 64.3967 	 123.6
| 23> S 	 -75.1538 	 56.2523 	 126.638
| 24> C 	 -74.4537 	 54.7806 	 127.18
| 25> C 	 -73.0947 	 54.7823 	 127.344
| 26> C 	 -72.53 	 55.9558 	 126.708
| 27> C 	 -73.5459 	 56.8622 	 126.34
| 28> H 	 -72.585 	 53.9367 	 127.717
| 29> C 	 -71.0573 	 56.3175 	 126.725
| 30> H 	 -70.7602 	 56.0049 	 127.73
| 31> H 	 -71.0943 	 57.3704 	 126.633
| 32> C 	 -70.1665 	 55.563 	 125.763
| 33> H 	 -70.5971 	 55.709 	 124.726
| 34> H 	 -70.2887 	 54.5085 	 126.071
| 35> C 	 -68.6478 	 55.8971 	 125.772
| 36> H 	 -68.3433 	 56.8946 	 125.448
| 37> H 	 -68.089 	 55.1364 	 125.193
| 38> H 	 -68.2579 	 55.6291 	 126.731
| 39> H 	 -72.801 	 61.0003 	 123.558
| 40> H 	 -74.9849 	 53.9768 	 127.609
| 41> *
| 42>
| 43>                          ****END OF INPUT****

CARTESIAN COORDINATES (ANGSTROEM)
---------------------------------
  S    -72.582800   58.598800  124.274000
  C    -73.145400   60.275300  124.306000
  C    -74.110200   60.478000  125.297000
  C    -74.384700   59.276700  126.013000
  C    -73.552500   58.194100  125.697000
  H    -75.121700   59.053800  126.749000
  C    -74.998800   61.713000  125.529000
  H    -74.577000   62.287500  126.348000
  H    -75.987800   61.469700  125.712000
  C    -74.966600   62.648200  124.328000
  H    -74.082200   63.279600  124.476000
  H    -74.970800   62.186900  123.417000
  C    -76.155500   63.518600  124.385000
  H    -77.116200   62.943900  124.206000
  H    -76.280500   64.095500  125.267000
  H    -76.179400   64.396700  123.600000
  S    -75.153800   56.252300  126.638000
  C    -74.453700   54.780600  127.180000
  C    -73.094700   54.782300  127.344000
  C    -72.530000   55.955800  126.708000
  C    -73.545900   56.862200  126.340000
  H    -72.585000   53.936700  127.717000
  C    -71.057300   56.317500  126.725000
  H    -70.760200   56.004900  127.730000
  H    -71.094300   57.370400  126.633000
  C    -70.166500   55.563000  125.763000
  H    -70.597100   55.709000  124.726000
  H    -70.288700   54.508500  126.071000
  C    -68.647800   55.897100  125.772000
  H    -68.343300   56.894600  125.448000
  H    -68.089000   55.136400  125.193000
  H    -68.257900   55.629100  126.731000
  H    -72.801000   61.000300  123.558000
  H    -74.984900   53.976800  127.609000

 Total Charge           Charge          ....    0
 Multiplicity           Mult            ....    1
 Number of Electrons    NEL             ....  134
 Basis Dimension        Dim             ....  322

ORBITAL ENERGIES
----------------

  NO   OCC          E(Eh)            E(eV)
   0   2.0000     -88.968056     -2420.9439
   1   2.0000     -88.967758     -2420.9358
   2   2.0000     -10.332604      -281.1644
   3   2.0000     -10.328085      -281.0415
   4   2.0000     -10.318941      -280.7926
   5   2.0000     -10.310221      -280.5554
   6   2.0000     -10.306987      -280.4674
   7   2.0000     -10.306190      -280.4457
   8   2.0000     -10.292131      -280.0631
   9   2.0000     -10.291569      -280.0478
  10   2.0000     -10.290834      -280.0278
  11   2.0000     -10.287529      -279.9379
  12   2.0000     -10.283967      -279.8410
  13   2.0000     -10.282833      -279.8101
  14   2.0000     -10.278542      -279.6933
  15   2.0000     -10.275273      -279.6044
  16   2.0000      -8.083418      -219.9610
  17   2.0000      -8.081414      -219.9064
  18   2.0000      -6.041796      -164.4056
  19   2.0000      -6.039961      -164.3557
  20   2.0000      -6.038015      -164.3027
  21   2.0000      -6.036064      -164.2496
  22   2.0000      -6.034119      -164.1967
  23   2.0000      -6.032231      -164.1453
  24   2.0000      -1.005218       -27.3534
  25   2.0000      -0.981548       -26.7093
  26   2.0000      -0.922435       -25.1007
  27   2.0000      -0.909491       -24.7485
  28   2.0000      -0.869350       -23.6562
  29   2.0000      -0.853298       -23.2194
  30   2.0000      -0.846005       -23.0210
  31   2.0000      -0.812654       -22.1134
  32   2.0000      -0.783978       -21.3331
  33   2.0000      -0.769462       -20.9381
  34   2.0000      -0.711286       -19.3551
  35   2.0000      -0.697565       -18.9817
  36   2.0000      -0.688871       -18.7451
  37   2.0000      -0.666436       -18.1346
  38   2.0000      -0.640267       -17.4226
  39   2.0000      -0.611689       -16.6449
  40   2.0000      -0.590743       -16.0749
  41   2.0000      -0.587523       -15.9873
  42   2.0000      -0.572948       -15.5907
  43   2.0000      -0.566532       -15.4161
  44   2.0000      -0.524003       -14.2588
  45   2.0000      -0.520712       -14.1693
  46   2.0000      -0.516266       -14.0483
  47   2.0000      -0.509561       -13.8659
  48   2.0000      -0.505757       -13.7623
  49   2.0000      -0.501262       -13.6400
  50   2.0000      -0.484556       -13.1854
  51   2.0000      -0.481510       -13.1026
  52   2.0000      -0.472122       -12.8471
  53   2.0000      -0.470915       -12.8142
  54   2.0000      -0.457204       -12.4412
  55   2.0000      -0.456246       -12.4151
  56   2.0000      -0.446288       -12.1441
  57   2.0000      -0.433267       -11.7898
  58   2.0000      -0.431494       -11.7415
  59   2.0000      -0.424399       -11.5485
  60   2.0000      -0.423110       -11.5134
  61   2.0000      -0.414003       -11.2656
  62   2.0000      -0.409969       -11.1558
  63   2.0000      -0.349661        -9.5147
  64   2.0000      -0.332089        -9.0366
  65   2.0000      -0.329895        -8.9769
  66   2.0000      -0.286789        -7.8039
  67   0.0000       0.028296         0.7700
  68   0.0000       0.073661         2.0044
  69   0.0000       0.103237         2.8092
  70   0.0000       0.107746         2.9319
  71   0.0000       0.133912         3.6439

MULLIKEN ATOMIC CHARGES
-----------------------
   0 S :    0.112191
   1 C :   -0.152546
   2 C :   -0.064499
   3 C :    0.006298
   4 C :   -0.141187
   5 H :    0.002199
   6 C :    0.104160
   7 H :    0.039222
   8 H :    0.013665
   9 C :   -0.036499
  10 H :    0.029630
  11 H :    0.019506
  12 C :   -0.101767
  13 H :    0.041446
  14 H :    0.020717
  15 H :    0.033830
  16 S :    0.113442
  17 C :   -0.055485
  18 C :   -0.025713
  19 C :   -0.061413
  20 C :   -0.165136
  21 H :    0.009577
  22 C :    0.095413
  23 H :    0.017692
  24 H :    0.017261
  25 C :   -0.101680
  26 H :    0.037312
  27 H :    0.024806
  28 C :   -0.017529
  29 H :    0.048302
  30 H :    0.027955
  31 H :    0.010725
  32 H :    0.062745
  33 H :    0.035360
Sum of atomic charges:    0.0000000

LOEWDIN ATOMIC CHARGES
----------------------
   0 S :    0.396190
   1 C :   -0.201109
   2 C :   -0.057431
   3 C :   -0.070783
   4 C :   -0.189376
   5 H :    0.020621
   6 C :   -0.013670
   7 H :    0.038858
   8 H :    0.019479
   9 C :   -0.039438
  10 H :    0.029409
  11 H :    0.012863
  12 C :   -0.072815
  13 H :    0.029443
  14 H :    0.015938
  15 H :    0.032586
  16 S :    0.426462
  17 C :   -0.183783
  18 C :   -0.064105
  19 C :   -0.046517
  20 C :   -0.202006
  21 H :    0.026548
  22 C :   -0.032335
  23 H :    0.032530
  24 H :    0.020293
  25 C :   -0.043602
  26 H :    0.026584
  27 H :    0.026215
  28 C :   -0.067800
  29 H :    0.027892
  30 H :    0.032188
  31 H :    0.020447
  32 H :    0.031199
  33 H :    0.019023

  Mayer bond orders larger than 0.100000
B(  0-S ,  1-C ) :   1.1351 B(  0-S ,  4-C ) :   1.1457 B(  1-C ,  2-C ) :   1.6016
B(  1-C , 32-H ) :   0.9632 B(  2-C ,  3-C ) :   1.2483 B(  2-C ,  6-C ) :   1.0055
B(  3-C ,  4-C ) :   1.5642 B(  3-C ,  5-H ) :   0.9954 B(  4-C , 20-C ) :   1.0353
B(  6-C ,  7-H ) :   0.9215 B(  6-C ,  8-H ) :   0.9583 B(  6-C ,  9-C ) :   1.0794
B(  9-C , 10-H ) :   0.9440 B(  9-C , 11-H ) :   0.9580 B(  9-C , 12-C ) :   1.1006
B( 12-C , 13-H ) :   0.9726 B( 12-C , 14-H ) :   0.9708 B( 12-C , 15-H ) :   0.9700
B( 16-S , 17-C ) :   1.1583 B( 16-S , 20-C ) :   1.1426 B( 17-C , 18-C ) :   1.6413
B( 17-C , 33-H ) :   0.9631 B( 18-C , 19-C ) :   1.2174 B( 18-C , 21-H ) :   0.9895
B( 19-C , 20-C ) :   1.5895 B( 19-C , 22-C ) :   1.0396 B( 22-C , 23-H ) :   0.9324
B( 22-C , 24-H ) :   0.9367 B( 22-C , 25-C ) :   1.0540 B( 25-C , 26-H ) :   0.9560
B( 25-C , 27-H ) :   0.9552 B( 25-C , 28-C ) :   1.0871 B( 28-C , 29-H ) :   0.9768
B( 28-C , 30-H ) :   0.9715 B( 28-C , 31-H ) :   0.9683

Dispersion correction           -0.013483630
FINAL SINGLE POINT ENERGY     -1339.862681655067

DIPOLE MOMENT
-------------
                                X             Y             Z
Electronic contribution:     -7.65102     -12.78360       1.67961
Nuclear contribution   :      7.69885      12.89082      -1.44190
                        -----------------------------------------
Total Dipole Moment    :      0.04783       0.10723       0.23772
                        -----------------------------------------
Magnitude (a.u.)       :      0.26513
Magnitude (Debye)      :      0.67391

Rotational constants in cm-1:     0.022395     0.007249     0.005739
Rotational constants in MHz :   671.399982   217.330265   172.054181

                             ****ORCA TERMINATED NORMALLY****
TOTAL RUN TIME: 0 days 0 hours 0 minutes 32 seconds 616 msec
