                         Program Version 4.2.1 -  RELEASE  -
|  1> ! wB97X-D3 SP def2-SVP
|  2> %pal
|  3> nprocs 16
|  4> end
|  5>
|  6> * xyz 0 1
|  7> S 	 45.9423 	 9.79491 	 53.709
|  8> C 	 44.7234 	 9.69367 	 52.4863
|  9> C 	 45.1801 	 10.2522 	 51.282
| 10> C 	 46.5223 	 10.674 	 51.3376
| 11> C 	 47.1123 	 10.4247 	 52.5553
| 12> H 	 47.1373 	 10.9988 	 50.5274
| 13> C 	 44.3947 	 10.3301 	 50.0227
| 14> H 	 43.366 	 10.1523 	 50.2693
| 15> H 	 44.569 	 9.5094 	 49.3386
| 16> C 	 44.4108 	 11.6802 	 49.2445
| 17> H 	 45.405 	 11.8649 	 49.0135
| 18> H 	 43.8783 	 11.6873 	 48.3289
| 19> C 	 43.9618 	 12.7682 	 50.2258
| 20> H 	 44.7399 	 13.1111 	 50.8984
| 21> H 	 43.7991 	 13.7299 	 49.6493
| 22> H 	 43.1188 	 12.5486 	 50.8987
| 23> S 	 49.1607 	 9.13435 	 53.6446
| 24> C 	 50.7181 	 9.86896 	 53.6261
| 25> C 	 50.7141 	 11.1325 	 53.0893
| 26> C 	 49.4341 	 11.5046 	 52.5579
| 27> C 	 48.4852 	 10.526 	 52.8733
| 28> H 	 51.6451 	 11.7032 	 53.0732
| 29> C 	 49.245 	 12.8548 	 51.7545
| 30> H 	 49.3986 	 13.739 	 52.3438
| 31> H 	 48.262 	 12.9447 	 51.3659
| 32> C 	 50.278 	 12.9666 	 50.6177
| 33> H 	 50.2787 	 12.0513 	 50.0606
| 34> H 	 51.2669 	 13.0014 	 51.0413
| 35> C 	 50.1768 	 14.1786 	 49.6114
| 36> H 	 51.0336 	 14.1256 	 48.9201
| 37> H 	 50.1189 	 15.1597 	 50.1007
| 38> H 	 49.2471 	 14.0582 	 49.0866
| 39> H 	 43.6962 	 9.54993 	 52.6609
| 40> H 	 51.6355 	 9.33667 	 53.9271
| 41> *
| 42>
| 43>                          ****END OF INPUT****

CARTESIAN COORDINATES (ANGSTROEM)
---------------------------------
  S     45.942300    9.794910   53.709000
  C     44.723400    9.693670   52.486300
  C     45.180100   10.252200   51.282000
  C     46.522300   10.674000   51.337600
  C     47.112300   10.424700   52.555300
  H     47.137300   10.998800   50.527400
  C     44.394700   10.330100   50.022700
  H     43.366000   10.152300   50.269300
  H     44.569000    9.509400   49.338600
  C     44.410800   11.680200   49.244500
  H     45.405000   11.864900   49.013500
  H     43.878300   11.687300   48.328900
  C     43.961800   12.768200   50.225800
  H     44.739900   13.111100   50.898400
  H     43.799100   13.729900   49.649300
  H     43.118800   12.548600   50.898700
  S     49.160700    9.134350   53.644600
  C     50.718100    9.868960   53.626100
  C     50.714100   11.132500   53.089300
  C     49.434100   11.504600   52.557900
  C     48.485200   10.526000   52.873300
  H     51.645100   11.703200   53.073200
  C     49.245000   12.854800   51.754500
  H     49.398600   13.739000   52.343800
  H     48.262000   12.944700   51.365900
  C     50.278000   12.966600   50.617700
  H     50.278700   12.051300   50.060600
  H     51.266900   13.001400   51.041300
  C     50.176800   14.178600   49.611400
  H     51.033600   14.125600   48.920100
  H     50.118900   15.159700   50.100700
  H     49.247100   14.058200   49.086600
  H     43.696200    9.549930   52.660900
  H     51.635500    9.336670   53.927100

 Total Charge           Charge          ....    0
 Multiplicity           Mult            ....    1
 Number of Electrons    NEL             ....  134
 Basis Dimension        Dim             ....  322

ORBITAL ENERGIES
----------------

  NO   OCC          E(Eh)            E(eV)
   0   2.0000     -88.967336     -2420.9243
   1   2.0000     -88.967165     -2420.9196
   2   2.0000     -10.325003      -280.9576
   3   2.0000     -10.323682      -280.9217
   4   2.0000     -10.314635      -280.6755
   5   2.0000     -10.311339      -280.5858
   6   2.0000     -10.308614      -280.5117
   7   2.0000     -10.299391      -280.2607
   8   2.0000     -10.295006      -280.1414
   9   2.0000     -10.294969      -280.1403
  10   2.0000     -10.287412      -279.9347
  11   2.0000     -10.284926      -279.8671
  12   2.0000     -10.284392      -279.8525
  13   2.0000     -10.284281      -279.8495
  14   2.0000     -10.280779      -279.7542
  15   2.0000     -10.276729      -279.6440
  16   2.0000      -8.082933      -219.9478
  17   2.0000      -8.082111      -219.9254
  18   2.0000      -6.041350      -164.3935
  19   2.0000      -6.040580      -164.3725
  20   2.0000      -6.037310      -164.2835
  21   2.0000      -6.036538      -164.2626
  22   2.0000      -6.033694      -164.1852
  23   2.0000      -6.033002      -164.1663
  24   2.0000      -1.013872       -27.5889
  25   2.0000      -0.987063       -26.8594
  26   2.0000      -0.914601       -24.8875
  27   2.0000      -0.905085       -24.6286
  28   2.0000      -0.874386       -23.7933
  29   2.0000      -0.852356       -23.1938
  30   2.0000      -0.844140       -22.9702
  31   2.0000      -0.813996       -22.1499
  32   2.0000      -0.786330       -21.3971
  33   2.0000      -0.770854       -20.9760
  34   2.0000      -0.714503       -19.4426
  35   2.0000      -0.701217       -19.0811
  36   2.0000      -0.698381       -19.0039
  37   2.0000      -0.660500       -17.9731
  38   2.0000      -0.640647       -17.4329
  39   2.0000      -0.627619       -17.0784
  40   2.0000      -0.600000       -16.3268
  41   2.0000      -0.567023       -15.4295
  42   2.0000      -0.562710       -15.3121
  43   2.0000      -0.551160       -14.9978
  44   2.0000      -0.540738       -14.7142
  45   2.0000      -0.527205       -14.3460
  46   2.0000      -0.517095       -14.0709
  47   2.0000      -0.516186       -14.0461
  48   2.0000      -0.498882       -13.5753
  49   2.0000      -0.498349       -13.5608
  50   2.0000      -0.492458       -13.4005
  51   2.0000      -0.483290       -13.1510
  52   2.0000      -0.472883       -12.8678
  53   2.0000      -0.469776       -12.7832
  54   2.0000      -0.455032       -12.3820
  55   2.0000      -0.451868       -12.2959
  56   2.0000      -0.444282       -12.0895
  57   2.0000      -0.439265       -11.9530
  58   2.0000      -0.432079       -11.7575
  59   2.0000      -0.426157       -11.5963
  60   2.0000      -0.421676       -11.4744
  61   2.0000      -0.419503       -11.4152
  62   2.0000      -0.417981       -11.3738
  63   2.0000      -0.355947        -9.6858
  64   2.0000      -0.334534        -9.1031
  65   2.0000      -0.330472        -8.9926
  66   2.0000      -0.283725        -7.7205
  67   0.0000       0.028443         0.7740
  68   0.0000       0.071743         1.9522
  69   0.0000       0.114388         3.1127
  70   0.0000       0.117981         3.2104
  71   0.0000       0.123168         3.3516

MULLIKEN ATOMIC CHARGES
-----------------------
   0 S :    0.116017
   1 C :   -0.091820
   2 C :   -0.101061
   3 C :    0.030357
   4 C :   -0.161270
   5 H :    0.008899
   6 C :    0.065044
   7 H :   -0.001312
   8 H :    0.036601
   9 C :   -0.015540
  10 H :    0.007537
  11 H :    0.028363
  12 C :   -0.082584
  13 H :    0.031174
  14 H :    0.030363
  15 H :    0.036442
  16 S :    0.124445
  17 C :   -0.106820
  18 C :   -0.044100
  19 C :   -0.030363
  20 C :   -0.160060
  21 H :    0.027095
  22 C :    0.140087
  23 H :    0.025261
  24 H :    0.000587
  25 C :   -0.129483
  26 H :    0.025334
  27 H :    0.022280
  28 C :   -0.037590
  29 H :    0.046010
  30 H :    0.034191
  31 H :    0.026123
  32 H :    0.034593
  33 H :    0.065197
Sum of atomic charges:    0.0000000

LOEWDIN ATOMIC CHARGES
----------------------
   0 S :    0.412005
   1 C :   -0.204440
   2 C :   -0.056405
   3 C :   -0.062795
   4 C :   -0.185965
   5 H :    0.028685
   6 C :   -0.033288
   7 H :    0.023131
   8 H :    0.031665
   9 C :   -0.029119
  10 H :    0.013531
  11 H :    0.022847
  12 C :   -0.074095
  13 H :    0.025655
  14 H :    0.030000
  15 H :    0.025701
  16 S :    0.431164
  17 C :   -0.199994
  18 C :   -0.071771
  19 C :   -0.047983
  20 C :   -0.207155
  21 H :    0.034543
  22 C :   -0.020064
  23 H :    0.030257
  24 H :    0.019061
  25 C :   -0.041915
  26 H :    0.019867
  27 H :    0.017064
  28 C :   -0.062162
  29 H :    0.032463
  30 H :    0.025468
  31 H :    0.020646
  32 H :    0.019469
  33 H :    0.033928

  Mayer bond orders larger than 0.100000
B(  0-S ,  1-C ) :   1.1354 B(  0-S ,  4-C ) :   1.1595 B(  1-C ,  2-C ) :   1.5922
B(  1-C ,  4-C ) :   0.1009 B(  1-C , 32-H ) :   0.9671 B(  2-C ,  3-C ) :   1.2539
B(  2-C ,  6-C ) :   1.0302 B(  3-C ,  4-C ) :   1.5606 B(  3-C ,  5-H ) :   0.9938
B(  4-C , 20-C ) :   1.0635 B(  6-C ,  7-H ) :   0.9372 B(  6-C ,  8-H ) :   0.9364
B(  6-C ,  9-C ) :   1.0711 B(  9-C , 10-H ) :   0.9503 B(  9-C , 11-H ) :   0.9598
B(  9-C , 12-C ) :   1.0729 B( 12-C , 13-H ) :   0.9691 B( 12-C , 14-H ) :   0.9728
B( 12-C , 15-H ) :   0.9800 B( 16-S , 17-C ) :   1.1552 B( 16-S , 20-C ) :   1.1563
B( 17-C , 18-C ) :   1.6167 B( 17-C , 33-H ) :   0.9639 B( 18-C , 19-C ) :   1.2303
B( 18-C , 21-H ) :   0.9883 B( 19-C , 20-C ) :   1.5864 B( 19-C , 22-C ) :   1.0361
B( 22-C , 23-H ) :   0.9338 B( 22-C , 24-H ) :   0.9382 B( 22-C , 25-C ) :   1.0510
B( 25-C , 26-H ) :   0.9598 B( 25-C , 27-H ) :   0.9555 B( 25-C , 28-C ) :   1.0800
B( 28-C , 29-H ) :   0.9757 B( 28-C , 30-H ) :   0.9757 B( 28-C , 31-H ) :   0.9768

Dispersion correction           -0.014472619
FINAL SINGLE POINT ENERGY     -1339.879717327588

DIPOLE MOMENT
-------------
                                X             Y             Z
Electronic contribution:      2.80281     -20.92476      22.67581
Nuclear contribution   :     -2.60535      21.30189     -23.22378
                        -----------------------------------------
Total Dipole Moment    :      0.19746       0.37713      -0.54798
                        -----------------------------------------
Magnitude (a.u.)       :      0.69390
Magnitude (Debye)      :      1.76375

Rotational constants in cm-1:     0.016049     0.010500     0.006805
Rotational constants in MHz :   481.149003   314.794626   204.014590

                             ****ORCA TERMINATED NORMALLY****
TOTAL RUN TIME: 0 days 0 hours 0 minutes 32 seconds 880 msec
