                         Program Version 4.2.1 -  RELEASE  -
|  1> ! wB97X-D3 SP def2-SVP
|  2> %pal
|  3> nprocs 16
|  4> end
|  5>
|  6> * xyz 0 1
|  7> S 	 -58.3175 	 20.1521 	 86.1367
|  8> C 	 -58.4637 	 18.5869 	 87.0141
|  9> C 	 -57.2923 	 17.8865 	 86.8234
| 10> C 	 -56.3405 	 18.6123 	 86.0729
| 11> C 	 -56.7258 	 19.917 	 85.6574
| 12> H 	 -55.4454 	 18.1572 	 85.7424
| 13> C 	 -57.0694 	 16.4331 	 87.3286
| 14> H 	 -56.7557 	 15.8753 	 86.4609
| 15> H 	 -57.9673 	 15.9122 	 87.7803
| 16> C 	 -55.86 	 16.1718 	 88.2161
| 17> H 	 -56.0292 	 15.172 	 88.5862
| 18> H 	 -54.8651 	 16.2331 	 87.6316
| 19> C 	 -55.6843 	 17.105 	 89.4839
| 20> H 	 -56.4715 	 16.8587 	 90.2262
| 21> H 	 -54.7191 	 16.8585 	 89.9219
| 22> H 	 -55.7972 	 18.1368 	 89.1674
| 23> S 	 -57.028 	 21.4512 	 83.4437
| 24> C 	 -55.6334 	 22.2047 	 82.7068
| 25> C 	 -54.515 	 22.0336 	 83.4711
| 26> C 	 -54.7319 	 21.243 	 84.6199
| 27> C 	 -56.0648 	 20.8701 	 84.7585
| 28> H 	 -53.6006 	 22.3942 	 83.0207
| 29> C 	 -53.596 	 20.9903 	 85.6402
| 30> H 	 -52.7822 	 20.9244 	 84.9982
| 31> H 	 -53.6305 	 20.0677 	 86.182
| 32> C 	 -53.2434 	 22.1273 	 86.6384
| 33> H 	 -52.9295 	 22.9804 	 85.938
| 34> H 	 -52.376 	 21.7382 	 87.2284
| 35> C 	 -54.2724 	 22.5648 	 87.6582
| 36> H 	 -53.8104 	 23.3588 	 88.2964
| 37> H 	 -54.4151 	 21.8434 	 88.3967
| 38> H 	 -55.2348 	 22.8019 	 87.2654
| 39> H 	 -59.2971 	 18.1499 	 87.455
| 40> H 	 -55.5137 	 22.7394 	 81.7681
| 41> *
| 42>
| 43>                          ****END OF INPUT****

CARTESIAN COORDINATES (ANGSTROEM)
---------------------------------
  S    -58.317500   20.152100   86.136700
  C    -58.463700   18.586900   87.014100
  C    -57.292300   17.886500   86.823400
  C    -56.340500   18.612300   86.072900
  C    -56.725800   19.917000   85.657400
  H    -55.445400   18.157200   85.742400
  C    -57.069400   16.433100   87.328600
  H    -56.755700   15.875300   86.460900
  H    -57.967300   15.912200   87.780300
  C    -55.860000   16.171800   88.216100
  H    -56.029200   15.172000   88.586200
  H    -54.865100   16.233100   87.631600
  C    -55.684300   17.105000   89.483900
  H    -56.471500   16.858700   90.226200
  H    -54.719100   16.858500   89.921900
  H    -55.797200   18.136800   89.167400
  S    -57.028000   21.451200   83.443700
  C    -55.633400   22.204700   82.706800
  C    -54.515000   22.033600   83.471100
  C    -54.731900   21.243000   84.619900
  C    -56.064800   20.870100   84.758500
  H    -53.600600   22.394200   83.020700
  C    -53.596000   20.990300   85.640200
  H    -52.782200   20.924400   84.998200
  H    -53.630500   20.067700   86.182000
  C    -53.243400   22.127300   86.638400
  H    -52.929500   22.980400   85.938000
  H    -52.376000   21.738200   87.228400
  C    -54.272400   22.564800   87.658200
  H    -53.810400   23.358800   88.296400
  H    -54.415100   21.843400   88.396700
  H    -55.234800   22.801900   87.265400
  H    -59.297100   18.149900   87.455000
  H    -55.513700   22.739400   81.768100

 Total Charge           Charge          ....    0
 Multiplicity           Mult            ....    1
 Number of Electrons    NEL             ....  134
 Basis Dimension        Dim             ....  322

ORBITAL ENERGIES
----------------

  NO   OCC          E(Eh)            E(eV)
   0   2.0000     -88.970093     -2420.9993
   1   2.0000     -88.966874     -2420.9117
   2   2.0000     -10.334051      -281.2038
   3   2.0000     -10.330265      -281.1008
   4   2.0000     -10.316930      -280.7379
   5   2.0000     -10.311301      -280.5848
   6   2.0000     -10.307094      -280.4703
   7   2.0000     -10.303139      -280.3627
   8   2.0000     -10.298952      -280.2487
   9   2.0000     -10.293035      -280.0877
  10   2.0000     -10.292874      -280.0833
  11   2.0000     -10.292330      -280.0685
  12   2.0000     -10.291983      -280.0591
  13   2.0000     -10.285365      -279.8790
  14   2.0000     -10.276687      -279.6429
  15   2.0000     -10.266302      -279.3603
  16   2.0000      -8.085085      -220.0063
  17   2.0000      -8.081966      -219.9215
  18   2.0000      -6.043604      -164.4548
  19   2.0000      -6.040483      -164.3699
  20   2.0000      -6.039491      -164.3429
  21   2.0000      -6.036178      -164.2528
  22   2.0000      -6.035848      -164.2438
  23   2.0000      -6.032921      -164.1641
  24   2.0000      -1.013732       -27.5851
  25   2.0000      -0.988823       -26.9072
  26   2.0000      -0.910811       -24.7844
  27   2.0000      -0.905038       -24.6273
  28   2.0000      -0.872149       -23.7324
  29   2.0000      -0.850408       -23.1408
  30   2.0000      -0.839484       -22.8435
  31   2.0000      -0.815154       -22.1815
  32   2.0000      -0.788820       -21.4649
  33   2.0000      -0.782736       -21.2993
  34   2.0000      -0.711489       -19.3606
  35   2.0000      -0.688794       -18.7430
  36   2.0000      -0.686169       -18.6716
  37   2.0000      -0.659499       -17.9459
  38   2.0000      -0.635921       -17.3043
  39   2.0000      -0.625143       -17.0110
  40   2.0000      -0.595236       -16.1972
  41   2.0000      -0.572473       -15.5778
  42   2.0000      -0.552166       -15.0252
  43   2.0000      -0.549502       -14.9527
  44   2.0000      -0.546043       -14.8586
  45   2.0000      -0.539855       -14.6902
  46   2.0000      -0.516022       -14.0417
  47   2.0000      -0.508957       -13.8494
  48   2.0000      -0.504231       -13.7208
  49   2.0000      -0.501231       -13.6392
  50   2.0000      -0.492210       -13.3937
  51   2.0000      -0.477976       -13.0064
  52   2.0000      -0.475986       -12.9522
  53   2.0000      -0.468472       -12.7478
  54   2.0000      -0.462297       -12.5797
  55   2.0000      -0.448830       -12.2133
  56   2.0000      -0.441597       -12.0165
  57   2.0000      -0.438061       -11.9202
  58   2.0000      -0.430716       -11.7204
  59   2.0000      -0.420111       -11.4318
  60   2.0000      -0.414991       -11.2925
  61   2.0000      -0.410271       -11.1640
  62   2.0000      -0.405922       -11.0457
  63   2.0000      -0.353443        -9.6177
  64   2.0000      -0.335293        -9.1238
  65   2.0000      -0.330412        -8.9910
  66   2.0000      -0.290304        -7.8996
  67   0.0000       0.025317         0.6889
  68   0.0000       0.074794         2.0353
  69   0.0000       0.106664         2.9025
  70   0.0000       0.122999         3.3470
  71   0.0000       0.127439         3.4678

MULLIKEN ATOMIC CHARGES
-----------------------
   0 S :    0.094464
   1 C :   -0.101886
   2 C :   -0.086051
   3 C :    0.034296
   4 C :   -0.130855
   5 H :   -0.008668
   6 C :    0.073513
   7 H :    0.033962
   8 H :    0.037825
   9 C :   -0.136895
  10 H :    0.031507
  11 H :    0.042120
  12 C :   -0.056891
  13 H :    0.030140
  14 H :    0.037367
  15 H :    0.051039
  16 S :    0.117813
  17 C :   -0.087230
  18 C :   -0.054492
  19 C :   -0.047901
  20 C :   -0.131919
  21 H :    0.018974
  22 C :    0.122533
  23 H :   -0.001167
  24 H :    0.012247
  25 C :   -0.112282
  26 H :    0.034077
  27 H :    0.035375
  28 C :   -0.003228
  29 H :    0.030655
  30 H :    0.006418
  31 H :    0.040379
  32 H :    0.020229
  33 H :    0.054532
Sum of atomic charges:   -0.0000000

LOEWDIN ATOMIC CHARGES
----------------------
   0 S :    0.422276
   1 C :   -0.184249
   2 C :   -0.059419
   3 C :   -0.072392
   4 C :   -0.209591
   5 H :    0.019548
   6 C :   -0.036074
   7 H :    0.037213
   8 H :    0.036929
   9 C :   -0.047803
  10 H :    0.023603
  11 H :    0.027895
  12 C :   -0.068817
  13 H :    0.025442
  14 H :    0.025161
  15 H :    0.025392
  16 S :    0.421369
  17 C :   -0.187798
  18 C :   -0.074027
  19 C :   -0.054568
  20 C :   -0.205647
  21 H :    0.033773
  22 C :   -0.026749
  23 H :    0.022770
  24 H :    0.023204
  25 C :   -0.040745
  26 H :    0.027575
  27 H :    0.030855
  28 C :   -0.065653
  29 H :    0.035985
  30 H :    0.017593
  31 H :    0.023755
  32 H :    0.017351
  33 H :    0.035845

  Mayer bond orders larger than 0.100000
B(  0-S ,  1-C ) :   1.1283 B(  0-S ,  4-C ) :   1.1908 B(  1-C ,  2-C ) :   1.5842
B(  1-C ,  4-C ) :   0.1061 B(  1-C , 32-H ) :   0.9804 B(  2-C ,  3-C ) :   1.2819
B(  2-C ,  6-C ) :   1.0133 B(  3-C ,  4-C ) :   1.5067 B(  3-C ,  5-H ) :   1.0009
B(  4-C , 20-C ) :   1.0305 B(  6-C ,  7-H ) :   0.9339 B(  6-C ,  8-H ) :   0.9518
B(  6-C ,  9-C ) :   1.0688 B(  9-C , 10-H ) :   0.9570 B(  9-C , 11-H ) :   0.9582
B(  9-C , 12-C ) :   1.0700 B( 12-C , 13-H ) :   0.9774 B( 12-C , 14-H ) :   0.9773
B( 12-C , 15-H ) :   0.9750 B( 16-S , 17-C ) :   1.1498 B( 16-S , 20-C ) :   1.1491
B( 17-C , 18-C ) :   1.6343 B( 17-C , 33-H ) :   0.9623 B( 18-C , 19-C ) :   1.2406
B( 18-C , 21-H ) :   0.9874 B( 19-C , 20-C ) :   1.5881 B( 19-C , 22-C ) :   1.0319
B( 22-C , 23-H ) :   0.9218 B( 22-C , 24-H ) :   0.9392 B( 22-C , 25-C ) :   1.0795
B( 25-C , 26-H ) :   0.9555 B( 25-C , 27-H ) :   0.9514 B( 25-C , 28-C ) :   1.0877
B( 28-C , 29-H ) :   0.9673 B( 28-C , 30-H ) :   0.9676 B( 28-C , 31-H ) :   0.9754

Dispersion correction           -0.014606108
FINAL SINGLE POINT ENERGY     -1339.864221115829

DIPOLE MOMENT
-------------
                                X             Y             Z
Electronic contribution:    -17.36536       8.99294     -19.30132
Nuclear contribution   :     17.90685      -9.40299      19.32173
                        -----------------------------------------
Total Dipole Moment    :      0.54149      -0.41005       0.02041
                        -----------------------------------------
Magnitude (a.u.)       :      0.67954
Magnitude (Debye)      :      1.72724

Rotational constants in cm-1:     0.019161     0.009212     0.007329
Rotational constants in MHz :   574.446904   276.161565   219.707451

                             ****ORCA TERMINATED NORMALLY****
TOTAL RUN TIME: 0 days 0 hours 0 minutes 30 seconds 784 msec
