                         Program Version 4.2.1 -  RELEASE  -
|  1> ! wB97X-D3 SP def2-SVP
|  2> %pal
|  3> nprocs 16
|  4> end
|  5>
|  6> * xyz 0 1
|  7> S 	 68.3816 	 19.004 	 75.1187
|  8> C 	 69.9224 	 18.585 	 75.7552
|  9> C 	 70.9107 	 19.1525 	 74.98
| 10> C 	 70.3834 	 19.8765 	 73.8064
| 11> C 	 69.0359 	 19.924 	 73.7928
| 12> H 	 70.9735 	 20.2988 	 73.0075
| 13> C 	 72.3881 	 19.1889 	 75.3295
| 14> H 	 72.5575 	 19.1195 	 76.4637
| 15> H 	 72.8409 	 20.1555 	 74.9719
| 16> C 	 73.0973 	 18.097 	 74.5121
| 17> H 	 72.4114 	 17.308 	 74.3981
| 18> H 	 73.2052 	 18.4622 	 73.4627
| 19> C 	 74.5119 	 17.8479 	 75.1362
| 20> H 	 74.4672 	 17.6165 	 76.2309
| 21> H 	 74.9624 	 17.0058 	 74.628
| 22> H 	 75.2209 	 18.7323 	 74.9864
| 23> S 	 66.987 	 19.6142 	 72.0757
| 24> C 	 66.381 	 20.9759 	 71.1908
| 25> C 	 67.1282 	 22.1393 	 71.3707
| 26> C 	 68.2389 	 21.828 	 72.1773
| 27> C 	 68.1981 	 20.5843 	 72.8218
| 28> H 	 66.9451 	 23.1645 	 70.9042
| 29> C 	 69.3024 	 22.878 	 72.4577
| 30> H 	 69.4725 	 23.5259 	 71.5662
| 31> H 	 70.2084 	 22.333 	 72.6786
| 32> C 	 68.9972 	 23.8486 	 73.6487
| 33> H 	 69.8933 	 24.3948 	 73.8893
| 34> H 	 68.7735 	 23.2795 	 74.6062
| 35> C 	 67.6927 	 24.7235 	 73.36
| 36> H 	 67.9325 	 25.6537 	 73.8085
| 37> H 	 66.8675 	 24.196 	 73.7835
| 38> H 	 67.5067 	 24.9608 	 72.2577
| 39> H 	 70.0492 	 17.9711 	 76.6866
| 40> H 	 65.3498 	 21.1838 	 70.9227
| 41> *
| 42>
| 43>                          ****END OF INPUT****

CARTESIAN COORDINATES (ANGSTROEM)
---------------------------------
  S     68.381600   19.004000   75.118700
  C     69.922400   18.585000   75.755200
  C     70.910700   19.152500   74.980000
  C     70.383400   19.876500   73.806400
  C     69.035900   19.924000   73.792800
  H     70.973500   20.298800   73.007500
  C     72.388100   19.188900   75.329500
  H     72.557500   19.119500   76.463700
  H     72.840900   20.155500   74.971900
  C     73.097300   18.097000   74.512100
  H     72.411400   17.308000   74.398100
  H     73.205200   18.462200   73.462700
  C     74.511900   17.847900   75.136200
  H     74.467200   17.616500   76.230900
  H     74.962400   17.005800   74.628000
  H     75.220900   18.732300   74.986400
  S     66.987000   19.614200   72.075700
  C     66.381000   20.975900   71.190800
  C     67.128200   22.139300   71.370700
  C     68.238900   21.828000   72.177300
  C     68.198100   20.584300   72.821800
  H     66.945100   23.164500   70.904200
  C     69.302400   22.878000   72.457700
  H     69.472500   23.525900   71.566200
  H     70.208400   22.333000   72.678600
  C     68.997200   23.848600   73.648700
  H     69.893300   24.394800   73.889300
  H     68.773500   23.279500   74.606200
  C     67.692700   24.723500   73.360000
  H     67.932500   25.653700   73.808500
  H     66.867500   24.196000   73.783500
  H     67.506700   24.960800   72.257700
  H     70.049200   17.971100   76.686600
  H     65.349800   21.183800   70.922700

 Total Charge           Charge          ....    0
 Multiplicity           Mult            ....    1
 Number of Electrons    NEL             ....  134
 Basis Dimension        Dim             ....  322

ORBITAL ENERGIES
----------------

  NO   OCC          E(Eh)            E(eV)
   0   2.0000     -88.967130     -2420.9187
   1   2.0000     -88.963731     -2420.8262
   2   2.0000     -10.326498      -280.9983
   3   2.0000     -10.323804      -280.9250
   4   2.0000     -10.318537      -280.7817
   5   2.0000     -10.311478      -280.5896
   6   2.0000     -10.305198      -280.4187
   7   2.0000     -10.300353      -280.2869
   8   2.0000     -10.298927      -280.2480
   9   2.0000     -10.298436      -280.2347
  10   2.0000     -10.295430      -280.1529
  11   2.0000     -10.290925      -280.0303
  12   2.0000     -10.289652      -279.9957
  13   2.0000     -10.289426      -279.9895
  14   2.0000     -10.286967      -279.9226
  15   2.0000     -10.279670      -279.7241
  16   2.0000      -8.082404      -219.9334
  17   2.0000      -8.079462      -219.8533
  18   2.0000      -6.040844      -164.3797
  19   2.0000      -6.038027      -164.3031
  20   2.0000      -6.036734      -164.2679
  21   2.0000      -6.033732      -164.1862
  22   2.0000      -6.033300      -164.1744
  23   2.0000      -6.030184      -164.0896
  24   2.0000      -1.013982       -27.5919
  25   2.0000      -0.989493       -26.9255
  26   2.0000      -0.910676       -24.7808
  27   2.0000      -0.899797       -24.4847
  28   2.0000      -0.874293       -23.7907
  29   2.0000      -0.846761       -23.0415
  30   2.0000      -0.839441       -22.8424
  31   2.0000      -0.814912       -22.1749
  32   2.0000      -0.777941       -21.1689
  33   2.0000      -0.766275       -20.8514
  34   2.0000      -0.707102       -19.2412
  35   2.0000      -0.697990       -18.9933
  36   2.0000      -0.685699       -18.6588
  37   2.0000      -0.664721       -18.0880
  38   2.0000      -0.644162       -17.5285
  39   2.0000      -0.619590       -16.8599
  40   2.0000      -0.586605       -15.9623
  41   2.0000      -0.571028       -15.5384
  42   2.0000      -0.554438       -15.0870
  43   2.0000      -0.543090       -14.7782
  44   2.0000      -0.539784       -14.6883
  45   2.0000      -0.522314       -14.2129
  46   2.0000      -0.515048       -14.0152
  47   2.0000      -0.512197       -13.9376
  48   2.0000      -0.506401       -13.7799
  49   2.0000      -0.501361       -13.6427
  50   2.0000      -0.484254       -13.1772
  51   2.0000      -0.480315       -13.0700
  52   2.0000      -0.475442       -12.9374
  53   2.0000      -0.464185       -12.6311
  54   2.0000      -0.460988       -12.5441
  55   2.0000      -0.452167       -12.3041
  56   2.0000      -0.442569       -12.0429
  57   2.0000      -0.439297       -11.9539
  58   2.0000      -0.427213       -11.6251
  59   2.0000      -0.417458       -11.3596
  60   2.0000      -0.415770       -11.3137
  61   2.0000      -0.413757       -11.2589
  62   2.0000      -0.410125       -11.1601
  63   2.0000      -0.350257        -9.5310
  64   2.0000      -0.332282        -9.0419
  65   2.0000      -0.322223        -8.7681
  66   2.0000      -0.293502        -7.9866
  67   0.0000       0.025101         0.6830
  68   0.0000       0.075762         2.0616
  69   0.0000       0.107539         2.9263
  70   0.0000       0.115417         3.1407
  71   0.0000       0.134816         3.6685

MULLIKEN ATOMIC CHARGES
-----------------------
   0 S :    0.108425
   1 C :   -0.138608
   2 C :   -0.096368
   3 C :    0.022401
   4 C :   -0.129869
   5 H :    0.026433
   6 C :    0.009646
   7 H :    0.045764
   8 H :    0.034659
   9 C :   -0.073830
  10 H :    0.025847
  11 H :    0.032013
  12 C :   -0.061341
  13 H :    0.041933
  14 H :    0.035544
  15 H :    0.044356
  16 S :    0.119847
  17 C :   -0.071299
  18 C :   -0.091362
  19 C :   -0.047141
  20 C :   -0.157275
  21 H :    0.052865
  22 C :    0.060657
  23 H :    0.032058
  24 H :    0.001066
  25 C :   -0.093124
  26 H :    0.030344
  27 H :    0.041454
  28 C :   -0.057122
  29 H :    0.031917
  30 H :    0.052454
  31 H :    0.029830
  32 H :    0.074830
  33 H :    0.062997
Sum of atomic charges:    0.0000000

LOEWDIN ATOMIC CHARGES
----------------------
   0 S :    0.414052
   1 C :   -0.214526
   2 C :   -0.063979
   3 C :   -0.060480
   4 C :   -0.201205
   5 H :    0.031360
   6 C :   -0.040412
   7 H :    0.035435
   8 H :    0.033837
   9 C :   -0.041504
  10 H :    0.015299
  11 H :    0.029479
  12 C :   -0.071630
  13 H :    0.027970
  14 H :    0.023094
  15 H :    0.034983
  16 S :    0.434377
  17 C :   -0.209455
  18 C :   -0.072788
  19 C :   -0.059638
  20 C :   -0.209350
  21 H :    0.048061
  22 C :   -0.036046
  23 H :    0.032119
  24 H :    0.020957
  25 C :   -0.036834
  26 H :    0.017411
  27 H :    0.032463
  28 C :   -0.065415
  29 H :    0.022911
  30 H :    0.026863
  31 H :    0.025813
  32 H :    0.043895
  33 H :    0.032883

  Mayer bond orders larger than 0.100000
B(  0-S ,  1-C ) :   1.1311 B(  0-S ,  4-C ) :   1.1474 B(  1-C ,  2-C ) :   1.6216
B(  1-C , 32-H ) :   0.9658 B(  2-C ,  3-C ) :   1.2104 B(  2-C ,  6-C ) :   1.0251
B(  3-C ,  4-C ) :   1.6045 B(  3-C ,  5-H ) :   0.9880 B(  4-C , 20-C ) :   1.0294
B(  6-C ,  7-H ) :   0.9585 B(  6-C ,  8-H ) :   0.9439 B(  6-C ,  9-C ) :   1.0349
B(  9-C , 10-H ) :   0.9668 B(  9-C , 11-H ) :   0.9529 B(  9-C , 12-C ) :   1.0667
B( 12-C , 13-H ) :   0.9788 B( 12-C , 14-H ) :   0.9760 B( 12-C , 15-H ) :   0.9724
B( 16-S , 17-C ) :   1.1711 B( 16-S , 20-C ) :   1.1634 B( 17-C , 18-C ) :   1.5870
B( 17-C , 20-C ) :   0.1124 B( 17-C , 33-H ) :   0.9518 B( 18-C , 19-C ) :   1.2815
B( 18-C , 21-H ) :   0.9734 B( 19-C , 20-C ) :   1.5586 B( 19-C , 22-C ) :   1.0504
B( 22-C , 23-H ) :   0.9398 B( 22-C , 24-H ) :   0.9297 B( 22-C , 25-C ) :   1.0734
B( 25-C , 26-H ) :   0.9658 B( 25-C , 27-H ) :   0.9591 B( 25-C , 28-C ) :   1.0486
B( 28-C , 29-H ) :   0.9757 B( 28-C , 30-H ) :   0.9784 B( 28-C , 31-H ) :   0.9779

Dispersion correction           -0.014425630
FINAL SINGLE POINT ENERGY     -1339.860662300668

DIPOLE MOMENT
-------------
                                X             Y             Z
Electronic contribution:    -21.03731     -11.69181      -3.79260
Nuclear contribution   :     21.57849      12.08133       3.93709
                        -----------------------------------------
Total Dipole Moment    :      0.54118       0.38952       0.14449
                        -----------------------------------------
Magnitude (a.u.)       :      0.68226
Magnitude (Debye)      :      1.73417

Rotational constants in cm-1:     0.021549     0.007664     0.006638
Rotational constants in MHz :   646.033211   229.770100   199.007181

                             ****ORCA TERMINATED NORMALLY****
TOTAL RUN TIME: 0 days 0 hours 0 minutes 30 seconds 572 msec
