                         Program Version 4.2.1 -  RELEASE  -
|  1> ! wB97X-D3 SP def2-SVP
|  2> %pal
|  3> nprocs 16
|  4> end
|  5>
|  6> * xyz 0 1
|  7> S 	 5.31652 	 -11.1557 	 101.826
|  8> C 	 6.82569 	 -10.2779 	 101.542
|  9> C 	 7.67754 	 -11.0993 	 100.853
| 10> C 	 7.20015 	 -12.404 	 100.666
| 11> C 	 5.91264 	 -12.595 	 101.013
| 12> H 	 7.79619 	 -13.1762 	 100.154
| 13> C 	 9.02915 	 -10.7011 	 100.407
| 14> H 	 9.03999 	 -9.5986 	 100.245
| 15> H 	 9.08719 	 -11.0784 	 99.3828
| 16> C 	 10.1841 	 -11.3357 	 101.191
| 17> H 	 10.2189 	 -10.9765 	 102.238
| 18> H 	 10.0528 	 -12.4499 	 101.224
| 19> C 	 11.4216 	 -11.1783 	 100.404
| 20> H 	 11.5424 	 -10.1108 	 100.116
| 21> H 	 12.2526 	 -11.4432 	 101.025
| 22> H 	 11.4767 	 -11.8863 	 99.5071
| 23> S 	 3.73926 	 -13.7143 	 99.785
| 24> C 	 3.36571 	 -15.3762 	 100.174
| 25> C 	 4.40411 	 -16.0011 	 100.854
| 26> C 	 5.4316 	 -15.0891 	 101.066
| 27> C 	 5.11852 	 -13.7455 	 100.775
| 28> H 	 4.30315 	 -17.0703 	 101.136
| 29> C 	 6.77504 	 -15.5188 	 101.72
| 30> H 	 6.85985 	 -15.1229 	 102.661
| 31> H 	 7.60502 	 -14.9795 	 101.246
| 32> C 	 7.0265 	 -17.0123 	 101.767
| 33> H 	 7.17522 	 -17.4008 	 100.772
| 34> H 	 6.12049 	 -17.4902 	 102.209
| 35> C 	 8.33719 	 -17.2821 	 102.548
| 36> H 	 8.55109 	 -18.3476 	 102.463
| 37> H 	 8.22759 	 -17.0251 	 103.605
| 38> H 	 9.19001 	 -16.6876 	 102.126
| 39> H 	 6.9902 	 -9.25563 	 101.679
| 40> H 	 2.43025 	 -15.9253 	 99.9101
| 41> *
| 42>
| 43>                          ****END OF INPUT****

CARTESIAN COORDINATES (ANGSTROEM)
---------------------------------
  S      5.316520  -11.155700  101.826000
  C      6.825690  -10.277900  101.542000
  C      7.677540  -11.099300  100.853000
  C      7.200150  -12.404000  100.666000
  C      5.912640  -12.595000  101.013000
  H      7.796190  -13.176200  100.154000
  C      9.029150  -10.701100  100.407000
  H      9.039990   -9.598600  100.245000
  H      9.087190  -11.078400   99.382800
  C     10.184100  -11.335700  101.191000
  H     10.218900  -10.976500  102.238000
  H     10.052800  -12.449900  101.224000
  C     11.421600  -11.178300  100.404000
  H     11.542400  -10.110800  100.116000
  H     12.252600  -11.443200  101.025000
  H     11.476700  -11.886300   99.507100
  S      3.739260  -13.714300   99.785000
  C      3.365710  -15.376200  100.174000
  C      4.404110  -16.001100  100.854000
  C      5.431600  -15.089100  101.066000
  C      5.118520  -13.745500  100.775000
  H      4.303150  -17.070300  101.136000
  C      6.775040  -15.518800  101.720000
  H      6.859850  -15.122900  102.661000
  H      7.605020  -14.979500  101.246000
  C      7.026500  -17.012300  101.767000
  H      7.175220  -17.400800  100.772000
  H      6.120490  -17.490200  102.209000
  C      8.337190  -17.282100  102.548000
  H      8.551090  -18.347600  102.463000
  H      8.227590  -17.025100  103.605000
  H      9.190010  -16.687600  102.126000
  H      6.990200   -9.255630  101.679000
  H      2.430250  -15.925300   99.910100

 Total Charge           Charge          ....    0
 Multiplicity           Mult            ....    1
 Number of Electrons    NEL             ....  134
 Basis Dimension        Dim             ....  322

ORBITAL ENERGIES
----------------

  NO   OCC          E(Eh)            E(eV)
   0   2.0000     -88.967657     -2420.9330
   1   2.0000     -88.961419     -2420.7633
   2   2.0000     -10.323243      -280.9097
   3   2.0000     -10.317955      -280.7658
   4   2.0000     -10.317470      -280.7526
   5   2.0000     -10.307431      -280.4795
   6   2.0000     -10.301324      -280.3133
   7   2.0000     -10.294045      -280.1152
   8   2.0000     -10.290421      -280.0166
   9   2.0000     -10.290186      -280.0102
  10   2.0000     -10.289232      -279.9842
  11   2.0000     -10.287231      -279.9298
  12   2.0000     -10.286834      -279.9190
  13   2.0000     -10.283420      -279.8261
  14   2.0000     -10.280982      -279.7597
  15   2.0000     -10.280364      -279.7429
  16   2.0000      -8.083039      -219.9507
  17   2.0000      -8.075930      -219.7572
  18   2.0000      -6.041333      -164.3930
  19   2.0000      -6.037434      -164.2869
  20   2.0000      -6.034540      -164.2082
  21   2.0000      -6.034006      -164.1936
  22   2.0000      -6.030440      -164.0966
  23   2.0000      -6.026614      -163.9925
  24   2.0000      -1.014129       -27.5958
  25   2.0000      -0.990206       -26.9449
  26   2.0000      -0.920973       -25.0609
  27   2.0000      -0.910398       -24.7732
  28   2.0000      -0.877953       -23.8903
  29   2.0000      -0.851523       -23.1711
  30   2.0000      -0.849003       -23.1025
  31   2.0000      -0.816259       -22.2115
  32   2.0000      -0.780262       -21.2320
  33   2.0000      -0.766637       -20.8612
  34   2.0000      -0.708684       -19.2843
  35   2.0000      -0.704419       -19.1682
  36   2.0000      -0.694860       -18.9081
  37   2.0000      -0.649708       -17.6795
  38   2.0000      -0.641669       -17.4607
  39   2.0000      -0.626412       -17.0455
  40   2.0000      -0.598251       -16.2793
  41   2.0000      -0.574138       -15.6231
  42   2.0000      -0.568654       -15.4739
  43   2.0000      -0.565211       -15.3802
  44   2.0000      -0.535683       -14.5767
  45   2.0000      -0.528763       -14.3884
  46   2.0000      -0.517893       -14.0926
  47   2.0000      -0.512194       -13.9375
  48   2.0000      -0.505663       -13.7598
  49   2.0000      -0.498464       -13.5639
  50   2.0000      -0.491333       -13.3699
  51   2.0000      -0.479263       -13.0414
  52   2.0000      -0.471183       -12.8215
  53   2.0000      -0.462799       -12.5934
  54   2.0000      -0.458718       -12.4823
  55   2.0000      -0.451482       -12.2854
  56   2.0000      -0.448347       -12.2001
  57   2.0000      -0.438557       -11.9337
  58   2.0000      -0.435593       -11.8531
  59   2.0000      -0.423746       -11.5307
  60   2.0000      -0.419143       -11.4055
  61   2.0000      -0.413845       -11.2613
  62   2.0000      -0.412224       -11.2172
  63   2.0000      -0.346927        -9.4404
  64   2.0000      -0.330626        -8.9968
  65   2.0000      -0.326166        -8.8754
  66   2.0000      -0.289630        -7.8812
  67   0.0000       0.027220         0.7407
  68   0.0000       0.073973         2.0129
  69   0.0000       0.120297         3.2734
  70   0.0000       0.120592         3.2815
  71   0.0000       0.128018         3.4836

MULLIKEN ATOMIC CHARGES
-----------------------
   0 S :    0.100658
   1 C :   -0.098691
   2 C :   -0.083939
   3 C :    0.006209
   4 C :   -0.153064
   5 H :    0.023664
   6 C :    0.052384
   7 H :    0.024659
   8 H :    0.015735
   9 C :   -0.074627
  10 H :    0.042492
  11 H :    0.029033
  12 C :   -0.046512
  13 H :    0.034025
  14 H :    0.024925
  15 H :    0.045307
  16 S :    0.136840
  17 C :   -0.111767
  18 C :   -0.071786
  19 C :   -0.025587
  20 C :   -0.147231
  21 H :    0.041323
  22 C :    0.106459
  23 H :    0.005877
  24 H :   -0.003478
  25 C :   -0.097482
  26 H :    0.030931
  27 H :    0.041876
  28 C :   -0.048094
  29 H :    0.035795
  30 H :    0.036627
  31 H :    0.037192
  32 H :    0.024778
  33 H :    0.065468
Sum of atomic charges:   -0.0000000

LOEWDIN ATOMIC CHARGES
----------------------
   0 S :    0.390875
   1 C :   -0.184855
   2 C :   -0.067685
   3 C :   -0.064985
   4 C :   -0.189283
   5 H :    0.033542
   6 C :   -0.038453
   7 H :    0.032778
   8 H :    0.031937
   9 C :   -0.044446
  10 H :    0.029082
  11 H :    0.030225
  12 C :   -0.069036
  13 H :    0.026286
  14 H :    0.021775
  15 H :    0.034382
  16 S :    0.443012
  17 C :   -0.195658
  18 C :   -0.083024
  19 C :   -0.046851
  20 C :   -0.230054
  21 H :    0.043262
  22 C :   -0.032032
  23 H :    0.020848
  24 H :    0.026981
  25 C :   -0.040992
  26 H :    0.022429
  27 H :    0.026600
  28 C :   -0.063325
  29 H :    0.025810
  30 H :    0.025001
  31 H :    0.030330
  32 H :    0.018513
  33 H :    0.037010

  Mayer bond orders larger than 0.100000
B(  0-S ,  1-C ) :   1.1199 B(  0-S ,  4-C ) :   1.1400 B(  1-C ,  2-C ) :   1.6169
B(  1-C , 32-H ) :   0.9761 B(  2-C ,  3-C ) :   1.2481 B(  2-C ,  6-C ) :   1.0333
B(  3-C ,  4-C ) :   1.5822 B(  3-C ,  5-H ) :   0.9831 B(  4-C , 20-C ) :   1.0629
B(  6-C ,  7-H ) :   0.9351 B(  6-C ,  8-H ) :   0.9331 B(  6-C ,  9-C ) :   1.0567
B(  9-C , 10-H ) :   0.9536 B(  9-C , 11-H ) :   0.9524 B(  9-C , 12-C ) :   1.0862
B( 12-C , 13-H ) :   0.9710 B( 12-C , 14-H ) :   0.9695 B( 12-C , 15-H ) :   0.9723
B( 16-S , 17-C ) :   1.1826 B( 16-S , 20-C ) :   1.1676 B( 17-C , 18-C ) :   1.5621
B( 17-C , 20-C ) :   0.1157 B( 17-C , 33-H ) :   0.9590 B( 18-C , 19-C ) :   1.3007
B( 18-C , 21-H ) :   0.9835 B( 19-C , 20-C ) :   1.5311 B( 19-C , 22-C ) :   1.0201
B( 22-C , 23-H ) :   0.9226 B( 22-C , 24-H ) :   0.9218 B( 22-C , 25-C ) :   1.0808
B( 25-C , 26-H ) :   0.9565 B( 25-C , 27-H ) :   0.9437 B( 25-C , 28-C ) :   1.0841
B( 28-C , 29-H ) :   0.9737 B( 28-C , 30-H ) :   0.9757 B( 28-C , 31-H ) :   0.9730

Dispersion correction           -0.013744170
FINAL SINGLE POINT ENERGY     -1339.870463205065

DIPOLE MOMENT
-------------
                                X             Y             Z
Electronic contribution:    -29.52760       9.91981      -3.33270
Nuclear contribution   :     30.17317     -10.26802       3.27808
                        -----------------------------------------
Total Dipole Moment    :      0.64557      -0.34821      -0.05462
                        -----------------------------------------
Magnitude (a.u.)       :      0.73553
Magnitude (Debye)      :      1.86956

Rotational constants in cm-1:     0.016362     0.009304     0.006554
Rotational constants in MHz :   490.518724   278.930904   196.487091

                             ****ORCA TERMINATED NORMALLY****
TOTAL RUN TIME: 0 days 0 hours 0 minutes 34 seconds 231 msec
