                         Program Version 4.2.1 -  RELEASE  -
|  1> ! wB97X-D3 SP def2-SVP
|  2> %pal
|  3> nprocs 16
|  4> end
|  5>
|  6> * xyz 0 1
|  7> S 	 4.22798 	 15.8818 	 48.0679
|  8> C 	 3.45514 	 14.4051 	 48.7154
|  9> C 	 2.76118 	 14.6395 	 49.8496
| 10> C 	 2.53675 	 16.0555 	 50.0783
| 11> C 	 3.36521 	 16.8146 	 49.2731
| 12> H 	 1.93669 	 16.6457 	 50.8296
| 13> C 	 1.92879 	 13.5926 	 50.6268
| 14> H 	 1.63557 	 12.7672 	 49.9799
| 15> H 	 1.05703 	 14.1076 	 50.9846
| 16> C 	 2.54815 	 12.9828 	 51.8667
| 17> H 	 3.58405 	 12.6345 	 51.6495
| 18> H 	 2.84548 	 13.6991 	 52.4677
| 19> C 	 1.59552 	 11.9517 	 52.6116
| 20> H 	 1.65122 	 11.049 	 51.9267
| 21> H 	 1.959 	 11.7692 	 53.6224
| 22> H 	 0.578744 	 12.4302 	 52.6724
| 23> S 	 4.09389 	 18.8992 	 50.9257
| 24> C 	 4.15063 	 20.5322 	 50.3729
| 25> C 	 4.00687 	 20.5508 	 48.9847
| 26> C 	 3.7552 	 19.2832 	 48.3837
| 27> C 	 3.60669 	 18.2697 	 49.352
| 28> H 	 3.97445 	 21.4215 	 48.3898
| 29> C 	 3.40836 	 19.2398 	 46.9136
| 30> H 	 2.34829 	 19.1364 	 46.8724
| 31> H 	 3.62281 	 18.2068 	 46.7204
| 32> C 	 4.01263 	 20.1418 	 45.8178
| 33> H 	 3.79522 	 21.1695 	 46.0195
| 34> H 	 3.33185 	 19.999 	 44.9832
| 35> C 	 5.55491 	 20.0633 	 45.6348
| 36> H 	 5.989 	 20.6277 	 44.8056
| 37> H 	 5.82115 	 18.9939 	 45.3145
| 38> H 	 6.09514 	 20.3282 	 46.5447
| 39> H 	 3.31961 	 13.452 	 48.2109
| 40> H 	 4.21604 	 21.4429 	 50.8991
| 41> *
| 42>
| 43>                          ****END OF INPUT****

CARTESIAN COORDINATES (ANGSTROEM)
---------------------------------
  S      4.227980   15.881800   48.067900
  C      3.455140   14.405100   48.715400
  C      2.761180   14.639500   49.849600
  C      2.536750   16.055500   50.078300
  C      3.365210   16.814600   49.273100
  H      1.936690   16.645700   50.829600
  C      1.928790   13.592600   50.626800
  H      1.635570   12.767200   49.979900
  H      1.057030   14.107600   50.984600
  C      2.548150   12.982800   51.866700
  H      3.584050   12.634500   51.649500
  H      2.845480   13.699100   52.467700
  C      1.595520   11.951700   52.611600
  H      1.651220   11.049000   51.926700
  H      1.959000   11.769200   53.622400
  H      0.578744   12.430200   52.672400
  S      4.093890   18.899200   50.925700
  C      4.150630   20.532200   50.372900
  C      4.006870   20.550800   48.984700
  C      3.755200   19.283200   48.383700
  C      3.606690   18.269700   49.352000
  H      3.974450   21.421500   48.389800
  C      3.408360   19.239800   46.913600
  H      2.348290   19.136400   46.872400
  H      3.622810   18.206800   46.720400
  C      4.012630   20.141800   45.817800
  H      3.795220   21.169500   46.019500
  H      3.331850   19.999000   44.983200
  C      5.554910   20.063300   45.634800
  H      5.989000   20.627700   44.805600
  H      5.821150   18.993900   45.314500
  H      6.095140   20.328200   46.544700
  H      3.319610   13.452000   48.210900
  H      4.216040   21.442900   50.899100

 Total Charge           Charge          ....    0
 Multiplicity           Mult            ....    1
 Number of Electrons    NEL             ....  134
 Basis Dimension        Dim             ....  322

ORBITAL ENERGIES
----------------

  NO   OCC          E(Eh)            E(eV)
   0   2.0000     -88.967355     -2420.9248
   1   2.0000     -88.966964     -2420.9142
   2   2.0000     -10.331383      -281.1312
   3   2.0000     -10.328213      -281.0450
   4   2.0000     -10.314333      -280.6673
   5   2.0000     -10.314289      -280.6661
   6   2.0000     -10.305205      -280.4189
   7   2.0000     -10.303741      -280.3790
   8   2.0000     -10.301872      -280.3282
   9   2.0000     -10.292844      -280.0825
  10   2.0000     -10.292682      -280.0781
  11   2.0000     -10.290170      -280.0098
  12   2.0000     -10.287084      -279.9258
  13   2.0000     -10.286803      -279.9181
  14   2.0000     -10.285455      -279.8814
  15   2.0000     -10.274267      -279.5770
  16   2.0000      -8.081401      -219.9061
  17   2.0000      -8.081237      -219.9016
  18   2.0000      -6.039962      -164.3557
  19   2.0000      -6.039889      -164.3537
  20   2.0000      -6.035980      -164.2474
  21   2.0000      -6.035775      -164.2418
  22   2.0000      -6.032294      -164.1471
  23   2.0000      -6.031765      -164.1327
  24   2.0000      -1.004316       -27.3288
  25   2.0000      -0.982867       -26.7452
  26   2.0000      -0.910166       -24.7669
  27   2.0000      -0.907836       -24.7035
  28   2.0000      -0.867369       -23.6023
  29   2.0000      -0.849215       -23.1083
  30   2.0000      -0.842119       -22.9152
  31   2.0000      -0.811738       -22.0885
  32   2.0000      -0.784164       -21.3382
  33   2.0000      -0.773731       -21.0543
  34   2.0000      -0.714767       -19.4498
  35   2.0000      -0.707202       -19.2440
  36   2.0000      -0.697714       -18.9858
  37   2.0000      -0.662644       -18.0315
  38   2.0000      -0.635748       -17.2996
  39   2.0000      -0.612173       -16.6581
  40   2.0000      -0.595717       -16.2103
  41   2.0000      -0.570268       -15.5178
  42   2.0000      -0.560342       -15.2477
  43   2.0000      -0.552592       -15.0368
  44   2.0000      -0.532996       -14.5036
  45   2.0000      -0.522711       -14.2237
  46   2.0000      -0.516476       -14.0540
  47   2.0000      -0.508613       -13.8401
  48   2.0000      -0.499645       -13.5960
  49   2.0000      -0.496580       -13.5126
  50   2.0000      -0.491885       -13.3849
  51   2.0000      -0.481641       -13.1061
  52   2.0000      -0.470977       -12.8159
  53   2.0000      -0.464243       -12.6327
  54   2.0000      -0.453845       -12.3498
  55   2.0000      -0.448157       -12.1950
  56   2.0000      -0.446123       -12.1396
  57   2.0000      -0.445592       -12.1252
  58   2.0000      -0.440123       -11.9763
  59   2.0000      -0.424736       -11.5576
  60   2.0000      -0.418799       -11.3961
  61   2.0000      -0.412823       -11.2335
  62   2.0000      -0.405365       -11.0306
  63   2.0000      -0.339379        -9.2350
  64   2.0000      -0.333021        -9.0620
  65   2.0000      -0.327856        -8.9214
  66   2.0000      -0.294333        -8.0092
  67   0.0000       0.023216         0.6317
  68   0.0000       0.076739         2.0882
  69   0.0000       0.105551         2.8722
  70   0.0000       0.111494         3.0339
  71   0.0000       0.128895         3.5074

MULLIKEN ATOMIC CHARGES
-----------------------
   0 S :    0.109537
   1 C :   -0.118680
   2 C :   -0.069417
   3 C :    0.001108
   4 C :   -0.155287
   5 H :    0.041771
   6 C :    0.060266
   7 H :    0.018705
   8 H :    0.014451
   9 C :   -0.030933
  10 H :    0.015611
  11 H :   -0.024445
  12 C :   -0.071350
  13 H :    0.054858
  14 H :    0.046997
  15 H :    0.044823
  16 S :    0.118644
  17 C :   -0.059339
  18 C :   -0.036500
  19 C :   -0.061416
  20 C :   -0.171601
  21 H :   -0.003003
  22 C :    0.085755
  23 H :    0.032759
  24 H :   -0.013428
  25 C :   -0.022331
  26 H :    0.014606
  27 H :    0.025760
  28 C :   -0.068001
  29 H :    0.038793
  30 H :    0.036918
  31 H :    0.050536
  32 H :    0.052717
  33 H :    0.041113
Sum of atomic charges:   -0.0000000

LOEWDIN ATOMIC CHARGES
----------------------
   0 S :    0.391043
   1 C :   -0.186140
   2 C :   -0.057488
   3 C :   -0.071952
   4 C :   -0.190423
   5 H :    0.044372
   6 C :   -0.024474
   7 H :    0.026067
   8 H :    0.026475
   9 C :   -0.043004
  10 H :    0.027165
  11 H :   -0.001932
  12 C :   -0.064313
  13 H :    0.036097
  14 H :    0.027950
  15 H :    0.031828
  16 S :    0.423239
  17 C :   -0.190203
  18 C :   -0.069429
  19 C :   -0.053751
  20 C :   -0.208313
  21 H :    0.020328
  22 C :   -0.041580
  23 H :    0.038976
  24 H :    0.018927
  25 C :   -0.040241
  26 H :    0.017617
  27 H :    0.032989
  28 C :   -0.069752
  29 H :    0.027934
  30 H :    0.033096
  31 H :    0.030364
  32 H :    0.033216
  33 H :    0.025313

  Mayer bond orders larger than 0.100000
B(  0-S ,  1-C ) :   1.1093 B(  0-S ,  4-C ) :   1.1307 B(  1-C ,  2-C ) :   1.6712
B(  1-C , 32-H ) :   0.9617 B(  2-C ,  3-C ) :   1.1810 B(  2-C ,  6-C ) :   1.0226
B(  3-C ,  4-C ) :   1.6183 B(  3-C ,  5-H ) :   0.9800 B(  4-C , 20-C ) :   1.0451
B(  6-C ,  7-H ) :   0.9501 B(  6-C ,  8-H ) :   0.9394 B(  6-C ,  9-C ) :   1.0607
B(  9-C , 10-H ) :   0.9487 B(  9-C , 11-H ) :   0.9442 B(  9-C , 12-C ) :   1.0619
B( 12-C , 13-H ) :   0.9795 B( 12-C , 14-H ) :   0.9762 B( 12-C , 15-H ) :   0.9744
B( 16-S , 17-C ) :   1.1671 B( 16-S , 20-C ) :   1.1469 B( 17-C , 18-C ) :   1.5672
B( 17-C , 20-C ) :   0.1045 B( 17-C , 33-H ) :   0.9727 B( 18-C , 19-C ) :   1.2827
B( 18-C , 21-H ) :   0.9918 B( 19-C , 20-C ) :   1.5390 B( 19-C , 22-C ) :   1.0240
B( 22-C , 23-H ) :   0.9252 B( 22-C , 24-H ) :   0.9085 B( 22-C , 25-C ) :   1.0714
B( 25-C , 26-H ) :   0.9504 B( 25-C , 27-H ) :   0.9481 B( 25-C , 28-C ) :   1.0599
B( 28-C , 29-H ) :   0.9766 B( 28-C , 30-H ) :   0.9775 B( 28-C , 31-H ) :   0.9742

Dispersion correction           -0.013733555
FINAL SINGLE POINT ENERGY     -1339.842434938958

DIPOLE MOMENT
-------------
                                X             Y             Z
Electronic contribution:      5.21494       7.56293       3.25301
Nuclear contribution   :     -5.57842      -7.45389      -3.39500
                        -----------------------------------------
Total Dipole Moment    :     -0.36349       0.10904      -0.14199
                        -----------------------------------------
Magnitude (a.u.)       :      0.40518
Magnitude (Debye)      :      1.02989

Rotational constants in cm-1:     0.026426     0.006751     0.005681
Rotational constants in MHz :   792.242748   202.386345   170.298458

                             ****ORCA TERMINATED NORMALLY****
TOTAL RUN TIME: 0 days 0 hours 0 minutes 33 seconds 836 msec
