                         Program Version 4.2.1 -  RELEASE  -
|  1> ! wB97X-D3 SP def2-SVP
|  2> %pal
|  3> nprocs 16
|  4> end
|  5>
|  6> * xyz 0 1
|  7> S 	 -66.6179 	 53.1306 	 129.404
|  8> C 	 -65.7266 	 54.5526 	 129.895
|  9> C 	 -66.085 	 54.8972 	 131.19
| 10> C 	 -67.1529 	 54.1954 	 131.729
| 11> C 	 -67.6597 	 53.236 	 130.843
| 12> H 	 -67.5876 	 54.3036 	 132.646
| 13> C 	 -65.3581 	 55.9641 	 131.976
| 14> H 	 -64.3531 	 56.1318 	 131.581
| 15> H 	 -65.233 	 55.6605 	 133.042
| 16> C 	 -66.1372 	 57.2465 	 132.165
| 17> H 	 -66.1117 	 57.6287 	 131.169
| 18> H 	 -67.1463 	 56.9599 	 132.523
| 19> C 	 -65.271 	 58.2031 	 132.997
| 20> H 	 -64.3145 	 58.4621 	 132.557
| 21> H 	 -65.8966 	 59.0698 	 133.222
| 22> H 	 -65.1233 	 57.6855 	 133.956
| 23> S 	 -67.913 	 50.5945 	 131.65
| 24> C 	 -69.5299 	 49.9583 	 131.893
| 25> C 	 -70.5331 	 50.831 	 131.474
| 26> C 	 -69.9064 	 52.063 	 131.086
| 27> C 	 -68.5379 	 52.1619 	 131.164
| 28> H 	 -71.5285 	 50.4259 	 131.424
| 29> C 	 -70.7363 	 53.208 	 130.62
| 30> H 	 -71.5164 	 52.6911 	 129.966
| 31> H 	 -70.2002 	 53.8269 	 129.911
| 32> C 	 -71.3999 	 54.0774 	 131.752
| 33> H 	 -72.0224 	 54.9007 	 131.339
| 34> H 	 -70.5548 	 54.5303 	 132.256
| 35> C 	 -72.2766 	 53.2189 	 132.703
| 36> H 	 -71.6597 	 52.4558 	 133.26
| 37> H 	 -73.0427 	 52.6926 	 132.135
| 38> H 	 -72.7996 	 53.8045 	 133.47
| 39> H 	 -64.9193 	 55.036 	 129.397
| 40> H 	 -69.7046 	 48.962 	 132.095
| 41> *
| 42>
| 43>                          ****END OF INPUT****

CARTESIAN COORDINATES (ANGSTROEM)
---------------------------------
  S    -66.617900   53.130600  129.404000
  C    -65.726600   54.552600  129.895000
  C    -66.085000   54.897200  131.190000
  C    -67.152900   54.195400  131.729000
  C    -67.659700   53.236000  130.843000
  H    -67.587600   54.303600  132.646000
  C    -65.358100   55.964100  131.976000
  H    -64.353100   56.131800  131.581000
  H    -65.233000   55.660500  133.042000
  C    -66.137200   57.246500  132.165000
  H    -66.111700   57.628700  131.169000
  H    -67.146300   56.959900  132.523000
  C    -65.271000   58.203100  132.997000
  H    -64.314500   58.462100  132.557000
  H    -65.896600   59.069800  133.222000
  H    -65.123300   57.685500  133.956000
  S    -67.913000   50.594500  131.650000
  C    -69.529900   49.958300  131.893000
  C    -70.533100   50.831000  131.474000
  C    -69.906400   52.063000  131.086000
  C    -68.537900   52.161900  131.164000
  H    -71.528500   50.425900  131.424000
  C    -70.736300   53.208000  130.620000
  H    -71.516400   52.691100  129.966000
  H    -70.200200   53.826900  129.911000
  C    -71.399900   54.077400  131.752000
  H    -72.022400   54.900700  131.339000
  H    -70.554800   54.530300  132.256000
  C    -72.276600   53.218900  132.703000
  H    -71.659700   52.455800  133.260000
  H    -73.042700   52.692600  132.135000
  H    -72.799600   53.804500  133.470000
  H    -64.919300   55.036000  129.397000
  H    -69.704600   48.962000  132.095000

 Total Charge           Charge          ....    0
 Multiplicity           Mult            ....    1
 Number of Electrons    NEL             ....  134
 Basis Dimension        Dim             ....  322

ORBITAL ENERGIES
----------------

  NO   OCC          E(Eh)            E(eV)
   0   2.0000     -88.969359     -2420.9794
   1   2.0000     -88.962395     -2420.7898
   2   2.0000     -10.330100      -281.0963
   3   2.0000     -10.319644      -280.8118
   4   2.0000     -10.314204      -280.6638
   5   2.0000     -10.313647      -280.6486
   6   2.0000     -10.300322      -280.2860
   7   2.0000     -10.296604      -280.1848
   8   2.0000     -10.296456      -280.1808
   9   2.0000     -10.290867      -280.0287
  10   2.0000     -10.290103      -280.0079
  11   2.0000     -10.287578      -279.9392
  12   2.0000     -10.287558      -279.9387
  13   2.0000     -10.282939      -279.8130
  14   2.0000     -10.280673      -279.7513
  15   2.0000     -10.279480      -279.7189
  16   2.0000      -8.083347      -219.9590
  17   2.0000      -8.077145      -219.7903
  18   2.0000      -6.041775      -164.4051
  19   2.0000      -6.037908      -164.2998
  20   2.0000      -6.035609      -164.2373
  21   2.0000      -6.034276      -164.2010
  22   2.0000      -6.031641      -164.1293
  23   2.0000      -6.027955      -164.0290
  24   2.0000      -1.008210       -27.4348
  25   2.0000      -0.985119       -26.8064
  26   2.0000      -0.919281       -25.0149
  27   2.0000      -0.901066       -24.5193
  28   2.0000      -0.875192       -23.8152
  29   2.0000      -0.852819       -23.2064
  30   2.0000      -0.840951       -22.8834
  31   2.0000      -0.818471       -22.2717
  32   2.0000      -0.778680       -21.1890
  33   2.0000      -0.766281       -20.8516
  34   2.0000      -0.714525       -19.4432
  35   2.0000      -0.694397       -18.8955
  36   2.0000      -0.691533       -18.8176
  37   2.0000      -0.665387       -18.1061
  38   2.0000      -0.651434       -17.7264
  39   2.0000      -0.624445       -16.9920
  40   2.0000      -0.586312       -15.9543
  41   2.0000      -0.580707       -15.8018
  42   2.0000      -0.572312       -15.5734
  43   2.0000      -0.548642       -14.9293
  44   2.0000      -0.541613       -14.7381
  45   2.0000      -0.525647       -14.3036
  46   2.0000      -0.519667       -14.1409
  47   2.0000      -0.512010       -13.9325
  48   2.0000      -0.506184       -13.7740
  49   2.0000      -0.499507       -13.5923
  50   2.0000      -0.483678       -13.1615
  51   2.0000      -0.477153       -12.9840
  52   2.0000      -0.473876       -12.8948
  53   2.0000      -0.466083       -12.6828
  54   2.0000      -0.461193       -12.5497
  55   2.0000      -0.446106       -12.1392
  56   2.0000      -0.442082       -12.0297
  57   2.0000      -0.440191       -11.9782
  58   2.0000      -0.429402       -11.6846
  59   2.0000      -0.423990       -11.5374
  60   2.0000      -0.420838       -11.4516
  61   2.0000      -0.411224       -11.1900
  62   2.0000      -0.407676       -11.0934
  63   2.0000      -0.340745        -9.2721
  64   2.0000      -0.327300        -8.9063
  65   2.0000      -0.321461        -8.7474
  66   2.0000      -0.305743        -8.3197
  67   0.0000       0.035101         0.9551
  68   0.0000       0.049942         1.3590
  69   0.0000       0.111583         3.0363
  70   0.0000       0.116020         3.1571
  71   0.0000       0.132646         3.6095

MULLIKEN ATOMIC CHARGES
-----------------------
   0 S :    0.117274
   1 C :   -0.092758
   2 C :   -0.057868
   3 C :    0.081052
   4 C :   -0.183662
   5 H :   -0.020176
   6 C :    0.015393
   7 H :    0.016196
   8 H :    0.017920
   9 C :   -0.071485
  10 H :    0.016820
  11 H :    0.040948
  12 C :   -0.022955
  13 H :    0.039334
  14 H :    0.037546
  15 H :    0.020611
  16 S :    0.108444
  17 C :   -0.073501
  18 C :   -0.029615
  19 C :   -0.043333
  20 C :   -0.150722
  21 H :    0.026229
  22 C :    0.034243
  23 H :    0.026945
  24 H :    0.028132
  25 C :   -0.042939
  26 H :    0.039452
  27 H :    0.021682
  28 C :   -0.078367
  29 H :    0.053438
  30 H :    0.025508
  31 H :    0.034858
  32 H :    0.035127
  33 H :    0.030227
Sum of atomic charges:   -0.0000000

LOEWDIN ATOMIC CHARGES
----------------------
   0 S :    0.407030
   1 C :   -0.192098
   2 C :   -0.065105
   3 C :   -0.036278
   4 C :   -0.185996
   5 H :    0.018524
   6 C :   -0.037032
   7 H :    0.024543
   8 H :    0.028350
   9 C :   -0.040359
  10 H :    0.019336
  11 H :    0.028733
  12 C :   -0.060763
  13 H :    0.027770
  14 H :    0.028289
  15 H :    0.023477
  16 S :    0.399344
  17 C :   -0.164127
  18 C :   -0.067816
  19 C :   -0.054043
  20 C :   -0.215393
  21 H :    0.036959
  22 C :   -0.038097
  23 H :    0.033481
  24 H :    0.026545
  25 C :   -0.035073
  26 H :    0.028192
  27 H :    0.020205
  28 C :   -0.073744
  29 H :    0.032525
  30 H :    0.021078
  31 H :    0.025391
  32 H :    0.025212
  33 H :    0.010941

  Mayer bond orders larger than 0.100000
B(  0-S ,  1-C ) :   1.1442 B(  0-S ,  4-C ) :   1.1571 B(  1-C ,  2-C ) :   1.5814
B(  1-C ,  4-C ) :   0.1105 B(  1-C , 32-H ) :   0.9722 B(  2-C ,  3-C ) :   1.2620
B(  2-C ,  6-C ) :   1.0283 B(  3-C ,  4-C ) :   1.5356 B(  3-C ,  5-H ) :   1.0103
B(  4-C , 20-C ) :   1.0581 B(  6-C ,  7-H ) :   0.9452 B(  6-C ,  8-H ) :   0.9420
B(  6-C ,  9-C ) :   1.0519 B(  9-C , 10-H ) :   0.9507 B(  9-C , 11-H ) :   0.9578
B(  9-C , 12-C ) :   1.0814 B( 12-C , 13-H ) :   0.9720 B( 12-C , 14-H ) :   0.9730
B( 12-C , 15-H ) :   0.9733 B( 16-S , 17-C ) :   1.1741 B( 16-S , 20-C ) :   1.1141
B( 17-C , 18-C ) :   1.6057 B( 17-C , 33-H ) :   0.9702 B( 18-C , 19-C ) :   1.2157
B( 18-C , 21-H ) :   0.9990 B( 19-C , 20-C ) :   1.6156 B( 19-C , 22-C ) :   1.0488
B( 22-C , 23-H ) :   0.9389 B( 22-C , 24-H ) :   0.9311 B( 22-C , 25-C ) :   1.0601
B( 25-C , 26-H ) :   0.9579 B( 25-C , 27-H ) :   0.9535 B( 25-C , 28-C ) :   1.0784
B( 28-C , 29-H ) :   0.9674 B( 28-C , 30-H ) :   0.9751 B( 28-C , 31-H ) :   0.9737

Dispersion correction           -0.014501036
FINAL SINGLE POINT ENERGY     -1339.869369568471

DIPOLE MOMENT
-------------
                                X             Y             Z
Electronic contribution:      8.03756     -22.27090     -11.42087
Nuclear contribution   :     -8.18399      22.61324      11.64557
                        -----------------------------------------
Total Dipole Moment    :     -0.14642       0.34234       0.22469
                        -----------------------------------------
Magnitude (a.u.)       :      0.43488
Magnitude (Debye)      :      1.10538

Rotational constants in cm-1:     0.019854     0.008202     0.006708
Rotational constants in MHz :   595.207191   245.904255   201.114593

                             ****ORCA TERMINATED NORMALLY****
TOTAL RUN TIME: 0 days 0 hours 0 minutes 33 seconds 796 msec
