                         Program Version 4.2.1 -  RELEASE  -
|  1> ! wB97X-D3 SP def2-SVP
|  2> %pal
|  3> nprocs 16
|  4> end
|  5>
|  6> * xyz 0 1
|  7> S 	 -8.33376 	 50.2743 	 43.7187
|  8> C 	 -10.0091 	 50.0414 	 43.9801
|  9> C 	 -10.4587 	 48.8719 	 43.421
| 10> C 	 -9.49801 	 48.2781 	 42.5539
| 11> C 	 -8.34456 	 49.0269 	 42.4583
| 12> H 	 -9.62698 	 47.3275 	 42.0019
| 13> C 	 -11.8677 	 48.3165 	 43.6613
| 14> H 	 -12.5427 	 48.7697 	 42.8321
| 15> H 	 -12.4318 	 48.6174 	 44.6227
| 16> C 	 -11.9233 	 46.8411 	 43.6169
| 17> H 	 -12.9796 	 46.7125 	 43.7822
| 18> H 	 -11.7378 	 46.3663 	 42.5874
| 19> C 	 -11.2131 	 46.1696 	 44.765
| 20> H 	 -11.2119 	 46.6422 	 45.7208
| 21> H 	 -11.6451 	 45.1952 	 44.9966
| 22> H 	 -10.226 	 46.0007 	 44.436
| 23> S 	 -7.06965 	 50.2837 	 40.2725
| 24> C 	 -5.93399 	 49.2918 	 39.3127
| 25> C 	 -5.59439 	 48.1343 	 39.9778
| 26> C 	 -6.43935 	 47.8464 	 41.1286
| 27> C 	 -7.2961 	 48.9305 	 41.4513
| 28> H 	 -4.97882 	 47.4092 	 39.559
| 29> C 	 -6.41073 	 46.5147 	 41.846
| 30> H 	 -6.97307 	 45.8199 	 41.3283
| 31> H 	 -6.83639 	 46.7504 	 42.8194
| 32> C 	 -4.98221 	 46.0456 	 42.1301
| 33> H 	 -4.40918 	 46.8646 	 42.555
| 34> H 	 -4.46335 	 46.0141 	 41.1655
| 35> C 	 -4.92628 	 44.8511 	 43.0703
| 36> H 	 -5.41788 	 43.9825 	 42.6114
| 37> H 	 -5.50469 	 44.8906 	 44.0275
| 38> H 	 -3.96574 	 44.5169 	 43.3786
| 39> H 	 -10.5955 	 50.66 	 44.6671
| 40> H 	 -5.39504 	 49.651 	 38.4529
| 41> *
| 42>
| 43>                          ****END OF INPUT****

CARTESIAN COORDINATES (ANGSTROEM)
---------------------------------
  S     -8.333760   50.274300   43.718700
  C    -10.009100   50.041400   43.980100
  C    -10.458700   48.871900   43.421000
  C     -9.498010   48.278100   42.553900
  C     -8.344560   49.026900   42.458300
  H     -9.626980   47.327500   42.001900
  C    -11.867700   48.316500   43.661300
  H    -12.542700   48.769700   42.832100
  H    -12.431800   48.617400   44.622700
  C    -11.923300   46.841100   43.616900
  H    -12.979600   46.712500   43.782200
  H    -11.737800   46.366300   42.587400
  C    -11.213100   46.169600   44.765000
  H    -11.211900   46.642200   45.720800
  H    -11.645100   45.195200   44.996600
  H    -10.226000   46.000700   44.436000
  S     -7.069650   50.283700   40.272500
  C     -5.933990   49.291800   39.312700
  C     -5.594390   48.134300   39.977800
  C     -6.439350   47.846400   41.128600
  C     -7.296100   48.930500   41.451300
  H     -4.978820   47.409200   39.559000
  C     -6.410730   46.514700   41.846000
  H     -6.973070   45.819900   41.328300
  H     -6.836390   46.750400   42.819400
  C     -4.982210   46.045600   42.130100
  H     -4.409180   46.864600   42.555000
  H     -4.463350   46.014100   41.165500
  C     -4.926280   44.851100   43.070300
  H     -5.417880   43.982500   42.611400
  H     -5.504690   44.890600   44.027500
  H     -3.965740   44.516900   43.378600
  H    -10.595500   50.660000   44.667100
  H     -5.395040   49.651000   38.452900

 Total Charge           Charge          ....    0
 Multiplicity           Mult            ....    1
 Number of Electrons    NEL             ....  134
 Basis Dimension        Dim             ....  322

ORBITAL ENERGIES
----------------

  NO   OCC          E(Eh)            E(eV)
   0   2.0000     -88.964595     -2420.8497
   1   2.0000     -88.962346     -2420.7885
   2   2.0000     -10.331141      -281.1246
   3   2.0000     -10.328395      -281.0499
   4   2.0000     -10.321797      -280.8704
   5   2.0000     -10.308681      -280.5135
   6   2.0000     -10.307517      -280.4818
   7   2.0000     -10.302118      -280.3349
   8   2.0000     -10.298000      -280.2228
   9   2.0000     -10.297670      -280.2138
  10   2.0000     -10.292164      -280.0640
  11   2.0000     -10.287123      -279.9268
  12   2.0000     -10.285461      -279.8816
  13   2.0000     -10.284632      -279.8591
  14   2.0000     -10.280001      -279.7330
  15   2.0000     -10.268899      -279.4309
  16   2.0000      -8.077849      -219.8095
  17   2.0000      -8.077738      -219.8064
  18   2.0000      -6.036528      -164.2623
  19   2.0000      -6.036118      -164.2511
  20   2.0000      -6.032599      -164.1554
  21   2.0000      -6.032326      -164.1479
  22   2.0000      -6.028453      -164.0425
  23   2.0000      -6.028434      -164.0420
  24   2.0000      -1.002884       -27.2899
  25   2.0000      -0.976441       -26.5703
  26   2.0000      -0.918950       -25.0059
  27   2.0000      -0.911456       -24.8020
  28   2.0000      -0.868948       -23.6453
  29   2.0000      -0.847381       -23.0584
  30   2.0000      -0.842948       -22.9378
  31   2.0000      -0.814770       -22.1710
  32   2.0000      -0.785919       -21.3860
  33   2.0000      -0.771845       -21.0030
  34   2.0000      -0.712503       -19.3882
  35   2.0000      -0.703118       -19.1328
  36   2.0000      -0.685221       -18.6458
  37   2.0000      -0.655990       -17.8504
  38   2.0000      -0.637125       -17.3371
  39   2.0000      -0.624853       -17.0031
  40   2.0000      -0.597853       -16.2684
  41   2.0000      -0.569100       -15.4860
  42   2.0000      -0.566304       -15.4099
  43   2.0000      -0.552489       -15.0340
  44   2.0000      -0.537569       -14.6280
  45   2.0000      -0.527526       -14.3547
  46   2.0000      -0.521470       -14.1899
  47   2.0000      -0.506136       -13.7727
  48   2.0000      -0.502797       -13.6818
  49   2.0000      -0.497728       -13.5439
  50   2.0000      -0.489808       -13.3283
  51   2.0000      -0.481447       -13.1008
  52   2.0000      -0.475999       -12.9526
  53   2.0000      -0.465330       -12.6623
  54   2.0000      -0.461651       -12.5622
  55   2.0000      -0.451860       -12.2957
  56   2.0000      -0.444293       -12.0898
  57   2.0000      -0.433521       -11.7967
  58   2.0000      -0.430259       -11.7079
  59   2.0000      -0.428272       -11.6539
  60   2.0000      -0.420981       -11.4555
  61   2.0000      -0.406573       -11.0634
  62   2.0000      -0.402789       -10.9604
  63   2.0000      -0.342354        -9.3159
  64   2.0000      -0.326972        -8.8974
  65   2.0000      -0.322382        -8.7724
  66   2.0000      -0.295226        -8.0335
  67   0.0000       0.029471         0.8019
  68   0.0000       0.058762         1.5990
  69   0.0000       0.110252         3.0001
  70   0.0000       0.119700         3.2572
  71   0.0000       0.126907         3.4533

MULLIKEN ATOMIC CHARGES
-----------------------
   0 S :    0.118173
   1 C :   -0.128575
   2 C :   -0.070667
   3 C :    0.042843
   4 C :   -0.196859
   5 H :    0.025445
   6 C :    0.000787
   7 H :    0.054453
   8 H :    0.039673
   9 C :   -0.100306
  10 H :    0.017585
  11 H :    0.045380
  12 C :   -0.001251
  13 H :    0.025052
  14 H :    0.024308
  15 H :    0.021321
  16 S :    0.098388
  17 C :   -0.086007
  18 C :   -0.004910
  19 C :   -0.081490
  20 C :   -0.143061
  21 H :    0.003329
  22 C :    0.123310
  23 H :    0.026623
  24 H :    0.026633
  25 C :   -0.096165
  26 H :    0.026001
  27 H :    0.023302
  28 C :   -0.020246
  29 H :    0.018332
  30 H :    0.032171
  31 H :    0.026513
  32 H :    0.049674
  33 H :    0.060242
Sum of atomic charges:    0.0000000

LOEWDIN ATOMIC CHARGES
----------------------
   0 S :    0.406824
   1 C :   -0.203628
   2 C :   -0.074657
   3 C :   -0.056458
   4 C :   -0.192383
   5 H :    0.037983
   6 C :   -0.041986
   7 H :    0.042121
   8 H :    0.038057
   9 C :   -0.058311
  10 H :    0.024438
  11 H :    0.032075
  12 C :   -0.060032
  13 H :    0.025419
  14 H :    0.028345
  15 H :    0.020741
  16 S :    0.369428
  17 C :   -0.163249
  18 C :   -0.069261
  19 C :   -0.041457
  20 C :   -0.191158
  21 H :    0.018731
  22 C :   -0.022461
  23 H :    0.020872
  24 H :    0.034060
  25 C :   -0.044691
  26 H :    0.027267
  27 H :    0.022842
  28 C :   -0.069732
  29 H :    0.025816
  30 H :    0.033924
  31 H :    0.021514
  32 H :    0.029800
  33 H :    0.029204

  Mayer bond orders larger than 0.100000
B(  0-S ,  1-C ) :   1.1460 B(  0-S ,  4-C ) :   1.1526 B(  1-C ,  2-C ) :   1.6084
B(  1-C , 32-H ) :   0.9702 B(  2-C ,  3-C ) :   1.2453 B(  2-C ,  6-C ) :   1.0011
B(  3-C ,  4-C ) :   1.5680 B(  3-C ,  5-H ) :   0.9878 B(  4-C , 20-C ) :   1.0472
B(  6-C ,  7-H ) :   0.9361 B(  6-C ,  8-H ) :   0.9517 B(  6-C ,  9-C ) :   1.0922
B(  9-C , 10-H ) :   0.9509 B(  9-C , 11-H ) :   0.9435 B(  9-C , 12-C ) :   1.0727
B( 12-C , 13-H ) :   0.9723 B( 12-C , 14-H ) :   0.9728 B( 12-C , 15-H ) :   0.9722
B( 16-S , 17-C ) :   1.1463 B( 16-S , 20-C ) :   1.1149 B( 17-C , 18-C ) :   1.6337
B( 17-C , 33-H ) :   0.9637 B( 18-C , 19-C ) :   1.2207 B( 18-C , 21-H ) :   0.9881
B( 19-C , 20-C ) :   1.6124 B( 19-C , 22-C ) :   1.0414 B( 22-C , 23-H ) :   0.9303
B( 22-C , 24-H ) :   0.9289 B( 22-C , 25-C ) :   1.0621 B( 25-C , 26-H ) :   0.9565
B( 25-C , 27-H ) :   0.9512 B( 25-C , 28-C ) :   1.0777 B( 28-C , 29-H ) :   0.9707
B( 28-C , 30-H ) :   0.9724 B( 28-C , 31-H ) :   0.9749

Dispersion correction           -0.014230007
FINAL SINGLE POINT ENERGY     -1339.857890772364

DIPOLE MOMENT
-------------
                                X             Y             Z
Electronic contribution:      4.79054      25.95276      -9.13916
Nuclear contribution   :     -5.00596     -26.64358       9.21228
                        -----------------------------------------
Total Dipole Moment    :     -0.21542      -0.69083       0.07312
                        -----------------------------------------
Magnitude (a.u.)       :      0.72732
Magnitude (Debye)      :      1.84870

Rotational constants in cm-1:     0.016697     0.009200     0.006930
Rotational constants in MHz :   500.570671   275.811220   207.752097

                             ****ORCA TERMINATED NORMALLY****
TOTAL RUN TIME: 0 days 0 hours 0 minutes 33 seconds 446 msec
