                         Program Version 4.2.1 -  RELEASE  -
|  1> ! wB97X-D3 SP def2-SVP
|  2> %pal
|  3> nprocs 16
|  4> end
|  5>
|  6> * xyz 0 1
|  7> S 	 -42.1352 	 -0.97435 	 94.5239
|  8> C 	 -42.0769 	 -2.66575 	 94.3322
|  9> C 	 -40.9223 	 -3.15242 	 94.9911
| 10> C 	 -40.1907 	 -2.15713 	 95.7255
| 11> C 	 -40.6717 	 -0.890783 	 95.4559
| 12> H 	 -39.3653 	 -2.26593 	 96.4405
| 13> C 	 -40.4081 	 -4.62353 	 94.8782
| 14> H 	 -41.0945 	 -5.28576 	 94.3608
| 15> H 	 -40.1908 	 -4.89786 	 95.9855
| 16> C 	 -39.0077 	 -4.90441 	 94.2475
| 17> H 	 -38.3257 	 -4.12215 	 94.4915
| 18> H 	 -38.6453 	 -5.79018 	 94.772
| 19> C 	 -39.0789 	 -4.9964 	 92.7408
| 20> H 	 -39.9834 	 -5.49282 	 92.2852
| 21> H 	 -39.0074 	 -3.92857 	 92.4294
| 22> H 	 -38.1897 	 -5.54742 	 92.4552
| 23> S 	 -41.5131 	 1.4598 	 96.6637
| 24> C 	 -40.3155 	 2.58851 	 97.2496
| 25> C 	 -39.06 	 2.18865 	 96.901
| 26> C 	 -38.9676 	 0.934645 	 96.1588
| 27> C 	 -40.2498 	 0.432181 	 95.9841
| 28> H 	 -38.1742 	 2.70107 	 97.2691
| 29> C 	 -37.7244 	 0.243742 	 95.6364
| 30> H 	 -37.1948 	 0.863548 	 94.9014
| 31> H 	 -37.8854 	 -0.482014 	 94.9015
| 32> C 	 -36.7135 	 -0.351384 	 96.6306
| 33> H 	 -37.1604 	 -1.18462 	 97.1227
| 34> H 	 -36.5049 	 0.413035 	 97.3743
| 35> C 	 -35.3877 	 -0.715584 	 96.1254
| 36> H 	 -35.3543 	 -1.56452 	 95.367
| 37> H 	 -34.6818 	 -1.07827 	 96.878
| 38> H 	 -34.787 	 0.0923552 	 95.6337
| 39> H 	 -42.8284 	 -3.17869 	 93.6627
| 40> H 	 -40.567 	 3.30862 	 97.9424
| 41> *
| 42>
| 43>                          ****END OF INPUT****

CARTESIAN COORDINATES (ANGSTROEM)
---------------------------------
  S    -42.135200   -0.974350   94.523900
  C    -42.076900   -2.665750   94.332200
  C    -40.922300   -3.152420   94.991100
  C    -40.190700   -2.157130   95.725500
  C    -40.671700   -0.890783   95.455900
  H    -39.365300   -2.265930   96.440500
  C    -40.408100   -4.623530   94.878200
  H    -41.094500   -5.285760   94.360800
  H    -40.190800   -4.897860   95.985500
  C    -39.007700   -4.904410   94.247500
  H    -38.325700   -4.122150   94.491500
  H    -38.645300   -5.790180   94.772000
  C    -39.078900   -4.996400   92.740800
  H    -39.983400   -5.492820   92.285200
  H    -39.007400   -3.928570   92.429400
  H    -38.189700   -5.547420   92.455200
  S    -41.513100    1.459800   96.663700
  C    -40.315500    2.588510   97.249600
  C    -39.060000    2.188650   96.901000
  C    -38.967600    0.934645   96.158800
  C    -40.249800    0.432181   95.984100
  H    -38.174200    2.701070   97.269100
  C    -37.724400    0.243742   95.636400
  H    -37.194800    0.863548   94.901400
  H    -37.885400   -0.482014   94.901500
  C    -36.713500   -0.351384   96.630600
  H    -37.160400   -1.184620   97.122700
  H    -36.504900    0.413035   97.374300
  C    -35.387700   -0.715584   96.125400
  H    -35.354300   -1.564520   95.367000
  H    -34.681800   -1.078270   96.878000
  H    -34.787000    0.092355   95.633700
  H    -42.828400   -3.178690   93.662700
  H    -40.567000    3.308620   97.942400

 Total Charge           Charge          ....    0
 Multiplicity           Mult            ....    1
 Number of Electrons    NEL             ....  134
 Basis Dimension        Dim             ....  322

ORBITAL ENERGIES
----------------

  NO   OCC          E(Eh)            E(eV)
   0   2.0000     -88.965178     -2420.8656
   1   2.0000     -88.962592     -2420.7952
   2   2.0000     -10.331102      -281.1236
   3   2.0000     -10.329979      -281.0930
   4   2.0000     -10.319103      -280.7971
   5   2.0000     -10.313346      -280.6404
   6   2.0000     -10.310424      -280.5609
   7   2.0000     -10.310337      -280.5585
   8   2.0000     -10.299140      -280.2538
   9   2.0000     -10.298760      -280.2435
  10   2.0000     -10.298612      -280.2395
  11   2.0000     -10.289959      -280.0040
  12   2.0000     -10.285496      -279.8826
  13   2.0000     -10.285233      -279.8754
  14   2.0000     -10.282638      -279.8048
  15   2.0000     -10.279775      -279.7269
  16   2.0000      -8.080087      -219.8704
  17   2.0000      -8.078600      -219.8299
  18   2.0000      -6.038604      -164.3188
  19   2.0000      -6.036973      -164.2744
  20   2.0000      -6.034615      -164.2102
  21   2.0000      -6.032748      -164.1594
  22   2.0000      -6.030758      -164.1053
  23   2.0000      -6.029612      -164.0741
  24   2.0000      -1.008199       -27.4345
  25   2.0000      -0.985166       -26.8077
  26   2.0000      -0.917081       -24.9551
  27   2.0000      -0.906324       -24.6623
  28   2.0000      -0.869689       -23.6654
  29   2.0000      -0.856585       -23.3089
  30   2.0000      -0.846723       -23.0405
  31   2.0000      -0.814725       -22.1698
  32   2.0000      -0.786594       -21.4043
  33   2.0000      -0.769419       -20.9370
  34   2.0000      -0.706593       -19.2274
  35   2.0000      -0.700216       -19.0538
  36   2.0000      -0.687875       -18.7180
  37   2.0000      -0.659656       -17.9502
  38   2.0000      -0.643498       -17.5105
  39   2.0000      -0.622457       -16.9379
  40   2.0000      -0.609570       -16.5872
  41   2.0000      -0.567391       -15.4395
  42   2.0000      -0.564442       -15.3593
  43   2.0000      -0.547578       -14.9004
  44   2.0000      -0.532160       -14.4808
  45   2.0000      -0.528585       -14.3835
  46   2.0000      -0.526373       -14.3233
  47   2.0000      -0.516637       -14.0584
  48   2.0000      -0.509121       -13.8539
  49   2.0000      -0.499021       -13.5790
  50   2.0000      -0.484613       -13.1870
  51   2.0000      -0.483458       -13.1556
  52   2.0000      -0.479256       -13.0412
  53   2.0000      -0.466618       -12.6973
  54   2.0000      -0.458266       -12.4701
  55   2.0000      -0.448632       -12.2079
  56   2.0000      -0.442154       -12.0316
  57   2.0000      -0.438786       -11.9400
  58   2.0000      -0.430773       -11.7219
  59   2.0000      -0.427483       -11.6324
  60   2.0000      -0.418126       -11.3778
  61   2.0000      -0.408963       -11.1284
  62   2.0000      -0.404908       -11.0181
  63   2.0000      -0.353779        -9.6268
  64   2.0000      -0.332418        -9.0455
  65   2.0000      -0.324725        -8.8362
  66   2.0000      -0.291365        -7.9284
  67   0.0000       0.031463         0.8561
  68   0.0000       0.072875         1.9830
  69   0.0000       0.110790         3.0147
  70   0.0000       0.114748         3.1225
  71   0.0000       0.122571         3.3353

MULLIKEN ATOMIC CHARGES
-----------------------
   0 S :    0.100694
   1 C :   -0.141315
   2 C :   -0.080627
   3 C :    0.027267
   4 C :   -0.157093
   5 H :    0.022191
   6 C :    0.018034
   7 H :    0.021958
   8 H :    0.040589
   9 C :   -0.063747
  10 H :    0.015789
  11 H :    0.028030
  12 C :   -0.065349
  13 H :    0.041584
  14 H :    0.048419
  15 H :    0.035315
  16 S :    0.101847
  17 C :   -0.063319
  18 C :   -0.021827
  19 C :   -0.012159
  20 C :   -0.145199
  21 H :    0.020908
  22 C :    0.066780
  23 H :    0.015238
  24 H :   -0.002501
  25 C :   -0.017612
  26 H :    0.020462
  27 H :    0.022917
  28 C :   -0.091162
  29 H :    0.027370
  30 H :    0.034512
  31 H :    0.033295
  32 H :    0.080914
  33 H :    0.037798
Sum of atomic charges:   -0.0000000

LOEWDIN ATOMIC CHARGES
----------------------
   0 S :    0.426342
   1 C :   -0.229087
   2 C :   -0.065553
   3 C :   -0.070120
   4 C :   -0.192408
   5 H :    0.037031
   6 C :   -0.034156
   7 H :    0.023866
   8 H :    0.041176
   9 C :   -0.043994
  10 H :    0.018929
  11 H :    0.021535
  12 C :   -0.071617
  13 H :    0.027859
  14 H :    0.036231
  15 H :    0.026163
  16 S :    0.396335
  17 C :   -0.173005
  18 C :   -0.062453
  19 C :   -0.053851
  20 C :   -0.186716
  21 H :    0.030882
  22 C :   -0.039816
  23 H :    0.037506
  24 H :    0.025306
  25 C :   -0.040562
  26 H :    0.020256
  27 H :    0.026854
  28 C :   -0.077439
  29 H :    0.025548
  30 H :    0.030079
  31 H :    0.028887
  32 H :    0.043886
  33 H :    0.016105

  Mayer bond orders larger than 0.100000
B(  0-S ,  1-C ) :   1.1538 B(  0-S ,  4-C ) :   1.1795 B(  1-C ,  2-C ) :   1.5712
B(  1-C , 32-H ) :   0.9675 B(  2-C ,  3-C ) :   1.2393 B(  2-C ,  6-C ) :   1.0273
B(  3-C ,  4-C ) :   1.5605 B(  3-C ,  5-H ) :   0.9906 B(  4-C , 20-C ) :   1.0114
B(  6-C ,  7-H ) :   0.9534 B(  6-C ,  8-H ) :   0.9407 B(  6-C ,  9-C ) :   1.0605
B(  9-C , 10-H ) :   0.9538 B(  9-C , 11-H ) :   0.9616 B(  9-C , 12-C ) :   1.0635
B( 12-C , 13-H ) :   0.9788 B( 12-C , 14-H ) :   0.9791 B( 12-C , 15-H ) :   0.9733
B( 16-S , 17-C ) :   1.1341 B( 16-S , 20-C ) :   1.1488 B( 17-C , 18-C ) :   1.6292
B( 17-C , 33-H ) :   0.9800 B( 18-C , 19-C ) :   1.2146 B( 18-C , 21-H ) :   0.9864
B( 19-C , 20-C ) :   1.6183 B( 19-C , 22-C ) :   1.0483 B( 22-C , 23-H ) :   0.9268
B( 22-C , 24-H ) :   0.9213 B( 22-C , 25-C ) :   1.0547 B( 25-C , 26-H ) :   0.9479
B( 25-C , 27-H ) :   0.9518 B( 25-C , 28-C ) :   1.0975 B( 28-C , 29-H ) :   0.9706
B( 28-C , 30-H ) :   0.9694 B( 28-C , 31-H ) :   0.9699

Dispersion correction           -0.014185442
FINAL SINGLE POINT ENERGY     -1339.866741294569

DIPOLE MOMENT
-------------
                                X             Y             Z
Electronic contribution:    -26.01303      18.75814       4.69232
Nuclear contribution   :     26.68462     -19.06344      -4.57035
                        -----------------------------------------
Total Dipole Moment    :      0.67160      -0.30529       0.12197
                        -----------------------------------------
Magnitude (a.u.)       :      0.74775
Magnitude (Debye)      :      1.90062

Rotational constants in cm-1:     0.016796     0.009878     0.006599
Rotational constants in MHz :   503.523972   296.130801   197.837163

                             ****ORCA TERMINATED NORMALLY****
TOTAL RUN TIME: 0 days 0 hours 0 minutes 30 seconds 919 msec
