                         Program Version 4.2.1 -  RELEASE  -
|  1> ! wB97X-D3 SP def2-SVP
|  2> %pal
|  3> nprocs 16
|  4> end
|  5>
|  6> * xyz 0 1
|  7> S 	 47.426 	 22.8199 	 90.1377
|  8> C 	 49.0807 	 22.9334 	 90.7594
|  9> C 	 49.7711 	 21.7258 	 90.5368
| 10> C 	 48.9356 	 20.6884 	 90.0382
| 11> C 	 47.6419 	 21.083 	 89.8275
| 12> H 	 49.3671 	 19.6918 	 89.8482
| 13> C 	 51.2003 	 21.5091 	 90.8923
| 14> H 	 51.3404 	 20.5154 	 90.9318
| 15> H 	 51.442 	 21.9061 	 91.8878
| 16> C 	 52.2001 	 21.9502 	 89.8111
| 17> H 	 51.9632 	 21.3461 	 88.9737
| 18> H 	 51.9469 	 22.9429 	 89.3019
| 19> C 	 53.7383 	 21.8581 	 90.2472
| 20> H 	 54.1319 	 20.8781 	 90.4042
| 21> H 	 54.4232 	 22.327 	 89.6055
| 22> H 	 53.8126 	 22.3631 	 91.201
| 23> S 	 46.1057 	 18.8406 	 89.8349
| 24> C 	 44.9903 	 18.3203 	 88.6239
| 25> C 	 44.819 	 19.4564 	 87.7026
| 26> C 	 45.7813 	 20.5107 	 88.0133
| 27> C 	 46.6269 	 20.3129 	 89.0696
| 28> H 	 44.1824 	 19.3356 	 86.8123
| 29> C 	 45.8802 	 21.6555 	 87.1098
| 30> H 	 46.6364 	 22.3042 	 87.4889
| 31> H 	 45.0086 	 22.2582 	 87.1241
| 32> C 	 46.1597 	 21.3564 	 85.6482
| 33> H 	 46.1285 	 22.2147 	 84.9873
| 34> H 	 45.4337 	 20.5898 	 85.282
| 35> C 	 47.4603 	 20.6305 	 85.5468
| 36> H 	 47.4504 	 19.6539 	 86.0681
| 37> H 	 48.2542 	 21.3544 	 85.8751
| 38> H 	 47.7099 	 20.5375 	 84.4222
| 39> H 	 49.4384 	 23.8838 	 91.1867
| 40> H 	 44.5835 	 17.364 	 88.5439
| 41> *
| 42>
| 43>                          ****END OF INPUT****

CARTESIAN COORDINATES (ANGSTROEM)
---------------------------------
  S     47.426000   22.819900   90.137700
  C     49.080700   22.933400   90.759400
  C     49.771100   21.725800   90.536800
  C     48.935600   20.688400   90.038200
  C     47.641900   21.083000   89.827500
  H     49.367100   19.691800   89.848200
  C     51.200300   21.509100   90.892300
  H     51.340400   20.515400   90.931800
  H     51.442000   21.906100   91.887800
  C     52.200100   21.950200   89.811100
  H     51.963200   21.346100   88.973700
  H     51.946900   22.942900   89.301900
  C     53.738300   21.858100   90.247200
  H     54.131900   20.878100   90.404200
  H     54.423200   22.327000   89.605500
  H     53.812600   22.363100   91.201000
  S     46.105700   18.840600   89.834900
  C     44.990300   18.320300   88.623900
  C     44.819000   19.456400   87.702600
  C     45.781300   20.510700   88.013300
  C     46.626900   20.312900   89.069600
  H     44.182400   19.335600   86.812300
  C     45.880200   21.655500   87.109800
  H     46.636400   22.304200   87.488900
  H     45.008600   22.258200   87.124100
  C     46.159700   21.356400   85.648200
  H     46.128500   22.214700   84.987300
  H     45.433700   20.589800   85.282000
  C     47.460300   20.630500   85.546800
  H     47.450400   19.653900   86.068100
  H     48.254200   21.354400   85.875100
  H     47.709900   20.537500   84.422200
  H     49.438400   23.883800   91.186700
  H     44.583500   17.364000   88.543900

 Total Charge           Charge          ....    0
 Multiplicity           Mult            ....    1
 Number of Electrons    NEL             ....  134
 Basis Dimension        Dim             ....  322

ORBITAL ENERGIES
----------------

  NO   OCC          E(Eh)            E(eV)
   0   2.0000     -88.972539     -2421.0659
   1   2.0000     -88.960827     -2420.7472
   2   2.0000     -10.338422      -281.3228
   3   2.0000     -10.327150      -281.0160
   4   2.0000     -10.325364      -280.9674
   5   2.0000     -10.322839      -280.8987
   6   2.0000     -10.306650      -280.4582
   7   2.0000     -10.306093      -280.4431
   8   2.0000     -10.302192      -280.3369
   9   2.0000     -10.301889      -280.3287
  10   2.0000     -10.293405      -280.0978
  11   2.0000     -10.284650      -279.8596
  12   2.0000     -10.278358      -279.6883
  13   2.0000     -10.278305      -279.6869
  14   2.0000     -10.275942      -279.6226
  15   2.0000     -10.271445      -279.5002
  16   2.0000      -8.086056      -220.0328
  17   2.0000      -8.076106      -219.7620
  18   2.0000      -6.044576      -164.4813
  19   2.0000      -6.040702      -164.3759
  20   2.0000      -6.036898      -164.2723
  21   2.0000      -6.034525      -164.2078
  22   2.0000      -6.030209      -164.0903
  23   2.0000      -6.027223      -164.0091
  24   2.0000      -1.006819       -27.3969
  25   2.0000      -0.984265       -26.7832
  26   2.0000      -0.917433       -24.9646
  27   2.0000      -0.913283       -24.8517
  28   2.0000      -0.864727       -23.5304
  29   2.0000      -0.851144       -23.1608
  30   2.0000      -0.843742       -22.9594
  31   2.0000      -0.813256       -22.1298
  32   2.0000      -0.782518       -21.2934
  33   2.0000      -0.771622       -20.9969
  34   2.0000      -0.711847       -19.3704
  35   2.0000      -0.700221       -19.0540
  36   2.0000      -0.692886       -18.8544
  37   2.0000      -0.662209       -18.0196
  38   2.0000      -0.643351       -17.5065
  39   2.0000      -0.623385       -16.9632
  40   2.0000      -0.599965       -16.3259
  41   2.0000      -0.572273       -15.5723
  42   2.0000      -0.558115       -15.1871
  43   2.0000      -0.553963       -15.0741
  44   2.0000      -0.543250       -14.7826
  45   2.0000      -0.529037       -14.3958
  46   2.0000      -0.520389       -14.1605
  47   2.0000      -0.517637       -14.0856
  48   2.0000      -0.506257       -13.7760
  49   2.0000      -0.502175       -13.6649
  50   2.0000      -0.489575       -13.3220
  51   2.0000      -0.475334       -12.9345
  52   2.0000      -0.470881       -12.8133
  53   2.0000      -0.466210       -12.6862
  54   2.0000      -0.455057       -12.3827
  55   2.0000      -0.450762       -12.2659
  56   2.0000      -0.445212       -12.1148
  57   2.0000      -0.439914       -11.9707
  58   2.0000      -0.430146       -11.7049
  59   2.0000      -0.418296       -11.3824
  60   2.0000      -0.414517       -11.2796
  61   2.0000      -0.408347       -11.1117
  62   2.0000      -0.405795       -11.0422
  63   2.0000      -0.348631        -9.4867
  64   2.0000      -0.332510        -9.0481
  65   2.0000      -0.322055        -8.7636
  66   2.0000      -0.297042        -8.0829
  67   0.0000       0.024634         0.6703
  68   0.0000       0.063092         1.7168
  69   0.0000       0.099013         2.6943
  70   0.0000       0.121691         3.3114
  71   0.0000       0.124951         3.4001

MULLIKEN ATOMIC CHARGES
-----------------------
   0 S :    0.110187
   1 C :   -0.138035
   2 C :   -0.112270
   3 C :    0.034049
   4 C :   -0.108079
   5 H :    0.031824
   6 C :    0.138014
   7 H :   -0.019193
   8 H :    0.030909
   9 C :   -0.095650
  10 H :    0.009597
  11 H :    0.032529
  12 C :   -0.013126
  13 H :    0.027256
  14 H :    0.026975
  15 H :    0.023368
  16 S :    0.095597
  17 C :   -0.092863
  18 C :   -0.050664
  19 C :   -0.101638
  20 C :   -0.126340
  21 H :    0.043332
  22 C :    0.117168
  23 H :   -0.005741
  24 H :    0.018538
  25 C :   -0.077962
  26 H :    0.029759
  27 H :    0.023069
  28 C :   -0.093968
  29 H :    0.065154
  30 H :    0.029036
  31 H :    0.032662
  32 H :    0.066162
  33 H :    0.050339
Sum of atomic charges:   -0.0000000

LOEWDIN ATOMIC CHARGES
----------------------
   0 S :    0.402049
   1 C :   -0.184500
   2 C :   -0.059561
   3 C :   -0.053572
   4 C :   -0.188632
   5 H :    0.041174
   6 C :   -0.025309
   7 H :    0.014460
   8 H :    0.033005
   9 C :   -0.039807
  10 H :    0.016524
  11 H :    0.029621
  12 C :   -0.060241
  13 H :    0.022868
  14 H :    0.021664
  15 H :    0.025718
  16 S :    0.427484
  17 C :   -0.186581
  18 C :   -0.072795
  19 C :   -0.066987
  20 C :   -0.202352
  21 H :    0.034969
  22 C :   -0.038451
  23 H :    0.014377
  24 H :    0.028380
  25 C :   -0.044138
  26 H :    0.023974
  27 H :    0.022891
  28 C :   -0.075040
  29 H :    0.031961
  30 H :    0.025154
  31 H :    0.029590
  32 H :    0.033452
  33 H :    0.018653

  Mayer bond orders larger than 0.100000
B(  0-S ,  1-C ) :   1.1487 B(  0-S ,  4-C ) :   1.1455 B(  1-C ,  2-C ) :   1.5679
B(  1-C , 32-H ) :   0.9725 B(  2-C ,  3-C ) :   1.2787 B(  2-C ,  6-C ) :   1.0356
B(  3-C ,  4-C ) :   1.5450 B(  3-C ,  5-H ) :   0.9839 B(  4-C , 20-C ) :   1.0016
B(  6-C ,  7-H ) :   0.9262 B(  6-C ,  8-H ) :   0.9436 B(  6-C ,  9-C ) :   1.0424
B(  9-C , 10-H ) :   0.9533 B(  9-C , 11-H ) :   0.9646 B(  9-C , 12-C ) :   1.0593
B( 12-C , 13-H ) :   0.9780 B( 12-C , 14-H ) :   0.9775 B( 12-C , 15-H ) :   0.9773
B( 16-S , 17-C ) :   1.1990 B( 16-S , 20-C ) :   1.1412 B( 17-C , 18-C ) :   1.5317
B( 17-C , 20-C ) :   0.1077 B( 17-C , 33-H ) :   0.9813 B( 18-C , 19-C ) :   1.2457
B( 18-C , 21-H ) :   0.9879 B( 19-C , 20-C ) :   1.5867 B( 19-C , 22-C ) :   1.0614
B( 22-C , 23-H ) :   0.9287 B( 22-C , 24-H ) :   0.9180 B( 22-C , 25-C ) :   1.0767
B( 25-C , 26-H ) :   0.9535 B( 25-C , 27-H ) :   0.9525 B( 25-C , 28-C ) :   1.0785
B( 28-C , 29-H ) :   0.9697 B( 28-C , 30-H ) :   0.9738 B( 28-C , 31-H ) :   0.9719

Dispersion correction           -0.014559435
FINAL SINGLE POINT ENERGY     -1339.851280779606

DIPOLE MOMENT
-------------
                                X             Y             Z
Electronic contribution:    -19.82362      -3.70686      12.78343
Nuclear contribution   :     20.30333       3.76626     -13.04630
                        -----------------------------------------
Total Dipole Moment    :      0.47972       0.05940      -0.26288
                        -----------------------------------------
Magnitude (a.u.)       :      0.55024
Magnitude (Debye)      :      1.39860

Rotational constants in cm-1:     0.021387     0.007482     0.006978
Rotational constants in MHz :   641.179574   224.294202   209.181461

                             ****ORCA TERMINATED NORMALLY****
TOTAL RUN TIME: 0 days 0 hours 0 minutes 28 seconds 270 msec
