                         Program Version 4.2.1 -  RELEASE  -
|  1> ! wB97X-D3 SP def2-SVP
|  2> %pal
|  3> nprocs 16
|  4> end
|  5>
|  6> * xyz 0 1
|  7> S 	 46.6168 	 20.3585 	 87.4566
|  8> C 	 45.8363 	 21.8904 	 87.4856
|  9> C 	 46.7025 	 23.0043 	 87.6512
| 10> C 	 48.0715 	 22.579 	 87.5899
| 11> C 	 48.1748 	 21.2175 	 87.5192
| 12> H 	 48.9731 	 23.1414 	 87.4954
| 13> C 	 46.2673 	 24.4831 	 87.5365
| 14> H 	 45.4247 	 24.5797 	 86.8869
| 15> H 	 46.9152 	 24.9733 	 86.7359
| 16> C 	 46.1432 	 25.2071 	 88.8835
| 17> H 	 45.9344 	 26.306 	 88.7424
| 18> H 	 45.2477 	 24.8904 	 89.3792
| 19> C 	 47.4012 	 25.0621 	 89.7175
| 20> H 	 48.2402 	 24.971 	 89.0036
| 21> H 	 47.7066 	 25.8437 	 90.3756
| 22> H 	 47.4428 	 24.1456 	 90.3314
| 23> S 	 49.2813 	 19.5008 	 85.7106
| 24> C 	 51.008 	 18.9957 	 85.9018
| 25> C 	 51.5827 	 19.6203 	 87.0066
| 26> C 	 50.689 	 20.4149 	 87.7918
| 27> C 	 49.4218 	 20.4639 	 87.1973
| 28> H 	 52.6356 	 19.4461 	 87.2052
| 29> C 	 51.1622 	 21.3279 	 88.9059
| 30> H 	 51.2389 	 20.687 	 89.8265
| 31> H 	 50.4321 	 22.0753 	 89.1491
| 32> C 	 52.4786 	 22.0521 	 88.558
| 33> H 	 52.2682 	 22.5745 	 87.5629
| 34> H 	 53.2517 	 21.28 	 88.2533
| 35> C 	 52.9408 	 23.0459 	 89.6354
| 36> H 	 53.9986 	 23.2031 	 89.5435
| 37> H 	 52.6855 	 22.5814 	 90.6285
| 38> H 	 52.4716 	 23.9597 	 89.5007
| 39> H 	 44.7664 	 21.9993 	 87.4482
| 40> H 	 51.5924 	 18.5017 	 85.13
| 41> *
| 42>
| 43>                          ****END OF INPUT****

CARTESIAN COORDINATES (ANGSTROEM)
---------------------------------
  S     46.616800   20.358500   87.456600
  C     45.836300   21.890400   87.485600
  C     46.702500   23.004300   87.651200
  C     48.071500   22.579000   87.589900
  C     48.174800   21.217500   87.519200
  H     48.973100   23.141400   87.495400
  C     46.267300   24.483100   87.536500
  H     45.424700   24.579700   86.886900
  H     46.915200   24.973300   86.735900
  C     46.143200   25.207100   88.883500
  H     45.934400   26.306000   88.742400
  H     45.247700   24.890400   89.379200
  C     47.401200   25.062100   89.717500
  H     48.240200   24.971000   89.003600
  H     47.706600   25.843700   90.375600
  H     47.442800   24.145600   90.331400
  S     49.281300   19.500800   85.710600
  C     51.008000   18.995700   85.901800
  C     51.582700   19.620300   87.006600
  C     50.689000   20.414900   87.791800
  C     49.421800   20.463900   87.197300
  H     52.635600   19.446100   87.205200
  C     51.162200   21.327900   88.905900
  H     51.238900   20.687000   89.826500
  H     50.432100   22.075300   89.149100
  C     52.478600   22.052100   88.558000
  H     52.268200   22.574500   87.562900
  H     53.251700   21.280000   88.253300
  C     52.940800   23.045900   89.635400
  H     53.998600   23.203100   89.543500
  H     52.685500   22.581400   90.628500
  H     52.471600   23.959700   89.500700
  H     44.766400   21.999300   87.448200
  H     51.592400   18.501700   85.130000

 Total Charge           Charge          ....    0
 Multiplicity           Mult            ....    1
 Number of Electrons    NEL             ....  134
 Basis Dimension        Dim             ....  322

ORBITAL ENERGIES
----------------

  NO   OCC          E(Eh)            E(eV)
   0   2.0000     -88.970352     -2421.0064
   1   2.0000     -88.964989     -2420.8604
   2   2.0000     -10.329884      -281.0904
   3   2.0000     -10.328373      -281.0493
   4   2.0000     -10.319963      -280.8205
   5   2.0000     -10.315330      -280.6944
   6   2.0000     -10.307556      -280.4829
   7   2.0000     -10.304646      -280.4037
   8   2.0000     -10.297507      -280.2094
   9   2.0000     -10.296692      -280.1872
  10   2.0000     -10.296512      -280.1823
  11   2.0000     -10.294027      -280.1147
  12   2.0000     -10.293601      -280.1031
  13   2.0000     -10.290094      -280.0077
  14   2.0000     -10.278513      -279.6925
  15   2.0000     -10.274885      -279.5938
  16   2.0000      -8.085042      -220.0052
  17   2.0000      -8.078297      -219.8216
  18   2.0000      -6.043409      -164.4495
  19   2.0000      -6.039718      -164.3491
  20   2.0000      -6.036868      -164.2715
  21   2.0000      -6.035787      -164.2421
  22   2.0000      -6.033078      -164.1684
  23   2.0000      -6.028990      -164.0572
  24   2.0000      -1.000658       -27.2293
  25   2.0000      -0.975327       -26.5400
  26   2.0000      -0.909715       -24.7546
  27   2.0000      -0.905768       -24.6472
  28   2.0000      -0.862732       -23.4761
  29   2.0000      -0.852431       -23.1958
  30   2.0000      -0.844898       -22.9908
  31   2.0000      -0.813111       -22.1259
  32   2.0000      -0.782006       -21.2795
  33   2.0000      -0.768400       -20.9092
  34   2.0000      -0.705437       -19.1959
  35   2.0000      -0.697909       -18.9911
  36   2.0000      -0.691933       -18.8285
  37   2.0000      -0.656044       -17.8519
  38   2.0000      -0.645353       -17.5610
  39   2.0000      -0.616156       -16.7664
  40   2.0000      -0.595274       -16.1982
  41   2.0000      -0.565015       -15.3749
  42   2.0000      -0.562865       -15.3163
  43   2.0000      -0.552835       -15.0434
  44   2.0000      -0.538663       -14.6578
  45   2.0000      -0.525941       -14.3116
  46   2.0000      -0.513616       -13.9762
  47   2.0000      -0.506516       -13.7830
  48   2.0000      -0.500192       -13.6109
  49   2.0000      -0.489012       -13.3067
  50   2.0000      -0.486822       -13.2471
  51   2.0000      -0.481750       -13.1091
  52   2.0000      -0.472024       -12.8444
  53   2.0000      -0.465435       -12.6651
  54   2.0000      -0.453591       -12.3428
  55   2.0000      -0.452409       -12.3107
  56   2.0000      -0.445152       -12.1132
  57   2.0000      -0.436557       -11.8793
  58   2.0000      -0.431498       -11.7417
  59   2.0000      -0.426910       -11.6168
  60   2.0000      -0.421636       -11.4733
  61   2.0000      -0.411544       -11.1987
  62   2.0000      -0.408006       -11.1024
  63   2.0000      -0.348996        -9.4967
  64   2.0000      -0.330558        -8.9950
  65   2.0000      -0.328509        -8.9392
  66   2.0000      -0.288855        -7.8601
  67   0.0000       0.031222         0.8496
  68   0.0000       0.064406         1.7526
  69   0.0000       0.102897         2.8000
  70   0.0000       0.117736         3.2038
  71   0.0000       0.123492         3.3604

MULLIKEN ATOMIC CHARGES
-----------------------
   0 S :    0.125097
   1 C :   -0.111316
   2 C :   -0.078466
   3 C :    0.043956
   4 C :   -0.160796
   5 H :    0.019297
   6 C :    0.019186
   7 H :    0.009197
   8 H :    0.033844
   9 C :   -0.032515
  10 H :    0.032546
  11 H :    0.026702
  12 C :   -0.048575
  13 H :    0.013124
  14 H :    0.029601
  15 H :    0.043906
  16 S :    0.091718
  17 C :   -0.097950
  18 C :   -0.055438
  19 C :   -0.011225
  20 C :   -0.176776
  21 H :    0.026668
  22 C :    0.076313
  23 H :    0.040506
  24 H :    0.014090
  25 C :   -0.168919
  26 H :    0.041172
  27 H :    0.039274
  28 C :    0.009600
  29 H :    0.032804
  30 H :    0.039637
  31 H :    0.025918
  32 H :    0.045410
  33 H :    0.062410
Sum of atomic charges:    0.0000000

LOEWDIN ATOMIC CHARGES
----------------------
   0 S :    0.408913
   1 C :   -0.199703
   2 C :   -0.060238
   3 C :   -0.054997
   4 C :   -0.187315
   5 H :    0.031165
   6 C :   -0.044174
   7 H :    0.026740
   8 H :    0.041030
   9 C :   -0.042103
  10 H :    0.031559
  11 H :    0.021949
  12 C :   -0.070918
  13 H :    0.025496
  14 H :    0.022138
  15 H :    0.031452
  16 S :    0.370242
  17 C :   -0.175657
  18 C :   -0.066331
  19 C :   -0.061269
  20 C :   -0.184162
  21 H :    0.031389
  22 C :   -0.034743
  23 H :    0.036783
  24 H :    0.023765
  25 C :   -0.051060
  26 H :    0.029983
  27 H :    0.024135
  28 C :   -0.057608
  29 H :    0.027830
  30 H :    0.034425
  31 H :    0.018137
  32 H :    0.022636
  33 H :    0.030510

  Mayer bond orders larger than 0.100000
B(  0-S ,  1-C ) :   1.1528 B(  0-S ,  4-C ) :   1.1428 B(  1-C ,  2-C ) :   1.6134
B(  1-C , 32-H ) :   0.9651 B(  2-C ,  3-C ) :   1.2194 B(  2-C ,  6-C ) :   1.0105
B(  3-C ,  4-C ) :   1.6096 B(  3-C ,  5-H ) :   0.9861 B(  4-C , 20-C ) :   1.0070
B(  6-C ,  7-H ) :   0.9460 B(  6-C ,  8-H ) :   0.9451 B(  6-C ,  9-C ) :   1.0641
B(  9-C , 10-H ) :   0.9546 B(  9-C , 11-H ) :   0.9583 B(  9-C , 12-C ) :   1.0698
B( 12-C , 13-H ) :   0.9758 B( 12-C , 14-H ) :   0.9743 B( 12-C , 15-H ) :   0.9691
B( 16-S , 17-C ) :   1.1254 B( 16-S , 20-C ) :   1.1464 B( 17-C , 18-C ) :   1.6402
B( 17-C , 33-H ) :   0.9654 B( 18-C , 19-C ) :   1.2158 B( 18-C , 21-H ) :   0.9817
B( 19-C , 20-C ) :   1.6098 B( 19-C , 22-C ) :   1.0459 B( 22-C , 23-H ) :   0.9175
B( 22-C , 24-H ) :   0.9428 B( 22-C , 25-C ) :   1.0592 B( 25-C , 26-H ) :   0.9578
B( 25-C , 27-H ) :   0.9529 B( 25-C , 28-C ) :   1.0678 B( 28-C , 29-H ) :   0.9734
B( 28-C , 30-H ) :   0.9751 B( 28-C , 31-H ) :   0.9743

Dispersion correction           -0.014448050
FINAL SINGLE POINT ENERGY     -1339.868461691239

DIPOLE MOMENT
-------------
                                X             Y             Z
Electronic contribution:    -10.80464     -23.96871     -14.60465
Nuclear contribution   :     11.10248      24.61700      14.69233
                        -----------------------------------------
Total Dipole Moment    :      0.29785       0.64829       0.08768
                        -----------------------------------------
Magnitude (a.u.)       :      0.71881
Magnitude (Debye)      :      1.82706

Rotational constants in cm-1:     0.016471     0.009960     0.006652
Rotational constants in MHz :   493.798671   298.588751   199.413711

                             ****ORCA TERMINATED NORMALLY****
TOTAL RUN TIME: 0 days 0 hours 0 minutes 28 seconds 776 msec
