                         Program Version 4.2.1 -  RELEASE  -
|  1> ! wB97X-D3 SP def2-SVP
|  2> %pal
|  3> nprocs 16
|  4> end
|  5>
|  6> * xyz 0 1
|  7> S 	 -36.925 	 23.6584 	 81.6154
|  8> C 	 -37.4994 	 22.1042 	 82.0766
|  9> C 	 -37.1867 	 21.1791 	 81.0629
| 10> C 	 -36.658 	 21.8072 	 79.8983
| 11> C 	 -36.517 	 23.1411 	 80.0062
| 12> H 	 -36.4372 	 21.36 	 78.9695
| 13> C 	 -37.5859 	 19.7054 	 81.0181
| 14> H 	 -38.4279 	 19.8405 	 80.3959
| 15> H 	 -38.023 	 19.4748 	 82.0155
| 16> C 	 -36.4843 	 18.8454 	 80.4911
| 17> H 	 -36.8551 	 17.8453 	 80.6532
| 18> H 	 -36.2594 	 18.8568 	 79.4511
| 19> C 	 -35.1147 	 18.9416 	 81.2279
| 20> H 	 -34.7075 	 19.926 	 81.4878
| 21> H 	 -35.1783 	 18.485 	 82.1618
| 22> H 	 -34.3416 	 18.4457 	 80.6489
| 23> S 	 -34.6025 	 25.0784 	 79.762
| 24> C 	 -34.3224 	 25.9873 	 78.251
| 25> C 	 -35.1907 	 25.5781 	 77.3136
| 26> C 	 -36.1045 	 24.516 	 77.742
| 27> C 	 -35.8869 	 24.1074 	 79.0741
| 28> H 	 -35.267 	 26.0956 	 76.401
| 29> C 	 -37.1187 	 23.9407 	 76.8118
| 30> H 	 -37.1794 	 22.8154 	 76.9522
| 31> H 	 -36.7724 	 24.0741 	 75.7896
| 32> C 	 -38.4886 	 24.656 	 76.9445
| 33> H 	 -38.2623 	 25.6065 	 76.5543
| 34> H 	 -38.7745 	 24.6983 	 77.9501
| 35> C 	 -39.4809 	 23.7675 	 76.1647
| 36> H 	 -40.3743 	 24.2504 	 75.895
| 37> H 	 -39.7228 	 22.9334 	 76.8187
| 38> H 	 -38.9846 	 23.4738 	 75.2562
| 39> H 	 -37.923 	 21.8972 	 82.9849
| 40> H 	 -33.676 	 26.9184 	 78.094
| 41> *
| 42>
| 43>                          ****END OF INPUT****

CARTESIAN COORDINATES (ANGSTROEM)
---------------------------------
  S    -36.925000   23.658400   81.615400
  C    -37.499400   22.104200   82.076600
  C    -37.186700   21.179100   81.062900
  C    -36.658000   21.807200   79.898300
  C    -36.517000   23.141100   80.006200
  H    -36.437200   21.360000   78.969500
  C    -37.585900   19.705400   81.018100
  H    -38.427900   19.840500   80.395900
  H    -38.023000   19.474800   82.015500
  C    -36.484300   18.845400   80.491100
  H    -36.855100   17.845300   80.653200
  H    -36.259400   18.856800   79.451100
  C    -35.114700   18.941600   81.227900
  H    -34.707500   19.926000   81.487800
  H    -35.178300   18.485000   82.161800
  H    -34.341600   18.445700   80.648900
  S    -34.602500   25.078400   79.762000
  C    -34.322400   25.987300   78.251000
  C    -35.190700   25.578100   77.313600
  C    -36.104500   24.516000   77.742000
  C    -35.886900   24.107400   79.074100
  H    -35.267000   26.095600   76.401000
  C    -37.118700   23.940700   76.811800
  H    -37.179400   22.815400   76.952200
  H    -36.772400   24.074100   75.789600
  C    -38.488600   24.656000   76.944500
  H    -38.262300   25.606500   76.554300
  H    -38.774500   24.698300   77.950100
  C    -39.480900   23.767500   76.164700
  H    -40.374300   24.250400   75.895000
  H    -39.722800   22.933400   76.818700
  H    -38.984600   23.473800   75.256200
  H    -37.923000   21.897200   82.984900
  H    -33.676000   26.918400   78.094000

 Total Charge           Charge          ....    0
 Multiplicity           Mult            ....    1
 Number of Electrons    NEL             ....  134
 Basis Dimension        Dim             ....  322

ORBITAL ENERGIES
----------------

  NO   OCC          E(Eh)            E(eV)
   0   2.0000     -88.961891     -2420.7761
   1   2.0000     -88.960605     -2420.7411
   2   2.0000     -10.330466      -281.1063
   3   2.0000     -10.327474      -281.0249
   4   2.0000     -10.319799      -280.8160
   5   2.0000     -10.307986      -280.4946
   6   2.0000     -10.304435      -280.3979
   7   2.0000     -10.301235      -280.3109
   8   2.0000     -10.291823      -280.0547
   9   2.0000     -10.290539      -280.0198
  10   2.0000     -10.289199      -279.9833
  11   2.0000     -10.286281      -279.9039
  12   2.0000     -10.286121      -279.8996
  13   2.0000     -10.275797      -279.6186
  14   2.0000     -10.270846      -279.4839
  15   2.0000     -10.270392      -279.4716
  16   2.0000      -8.077453      -219.7987
  17   2.0000      -8.074896      -219.7291
  18   2.0000      -6.035860      -164.2441
  19   2.0000      -6.033675      -164.1847
  20   2.0000      -6.031768      -164.1327
  21   2.0000      -6.029335      -164.0666
  22   2.0000      -6.028344      -164.0396
  23   2.0000      -6.025496      -163.9621
  24   2.0000      -1.008457       -27.4415
  25   2.0000      -0.982614       -26.7383
  26   2.0000      -0.917195       -24.9582
  27   2.0000      -0.911061       -24.7912
  28   2.0000      -0.870948       -23.6997
  29   2.0000      -0.849331       -23.1115
  30   2.0000      -0.841872       -22.9085
  31   2.0000      -0.823040       -22.3961
  32   2.0000      -0.783827       -21.3290
  33   2.0000      -0.765319       -20.8254
  34   2.0000      -0.714327       -19.4378
  35   2.0000      -0.704375       -19.1670
  36   2.0000      -0.692628       -18.8474
  37   2.0000      -0.659114       -17.9354
  38   2.0000      -0.647719       -17.6253
  39   2.0000      -0.625634       -17.0244
  40   2.0000      -0.591565       -16.0973
  41   2.0000      -0.575166       -15.6511
  42   2.0000      -0.567149       -15.4329
  43   2.0000      -0.561142       -15.2695
  44   2.0000      -0.535668       -14.5763
  45   2.0000      -0.525410       -14.2971
  46   2.0000      -0.523166       -14.2361
  47   2.0000      -0.508180       -13.8283
  48   2.0000      -0.506818       -13.7912
  49   2.0000      -0.499171       -13.5831
  50   2.0000      -0.486813       -13.2468
  51   2.0000      -0.485614       -13.2142
  52   2.0000      -0.472069       -12.8456
  53   2.0000      -0.462648       -12.5893
  54   2.0000      -0.459614       -12.5067
  55   2.0000      -0.449469       -12.2307
  56   2.0000      -0.442945       -12.0532
  57   2.0000      -0.441499       -12.0138
  58   2.0000      -0.433093       -11.7851
  59   2.0000      -0.427563       -11.6346
  60   2.0000      -0.424368       -11.5476
  61   2.0000      -0.411568       -11.1993
  62   2.0000      -0.405061       -11.0223
  63   2.0000      -0.351819        -9.5735
  64   2.0000      -0.328300        -8.9335
  65   2.0000      -0.321636        -8.7522
  66   2.0000      -0.293334        -7.9820
  67   0.0000       0.035248         0.9591
  68   0.0000       0.070979         1.9314
  69   0.0000       0.117059         3.1853
  70   0.0000       0.122679         3.3383
  71   0.0000       0.133687         3.6378

MULLIKEN ATOMIC CHARGES
-----------------------
   0 S :    0.107006
   1 C :   -0.089062
   2 C :   -0.122373
   3 C :    0.041675
   4 C :   -0.134858
   5 H :   -0.006929
   6 C :    0.107622
   7 H :    0.035570
   8 H :    0.018814
   9 C :   -0.060263
  10 H :    0.024284
  11 H :    0.030263
  12 C :   -0.042916
  13 H :    0.043861
  14 H :    0.013583
  15 H :    0.029379
  16 S :    0.081969
  17 C :   -0.105646
  18 C :   -0.013174
  19 C :   -0.048639
  20 C :   -0.142122
  21 H :    0.003394
  22 C :   -0.009429
  23 H :    0.032634
  24 H :    0.020087
  25 C :   -0.024807
  26 H :    0.013090
  27 H :    0.027943
  28 C :   -0.003190
  29 H :    0.019521
  30 H :    0.036756
  31 H :    0.019945
  32 H :    0.012700
  33 H :    0.083309
Sum of atomic charges:    0.0000000

LOEWDIN ATOMIC CHARGES
----------------------
   0 S :    0.418888
   1 C :   -0.199856
   2 C :   -0.054550
   3 C :   -0.062298
   4 C :   -0.194384
   5 H :    0.025311
   6 C :   -0.029674
   7 H :    0.034740
   8 H :    0.033698
   9 C :   -0.041635
  10 H :    0.029459
  11 H :    0.023173
  12 C :   -0.060988
  13 H :    0.029979
  14 H :    0.016037
  15 H :    0.027471
  16 S :    0.384778
  17 C :   -0.188773
  18 C :   -0.072479
  19 C :   -0.058648
  20 C :   -0.194335
  21 H :    0.024265
  22 C :   -0.038325
  23 H :    0.031521
  24 H :    0.026538
  25 C :   -0.020745
  26 H :    0.016782
  27 H :    0.018364
  28 C :   -0.052807
  29 H :    0.015728
  30 H :    0.030215
  31 H :    0.021575
  32 H :    0.009210
  33 H :    0.051766

  Mayer bond orders larger than 0.100000
B(  0-S ,  1-C ) :   1.1453 B(  0-S ,  4-C ) :   1.1569 B(  1-C ,  2-C ) :   1.5820
B(  1-C , 32-H ) :   0.9860 B(  2-C ,  3-C ) :   1.2299 B(  2-C ,  6-C ) :   0.9988
B(  3-C ,  4-C ) :   1.5968 B(  3-C ,  5-H ) :   1.0033 B(  4-C , 20-C ) :   1.0100
B(  6-C ,  7-H ) :   0.9401 B(  6-C ,  8-H ) :   0.9412 B(  6-C ,  9-C ) :   1.0660
B(  9-C , 10-H ) :   0.9525 B(  9-C , 11-H ) :   0.9567 B(  9-C , 12-C ) :   1.0741
B( 12-C , 13-H ) :   0.9738 B( 12-C , 14-H ) :   0.9762 B( 12-C , 15-H ) :   0.9762
B( 16-S , 17-C ) :   1.1265 B( 16-S , 20-C ) :   1.1344 B( 17-C , 18-C ) :   1.6515
B( 17-C , 33-H ) :   0.9525 B( 18-C , 19-C ) :   1.2258 B( 18-C , 21-H ) :   0.9898
B( 19-C , 20-C ) :   1.6087 B( 19-C , 22-C ) :   1.0506 B( 22-C , 23-H ) :   0.9443
B( 22-C , 24-H ) :   0.9313 B( 22-C , 25-C ) :   1.0452 B( 25-C , 26-H ) :   0.9540
B( 25-C , 27-H ) :   0.9660 B( 25-C , 28-C ) :   1.0765 B( 28-C , 29-H ) :   0.9740
B( 28-C , 30-H ) :   0.9768 B( 28-C , 31-H ) :   0.9716

Dispersion correction           -0.014332770
FINAL SINGLE POINT ENERGY     -1339.861088311819

DIPOLE MOMENT
-------------
                                X             Y             Z
Electronic contribution:      9.60342      17.36838      11.70139
Nuclear contribution   :     -9.93440     -17.77052     -12.12008
                        -----------------------------------------
Total Dipole Moment    :     -0.33098      -0.40213      -0.41869
                        -----------------------------------------
Magnitude (a.u.)       :      0.66825
Magnitude (Debye)      :      1.69856

Rotational constants in cm-1:     0.017829     0.008965     0.007456
Rotational constants in MHz :   534.501103   268.751368   223.537057

                             ****ORCA TERMINATED NORMALLY****
TOTAL RUN TIME: 0 days 0 hours 0 minutes 30 seconds 512 msec
