                         Program Version 4.2.1 -  RELEASE  -
|  1> ! wB97X-D3 SP def2-SVP
|  2> %pal
|  3> nprocs 16
|  4> end
|  5>
|  6> * xyz 0 1
|  7> S 	 5.67398 	 -7.74365 	 74.9107
|  8> C 	 4.06544 	 -7.51658 	 75.5562
|  9> C 	 3.41443 	 -8.69921 	 75.5607
| 10> C 	 4.15705 	 -9.80933 	 75.1368
| 11> C 	 5.36398 	 -9.45097 	 74.5765
| 12> H 	 3.74521 	 -10.8131 	 75.0131
| 13> C 	 2.05173 	 -8.84311 	 76.1408
| 14> H 	 1.94355 	 -8.04744 	 76.854
| 15> H 	 1.97927 	 -9.83838 	 76.6064
| 16> C 	 0.969495 	 -8.7127 	 75.0053
| 17> H 	 1.20887 	 -7.82771 	 74.4219
| 18> H 	 1.06865 	 -9.55417 	 74.2518
| 19> C 	 -0.47697 	 -8.73888 	 75.5404
| 20> H 	 -1.23821 	 -8.79857 	 74.7285
| 21> H 	 -0.669756 	 -9.62388 	 76.1652
| 22> H 	 -0.671984 	 -7.88893 	 76.1551
| 23> S 	 7.37168 	 -9.35986 	 72.6812
| 24> C 	 7.96585 	 -10.8687 	 72.0325
| 25> C 	 7.49845 	 -11.9974 	 72.6749
| 26> C 	 6.4857 	 -11.6121 	 73.6441
| 27> C 	 6.3022 	 -10.2208 	 73.802
| 28> H 	 7.90088 	 -12.9928 	 72.3615
| 29> C 	 5.80419 	 -12.7332 	 74.3068
| 30> H 	 6.20681 	 -13.7051 	 74.0877
| 31> H 	 4.7984 	 -12.8366 	 73.8797
| 32> C 	 5.75414 	 -12.5725 	 75.872
| 33> H 	 5.34668 	 -11.7253 	 76.2868
| 34> H 	 6.75991 	 -12.6406 	 76.3832
| 35> C 	 4.8905 	 -13.7321 	 76.4833
| 36> H 	 3.90083 	 -13.5513 	 76.039
| 37> H 	 4.65523 	 -13.5854 	 77.5711
| 38> H 	 5.24171 	 -14.7653 	 76.1607
| 39> H 	 3.64705 	 -6.66956 	 76.1815
| 40> H 	 8.82417 	 -11.0321 	 71.3831
| 41> *
| 42>
| 43>                          ****END OF INPUT****

CARTESIAN COORDINATES (ANGSTROEM)
---------------------------------
  S      5.673980   -7.743650   74.910700
  C      4.065440   -7.516580   75.556200
  C      3.414430   -8.699210   75.560700
  C      4.157050   -9.809330   75.136800
  C      5.363980   -9.450970   74.576500
  H      3.745210  -10.813100   75.013100
  C      2.051730   -8.843110   76.140800
  H      1.943550   -8.047440   76.854000
  H      1.979270   -9.838380   76.606400
  C      0.969495   -8.712700   75.005300
  H      1.208870   -7.827710   74.421900
  H      1.068650   -9.554170   74.251800
  C     -0.476970   -8.738880   75.540400
  H     -1.238210   -8.798570   74.728500
  H     -0.669756   -9.623880   76.165200
  H     -0.671984   -7.888930   76.155100
  S      7.371680   -9.359860   72.681200
  C      7.965850  -10.868700   72.032500
  C      7.498450  -11.997400   72.674900
  C      6.485700  -11.612100   73.644100
  C      6.302200  -10.220800   73.802000
  H      7.900880  -12.992800   72.361500
  C      5.804190  -12.733200   74.306800
  H      6.206810  -13.705100   74.087700
  H      4.798400  -12.836600   73.879700
  C      5.754140  -12.572500   75.872000
  H      5.346680  -11.725300   76.286800
  H      6.759910  -12.640600   76.383200
  C      4.890500  -13.732100   76.483300
  H      3.900830  -13.551300   76.039000
  H      4.655230  -13.585400   77.571100
  H      5.241710  -14.765300   76.160700
  H      3.647050   -6.669560   76.181500
  H      8.824170  -11.032100   71.383100

 Total Charge           Charge          ....    0
 Multiplicity           Mult            ....    1
 Number of Electrons    NEL             ....  134
 Basis Dimension        Dim             ....  322

ORBITAL ENERGIES
----------------

  NO   OCC          E(Eh)            E(eV)
   0   2.0000     -88.970139     -2421.0006
   1   2.0000     -88.966173     -2420.8927
   2   2.0000     -10.334815      -281.2246
   3   2.0000     -10.333484      -281.1884
   4   2.0000     -10.317761      -280.7605
   5   2.0000     -10.312039      -280.6048
   6   2.0000     -10.309367      -280.5321
   7   2.0000     -10.300074      -280.2793
   8   2.0000     -10.295019      -280.1417
   9   2.0000     -10.292511      -280.0735
  10   2.0000     -10.291796      -280.0540
  11   2.0000     -10.291126      -280.0358
  12   2.0000     -10.290846      -280.0282
  13   2.0000     -10.286459      -279.9088
  14   2.0000     -10.284772      -279.8629
  15   2.0000     -10.280139      -279.7368
  16   2.0000      -8.084317      -219.9855
  17   2.0000      -8.080681      -219.8865
  18   2.0000      -6.043036      -164.4394
  19   2.0000      -6.039331      -164.3385
  20   2.0000      -6.038902      -164.3269
  21   2.0000      -6.035272      -164.2281
  22   2.0000      -6.034887      -164.2176
  23   2.0000      -6.031245      -164.1185
  24   2.0000      -1.010798       -27.5052
  25   2.0000      -0.986528       -26.8448
  26   2.0000      -0.911714       -24.8090
  27   2.0000      -0.908391       -24.7186
  28   2.0000      -0.871520       -23.7153
  29   2.0000      -0.850707       -23.1489
  30   2.0000      -0.846583       -23.0367
  31   2.0000      -0.820034       -22.3143
  32   2.0000      -0.779885       -21.2217
  33   2.0000      -0.766269       -20.8512
  34   2.0000      -0.712304       -19.3828
  35   2.0000      -0.700700       -19.0670
  36   2.0000      -0.695478       -18.9249
  37   2.0000      -0.661617       -18.0035
  38   2.0000      -0.633989       -17.2517
  39   2.0000      -0.624645       -16.9974
  40   2.0000      -0.596267       -16.2252
  41   2.0000      -0.570244       -15.5171
  42   2.0000      -0.562914       -15.3177
  43   2.0000      -0.555164       -15.1068
  44   2.0000      -0.529767       -14.4157
  45   2.0000      -0.520605       -14.1664
  46   2.0000      -0.515780       -14.0351
  47   2.0000      -0.506245       -13.7756
  48   2.0000      -0.502944       -13.6858
  49   2.0000      -0.500166       -13.6102
  50   2.0000      -0.494426       -13.4540
  51   2.0000      -0.493163       -13.4196
  52   2.0000      -0.472792       -12.8653
  53   2.0000      -0.465976       -12.6799
  54   2.0000      -0.457676       -12.4540
  55   2.0000      -0.453824       -12.3492
  56   2.0000      -0.442670       -12.0457
  57   2.0000      -0.433417       -11.7939
  58   2.0000      -0.431207       -11.7337
  59   2.0000      -0.421661       -11.4740
  60   2.0000      -0.419221       -11.4076
  61   2.0000      -0.416614       -11.3367
  62   2.0000      -0.411926       -11.2091
  63   2.0000      -0.363774        -9.8988
  64   2.0000      -0.334565        -9.1040
  65   2.0000      -0.328501        -8.9390
  66   2.0000      -0.281259        -7.6534
  67   0.0000       0.015430         0.4199
  68   0.0000       0.077619         2.1121
  69   0.0000       0.101317         2.7570
  70   0.0000       0.117251         3.1906
  71   0.0000       0.131460         3.5772

MULLIKEN ATOMIC CHARGES
-----------------------
   0 S :    0.094680
   1 C :   -0.122894
   2 C :   -0.119380
   3 C :    0.012660
   4 C :   -0.124266
   5 H :    0.013848
   6 C :    0.076456
   7 H :    0.012783
   8 H :    0.026268
   9 C :   -0.101373
  10 H :    0.030797
  11 H :    0.032702
  12 C :   -0.029012
  13 H :    0.040076
  14 H :    0.026701
  15 H :    0.026023
  16 S :    0.107419
  17 C :   -0.074562
  18 C :   -0.066286
  19 C :   -0.043294
  20 C :   -0.097092
  21 H :    0.042746
  22 C :    0.066150
  23 H :    0.009806
  24 H :    0.034670
  25 C :   -0.078358
  26 H :    0.020087
  27 H :    0.040063
  28 C :   -0.085530
  29 H :    0.011753
  30 H :    0.045663
  31 H :    0.045356
  32 H :    0.069312
  33 H :    0.056027
Sum of atomic charges:   -0.0000000

LOEWDIN ATOMIC CHARGES
----------------------
   0 S :    0.393104
   1 C :   -0.216601
   2 C :   -0.070366
   3 C :   -0.072579
   4 C :   -0.169371
   5 H :    0.033030
   6 C :   -0.024679
   7 H :    0.023973
   8 H :    0.030978
   9 C :   -0.040938
  10 H :    0.022680
  11 H :    0.028130
  12 C :   -0.069600
  13 H :    0.030777
  14 H :    0.026085
  15 H :    0.019162
  16 S :    0.401101
  17 C :   -0.187163
  18 C :   -0.075052
  19 C :   -0.048755
  20 C :   -0.195798
  21 H :    0.044338
  22 C :   -0.032692
  23 H :    0.030174
  24 H :    0.035243
  25 C :   -0.036413
  26 H :    0.009854
  27 H :    0.031521
  28 C :   -0.077972
  29 H :    0.017804
  30 H :    0.031500
  31 H :    0.028457
  32 H :    0.047559
  33 H :    0.032507

  Mayer bond orders larger than 0.100000
B(  0-S ,  1-C ) :   1.1088 B(  0-S ,  4-C ) :   1.1495 B(  1-C ,  2-C ) :   1.6310
B(  1-C , 32-H ) :   0.9538 B(  2-C ,  3-C ) :   1.2676 B(  2-C ,  6-C ) :   1.0313
B(  3-C ,  4-C ) :   1.5479 B(  3-C ,  5-H ) :   0.9801 B(  4-C , 20-C ) :   1.1023
B(  6-C ,  7-H ) :   0.9421 B(  6-C ,  8-H ) :   0.9397 B(  6-C ,  9-C ) :   1.0502
B(  9-C , 10-H ) :   0.9584 B(  9-C , 11-H ) :   0.9586 B(  9-C , 12-C ) :   1.0765
B( 12-C , 13-H ) :   0.9749 B( 12-C , 14-H ) :   0.9726 B( 12-C , 15-H ) :   0.9760
B( 16-S , 17-C ) :   1.1540 B( 16-S , 20-C ) :   1.1110 B( 17-C , 18-C ) :   1.6398
B( 17-C , 33-H ) :   0.9554 B( 18-C , 19-C ) :   1.2346 B( 18-C , 21-H ) :   0.9813
B( 19-C , 20-C ) :   1.5690 B( 19-C , 22-C ) :   1.0601 B( 22-C , 23-H ) :   0.9336
B( 22-C , 24-H ) :   0.9248 B( 22-C , 25-C ) :   1.0441 B( 25-C , 26-H ) :   0.9596
B( 25-C , 27-H ) :   0.9558 B( 25-C , 28-C ) :   1.0751 B( 28-C , 29-H ) :   0.9740
B( 28-C , 30-H ) :   0.9732 B( 28-C , 31-H ) :   0.9746

Dispersion correction           -0.014250375
FINAL SINGLE POINT ENERGY     -1339.867314829195

DIPOLE MOMENT
-------------
                                X             Y             Z
Electronic contribution:     23.71229      15.15786     -12.01985
Nuclear contribution   :    -24.07372     -15.71551      12.16205
                        -----------------------------------------
Total Dipole Moment    :     -0.36143      -0.55766       0.14220
                        -----------------------------------------
Magnitude (a.u.)       :      0.67958
Magnitude (Debye)      :      1.72736

Rotational constants in cm-1:     0.018313     0.008855     0.006808
Rotational constants in MHz :   549.006671   265.459651   204.100987

                             ****ORCA TERMINATED NORMALLY****
TOTAL RUN TIME: 0 days 0 hours 0 minutes 30 seconds 934 msec
