                         Program Version 4.2.1 -  RELEASE  -
|  1> ! wB97X-D3 SP def2-SVP
|  2> %pal
|  3> nprocs 16
|  4> end
|  5>
|  6> * xyz 0 1
|  7> S 	 -35.4749 	 24.2561 	 76.9219
|  8> C 	 -34.3773 	 25.583 	 76.7167
|  9> C 	 -35.018 	 26.7288 	 76.2659
| 10> C 	 -36.4249 	 26.5389 	 76.1356
| 11> C 	 -36.8529 	 25.2812 	 76.4968
| 12> H 	 -37.1053 	 27.3315 	 75.7728
| 13> C 	 -34.2636 	 28.0719 	 75.927
| 14> H 	 -33.2624 	 27.9276 	 76.2827
| 15> H 	 -34.6504 	 28.9413 	 76.5235
| 16> C 	 -34.1968 	 28.4536 	 74.4655
| 17> H 	 -33.7093 	 27.7347 	 73.8425
| 18> H 	 -35.1874 	 28.6588 	 74.0216
| 19> C 	 -33.43 	 29.777 	 74.2479
| 20> H 	 -32.3768 	 29.6151 	 74.5391
| 21> H 	 -33.6757 	 30.1219 	 73.2171
| 22> H 	 -33.6815 	 30.5902 	 74.9072
| 23> S 	 -38.5441 	 23.9246 	 78.1808
| 24> C 	 -40.2358 	 23.7946 	 77.8946
| 25> C 	 -40.4912 	 24.3437 	 76.6159
| 26> C 	 -39.3968 	 25.0739 	 76.0668
| 27> C 	 -38.2239 	 24.8121 	 76.7629
| 28> H 	 -41.4638 	 24.3864 	 76.2137
| 29> C 	 -39.5343 	 25.7147 	 74.6993
| 30> H 	 -39.7539 	 25.0007 	 73.9895
| 31> H 	 -38.5122 	 26.0306 	 74.3358
| 32> C 	 -40.5038 	 26.8897 	 74.4919
| 33> H 	 -41.5474 	 26.5286 	 74.4396
| 34> H 	 -40.3471 	 27.2539 	 73.4499
| 35> C 	 -40.2652 	 28.045 	 75.4898
| 36> H 	 -40.7711 	 27.8969 	 76.4411
| 37> H 	 -40.6124 	 28.9792 	 75.1331
| 38> H 	 -39.241 	 28.2204 	 75.7813
| 39> H 	 -33.3054 	 25.5667 	 76.837
| 40> H 	 -41.0027 	 23.2911 	 78.5105
| 41> *
| 42>
| 43>                          ****END OF INPUT****

CARTESIAN COORDINATES (ANGSTROEM)
---------------------------------
  S    -35.474900   24.256100   76.921900
  C    -34.377300   25.583000   76.716700
  C    -35.018000   26.728800   76.265900
  C    -36.424900   26.538900   76.135600
  C    -36.852900   25.281200   76.496800
  H    -37.105300   27.331500   75.772800
  C    -34.263600   28.071900   75.927000
  H    -33.262400   27.927600   76.282700
  H    -34.650400   28.941300   76.523500
  C    -34.196800   28.453600   74.465500
  H    -33.709300   27.734700   73.842500
  H    -35.187400   28.658800   74.021600
  C    -33.430000   29.777000   74.247900
  H    -32.376800   29.615100   74.539100
  H    -33.675700   30.121900   73.217100
  H    -33.681500   30.590200   74.907200
  S    -38.544100   23.924600   78.180800
  C    -40.235800   23.794600   77.894600
  C    -40.491200   24.343700   76.615900
  C    -39.396800   25.073900   76.066800
  C    -38.223900   24.812100   76.762900
  H    -41.463800   24.386400   76.213700
  C    -39.534300   25.714700   74.699300
  H    -39.753900   25.000700   73.989500
  H    -38.512200   26.030600   74.335800
  C    -40.503800   26.889700   74.491900
  H    -41.547400   26.528600   74.439600
  H    -40.347100   27.253900   73.449900
  C    -40.265200   28.045000   75.489800
  H    -40.771100   27.896900   76.441100
  H    -40.612400   28.979200   75.133100
  H    -39.241000   28.220400   75.781300
  H    -33.305400   25.566700   76.837000
  H    -41.002700   23.291100   78.510500

 Total Charge           Charge          ....    0
 Multiplicity           Mult            ....    1
 Number of Electrons    NEL             ....  134
 Basis Dimension        Dim             ....  322

ORBITAL ENERGIES
----------------

  NO   OCC          E(Eh)            E(eV)
   0   2.0000     -88.968843     -2420.9653
   1   2.0000     -88.967707     -2420.9344
   2   2.0000     -10.332932      -281.1734
   3   2.0000     -10.325646      -280.9751
   4   2.0000     -10.319866      -280.8178
   5   2.0000     -10.313258      -280.6380
   6   2.0000     -10.303445      -280.3710
   7   2.0000     -10.300065      -280.2790
   8   2.0000     -10.298503      -280.2365
   9   2.0000     -10.296068      -280.1703
  10   2.0000     -10.293339      -280.0960
  11   2.0000     -10.291189      -280.0375
  12   2.0000     -10.286661      -279.9143
  13   2.0000     -10.285820      -279.8914
  14   2.0000     -10.281148      -279.7643
  15   2.0000     -10.272467      -279.5280
  16   2.0000      -8.083362      -219.9594
  17   2.0000      -8.083328      -219.9585
  18   2.0000      -6.041909      -164.4087
  19   2.0000      -6.041767      -164.4048
  20   2.0000      -6.037882      -164.2991
  21   2.0000      -6.037492      -164.2885
  22   2.0000      -6.034362      -164.2033
  23   2.0000      -6.034062      -164.1952
  24   2.0000      -1.011098       -27.5134
  25   2.0000      -0.986633       -26.8477
  26   2.0000      -0.909961       -24.7613
  27   2.0000      -0.907600       -24.6971
  28   2.0000      -0.868117       -23.6227
  29   2.0000      -0.851279       -23.1645
  30   2.0000      -0.844542       -22.9812
  31   2.0000      -0.813601       -22.1392
  32   2.0000      -0.786114       -21.3913
  33   2.0000      -0.772661       -21.0252
  34   2.0000      -0.708547       -19.2806
  35   2.0000      -0.698453       -19.0059
  36   2.0000      -0.693024       -18.8581
  37   2.0000      -0.662413       -18.0252
  38   2.0000      -0.638552       -17.3759
  39   2.0000      -0.622108       -16.9284
  40   2.0000      -0.595045       -16.1920
  41   2.0000      -0.569522       -15.4975
  42   2.0000      -0.563207       -15.3256
  43   2.0000      -0.554179       -15.0800
  44   2.0000      -0.539682       -14.6855
  45   2.0000      -0.529322       -14.4036
  46   2.0000      -0.516622       -14.0580
  47   2.0000      -0.506029       -13.7698
  48   2.0000      -0.503396       -13.6981
  49   2.0000      -0.497467       -13.5368
  50   2.0000      -0.491042       -13.3619
  51   2.0000      -0.482495       -13.1293
  52   2.0000      -0.469350       -12.7717
  53   2.0000      -0.463535       -12.6134
  54   2.0000      -0.459813       -12.5121
  55   2.0000      -0.450182       -12.2501
  56   2.0000      -0.446429       -12.1479
  57   2.0000      -0.441510       -12.0141
  58   2.0000      -0.437086       -11.8937
  59   2.0000      -0.425413       -11.5761
  60   2.0000      -0.420033       -11.4297
  61   2.0000      -0.412263       -11.2182
  62   2.0000      -0.408871       -11.1259
  63   2.0000      -0.354484        -9.6460
  64   2.0000      -0.332793        -9.0558
  65   2.0000      -0.330563        -8.9951
  66   2.0000      -0.287554        -7.8247
  67   0.0000       0.029446         0.8013
  68   0.0000       0.075190         2.0460
  69   0.0000       0.116392         3.1672
  70   0.0000       0.118627         3.2280
  71   0.0000       0.129181         3.5152

MULLIKEN ATOMIC CHARGES
-----------------------
   0 S :    0.110776
   1 C :   -0.114765
   2 C :   -0.093830
   3 C :    0.030192
   4 C :   -0.147063
   5 H :    0.013873
   6 C :    0.062959
   7 H :    0.003195
   8 H :    0.041014
   9 C :   -0.063964
  10 H :    0.030973
  11 H :    0.028058
  12 C :   -0.065787
  13 H :    0.030425
  14 H :    0.046963
  15 H :    0.018401
  16 S :    0.127652
  17 C :   -0.114339
  18 C :   -0.017193
  19 C :   -0.035093
  20 C :   -0.125798
  21 H :    0.003825
  22 C :    0.044916
  23 H :    0.015460
  24 H :    0.019947
  25 C :   -0.077385
  26 H :    0.031544
  27 H :    0.030389
  28 C :   -0.021633
  29 H :    0.034704
  30 H :    0.019308
  31 H :    0.014578
  32 H :    0.043049
  33 H :    0.074651
Sum of atomic charges:   -0.0000000

LOEWDIN ATOMIC CHARGES
----------------------
   0 S :    0.404433
   1 C :   -0.203282
   2 C :   -0.062512
   3 C :   -0.066742
   4 C :   -0.180954
   5 H :    0.033300
   6 C :   -0.029991
   7 H :    0.023588
   8 H :    0.037062
   9 C :   -0.041708
  10 H :    0.023678
  11 H :    0.023603
  12 C :   -0.069566
  13 H :    0.026094
  14 H :    0.033606
  15 H :    0.018504
  16 S :    0.448445
  17 C :   -0.209616
  18 C :   -0.062230
  19 C :   -0.062827
  20 C :   -0.214987
  21 H :    0.020527
  22 C :   -0.034176
  23 H :    0.023723
  24 H :    0.034277
  25 C :   -0.040742
  26 H :    0.023661
  27 H :    0.029573
  28 C :   -0.065816
  29 H :    0.030408
  30 H :    0.020621
  31 H :    0.022175
  32 H :    0.027552
  33 H :    0.040321

  Mayer bond orders larger than 0.100000
B(  0-S ,  1-C ) :   1.1377 B(  0-S ,  4-C ) :   1.1486 B(  1-C ,  2-C ) :   1.6207
B(  1-C , 32-H ) :   0.9626 B(  2-C ,  3-C ) :   1.2617 B(  2-C ,  6-C ) :   1.0141
B(  3-C ,  4-C ) :   1.5646 B(  3-C ,  5-H ) :   0.9838 B(  4-C , 20-C ) :   1.0292
B(  6-C ,  7-H ) :   0.9397 B(  6-C ,  8-H ) :   0.9433 B(  6-C ,  9-C ) :   1.0693
B(  9-C , 10-H ) :   0.9543 B(  9-C , 11-H ) :   0.9578 B(  9-C , 12-C ) :   1.0769
B( 12-C , 13-H ) :   0.9746 B( 12-C , 14-H ) :   0.9757 B( 12-C , 15-H ) :   0.9746
B( 16-S , 17-C ) :   1.1722 B( 16-S , 20-C ) :   1.1728 B( 17-C , 18-C ) :   1.5542
B( 17-C , 20-C ) :   0.1031 B( 17-C , 33-H ) :   0.9688 B( 18-C , 19-C ) :   1.2860
B( 18-C , 21-H ) :   0.9918 B( 19-C , 20-C ) :   1.5476 B( 19-C , 22-C ) :   1.0391
B( 22-C , 23-H ) :   0.9368 B( 22-C , 24-H ) :   0.9365 B( 22-C , 25-C ) :   1.0823
B( 25-C , 26-H ) :   0.9557 B( 25-C , 27-H ) :   0.9562 B( 25-C , 28-C ) :   1.0631
B( 28-C , 29-H ) :   0.9690 B( 28-C , 30-H ) :   0.9734 B( 28-C , 31-H ) :   0.9785

Dispersion correction           -0.014218253
FINAL SINGLE POINT ENERGY     -1339.883239876698

DIPOLE MOMENT
-------------
                                X             Y             Z
Electronic contribution:     -0.74206     -26.39930      16.99183
Nuclear contribution   :      0.58974      26.91342     -17.36264
                        -----------------------------------------
Total Dipole Moment    :     -0.15232       0.51412      -0.37081
                        -----------------------------------------
Magnitude (a.u.)       :      0.65194
Magnitude (Debye)      :      1.65709

Rotational constants in cm-1:     0.018940     0.008725     0.006360
Rotational constants in MHz :   567.806111   261.569214   190.664694

                             ****ORCA TERMINATED NORMALLY****
TOTAL RUN TIME: 0 days 0 hours 0 minutes 28 seconds 514 msec
