                         Program Version 4.2.1 -  RELEASE  -
|  1> ! wB97X-D3 SP def2-SVP
|  2> %pal
|  3> nprocs 16
|  4> end
|  5>
|  6> * xyz 0 1
|  7> S 	 -53.3085 	 31.8552 	 90.5986
|  8> C 	 -54.9146 	 31.3121 	 90.7942
|  9> C 	 -55.7573 	 32.3241 	 91.1197
| 10> C 	 -55.0597 	 33.5871 	 91.1807
| 11> C 	 -53.7344 	 33.5325 	 90.7282
| 12> H 	 -55.5024 	 34.5479 	 91.3854
| 13> C 	 -57.195 	 32.0748 	 91.4391
| 14> H 	 -57.2274 	 30.9769 	 91.2326
| 15> H 	 -57.7438 	 32.5199 	 90.6068
| 16> C 	 -57.7153 	 32.4064 	 92.8657
| 17> H 	 -57.7146 	 33.4634 	 92.9791
| 18> H 	 -58.7554 	 32.0641 	 92.9579
| 19> C 	 -56.9146 	 31.6822 	 93.9441
| 20> H 	 -57.3296 	 31.6989 	 94.9791
| 21> H 	 -56.6089 	 30.6381 	 93.6215
| 22> H 	 -55.9439 	 32.2525 	 94.0221
| 23> S 	 -51.0314 	 34.3402 	 91.1931
| 24> C 	 -50.6547 	 36.075 	 91.0378
| 25> C 	 -51.7885 	 36.7549 	 90.5092
| 26> C 	 -52.978 	 35.9824 	 90.3829
| 27> C 	 -52.7496 	 34.6286 	 90.6522
| 28> H 	 -51.7187 	 37.8729 	 90.507
| 29> C 	 -54.3199 	 36.6467 	 90.1575
| 30> H 	 -55.0387 	 35.9185 	 89.7797
| 31> H 	 -54.3341 	 37.3912 	 89.3295
| 32> C 	 -54.9422 	 37.3519 	 91.3568
| 33> H 	 -54.3362 	 38.2561 	 91.5153
| 34> H 	 -55.0382 	 36.705 	 92.1953
| 35> C 	 -56.3346 	 37.8613 	 91.1412
| 36> H 	 -56.9656 	 37.8947 	 92.0678
| 37> H 	 -56.9475 	 37.1306 	 90.5151
| 38> H 	 -56.1866 	 38.8261 	 90.7159
| 39> H 	 -55.0376 	 30.2068 	 90.7083
| 40> H 	 -49.7346 	 36.5494 	 91.2847
| 41> *
| 42>
| 43>                          ****END OF INPUT****

CARTESIAN COORDINATES (ANGSTROEM)
---------------------------------
  S    -53.308500   31.855200   90.598600
  C    -54.914600   31.312100   90.794200
  C    -55.757300   32.324100   91.119700
  C    -55.059700   33.587100   91.180700
  C    -53.734400   33.532500   90.728200
  H    -55.502400   34.547900   91.385400
  C    -57.195000   32.074800   91.439100
  H    -57.227400   30.976900   91.232600
  H    -57.743800   32.519900   90.606800
  C    -57.715300   32.406400   92.865700
  H    -57.714600   33.463400   92.979100
  H    -58.755400   32.064100   92.957900
  C    -56.914600   31.682200   93.944100
  H    -57.329600   31.698900   94.979100
  H    -56.608900   30.638100   93.621500
  H    -55.943900   32.252500   94.022100
  S    -51.031400   34.340200   91.193100
  C    -50.654700   36.075000   91.037800
  C    -51.788500   36.754900   90.509200
  C    -52.978000   35.982400   90.382900
  C    -52.749600   34.628600   90.652200
  H    -51.718700   37.872900   90.507000
  C    -54.319900   36.646700   90.157500
  H    -55.038700   35.918500   89.779700
  H    -54.334100   37.391200   89.329500
  C    -54.942200   37.351900   91.356800
  H    -54.336200   38.256100   91.515300
  H    -55.038200   36.705000   92.195300
  C    -56.334600   37.861300   91.141200
  H    -56.965600   37.894700   92.067800
  H    -56.947500   37.130600   90.515100
  H    -56.186600   38.826100   90.715900
  H    -55.037600   30.206800   90.708300
  H    -49.734600   36.549400   91.284700

 Total Charge           Charge          ....    0
 Multiplicity           Mult            ....    1
 Number of Electrons    NEL             ....  134
 Basis Dimension        Dim             ....  322

ORBITAL ENERGIES
----------------

  NO   OCC          E(Eh)            E(eV)
   0   2.0000     -88.971334     -2421.0331
   1   2.0000     -88.961244     -2420.7585
   2   2.0000     -10.339279      -281.3461
   3   2.0000     -10.333426      -281.1868
   4   2.0000     -10.326593      -281.0009
   5   2.0000     -10.312749      -280.6242
   6   2.0000     -10.310187      -280.5545
   7   2.0000     -10.303246      -280.3656
   8   2.0000     -10.300239      -280.2837
   9   2.0000     -10.296761      -280.1891
  10   2.0000     -10.296235      -280.1748
  11   2.0000     -10.294464      -280.1266
  12   2.0000     -10.290415      -280.0164
  13   2.0000     -10.285899      -279.8935
  14   2.0000     -10.284155      -279.8461
  15   2.0000     -10.283912      -279.8395
  16   2.0000      -8.084143      -219.9807
  17   2.0000      -8.077534      -219.8009
  18   2.0000      -6.042874      -164.4350
  19   2.0000      -6.038930      -164.3276
  20   2.0000      -6.035989      -164.2476
  21   2.0000      -6.034766      -164.2143
  22   2.0000      -6.031790      -164.1333
  23   2.0000      -6.028308      -164.0386
  24   2.0000      -1.007624       -27.4188
  25   2.0000      -0.979836       -26.6627
  26   2.0000      -0.917597       -24.9691
  27   2.0000      -0.912664       -24.8349
  28   2.0000      -0.868294       -23.6275
  29   2.0000      -0.856061       -23.2946
  30   2.0000      -0.844170       -22.9710
  31   2.0000      -0.812562       -22.1109
  32   2.0000      -0.783403       -21.3175
  33   2.0000      -0.770160       -20.9571
  34   2.0000      -0.710221       -19.3261
  35   2.0000      -0.693936       -18.8830
  36   2.0000      -0.693010       -18.8578
  37   2.0000      -0.659966       -17.9586
  38   2.0000      -0.642435       -17.4815
  39   2.0000      -0.620049       -16.8724
  40   2.0000      -0.597113       -16.2483
  41   2.0000      -0.588350       -16.0098
  42   2.0000      -0.559551       -15.2261
  43   2.0000      -0.556249       -15.1363
  44   2.0000      -0.542490       -14.7619
  45   2.0000      -0.523494       -14.2450
  46   2.0000      -0.518838       -14.1183
  47   2.0000      -0.513578       -13.9752
  48   2.0000      -0.504334       -13.7236
  49   2.0000      -0.497563       -13.5394
  50   2.0000      -0.488676       -13.2975
  51   2.0000      -0.486129       -13.2282
  52   2.0000      -0.469698       -12.7811
  53   2.0000      -0.465751       -12.6737
  54   2.0000      -0.452626       -12.3166
  55   2.0000      -0.449126       -12.2213
  56   2.0000      -0.441295       -12.0082
  57   2.0000      -0.435759       -11.8576
  58   2.0000      -0.432923       -11.7804
  59   2.0000      -0.423222       -11.5165
  60   2.0000      -0.418903       -11.3989
  61   2.0000      -0.416812       -11.3420
  62   2.0000      -0.411269       -11.1912
  63   2.0000      -0.357297        -9.7226
  64   2.0000      -0.334952        -9.1145
  65   2.0000      -0.327430        -8.9098
  66   2.0000      -0.286139        -7.7862
  67   0.0000       0.019689         0.5358
  68   0.0000       0.073378         1.9967
  69   0.0000       0.101352         2.7579
  70   0.0000       0.120831         3.2880
  71   0.0000       0.123218         3.3529

MULLIKEN ATOMIC CHARGES
-----------------------
   0 S :    0.094767
   1 C :   -0.150212
   2 C :   -0.099414
   3 C :    0.027091
   4 C :   -0.146411
   5 H :   -0.014340
   6 C :    0.059898
   7 H :    0.013922
   8 H :    0.040408
   9 C :   -0.030876
  10 H :    0.027219
  11 H :    0.035964
  12 C :   -0.097215
  13 H :    0.049633
  14 H :    0.040052
  15 H :    0.043888
  16 S :    0.097759
  17 C :   -0.100589
  18 C :   -0.043535
  19 C :   -0.010370
  20 C :   -0.113519
  21 H :    0.039219
  22 C :    0.016641
  23 H :    0.018633
  24 H :    0.026365
  25 C :   -0.051523
  26 H :    0.029836
  27 H :    0.027840
  28 C :   -0.069140
  29 H :    0.043684
  30 H :    0.031222
  31 H :    0.034806
  32 H :    0.071711
  33 H :    0.056586
Sum of atomic charges:    0.0000000

LOEWDIN ATOMIC CHARGES
----------------------
   0 S :    0.420561
   1 C :   -0.212143
   2 C :   -0.073058
   3 C :   -0.067146
   4 C :   -0.191401
   5 H :    0.023346
   6 C :   -0.033835
   7 H :    0.033336
   8 H :    0.034202
   9 C :   -0.038523
  10 H :    0.019016
  11 H :    0.028113
  12 C :   -0.077633
  13 H :    0.030330
  14 H :    0.030922
  15 H :    0.033097
  16 S :    0.367763
  17 C :   -0.171679
  18 C :   -0.072528
  19 C :   -0.054025
  20 C :   -0.170742
  21 H :    0.037770
  22 C :   -0.038237
  23 H :    0.025639
  24 H :    0.034535
  25 C :   -0.042113
  26 H :    0.027940
  27 H :    0.017682
  28 C :   -0.068715
  29 H :    0.033584
  30 H :    0.028415
  31 H :    0.022372
  32 H :    0.036583
  33 H :    0.026572

  Mayer bond orders larger than 0.100000
B(  0-S ,  1-C ) :   1.1560 B(  0-S ,  4-C ) :   1.1654 B(  1-C ,  2-C ) :   1.5936
B(  1-C , 32-H ) :   0.9613 B(  2-C ,  3-C ) :   1.2430 B(  2-C ,  6-C ) :   1.0143
B(  3-C ,  4-C ) :   1.5390 B(  3-C ,  5-H ) :   0.9936 B(  4-C , 20-C ) :   1.0677
B(  6-C ,  7-H ) :   0.9414 B(  6-C ,  8-H ) :   0.9335 B(  6-C ,  9-C ) :   1.0642
B(  9-C , 10-H ) :   0.9577 B(  9-C , 11-H ) :   0.9566 B(  9-C , 12-C ) :   1.0656
B( 12-C , 13-H ) :   0.9752 B( 12-C , 14-H ) :   0.9761 B( 12-C , 15-H ) :   0.9709
B( 16-S , 17-C ) :   1.1459 B( 16-S , 20-C ) :   1.1219 B( 17-C , 18-C ) :   1.6097
B( 17-C , 20-C ) :   0.1062 B( 17-C , 33-H ) :   0.9719 B( 18-C , 19-C ) :   1.2416
B( 18-C , 21-H ) :   0.9773 B( 19-C , 20-C ) :   1.5951 B( 19-C , 22-C ) :   1.0544
B( 22-C , 23-H ) :   0.9266 B( 22-C , 24-H ) :   0.9326 B( 22-C , 25-C ) :   1.0688
B( 25-C , 26-H ) :   0.9568 B( 25-C , 27-H ) :   0.9533 B( 25-C , 28-C ) :   1.0757
B( 28-C , 29-H ) :   0.9761 B( 28-C , 30-H ) :   0.9708 B( 28-C , 31-H ) :   0.9806

Dispersion correction           -0.014624464
FINAL SINGLE POINT ENERGY     -1339.870805641943

DIPOLE MOMENT
-------------
                                X             Y             Z
Electronic contribution:     26.37563      -9.72103      -8.32459
Nuclear contribution   :    -26.93564      10.15956       8.57966
                        -----------------------------------------
Total Dipole Moment    :     -0.56001       0.43853       0.25506
                        -----------------------------------------
Magnitude (a.u.)       :      0.75563
Magnitude (Debye)      :      1.92065

Rotational constants in cm-1:     0.017276     0.009730     0.006950
Rotational constants in MHz :   517.922263   291.685455   208.348609

                             ****ORCA TERMINATED NORMALLY****
TOTAL RUN TIME: 0 days 0 hours 0 minutes 32 seconds 450 msec
