                         Program Version 4.2.1 -  RELEASE  -
|  1> ! wB97X-D3 SP def2-SVP
|  2> %pal
|  3> nprocs 16
|  4> end
|  5>
|  6> * xyz 0 1
|  7> S 	 -112.08 	 41.6095 	 132.259
|  8> C 	 -111.28 	 40.9894 	 133.677
|  9> C 	 -110.245 	 41.8398 	 134.078
| 10> C 	 -109.976 	 42.8453 	 133.119
| 11> C 	 -110.948 	 42.8486 	 132.077
| 12> H 	 -109.236 	 43.6735 	 133.149
| 13> C 	 -109.32 	 41.7115 	 135.268
| 14> H 	 -108.265 	 41.6037 	 134.968
| 15> H 	 -109.65 	 40.7658 	 135.73
| 16> C 	 -109.466 	 42.8139 	 136.283
| 17> H 	 -108.724 	 42.9341 	 137.045
| 18> H 	 -109.427 	 43.7741 	 135.772
| 19> C 	 -110.818 	 42.6927 	 136.983
| 20> H 	 -111.117 	 43.5826 	 137.515
| 21> H 	 -111.616 	 42.3627 	 136.293
| 22> H 	 -110.705 	 41.8844 	 137.641
| 23> S 	 -109.587 	 43.749 	 129.873
| 24> C 	 -110.302 	 45.0391 	 128.996
| 25> C 	 -111.462 	 45.5184 	 129.481
| 26> C 	 -111.86 	 44.7689 	 130.687
| 27> C 	 -110.939 	 43.7948 	 131.026
| 28> H 	 -111.954 	 46.3102 	 128.934
| 29> C 	 -113.225 	 45.004 	 131.328
| 30> H 	 -113.38 	 46.1207 	 131.421
| 31> H 	 -113.226 	 44.5845 	 132.33
| 32> C 	 -114.439 	 44.4905 	 130.508
| 33> H 	 -114.299 	 43.4694 	 130.409
| 34> H 	 -114.382 	 44.9831 	 129.525
| 35> C 	 -115.829 	 44.7348 	 131.127
| 36> H 	 -116.628 	 44.7149 	 130.343
| 37> H 	 -116.003 	 45.6358 	 131.673
| 38> H 	 -116.051 	 43.9766 	 131.955
| 39> H 	 -111.516 	 40.1092 	 134.163
| 40> H 	 -109.932 	 45.3912 	 128.078
| 41> *
| 42>
| 43>                          ****END OF INPUT****

CARTESIAN COORDINATES (ANGSTROEM)
---------------------------------
  S    -112.080000   41.609500  132.259000
  C    -111.280000   40.989400  133.677000
  C    -110.245000   41.839800  134.078000
  C    -109.976000   42.845300  133.119000
  C    -110.948000   42.848600  132.077000
  H    -109.236000   43.673500  133.149000
  C    -109.320000   41.711500  135.268000
  H    -108.265000   41.603700  134.968000
  H    -109.650000   40.765800  135.730000
  C    -109.466000   42.813900  136.283000
  H    -108.724000   42.934100  137.045000
  H    -109.427000   43.774100  135.772000
  C    -110.818000   42.692700  136.983000
  H    -111.117000   43.582600  137.515000
  H    -111.616000   42.362700  136.293000
  H    -110.705000   41.884400  137.641000
  S    -109.587000   43.749000  129.873000
  C    -110.302000   45.039100  128.996000
  C    -111.462000   45.518400  129.481000
  C    -111.860000   44.768900  130.687000
  C    -110.939000   43.794800  131.026000
  H    -111.954000   46.310200  128.934000
  C    -113.225000   45.004000  131.328000
  H    -113.380000   46.120700  131.421000
  H    -113.226000   44.584500  132.330000
  C    -114.439000   44.490500  130.508000
  H    -114.299000   43.469400  130.409000
  H    -114.382000   44.983100  129.525000
  C    -115.829000   44.734800  131.127000
  H    -116.628000   44.714900  130.343000
  H    -116.003000   45.635800  131.673000
  H    -116.051000   43.976600  131.955000
  H    -111.516000   40.109200  134.163000
  H    -109.932000   45.391200  128.078000

 Total Charge           Charge          ....    0
 Multiplicity           Mult            ....    1
 Number of Electrons    NEL             ....  134
 Basis Dimension        Dim             ....  322

ORBITAL ENERGIES
----------------

  NO   OCC          E(Eh)            E(eV)
   0   2.0000     -88.973266     -2421.0857
   1   2.0000     -88.963572     -2420.8219
   2   2.0000     -10.323458      -280.9156
   3   2.0000     -10.322364      -280.8858
   4   2.0000     -10.311731      -280.5965
   5   2.0000     -10.306995      -280.4676
   6   2.0000     -10.306687      -280.4592
   7   2.0000     -10.302692      -280.3505
   8   2.0000     -10.295325      -280.1500
   9   2.0000     -10.293428      -280.0984
  10   2.0000     -10.292771      -280.0805
  11   2.0000     -10.291521      -280.0465
  12   2.0000     -10.283126      -279.8181
  13   2.0000     -10.282988      -279.8143
  14   2.0000     -10.279374      -279.7160
  15   2.0000     -10.266416      -279.3634
  16   2.0000      -8.088465      -220.0983
  17   2.0000      -8.078761      -219.8343
  18   2.0000      -6.046736      -164.5401
  19   2.0000      -6.042759      -164.4318
  20   2.0000      -6.039619      -164.3464
  21   2.0000      -6.037291      -164.2830
  22   2.0000      -6.033300      -164.1744
  23   2.0000      -6.029377      -164.0677
  24   2.0000      -1.011833       -27.5334
  25   2.0000      -0.986572       -26.8460
  26   2.0000      -0.920329       -25.0434
  27   2.0000      -0.903611       -24.5885
  28   2.0000      -0.875098       -23.8126
  29   2.0000      -0.851497       -23.1704
  30   2.0000      -0.845463       -23.0062
  31   2.0000      -0.811490       -22.0818
  32   2.0000      -0.783156       -21.3108
  33   2.0000      -0.771815       -21.0021
  34   2.0000      -0.712930       -19.3998
  35   2.0000      -0.700706       -19.0672
  36   2.0000      -0.694678       -18.9032
  37   2.0000      -0.661713       -18.0061
  38   2.0000      -0.639794       -17.4097
  39   2.0000      -0.615980       -16.7617
  40   2.0000      -0.594234       -16.1699
  41   2.0000      -0.572262       -15.5721
  42   2.0000      -0.564742       -15.3674
  43   2.0000      -0.559923       -15.2363
  44   2.0000      -0.540841       -14.7170
  45   2.0000      -0.523054       -14.2330
  46   2.0000      -0.519553       -14.1378
  47   2.0000      -0.513309       -13.9678
  48   2.0000      -0.505180       -13.7467
  49   2.0000      -0.502478       -13.6731
  50   2.0000      -0.486496       -13.2382
  51   2.0000      -0.473417       -12.8823
  52   2.0000      -0.469058       -12.7637
  53   2.0000      -0.460327       -12.5261
  54   2.0000      -0.455452       -12.3935
  55   2.0000      -0.451907       -12.2970
  56   2.0000      -0.448205       -12.1963
  57   2.0000      -0.436831       -11.8868
  58   2.0000      -0.429208       -11.6794
  59   2.0000      -0.428575       -11.6621
  60   2.0000      -0.423304       -11.5187
  61   2.0000      -0.418648       -11.3920
  62   2.0000      -0.411967       -11.2102
  63   2.0000      -0.339795        -9.2463
  64   2.0000      -0.336217        -9.1489
  65   2.0000      -0.327841        -8.9210
  66   2.0000      -0.295702        -8.0464
  67   0.0000       0.038724         1.0537
  68   0.0000       0.065405         1.7797
  69   0.0000       0.104335         2.8391
  70   0.0000       0.117308         3.1921
  71   0.0000       0.128251         3.4899

MULLIKEN ATOMIC CHARGES
-----------------------
   0 S :    0.140790
   1 C :   -0.096095
   2 C :   -0.091714
   3 C :    0.006571
   4 C :   -0.183099
   5 H :    0.035492
   6 C :    0.075388
   7 H :    0.045059
   8 H :    0.005880
   9 C :   -0.045661
  10 H :    0.023338
  11 H :    0.018783
  12 C :   -0.045945
  13 H :    0.034335
  14 H :    0.034350
  15 H :    0.008433
  16 S :    0.118074
  17 C :   -0.061332
  18 C :   -0.035932
  19 C :   -0.016150
  20 C :   -0.175911
  21 H :    0.019501
  22 C :    0.035750
  23 H :    0.030669
  24 H :    0.026257
  25 C :   -0.034162
  26 H :    0.016231
  27 H :    0.028531
  28 C :   -0.067686
  29 H :    0.043298
  30 H :    0.020010
  31 H :    0.038569
  32 H :    0.017021
  33 H :    0.031359
Sum of atomic charges:    0.0000000

LOEWDIN ATOMIC CHARGES
----------------------
   0 S :    0.454018
   1 C :   -0.198158
   2 C :   -0.057460
   3 C :   -0.062815
   4 C :   -0.222988
   5 H :    0.037958
   6 C :   -0.029283
   7 H :    0.036384
   8 H :    0.026280
   9 C :   -0.041080
  10 H :    0.021607
  11 H :    0.020515
  12 C :   -0.060332
  13 H :    0.023948
  14 H :    0.028022
  15 H :    0.015509
  16 S :    0.403507
  17 C :   -0.181266
  18 C :   -0.071909
  19 C :   -0.046879
  20 C :   -0.198762
  21 H :    0.033652
  22 C :   -0.035991
  23 H :    0.034941
  24 H :    0.023893
  25 C :   -0.033950
  26 H :    0.013644
  27 H :    0.025814
  28 C :   -0.074973
  29 H :    0.032790
  30 H :    0.018087
  31 H :    0.034413
  32 H :    0.012210
  33 H :    0.018654

  Mayer bond orders larger than 0.100000
B(  0-S ,  1-C ) :   1.1509 B(  0-S ,  4-C ) :   1.1885 B(  1-C ,  2-C ) :   1.5636
B(  1-C ,  4-C ) :   0.1014 B(  1-C , 32-H ) :   0.9775 B(  2-C ,  3-C ) :   1.2734
B(  2-C ,  6-C ) :   1.0225 B(  3-C ,  4-C ) :   1.5172 B(  3-C ,  5-H ) :   0.9870
B(  4-C , 20-C ) :   1.0530 B(  6-C ,  7-H ) :   0.9426 B(  6-C ,  8-H ) :   0.9399
B(  6-C ,  9-C ) :   1.0660 B(  9-C , 10-H ) :   0.9581 B(  9-C , 11-H ) :   0.9566
B(  9-C , 12-C ) :   1.0654 B( 12-C , 13-H ) :   0.9733 B( 12-C , 14-H ) :   0.9778
B( 12-C , 15-H ) :   0.9741 B( 16-S , 17-C ) :   1.1431 B( 16-S , 20-C ) :   1.1163
B( 17-C , 18-C ) :   1.6728 B( 17-C , 33-H ) :   0.9644 B( 18-C , 19-C ) :   1.1703
B( 18-C , 21-H ) :   0.9919 B( 19-C , 20-C ) :   1.6397 B( 19-C , 22-C ) :   1.0640
B( 22-C , 23-H ) :   0.9320 B( 22-C , 24-H ) :   0.9328 B( 22-C , 25-C ) :   1.0613
B( 25-C , 26-H ) :   0.9542 B( 25-C , 27-H ) :   0.9573 B( 25-C , 28-C ) :   1.0753
B( 28-C , 29-H ) :   0.9757 B( 28-C , 30-H ) :   0.9764 B( 28-C , 31-H ) :   0.9746

Dispersion correction           -0.014566038
FINAL SINGLE POINT ENERGY     -1339.880159181169

DIPOLE MOMENT
-------------
                                X             Y             Z
Electronic contribution:     11.44606      -5.80266     -16.77326
Nuclear contribution   :    -11.56039       6.01405      16.95104
                        -----------------------------------------
Total Dipole Moment    :     -0.11432       0.21140       0.17778
                        -----------------------------------------
Magnitude (a.u.)       :      0.29894
Magnitude (Debye)      :      0.75984

Rotational constants in cm-1:     0.018608     0.008694     0.007049
Rotational constants in MHz :   557.850510   260.649765   211.331731

                             ****ORCA TERMINATED NORMALLY****
TOTAL RUN TIME: 0 days 0 hours 0 minutes 31 seconds 195 msec
