                         Program Version 4.2.1 -  RELEASE  -
|  1> ! wB97X-D3 SP def2-SVP
|  2> %pal
|  3> nprocs 16
|  4> end
|  5>
|  6> * xyz 0 1
|  7> S 	 28.8116 	 -8.5053 	 82.2312
|  8> C 	 29.3578 	 -7.56094 	 81.0124
|  9> C 	 28.3776 	 -7.26881 	 80.1155
| 10> C 	 27.0522 	 -7.53663 	 80.6011
| 11> C 	 27.1077 	 -8.27012 	 81.787
| 12> H 	 26.1421 	 -7.26634 	 79.9936
| 13> C 	 28.6952 	 -6.50546 	 78.8539
| 14> H 	 27.7459 	 -6.48229 	 78.2689
| 15> H 	 29.2349 	 -7.0496 	 78.1102
| 16> C 	 29.2714 	 -5.03407 	 78.9941
| 17> H 	 30.2446 	 -4.91492 	 79.4985
| 18> H 	 29.3946 	 -4.60716 	 78.0269
| 19> C 	 28.2799 	 -4.25451 	 79.8819
| 20> H 	 27.3277 	 -4.1361 	 79.3757
| 21> H 	 28.1153 	 -4.65933 	 80.8503
| 22> H 	 28.5754 	 -3.20361 	 80.0639
| 23> S 	 26.246 	 -10.5725 	 83.0429
| 24> C 	 24.562 	 -10.7356 	 83.4868
| 25> C 	 23.8873 	 -9.56033 	 83.1712
| 26> C 	 24.6749 	 -8.47799 	 82.6927
| 27> C 	 25.9858 	 -8.88438 	 82.4243
| 28> H 	 22.7979 	 -9.49848 	 83.2654
| 29> C 	 24.062 	 -7.19571 	 82.1187
| 30> H 	 22.9747 	 -7.15648 	 82.0751
| 31> H 	 24.2804 	 -7.12836 	 80.9929
| 32> C 	 24.7015 	 -5.86678 	 82.6576
| 33> H 	 24.1427 	 -5.01422 	 82.2378
| 34> H 	 25.685 	 -5.77856 	 82.3294
| 35> C 	 24.5696 	 -5.69929 	 84.1136
| 36> H 	 24.6748 	 -4.59739 	 84.2938
| 37> H 	 25.399 	 -6.12786 	 84.7348
| 38> H 	 23.6096 	 -5.98779 	 84.5675
| 39> H 	 30.4314 	 -7.35426 	 80.7858
| 40> H 	 24.0672 	 -11.6926 	 83.7262
| 41> *
| 42>
| 43>                          ****END OF INPUT****

CARTESIAN COORDINATES (ANGSTROEM)
---------------------------------
  S     28.811600   -8.505300   82.231200
  C     29.357800   -7.560940   81.012400
  C     28.377600   -7.268810   80.115500
  C     27.052200   -7.536630   80.601100
  C     27.107700   -8.270120   81.787000
  H     26.142100   -7.266340   79.993600
  C     28.695200   -6.505460   78.853900
  H     27.745900   -6.482290   78.268900
  H     29.234900   -7.049600   78.110200
  C     29.271400   -5.034070   78.994100
  H     30.244600   -4.914920   79.498500
  H     29.394600   -4.607160   78.026900
  C     28.279900   -4.254510   79.881900
  H     27.327700   -4.136100   79.375700
  H     28.115300   -4.659330   80.850300
  H     28.575400   -3.203610   80.063900
  S     26.246000  -10.572500   83.042900
  C     24.562000  -10.735600   83.486800
  C     23.887300   -9.560330   83.171200
  C     24.674900   -8.477990   82.692700
  C     25.985800   -8.884380   82.424300
  H     22.797900   -9.498480   83.265400
  C     24.062000   -7.195710   82.118700
  H     22.974700   -7.156480   82.075100
  H     24.280400   -7.128360   80.992900
  C     24.701500   -5.866780   82.657600
  H     24.142700   -5.014220   82.237800
  H     25.685000   -5.778560   82.329400
  C     24.569600   -5.699290   84.113600
  H     24.674800   -4.597390   84.293800
  H     25.399000   -6.127860   84.734800
  H     23.609600   -5.987790   84.567500
  H     30.431400   -7.354260   80.785800
  H     24.067200  -11.692600   83.726200

 Total Charge           Charge          ....    0
 Multiplicity           Mult            ....    1
 Number of Electrons    NEL             ....  134
 Basis Dimension        Dim             ....  322

ORBITAL ENERGIES
----------------

  NO   OCC          E(Eh)            E(eV)
   0   2.0000     -88.969765     -2420.9904
   1   2.0000     -88.964455     -2420.8459
   2   2.0000     -10.333202      -281.1807
   3   2.0000     -10.332958      -281.1741
   4   2.0000     -10.319816      -280.8165
   5   2.0000     -10.307981      -280.4944
   6   2.0000     -10.306739      -280.4606
   7   2.0000     -10.304089      -280.3885
   8   2.0000     -10.299802      -280.2719
   9   2.0000     -10.296406      -280.1794
  10   2.0000     -10.295988      -280.1681
  11   2.0000     -10.292911      -280.0844
  12   2.0000     -10.292350      -280.0691
  13   2.0000     -10.277388      -279.6619
  14   2.0000     -10.272339      -279.5246
  15   2.0000     -10.271556      -279.5033
  16   2.0000      -8.086226      -220.0374
  17   2.0000      -8.078375      -219.8238
  18   2.0000      -6.044633      -164.4828
  19   2.0000      -6.040413      -164.3680
  20   2.0000      -6.037032      -164.2760
  21   2.0000      -6.036948      -164.2737
  22   2.0000      -6.033004      -164.1664
  23   2.0000      -6.029110      -164.0604
  24   2.0000      -1.015102       -27.6223
  25   2.0000      -0.984538       -26.7906
  26   2.0000      -0.907315       -24.6893
  27   2.0000      -0.906551       -24.6685
  28   2.0000      -0.875220       -23.8160
  29   2.0000      -0.852413       -23.1953
  30   2.0000      -0.846857       -23.0442
  31   2.0000      -0.810371       -22.0513
  32   2.0000      -0.780533       -21.2394
  33   2.0000      -0.769339       -20.9348
  34   2.0000      -0.708295       -19.2737
  35   2.0000      -0.707181       -19.2434
  36   2.0000      -0.685696       -18.6587
  37   2.0000      -0.664637       -18.0857
  38   2.0000      -0.638196       -17.3662
  39   2.0000      -0.615115       -16.7381
  40   2.0000      -0.592967       -16.1354
  41   2.0000      -0.572569       -15.5804
  42   2.0000      -0.553682       -15.0665
  43   2.0000      -0.546303       -14.8656
  44   2.0000      -0.542772       -14.7696
  45   2.0000      -0.537703       -14.6317
  46   2.0000      -0.512091       -13.9347
  47   2.0000      -0.506913       -13.7938
  48   2.0000      -0.504294       -13.7225
  49   2.0000      -0.502006       -13.6603
  50   2.0000      -0.486350       -13.2342
  51   2.0000      -0.483541       -13.1578
  52   2.0000      -0.471764       -12.8374
  53   2.0000      -0.468071       -12.7369
  54   2.0000      -0.457892       -12.4599
  55   2.0000      -0.446238       -12.1427
  56   2.0000      -0.434835       -11.8325
  57   2.0000      -0.431357       -11.7378
  58   2.0000      -0.430422       -11.7124
  59   2.0000      -0.423904       -11.5350
  60   2.0000      -0.421513       -11.4699
  61   2.0000      -0.412933       -11.2365
  62   2.0000      -0.405446       -11.0327
  63   2.0000      -0.360863        -9.8196
  64   2.0000      -0.331619        -9.0238
  65   2.0000      -0.329231        -8.9588
  66   2.0000      -0.281613        -7.6631
  67   0.0000       0.020535         0.5588
  68   0.0000       0.067604         1.8396
  69   0.0000       0.105381         2.8676
  70   0.0000       0.116070         3.1584
  71   0.0000       0.126244         3.4353

MULLIKEN ATOMIC CHARGES
-----------------------
   0 S :    0.141499
   1 C :   -0.113440
   2 C :   -0.124178
   3 C :   -0.002049
   4 C :   -0.125606
   5 H :    0.040684
   6 C :    0.050400
   7 H :    0.008445
   8 H :    0.022402
   9 C :   -0.037625
  10 H :    0.033349
  11 H :    0.025892
  12 C :   -0.066253
  13 H :    0.017215
  14 H :    0.046539
  15 H :    0.024556
  16 S :    0.085543
  17 C :   -0.097180
  18 C :   -0.055052
  19 C :    0.025390
  20 C :   -0.157678
  21 H :    0.024844
  22 C :   -0.009366
  23 H :    0.021500
  24 H :    0.034891
  25 C :   -0.035266
  26 H :    0.023335
  27 H :    0.024777
  28 C :   -0.071246
  29 H :    0.024941
  30 H :    0.044363
  31 H :    0.031025
  32 H :    0.069149
  33 H :    0.074200
Sum of atomic charges:   -0.0000000

LOEWDIN ATOMIC CHARGES
----------------------
   0 S :    0.452006
   1 C :   -0.232734
   2 C :   -0.077675
   3 C :   -0.059637
   4 C :   -0.197193
   5 H :    0.042995
   6 C :   -0.039958
   7 H :    0.032198
   8 H :    0.025312
   9 C :   -0.031232
  10 H :    0.025053
  11 H :    0.021310
  12 C :   -0.067610
  13 H :    0.020394
  14 H :    0.021651
  15 H :    0.025186
  16 S :    0.376591
  17 C :   -0.196123
  18 C :   -0.070999
  19 C :   -0.061869
  20 C :   -0.163742
  21 H :    0.032272
  22 C :   -0.035704
  23 H :    0.027307
  24 H :    0.036140
  25 C :   -0.040446
  26 H :    0.028417
  27 H :    0.016415
  28 C :   -0.075783
  29 H :    0.029677
  30 H :    0.030842
  31 H :    0.024537
  32 H :    0.043368
  33 H :    0.039037

  Mayer bond orders larger than 0.100000
B(  0-S ,  1-C ) :   1.1737 B(  0-S ,  4-C ) :   1.1540 B(  1-C ,  2-C ) :   1.5781
B(  1-C , 32-H ) :   0.9612 B(  2-C ,  3-C ) :   1.2860 B(  2-C ,  6-C ) :   1.0354
B(  3-C ,  4-C ) :   1.5048 B(  3-C ,  5-H ) :   0.9795 B(  4-C , 20-C ) :   1.1063
B(  6-C ,  7-H ) :   0.9383 B(  6-C ,  8-H ) :   0.9364 B(  6-C ,  9-C ) :   1.0610
B(  9-C , 10-H ) :   0.9600 B(  9-C , 11-H ) :   0.9563 B(  9-C , 12-C ) :   1.0714
B( 12-C , 13-H ) :   0.9772 B( 12-C , 14-H ) :   0.9746 B( 12-C , 15-H ) :   0.9731
B( 16-S , 17-C ) :   1.1442 B( 16-S , 20-C ) :   1.1322 B( 17-C , 18-C ) :   1.6057
B( 17-C , 20-C ) :   0.1086 B( 17-C , 33-H ) :   0.9638 B( 18-C , 19-C ) :   1.2457
B( 18-C , 21-H ) :   0.9821 B( 19-C , 20-C ) :   1.5623 B( 19-C , 22-C ) :   1.0294
B( 22-C , 23-H ) :   0.9457 B( 22-C , 24-H ) :   0.9439 B( 22-C , 25-C ) :   1.0677
B( 25-C , 26-H ) :   0.9555 B( 25-C , 27-H ) :   0.9504 B( 25-C , 28-C ) :   1.0867
B( 28-C , 29-H ) :   0.9741 B( 28-C , 30-H ) :   0.9708 B( 28-C , 31-H ) :   0.9758

Dispersion correction           -0.015589926
FINAL SINGLE POINT ENERGY     -1339.864741684273

DIPOLE MOMENT
-------------
                                X             Y             Z
Electronic contribution:      5.83479     -26.19029       8.44870
Nuclear contribution   :     -6.03512      26.61858      -9.01129
                        -----------------------------------------
Total Dipole Moment    :     -0.20033       0.42830      -0.56259
                        -----------------------------------------
Magnitude (a.u.)       :      0.73490
Magnitude (Debye)      :      1.86797

Rotational constants in cm-1:     0.020693     0.009504     0.007390
Rotational constants in MHz :   620.365964   284.926090   221.541056

                             ****ORCA TERMINATED NORMALLY****
TOTAL RUN TIME: 0 days 0 hours 0 minutes 31 seconds 944 msec
