                         Program Version 4.2.1 -  RELEASE  -
|  1> ! wB97X-D3 SP def2-SVP
|  2> %pal
|  3> nprocs 16
|  4> end
|  5>
|  6> * xyz 0 1
|  7> S 	 2.06665 	 -13.441 	 59.7016
|  8> C 	 2.74051 	 -12.3676 	 60.875
|  9> C 	 3.38867 	 -13.1138 	 61.8491
| 10> C 	 3.6125 	 -14.4637 	 61.4604
| 11> C 	 3.04592 	 -14.7779 	 60.2616
| 12> H 	 4.12401 	 -15.2175 	 61.9663
| 13> C 	 3.87471 	 -12.5339 	 63.1205
| 14> H 	 2.96442 	 -12.3083 	 63.7205
| 15> H 	 4.24306 	 -11.5535 	 62.825
| 16> C 	 4.90157 	 -13.4069 	 63.8741
| 17> H 	 5.03741 	 -13.0662 	 64.8985
| 18> H 	 4.67219 	 -14.4567 	 64.0042
| 19> C 	 6.30662 	 -13.4003 	 63.1418
| 20> H 	 6.53821 	 -12.4138 	 62.8668
| 21> H 	 7.22836 	 -13.8053 	 63.7538
| 22> H 	 6.18189 	 -13.9861 	 62.2358
| 23> S 	 2.56429 	 -15.872 	 57.7752
| 24> C 	 2.84092 	 -17.5375 	 57.5318
| 25> C 	 3.13554 	 -18.1647 	 58.7055
| 26> C 	 3.26287 	 -17.3133 	 59.8702
| 27> C 	 3.07324 	 -15.9857 	 59.4666
| 28> H 	 3.26886 	 -19.2927 	 58.6517
| 29> C 	 3.69538 	 -17.8403 	 61.2052
| 30> H 	 4.50826 	 -17.2841 	 61.5922
| 31> H 	 4.08457 	 -18.9133 	 61.1009
| 32> C 	 2.42024 	 -17.8579 	 62.1391
| 33> H 	 1.67722 	 -18.3326 	 61.5153
| 34> H 	 2.10226 	 -16.7993 	 62.3504
| 35> C 	 2.68118 	 -18.78 	 63.3587
| 36> H 	 3.13771 	 -19.7545 	 63.045
| 37> H 	 1.70946 	 -19.0782 	 63.7736
| 38> H 	 3.35992 	 -18.3557 	 64.1858
| 39> H 	 2.42431 	 -11.3287 	 60.9347
| 40> H 	 2.83758 	 -18.0857 	 56.6049
| 41> *
| 42>
| 43>                          ****END OF INPUT****

CARTESIAN COORDINATES (ANGSTROEM)
---------------------------------
  S      2.066650  -13.441000   59.701600
  C      2.740510  -12.367600   60.875000
  C      3.388670  -13.113800   61.849100
  C      3.612500  -14.463700   61.460400
  C      3.045920  -14.777900   60.261600
  H      4.124010  -15.217500   61.966300
  C      3.874710  -12.533900   63.120500
  H      2.964420  -12.308300   63.720500
  H      4.243060  -11.553500   62.825000
  C      4.901570  -13.406900   63.874100
  H      5.037410  -13.066200   64.898500
  H      4.672190  -14.456700   64.004200
  C      6.306620  -13.400300   63.141800
  H      6.538210  -12.413800   62.866800
  H      7.228360  -13.805300   63.753800
  H      6.181890  -13.986100   62.235800
  S      2.564290  -15.872000   57.775200
  C      2.840920  -17.537500   57.531800
  C      3.135540  -18.164700   58.705500
  C      3.262870  -17.313300   59.870200
  C      3.073240  -15.985700   59.466600
  H      3.268860  -19.292700   58.651700
  C      3.695380  -17.840300   61.205200
  H      4.508260  -17.284100   61.592200
  H      4.084570  -18.913300   61.100900
  C      2.420240  -17.857900   62.139100
  H      1.677220  -18.332600   61.515300
  H      2.102260  -16.799300   62.350400
  C      2.681180  -18.780000   63.358700
  H      3.137710  -19.754500   63.045000
  H      1.709460  -19.078200   63.773600
  H      3.359920  -18.355700   64.185800
  H      2.424310  -11.328700   60.934700
  H      2.837580  -18.085700   56.604900

 Total Charge           Charge          ....    0
 Multiplicity           Mult            ....    1
 Number of Electrons    NEL             ....  134
 Basis Dimension        Dim             ....  322

ORBITAL ENERGIES
----------------

  NO   OCC          E(Eh)            E(eV)
   0   2.0000     -88.966224     -2420.8940
   1   2.0000     -88.959928     -2420.7227
   2   2.0000     -10.328677      -281.0576
   3   2.0000     -10.325859      -280.9809
   4   2.0000     -10.311654      -280.5944
   5   2.0000     -10.307941      -280.4933
   6   2.0000     -10.307557      -280.4829
   7   2.0000     -10.299217      -280.2560
   8   2.0000     -10.298925      -280.2480
   9   2.0000     -10.296343      -280.1777
  10   2.0000     -10.294789      -280.1355
  11   2.0000     -10.294436      -280.1258
  12   2.0000     -10.291692      -280.0512
  13   2.0000     -10.290678      -280.0236
  14   2.0000     -10.285682      -279.8876
  15   2.0000     -10.281687      -279.7789
  16   2.0000      -8.081389      -219.9058
  17   2.0000      -8.075437      -219.7438
  18   2.0000      -6.039936      -164.3550
  19   2.0000      -6.035881      -164.2447
  20   2.0000      -6.033956      -164.1923
  21   2.0000      -6.032023      -164.1397
  22   2.0000      -6.029908      -164.0821
  23   2.0000      -6.026085      -163.9781
  24   2.0000      -1.012121       -27.5412
  25   2.0000      -0.988661       -26.9028
  26   2.0000      -0.913112       -24.8470
  27   2.0000      -0.910247       -24.7691
  28   2.0000      -0.870324       -23.6827
  29   2.0000      -0.849906       -23.1271
  30   2.0000      -0.839542       -22.8451
  31   2.0000      -0.820022       -22.3139
  32   2.0000      -0.781778       -21.2733
  33   2.0000      -0.766975       -20.8704
  34   2.0000      -0.714304       -19.4372
  35   2.0000      -0.700093       -19.0505
  36   2.0000      -0.691612       -18.8197
  37   2.0000      -0.658999       -17.9323
  38   2.0000      -0.639837       -17.4108
  39   2.0000      -0.631088       -17.1728
  40   2.0000      -0.598624       -16.2894
  41   2.0000      -0.562170       -15.2974
  42   2.0000      -0.560214       -15.2442
  43   2.0000      -0.548379       -14.9222
  44   2.0000      -0.528688       -14.3863
  45   2.0000      -0.525213       -14.2918
  46   2.0000      -0.520034       -14.1509
  47   2.0000      -0.517293       -14.0763
  48   2.0000      -0.504852       -13.7377
  49   2.0000      -0.500665       -13.6238
  50   2.0000      -0.494466       -13.4551
  51   2.0000      -0.479754       -13.0548
  52   2.0000      -0.472434       -12.8556
  53   2.0000      -0.461307       -12.5528
  54   2.0000      -0.457386       -12.4461
  55   2.0000      -0.447741       -12.1837
  56   2.0000      -0.443727       -12.0744
  57   2.0000      -0.439019       -11.9463
  58   2.0000      -0.432435       -11.7672
  59   2.0000      -0.431513       -11.7421
  60   2.0000      -0.424481       -11.5507
  61   2.0000      -0.419178       -11.4064
  62   2.0000      -0.411161       -11.1883
  63   2.0000      -0.359770        -9.7898
  64   2.0000      -0.331659        -9.0249
  65   2.0000      -0.324630        -8.8336
  66   2.0000      -0.279873        -7.6157
  67   0.0000       0.019150         0.5211
  68   0.0000       0.083499         2.2721
  69   0.0000       0.100122         2.7245
  70   0.0000       0.122501         3.3334
  71   0.0000       0.131209         3.5704

MULLIKEN ATOMIC CHARGES
-----------------------
   0 S :    0.090925
   1 C :   -0.132951
   2 C :   -0.100814
   3 C :    0.019166
   4 C :   -0.106597
   5 H :   -0.043009
   6 C :    0.078341
   7 H :    0.048823
   8 H :    0.029840
   9 C :   -0.066928
  10 H :    0.026590
  11 H :    0.030518
  12 C :   -0.078850
  13 H :    0.020201
  14 H :    0.052207
  15 H :    0.036961
  16 S :    0.111876
  17 C :   -0.071271
  18 C :   -0.066309
  19 C :   -0.045117
  20 C :   -0.127190
  21 H :    0.035171
  22 C :    0.025535
  23 H :    0.036903
  24 H :    0.031335
  25 C :   -0.084024
  26 H :    0.034029
  27 H :    0.061193
  28 C :   -0.066549
  29 H :    0.030024
  30 H :    0.037511
  31 H :    0.049197
  32 H :    0.051867
  33 H :    0.051396
Sum of atomic charges:   -0.0000000

LOEWDIN ATOMIC CHARGES
----------------------
   0 S :    0.403786
   1 C :   -0.212257
   2 C :   -0.058464
   3 C :   -0.074384
   4 C :   -0.174740
   5 H :    0.016849
   6 C :   -0.035404
   7 H :    0.042061
   8 H :    0.035796
   9 C :   -0.041882
  10 H :    0.024542
  11 H :    0.021943
  12 C :   -0.067794
  13 H :    0.013621
  14 H :    0.038611
  15 H :    0.022618
  16 S :    0.413549
  17 C :   -0.200437
  18 C :   -0.082368
  19 C :   -0.051808
  20 C :   -0.193241
  21 H :    0.039140
  22 C :   -0.032114
  23 H :    0.020277
  24 H :    0.038391
  25 C :   -0.037119
  26 H :    0.026794
  27 H :    0.034080
  28 C :   -0.078409
  29 H :    0.027056
  30 H :    0.026427
  31 H :    0.033204
  32 H :    0.028617
  33 H :    0.033061

  Mayer bond orders larger than 0.100000
B(  0-S ,  1-C ) :   1.1322 B(  0-S ,  4-C ) :   1.1564 B(  1-C ,  2-C ) :   1.5923
B(  1-C , 32-H ) :   0.9747 B(  2-C ,  3-C ) :   1.2401 B(  2-C ,  6-C ) :   1.0063
B(  3-C ,  4-C ) :   1.5583 B(  3-C ,  5-H ) :   1.0014 B(  4-C , 20-C ) :   1.0916
B(  6-C ,  7-H ) :   0.9260 B(  6-C ,  8-H ) :   0.9422 B(  6-C ,  9-C ) :   1.0792
B(  9-C , 10-H ) :   0.9544 B(  9-C , 11-H ) :   0.9549 B(  9-C , 12-C ) :   1.0583
B( 12-C , 13-H ) :   0.9776 B( 12-C , 14-H ) :   0.9758 B( 12-C , 15-H ) :   0.9771
B( 16-S , 17-C ) :   1.1459 B( 16-S , 20-C ) :   1.1371 B( 17-C , 18-C ) :   1.6341
B( 17-C , 33-H ) :   0.9658 B( 18-C , 19-C ) :   1.2385 B( 18-C , 21-H ) :   0.9752
B( 19-C , 20-C ) :   1.5633 B( 19-C , 22-C ) :   1.0441 B( 22-C , 23-H ) :   0.9378
B( 22-C , 24-H ) :   0.9401 B( 22-C , 25-C ) :   1.0406 B( 25-C , 26-H ) :   0.9556
B( 25-C , 27-H ) :   0.9556 B( 25-C , 28-C ) :   1.0732 B( 28-C , 29-H ) :   0.9725
B( 28-C , 30-H ) :   0.9761 B( 28-C , 31-H ) :   0.9737

Dispersion correction           -0.014813840
FINAL SINGLE POINT ENERGY     -1339.874061162236

DIPOLE MOMENT
-------------
                                X             Y             Z
Electronic contribution:    -11.21303       7.28496     -26.20550
Nuclear contribution   :     11.36899      -7.62511      26.73996
                        -----------------------------------------
Total Dipole Moment    :      0.15596      -0.34015       0.53445
                        -----------------------------------------
Magnitude (a.u.)       :      0.65243
Magnitude (Debye)      :      1.65834

Rotational constants in cm-1:     0.016921     0.010431     0.007440
Rotational constants in MHz :   507.290730   312.712017   223.042661

                             ****ORCA TERMINATED NORMALLY****
TOTAL RUN TIME: 0 days 0 hours 0 minutes 30 seconds 897 msec
