                         Program Version 4.2.1 -  RELEASE  -
|  1> ! wB97X-D3 SP def2-SVP
|  2> %pal
|  3> nprocs 16
|  4> end
|  5>
|  6> * xyz 0 1
|  7> S 	 -42.4136 	 36.2918 	 77.1423
|  8> C 	 -43.3921 	 35.6794 	 75.7339
|  9> C 	 -43.1498 	 34.3627 	 75.5071
| 10> C 	 -42.3569 	 33.8012 	 76.5515
| 11> C 	 -41.9158 	 34.623 	 77.5615
| 12> H 	 -42.1042 	 32.7643 	 76.5684
| 13> C 	 -43.7819 	 33.5445 	 74.3506
| 14> H 	 -42.9617 	 33.0478 	 73.8192
| 15> H 	 -44.1189 	 34.3226 	 73.716
| 16> C 	 -44.8139 	 32.5767 	 74.7912
| 17> H 	 -45 	 31.8253 	 73.9609
| 18> H 	 -44.5587 	 32.1024 	 75.7595
| 19> C 	 -46.1927 	 33.1747 	 75.3021
| 20> H 	 -46.8618 	 32.4002 	 75.6062
| 21> H 	 -46.1269 	 33.9186 	 76.1552
| 22> H 	 -46.6083 	 33.5966 	 74.4139
| 23> S 	 -41.4118 	 34.9354 	 80.2975
| 24> C 	 -40.3458 	 33.8744 	 81.087
| 25> C 	 -39.8214 	 32.9705 	 80.2194
| 26> C 	 -40.1468 	 33.2411 	 78.8428
| 27> C 	 -41.0784 	 34.2598 	 78.6659
| 28> H 	 -39.2239 	 32.1205 	 80.5212
| 29> C 	 -39.5007 	 32.2968 	 77.8009
| 30> H 	 -38.4229 	 32.3826 	 77.8955
| 31> H 	 -39.7159 	 32.548 	 76.7878
| 32> C 	 -39.8786 	 30.8147 	 77.9234
| 33> H 	 -40.9372 	 30.731 	 77.8788
| 34> H 	 -39.5283 	 30.4652 	 78.9489
| 35> C 	 -39.1743 	 29.8775 	 76.9514
| 36> H 	 -39.545 	 28.8838 	 76.8439
| 37> H 	 -38.1223 	 29.7945 	 76.9932
| 38> H 	 -39.271 	 30.2509 	 75.9142
| 39> H 	 -43.9495 	 36.2628 	 75.0193
| 40> H 	 -40.2174 	 33.9089 	 82.1054
| 41> *
| 42>
| 43>                          ****END OF INPUT****

CARTESIAN COORDINATES (ANGSTROEM)
---------------------------------
  S    -42.413600   36.291800   77.142300
  C    -43.392100   35.679400   75.733900
  C    -43.149800   34.362700   75.507100
  C    -42.356900   33.801200   76.551500
  C    -41.915800   34.623000   77.561500
  H    -42.104200   32.764300   76.568400
  C    -43.781900   33.544500   74.350600
  H    -42.961700   33.047800   73.819200
  H    -44.118900   34.322600   73.716000
  C    -44.813900   32.576700   74.791200
  H    -45.000000   31.825300   73.960900
  H    -44.558700   32.102400   75.759500
  C    -46.192700   33.174700   75.302100
  H    -46.861800   32.400200   75.606200
  H    -46.126900   33.918600   76.155200
  H    -46.608300   33.596600   74.413900
  S    -41.411800   34.935400   80.297500
  C    -40.345800   33.874400   81.087000
  C    -39.821400   32.970500   80.219400
  C    -40.146800   33.241100   78.842800
  C    -41.078400   34.259800   78.665900
  H    -39.223900   32.120500   80.521200
  C    -39.500700   32.296800   77.800900
  H    -38.422900   32.382600   77.895500
  H    -39.715900   32.548000   76.787800
  C    -39.878600   30.814700   77.923400
  H    -40.937200   30.731000   77.878800
  H    -39.528300   30.465200   78.948900
  C    -39.174300   29.877500   76.951400
  H    -39.545000   28.883800   76.843900
  H    -38.122300   29.794500   76.993200
  H    -39.271000   30.250900   75.914200
  H    -43.949500   36.262800   75.019300
  H    -40.217400   33.908900   82.105400

 Total Charge           Charge          ....    0
 Multiplicity           Mult            ....    1
 Number of Electrons    NEL             ....  134
 Basis Dimension        Dim             ....  322

ORBITAL ENERGIES
----------------

  NO   OCC          E(Eh)            E(eV)
   0   2.0000     -88.965096     -2420.8633
   1   2.0000     -88.962321     -2420.7878
   2   2.0000     -10.333989      -281.2021
   3   2.0000     -10.332832      -281.1707
   4   2.0000     -10.317456      -280.7523
   5   2.0000     -10.312234      -280.6101
   6   2.0000     -10.310056      -280.5509
   7   2.0000     -10.299980      -280.2767
   8   2.0000     -10.294809      -280.1360
   9   2.0000     -10.294541      -280.1287
  10   2.0000     -10.293061      -280.0884
  11   2.0000     -10.292791      -280.0811
  12   2.0000     -10.292411      -280.0708
  13   2.0000     -10.291402      -280.0433
  14   2.0000     -10.278415      -279.6899
  15   2.0000     -10.276240      -279.6307
  16   2.0000      -8.078183      -219.8185
  17   2.0000      -8.077824      -219.8088
  18   2.0000      -6.036988      -164.2748
  19   2.0000      -6.036311      -164.2564
  20   2.0000      -6.033092      -164.1688
  21   2.0000      -6.032164      -164.1435
  22   2.0000      -6.028602      -164.0466
  23   2.0000      -6.028531      -164.0447
  24   2.0000      -1.005801       -27.3692
  25   2.0000      -0.983031       -26.7496
  26   2.0000      -0.914372       -24.8813
  27   2.0000      -0.912387       -24.8273
  28   2.0000      -0.873980       -23.7822
  29   2.0000      -0.852062       -23.1858
  30   2.0000      -0.836999       -22.7759
  31   2.0000      -0.815851       -22.2004
  32   2.0000      -0.789317       -21.4784
  33   2.0000      -0.781932       -21.2775
  34   2.0000      -0.715983       -19.4829
  35   2.0000      -0.703996       -19.1567
  36   2.0000      -0.691357       -18.8128
  37   2.0000      -0.663609       -18.0577
  38   2.0000      -0.640433       -17.4271
  39   2.0000      -0.622349       -16.9350
  40   2.0000      -0.608433       -16.5563
  41   2.0000      -0.573409       -15.6033
  42   2.0000      -0.568436       -15.4679
  43   2.0000      -0.549762       -14.9598
  44   2.0000      -0.541161       -14.7257
  45   2.0000      -0.526233       -14.3195
  46   2.0000      -0.523046       -14.2328
  47   2.0000      -0.517327       -14.0772
  48   2.0000      -0.508731       -13.8433
  49   2.0000      -0.500870       -13.6294
  50   2.0000      -0.489045       -13.3076
  51   2.0000      -0.480794       -13.0831
  52   2.0000      -0.469972       -12.7886
  53   2.0000      -0.466751       -12.7009
  54   2.0000      -0.463056       -12.6004
  55   2.0000      -0.458132       -12.4664
  56   2.0000      -0.449835       -12.2406
  57   2.0000      -0.440427       -11.9846
  58   2.0000      -0.440179       -11.9779
  59   2.0000      -0.418686       -11.3930
  60   2.0000      -0.413412       -11.2495
  61   2.0000      -0.411123       -11.1872
  62   2.0000      -0.401138       -10.9155
  63   2.0000      -0.357879        -9.7384
  64   2.0000      -0.331267        -9.0142
  65   2.0000      -0.329988        -8.9794
  66   2.0000      -0.292037        -7.9467
  67   0.0000       0.021565         0.5868
  68   0.0000       0.078159         2.1268
  69   0.0000       0.103131         2.8063
  70   0.0000       0.119599         3.2545
  71   0.0000       0.128665         3.5012

MULLIKEN ATOMIC CHARGES
-----------------------
   0 S :    0.086853
   1 C :   -0.114537
   2 C :   -0.123981
   3 C :    0.011845
   4 C :   -0.106200
   5 H :   -0.013262
   6 C :    0.141365
   7 H :    0.035766
   8 H :    0.002486
   9 C :   -0.113763
  10 H :    0.048198
  11 H :    0.043525
  12 C :   -0.068934
  13 H :    0.032131
  14 H :    0.060396
  15 H :    0.018008
  16 S :    0.091222
  17 C :   -0.040625
  18 C :   -0.038866
  19 C :   -0.040601
  20 C :   -0.130305
  21 H :    0.022270
  22 C :    0.068776
  23 H :    0.029137
  24 H :    0.008890
  25 C :   -0.081111
  26 H :    0.032430
  27 H :    0.030287
  28 C :   -0.021658
  29 H :    0.030084
  30 H :    0.018838
  31 H :    0.007292
  32 H :    0.041399
  33 H :    0.032645
Sum of atomic charges:   -0.0000000

LOEWDIN ATOMIC CHARGES
----------------------
   0 S :    0.352924
   1 C :   -0.170314
   2 C :   -0.062360
   3 C :   -0.060687
   4 C :   -0.175362
   5 H :    0.022346
   6 C :   -0.025881
   7 H :    0.037152
   8 H :    0.023556
   9 C :   -0.050059
  10 H :    0.033410
  11 H :    0.030799
  12 C :   -0.066175
  13 H :    0.022655
  14 H :    0.036567
  15 H :    0.015283
  16 S :    0.406145
  17 C :   -0.173962
  18 C :   -0.072970
  19 C :   -0.045500
  20 C :   -0.188971
  21 H :    0.030698
  22 C :   -0.028145
  23 H :    0.032461
  24 H :    0.020146
  25 C :   -0.036642
  26 H :    0.020036
  27 H :    0.026771
  28 C :   -0.069561
  29 H :    0.026464
  30 H :    0.021132
  31 H :    0.025336
  32 H :    0.027267
  33 H :    0.015443

  Mayer bond orders larger than 0.100000
B(  0-S ,  1-C ) :   1.1094 B(  0-S ,  4-C ) :   1.1095 B(  1-C ,  2-C ) :   1.6580
B(  1-C , 32-H ) :   0.9605 B(  2-C ,  3-C ) :   1.2216 B(  2-C ,  6-C ) :   1.0113
B(  3-C ,  4-C ) :   1.6008 B(  3-C ,  5-H ) :   0.9945 B(  4-C , 20-C ) :   1.0832
B(  6-C ,  7-H ) :   0.9331 B(  6-C ,  8-H ) :   0.9359 B(  6-C ,  9-C ) :   1.0650
B(  9-C , 10-H ) :   0.9550 B(  9-C , 11-H ) :   0.9635 B(  9-C , 12-C ) :   1.0580
B( 12-C , 13-H ) :   0.9761 B( 12-C , 14-H ) :   0.9762 B( 12-C , 15-H ) :   0.9777
B( 16-S , 17-C ) :   1.1717 B( 16-S , 20-C ) :   1.1162 B( 17-C , 18-C ) :   1.5847
B( 17-C , 33-H ) :   0.9800 B( 18-C , 19-C ) :   1.2434 B( 18-C , 21-H ) :   0.9936
B( 19-C , 20-C ) :   1.5931 B( 19-C , 22-C ) :   1.0365 B( 22-C , 23-H ) :   0.9346
B( 22-C , 24-H ) :   0.9406 B( 22-C , 25-C ) :   1.0600 B( 25-C , 26-H ) :   0.9574
B( 25-C , 27-H ) :   0.9508 B( 25-C , 28-C ) :   1.0819 B( 28-C , 29-H ) :   0.9739
B( 28-C , 30-H ) :   0.9731 B( 28-C , 31-H ) :   0.9677

Dispersion correction           -0.014125684
FINAL SINGLE POINT ENERGY     -1339.867138289381

DIPOLE MOMENT
-------------
                                X             Y             Z
Electronic contribution:      3.55030      24.12344      15.97650
Nuclear contribution   :     -3.46845     -24.94553     -16.33910
                        -----------------------------------------
Total Dipole Moment    :      0.08185      -0.82209      -0.36259
                        -----------------------------------------
Magnitude (a.u.)       :      0.90222
Magnitude (Debye)      :      2.29327

Rotational constants in cm-1:     0.016288     0.009285     0.006767
Rotational constants in MHz :   488.315140   278.349158   202.882484

                             ****ORCA TERMINATED NORMALLY****
TOTAL RUN TIME: 0 days 0 hours 0 minutes 29 seconds 843 msec
