                         Program Version 4.2.1 -  RELEASE  -
|  1> ! wB97X-D3 SP def2-SVP
|  2> %pal
|  3> nprocs 16
|  4> end
|  5>
|  6> * xyz 0 1
|  7> S 	 -80.4284 	 44.0349 	 132.186
|  8> C 	 -82.1556 	 43.9259 	 132.068
|  9> C 	 -82.6235 	 45.2553 	 131.862
| 10> C 	 -81.6791 	 46.2901 	 131.744
| 11> C 	 -80.3884 	 45.7966 	 131.987
| 12> H 	 -81.9086 	 47.3337 	 131.642
| 13> C 	 -84.1043 	 45.5983 	 131.733
| 14> H 	 -84.3768 	 46.229 	 132.536
| 15> H 	 -84.7064 	 44.7391 	 132.039
| 16> C 	 -84.5351 	 46.2373 	 130.424
| 17> H 	 -85.6239 	 46.1842 	 130.444
| 18> H 	 -84.3282 	 47.32 	 130.498
| 19> C 	 -84.0838 	 45.6583 	 129.063
| 20> H 	 -82.9649 	 45.6701 	 128.918
| 21> H 	 -84.2896 	 44.676 	 128.889
| 22> H 	 -84.457 	 46.266 	 128.24
| 23> S 	 -78.7711 	 47.4043 	 130.398
| 24> C 	 -77.2468 	 47.9331 	 130.979
| 25> C 	 -77.0353 	 47.499 	 132.263
| 26> C 	 -78.1082 	 46.6663 	 132.779
| 27> C 	 -79.1694 	 46.5741 	 131.904
| 28> H 	 -76.1588 	 47.891 	 132.715
| 29> C 	 -78.0636 	 46.0945 	 134.198
| 30> H 	 -77.1069 	 45.6037 	 134.332
| 31> H 	 -78.8222 	 45.3163 	 134.277
| 32> C 	 -78.1462 	 46.9794 	 135.429
| 33> H 	 -79.0608 	 47.5465 	 135.458
| 34> H 	 -77.3547 	 47.6375 	 135.621
| 35> C 	 -78.212 	 46.2173 	 136.792
| 36> H 	 -78.908 	 45.4047 	 136.688
| 37> H 	 -78.3986 	 46.8322 	 137.691
| 38> H 	 -77.2625 	 45.6943 	 137.016
| 39> H 	 -82.6559 	 42.9999 	 131.964
| 40> H 	 -76.5838 	 48.6811 	 130.487
| 41> *
| 42>
| 43>                          ****END OF INPUT****

CARTESIAN COORDINATES (ANGSTROEM)
---------------------------------
  S    -80.428400   44.034900  132.186000
  C    -82.155600   43.925900  132.068000
  C    -82.623500   45.255300  131.862000
  C    -81.679100   46.290100  131.744000
  C    -80.388400   45.796600  131.987000
  H    -81.908600   47.333700  131.642000
  C    -84.104300   45.598300  131.733000
  H    -84.376800   46.229000  132.536000
  H    -84.706400   44.739100  132.039000
  C    -84.535100   46.237300  130.424000
  H    -85.623900   46.184200  130.444000
  H    -84.328200   47.320000  130.498000
  C    -84.083800   45.658300  129.063000
  H    -82.964900   45.670100  128.918000
  H    -84.289600   44.676000  128.889000
  H    -84.457000   46.266000  128.240000
  S    -78.771100   47.404300  130.398000
  C    -77.246800   47.933100  130.979000
  C    -77.035300   47.499000  132.263000
  C    -78.108200   46.666300  132.779000
  C    -79.169400   46.574100  131.904000
  H    -76.158800   47.891000  132.715000
  C    -78.063600   46.094500  134.198000
  H    -77.106900   45.603700  134.332000
  H    -78.822200   45.316300  134.277000
  C    -78.146200   46.979400  135.429000
  H    -79.060800   47.546500  135.458000
  H    -77.354700   47.637500  135.621000
  C    -78.212000   46.217300  136.792000
  H    -78.908000   45.404700  136.688000
  H    -78.398600   46.832200  137.691000
  H    -77.262500   45.694300  137.016000
  H    -82.655900   42.999900  131.964000
  H    -76.583800   48.681100  130.487000

 Total Charge           Charge          ....    0
 Multiplicity           Mult            ....    1
 Number of Electrons    NEL             ....  134
 Basis Dimension        Dim             ....  322

ORBITAL ENERGIES
----------------

  NO   OCC          E(Eh)            E(eV)
   0   2.0000     -88.969004     -2420.9697
   1   2.0000     -88.963746     -2420.8266
   2   2.0000     -10.334456      -281.2148
   3   2.0000     -10.326552      -280.9998
   4   2.0000     -10.317072      -280.7418
   5   2.0000     -10.316749      -280.7330
   6   2.0000     -10.307666      -280.4858
   7   2.0000     -10.303436      -280.3707
   8   2.0000     -10.295339      -280.1504
   9   2.0000     -10.291090      -280.0348
  10   2.0000     -10.289977      -280.0045
  11   2.0000     -10.288170      -279.9553
  12   2.0000     -10.283784      -279.8360
  13   2.0000     -10.278154      -279.6828
  14   2.0000     -10.276772      -279.6452
  15   2.0000     -10.271552      -279.5031
  16   2.0000      -8.082993      -219.9494
  17   2.0000      -8.078927      -219.8388
  18   2.0000      -6.041434      -164.3958
  19   2.0000      -6.037448      -164.2873
  20   2.0000      -6.037376      -164.2853
  21   2.0000      -6.034088      -164.1959
  22   2.0000      -6.033292      -164.1742
  23   2.0000      -6.029713      -164.0768
  24   2.0000      -1.006350       -27.3842
  25   2.0000      -0.984486       -26.7892
  26   2.0000      -0.908524       -24.7222
  27   2.0000      -0.905905       -24.6509
  28   2.0000      -0.871726       -23.7209
  29   2.0000      -0.850285       -23.1374
  30   2.0000      -0.844512       -22.9803
  31   2.0000      -0.815534       -22.1918
  32   2.0000      -0.785511       -21.3748
  33   2.0000      -0.772683       -21.0258
  34   2.0000      -0.709491       -19.3062
  35   2.0000      -0.700624       -19.0650
  36   2.0000      -0.693043       -18.8587
  37   2.0000      -0.660170       -17.9641
  38   2.0000      -0.642862       -17.4932
  39   2.0000      -0.620880       -16.8950
  40   2.0000      -0.595356       -16.2005
  41   2.0000      -0.570902       -15.5350
  42   2.0000      -0.563543       -15.3348
  43   2.0000      -0.549455       -14.9514
  44   2.0000      -0.537272       -14.6199
  45   2.0000      -0.527644       -14.3579
  46   2.0000      -0.520440       -14.1619
  47   2.0000      -0.512297       -13.9403
  48   2.0000      -0.508788       -13.8448
  49   2.0000      -0.501477       -13.6459
  50   2.0000      -0.486759       -13.2454
  51   2.0000      -0.481511       -13.1026
  52   2.0000      -0.466037       -12.6815
  53   2.0000      -0.465397       -12.6641
  54   2.0000      -0.454734       -12.3739
  55   2.0000      -0.452401       -12.3104
  56   2.0000      -0.445184       -12.1141
  57   2.0000      -0.443092       -12.0571
  58   2.0000      -0.430116       -11.7041
  59   2.0000      -0.417641       -11.3646
  60   2.0000      -0.413555       -11.2534
  61   2.0000      -0.410823       -11.1791
  62   2.0000      -0.404900       -11.0179
  63   2.0000      -0.347056        -9.4439
  64   2.0000      -0.332997        -9.0613
  65   2.0000      -0.328083        -8.9276
  66   2.0000      -0.294404        -8.0112
  67   0.0000       0.028710         0.7812
  68   0.0000       0.067152         1.8273
  69   0.0000       0.113745         3.0952
  70   0.0000       0.113876         3.0987
  71   0.0000       0.134302         3.6545

MULLIKEN ATOMIC CHARGES
-----------------------
   0 S :    0.118206
   1 C :   -0.119100
   2 C :   -0.100533
   3 C :    0.024980
   4 C :   -0.148111
   5 H :    0.019844
   6 C :    0.092870
   7 H :    0.018511
   8 H :    0.002289
   9 C :   -0.092133
  10 H :    0.028268
  11 H :    0.031136
  12 C :   -0.015135
  13 H :    0.033246
  14 H :    0.009060
  15 H :    0.032849
  16 S :    0.111377
  17 C :   -0.111545
  18 C :   -0.027215
  19 C :   -0.020603
  20 C :   -0.150292
  21 H :    0.007439
  22 C :    0.087116
  23 H :    0.020132
  24 H :    0.010594
  25 C :   -0.031785
  26 H :    0.025319
  27 H :    0.015980
  28 C :   -0.086421
  29 H :    0.023158
  30 H :    0.045485
  31 H :    0.020142
  32 H :    0.050885
  33 H :    0.073985
Sum of atomic charges:   -0.0000000

LOEWDIN ATOMIC CHARGES
----------------------
   0 S :    0.419669
   1 C :   -0.207202
   2 C :   -0.057343
   3 C :   -0.058871
   4 C :   -0.183799
   5 H :    0.035021
   6 C :   -0.038731
   7 H :    0.029807
   8 H :    0.026283
   9 C :   -0.045114
  10 H :    0.028084
  11 H :    0.025937
  12 C :   -0.063192
  13 H :    0.033220
  14 H :    0.010442
  15 H :    0.030231
  16 S :    0.412218
  17 C :   -0.199989
  18 C :   -0.070926
  19 C :   -0.050540
  20 C :   -0.199798
  21 H :    0.027095
  22 C :   -0.032347
  23 H :    0.033346
  24 H :    0.022539
  25 C :   -0.035655
  26 H :    0.022919
  27 H :    0.015540
  28 C :   -0.066696
  29 H :    0.018670
  30 H :    0.031025
  31 H :    0.021242
  32 H :    0.025261
  33 H :    0.041653

  Mayer bond orders larger than 0.100000
B(  0-S ,  1-C ) :   1.1507 B(  0-S ,  4-C ) :   1.1687 B(  1-C ,  2-C ) :   1.5426
B(  1-C ,  4-C ) :   0.1087 B(  1-C , 32-H ) :   0.9806 B(  2-C ,  3-C ) :   1.2756
B(  2-C ,  6-C ) :   1.0315 B(  3-C ,  4-C ) :   1.5080 B(  3-C ,  5-H ) :   1.0030
B(  4-C , 20-C ) :   1.0598 B(  6-C ,  7-H ) :   0.9338 B(  6-C ,  8-H ) :   0.9381
B(  6-C ,  9-C ) :   1.0724 B(  9-C , 10-H ) :   0.9529 B(  9-C , 11-H ) :   0.9529
B(  9-C , 12-C ) :   1.0797 B( 12-C , 13-H ) :   0.9691 B( 12-C , 14-H ) :   0.9763
B( 12-C , 15-H ) :   0.9730 B( 16-S , 17-C ) :   1.1583 B( 16-S , 20-C ) :   1.1275
B( 17-C , 18-C ) :   1.6299 B( 17-C , 33-H ) :   0.9586 B( 18-C , 19-C ) :   1.2067
B( 18-C , 21-H ) :   0.9992 B( 19-C , 20-C ) :   1.5978 B( 19-C , 22-C ) :   1.0572
B( 22-C , 23-H ) :   0.9279 B( 22-C , 24-H ) :   0.9254 B( 22-C , 25-C ) :   1.0727
B( 25-C , 26-H ) :   0.9552 B( 25-C , 27-H ) :   0.9556 B( 25-C , 28-C ) :   1.0730
B( 28-C , 29-H ) :   0.9772 B( 28-C , 30-H ) :   0.9758 B( 28-C , 31-H ) :   0.9757

Dispersion correction           -0.014124447
FINAL SINGLE POINT ENERGY     -1339.873174950989

DIPOLE MOMENT
-------------
                                X             Y             Z
Electronic contribution:     10.11277      -2.30773     -10.37829
Nuclear contribution   :    -10.29524       2.52827      10.58597
                        -----------------------------------------
Total Dipole Moment    :     -0.18247       0.22054       0.20768
                        -----------------------------------------
Magnitude (a.u.)       :      0.35365
Magnitude (Debye)      :      0.89890

Rotational constants in cm-1:     0.019316     0.008400     0.006743
Rotational constants in MHz :   579.072145   251.840073   202.143191

                             ****ORCA TERMINATED NORMALLY****
TOTAL RUN TIME: 0 days 0 hours 0 minutes 30 seconds 825 msec
