                         Program Version 4.2.1 -  RELEASE  -
|  1> ! wB97X-D3 SP def2-SVP
|  2> %pal
|  3> nprocs 16
|  4> end
|  5>
|  6> * xyz 0 1
|  7> S 	 13.1637 	 18.6244 	 39.9966
|  8> C 	 12.7812 	 17.4917 	 38.7305
|  9> C 	 12.8474 	 17.9988 	 37.4427
| 10> C 	 13.0522 	 19.3664 	 37.4695
| 11> C 	 13.2392 	 19.8984 	 38.7303
| 12> H 	 13.0683 	 19.9167 	 36.4836
| 13> C 	 12.8515 	 17.1286 	 36.2063
| 14> H 	 11.7578 	 17.0759 	 35.9208
| 15> H 	 13.2556 	 16.1482 	 36.5421
| 16> C 	 13.7187 	 17.5538 	 34.9522
| 17> H 	 13.4566 	 16.7805 	 34.2531
| 18> H 	 13.3086 	 18.4295 	 34.5361
| 19> C 	 15.2055 	 17.5974 	 35.2701
| 20> H 	 15.871 	 17.9966 	 34.4965
| 21> H 	 15.3814 	 18.1975 	 36.1752
| 22> H 	 15.5385 	 16.6279 	 35.5387
| 23> S 	 14.6892 	 22.2273 	 38.6504
| 24> C 	 14.0179 	 23.6226 	 39.5201
| 25> C 	 12.7771 	 23.3374 	 40.0582
| 26> C 	 12.3298 	 22.0143 	 39.7834
| 27> C 	 13.2811 	 21.2677 	 39.0373
| 28> H 	 12.2 	 24.0943 	 40.4856
| 29> C 	 10.9558 	 21.5246 	 40.2074
| 30> H 	 10.7948 	 20.7037 	 39.5331
| 31> H 	 10.1805 	 22.2205 	 39.9357
| 32> C 	 10.8349 	 21.0238 	 41.6442
| 33> H 	 11.7921 	 20.5317 	 41.8521
| 34> H 	 10.0201 	 20.393 	 41.7262
| 35> C 	 10.6388 	 22.2136 	 42.6772
| 36> H 	 11.5016 	 22.7708 	 42.7961
| 37> H 	 10.4205 	 21.7529 	 43.5928
| 38> H 	 9.78556 	 22.7939 	 42.3656
| 39> H 	 12.501 	 16.4703 	 38.946
| 40> H 	 14.4395 	 24.5495 	 39.5065
| 41> *
| 42>
| 43>                          ****END OF INPUT****

CARTESIAN COORDINATES (ANGSTROEM)
---------------------------------
  S     13.163700   18.624400   39.996600
  C     12.781200   17.491700   38.730500
  C     12.847400   17.998800   37.442700
  C     13.052200   19.366400   37.469500
  C     13.239200   19.898400   38.730300
  H     13.068300   19.916700   36.483600
  C     12.851500   17.128600   36.206300
  H     11.757800   17.075900   35.920800
  H     13.255600   16.148200   36.542100
  C     13.718700   17.553800   34.952200
  H     13.456600   16.780500   34.253100
  H     13.308600   18.429500   34.536100
  C     15.205500   17.597400   35.270100
  H     15.871000   17.996600   34.496500
  H     15.381400   18.197500   36.175200
  H     15.538500   16.627900   35.538700
  S     14.689200   22.227300   38.650400
  C     14.017900   23.622600   39.520100
  C     12.777100   23.337400   40.058200
  C     12.329800   22.014300   39.783400
  C     13.281100   21.267700   39.037300
  H     12.200000   24.094300   40.485600
  C     10.955800   21.524600   40.207400
  H     10.794800   20.703700   39.533100
  H     10.180500   22.220500   39.935700
  C     10.834900   21.023800   41.644200
  H     11.792100   20.531700   41.852100
  H     10.020100   20.393000   41.726200
  C     10.638800   22.213600   42.677200
  H     11.501600   22.770800   42.796100
  H     10.420500   21.752900   43.592800
  H      9.785560   22.793900   42.365600
  H     12.501000   16.470300   38.946000
  H     14.439500   24.549500   39.506500

 Total Charge           Charge          ....    0
 Multiplicity           Mult            ....    1
 Number of Electrons    NEL             ....  134
 Basis Dimension        Dim             ....  322

ORBITAL ENERGIES
----------------

  NO   OCC          E(Eh)            E(eV)
   0   2.0000     -88.970243     -2421.0034
   1   2.0000     -88.964549     -2420.8485
   2   2.0000     -10.324401      -280.9412
   3   2.0000     -10.319352      -280.8038
   4   2.0000     -10.310911      -280.5742
   5   2.0000     -10.310273      -280.5568
   6   2.0000     -10.300961      -280.3034
   7   2.0000     -10.299961      -280.2762
   8   2.0000     -10.294437      -280.1259
   9   2.0000     -10.292914      -280.0844
  10   2.0000     -10.287855      -279.9468
  11   2.0000     -10.286406      -279.9073
  12   2.0000     -10.279066      -279.7076
  13   2.0000     -10.276757      -279.6448
  14   2.0000     -10.275602      -279.6134
  15   2.0000     -10.263804      -279.2923
  16   2.0000      -8.083942      -219.9752
  17   2.0000      -8.078789      -219.8350
  18   2.0000      -6.042288      -164.4190
  19   2.0000      -6.038752      -164.3228
  20   2.0000      -6.037235      -164.2815
  21   2.0000      -6.034780      -164.2147
  22   2.0000      -6.033334      -164.1754
  23   2.0000      -6.029702      -164.0765
  24   2.0000      -1.004240       -27.3268
  25   2.0000      -0.979390       -26.6506
  26   2.0000      -0.909515       -24.7492
  27   2.0000      -0.903424       -24.5834
  28   2.0000      -0.872143       -23.7322
  29   2.0000      -0.851505       -23.1706
  30   2.0000      -0.842579       -22.9277
  31   2.0000      -0.813399       -22.1337
  32   2.0000      -0.784628       -21.3508
  33   2.0000      -0.768893       -20.9226
  34   2.0000      -0.717200       -19.5160
  35   2.0000      -0.698764       -19.0143
  36   2.0000      -0.693748       -18.8779
  37   2.0000      -0.665395       -18.1063
  38   2.0000      -0.630783       -17.1645
  39   2.0000      -0.621949       -16.9241
  40   2.0000      -0.596718       -16.2375
  41   2.0000      -0.565450       -15.3867
  42   2.0000      -0.555089       -15.1047
  43   2.0000      -0.553020       -15.0484
  44   2.0000      -0.543451       -14.7881
  45   2.0000      -0.537125       -14.6159
  46   2.0000      -0.517714       -14.0877
  47   2.0000      -0.509831       -13.8732
  48   2.0000      -0.497417       -13.5354
  49   2.0000      -0.490425       -13.3451
  50   2.0000      -0.483074       -13.1451
  51   2.0000      -0.479276       -13.0418
  52   2.0000      -0.474628       -12.9153
  53   2.0000      -0.470933       -12.8147
  54   2.0000      -0.460118       -12.5205
  55   2.0000      -0.448783       -12.2120
  56   2.0000      -0.443122       -12.0580
  57   2.0000      -0.442782       -12.0487
  58   2.0000      -0.432348       -11.7648
  59   2.0000      -0.424595       -11.5538
  60   2.0000      -0.420164       -11.4333
  61   2.0000      -0.419347       -11.4110
  62   2.0000      -0.407341       -11.0843
  63   2.0000      -0.342046        -9.3075
  64   2.0000      -0.334827        -9.1111
  65   2.0000      -0.316127        -8.6022
  66   2.0000      -0.292879        -7.9696
  67   0.0000       0.029666         0.8073
  68   0.0000       0.061205         1.6655
  69   0.0000       0.103601         2.8191
  70   0.0000       0.115216         3.1352
  71   0.0000       0.134904         3.6709

MULLIKEN ATOMIC CHARGES
-----------------------
   0 S :    0.130080
   1 C :   -0.144489
   2 C :   -0.077139
   3 C :    0.016559
   4 C :   -0.175045
   5 H :    0.033748
   6 C :    0.004305
   7 H :    0.055502
   8 H :    0.031742
   9 C :   -0.034330
  10 H :    0.027622
  11 H :    0.017294
  12 C :   -0.034616
  13 H :    0.043418
  14 H :    0.039814
  15 H :    0.016367
  16 S :    0.110189
  17 C :   -0.063202
  18 C :   -0.000200
  19 C :   -0.064177
  20 C :   -0.168298
  21 H :   -0.000808
  22 C :    0.082110
  23 H :    0.017104
  24 H :    0.018347
  25 C :   -0.039700
  26 H :    0.025880
  27 H :    0.017910
  28 C :   -0.013437
  29 H :    0.024697
  30 H :    0.018336
  31 H :    0.021708
  32 H :    0.041552
  33 H :    0.021160
Sum of atomic charges:    0.0000000

LOEWDIN ATOMIC CHARGES
----------------------
   0 S :    0.407027
   1 C :   -0.194757
   2 C :   -0.079717
   3 C :   -0.057764
   4 C :   -0.192047
   5 H :    0.044155
   6 C :   -0.032646
   7 H :    0.042387
   8 H :    0.032617
   9 C :   -0.034974
  10 H :    0.027430
  11 H :    0.013912
  12 C :   -0.064666
  13 H :    0.030037
  14 H :    0.031907
  15 H :    0.021164
  16 S :    0.402152
  17 C :   -0.162515
  18 C :   -0.061366
  19 C :   -0.047409
  20 C :   -0.212339
  21 H :    0.022521
  22 C :   -0.034854
  23 H :    0.028834
  24 H :    0.026412
  25 C :   -0.022994
  26 H :    0.019706
  27 H :    0.013775
  28 C :   -0.051621
  29 H :    0.014467
  30 H :    0.019756
  31 H :    0.021820
  32 H :    0.021830
  33 H :    0.007758

  Mayer bond orders larger than 0.100000
B(  0-S ,  1-C ) :   1.1584 B(  0-S ,  4-C ) :   1.1306 B(  1-C ,  2-C ) :   1.5929
B(  1-C ,  4-C ) :   0.1010 B(  1-C , 32-H ) :   0.9639 B(  2-C ,  3-C ) :   1.2909
B(  2-C ,  6-C ) :   0.9959 B(  3-C ,  4-C ) :   1.5484 B(  3-C ,  5-H ) :   0.9790
B(  4-C , 20-C ) :   1.0645 B(  6-C ,  7-H ) :   0.9321 B(  6-C ,  8-H ) :   0.9517
B(  6-C ,  9-C ) :   1.0793 B(  9-C , 10-H ) :   0.9528 B(  9-C , 11-H ) :   0.9520
B(  9-C , 12-C ) :   1.0672 B( 12-C , 13-H ) :   0.9754 B( 12-C , 14-H ) :   0.9756
B( 12-C , 15-H ) :   0.9717 B( 16-S , 17-C ) :   1.1550 B( 16-S , 20-C ) :   1.1466
B( 17-C , 18-C ) :   1.5881 B( 17-C , 20-C ) :   0.1056 B( 17-C , 33-H ) :   0.9791
B( 18-C , 19-C ) :   1.2602 B( 18-C , 21-H ) :   0.9943 B( 19-C , 20-C ) :   1.5551
B( 19-C , 22-C ) :   1.0467 B( 22-C , 23-H ) :   0.9198 B( 22-C , 24-H ) :   0.9384
B( 22-C , 25-C ) :   1.0682 B( 25-C , 26-H ) :   0.9504 B( 25-C , 27-H ) :   0.9576
B( 25-C , 28-C ) :   1.0796 B( 28-C , 29-H ) :   0.9765 B( 28-C , 30-H ) :   0.9738
B( 28-C , 31-H ) :   0.9770

Dispersion correction           -0.015334066
FINAL SINGLE POINT ENERGY     -1339.868578472164

DIPOLE MOMENT
-------------
                                X             Y             Z
Electronic contribution:      8.47237       5.56116       4.03672
Nuclear contribution   :     -8.84166      -5.72232      -4.33206
                        -----------------------------------------
Total Dipole Moment    :     -0.36929      -0.16115      -0.29534
                        -----------------------------------------
Magnitude (a.u.)       :      0.49957
Magnitude (Debye)      :      1.26982

Rotational constants in cm-1:     0.022588     0.008516     0.006846
Rotational constants in MHz :   677.185421   255.316792   205.247121

                             ****ORCA TERMINATED NORMALLY****
TOTAL RUN TIME: 0 days 0 hours 0 minutes 34 seconds 317 msec
