                         Program Version 4.2.1 -  RELEASE  -
|  1> ! wB97X-D3 SP def2-SVP
|  2> %pal
|  3> nprocs 16
|  4> end
|  5>
|  6> * xyz 0 1
|  7> S 	 -41.9899 	 49.3082 	 102.876
|  8> C 	 -40.3482 	 49.1631 	 103.532
|  9> C 	 -39.5327 	 50.169 	 102.986
| 10> C 	 -40.3005 	 51.0331 	 102.169
| 11> C 	 -41.6908 	 50.8117 	 102.109
| 12> H 	 -39.9158 	 51.8542 	 101.581
| 13> C 	 -38.05 	 50.3205 	 103.287
| 14> H 	 -37.7612 	 49.7242 	 104.203
| 15> H 	 -37.7898 	 51.4208 	 103.476
| 16> C 	 -37.0316 	 49.7906 	 102.232
| 17> H 	 -36.1255 	 49.474 	 102.732
| 18> H 	 -37.5414 	 48.957 	 101.784
| 19> C 	 -36.6124 	 50.7881 	 101.121
| 20> H 	 -35.711 	 50.5031 	 100.524
| 21> H 	 -37.3184 	 50.9847 	 100.384
| 22> H 	 -36.2816 	 51.7381 	 101.571
| 23> S 	 -43.1879 	 53.0907 	 102.012
| 24> C 	 -43.9845 	 53.429 	 100.553
| 25> C 	 -43.7391 	 52.5537 	 99.5262
| 26> C 	 -42.8893 	 51.5062 	 99.947
| 27> C 	 -42.578 	 51.6115 	 101.28
| 28> H 	 -44.2368 	 52.7505 	 98.5521
| 29> C 	 -42.5041 	 50.4239 	 99.0339
| 30> H 	 -43.4159 	 49.9067 	 98.6515
| 31> H 	 -41.9225 	 49.6675 	 99.6083
| 32> C 	 -41.6025 	 50.9257 	 97.875
| 33> H 	 -40.601 	 51.0849 	 98.2707
| 34> H 	 -41.9967 	 51.8017 	 97.3436
| 35> C 	 -41.378 	 49.6824 	 96.9678
| 36> H 	 -40.7575 	 49.8742 	 96.0622
| 37> H 	 -42.3487 	 49.272 	 96.7187
| 38> H 	 -40.7295 	 48.9316 	 97.5286
| 39> H 	 -40.0932 	 48.3767 	 104.25
| 40> H 	 -44.647 	 54.3471 	 100.337
| 41> *
| 42>
| 43>                          ****END OF INPUT****

CARTESIAN COORDINATES (ANGSTROEM)
---------------------------------
  S    -41.989900   49.308200  102.876000
  C    -40.348200   49.163100  103.532000
  C    -39.532700   50.169000  102.986000
  C    -40.300500   51.033100  102.169000
  C    -41.690800   50.811700  102.109000
  H    -39.915800   51.854200  101.581000
  C    -38.050000   50.320500  103.287000
  H    -37.761200   49.724200  104.203000
  H    -37.789800   51.420800  103.476000
  C    -37.031600   49.790600  102.232000
  H    -36.125500   49.474000  102.732000
  H    -37.541400   48.957000  101.784000
  C    -36.612400   50.788100  101.121000
  H    -35.711000   50.503100  100.524000
  H    -37.318400   50.984700  100.384000
  H    -36.281600   51.738100  101.571000
  S    -43.187900   53.090700  102.012000
  C    -43.984500   53.429000  100.553000
  C    -43.739100   52.553700   99.526200
  C    -42.889300   51.506200   99.947000
  C    -42.578000   51.611500  101.280000
  H    -44.236800   52.750500   98.552100
  C    -42.504100   50.423900   99.033900
  H    -43.415900   49.906700   98.651500
  H    -41.922500   49.667500   99.608300
  C    -41.602500   50.925700   97.875000
  H    -40.601000   51.084900   98.270700
  H    -41.996700   51.801700   97.343600
  C    -41.378000   49.682400   96.967800
  H    -40.757500   49.874200   96.062200
  H    -42.348700   49.272000   96.718700
  H    -40.729500   48.931600   97.528600
  H    -40.093200   48.376700  104.250000
  H    -44.647000   54.347100  100.337000

 Total Charge           Charge          ....    0
 Multiplicity           Mult            ....    1
 Number of Electrons    NEL             ....  134
 Basis Dimension        Dim             ....  322

ORBITAL ENERGIES
----------------

  NO   OCC          E(Eh)            E(eV)
   0   2.0000     -88.967029     -2420.9159
   1   2.0000     -88.966465     -2420.9006
   2   2.0000     -10.325492      -280.9709
   3   2.0000     -10.321408      -280.8598
   4   2.0000     -10.321133      -280.8523
   5   2.0000     -10.316200      -280.7181
   6   2.0000     -10.306144      -280.4444
   7   2.0000     -10.303592      -280.3750
   8   2.0000     -10.297774      -280.2167
   9   2.0000     -10.291968      -280.0587
  10   2.0000     -10.291577      -280.0480
  11   2.0000     -10.290209      -280.0108
  12   2.0000     -10.289567      -279.9934
  13   2.0000     -10.287646      -279.9411
  14   2.0000     -10.283777      -279.8358
  15   2.0000     -10.276619      -279.6410
  16   2.0000      -8.082118      -219.9256
  17   2.0000      -8.081519      -219.9093
  18   2.0000      -6.040377      -164.3670
  19   2.0000      -6.039875      -164.3534
  20   2.0000      -6.036643      -164.2654
  21   2.0000      -6.035907      -164.2454
  22   2.0000      -6.032927      -164.1643
  23   2.0000      -6.032599      -164.1554
  24   2.0000      -1.010965       -27.5098
  25   2.0000      -0.987352       -26.8672
  26   2.0000      -0.913205       -24.8496
  27   2.0000      -0.906203       -24.6590
  28   2.0000      -0.867541       -23.6070
  29   2.0000      -0.853917       -23.2363
  30   2.0000      -0.844310       -22.9748
  31   2.0000      -0.808906       -22.0114
  32   2.0000      -0.782282       -21.2870
  33   2.0000      -0.766835       -20.8666
  34   2.0000      -0.701874       -19.0990
  35   2.0000      -0.699523       -19.0350
  36   2.0000      -0.691267       -18.8103
  37   2.0000      -0.655858       -17.8468
  38   2.0000      -0.641657       -17.4604
  39   2.0000      -0.614903       -16.7323
  40   2.0000      -0.596179       -16.2229
  41   2.0000      -0.574514       -15.6333
  42   2.0000      -0.568570       -15.4716
  43   2.0000      -0.545103       -14.8330
  44   2.0000      -0.538658       -14.6576
  45   2.0000      -0.520333       -14.1590
  46   2.0000      -0.517601       -14.0846
  47   2.0000      -0.508393       -13.8341
  48   2.0000      -0.504747       -13.7349
  49   2.0000      -0.491465       -13.3735
  50   2.0000      -0.486687       -13.2434
  51   2.0000      -0.481796       -13.1103
  52   2.0000      -0.468632       -12.7521
  53   2.0000      -0.461037       -12.5454
  54   2.0000      -0.459387       -12.5006
  55   2.0000      -0.445777       -12.1302
  56   2.0000      -0.441340       -12.0095
  57   2.0000      -0.434496       -11.8232
  58   2.0000      -0.432524       -11.7696
  59   2.0000      -0.427519       -11.6334
  60   2.0000      -0.421131       -11.4596
  61   2.0000      -0.418822       -11.3967
  62   2.0000      -0.416400       -11.3308
  63   2.0000      -0.335370        -9.1259
  64   2.0000      -0.328273        -8.9328
  65   2.0000      -0.321470        -8.7476
  66   2.0000      -0.309082        -8.4105
  67   0.0000       0.044341         1.2066
  68   0.0000       0.055758         1.5173
  69   0.0000       0.111297         3.0285
  70   0.0000       0.120151         3.2695
  71   0.0000       0.130838         3.5603

MULLIKEN ATOMIC CHARGES
-----------------------
   0 S :    0.116060
   1 C :   -0.148618
   2 C :   -0.039314
   3 C :    0.029773
   4 C :   -0.179002
   5 H :    0.008886
   6 C :    0.012125
   7 H :    0.033656
   8 H :    0.043370
   9 C :   -0.041896
  10 H :    0.033204
  11 H :    0.027287
  12 C :   -0.061557
  13 H :    0.031620
  14 H :    0.023445
  15 H :    0.023149
  16 S :    0.132722
  17 C :   -0.111038
  18 C :   -0.064874
  19 C :    0.035612
  20 C :   -0.208656
  21 H :    0.030068
  22 C :    0.033426
  23 H :    0.042145
  24 H :    0.026699
  25 C :   -0.084695
  26 H :    0.031789
  27 H :    0.045898
  28 C :   -0.063050
  29 H :    0.038984
  30 H :    0.028505
  31 H :    0.037291
  32 H :    0.062417
  33 H :    0.074572
Sum of atomic charges:    0.0000000

LOEWDIN ATOMIC CHARGES
----------------------
   0 S :    0.419898
   1 C :   -0.191302
   2 C :   -0.069623
   3 C :   -0.062079
   4 C :   -0.223203
   5 H :    0.027562
   6 C :   -0.037912
   7 H :    0.038921
   8 H :    0.036460
   9 C :   -0.036423
  10 H :    0.025516
  11 H :    0.023325
  12 C :   -0.071845
  13 H :    0.032097
  14 H :    0.013268
  15 H :    0.024400
  16 S :    0.429485
  17 C :   -0.209148
  18 C :   -0.084685
  19 C :   -0.052421
  20 C :   -0.204930
  21 H :    0.039490
  22 C :   -0.034618
  23 H :    0.035918
  24 H :    0.033170
  25 C :   -0.035019
  26 H :    0.027623
  27 H :    0.023747
  28 C :   -0.070373
  29 H :    0.025848
  30 H :    0.018194
  31 H :    0.032283
  32 H :    0.031840
  33 H :    0.044537

  Mayer bond orders larger than 0.100000
B(  0-S ,  1-C ) :   1.1670 B(  0-S ,  4-C ) :   1.1603 B(  1-C ,  2-C ) :   1.5423
B(  1-C ,  4-C ) :   0.1100 B(  1-C , 32-H ) :   0.9713 B(  2-C ,  3-C ) :   1.2733
B(  2-C ,  6-C ) :   1.0338 B(  3-C ,  4-C ) :   1.5442 B(  3-C ,  5-H ) :   0.9965
B(  4-C , 20-C ) :   1.0155 B(  6-C ,  7-H ) :   0.9431 B(  6-C ,  8-H ) :   0.9469
B(  6-C ,  9-C ) :   1.0529 B(  9-C , 10-H ) :   0.9612 B(  9-C , 11-H ) :   0.9553
B(  9-C , 12-C ) :   1.0786 B( 12-C , 13-H ) :   0.9732 B( 12-C , 14-H ) :   0.9790
B( 12-C , 15-H ) :   0.9743 B( 16-S , 17-C ) :   1.1709 B( 16-S , 20-C ) :   1.1395
B( 17-C , 18-C ) :   1.6339 B( 17-C , 33-H ) :   0.9501 B( 18-C , 19-C ) :   1.2121
B( 18-C , 21-H ) :   0.9875 B( 19-C , 20-C ) :   1.6201 B( 19-C , 22-C ) :   1.0534
B( 22-C , 23-H ) :   0.9393 B( 22-C , 24-H ) :   0.9264 B( 22-C , 25-C ) :   1.0540
B( 25-C , 26-H ) :   0.9523 B( 25-C , 27-H ) :   0.9641 B( 25-C , 28-C ) :   1.0758
B( 28-C , 29-H ) :   0.9743 B( 28-C , 30-H ) :   0.9758 B( 28-C , 31-H ) :   0.9741

Dispersion correction           -0.014320851
FINAL SINGLE POINT ENERGY     -1339.877345415747

DIPOLE MOMENT
-------------
                                X             Y             Z
Electronic contribution:    -21.46226       5.80015      17.32625
Nuclear contribution   :     21.88936      -5.80607     -17.74489
                        -----------------------------------------
Total Dipole Moment    :      0.42709      -0.00592      -0.41863
                        -----------------------------------------
Magnitude (a.u.)       :      0.59808
Magnitude (Debye)      :      1.52020

Rotational constants in cm-1:     0.016236     0.009184     0.007450
Rotational constants in MHz :   486.743351   275.336457   223.334618

                             ****ORCA TERMINATED NORMALLY****
TOTAL RUN TIME: 0 days 0 hours 0 minutes 30 seconds 14 msec
