                         Program Version 4.2.1 -  RELEASE  -
|  1> ! wB97X-D3 SP def2-SVP
|  2> %pal
|  3> nprocs 16
|  4> end
|  5>
|  6> * xyz 0 1
|  7> S 	 -29.4585 	 74.164 	 162.112
|  8> C 	 -28.435 	 74.1003 	 160.682
|  9> C 	 -28.815 	 75.2115 	 159.853
| 10> C 	 -29.9252 	 75.9431 	 160.347
| 11> C 	 -30.5029 	 75.4122 	 161.489
| 12> H 	 -30.4504 	 76.8346 	 159.935
| 13> C 	 -28.0767 	 75.6292 	 158.525
| 14> H 	 -27.0899 	 75.2151 	 158.654
| 15> H 	 -28.0764 	 76.7399 	 158.455
| 16> C 	 -28.657 	 75.0487 	 157.312
| 17> H 	 -27.9462 	 75.4006 	 156.498
| 18> H 	 -28.619 	 73.9785 	 157.362
| 19> C 	 -30.1557 	 75.4823 	 157.116
| 20> H 	 -30.9235 	 75.0032 	 157.885
| 21> H 	 -30.4226 	 76.5353 	 157.053
| 22> H 	 -30.3623 	 74.873 	 156.189
| 23> S 	 -32.2655 	 77.3429 	 162.701
| 24> C 	 -33.8978 	 76.766 	 163.056
| 25> C 	 -34.1161 	 75.4646 	 162.653
| 26> C 	 -32.9446 	 74.8335 	 162.101
| 27> C 	 -31.8462 	 75.7248 	 162.022
| 28> H 	 -35.0326 	 74.9725 	 162.771
| 29> C 	 -32.9553 	 73.3981 	 161.581
| 30> H 	 -31.9511 	 73.0452 	 161.465
| 31> H 	 -33.5325 	 73.2221 	 160.644
| 32> C 	 -33.5378 	 72.4184 	 162.63
| 33> H 	 -33.4461 	 71.4454 	 162.227
| 34> H 	 -34.5265 	 72.6407 	 162.838
| 35> C 	 -32.7284 	 72.5136 	 163.951
| 36> H 	 -32.9842 	 71.7497 	 164.662
| 37> H 	 -32.6981 	 73.4802 	 164.427
| 38> H 	 -31.6274 	 72.4308 	 163.768
| 39> H 	 -27.5812 	 73.4266 	 160.487
| 40> H 	 -34.5507 	 77.5006 	 163.523
| 41> *
| 42>
| 43>                          ****END OF INPUT****

CARTESIAN COORDINATES (ANGSTROEM)
---------------------------------
  S    -29.458500   74.164000  162.112000
  C    -28.435000   74.100300  160.682000
  C    -28.815000   75.211500  159.853000
  C    -29.925200   75.943100  160.347000
  C    -30.502900   75.412200  161.489000
  H    -30.450400   76.834600  159.935000
  C    -28.076700   75.629200  158.525000
  H    -27.089900   75.215100  158.654000
  H    -28.076400   76.739900  158.455000
  C    -28.657000   75.048700  157.312000
  H    -27.946200   75.400600  156.498000
  H    -28.619000   73.978500  157.362000
  C    -30.155700   75.482300  157.116000
  H    -30.923500   75.003200  157.885000
  H    -30.422600   76.535300  157.053000
  H    -30.362300   74.873000  156.189000
  S    -32.265500   77.342900  162.701000
  C    -33.897800   76.766000  163.056000
  C    -34.116100   75.464600  162.653000
  C    -32.944600   74.833500  162.101000
  C    -31.846200   75.724800  162.022000
  H    -35.032600   74.972500  162.771000
  C    -32.955300   73.398100  161.581000
  H    -31.951100   73.045200  161.465000
  H    -33.532500   73.222100  160.644000
  C    -33.537800   72.418400  162.630000
  H    -33.446100   71.445400  162.227000
  H    -34.526500   72.640700  162.838000
  C    -32.728400   72.513600  163.951000
  H    -32.984200   71.749700  164.662000
  H    -32.698100   73.480200  164.427000
  H    -31.627400   72.430800  163.768000
  H    -27.581200   73.426600  160.487000
  H    -34.550700   77.500600  163.523000

 Total Charge           Charge          ....    0
 Multiplicity           Mult            ....    1
 Number of Electrons    NEL             ....  134
 Basis Dimension        Dim             ....  322

ORBITAL ENERGIES
----------------

  NO   OCC          E(Eh)            E(eV)
   0   2.0000     -88.968963     -2420.9686
   1   2.0000     -88.968331     -2420.9514
   2   2.0000     -10.335235      -281.2360
   3   2.0000     -10.328742      -281.0594
   4   2.0000     -10.324613      -280.9470
   5   2.0000     -10.323747      -280.9234
   6   2.0000     -10.310449      -280.5616
   7   2.0000     -10.307927      -280.4930
   8   2.0000     -10.296374      -280.1786
   9   2.0000     -10.294788      -280.1354
  10   2.0000     -10.289675      -279.9963
  11   2.0000     -10.289223      -279.9840
  12   2.0000     -10.289096      -279.9805
  13   2.0000     -10.288845      -279.9737
  14   2.0000     -10.277020      -279.6519
  15   2.0000     -10.268405      -279.4175
  16   2.0000      -8.082597      -219.9386
  17   2.0000      -8.082028      -219.9232
  18   2.0000      -6.041117      -164.3872
  19   2.0000      -6.040498      -164.3703
  20   2.0000      -6.037047      -164.2764
  21   2.0000      -6.036761      -164.2686
  22   2.0000      -6.033602      -164.1827
  23   2.0000      -6.032828      -164.1616
  24   2.0000      -0.998985       -27.1838
  25   2.0000      -0.977581       -26.6013
  26   2.0000      -0.913489       -24.8573
  27   2.0000      -0.907721       -24.7004
  28   2.0000      -0.862984       -23.4830
  29   2.0000      -0.842247       -22.9187
  30   2.0000      -0.836978       -22.7753
  31   2.0000      -0.808955       -22.0128
  32   2.0000      -0.780739       -21.2450
  33   2.0000      -0.769345       -20.9349
  34   2.0000      -0.706089       -19.2137
  35   2.0000      -0.693066       -18.8593
  36   2.0000      -0.691403       -18.8140
  37   2.0000      -0.659282       -17.9400
  38   2.0000      -0.636284       -17.3142
  39   2.0000      -0.612947       -16.6791
  40   2.0000      -0.600221       -16.3328
  41   2.0000      -0.575012       -15.6469
  42   2.0000      -0.551858       -15.0168
  43   2.0000      -0.547743       -14.9049
  44   2.0000      -0.542150       -14.7526
  45   2.0000      -0.532080       -14.4786
  46   2.0000      -0.516674       -14.0594
  47   2.0000      -0.515650       -14.0316
  48   2.0000      -0.505047       -13.7430
  49   2.0000      -0.492899       -13.4125
  50   2.0000      -0.484857       -13.1936
  51   2.0000      -0.476157       -12.9569
  52   2.0000      -0.463232       -12.6052
  53   2.0000      -0.460661       -12.5352
  54   2.0000      -0.456282       -12.4161
  55   2.0000      -0.446675       -12.1547
  56   2.0000      -0.441037       -12.0012
  57   2.0000      -0.433111       -11.7856
  58   2.0000      -0.428091       -11.6490
  59   2.0000      -0.422051       -11.4846
  60   2.0000      -0.419031       -11.4024
  61   2.0000      -0.411595       -11.2001
  62   2.0000      -0.403443       -10.9783
  63   2.0000      -0.339569        -9.2402
  64   2.0000      -0.334281        -9.0963
  65   2.0000      -0.324340        -8.8257
  66   2.0000      -0.295638        -8.0447
  67   0.0000       0.028468         0.7747
  68   0.0000       0.061024         1.6605
  69   0.0000       0.103953         2.8287
  70   0.0000       0.117124         3.1871
  71   0.0000       0.121258         3.2996

MULLIKEN ATOMIC CHARGES
-----------------------
   0 S :    0.113508
   1 C :   -0.136392
   2 C :   -0.127843
   3 C :    0.041377
   4 C :   -0.180377
   5 H :    0.026722
   6 C :    0.077937
   7 H :    0.012036
   8 H :    0.038088
   9 C :   -0.050744
  10 H :    0.045178
  11 H :    0.021496
  12 C :   -0.123754
  13 H :    0.064762
  14 H :    0.046961
  15 H :    0.041388
  16 S :    0.096423
  17 C :   -0.105629
  18 C :    0.015984
  19 C :   -0.054676
  20 C :   -0.160829
  21 H :    0.003631
  22 C :    0.077614
  23 H :    0.018175
  24 H :    0.049513
  25 C :   -0.040749
  26 H :    0.024254
  27 H :    0.015134
  28 C :   -0.074455
  29 H :    0.033709
  30 H :    0.038181
  31 H :    0.018073
  32 H :    0.066557
  33 H :    0.068748
Sum of atomic charges:   -0.0000000

LOEWDIN ATOMIC CHARGES
----------------------
   0 S :    0.422586
   1 C :   -0.214504
   2 C :   -0.059633
   3 C :   -0.069698
   4 C :   -0.201342
   5 H :    0.038780
   6 C :   -0.033820
   7 H :    0.024853
   8 H :    0.033973
   9 C :   -0.044208
  10 H :    0.034432
  11 H :    0.022516
  12 C :   -0.085341
  13 H :    0.043478
  14 H :    0.022111
  15 H :    0.033467
  16 S :    0.375271
  17 C :   -0.168391
  18 C :   -0.062240
  19 C :   -0.043596
  20 C :   -0.190569
  21 H :    0.024596
  22 C :   -0.028009
  23 H :    0.018817
  24 H :    0.037818
  25 C :   -0.026586
  26 H :    0.022162
  27 H :    0.007985
  28 C :   -0.073526
  29 H :    0.021785
  30 H :    0.025452
  31 H :    0.024629
  32 H :    0.038029
  33 H :    0.028721

  Mayer bond orders larger than 0.100000
B(  0-S ,  1-C ) :   1.1468 B(  0-S ,  4-C ) :   1.1647 B(  1-C ,  2-C ) :   1.5637
B(  1-C ,  4-C ) :   0.1098 B(  1-C , 32-H ) :   0.9685 B(  2-C ,  3-C ) :   1.2718
B(  2-C ,  6-C ) :   1.0052 B(  3-C ,  4-C ) :   1.5561 B(  3-C ,  5-H ) :   0.9845
B(  4-C , 20-C ) :   1.0239 B(  6-C ,  7-H ) :   0.9349 B(  6-C ,  8-H ) :   0.9472
B(  6-C ,  9-C ) :   1.0940 B(  9-C , 10-H ) :   0.9536 B(  9-C , 11-H ) :   0.9481
B(  9-C , 12-C ) :   1.0654 B( 12-C , 13-H ) :   0.9655 B( 12-C , 14-H ) :   0.9772
B( 12-C , 15-H ) :   0.9745 B( 16-S , 17-C ) :   1.1560 B( 16-S , 20-C ) :   1.1293
B( 17-C , 18-C ) :   1.5929 B( 17-C , 33-H ) :   0.9692 B( 18-C , 19-C ) :   1.2296
B( 18-C , 21-H ) :   1.0009 B( 19-C , 20-C ) :   1.5922 B( 19-C , 22-C ) :   1.0449
B( 22-C , 23-H ) :   0.9289 B( 22-C , 24-H ) :   0.9405 B( 22-C , 25-C ) :   1.0707
B( 25-C , 26-H ) :   0.9567 B( 25-C , 27-H ) :   0.9570 B( 25-C , 28-C ) :   1.0712
B( 28-C , 29-H ) :   0.9759 B( 28-C , 30-H ) :   0.9698 B( 28-C , 31-H ) :   0.9710

Dispersion correction           -0.015756448
FINAL SINGLE POINT ENERGY     -1339.862870860682

DIPOLE MOMENT
-------------
                                X             Y             Z
Electronic contribution:      1.68246      11.44039      13.14451
Nuclear contribution   :     -1.83470     -11.64784     -13.56234
                        -----------------------------------------
Total Dipole Moment    :     -0.15223      -0.20745      -0.41782
                        -----------------------------------------
Magnitude (a.u.)       :      0.49070
Magnitude (Debye)      :      1.24725

Rotational constants in cm-1:     0.020257     0.008704     0.007737
Rotational constants in MHz :   607.279629   260.931790   231.963023

                             ****ORCA TERMINATED NORMALLY****
TOTAL RUN TIME: 0 days 0 hours 0 minutes 34 seconds 133 msec
