                         Program Version 4.2.1 -  RELEASE  -
|  1> ! wB97X-D3 SP def2-SVP
|  2> %pal
|  3> nprocs 16
|  4> end
|  5>
|  6> * xyz 0 1
|  7> S 	 46.822 	 19.6574 	 48.4326
|  8> C 	 45.6803 	 19.2118 	 47.2265
|  9> C 	 44.3306 	 19.1814 	 47.5787
| 10> C 	 44.2289 	 19.7565 	 48.8897
| 11> C 	 45.391 	 19.9467 	 49.5767
| 12> H 	 43.2795 	 19.8061 	 49.4067
| 13> C 	 43.1137 	 18.7555 	 46.8258
| 14> H 	 43.2567 	 18.6604 	 45.8037
| 15> H 	 42.2553 	 19.5159 	 46.8618
| 16> C 	 42.4928 	 17.404 	 47.317
| 17> H 	 41.9004 	 17.581 	 48.2393
| 18> H 	 41.6537 	 17.2221 	 46.6391
| 19> C 	 43.4916 	 16.2159 	 47.4974
| 20> H 	 43.0094 	 15.2139 	 47.5251
| 21> H 	 44.0778 	 16.1251 	 46.5768
| 22> H 	 44.0702 	 16.2606 	 48.3587
| 23> S 	 46.7763 	 21.5303 	 51.2277
| 24> C 	 46.654 	 21.2865 	 52.9279
| 25> C 	 45.5944 	 20.4417 	 53.285
| 26> C 	 44.9739 	 19.8589 	 52.1418
| 27> C 	 45.5799 	 20.3271 	 50.9659
| 28> H 	 45.3472 	 20.103 	 54.2838
| 29> C 	 43.865 	 18.837 	 52.2086
| 30> H 	 44.2208 	 17.8504 	 52.5643
| 31> H 	 43.5047 	 18.612 	 51.193
| 32> C 	 42.6565 	 19.3089 	 53.0572
| 33> H 	 42.8667 	 19.8924 	 53.9684
| 34> H 	 42.1189 	 18.4926 	 53.5624
| 35> C 	 41.8098 	 20.3648 	 52.3071
| 36> H 	 41.7085 	 20.1066 	 51.2501
| 37> H 	 42.398 	 21.2448 	 52.2566
| 38> H 	 40.9077 	 20.5301 	 52.8065
| 39> H 	 45.9139 	 18.7349 	 46.3303
| 40> H 	 47.292 	 21.6039 	 53.7667
| 41> *
| 42>
| 43>                          ****END OF INPUT****

CARTESIAN COORDINATES (ANGSTROEM)
---------------------------------
  S     46.822000   19.657400   48.432600
  C     45.680300   19.211800   47.226500
  C     44.330600   19.181400   47.578700
  C     44.228900   19.756500   48.889700
  C     45.391000   19.946700   49.576700
  H     43.279500   19.806100   49.406700
  C     43.113700   18.755500   46.825800
  H     43.256700   18.660400   45.803700
  H     42.255300   19.515900   46.861800
  C     42.492800   17.404000   47.317000
  H     41.900400   17.581000   48.239300
  H     41.653700   17.222100   46.639100
  C     43.491600   16.215900   47.497400
  H     43.009400   15.213900   47.525100
  H     44.077800   16.125100   46.576800
  H     44.070200   16.260600   48.358700
  S     46.776300   21.530300   51.227700
  C     46.654000   21.286500   52.927900
  C     45.594400   20.441700   53.285000
  C     44.973900   19.858900   52.141800
  C     45.579900   20.327100   50.965900
  H     45.347200   20.103000   54.283800
  C     43.865000   18.837000   52.208600
  H     44.220800   17.850400   52.564300
  H     43.504700   18.612000   51.193000
  C     42.656500   19.308900   53.057200
  H     42.866700   19.892400   53.968400
  H     42.118900   18.492600   53.562400
  C     41.809800   20.364800   52.307100
  H     41.708500   20.106600   51.250100
  H     42.398000   21.244800   52.256600
  H     40.907700   20.530100   52.806500
  H     45.913900   18.734900   46.330300
  H     47.292000   21.603900   53.766700

 Total Charge           Charge          ....    0
 Multiplicity           Mult            ....    1
 Number of Electrons    NEL             ....  134
 Basis Dimension        Dim             ....  322

ORBITAL ENERGIES
----------------

  NO   OCC          E(Eh)            E(eV)
   0   2.0000     -88.970478     -2421.0098
   1   2.0000     -88.968255     -2420.9493
   2   2.0000     -10.331761      -281.1415
   3   2.0000     -10.323275      -280.9106
   4   2.0000     -10.317331      -280.7489
   5   2.0000     -10.309671      -280.5404
   6   2.0000     -10.303618      -280.3757
   7   2.0000     -10.300807      -280.2992
   8   2.0000     -10.297328      -280.2046
   9   2.0000     -10.297154      -280.1998
  10   2.0000     -10.294780      -280.1352
  11   2.0000     -10.294174      -280.1187
  12   2.0000     -10.291000      -280.0323
  13   2.0000     -10.289231      -279.9842
  14   2.0000     -10.278712      -279.6980
  15   2.0000     -10.269829      -279.4563
  16   2.0000      -8.085951      -220.0299
  17   2.0000      -8.082003      -219.9225
  18   2.0000      -6.044365      -164.4755
  19   2.0000      -6.040605      -164.3732
  20   2.0000      -6.040358      -164.3665
  21   2.0000      -6.036884      -164.2720
  22   2.0000      -6.036757      -164.2685
  23   2.0000      -6.032480      -164.1521
  24   2.0000      -1.007642       -27.4193
  25   2.0000      -0.981978       -26.7210
  26   2.0000      -0.910680       -24.7809
  27   2.0000      -0.906672       -24.6718
  28   2.0000      -0.867931       -23.6176
  29   2.0000      -0.853792       -23.2329
  30   2.0000      -0.844790       -22.9879
  31   2.0000      -0.812820       -22.1180
  32   2.0000      -0.786900       -21.4126
  33   2.0000      -0.774278       -21.0692
  34   2.0000      -0.710670       -19.3383
  35   2.0000      -0.701389       -19.0858
  36   2.0000      -0.697146       -18.9703
  37   2.0000      -0.659579       -17.9481
  38   2.0000      -0.640278       -17.4229
  39   2.0000      -0.625436       -17.0190
  40   2.0000      -0.598013       -16.2728
  41   2.0000      -0.565123       -15.3778
  42   2.0000      -0.560993       -15.2654
  43   2.0000      -0.547160       -14.8890
  44   2.0000      -0.537917       -14.6375
  45   2.0000      -0.527735       -14.3604
  46   2.0000      -0.514395       -13.9974
  47   2.0000      -0.507983       -13.8229
  48   2.0000      -0.503516       -13.7014
  49   2.0000      -0.497788       -13.5455
  50   2.0000      -0.493063       -13.4169
  51   2.0000      -0.476583       -12.9685
  52   2.0000      -0.468422       -12.7464
  53   2.0000      -0.461925       -12.5696
  54   2.0000      -0.460157       -12.5215
  55   2.0000      -0.453214       -12.3326
  56   2.0000      -0.449841       -12.2408
  57   2.0000      -0.442149       -12.0315
  58   2.0000      -0.434710       -11.8291
  59   2.0000      -0.427636       -11.6366
  60   2.0000      -0.425028       -11.5656
  61   2.0000      -0.415726       -11.3125
  62   2.0000      -0.405542       -11.0354
  63   2.0000      -0.350756        -9.5446
  64   2.0000      -0.334166        -9.0931
  65   2.0000      -0.328268        -8.9326
  66   2.0000      -0.284609        -7.7446
  67   0.0000       0.025444         0.6924
  68   0.0000       0.068863         1.8739
  69   0.0000       0.101024         2.7490
  70   0.0000       0.117139         3.1875
  71   0.0000       0.127065         3.4576

MULLIKEN ATOMIC CHARGES
-----------------------
   0 S :    0.106915
   1 C :   -0.060901
   2 C :   -0.104142
   3 C :    0.047370
   4 C :   -0.142622
   5 H :   -0.006057
   6 C :    0.056388
   7 H :    0.004432
   8 H :    0.044466
   9 C :   -0.098368
  10 H :    0.024227
  11 H :    0.026120
  12 C :   -0.023960
  13 H :    0.031219
  14 H :    0.024764
  15 H :    0.040386
  16 S :    0.136250
  17 C :   -0.088134
  18 C :   -0.049389
  19 C :   -0.037916
  20 C :   -0.175867
  21 H :    0.019167
  22 C :    0.081276
  23 H :    0.039494
  24 H :    0.015399
  25 C :   -0.108084
  26 H :    0.025006
  27 H :    0.025759
  28 C :   -0.013529
  29 H :    0.020013
  30 H :    0.031651
  31 H :    0.029785
  32 H :    0.016709
  33 H :    0.062175
Sum of atomic charges:    0.0000000

LOEWDIN ATOMIC CHARGES
----------------------
   0 S :    0.370800
   1 C :   -0.189807
   2 C :   -0.063074
   3 C :   -0.054078
   4 C :   -0.165691
   5 H :    0.025581
   6 C :   -0.033809
   7 H :    0.018279
   8 H :    0.045557
   9 C :   -0.043680
  10 H :    0.021170
  11 H :    0.024989
  12 C :   -0.064180
  13 H :    0.033090
  14 H :    0.026658
  15 H :    0.019984
  16 S :    0.440925
  17 C :   -0.205907
  18 C :   -0.067694
  19 C :   -0.055220
  20 C :   -0.212585
  21 H :    0.030318
  22 C :   -0.030500
  23 H :    0.036602
  24 H :    0.029928
  25 C :   -0.048031
  26 H :    0.025781
  27 H :    0.022922
  28 C :   -0.053386
  29 H :    0.018652
  30 H :    0.025490
  31 H :    0.020225
  32 H :    0.013276
  33 H :    0.037414

  Mayer bond orders larger than 0.100000
B(  0-S ,  1-C ) :   1.1422 B(  0-S ,  4-C ) :   1.0943 B(  1-C ,  2-C ) :   1.6397
B(  1-C , 32-H ) :   0.9532 B(  2-C ,  3-C ) :   1.2110 B(  2-C ,  6-C ) :   1.0426
B(  3-C ,  4-C ) :   1.6212 B(  3-C ,  5-H ) :   0.9828 B(  4-C , 20-C ) :   1.0575
B(  6-C ,  7-H ) :   0.9363 B(  6-C ,  8-H ) :   0.9422 B(  6-C ,  9-C ) :   1.0648
B(  9-C , 10-H ) :   0.9576 B(  9-C , 11-H ) :   0.9577 B(  9-C , 12-C ) :   1.0614
B( 12-C , 13-H ) :   0.9735 B( 12-C , 14-H ) :   0.9769 B( 12-C , 15-H ) :   0.9754
B( 16-S , 17-C ) :   1.1553 B( 16-S , 20-C ) :   1.1594 B( 17-C , 18-C ) :   1.5960
B( 17-C , 33-H ) :   0.9621 B( 18-C , 19-C ) :   1.2675 B( 18-C , 21-H ) :   0.9824
B( 19-C , 20-C ) :   1.5574 B( 19-C , 22-C ) :   1.0430 B( 22-C , 23-H ) :   0.9309
B( 22-C , 24-H ) :   0.9418 B( 22-C , 25-C ) :   1.0552 B( 25-C , 26-H ) :   0.9606
B( 25-C , 27-H ) :   0.9611 B( 25-C , 28-C ) :   1.0552 B( 28-C , 29-H ) :   0.9757
B( 28-C , 30-H ) :   0.9774 B( 28-C , 31-H ) :   0.9720

Dispersion correction           -0.015481695
FINAL SINGLE POINT ENERGY     -1339.861759597524

DIPOLE MOMENT
-------------
                                X             Y             Z
Electronic contribution:     25.39552      14.31625      -0.33198
Nuclear contribution   :    -25.97727     -14.78143       0.49729
                        -----------------------------------------
Total Dipole Moment    :     -0.58175      -0.46517       0.16531
                        -----------------------------------------
Magnitude (a.u.)       :      0.76299
Magnitude (Debye)      :      1.93936

Rotational constants in cm-1:     0.018321     0.010122     0.007253
Rotational constants in MHz :   549.250578   303.443225   217.433047

                             ****ORCA TERMINATED NORMALLY****
TOTAL RUN TIME: 0 days 0 hours 0 minutes 37 seconds 102 msec
