                         Program Version 4.2.1 -  RELEASE  -
|  1> ! wB97X-D3 SP def2-SVP
|  2> %pal
|  3> nprocs 16
|  4> end
|  5>
|  6> * xyz 0 1
|  7> S 	 -1.92581 	 18.7163 	 53.9403
|  8> C 	 -1.00403 	 18.5664 	 52.4331
|  9> C 	 0.405503 	 18.6139 	 52.7944
| 10> C 	 0.625111 	 18.9257 	 54.1404
| 11> C 	 -0.513463 	 19.0545 	 54.8863
| 12> H 	 1.63363 	 19.0607 	 54.5763
| 13> C 	 1.60662 	 18.6586 	 51.8905
| 14> H 	 2.54549 	 18.3835 	 52.4984
| 15> H 	 1.63936 	 19.7203 	 51.5834
| 16> C 	 1.6239 	 17.7736 	 50.6176
| 17> H 	 1.26347 	 16.7893 	 50.7739
| 18> H 	 0.894477 	 18.1603 	 49.8936
| 19> C 	 2.92365 	 17.7362 	 49.8238
| 20> H 	 3.34137 	 18.7066 	 49.4967
| 21> H 	 3.66066 	 17.2521 	 50.4519
| 22> H 	 2.76861 	 17.0785 	 48.967
| 23> S 	 -1.71056 	 18.5243 	 57.2695
| 24> C 	 -1.41966 	 19.6205 	 58.5889
| 25> C 	 -0.29999 	 20.4746 	 58.3916
| 26> C 	 0.188852 	 20.3205 	 57.0406
| 27> C 	 -0.561645 	 19.4654 	 56.3001
| 28> H 	 -0.0465046 	 21.1314 	 59.2743
| 29> C 	 1.30876 	 21.2976 	 56.5775
| 30> H 	 0.904284 	 22.2762 	 56.7054
| 31> H 	 1.47697 	 21.1487 	 55.4711
| 32> C 	 2.64065 	 21.1637 	 57.3532
| 33> H 	 2.4788 	 21.5553 	 58.3471
| 34> H 	 3.43197 	 21.7928 	 56.88
| 35> C 	 3.26067 	 19.7275 	 57.43
| 36> H 	 2.67033 	 18.9418 	 57.9203
| 37> H 	 4.25395 	 19.8702 	 58.0272
| 38> H 	 3.53046 	 19.3583 	 56.4104
| 39> H 	 -1.40284 	 18.4083 	 51.4275
| 40> H 	 -1.796 	 19.6037 	 59.5944
| 41> *
| 42>
| 43>                          ****END OF INPUT****

CARTESIAN COORDINATES (ANGSTROEM)
---------------------------------
  S     -1.925810   18.716300   53.940300
  C     -1.004030   18.566400   52.433100
  C      0.405503   18.613900   52.794400
  C      0.625111   18.925700   54.140400
  C     -0.513463   19.054500   54.886300
  H      1.633630   19.060700   54.576300
  C      1.606620   18.658600   51.890500
  H      2.545490   18.383500   52.498400
  H      1.639360   19.720300   51.583400
  C      1.623900   17.773600   50.617600
  H      1.263470   16.789300   50.773900
  H      0.894477   18.160300   49.893600
  C      2.923650   17.736200   49.823800
  H      3.341370   18.706600   49.496700
  H      3.660660   17.252100   50.451900
  H      2.768610   17.078500   48.967000
  S     -1.710560   18.524300   57.269500
  C     -1.419660   19.620500   58.588900
  C     -0.299990   20.474600   58.391600
  C      0.188852   20.320500   57.040600
  C     -0.561645   19.465400   56.300100
  H     -0.046505   21.131400   59.274300
  C      1.308760   21.297600   56.577500
  H      0.904284   22.276200   56.705400
  H      1.476970   21.148700   55.471100
  C      2.640650   21.163700   57.353200
  H      2.478800   21.555300   58.347100
  H      3.431970   21.792800   56.880000
  C      3.260670   19.727500   57.430000
  H      2.670330   18.941800   57.920300
  H      4.253950   19.870200   58.027200
  H      3.530460   19.358300   56.410400
  H     -1.402840   18.408300   51.427500
  H     -1.796000   19.603700   59.594400

 Total Charge           Charge          ....    0
 Multiplicity           Mult            ....    1
 Number of Electrons    NEL             ....  134
 Basis Dimension        Dim             ....  322

ORBITAL ENERGIES
----------------

  NO   OCC          E(Eh)            E(eV)
   0   2.0000     -88.970695     -2421.0157
   1   2.0000     -88.968241     -2420.9489
   2   2.0000     -10.328372      -281.0493
   3   2.0000     -10.327715      -281.0314
   4   2.0000     -10.323603      -280.9195
   5   2.0000     -10.316881      -280.7366
   6   2.0000     -10.307824      -280.4901
   7   2.0000     -10.305869      -280.4370
   8   2.0000     -10.302468      -280.3444
   9   2.0000     -10.300434      -280.2891
  10   2.0000     -10.296428      -280.1800
  11   2.0000     -10.294672      -280.1323
  12   2.0000     -10.291019      -280.0329
  13   2.0000     -10.288955      -279.9767
  14   2.0000     -10.283619      -279.8315
  15   2.0000     -10.279651      -279.7235
  16   2.0000      -8.084690      -219.9956
  17   2.0000      -8.082728      -219.9422
  18   2.0000      -6.043261      -164.4455
  19   2.0000      -6.041258      -164.3910
  20   2.0000      -6.039155      -164.3338
  21   2.0000      -6.037454      -164.2875
  22   2.0000      -6.035567      -164.2361
  23   2.0000      -6.033293      -164.1742
  24   2.0000      -1.006352       -27.3842
  25   2.0000      -0.981365       -26.7043
  26   2.0000      -0.909197       -24.7405
  27   2.0000      -0.902177       -24.5495
  28   2.0000      -0.864074       -23.5127
  29   2.0000      -0.855484       -23.2789
  30   2.0000      -0.843709       -22.9585
  31   2.0000      -0.809255       -22.0209
  32   2.0000      -0.780786       -21.2463
  33   2.0000      -0.769345       -20.9349
  34   2.0000      -0.708062       -19.2673
  35   2.0000      -0.698777       -19.0147
  36   2.0000      -0.686818       -18.6893
  37   2.0000      -0.658204       -17.9106
  38   2.0000      -0.636176       -17.3112
  39   2.0000      -0.617268       -16.7967
  40   2.0000      -0.585689       -15.9374
  41   2.0000      -0.566999       -15.4288
  42   2.0000      -0.562160       -15.2972
  43   2.0000      -0.549816       -14.9613
  44   2.0000      -0.540380       -14.7045
  45   2.0000      -0.523588       -14.2476
  46   2.0000      -0.516943       -14.0667
  47   2.0000      -0.508804       -13.8453
  48   2.0000      -0.504361       -13.7243
  49   2.0000      -0.495878       -13.4935
  50   2.0000      -0.492084       -13.3903
  51   2.0000      -0.476115       -12.9557
  52   2.0000      -0.473493       -12.8844
  53   2.0000      -0.463058       -12.6005
  54   2.0000      -0.454918       -12.3789
  55   2.0000      -0.449293       -12.2259
  56   2.0000      -0.443264       -12.0618
  57   2.0000      -0.434857       -11.8331
  58   2.0000      -0.431580       -11.7439
  59   2.0000      -0.425289       -11.5727
  60   2.0000      -0.421677       -11.4744
  61   2.0000      -0.416000       -11.3199
  62   2.0000      -0.409808       -11.1514
  63   2.0000      -0.348638        -9.4869
  64   2.0000      -0.333117        -9.0646
  65   2.0000      -0.330062        -8.9814
  66   2.0000      -0.285588        -7.7712
  67   0.0000       0.025080         0.6825
  68   0.0000       0.069012         1.8779
  69   0.0000       0.097537         2.6541
  70   0.0000       0.118260         3.2180
  71   0.0000       0.126668         3.4468

MULLIKEN ATOMIC CHARGES
-----------------------
   0 S :    0.121315
   1 C :   -0.136553
   2 C :   -0.067202
   3 C :   -0.005899
   4 C :   -0.119412
   5 H :    0.017539
   6 C :    0.001788
   7 H :    0.040038
   8 H :    0.055835
   9 C :   -0.073664
  10 H :    0.020839
  11 H :    0.017531
  12 C :   -0.043406
  13 H :    0.037245
  14 H :    0.023618
  15 H :    0.034804
  16 S :    0.109670
  17 C :   -0.079022
  18 C :   -0.095798
  19 C :   -0.028150
  20 C :   -0.145333
  21 H :    0.050332
  22 C :    0.065028
  23 H :    0.036080
  24 H :    0.026954
  25 C :   -0.083189
  26 H :    0.029501
  27 H :    0.041845
  28 C :   -0.106620
  29 H :    0.057875
  30 H :    0.046936
  31 H :    0.040490
  32 H :    0.063154
  33 H :    0.045830
Sum of atomic charges:   -0.0000000

LOEWDIN ATOMIC CHARGES
----------------------
   0 S :    0.416787
   1 C :   -0.211397
   2 C :   -0.058447
   3 C :   -0.075175
   4 C :   -0.199976
   5 H :    0.035742
   6 C :   -0.039949
   7 H :    0.036995
   8 H :    0.043240
   9 C :   -0.048343
  10 H :    0.019794
  11 H :    0.022040
  12 C :   -0.063045
  13 H :    0.026975
  14 H :    0.020516
  15 H :    0.030022
  16 S :    0.396634
  17 C :   -0.189248
  18 C :   -0.078229
  19 C :   -0.057516
  20 C :   -0.182872
  21 H :    0.045704
  22 C :   -0.029849
  23 H :    0.030091
  24 H :    0.030754
  25 C :   -0.043651
  26 H :    0.019152
  27 H :    0.032499
  28 C :   -0.077042
  29 H :    0.027534
  30 H :    0.038538
  31 H :    0.023925
  32 H :    0.032898
  33 H :    0.024897

  Mayer bond orders larger than 0.100000
B(  0-S ,  1-C ) :   1.1398 B(  0-S ,  4-C ) :   1.1692 B(  1-C ,  2-C ) :   1.5336
B(  1-C ,  4-C ) :   0.1139 B(  1-C , 32-H ) :   0.9745 B(  2-C ,  3-C ) :   1.2906
B(  2-C ,  6-C ) :   1.0247 B(  3-C ,  4-C ) :   1.5353 B(  3-C ,  5-H ) :   0.9881
B(  4-C , 20-C ) :   1.0261 B(  6-C ,  7-H ) :   0.9500 B(  6-C ,  8-H ) :   0.9348
B(  6-C ,  9-C ) :   1.0589 B(  9-C , 10-H ) :   0.9605 B(  9-C , 11-H ) :   0.9471
B(  9-C , 12-C ) :   1.0933 B( 12-C , 13-H ) :   0.9749 B( 12-C , 14-H ) :   0.9747
B( 12-C , 15-H ) :   0.9718 B( 16-S , 17-C ) :   1.1444 B( 16-S , 20-C ) :   1.1256
B( 17-C , 18-C ) :   1.6552 B( 17-C , 33-H ) :   0.9647 B( 18-C , 19-C ) :   1.1832
B( 18-C , 21-H ) :   0.9809 B( 19-C , 20-C ) :   1.6624 B( 19-C , 22-C ) :   1.0194
B( 22-C , 23-H ) :   0.9439 B( 22-C , 24-H ) :   0.9398 B( 22-C , 25-C ) :   1.0680
B( 25-C , 26-H ) :   0.9553 B( 25-C , 27-H ) :   0.9576 B( 25-C , 28-C ) :   1.0709
B( 28-C , 29-H ) :   0.9737 B( 28-C , 30-H ) :   0.9730 B( 28-C , 31-H ) :   0.9728

Dispersion correction           -0.014203563
FINAL SINGLE POINT ENERGY     -1339.868798337604

DIPOLE MOMENT
-------------
                                X             Y             Z
Electronic contribution:    -27.54635      -3.30954      11.34865
Nuclear contribution   :     28.17520       3.60057     -11.42861
                        -----------------------------------------
Total Dipole Moment    :      0.62885       0.29103      -0.07996
                        -----------------------------------------
Magnitude (a.u.)       :      0.69752
Magnitude (Debye)      :      1.77296

Rotational constants in cm-1:     0.019951     0.008138     0.006166
Rotational constants in MHz :   598.125648   243.975666   184.858086

                             ****ORCA TERMINATED NORMALLY****
TOTAL RUN TIME: 0 days 0 hours 0 minutes 32 seconds 607 msec
