                         Program Version 4.2.1 -  RELEASE  -
|  1> ! wB97X-D3 SP def2-SVP
|  2> %pal
|  3> nprocs 16
|  4> end
|  5>
|  6> * xyz 0 1
|  7> S 	 -23.8617 	 -0.392766 	 79.6366
|  8> C 	 -22.2021 	 -0.957557 	 79.467
|  9> C 	 -21.6372 	 -0.438832 	 78.3275
| 10> C 	 -22.525 	 0.225797 	 77.4718
| 11> C 	 -23.8601 	 0.22433 	 77.977
| 12> H 	 -22.3113 	 0.615353 	 76.4882
| 13> C 	 -20.2086 	 -0.667343 	 77.9285
| 14> H 	 -20.3259 	 -0.986296 	 76.877
| 15> H 	 -19.7528 	 -1.48403 	 78.5193
| 16> C 	 -19.2439 	 0.593152 	 78.0213
| 17> H 	 -19.0655 	 0.82579 	 79.0908
| 18> H 	 -18.2407 	 0.287645 	 77.6645
| 19> C 	 -19.6848 	 1.85899 	 77.2651
| 20> H 	 -19.0177 	 2.60407 	 77.6348
| 21> H 	 -19.5436 	 1.91837 	 76.1575
| 22> H 	 -20.7015 	 2.16235 	 77.5082
| 23> S 	 -25.751 	 -0.019102 	 75.9775
| 24> C 	 -26.7715 	 1.35931 	 75.7184
| 25> C 	 -26.3967 	 2.48419 	 76.3845
| 26> C 	 -25.3806 	 2.20321 	 77.4417
| 27> C 	 -24.9698 	 0.831611 	 77.3387
| 28> H 	 -26.8402 	 3.41546 	 76.053
| 29> C 	 -24.7916 	 3.15562 	 78.3411
| 30> H 	 -24.1373 	 3.87203 	 77.7785
| 31> H 	 -24.0983 	 2.65432 	 78.9897
| 32> C 	 -25.8733 	 3.81209 	 79.287
| 33> H 	 -26.4145 	 3.09627 	 79.9219
| 34> H 	 -26.5841 	 4.32637 	 78.6654
| 35> C 	 -25.3573 	 4.92474 	 80.148
| 36> H 	 -26.1239 	 5.26478 	 80.8029
| 37> H 	 -25.0347 	 5.79592 	 79.567
| 38> H 	 -24.4852 	 4.57696 	 80.7615
| 39> H 	 -21.6039 	 -1.41724 	 80.2373
| 40> H 	 -27.4849 	 1.42774 	 74.9911
| 41> *
| 42>
| 43>                          ****END OF INPUT****

CARTESIAN COORDINATES (ANGSTROEM)
---------------------------------
  S    -23.861700   -0.392766   79.636600
  C    -22.202100   -0.957557   79.467000
  C    -21.637200   -0.438832   78.327500
  C    -22.525000    0.225797   77.471800
  C    -23.860100    0.224330   77.977000
  H    -22.311300    0.615353   76.488200
  C    -20.208600   -0.667343   77.928500
  H    -20.325900   -0.986296   76.877000
  H    -19.752800   -1.484030   78.519300
  C    -19.243900    0.593152   78.021300
  H    -19.065500    0.825790   79.090800
  H    -18.240700    0.287645   77.664500
  C    -19.684800    1.858990   77.265100
  H    -19.017700    2.604070   77.634800
  H    -19.543600    1.918370   76.157500
  H    -20.701500    2.162350   77.508200
  S    -25.751000   -0.019102   75.977500
  C    -26.771500    1.359310   75.718400
  C    -26.396700    2.484190   76.384500
  C    -25.380600    2.203210   77.441700
  C    -24.969800    0.831611   77.338700
  H    -26.840200    3.415460   76.053000
  C    -24.791600    3.155620   78.341100
  H    -24.137300    3.872030   77.778500
  H    -24.098300    2.654320   78.989700
  C    -25.873300    3.812090   79.287000
  H    -26.414500    3.096270   79.921900
  H    -26.584100    4.326370   78.665400
  C    -25.357300    4.924740   80.148000
  H    -26.123900    5.264780   80.802900
  H    -25.034700    5.795920   79.567000
  H    -24.485200    4.576960   80.761500
  H    -21.603900   -1.417240   80.237300
  H    -27.484900    1.427740   74.991100

 Total Charge           Charge          ....    0
 Multiplicity           Mult            ....    1
 Number of Electrons    NEL             ....  134
 Basis Dimension        Dim             ....  322

ORBITAL ENERGIES
----------------

  NO   OCC          E(Eh)            E(eV)
   0   2.0000     -88.967097     -2420.9178
   1   2.0000     -88.964383     -2420.8439
   2   2.0000     -10.328638      -281.0565
   3   2.0000     -10.324565      -280.9457
   4   2.0000     -10.310824      -280.5718
   5   2.0000     -10.310373      -280.5595
   6   2.0000     -10.307194      -280.4730
   7   2.0000     -10.296019      -280.1689
   8   2.0000     -10.295847      -280.1643
   9   2.0000     -10.294391      -280.1246
  10   2.0000     -10.294129      -280.1175
  11   2.0000     -10.293980      -280.1134
  12   2.0000     -10.289343      -279.9873
  13   2.0000     -10.284525      -279.8562
  14   2.0000     -10.278443      -279.6907
  15   2.0000     -10.273561      -279.5578
  16   2.0000      -8.080849      -219.8911
  17   2.0000      -8.078888      -219.8377
  18   2.0000      -6.039296      -164.3376
  19   2.0000      -6.037389      -164.2857
  20   2.0000      -6.035518      -164.2348
  21   2.0000      -6.033621      -164.1832
  22   2.0000      -6.031714      -164.1313
  23   2.0000      -6.029471      -164.0703
  24   2.0000      -1.000660       -27.2293
  25   2.0000      -0.978268       -26.6200
  26   2.0000      -0.912211       -24.8225
  27   2.0000      -0.904372       -24.6092
  28   2.0000      -0.871038       -23.7021
  29   2.0000      -0.852508       -23.1979
  30   2.0000      -0.846153       -23.0250
  31   2.0000      -0.814328       -22.1590
  32   2.0000      -0.784428       -21.3454
  33   2.0000      -0.765428       -20.8283
  34   2.0000      -0.707336       -19.2476
  35   2.0000      -0.699184       -19.0258
  36   2.0000      -0.697304       -18.9746
  37   2.0000      -0.651269       -17.7219
  38   2.0000      -0.637934       -17.3591
  39   2.0000      -0.612303       -16.6616
  40   2.0000      -0.596372       -16.2281
  41   2.0000      -0.566519       -15.4158
  42   2.0000      -0.564528       -15.3616
  43   2.0000      -0.543798       -14.7975
  44   2.0000      -0.538489       -14.6530
  45   2.0000      -0.528202       -14.3731
  46   2.0000      -0.520214       -14.1557
  47   2.0000      -0.513133       -13.9631
  48   2.0000      -0.510983       -13.9045
  49   2.0000      -0.497246       -13.5308
  50   2.0000      -0.486512       -13.2387
  51   2.0000      -0.484670       -13.1885
  52   2.0000      -0.466818       -12.7028
  53   2.0000      -0.459966       -12.5163
  54   2.0000      -0.453577       -12.3425
  55   2.0000      -0.452161       -12.3039
  56   2.0000      -0.441605       -12.0167
  57   2.0000      -0.438139       -11.9224
  58   2.0000      -0.436344       -11.8735
  59   2.0000      -0.428512       -11.6604
  60   2.0000      -0.418964       -11.4006
  61   2.0000      -0.413907       -11.2630
  62   2.0000      -0.410761       -11.1774
  63   2.0000      -0.331902        -9.0315
  64   2.0000      -0.327296        -8.9062
  65   2.0000      -0.319298        -8.6885
  66   2.0000      -0.299572        -8.1518
  67   0.0000       0.039372         1.0714
  68   0.0000       0.048709         1.3254
  69   0.0000       0.101937         2.7739
  70   0.0000       0.120946         3.2911
  71   0.0000       0.127080         3.4580

MULLIKEN ATOMIC CHARGES
-----------------------
   0 S :    0.113577
   1 C :   -0.109526
   2 C :   -0.079783
   3 C :    0.042890
   4 C :   -0.205645
   5 H :    0.017746
   6 C :    0.049401
   7 H :    0.035880
   8 H :    0.024880
   9 C :   -0.078901
  10 H :    0.032249
  11 H :    0.031654
  12 C :   -0.061742
  13 H :    0.024417
  14 H :    0.040675
  15 H :    0.042710
  16 S :    0.110743
  17 C :   -0.041741
  18 C :   -0.036909
  19 C :   -0.020136
  20 C :   -0.168454
  21 H :    0.021502
  22 C :    0.077972
  23 H :    0.043400
  24 H :    0.014709
  25 C :   -0.092438
  26 H :    0.041900
  27 H :    0.021023
  28 C :   -0.037434
  29 H :    0.028863
  30 H :    0.027221
  31 H :    0.030195
  32 H :    0.043067
  33 H :    0.016035
Sum of atomic charges:   -0.0000000

LOEWDIN ATOMIC CHARGES
----------------------
   0 S :    0.399559
   1 C :   -0.196892
   2 C :   -0.071905
   3 C :   -0.054557
   4 C :   -0.195498
   5 H :    0.031740
   6 C :   -0.034419
   7 H :    0.034290
   8 H :    0.031094
   9 C :   -0.038678
  10 H :    0.026993
  11 H :    0.026362
  12 C :   -0.074225
  13 H :    0.026238
  14 H :    0.030116
  15 H :    0.025059
  16 S :    0.396256
  17 C :   -0.171943
  18 C :   -0.067601
  19 C :   -0.034963
  20 C :   -0.205423
  21 H :    0.032035
  22 C :   -0.040751
  23 H :    0.043196
  24 H :    0.025487
  25 C :   -0.035083
  26 H :    0.030825
  27 H :    0.019544
  28 C :   -0.066820
  29 H :    0.022776
  30 H :    0.023950
  31 H :    0.026048
  32 H :    0.027688
  33 H :    0.009501

  Mayer bond orders larger than 0.100000
B(  0-S ,  1-C ) :   1.1325 B(  0-S ,  4-C ) :   1.1534 B(  1-C ,  2-C ) :   1.6046
B(  1-C ,  4-C ) :   0.1064 B(  1-C , 32-H ) :   0.9658 B(  2-C ,  3-C ) :   1.2560
B(  2-C ,  6-C ) :   1.0156 B(  3-C ,  4-C ) :   1.5350 B(  3-C ,  5-H ) :   0.9930
B(  4-C , 20-C ) :   1.0647 B(  6-C ,  7-H ) :   0.9439 B(  6-C ,  8-H ) :   0.9451
B(  6-C ,  9-C ) :   1.0643 B(  9-C , 10-H ) :   0.9575 B(  9-C , 11-H ) :   0.9559
B(  9-C , 12-C ) :   1.0797 B( 12-C , 13-H ) :   0.9698 B( 12-C , 14-H ) :   0.9751
B( 12-C , 15-H ) :   0.9684 B( 16-S , 17-C ) :   1.1401 B( 16-S , 20-C ) :   1.1233
B( 17-C , 18-C ) :   1.6700 B( 17-C , 33-H ) :   0.9708 B( 18-C , 19-C ) :   1.1754
B( 18-C , 21-H ) :   0.9872 B( 19-C , 20-C ) :   1.5901 B( 19-C , 22-C ) :   1.0908
B( 22-C , 23-H ) :   0.9262 B( 22-C , 24-H ) :   0.9114 B( 22-C , 25-C ) :   1.0445
B( 25-C , 26-H ) :   0.9565 B( 25-C , 27-H ) :   0.9598 B( 25-C , 28-C ) :   1.0955
B( 28-C , 29-H ) :   0.9717 B( 28-C , 30-H ) :   0.9738 B( 28-C , 31-H ) :   0.9711

Dispersion correction           -0.014718730
FINAL SINGLE POINT ENERGY     -1339.868593959396

DIPOLE MOMENT
-------------
                                X             Y             Z
Electronic contribution:    -14.97129     -18.39087      -4.89968
Nuclear contribution   :     15.40467      18.97928       4.78299
                        -----------------------------------------
Total Dipole Moment    :      0.43338       0.58841      -0.11670
                        -----------------------------------------
Magnitude (a.u.)       :      0.74005
Magnitude (Debye)      :      1.88105

Rotational constants in cm-1:     0.016762     0.008940     0.007665
Rotational constants in MHz :   502.522633   268.010629   229.794055

                             ****ORCA TERMINATED NORMALLY****
TOTAL RUN TIME: 0 days 0 hours 0 minutes 35 seconds 10 msec
