                         Program Version 4.2.1 -  RELEASE  -
|  1> ! wB97X-D3 SP def2-SVP
|  2> %pal
|  3> nprocs 16
|  4> end
|  5>
|  6> * xyz 0 1
|  7> S 	 -8.68929 	 70.0616 	 49.2249
|  8> C 	 -8.89273 	 69.1605 	 47.7532
|  9> C 	 -9.91966 	 68.2247 	 47.8016
| 10> C 	 -10.6364 	 68.3108 	 49.0638
| 11> C 	 -10.1227 	 69.3104 	 49.8728
| 12> H 	 -11.4523 	 67.6294 	 49.3318
| 13> C 	 -10.3913 	 67.398 	 46.6
| 14> H 	 -10.3271 	 66.3331 	 46.8911
| 15> H 	 -9.92383 	 67.662 	 45.6825
| 16> C 	 -11.896 	 67.4907 	 46.3181
| 17> H 	 -12.4063 	 67.0779 	 47.1617
| 18> H 	 -12.1042 	 68.5233 	 46.242
| 19> C 	 -12.2929 	 66.8783 	 44.9804
| 20> H 	 -12.1587 	 65.7416 	 45.0966
| 21> H 	 -13.3176 	 67.0804 	 44.7126
| 22> H 	 -11.7573 	 67.2508 	 44.1718
| 23> S 	 -9.59241 	 68.5864 	 52.4866
| 24> C 	 -10.504 	 69.4423 	 53.7495
| 25> C 	 -11.4803 	 70.2247 	 53.2566
| 26> C 	 -11.5641 	 70.2067 	 51.8547
| 27> C 	 -10.5612 	 69.4431 	 51.2384
| 28> H 	 -12.011 	 70.7942 	 53.9551
| 29> C 	 -12.6506 	 71.0794 	 51.117
| 30> H 	 -13.684 	 70.8278 	 51.4307
| 31> H 	 -12.5981 	 70.8974 	 50.0821
| 32> C 	 -12.4249 	 72.5869 	 51.1174
| 33> H 	 -11.4008 	 72.7865 	 51.1511
| 34> H 	 -12.6993 	 72.998 	 52.0812
| 35> C 	 -13.0211 	 73.3756 	 50.0282
| 36> H 	 -12.5506 	 74.3532 	 50.0228
| 37> H 	 -14.0724 	 73.5384 	 49.9649
| 38> H 	 -12.7271 	 73.0325 	 49.0089
| 39> H 	 -8.47254 	 69.4061 	 46.8589
| 40> H 	 -10.5471 	 69.1887 	 54.819
| 41> *
| 42>
| 43>                          ****END OF INPUT****

CARTESIAN COORDINATES (ANGSTROEM)
---------------------------------
  S     -8.689290   70.061600   49.224900
  C     -8.892730   69.160500   47.753200
  C     -9.919660   68.224700   47.801600
  C    -10.636400   68.310800   49.063800
  C    -10.122700   69.310400   49.872800
  H    -11.452300   67.629400   49.331800
  C    -10.391300   67.398000   46.600000
  H    -10.327100   66.333100   46.891100
  H     -9.923830   67.662000   45.682500
  C    -11.896000   67.490700   46.318100
  H    -12.406300   67.077900   47.161700
  H    -12.104200   68.523300   46.242000
  C    -12.292900   66.878300   44.980400
  H    -12.158700   65.741600   45.096600
  H    -13.317600   67.080400   44.712600
  H    -11.757300   67.250800   44.171800
  S     -9.592410   68.586400   52.486600
  C    -10.504000   69.442300   53.749500
  C    -11.480300   70.224700   53.256600
  C    -11.564100   70.206700   51.854700
  C    -10.561200   69.443100   51.238400
  H    -12.011000   70.794200   53.955100
  C    -12.650600   71.079400   51.117000
  H    -13.684000   70.827800   51.430700
  H    -12.598100   70.897400   50.082100
  C    -12.424900   72.586900   51.117400
  H    -11.400800   72.786500   51.151100
  H    -12.699300   72.998000   52.081200
  C    -13.021100   73.375600   50.028200
  H    -12.550600   74.353200   50.022800
  H    -14.072400   73.538400   49.964900
  H    -12.727100   73.032500   49.008900
  H     -8.472540   69.406100   46.858900
  H    -10.547100   69.188700   54.819000

 Total Charge           Charge          ....    0
 Multiplicity           Mult            ....    1
 Number of Electrons    NEL             ....  134
 Basis Dimension        Dim             ....  322

ORBITAL ENERGIES
----------------

  NO   OCC          E(Eh)            E(eV)
   0   2.0000     -88.969765     -2420.9904
   1   2.0000     -88.962697     -2420.7981
   2   2.0000     -10.327967      -281.0383
   3   2.0000     -10.327371      -281.0221
   4   2.0000     -10.313253      -280.6379
   5   2.0000     -10.307027      -280.4685
   6   2.0000     -10.306983      -280.4673
   7   2.0000     -10.303913      -280.3837
   8   2.0000     -10.299390      -280.2607
   9   2.0000     -10.291961      -280.0585
  10   2.0000     -10.287461      -279.9361
  11   2.0000     -10.282796      -279.8091
  12   2.0000     -10.279747      -279.7261
  13   2.0000     -10.278583      -279.6945
  14   2.0000     -10.272646      -279.5329
  15   2.0000     -10.271714      -279.5075
  16   2.0000      -8.084680      -219.9953
  17   2.0000      -8.076523      -219.7734
  18   2.0000      -6.043159      -164.4427
  19   2.0000      -6.039264      -164.3367
  20   2.0000      -6.035350      -164.2302
  21   2.0000      -6.035172      -164.2254
  22   2.0000      -6.031201      -164.1173
  23   2.0000      -6.027154      -164.0072
  24   2.0000      -1.004274       -27.3277
  25   2.0000      -0.980774       -26.6882
  26   2.0000      -0.916998       -24.9528
  27   2.0000      -0.910060       -24.7640
  28   2.0000      -0.874022       -23.7833
  29   2.0000      -0.850345       -23.1391
  30   2.0000      -0.847171       -23.0527
  31   2.0000      -0.815608       -22.1938
  32   2.0000      -0.784675       -21.3521
  33   2.0000      -0.773238       -21.0409
  34   2.0000      -0.712266       -19.3817
  35   2.0000      -0.698463       -19.0062
  36   2.0000      -0.694522       -18.8989
  37   2.0000      -0.655098       -17.8261
  38   2.0000      -0.643449       -17.5091
  39   2.0000      -0.622253       -16.9324
  40   2.0000      -0.594954       -16.1895
  41   2.0000      -0.583112       -15.8673
  42   2.0000      -0.570648       -15.5281
  43   2.0000      -0.562341       -15.3021
  44   2.0000      -0.524732       -14.2787
  45   2.0000      -0.523215       -14.2374
  46   2.0000      -0.516128       -14.0446
  47   2.0000      -0.514525       -14.0009
  48   2.0000      -0.505969       -13.7681
  49   2.0000      -0.496385       -13.5073
  50   2.0000      -0.492234       -13.3944
  51   2.0000      -0.479646       -13.0518
  52   2.0000      -0.475563       -12.9407
  53   2.0000      -0.469441       -12.7741
  54   2.0000      -0.461012       -12.5448
  55   2.0000      -0.445504       -12.1228
  56   2.0000      -0.443431       -12.0664
  57   2.0000      -0.440552       -11.9880
  58   2.0000      -0.428170       -11.6511
  59   2.0000      -0.426488       -11.6053
  60   2.0000      -0.424011       -11.5379
  61   2.0000      -0.412726       -11.2309
  62   2.0000      -0.407031       -11.0759
  63   2.0000      -0.340617        -9.2687
  64   2.0000      -0.329268        -8.9599
  65   2.0000      -0.322227        -8.7682
  66   2.0000      -0.304539        -8.2869
  67   0.0000       0.045024         1.2252
  68   0.0000       0.047396         1.2897
  69   0.0000       0.114145         3.1061
  70   0.0000       0.119672         3.2564
  71   0.0000       0.129340         3.5195

MULLIKEN ATOMIC CHARGES
-----------------------
   0 S :    0.130619
   1 C :   -0.082538
   2 C :   -0.078425
   3 C :    0.018227
   4 C :   -0.152551
   5 H :    0.031998
   6 C :    0.081909
   7 H :    0.034218
   8 H :    0.011167
   9 C :   -0.091976
  10 H :    0.025864
  11 H :    0.018729
  12 C :   -0.030202
  13 H :    0.036830
  14 H :    0.031616
  15 H :    0.018289
  16 S :    0.097637
  17 C :   -0.092269
  18 C :   -0.022178
  19 C :   -0.011936
  20 C :   -0.197796
  21 H :    0.000469
  22 C :    0.106734
  23 H :    0.035177
  24 H :   -0.005132
  25 C :   -0.033677
  26 H :    0.009386
  27 H :    0.008502
  28 C :   -0.046908
  29 H :    0.023524
  30 H :    0.029942
  31 H :    0.022614
  32 H :    0.009246
  33 H :    0.062890
Sum of atomic charges:   -0.0000000

LOEWDIN ATOMIC CHARGES
----------------------
   0 S :    0.418548
   1 C :   -0.188406
   2 C :   -0.054390
   3 C :   -0.050491
   4 C :   -0.208154
   5 H :    0.036906
   6 C :   -0.026180
   7 H :    0.037090
   8 H :    0.022572
   9 C :   -0.038317
  10 H :    0.017473
  11 H :    0.016074
  12 C :   -0.059235
  13 H :    0.033744
  14 H :    0.026776
  15 H :    0.015407
  16 S :    0.371661
  17 C :   -0.176876
  18 C :   -0.071990
  19 C :   -0.045814
  20 C :   -0.185702
  21 H :    0.026229
  22 C :   -0.024472
  23 H :    0.032950
  24 H :    0.020191
  25 C :   -0.044675
  26 H :    0.022519
  27 H :    0.020108
  28 C :   -0.066572
  29 H :    0.031996
  30 H :    0.019649
  31 H :    0.028262
  32 H :    0.006785
  33 H :    0.036335

  Mayer bond orders larger than 0.100000
B(  0-S ,  1-C ) :   1.1352 B(  0-S ,  4-C ) :   1.1501 B(  1-C ,  2-C ) :   1.6275
B(  1-C , 32-H ) :   0.9726 B(  2-C ,  3-C ) :   1.2243 B(  2-C ,  6-C ) :   1.0348
B(  3-C ,  4-C ) :   1.5815 B(  3-C ,  5-H ) :   0.9887 B(  4-C , 20-C ) :   1.0317
B(  6-C ,  7-H ) :   0.9308 B(  6-C ,  8-H ) :   0.9518 B(  6-C ,  9-C ) :   1.0599
B(  9-C , 10-H ) :   0.9520 B(  9-C , 11-H ) :   0.9576 B(  9-C , 12-C ) :   1.0954
B( 12-C , 13-H ) :   0.9742 B( 12-C , 14-H ) :   0.9725 B( 12-C , 15-H ) :   0.9724
B( 16-S , 17-C ) :   1.1347 B( 16-S , 20-C ) :   1.1312 B( 17-C , 18-C ) :   1.6571
B( 17-C , 20-C ) :   0.1005 B( 17-C , 33-H ) :   0.9538 B( 18-C , 19-C ) :   1.2198
B( 18-C , 21-H ) :   0.9984 B( 19-C , 20-C ) :   1.6184 B( 19-C , 22-C ) :   1.0435
B( 22-C , 23-H ) :   0.9404 B( 22-C , 24-H ) :   0.9311 B( 22-C , 25-C ) :   1.0588
B( 25-C , 26-H ) :   0.9460 B( 25-C , 27-H ) :   0.9413 B( 25-C , 28-C ) :   1.1108
B( 28-C , 29-H ) :   0.9674 B( 28-C , 30-H ) :   0.9762 B( 28-C , 31-H ) :   0.9656

Dispersion correction           -0.013665355
FINAL SINGLE POINT ENERGY     -1339.853810566387

DIPOLE MOMENT
-------------
                                X             Y             Z
Electronic contribution:     19.76052      -4.14114      17.73649
Nuclear contribution   :    -20.32572       4.24929     -18.07159
                        -----------------------------------------
Total Dipole Moment    :     -0.56520       0.10815      -0.33511
                        -----------------------------------------
Magnitude (a.u.)       :      0.66592
Magnitude (Debye)      :      1.69263

Rotational constants in cm-1:     0.017209     0.008162     0.006881
Rotational constants in MHz :   515.925630   244.691170   206.279835

                             ****ORCA TERMINATED NORMALLY****
TOTAL RUN TIME: 0 days 0 hours 0 minutes 32 seconds 630 msec
