                         Program Version 4.2.1 -  RELEASE  -
|  1> ! wB97X-D3 SP def2-SVP
|  2> %pal
|  3> nprocs 16
|  4> end
|  5>
|  6> * xyz 0 1
|  7> S 	 -26.0866 	 -2.1333 	 104.553
|  8> C 	 -26.7787 	 -2.23595 	 106.142
|  9> C 	 -26.8383 	 -0.976926 	 106.783
| 10> C 	 -26.4142 	 0.0588091 	 105.885
| 11> C 	 -26.0503 	 -0.405794 	 104.637
| 12> H 	 -26.4855 	 1.17817 	 106.041
| 13> C 	 -27.4499 	 -0.668779 	 108.125
| 14> H 	 -28.1903 	 -1.42789 	 108.379
| 15> H 	 -27.9893 	 0.295338 	 108.088
| 16> C 	 -26.3876 	 -0.665148 	 109.23
| 17> H 	 -25.5449 	 -0.00486343 	 108.871
| 18> H 	 -26.9585 	 -0.287484 	 110.13
| 19> C 	 -25.6531 	 -2.01509 	 109.521
| 20> H 	 -25.1125 	 -2.37471 	 108.676
| 21> H 	 -24.9691 	 -2.00805 	 110.379
| 22> H 	 -26.3386 	 -2.81744 	 109.736
| 23> S 	 -24.3107 	 0.585156 	 102.854
| 24> C 	 -24.8681 	 1.67824 	 101.65
| 25> C 	 -26.2361 	 2.01188 	 101.824
| 26> C 	 -26.7972 	 1.18214 	 102.799
| 27> C 	 -25.8796 	 0.408749 	 103.507
| 28> H 	 -26.7818 	 2.78998 	 101.218
| 29> C 	 -28.2789 	 1.31796 	 103.146
| 30> H 	 -28.5905 	 2.34563 	 103.376
| 31> H 	 -28.5131 	 0.683677 	 104.029
| 32> C 	 -29.2947 	 0.939307 	 101.948
| 33> H 	 -29.3357 	 -0.119424 	 101.746
| 34> H 	 -28.8672 	 1.31476 	 101.047
| 35> C 	 -30.7339 	 1.46587 	 102.227
| 36> H 	 -30.5299 	 2.47274 	 102.51
| 37> H 	 -31.2451 	 0.896349 	 102.968
| 38> H 	 -31.3309 	 1.48869 	 101.402
| 39> H 	 -27.0042 	 -3.17745 	 106.579
| 40> H 	 -24.1359 	 2.14631 	 100.964
| 41> *
| 42>
| 43>                          ****END OF INPUT****

CARTESIAN COORDINATES (ANGSTROEM)
---------------------------------
  S    -26.086600   -2.133300  104.553000
  C    -26.778700   -2.235950  106.142000
  C    -26.838300   -0.976926  106.783000
  C    -26.414200    0.058809  105.885000
  C    -26.050300   -0.405794  104.637000
  H    -26.485500    1.178170  106.041000
  C    -27.449900   -0.668779  108.125000
  H    -28.190300   -1.427890  108.379000
  H    -27.989300    0.295338  108.088000
  C    -26.387600   -0.665148  109.230000
  H    -25.544900   -0.004863  108.871000
  H    -26.958500   -0.287484  110.130000
  C    -25.653100   -2.015090  109.521000
  H    -25.112500   -2.374710  108.676000
  H    -24.969100   -2.008050  110.379000
  H    -26.338600   -2.817440  109.736000
  S    -24.310700    0.585156  102.854000
  C    -24.868100    1.678240  101.650000
  C    -26.236100    2.011880  101.824000
  C    -26.797200    1.182140  102.799000
  C    -25.879600    0.408749  103.507000
  H    -26.781800    2.789980  101.218000
  C    -28.278900    1.317960  103.146000
  H    -28.590500    2.345630  103.376000
  H    -28.513100    0.683677  104.029000
  C    -29.294700    0.939307  101.948000
  H    -29.335700   -0.119424  101.746000
  H    -28.867200    1.314760  101.047000
  C    -30.733900    1.465870  102.227000
  H    -30.529900    2.472740  102.510000
  H    -31.245100    0.896349  102.968000
  H    -31.330900    1.488690  101.402000
  H    -27.004200   -3.177450  106.579000
  H    -24.135900    2.146310  100.964000

 Total Charge           Charge          ....    0
 Multiplicity           Mult            ....    1
 Number of Electrons    NEL             ....  134
 Basis Dimension        Dim             ....  322

ORBITAL ENERGIES
----------------

  NO   OCC          E(Eh)            E(eV)
   0   2.0000     -88.966469     -2420.9007
   1   2.0000     -88.965928     -2420.8860
   2   2.0000     -10.320259      -280.8285
   3   2.0000     -10.318953      -280.7930
   4   2.0000     -10.315535      -280.7000
   5   2.0000     -10.315248      -280.6922
   6   2.0000     -10.304902      -280.4106
   7   2.0000     -10.300176      -280.2820
   8   2.0000     -10.299589      -280.2661
   9   2.0000     -10.298099      -280.2255
  10   2.0000     -10.296325      -280.1772
  11   2.0000     -10.294272      -280.1214
  12   2.0000     -10.293994      -280.1138
  13   2.0000     -10.282091      -279.7899
  14   2.0000     -10.274466      -279.5824
  15   2.0000     -10.266059      -279.3537
  16   2.0000      -8.082039      -219.9235
  17   2.0000      -8.081875      -219.9190
  18   2.0000      -6.040192      -164.3620
  19   2.0000      -6.040161      -164.3611
  20   2.0000      -6.036266      -164.2552
  21   2.0000      -6.036256      -164.2549
  22   2.0000      -6.033225      -164.1724
  23   2.0000      -6.032826      -164.1615
  24   2.0000      -1.014122       -27.5957
  25   2.0000      -0.986911       -26.8552
  26   2.0000      -0.911537       -24.8042
  27   2.0000      -0.898644       -24.4533
  28   2.0000      -0.870304       -23.6822
  29   2.0000      -0.853897       -23.2357
  30   2.0000      -0.845138       -22.9974
  31   2.0000      -0.807073       -21.9616
  32   2.0000      -0.784499       -21.3473
  33   2.0000      -0.770208       -20.9584
  34   2.0000      -0.705694       -19.2029
  35   2.0000      -0.696327       -18.9480
  36   2.0000      -0.692639       -18.8477
  37   2.0000      -0.661250       -17.9935
  38   2.0000      -0.644602       -17.5405
  39   2.0000      -0.617218       -16.7953
  40   2.0000      -0.598069       -16.2743
  41   2.0000      -0.569286       -15.4911
  42   2.0000      -0.559763       -15.2319
  43   2.0000      -0.542066       -14.7504
  44   2.0000      -0.538989       -14.6666
  45   2.0000      -0.521162       -14.1815
  46   2.0000      -0.519307       -14.1311
  47   2.0000      -0.514914       -14.0115
  48   2.0000      -0.500779       -13.6269
  49   2.0000      -0.496139       -13.5006
  50   2.0000      -0.484166       -13.1748
  51   2.0000      -0.482306       -13.1242
  52   2.0000      -0.470695       -12.8083
  53   2.0000      -0.465129       -12.6568
  54   2.0000      -0.459442       -12.5021
  55   2.0000      -0.448066       -12.1925
  56   2.0000      -0.446456       -12.1487
  57   2.0000      -0.442843       -12.0504
  58   2.0000      -0.427670       -11.6375
  59   2.0000      -0.426496       -11.6056
  60   2.0000      -0.421424       -11.4675
  61   2.0000      -0.418015       -11.3748
  62   2.0000      -0.411152       -11.1880
  63   2.0000      -0.337839        -9.1931
  64   2.0000      -0.330954        -9.0057
  65   2.0000      -0.323674        -8.8076
  66   2.0000      -0.299123        -8.1396
  67   0.0000       0.040777         1.1096
  68   0.0000       0.056020         1.5244
  69   0.0000       0.115748         3.1497
  70   0.0000       0.120199         3.2708
  71   0.0000       0.129013         3.5106

MULLIKEN ATOMIC CHARGES
-----------------------
   0 S :    0.130559
   1 C :   -0.116344
   2 C :   -0.098049
   3 C :    0.020911
   4 C :   -0.183596
   5 H :    0.040196
   6 C :    0.073410
   7 H :    0.023184
   8 H :    0.036388
   9 C :   -0.100093
  10 H :    0.042606
  11 H :    0.044622
  12 C :   -0.045533
  13 H :    0.031529
  14 H :    0.039944
  15 H :    0.011233
  16 S :    0.129963
  17 C :   -0.119743
  18 C :   -0.052826
  19 C :    0.008484
  20 C :   -0.187574
  21 H :    0.047612
  22 C :    0.031838
  23 H :    0.024887
  24 H :    0.041719
  25 C :   -0.090064
  26 H :    0.024763
  27 H :    0.011888
  28 C :    0.010579
  29 H :    0.013033
  30 H :    0.033148
  31 H :    0.012223
  32 H :    0.037773
  33 H :    0.071330
Sum of atomic charges:   -0.0000000

LOEWDIN ATOMIC CHARGES
----------------------
   0 S :    0.425996
   1 C :   -0.195721
   2 C :   -0.063596
   3 C :   -0.059946
   4 C :   -0.218342
   5 H :    0.044444
   6 C :   -0.035371
   7 H :    0.029171
   8 H :    0.036070
   9 C :   -0.043017
  10 H :    0.031624
  11 H :    0.030016
  12 C :   -0.070243
  13 H :    0.022069
  14 H :    0.030583
  15 H :    0.017614
  16 S :    0.449503
  17 C :   -0.201722
  18 C :   -0.075811
  19 C :   -0.057799
  20 C :   -0.228546
  21 H :    0.043756
  22 C :   -0.030692
  23 H :    0.027249
  24 H :    0.032863
  25 C :   -0.032600
  26 H :    0.019771
  27 H :    0.013712
  28 C :   -0.050540
  29 H :    0.020932
  30 H :    0.025156
  31 H :    0.014130
  32 H :    0.018124
  33 H :    0.031165

  Mayer bond orders larger than 0.100000
B(  0-S ,  1-C ) :   1.1597 B(  0-S ,  4-C ) :   1.1588 B(  1-C ,  2-C ) :   1.5762
B(  1-C ,  4-C ) :   0.1029 B(  1-C , 32-H ) :   0.9754 B(  2-C ,  3-C ) :   1.2449
B(  2-C ,  6-C ) :   1.0227 B(  3-C ,  4-C ) :   1.5751 B(  3-C ,  5-H ) :   0.9853
B(  4-C , 20-C ) :   1.0351 B(  6-C ,  7-H ) :   0.9418 B(  6-C ,  8-H ) :   0.9444
B(  6-C ,  9-C ) :   1.0632 B(  9-C , 10-H ) :   0.9579 B(  9-C , 11-H ) :   0.9572
B(  9-C , 12-C ) :   1.0697 B( 12-C , 13-H ) :   0.9719 B( 12-C , 14-H ) :   0.9759
B( 12-C , 15-H ) :   0.9742 B( 16-S , 17-C ) :   1.1995 B( 16-S , 20-C ) :   1.1736
B( 17-C , 18-C ) :   1.5379 B( 17-C , 20-C ) :   0.1131 B( 17-C , 33-H ) :   0.9664
B( 18-C , 19-C ) :   1.2864 B( 18-C , 21-H ) :   0.9822 B( 19-C , 20-C ) :   1.5533
B( 19-C , 22-C ) :   1.0490 B( 22-C , 23-H ) :   0.9462 B( 22-C , 24-H ) :   0.9367
B( 22-C , 25-C ) :   1.0407 B( 25-C , 26-H ) :   0.9555 B( 25-C , 27-H ) :   0.9637
B( 25-C , 28-C ) :   1.0751 B( 28-C , 29-H ) :   0.9757 B( 28-C , 30-H ) :   0.9774
B( 28-C , 31-H ) :   0.9727

Dispersion correction           -0.014377328
FINAL SINGLE POINT ENERGY     -1339.875662918673

DIPOLE MOMENT
-------------
                                X             Y             Z
Electronic contribution:     18.07804      -4.37670     -12.87222
Nuclear contribution   :    -18.51876       4.64367      13.08483
                        -----------------------------------------
Total Dipole Moment    :     -0.44072       0.26697       0.21261
                        -----------------------------------------
Magnitude (a.u.)       :      0.55742
Magnitude (Debye)      :      1.41685

Rotational constants in cm-1:     0.019277     0.008153     0.006697
Rotational constants in MHz :   577.896578   244.420479   200.783282

                             ****ORCA TERMINATED NORMALLY****
TOTAL RUN TIME: 0 days 0 hours 0 minutes 30 seconds 471 msec
