                         Program Version 4.2.1 -  RELEASE  -
|  1> ! wB97X-D3 SP def2-SVP
|  2> %pal
|  3> nprocs 16
|  4> end
|  5>
|  6> * xyz 0 1
|  7> S 	 2.23396 	 -17.345 	 49.1372
|  8> C 	 0.495789 	 -17.3345 	 49.1592
|  9> C 	 -0.00513482 	 -16.1959 	 49.8013
| 10> C 	 1.02811 	 -15.3277 	 50.2725
| 11> C 	 2.31458 	 -15.7889 	 50
| 12> H 	 1.00943 	 -14.4574 	 50.8859
| 13> C 	 -1.3823 	 -15.7891 	 49.989
| 14> H 	 -1.55047 	 -15.1011 	 50.8835
| 15> H 	 -1.95228 	 -16.6924 	 50.1925
| 16> C 	 -2.18545 	 -15.2957 	 48.8144
| 17> H 	 -3.28513 	 -15.3071 	 48.893
| 18> H 	 -2.00607 	 -14.177 	 48.743
| 19> C 	 -1.8282 	 -15.9316 	 47.4764
| 20> H 	 -1.72855 	 -16.9952 	 47.5816
| 21> H 	 -2.62036 	 -15.6625 	 46.876
| 22> H 	 -0.957568 	 -15.4732 	 47.0444
| 23> S 	 4.81196 	 -16.205 	 50.9399
| 24> C 	 5.88868 	 -14.8542 	 51.2883
| 25> C 	 5.32973 	 -13.6666 	 50.8763
| 26> C 	 4.02138 	 -13.8338 	 50.2338
| 27> C 	 3.54693 	 -15.1332 	 50.2609
| 28> H 	 5.9825 	 -12.7769 	 50.9707
| 29> C 	 3.19276 	 -12.6793 	 49.7069
| 30> H 	 2.42332 	 -12.4715 	 50.3868
| 31> H 	 2.61666 	 -13.129 	 48.9359
| 32> C 	 4.02095 	 -11.4703 	 49.3254
| 33> H 	 4.84602 	 -11.7994 	 48.6622
| 34> H 	 4.63025 	 -11.1512 	 50.181
| 35> C 	 3.28475 	 -10.2323 	 49.0134
| 36> H 	 2.63725 	 -9.92025 	 49.8281
| 37> H 	 2.61072 	 -10.4387 	 48.2091
| 38> H 	 3.84215 	 -9.41106 	 48.6136
| 39> H 	 -0.0839715 	 -18.1829 	 48.891
| 40> H 	 6.89464 	 -14.9632 	 51.6713
| 41> *
| 42>
| 43>                          ****END OF INPUT****

CARTESIAN COORDINATES (ANGSTROEM)
---------------------------------
  S      2.233960  -17.345000   49.137200
  C      0.495789  -17.334500   49.159200
  C     -0.005135  -16.195900   49.801300
  C      1.028110  -15.327700   50.272500
  C      2.314580  -15.788900   50.000000
  H      1.009430  -14.457400   50.885900
  C     -1.382300  -15.789100   49.989000
  H     -1.550470  -15.101100   50.883500
  H     -1.952280  -16.692400   50.192500
  C     -2.185450  -15.295700   48.814400
  H     -3.285130  -15.307100   48.893000
  H     -2.006070  -14.177000   48.743000
  C     -1.828200  -15.931600   47.476400
  H     -1.728550  -16.995200   47.581600
  H     -2.620360  -15.662500   46.876000
  H     -0.957568  -15.473200   47.044400
  S      4.811960  -16.205000   50.939900
  C      5.888680  -14.854200   51.288300
  C      5.329730  -13.666600   50.876300
  C      4.021380  -13.833800   50.233800
  C      3.546930  -15.133200   50.260900
  H      5.982500  -12.776900   50.970700
  C      3.192760  -12.679300   49.706900
  H      2.423320  -12.471500   50.386800
  H      2.616660  -13.129000   48.935900
  C      4.020950  -11.470300   49.325400
  H      4.846020  -11.799400   48.662200
  H      4.630250  -11.151200   50.181000
  C      3.284750  -10.232300   49.013400
  H      2.637250   -9.920250   49.828100
  H      2.610720  -10.438700   48.209100
  H      3.842150   -9.411060   48.613600
  H     -0.083971  -18.182900   48.891000
  H      6.894640  -14.963200   51.671300

 Total Charge           Charge          ....    0
 Multiplicity           Mult            ....    1
 Number of Electrons    NEL             ....  134
 Basis Dimension        Dim             ....  322

ORBITAL ENERGIES
----------------

  NO   OCC          E(Eh)            E(eV)
   0   2.0000     -88.967896     -2420.9395
   1   2.0000     -88.959155     -2420.7017
   2   2.0000     -10.330545      -281.1084
   3   2.0000     -10.326361      -280.9946
   4   2.0000     -10.319629      -280.8114
   5   2.0000     -10.316784      -280.7340
   6   2.0000     -10.310658      -280.5673
   7   2.0000     -10.303785      -280.3802
   8   2.0000     -10.300206      -280.2828
   9   2.0000     -10.294475      -280.1269
  10   2.0000     -10.289138      -279.9817
  11   2.0000     -10.287017      -279.9240
  12   2.0000     -10.284568      -279.8573
  13   2.0000     -10.284111      -279.8449
  14   2.0000     -10.271373      -279.4983
  15   2.0000     -10.264765      -279.3185
  16   2.0000      -8.082315      -219.9310
  17   2.0000      -8.073638      -219.6948
  18   2.0000      -6.040853      -164.3800
  19   2.0000      -6.036800      -164.2697
  20   2.0000      -6.033120      -164.1696
  21   2.0000      -6.032272      -164.1465
  22   2.0000      -6.028157      -164.0345
  23   2.0000      -6.024287      -163.9292
  24   2.0000      -1.004977       -27.3468
  25   2.0000      -0.980487       -26.6804
  26   2.0000      -0.921049       -25.0630
  27   2.0000      -0.916940       -24.9512
  28   2.0000      -0.874986       -23.8096
  29   2.0000      -0.856864       -23.3165
  30   2.0000      -0.848785       -23.0966
  31   2.0000      -0.816938       -22.2300
  32   2.0000      -0.787016       -21.4158
  33   2.0000      -0.777192       -21.1485
  34   2.0000      -0.714544       -19.4437
  35   2.0000      -0.706964       -19.2375
  36   2.0000      -0.696546       -18.9540
  37   2.0000      -0.654134       -17.7999
  38   2.0000      -0.644743       -17.5443
  39   2.0000      -0.618753       -16.8371
  40   2.0000      -0.596937       -16.2435
  41   2.0000      -0.569089       -15.4857
  42   2.0000      -0.566460       -15.4142
  43   2.0000      -0.555884       -15.1264
  44   2.0000      -0.555396       -15.1131
  45   2.0000      -0.536581       -14.6011
  46   2.0000      -0.521492       -14.1905
  47   2.0000      -0.517701       -14.0874
  48   2.0000      -0.509444       -13.8627
  49   2.0000      -0.503700       -13.7064
  50   2.0000      -0.496206       -13.5025
  51   2.0000      -0.478941       -13.0326
  52   2.0000      -0.473196       -12.8763
  53   2.0000      -0.466376       -12.6907
  54   2.0000      -0.456821       -12.4307
  55   2.0000      -0.454582       -12.3698
  56   2.0000      -0.447772       -12.1845
  57   2.0000      -0.437377       -11.9016
  58   2.0000      -0.437056       -11.8929
  59   2.0000      -0.426048       -11.5934
  60   2.0000      -0.415246       -11.2994
  61   2.0000      -0.402236       -10.9454
  62   2.0000      -0.400908       -10.9092
  63   2.0000      -0.351049        -9.5525
  64   2.0000      -0.330253        -8.9866
  65   2.0000      -0.326212        -8.8767
  66   2.0000      -0.288649        -7.8545
  67   0.0000       0.020591         0.5603
  68   0.0000       0.069825         1.9000
  69   0.0000       0.108642         2.9563
  70   0.0000       0.117114         3.1868
  71   0.0000       0.132083         3.5942

MULLIKEN ATOMIC CHARGES
-----------------------
   0 S :    0.114661
   1 C :   -0.110224
   2 C :   -0.056043
   3 C :    0.011072
   4 C :   -0.148140
   5 H :    0.006160
   6 C :    0.063537
   7 H :    0.041776
   8 H :    0.017966
   9 C :   -0.130610
  10 H :    0.031591
  11 H :    0.018362
  12 C :    0.016449
  13 H :    0.017694
  14 H :    0.011614
  15 H :    0.038868
  16 S :    0.076214
  17 C :   -0.087587
  18 C :   -0.062602
  19 C :   -0.060073
  20 C :   -0.141901
  21 H :    0.039238
  22 C :    0.122778
  23 H :    0.012726
  24 H :    0.017688
  25 C :   -0.105853
  26 H :    0.032109
  27 H :    0.025304
  28 C :    0.014215
  29 H :    0.028477
  30 H :    0.005884
  31 H :    0.029522
  32 H :    0.048360
  33 H :    0.060765
Sum of atomic charges:   -0.0000000

LOEWDIN ATOMIC CHARGES
----------------------
   0 S :    0.403649
   1 C :   -0.192495
   2 C :   -0.059853
   3 C :   -0.055910
   4 C :   -0.187593
   5 H :    0.029880
   6 C :   -0.049222
   7 H :    0.041364
   8 H :    0.033623
   9 C :   -0.044976
  10 H :    0.024490
  11 H :    0.021913
  12 C :   -0.053712
  13 H :    0.018961
  14 H :    0.018084
  15 H :    0.028643
  16 S :    0.373733
  17 C :   -0.173732
  18 C :   -0.083133
  19 C :   -0.044679
  20 C :   -0.188527
  21 H :    0.039162
  22 C :   -0.028046
  23 H :    0.024141
  24 H :    0.031299
  25 C :   -0.050566
  26 H :    0.030512
  27 H :    0.025351
  28 C :   -0.062214
  29 H :    0.028474
  30 H :    0.020074
  31 H :    0.027777
  32 H :    0.022276
  33 H :    0.031252

  Mayer bond orders larger than 0.100000
B(  0-S ,  1-C ) :   1.1447 B(  0-S ,  4-C ) :   1.1403 B(  1-C ,  2-C ) :   1.5757
B(  1-C ,  4-C ) :   0.1012 B(  1-C , 32-H ) :   0.9680 B(  2-C ,  3-C ) :   1.2238
B(  2-C ,  6-C ) :   1.0571 B(  3-C ,  4-C ) :   1.5618 B(  3-C ,  5-H ) :   1.0045
B(  4-C , 20-C ) :   1.0785 B(  6-C ,  7-H ) :   0.9456 B(  6-C ,  8-H ) :   0.9184
B(  6-C ,  9-C ) :   1.0589 B(  9-C , 10-H ) :   0.9644 B(  9-C , 11-H ) :   0.9497
B(  9-C , 12-C ) :   1.0899 B( 12-C , 13-H ) :   0.9728 B( 12-C , 14-H ) :   0.9677
B( 12-C , 15-H ) :   0.9662 B( 16-S , 17-C ) :   1.1481 B( 16-S , 20-C ) :   1.1070
B( 17-C , 18-C ) :   1.6385 B( 17-C , 33-H ) :   0.9640 B( 18-C , 19-C ) :   1.1925
B( 18-C , 21-H ) :   0.9836 B( 19-C , 20-C ) :   1.6145 B( 19-C , 22-C ) :   1.0347
B( 22-C , 23-H ) :   0.9238 B( 22-C , 24-H ) :   0.9192 B( 22-C , 25-C ) :   1.0706
B( 25-C , 26-H ) :   0.9560 B( 25-C , 27-H ) :   0.9429 B( 25-C , 28-C ) :   1.0893
B( 28-C , 29-H ) :   0.9684 B( 28-C , 30-H ) :   0.9671 B( 28-C , 31-H ) :   0.9682

Dispersion correction           -0.014012431
FINAL SINGLE POINT ENERGY     -1339.859752740780

DIPOLE MOMENT
-------------
                                X             Y             Z
Electronic contribution:     17.11400     -20.98257       8.03262
Nuclear contribution   :    -17.47401      21.58528      -8.03967
                        -----------------------------------------
Total Dipole Moment    :     -0.36001       0.60271      -0.00704
                        -----------------------------------------
Magnitude (a.u.)       :      0.70208
Magnitude (Debye)      :      1.78454

Rotational constants in cm-1:     0.018022     0.008884     0.006410
Rotational constants in MHz :   540.296236   266.338118   192.170855

                             ****ORCA TERMINATED NORMALLY****
TOTAL RUN TIME: 0 days 0 hours 0 minutes 30 seconds 193 msec
