                         Program Version 4.2.1 -  RELEASE  -
|  1> ! wB97X-D3 SP def2-SVP
|  2> %pal
|  3> nprocs 16
|  4> end
|  5>
|  6> * xyz 0 1
|  7> S 	 53.0297 	 15.5482 	 83.9817
|  8> C 	 52.4482 	 15.0184 	 85.5517
|  9> C 	 51.0386 	 15.1217 	 85.6375
| 10> C 	 50.4545 	 15.5509 	 84.398
| 11> C 	 51.4119 	 15.8592 	 83.4788
| 12> H 	 49.3992 	 15.6141 	 84.1166
| 13> C 	 50.2576 	 14.7317 	 86.943
| 14> H 	 49.6563 	 15.7128 	 87.0319
| 15> H 	 50.9287 	 14.5335 	 87.8182
| 16> C 	 49.2016 	 13.6626 	 86.768
| 17> H 	 48.5291 	 13.8713 	 85.9352
| 18> H 	 49.7427 	 12.7446 	 86.6263
| 19> C 	 48.3051 	 13.5591 	 88.0633
| 20> H 	 47.9153 	 14.5057 	 88.4007
| 21> H 	 47.6264 	 12.6255 	 88.0064
| 22> H 	 48.9162 	 13.1018 	 88.7949
| 23> S 	 51.9865 	 15.9165 	 80.674
| 24> C 	 51.2889 	 17.2398 	 79.7079
| 25> C 	 50.6484 	 18.1233 	 80.5251
| 26> C 	 50.6881 	 17.872 	 81.9825
| 27> C 	 51.2234 	 16.5814 	 82.2315
| 28> H 	 50.1883 	 19.0426 	 80.0669
| 29> C 	 50.2976 	 18.9391 	 82.9531
| 30> H 	 51.0604 	 19.7285 	 82.8057
| 31> H 	 50.5621 	 18.5206 	 83.9219
| 32> C 	 48.9015 	 19.4403 	 83.0617
| 33> H 	 48.2739 	 18.568 	 83.2787
| 34> H 	 48.608 	 19.8863 	 82.1617
| 35> C 	 48.6665 	 20.4971 	 84.1785
| 36> H 	 49.0038 	 21.5215 	 83.9393
| 37> H 	 48.9765 	 20.051 	 85.1062
| 38> H 	 47.5841 	 20.716 	 84.2247
| 39> H 	 53.1089 	 14.5636 	 86.3718
| 40> H 	 51.339 	 17.2914 	 78.6238
| 41> *
| 42>
| 43>                          ****END OF INPUT****

CARTESIAN COORDINATES (ANGSTROEM)
---------------------------------
  S     53.029700   15.548200   83.981700
  C     52.448200   15.018400   85.551700
  C     51.038600   15.121700   85.637500
  C     50.454500   15.550900   84.398000
  C     51.411900   15.859200   83.478800
  H     49.399200   15.614100   84.116600
  C     50.257600   14.731700   86.943000
  H     49.656300   15.712800   87.031900
  H     50.928700   14.533500   87.818200
  C     49.201600   13.662600   86.768000
  H     48.529100   13.871300   85.935200
  H     49.742700   12.744600   86.626300
  C     48.305100   13.559100   88.063300
  H     47.915300   14.505700   88.400700
  H     47.626400   12.625500   88.006400
  H     48.916200   13.101800   88.794900
  S     51.986500   15.916500   80.674000
  C     51.288900   17.239800   79.707900
  C     50.648400   18.123300   80.525100
  C     50.688100   17.872000   81.982500
  C     51.223400   16.581400   82.231500
  H     50.188300   19.042600   80.066900
  C     50.297600   18.939100   82.953100
  H     51.060400   19.728500   82.805700
  H     50.562100   18.520600   83.921900
  C     48.901500   19.440300   83.061700
  H     48.273900   18.568000   83.278700
  H     48.608000   19.886300   82.161700
  C     48.666500   20.497100   84.178500
  H     49.003800   21.521500   83.939300
  H     48.976500   20.051000   85.106200
  H     47.584100   20.716000   84.224700
  H     53.108900   14.563600   86.371800
  H     51.339000   17.291400   78.623800

 Total Charge           Charge          ....    0
 Multiplicity           Mult            ....    1
 Number of Electrons    NEL             ....  134
 Basis Dimension        Dim             ....  322

ORBITAL ENERGIES
----------------

  NO   OCC          E(Eh)            E(eV)
   0   2.0000     -88.966515     -2420.9020
   1   2.0000     -88.960591     -2420.7408
   2   2.0000     -10.336446      -281.2690
   3   2.0000     -10.325743      -280.9778
   4   2.0000     -10.321423      -280.8602
   5   2.0000     -10.320819      -280.8438
   6   2.0000     -10.313950      -280.6568
   7   2.0000     -10.310788      -280.5708
   8   2.0000     -10.305757      -280.4339
   9   2.0000     -10.298651      -280.2405
  10   2.0000     -10.298329      -280.2318
  11   2.0000     -10.288770      -279.9717
  12   2.0000     -10.288339      -279.9599
  13   2.0000     -10.283895      -279.8390
  14   2.0000     -10.283779      -279.8358
  15   2.0000     -10.282965      -279.8137
  16   2.0000      -8.081640      -219.9126
  17   2.0000      -8.073647      -219.6951
  18   2.0000      -6.040052      -164.3582
  19   2.0000      -6.036103      -164.2507
  20   2.0000      -6.032502      -164.1527
  21   2.0000      -6.032453      -164.1514
  22   2.0000      -6.028494      -164.0437
  23   2.0000      -6.024030      -163.9222
  24   2.0000      -1.002819       -27.2881
  25   2.0000      -0.970792       -26.4166
  26   2.0000      -0.913561       -24.8593
  27   2.0000      -0.909544       -24.7499
  28   2.0000      -0.865799       -23.5596
  29   2.0000      -0.850637       -23.1470
  30   2.0000      -0.842543       -22.9268
  31   2.0000      -0.810054       -22.0427
  32   2.0000      -0.782068       -21.2812
  33   2.0000      -0.768638       -20.9157
  34   2.0000      -0.708788       -19.2871
  35   2.0000      -0.698598       -19.0098
  36   2.0000      -0.688573       -18.7370
  37   2.0000      -0.648795       -17.6546
  38   2.0000      -0.640059       -17.4169
  39   2.0000      -0.617702       -16.8085
  40   2.0000      -0.597051       -16.2466
  41   2.0000      -0.576178       -15.6786
  42   2.0000      -0.574104       -15.6222
  43   2.0000      -0.552850       -15.0438
  44   2.0000      -0.529579       -14.4106
  45   2.0000      -0.522740       -14.2245
  46   2.0000      -0.513546       -13.9743
  47   2.0000      -0.508282       -13.8311
  48   2.0000      -0.501772       -13.6539
  49   2.0000      -0.499930       -13.6038
  50   2.0000      -0.494418       -13.4538
  51   2.0000      -0.476354       -12.9623
  52   2.0000      -0.469160       -12.7665
  53   2.0000      -0.461940       -12.5700
  54   2.0000      -0.458861       -12.4862
  55   2.0000      -0.450012       -12.2455
  56   2.0000      -0.446303       -12.1445
  57   2.0000      -0.435784       -11.8583
  58   2.0000      -0.427398       -11.6301
  59   2.0000      -0.424718       -11.5572
  60   2.0000      -0.419471       -11.4144
  61   2.0000      -0.413000       -11.2383
  62   2.0000      -0.408079       -11.1044
  63   2.0000      -0.339958        -9.2507
  64   2.0000      -0.332392        -9.0448
  65   2.0000      -0.323818        -8.8115
  66   2.0000      -0.294553        -8.0152
  67   0.0000       0.030029         0.8171
  68   0.0000       0.066069         1.7978
  69   0.0000       0.104600         2.8463
  70   0.0000       0.119067         3.2400
  71   0.0000       0.125038         3.4025

MULLIKEN ATOMIC CHARGES
-----------------------
   0 S :    0.123410
   1 C :   -0.156765
   2 C :   -0.083686
   3 C :    0.018061
   4 C :   -0.145190
   5 H :    0.025606
   6 C :    0.018090
   7 H :    0.040179
   8 H :    0.039575
   9 C :   -0.070005
  10 H :    0.038497
  11 H :    0.028549
  12 C :   -0.049391
  13 H :    0.044429
  14 H :    0.040064
  15 H :    0.010013
  16 S :    0.065181
  17 C :   -0.085949
  18 C :   -0.046508
  19 C :   -0.027001
  20 C :   -0.171231
  21 H :    0.036846
  22 C :    0.063910
  23 H :    0.040303
  24 H :    0.011299
  25 C :   -0.041991
  26 H :    0.028094
  27 H :    0.011058
  28 C :   -0.050429
  29 H :    0.037247
  30 H :    0.035796
  31 H :    0.029185
  32 H :    0.076945
  33 H :    0.065809
Sum of atomic charges:    0.0000000

LOEWDIN ATOMIC CHARGES
----------------------
   0 S :    0.418530
   1 C :   -0.219889
   2 C :   -0.060408
   3 C :   -0.067578
   4 C :   -0.201991
   5 H :    0.038704
   6 C :   -0.036857
   7 H :    0.040732
   8 H :    0.034702
   9 C :   -0.040406
  10 H :    0.023523
  11 H :    0.023101
  12 C :   -0.073563
  13 H :    0.024203
  14 H :    0.041349
  15 H :    0.018563
  16 S :    0.332913
  17 C :   -0.171282
  18 C :   -0.080887
  19 C :   -0.042580
  20 C :   -0.171744
  21 H :    0.036685
  22 C :   -0.041910
  23 H :    0.040768
  24 H :    0.030359
  25 C :   -0.034893
  26 H :    0.028668
  27 H :    0.013372
  28 C :   -0.063638
  29 H :    0.029421
  30 H :    0.023046
  31 H :    0.030537
  32 H :    0.043990
  33 H :    0.034460

  Mayer bond orders larger than 0.100000
B(  0-S ,  1-C ) :   1.1340 B(  0-S ,  4-C ) :   1.1671 B(  1-C ,  2-C ) :   1.6128
B(  1-C , 32-H ) :   0.9598 B(  2-C ,  3-C ) :   1.2204 B(  2-C ,  6-C ) :   1.0025
B(  3-C ,  4-C ) :   1.5836 B(  3-C ,  5-H ) :   0.9979 B(  4-C , 20-C ) :   1.0322
B(  6-C ,  7-H ) :   0.9368 B(  6-C ,  8-H ) :   0.9522 B(  6-C ,  9-C ) :   1.0641
B(  9-C , 10-H ) :   0.9565 B(  9-C , 11-H ) :   0.9556 B(  9-C , 12-C ) :   1.0776
B( 12-C , 13-H ) :   0.9768 B( 12-C , 14-H ) :   0.9696 B( 12-C , 15-H ) :   0.9703
B( 16-S , 17-C ) :   1.1182 B( 16-S , 20-C ) :   1.0993 B( 17-C , 18-C ) :   1.6740
B( 17-C , 33-H ) :   0.9663 B( 18-C , 19-C ) :   1.1793 B( 18-C , 21-H ) :   0.9758
B( 19-C , 20-C ) :   1.6131 B( 19-C , 22-C ) :   1.0549 B( 22-C , 23-H ) :   0.9262
B( 22-C , 24-H ) :   0.9207 B( 22-C , 25-C ) :   1.0718 B( 25-C , 26-H ) :   0.9501
B( 25-C , 27-H ) :   0.9522 B( 25-C , 28-C ) :   1.0930 B( 28-C , 29-H ) :   0.9735
B( 28-C , 30-H ) :   0.9757 B( 28-C , 31-H ) :   0.9728

Dispersion correction           -0.013557248
FINAL SINGLE POINT ENERGY     -1339.857105598716

DIPOLE MOMENT
-------------
                                X             Y             Z
Electronic contribution:     21.81163      -6.93435     -20.55922
Nuclear contribution   :    -22.32261       7.25987      20.97914
                        -----------------------------------------
Total Dipole Moment    :     -0.51098       0.32552       0.41992
                        -----------------------------------------
Magnitude (a.u.)       :      0.73715
Magnitude (Debye)      :      1.87369

Rotational constants in cm-1:     0.016490     0.008325     0.006346
Rotational constants in MHz :   494.357921   249.571592   190.240324

                             ****ORCA TERMINATED NORMALLY****
TOTAL RUN TIME: 0 days 0 hours 0 minutes 27 seconds 600 msec
