                         Program Version 4.2.1 -  RELEASE  -
|  1> ! wB97X-D3 SP def2-SVP
|  2> %pal
|  3> nprocs 16
|  4> end
|  5>
|  6> * xyz 0 1
|  7> S 	 10.5351 	 -5.03781 	 89.3449
|  8> C 	 10.431 	 -3.47036 	 89.9432
|  9> C 	 9.13471 	 -2.9609 	 89.9458
| 10> C 	 8.38659 	 -3.71395 	 88.9459
| 11> C 	 8.95822 	 -4.92913 	 88.628
| 12> H 	 7.42579 	 -3.43639 	 88.6145
| 13> C 	 8.75568 	 -1.55009 	 90.4019
| 14> H 	 9.45742 	 -1.17013 	 91.1511
| 15> H 	 7.82645 	 -1.62045 	 91.0814
| 16> C 	 8.70412 	 -0.480998 	 89.2945
| 17> H 	 9.63945 	 -0.170954 	 88.8213
| 18> H 	 8.20579 	 -0.860482 	 88.3908
| 19> C 	 8.00306 	 0.783021 	 89.7752
| 20> H 	 7.03262 	 0.509847 	 90.1863
| 21> H 	 8.62818 	 1.25357 	 90.5155
| 22> H 	 7.88336 	 1.48457 	 88.98
| 23> S 	 9.65177 	 -6.77575 	 86.6505
| 24> C 	 8.36928 	 -7.88054 	 86.0433
| 25> C 	 7.13518 	 -7.61787 	 86.6789
| 26> C 	 7.16172 	 -6.56822 	 87.6489
| 27> C 	 8.45827 	 -6.01786 	 87.7491
| 28> H 	 6.25215 	 -8.18341 	 86.4218
| 29> C 	 6.00564 	 -6.30996 	 88.5762
| 30> H 	 6.49301 	 -5.91453 	 89.4686
| 31> H 	 5.64827 	 -7.3088 	 88.885
| 32> C 	 4.93136 	 -5.39233 	 88.1169
| 33> H 	 4.57214 	 -5.97406 	 87.1798
| 34> H 	 5.33526 	 -4.40628 	 87.8133
| 35> C 	 3.80607 	 -5.29783 	 89.1204
| 36> H 	 4.25908 	 -5.05194 	 90.0707
| 37> H 	 3.20092 	 -6.20941 	 89.1528
| 38> H 	 3.0621 	 -4.53504 	 88.875
| 39> H 	 11.0904 	 -2.88606 	 90.3982
| 40> H 	 8.52821 	 -8.57687 	 85.239
| 41> *
| 42>
| 43>                          ****END OF INPUT****

CARTESIAN COORDINATES (ANGSTROEM)
---------------------------------
  S     10.535100   -5.037810   89.344900
  C     10.431000   -3.470360   89.943200
  C      9.134710   -2.960900   89.945800
  C      8.386590   -3.713950   88.945900
  C      8.958220   -4.929130   88.628000
  H      7.425790   -3.436390   88.614500
  C      8.755680   -1.550090   90.401900
  H      9.457420   -1.170130   91.151100
  H      7.826450   -1.620450   91.081400
  C      8.704120   -0.480998   89.294500
  H      9.639450   -0.170954   88.821300
  H      8.205790   -0.860482   88.390800
  C      8.003060    0.783021   89.775200
  H      7.032620    0.509847   90.186300
  H      8.628180    1.253570   90.515500
  H      7.883360    1.484570   88.980000
  S      9.651770   -6.775750   86.650500
  C      8.369280   -7.880540   86.043300
  C      7.135180   -7.617870   86.678900
  C      7.161720   -6.568220   87.648900
  C      8.458270   -6.017860   87.749100
  H      6.252150   -8.183410   86.421800
  C      6.005640   -6.309960   88.576200
  H      6.493010   -5.914530   89.468600
  H      5.648270   -7.308800   88.885000
  C      4.931360   -5.392330   88.116900
  H      4.572140   -5.974060   87.179800
  H      5.335260   -4.406280   87.813300
  C      3.806070   -5.297830   89.120400
  H      4.259080   -5.051940   90.070700
  H      3.200920   -6.209410   89.152800
  H      3.062100   -4.535040   88.875000
  H     11.090400   -2.886060   90.398200
  H      8.528210   -8.576870   85.239000

 Total Charge           Charge          ....    0
 Multiplicity           Mult            ....    1
 Number of Electrons    NEL             ....  134
 Basis Dimension        Dim             ....  322

ORBITAL ENERGIES
----------------

  NO   OCC          E(Eh)            E(eV)
   0   2.0000     -88.968847     -2420.9654
   1   2.0000     -88.966441     -2420.8999
   2   2.0000     -10.334333      -281.2115
   3   2.0000     -10.327417      -281.0233
   4   2.0000     -10.324609      -280.9469
   5   2.0000     -10.305496      -280.4268
   6   2.0000     -10.303503      -280.3726
   7   2.0000     -10.301840      -280.3273
   8   2.0000     -10.300576      -280.2929
   9   2.0000     -10.298759      -280.2435
  10   2.0000     -10.293199      -280.0922
  11   2.0000     -10.292774      -280.0806
  12   2.0000     -10.288544      -279.9655
  13   2.0000     -10.287828      -279.9460
  14   2.0000     -10.278971      -279.7050
  15   2.0000     -10.274395      -279.5805
  16   2.0000      -8.082546      -219.9373
  17   2.0000      -8.081980      -219.9219
  18   2.0000      -6.040937      -164.3823
  19   2.0000      -6.040491      -164.3701
  20   2.0000      -6.036934      -164.2733
  21   2.0000      -6.036775      -164.2690
  22   2.0000      -6.033268      -164.1736
  23   2.0000      -6.032773      -164.1601
  24   2.0000      -1.007618       -27.4187
  25   2.0000      -0.978072       -26.6147
  26   2.0000      -0.917412       -24.9640
  27   2.0000      -0.910354       -24.7720
  28   2.0000      -0.866554       -23.5801
  29   2.0000      -0.854912       -23.2633
  30   2.0000      -0.848135       -23.0789
  31   2.0000      -0.814088       -22.1525
  32   2.0000      -0.782294       -21.2873
  33   2.0000      -0.771112       -20.9830
  34   2.0000      -0.706224       -19.2173
  35   2.0000      -0.700221       -19.0540
  36   2.0000      -0.692320       -18.8390
  37   2.0000      -0.663627       -18.0582
  38   2.0000      -0.645981       -17.5780
  39   2.0000      -0.622024       -16.9261
  40   2.0000      -0.595715       -16.2102
  41   2.0000      -0.573372       -15.6022
  42   2.0000      -0.568010       -15.4563
  43   2.0000      -0.556357       -15.1392
  44   2.0000      -0.533915       -14.5286
  45   2.0000      -0.528439       -14.3796
  46   2.0000      -0.517219       -14.0742
  47   2.0000      -0.509764       -13.8714
  48   2.0000      -0.507531       -13.8106
  49   2.0000      -0.498106       -13.5541
  50   2.0000      -0.496582       -13.5127
  51   2.0000      -0.472252       -12.8506
  52   2.0000      -0.471072       -12.8185
  53   2.0000      -0.461889       -12.5686
  54   2.0000      -0.454551       -12.3690
  55   2.0000      -0.452933       -12.3249
  56   2.0000      -0.448198       -12.1961
  57   2.0000      -0.445290       -12.1170
  58   2.0000      -0.436114       -11.8673
  59   2.0000      -0.428457       -11.6589
  60   2.0000      -0.424326       -11.5465
  61   2.0000      -0.408845       -11.1252
  62   2.0000      -0.406303       -11.0561
  63   2.0000      -0.346261        -9.4223
  64   2.0000      -0.333055        -9.0629
  65   2.0000      -0.328764        -8.9461
  66   2.0000      -0.287847        -7.8327
  67   0.0000       0.024623         0.6700
  68   0.0000       0.074456         2.0260
  69   0.0000       0.102501         2.7892
  70   0.0000       0.113602         3.0913
  71   0.0000       0.128743         3.5033

MULLIKEN ATOMIC CHARGES
-----------------------
   0 S :    0.131348
   1 C :   -0.024366
   2 C :   -0.102596
   3 C :    0.033926
   4 C :   -0.139350
   5 H :   -0.019321
   6 C :    0.008775
   7 H :    0.017608
   8 H :    0.045083
   9 C :   -0.069592
  10 H :    0.025759
  11 H :    0.022666
  12 C :   -0.025879
  13 H :    0.029040
  14 H :    0.026245
  15 H :    0.028068
  16 S :    0.098519
  17 C :   -0.095329
  18 C :   -0.029509
  19 C :   -0.020307
  20 C :   -0.148680
  21 H :    0.018838
  22 C :    0.036698
  23 H :    0.019912
  24 H :    0.029590
  25 C :   -0.087835
  26 H :    0.027876
  27 H :    0.040368
  28 C :   -0.011909
  29 H :    0.027895
  30 H :    0.032122
  31 H :    0.033006
  32 H :   -0.017613
  33 H :    0.058945
Sum of atomic charges:   -0.0000000

LOEWDIN ATOMIC CHARGES
----------------------
   0 S :    0.437813
   1 C :   -0.190612
   2 C :   -0.060948
   3 C :   -0.053535
   4 C :   -0.202682
   5 H :    0.017455
   6 C :   -0.043425
   7 H :    0.029109
   8 H :    0.041933
   9 C :   -0.044851
  10 H :    0.027118
  11 H :    0.022199
  12 C :   -0.057474
  13 H :    0.023568
  14 H :    0.022428
  15 H :    0.023215
  16 S :    0.372978
  17 C :   -0.170706
  18 C :   -0.065256
  19 C :   -0.053696
  20 C :   -0.183554
  21 H :    0.029660
  22 C :   -0.038953
  23 H :    0.027883
  24 H :    0.035410
  25 C :   -0.046333
  26 H :    0.031196
  27 H :    0.025111
  28 C :   -0.063657
  29 H :    0.024390
  30 H :    0.028958
  31 H :    0.028094
  32 H :    0.000642
  33 H :    0.026521

  Mayer bond orders larger than 0.100000
B(  0-S ,  1-C ) :   1.1633 B(  0-S ,  4-C ) :   1.1380 B(  1-C ,  2-C ) :   1.5928
B(  1-C , 32-H ) :   0.9734 B(  2-C ,  3-C ) :   1.2277 B(  2-C ,  6-C ) :   1.0532
B(  3-C ,  4-C ) :   1.5872 B(  3-C ,  5-H ) :   0.9957 B(  4-C , 20-C ) :   1.0379
B(  6-C ,  7-H ) :   0.9416 B(  6-C ,  8-H ) :   0.9419 B(  6-C ,  9-C ) :   1.0392
B(  9-C , 10-H ) :   0.9531 B(  9-C , 11-H ) :   0.9597 B(  9-C , 12-C ) :   1.0819
B( 12-C , 13-H ) :   0.9776 B( 12-C , 14-H ) :   0.9759 B( 12-C , 15-H ) :   0.9720
B( 16-S , 17-C ) :   1.1378 B( 16-S , 20-C ) :   1.1398 B( 17-C , 18-C ) :   1.6031
B( 17-C , 20-C ) :   0.1061 B( 17-C , 33-H ) :   0.9718 B( 18-C , 19-C ) :   1.2433
B( 18-C , 21-H ) :   0.9859 B( 19-C , 20-C ) :   1.5824 B( 19-C , 22-C ) :   1.0342
B( 22-C , 23-H ) :   0.9207 B( 22-C , 24-H ) :   0.9418 B( 22-C , 25-C ) :   1.0612
B( 25-C , 26-H ) :   0.9531 B( 25-C , 27-H ) :   0.9493 B( 25-C , 28-C ) :   1.0828
B( 28-C , 29-H ) :   0.9716 B( 28-C , 30-H ) :   0.9723 B( 28-C , 31-H ) :   0.9732

Dispersion correction           -0.013834823
FINAL SINGLE POINT ENERGY     -1339.863561336478

DIPOLE MOMENT
-------------
                                X             Y             Z
Electronic contribution:     22.50004     -20.13402      -7.75773
Nuclear contribution   :    -23.04596      20.47601       7.86239
                        -----------------------------------------
Total Dipole Moment    :     -0.54593       0.34199       0.10466
                        -----------------------------------------
Magnitude (a.u.)       :      0.65264
Magnitude (Debye)      :      1.65889

Rotational constants in cm-1:     0.016844     0.008870     0.006441
Rotational constants in MHz :   504.967812   265.930045   193.107560

                             ****ORCA TERMINATED NORMALLY****
TOTAL RUN TIME: 0 days 0 hours 0 minutes 33 seconds 537 msec
