                         Program Version 4.2.1 -  RELEASE  -
|  1> ! wB97X-D3 SP def2-SVP
|  2> %pal
|  3> nprocs 16
|  4> end
|  5>
|  6> * xyz 0 1
|  7> S 	 1.17565 	 1.64003 	 84.021
|  8> C 	 0.101699 	 0.255987 	 83.8022
|  9> C 	 -1.23132 	 0.718227 	 83.7003
| 10> C 	 -1.34933 	 2.11628 	 83.9232
| 11> C 	 -0.16854 	 2.74497 	 84.2208
| 12> H 	 -2.26173 	 2.70961 	 83.7995
| 13> C 	 -2.3365 	 -0.222668 	 83.2898
| 14> H 	 -1.93963 	 -0.986689 	 82.6171
| 15> H 	 -2.98415 	 0.407183 	 82.7147
| 16> C 	 -3.17919 	 -0.906675 	 84.4039
| 17> H 	 -2.46912 	 -1.64114 	 84.7607
| 18> H 	 -3.44873 	 -0.188322 	 85.1453
| 19> C 	 -4.41001 	 -1.53475 	 83.784
| 20> H 	 -4.91842 	 -2.19173 	 84.5182
| 21> H 	 -5.18156 	 -0.892977 	 83.4193
| 22> H 	 -4.07198 	 -1.96322 	 82.8432
| 23> S 	 0.994213 	 4.985 	 83.2412
| 24> C 	 0.445471 	 6.57955 	 83.7672
| 25> C 	 -0.475659 	 6.43468 	 84.755
| 26> C 	 -0.853666 	 5.0749 	 85.0716
| 27> C 	 -0.123499 	 4.21449 	 84.2716
| 28> H 	 -0.72351 	 7.38516 	 85.3201
| 29> C 	 -1.95505 	 4.73556 	 86.0704
| 30> H 	 -2.86284 	 4.552 	 85.5277
| 31> H 	 -2.26424 	 5.70116 	 86.5529
| 32> C 	 -1.69835 	 3.67206 	 87.203
| 33> H 	 -1.79473 	 2.60442 	 86.8357
| 34> H 	 -2.59837 	 3.77676 	 87.8362
| 35> C 	 -0.537626 	 3.87057 	 88.1868
| 36> H 	 0.417178 	 3.8372 	 87.6582
| 37> H 	 -0.499655 	 3.08245 	 89.0264
| 38> H 	 -0.739776 	 4.87272 	 88.6711
| 39> H 	 0.496587 	 -0.703049 	 83.6334
| 40> H 	 0.827309 	 7.55276 	 83.5286
| 41> *
| 42>
| 43>                          ****END OF INPUT****

CARTESIAN COORDINATES (ANGSTROEM)
---------------------------------
  S      1.175650    1.640030   84.021000
  C      0.101699    0.255987   83.802200
  C     -1.231320    0.718227   83.700300
  C     -1.349330    2.116280   83.923200
  C     -0.168540    2.744970   84.220800
  H     -2.261730    2.709610   83.799500
  C     -2.336500   -0.222668   83.289800
  H     -1.939630   -0.986689   82.617100
  H     -2.984150    0.407183   82.714700
  C     -3.179190   -0.906675   84.403900
  H     -2.469120   -1.641140   84.760700
  H     -3.448730   -0.188322   85.145300
  C     -4.410010   -1.534750   83.784000
  H     -4.918420   -2.191730   84.518200
  H     -5.181560   -0.892977   83.419300
  H     -4.071980   -1.963220   82.843200
  S      0.994213    4.985000   83.241200
  C      0.445471    6.579550   83.767200
  C     -0.475659    6.434680   84.755000
  C     -0.853666    5.074900   85.071600
  C     -0.123499    4.214490   84.271600
  H     -0.723510    7.385160   85.320100
  C     -1.955050    4.735560   86.070400
  H     -2.862840    4.552000   85.527700
  H     -2.264240    5.701160   86.552900
  C     -1.698350    3.672060   87.203000
  H     -1.794730    2.604420   86.835700
  H     -2.598370    3.776760   87.836200
  C     -0.537626    3.870570   88.186800
  H      0.417178    3.837200   87.658200
  H     -0.499655    3.082450   89.026400
  H     -0.739776    4.872720   88.671100
  H      0.496587   -0.703049   83.633400
  H      0.827309    7.552760   83.528600

 Total Charge           Charge          ....    0
 Multiplicity           Mult            ....    1
 Number of Electrons    NEL             ....  134
 Basis Dimension        Dim             ....  322

ORBITAL ENERGIES
----------------

  NO   OCC          E(Eh)            E(eV)
   0   2.0000     -88.968028     -2420.9431
   1   2.0000     -88.964681     -2420.8520
   2   2.0000     -10.327895      -281.0363
   3   2.0000     -10.324775      -280.9514
   4   2.0000     -10.316377      -280.7229
   5   2.0000     -10.311451      -280.5888
   6   2.0000     -10.304707      -280.4053
   7   2.0000     -10.303614      -280.3756
   8   2.0000     -10.299787      -280.2714
   9   2.0000     -10.295548      -280.1561
  10   2.0000     -10.293606      -280.1033
  11   2.0000     -10.291344      -280.0417
  12   2.0000     -10.288604      -279.9672
  13   2.0000     -10.285194      -279.8744
  14   2.0000     -10.284099      -279.8446
  15   2.0000     -10.277414      -279.6627
  16   2.0000      -8.082295      -219.9304
  17   2.0000      -8.079999      -219.8679
  18   2.0000      -6.040834      -164.3795
  19   2.0000      -6.038552      -164.3174
  20   2.0000      -6.036809      -164.2699
  21   2.0000      -6.034444      -164.2056
  22   2.0000      -6.033118      -164.1695
  23   2.0000      -6.030650      -164.1023
  24   2.0000      -1.009554       -27.4714
  25   2.0000      -0.984312       -26.7845
  26   2.0000      -0.914296       -24.8793
  27   2.0000      -0.898753       -24.4563
  28   2.0000      -0.871325       -23.7100
  29   2.0000      -0.851793       -23.1785
  30   2.0000      -0.844455       -22.9788
  31   2.0000      -0.817554       -22.2468
  32   2.0000      -0.780154       -21.2291
  33   2.0000      -0.770182       -20.9577
  34   2.0000      -0.706088       -19.2136
  35   2.0000      -0.705428       -19.1957
  36   2.0000      -0.683956       -18.6114
  37   2.0000      -0.657962       -17.9041
  38   2.0000      -0.643086       -17.4993
  39   2.0000      -0.619960       -16.8700
  40   2.0000      -0.585582       -15.9345
  41   2.0000      -0.568578       -15.4718
  42   2.0000      -0.565138       -15.3782
  43   2.0000      -0.548506       -14.9256
  44   2.0000      -0.540037       -14.6952
  45   2.0000      -0.528334       -14.3767
  46   2.0000      -0.519357       -14.1324
  47   2.0000      -0.508620       -13.8403
  48   2.0000      -0.502967       -13.6864
  49   2.0000      -0.494617       -13.4592
  50   2.0000      -0.491467       -13.3735
  51   2.0000      -0.478649       -13.0247
  52   2.0000      -0.469509       -12.7760
  53   2.0000      -0.463021       -12.5994
  54   2.0000      -0.459204       -12.4956
  55   2.0000      -0.450374       -12.2553
  56   2.0000      -0.444471       -12.0947
  57   2.0000      -0.437683       -11.9100
  58   2.0000      -0.434122       -11.8130
  59   2.0000      -0.420483       -11.4419
  60   2.0000      -0.416248       -11.3267
  61   2.0000      -0.412638       -11.2284
  62   2.0000      -0.408394       -11.1130
  63   2.0000      -0.350815        -9.5462
  64   2.0000      -0.330847        -9.0028
  65   2.0000      -0.326587        -8.8869
  66   2.0000      -0.292069        -7.9476
  67   0.0000       0.029566         0.8045
  68   0.0000       0.073482         1.9995
  69   0.0000       0.108893         2.9631
  70   0.0000       0.127291         3.4638
  71   0.0000       0.128205         3.4886

MULLIKEN ATOMIC CHARGES
-----------------------
   0 S :    0.101577
   1 C :   -0.115038
   2 C :   -0.068454
   3 C :    0.006745
   4 C :   -0.119235
   5 H :    0.024323
   6 C :    0.025650
   7 H :    0.027625
   8 H :    0.009563
   9 C :   -0.022977
  10 H :    0.028289
  11 H :    0.026841
  12 C :   -0.038726
  13 H :    0.044465
  14 H :    0.020852
  15 H :    0.020202
  16 S :    0.110549
  17 C :   -0.085033
  18 C :   -0.065449
  19 C :   -0.038233
  20 C :   -0.169445
  21 H :    0.040816
  22 C :    0.065223
  23 H :    0.032557
  24 H :    0.011320
  25 C :   -0.087453
  26 H :    0.047798
  27 H :    0.022606
  28 C :   -0.074838
  29 H :    0.050541
  30 H :    0.049705
  31 H :    0.035855
  32 H :    0.037652
  33 H :    0.044126
Sum of atomic charges:    0.0000000

LOEWDIN ATOMIC CHARGES
----------------------
   0 S :    0.399655
   1 C :   -0.185326
   2 C :   -0.057902
   3 C :   -0.062607
   4 C :   -0.196247
   5 H :    0.036497
   6 C :   -0.033482
   7 H :    0.029861
   8 H :    0.023549
   9 C :   -0.030726
  10 H :    0.025831
  11 H :    0.020041
  12 C :   -0.068123
  13 H :    0.032074
  14 H :    0.021895
  15 H :    0.025910
  16 S :    0.414570
  17 C :   -0.190232
  18 C :   -0.076330
  19 C :   -0.069171
  20 C :   -0.201352
  21 H :    0.042160
  22 C :   -0.036144
  23 H :    0.032387
  24 H :    0.035362
  25 C :   -0.052893
  26 H :    0.028371
  27 H :    0.025843
  28 C :   -0.073090
  29 H :    0.025498
  30 H :    0.037264
  31 H :    0.030077
  32 H :    0.017575
  33 H :    0.029205

  Mayer bond orders larger than 0.100000
B(  0-S ,  1-C ) :   1.1424 B(  0-S ,  4-C ) :   1.1555 B(  1-C ,  2-C ) :   1.5588
B(  1-C , 32-H ) :   0.9835 B(  2-C ,  3-C ) :   1.2701 B(  2-C ,  6-C ) :   1.0272
B(  3-C ,  4-C ) :   1.5467 B(  3-C ,  5-H ) :   0.9904 B(  4-C , 20-C ) :   1.0341
B(  6-C ,  7-H ) :   0.9404 B(  6-C ,  8-H ) :   0.9410 B(  6-C ,  9-C ) :   1.0605
B(  9-C , 10-H ) :   0.9544 B(  9-C , 11-H ) :   0.9574 B(  9-C , 12-C ) :   1.0819
B( 12-C , 13-H ) :   0.9726 B( 12-C , 14-H ) :   0.9732 B( 12-C , 15-H ) :   0.9701
B( 16-S , 17-C ) :   1.1258 B( 16-S , 20-C ) :   1.1559 B( 17-C , 18-C ) :   1.6632
B( 17-C , 33-H ) :   0.9663 B( 18-C , 19-C ) :   1.2294 B( 18-C , 21-H ) :   0.9715
B( 19-C , 20-C ) :   1.6001 B( 19-C , 22-C ) :   1.0313 B( 22-C , 23-H ) :   0.9308
B( 22-C , 24-H ) :   0.9301 B( 22-C , 25-C ) :   1.0651 B( 25-C , 26-H ) :   0.9524
B( 25-C , 27-H ) :   0.9534 B( 25-C , 28-C ) :   1.0710 B( 28-C , 29-H ) :   0.9757
B( 28-C , 30-H ) :   0.9733 B( 28-C , 31-H ) :   0.9744

Dispersion correction           -0.014573639
FINAL SINGLE POINT ENERGY     -1339.873299711999

DIPOLE MOMENT
-------------
                                X             Y             Z
Electronic contribution:     21.98031      11.86142     -12.56252
Nuclear contribution   :    -22.61400     -11.93830      12.68092
                        -----------------------------------------
Total Dipole Moment    :     -0.63369      -0.07688       0.11840
                        -----------------------------------------
Magnitude (a.u.)       :      0.64922
Magnitude (Debye)      :      1.65019

Rotational constants in cm-1:     0.019659     0.008394     0.007142
Rotational constants in MHz :   589.376840   251.651221   214.098120

                             ****ORCA TERMINATED NORMALLY****
TOTAL RUN TIME: 0 days 0 hours 0 minutes 34 seconds 774 msec
