                         Program Version 4.2.1 -  RELEASE  -
|  1> ! wB97X-D3 SP def2-SVP
|  2> %pal
|  3> nprocs 16
|  4> end
|  5>
|  6> * xyz 0 1
|  7> S 	 -26.0877 	 44.4821 	 58.7487
|  8> C 	 -26.1325 	 46.2184 	 59.1489
|  9> C 	 -25.0029 	 46.9143 	 58.9225
| 10> C 	 -24.0525 	 45.9925 	 58.329
| 11> C 	 -24.5337 	 44.7313 	 58.0081
| 12> H 	 -22.9953 	 46.2492 	 58.1149
| 13> C 	 -24.8402 	 48.3876 	 59.1432
| 14> H 	 -25.2353 	 48.787 	 58.1971
| 15> H 	 -23.7855 	 48.7527 	 59.1874
| 16> C 	 -25.6443 	 48.9312 	 60.3116
| 17> H 	 -25.3748 	 49.9711 	 60.3304
| 18> H 	 -26.6842 	 48.934 	 60.0982
| 19> C 	 -25.2858 	 48.2858 	 61.6376
| 20> H 	 -24.2067 	 47.9863 	 61.8785
| 21> H 	 -25.4845 	 49.0549 	 62.3686
| 22> H 	 -25.9104 	 47.4498 	 61.8558
| 23> S 	 -23.672 	 42.2521 	 58.6839
| 24> C 	 -22.577 	 41.3545 	 57.6203
| 25> C 	 -22.2146 	 42.0626 	 56.5227
| 26> C 	 -22.9155 	 43.3122 	 56.4642
| 27> C 	 -23.6909 	 43.556 	 57.6237
| 28> H 	 -21.484 	 41.6526 	 55.8498
| 29> C 	 -22.5571 	 44.2574 	 55.2772
| 30> H 	 -21.8936 	 43.7094 	 54.58
| 31> H 	 -21.9485 	 45.1118 	 55.6484
| 32> C 	 -23.7611 	 44.6723 	 54.4675
| 33> H 	 -23.3293 	 45.2881 	 53.6559
| 34> H 	 -24.4787 	 45.2073 	 54.9436
| 35> C 	 -24.4771 	 43.506 	 53.7701
| 36> H 	 -25.313 	 43.6943 	 53.1487
| 37> H 	 -24.7638 	 42.7731 	 54.6034
| 38> H 	 -23.7062 	 42.9873 	 53.1401
| 39> H 	 -27.0236 	 46.6262 	 59.6443
| 40> H 	 -22.2125 	 40.3741 	 57.7829
| 41> *
| 42>
| 43>                          ****END OF INPUT****

CARTESIAN COORDINATES (ANGSTROEM)
---------------------------------
  S    -26.087700   44.482100   58.748700
  C    -26.132500   46.218400   59.148900
  C    -25.002900   46.914300   58.922500
  C    -24.052500   45.992500   58.329000
  C    -24.533700   44.731300   58.008100
  H    -22.995300   46.249200   58.114900
  C    -24.840200   48.387600   59.143200
  H    -25.235300   48.787000   58.197100
  H    -23.785500   48.752700   59.187400
  C    -25.644300   48.931200   60.311600
  H    -25.374800   49.971100   60.330400
  H    -26.684200   48.934000   60.098200
  C    -25.285800   48.285800   61.637600
  H    -24.206700   47.986300   61.878500
  H    -25.484500   49.054900   62.368600
  H    -25.910400   47.449800   61.855800
  S    -23.672000   42.252100   58.683900
  C    -22.577000   41.354500   57.620300
  C    -22.214600   42.062600   56.522700
  C    -22.915500   43.312200   56.464200
  C    -23.690900   43.556000   57.623700
  H    -21.484000   41.652600   55.849800
  C    -22.557100   44.257400   55.277200
  H    -21.893600   43.709400   54.580000
  H    -21.948500   45.111800   55.648400
  C    -23.761100   44.672300   54.467500
  H    -23.329300   45.288100   53.655900
  H    -24.478700   45.207300   54.943600
  C    -24.477100   43.506000   53.770100
  H    -25.313000   43.694300   53.148700
  H    -24.763800   42.773100   54.603400
  H    -23.706200   42.987300   53.140100
  H    -27.023600   46.626200   59.644300
  H    -22.212500   40.374100   57.782900

 Total Charge           Charge          ....    0
 Multiplicity           Mult            ....    1
 Number of Electrons    NEL             ....  134
 Basis Dimension        Dim             ....  322

ORBITAL ENERGIES
----------------

  NO   OCC          E(Eh)            E(eV)
   0   2.0000     -88.965633     -2420.8779
   1   2.0000     -88.965041     -2420.8618
   2   2.0000     -10.329252      -281.0732
   3   2.0000     -10.325769      -280.9785
   4   2.0000     -10.311950      -280.6024
   5   2.0000     -10.308411      -280.5061
   6   2.0000     -10.302438      -280.3436
   7   2.0000     -10.300638      -280.2946
   8   2.0000     -10.298034      -280.2238
   9   2.0000     -10.297331      -280.2046
  10   2.0000     -10.294600      -280.1303
  11   2.0000     -10.288321      -279.9594
  12   2.0000     -10.285226      -279.8752
  13   2.0000     -10.278317      -279.6872
  14   2.0000     -10.273039      -279.5436
  15   2.0000     -10.270981      -279.4876
  16   2.0000      -8.081170      -219.8998
  17   2.0000      -8.079656      -219.8586
  18   2.0000      -6.039582      -164.3454
  19   2.0000      -6.038179      -164.3072
  20   2.0000      -6.035486      -164.2339
  21   2.0000      -6.034446      -164.2056
  22   2.0000      -6.032064      -164.1408
  23   2.0000      -6.030159      -164.0890
  24   2.0000      -1.007917       -27.4268
  25   2.0000      -0.985453       -26.8155
  26   2.0000      -0.921013       -25.0620
  27   2.0000      -0.906207       -24.6591
  28   2.0000      -0.870619       -23.6907
  29   2.0000      -0.846122       -23.0242
  30   2.0000      -0.839892       -22.8546
  31   2.0000      -0.810635       -22.0585
  32   2.0000      -0.787688       -21.4341
  33   2.0000      -0.768833       -20.9210
  34   2.0000      -0.708947       -19.2914
  35   2.0000      -0.702730       -19.1222
  36   2.0000      -0.681798       -18.5527
  37   2.0000      -0.660490       -17.9728
  38   2.0000      -0.633961       -17.2510
  39   2.0000      -0.609616       -16.5885
  40   2.0000      -0.592739       -16.1293
  41   2.0000      -0.584539       -15.9061
  42   2.0000      -0.558846       -15.2070
  43   2.0000      -0.555442       -15.1143
  44   2.0000      -0.539910       -14.6917
  45   2.0000      -0.537522       -14.6267
  46   2.0000      -0.513795       -13.9811
  47   2.0000      -0.508485       -13.8366
  48   2.0000      -0.498857       -13.5746
  49   2.0000      -0.491787       -13.3822
  50   2.0000      -0.482988       -13.1428
  51   2.0000      -0.473899       -12.8955
  52   2.0000      -0.468185       -12.7399
  53   2.0000      -0.465230       -12.6596
  54   2.0000      -0.458694       -12.4817
  55   2.0000      -0.447874       -12.1873
  56   2.0000      -0.444935       -12.1073
  57   2.0000      -0.436028       -11.8649
  58   2.0000      -0.435428       -11.8486
  59   2.0000      -0.426433       -11.6038
  60   2.0000      -0.422138       -11.4870
  61   2.0000      -0.417560       -11.3624
  62   2.0000      -0.398161       -10.8345
  63   2.0000      -0.347464        -9.4550
  64   2.0000      -0.329897        -8.9770
  65   2.0000      -0.326784        -8.8922
  66   2.0000      -0.292931        -7.9710
  67   0.0000       0.035308         0.9608
  68   0.0000       0.071187         1.9371
  69   0.0000       0.103735         2.8228
  70   0.0000       0.123766         3.3678
  71   0.0000       0.134709         3.6656

MULLIKEN ATOMIC CHARGES
-----------------------
   0 S :    0.092542
   1 C :   -0.158867
   2 C :   -0.051437
   3 C :    0.001088
   4 C :   -0.122319
   5 H :    0.022340
   6 C :    0.057537
   7 H :    0.045463
   8 H :    0.034557
   9 C :   -0.061908
  10 H :    0.022400
  11 H :    0.026643
  12 C :   -0.047579
  13 H :    0.046285
  14 H :    0.025438
  15 H :    0.032199
  16 S :    0.116683
  17 C :   -0.084163
  18 C :   -0.024813
  19 C :   -0.067270
  20 C :   -0.159961
  21 H :    0.019436
  22 C :    0.060456
  23 H :    0.013500
  24 H :    0.046864
  25 C :   -0.032136
  26 H :    0.022094
  27 H :    0.020824
  28 C :   -0.086250
  29 H :    0.036010
  30 H :    0.049832
  31 H :    0.018519
  32 H :    0.050696
  33 H :    0.035297
Sum of atomic charges:   -0.0000000

LOEWDIN ATOMIC CHARGES
----------------------
   0 S :    0.386242
   1 C :   -0.182878
   2 C :   -0.064866
   3 C :   -0.057506
   4 C :   -0.201365
   5 H :    0.032787
   6 C :   -0.032699
   7 H :    0.041822
   8 H :    0.035219
   9 C :   -0.040967
  10 H :    0.026127
  11 H :    0.021917
  12 C :   -0.068989
  13 H :    0.038557
  14 H :    0.026406
  15 H :    0.021571
  16 S :    0.429639
  17 C :   -0.178255
  18 C :   -0.067774
  19 C :   -0.062906
  20 C :   -0.223096
  21 H :    0.033405
  22 C :   -0.026993
  23 H :    0.029742
  24 H :    0.035210
  25 C :   -0.037687
  26 H :    0.026084
  27 H :    0.008781
  28 C :   -0.068188
  29 H :    0.018573
  30 H :    0.034443
  31 H :    0.022881
  32 H :    0.024235
  33 H :    0.020527

  Mayer bond orders larger than 0.100000
B(  0-S ,  1-C ) :   1.1284 B(  0-S ,  4-C ) :   1.1341 B(  1-C ,  2-C ) :   1.6427
B(  1-C , 32-H ) :   0.9562 B(  2-C ,  3-C ) :   1.2201 B(  2-C ,  6-C ) :   1.0058
B(  3-C ,  4-C ) :   1.6053 B(  3-C ,  5-H ) :   0.9863 B(  4-C , 20-C ) :   1.0092
B(  6-C ,  7-H ) :   0.9295 B(  6-C ,  8-H ) :   0.9458 B(  6-C ,  9-C ) :   1.0932
B(  9-C , 10-H ) :   0.9556 B(  9-C , 11-H ) :   0.9446 B(  9-C , 12-C ) :   1.0706
B( 12-C , 13-H ) :   0.9764 B( 12-C , 14-H ) :   0.9740 B( 12-C , 15-H ) :   0.9744
B( 16-S , 17-C ) :   1.1461 B( 16-S , 20-C ) :   1.1713 B( 17-C , 18-C ) :   1.6279
B( 17-C , 33-H ) :   0.9687 B( 18-C , 19-C ) :   1.2462 B( 18-C , 21-H ) :   0.9913
B( 19-C , 20-C ) :   1.5842 B( 19-C , 22-C ) :   1.0214 B( 22-C , 23-H ) :   0.9408
B( 22-C , 24-H ) :   0.9412 B( 22-C , 25-C ) :   1.0682 B( 25-C , 26-H ) :   0.9539
B( 25-C , 27-H ) :   0.9611 B( 25-C , 28-C ) :   1.0697 B( 28-C , 29-H ) :   0.9771
B( 28-C , 30-H ) :   0.9727 B( 28-C , 31-H ) :   0.9748

Dispersion correction           -0.014690224
FINAL SINGLE POINT ENERGY     -1339.867722090978

DIPOLE MOMENT
-------------
                                X             Y             Z
Electronic contribution:     -1.58395     -17.46452       7.05880
Nuclear contribution   :      1.86898      18.08595      -7.10074
                        -----------------------------------------
Total Dipole Moment    :      0.28503       0.62142      -0.04194
                        -----------------------------------------
Magnitude (a.u.)       :      0.68495
Magnitude (Debye)      :      1.74102

Rotational constants in cm-1:     0.023261     0.007908     0.006869
Rotational constants in MHz :   697.356507   237.079589   205.930248

                             ****ORCA TERMINATED NORMALLY****
TOTAL RUN TIME: 0 days 0 hours 0 minutes 37 seconds 177 msec
