                         Program Version 4.2.1 -  RELEASE  -
|  1> ! wB97X-D3 SP def2-SVP
|  2> %pal
|  3> nprocs 16
|  4> end
|  5>
|  6> * xyz 0 1
|  7> S 	 -46.8343 	 54.6842 	 101.008
|  8> C 	 -48.4202 	 53.8588 	 100.865
|  9> C 	 -49.3224 	 54.5332 	 100.075
| 10> C 	 -48.7835 	 55.7816 	 99.5958
| 11> C 	 -47.4674 	 55.9662 	 100.004
| 12> H 	 -49.339 	 56.497 	 98.9827
| 13> C 	 -50.7618 	 54.1685 	 99.9809
| 14> H 	 -51.0332 	 53.5631 	 100.778
| 15> H 	 -50.8857 	 53.4437 	 99.1423
| 16> C 	 -51.762 	 55.2977 	 99.9001
| 17> H 	 -51.5956 	 56.17 	 100.615
| 18> H 	 -51.8298 	 55.8134 	 98.8867
| 19> C 	 -53.2209 	 54.8071 	 100.316
| 20> H 	 -53.182 	 54.3034 	 101.281
| 21> H 	 -53.903 	 55.7117 	 100.334
| 22> H 	 -53.7388 	 54.0986 	 99.6047
| 23> S 	 -45.9831 	 58.017 	 101.299
| 24> C 	 -45.0893 	 59.1454 	 100.323
| 25> C 	 -45.3193 	 59.0597 	 98.9957
| 26> C 	 -46.1713 	 57.9289 	 98.7547
| 27> C 	 -46.599 	 57.1866 	 99.8754
| 28> H 	 -44.7495 	 59.7133 	 98.3235
| 29> C 	 -46.6255 	 57.629 	 97.3433
| 30> H 	 -46.5061 	 58.4752 	 96.6592
| 31> H 	 -47.7358 	 57.4354 	 97.3918
| 32> C 	 -46.079 	 56.3694 	 96.6065
| 33> H 	 -46.5895 	 56.514 	 95.5751
| 34> H 	 -46.5527 	 55.4756 	 97.0869
| 35> C 	 -44.5772 	 56.2839 	 96.3316
| 36> H 	 -44.2344 	 55.8818 	 97.2387
| 37> H 	 -44.2371 	 57.3169 	 96.2303
| 38> H 	 -44.2016 	 55.843 	 95.3675
| 39> H 	 -48.5447 	 52.9158 	 101.351
| 40> H 	 -44.3019 	 59.7694 	 100.752
| 41> *
| 42>
| 43>                          ****END OF INPUT****

CARTESIAN COORDINATES (ANGSTROEM)
---------------------------------
  S    -46.834300   54.684200  101.008000
  C    -48.420200   53.858800  100.865000
  C    -49.322400   54.533200  100.075000
  C    -48.783500   55.781600   99.595800
  C    -47.467400   55.966200  100.004000
  H    -49.339000   56.497000   98.982700
  C    -50.761800   54.168500   99.980900
  H    -51.033200   53.563100  100.778000
  H    -50.885700   53.443700   99.142300
  C    -51.762000   55.297700   99.900100
  H    -51.595600   56.170000  100.615000
  H    -51.829800   55.813400   98.886700
  C    -53.220900   54.807100  100.316000
  H    -53.182000   54.303400  101.281000
  H    -53.903000   55.711700  100.334000
  H    -53.738800   54.098600   99.604700
  S    -45.983100   58.017000  101.299000
  C    -45.089300   59.145400  100.323000
  C    -45.319300   59.059700   98.995700
  C    -46.171300   57.928900   98.754700
  C    -46.599000   57.186600   99.875400
  H    -44.749500   59.713300   98.323500
  C    -46.625500   57.629000   97.343300
  H    -46.506100   58.475200   96.659200
  H    -47.735800   57.435400   97.391800
  C    -46.079000   56.369400   96.606500
  H    -46.589500   56.514000   95.575100
  H    -46.552700   55.475600   97.086900
  C    -44.577200   56.283900   96.331600
  H    -44.234400   55.881800   97.238700
  H    -44.237100   57.316900   96.230300
  H    -44.201600   55.843000   95.367500
  H    -48.544700   52.915800  101.351000
  H    -44.301900   59.769400  100.752000

 Total Charge           Charge          ....    0
 Multiplicity           Mult            ....    1
 Number of Electrons    NEL             ....  134
 Basis Dimension        Dim             ....  322

ORBITAL ENERGIES
----------------

  NO   OCC          E(Eh)            E(eV)
   0   2.0000     -88.968455     -2420.9547
   1   2.0000     -88.963323     -2420.8151
   2   2.0000     -10.336754      -281.2774
   3   2.0000     -10.329240      -281.0729
   4   2.0000     -10.315222      -280.6915
   5   2.0000     -10.313219      -280.6370
   6   2.0000     -10.304464      -280.3987
   7   2.0000     -10.304329      -280.3950
   8   2.0000     -10.303662      -280.3769
   9   2.0000     -10.301677      -280.3229
  10   2.0000     -10.293316      -280.0954
  11   2.0000     -10.292345      -280.0689
  12   2.0000     -10.291169      -280.0370
  13   2.0000     -10.290349      -280.0146
  14   2.0000     -10.288806      -279.9727
  15   2.0000     -10.272013      -279.5157
  16   2.0000      -8.082693      -219.9412
  17   2.0000      -8.078210      -219.8193
  18   2.0000      -6.041105      -164.3868
  19   2.0000      -6.037412      -164.2863
  20   2.0000      -6.036712      -164.2673
  21   2.0000      -6.033443      -164.1783
  22   2.0000      -6.032627      -164.1561
  23   2.0000      -6.029036      -164.0584
  24   2.0000      -1.002868       -27.2894
  25   2.0000      -0.983605       -26.7653
  26   2.0000      -0.914873       -24.8950
  27   2.0000      -0.899660       -24.4810
  28   2.0000      -0.865378       -23.5481
  29   2.0000      -0.845225       -22.9997
  30   2.0000      -0.842926       -22.9372
  31   2.0000      -0.817609       -22.2483
  32   2.0000      -0.782626       -21.2963
  33   2.0000      -0.769151       -20.9297
  34   2.0000      -0.710750       -19.3405
  35   2.0000      -0.691597       -18.8193
  36   2.0000      -0.675187       -18.3728
  37   2.0000      -0.655776       -17.8446
  38   2.0000      -0.644924       -17.5493
  39   2.0000      -0.625379       -17.0174
  40   2.0000      -0.588085       -16.0026
  41   2.0000      -0.571264       -15.5449
  42   2.0000      -0.563331       -15.3290
  43   2.0000      -0.548666       -14.9300
  44   2.0000      -0.537356       -14.6222
  45   2.0000      -0.525398       -14.2968
  46   2.0000      -0.513166       -13.9639
  47   2.0000      -0.510605       -13.8943
  48   2.0000      -0.499972       -13.6049
  49   2.0000      -0.495785       -13.4910
  50   2.0000      -0.485689       -13.2163
  51   2.0000      -0.475305       -12.9337
  52   2.0000      -0.473440       -12.8830
  53   2.0000      -0.462126       -12.5751
  54   2.0000      -0.458781       -12.4841
  55   2.0000      -0.452686       -12.3182
  56   2.0000      -0.443110       -12.0576
  57   2.0000      -0.437505       -11.9051
  58   2.0000      -0.429639       -11.6911
  59   2.0000      -0.425938       -11.5904
  60   2.0000      -0.417121       -11.3504
  61   2.0000      -0.412294       -11.2191
  62   2.0000      -0.394625       -10.7383
  63   2.0000      -0.344254        -9.3676
  64   2.0000      -0.332992        -9.0612
  65   2.0000      -0.327218        -8.9041
  66   2.0000      -0.293905        -7.9976
  67   0.0000       0.029392         0.7998
  68   0.0000       0.068991         1.8773
  69   0.0000       0.109459         2.9785
  70   0.0000       0.116203         3.1621
  71   0.0000       0.127398         3.4667

MULLIKEN ATOMIC CHARGES
-----------------------
   0 S :    0.106797
   1 C :   -0.136859
   2 C :   -0.063697
   3 C :    0.029120
   4 C :   -0.153267
   5 H :    0.027617
   6 C :    0.126501
   7 H :   -0.005690
   8 H :    0.040732
   9 C :   -0.142510
  10 H :    0.054172
  11 H :    0.046155
  12 C :   -0.096625
  13 H :    0.042273
  14 H :    0.045587
  15 H :    0.040633
  16 S :    0.103491
  17 C :   -0.104195
  18 C :   -0.023463
  19 C :   -0.032537
  20 C :   -0.144310
  21 H :    0.033148
  22 C :    0.025514
  23 H :    0.019051
  24 H :    0.030013
  25 C :   -0.131551
  26 H :    0.029230
  27 H :    0.049391
  28 C :   -0.015137
  29 H :    0.038414
  30 H :    0.009520
  31 H :    0.049580
  32 H :    0.042334
  33 H :    0.060572
Sum of atomic charges:    0.0000000

LOEWDIN ATOMIC CHARGES
----------------------
   0 S :    0.393161
   1 C :   -0.177623
   2 C :   -0.057836
   3 C :   -0.058595
   4 C :   -0.187062
   5 H :    0.035446
   6 C :   -0.037246
   7 H :    0.022855
   8 H :    0.044041
   9 C :   -0.050738
  10 H :    0.035263
  11 H :    0.029069
  12 C :   -0.074692
  13 H :    0.022978
  14 H :    0.032998
  15 H :    0.026882
  16 S :    0.402092
  17 C :   -0.182303
  18 C :   -0.078608
  19 C :   -0.059191
  20 C :   -0.210769
  21 H :    0.041651
  22 C :   -0.042629
  23 H :    0.026055
  24 H :    0.037004
  25 C :   -0.048270
  26 H :    0.028266
  27 H :    0.025661
  28 C :   -0.071757
  29 H :    0.023958
  30 H :    0.023596
  31 H :    0.035944
  32 H :    0.019851
  33 H :    0.030547

  Mayer bond orders larger than 0.100000
B(  0-S ,  1-C ) :   1.1243 B(  0-S ,  4-C ) :   1.1638 B(  1-C ,  2-C ) :   1.6271
B(  1-C , 32-H ) :   0.9734 B(  2-C ,  3-C ) :   1.2297 B(  2-C ,  6-C ) :   1.0237
B(  3-C ,  4-C ) :   1.5825 B(  3-C ,  5-H ) :   0.9854 B(  4-C , 20-C ) :   1.0093
B(  6-C ,  7-H ) :   0.9436 B(  6-C ,  8-H ) :   0.9108 B(  6-C ,  9-C ) :   1.0649
B(  9-C , 10-H ) :   0.9614 B(  9-C , 11-H ) :   0.9468 B(  9-C , 12-C ) :   1.0719
B( 12-C , 13-H ) :   0.9760 B( 12-C , 14-H ) :   0.9768 B( 12-C , 15-H ) :   0.9774
B( 16-S , 17-C ) :   1.1689 B( 16-S , 20-C ) :   1.1302 B( 17-C , 18-C ) :   1.6165
B( 17-C , 33-H ) :   0.9585 B( 18-C , 19-C ) :   1.2316 B( 18-C , 21-H ) :   0.9923
B( 19-C , 20-C ) :   1.5947 B( 19-C , 22-C ) :   1.0402 B( 22-C , 23-H ) :   0.9411
B( 22-C , 24-H ) :   0.9356 B( 22-C , 25-C ) :   1.0776 B( 25-C , 26-H ) :   0.9549
B( 25-C , 27-H ) :   0.9613 B( 25-C , 28-C ) :   1.0511 B( 28-C , 29-H ) :   0.9761
B( 28-C , 30-H ) :   0.9720 B( 28-C , 31-H ) :   0.9761

Dispersion correction           -0.014295399
FINAL SINGLE POINT ENERGY     -1339.865756662316

DIPOLE MOMENT
-------------
                                X             Y             Z
Electronic contribution:     15.97717       3.95968      17.04077
Nuclear contribution   :    -16.37676      -3.95345     -17.36986
                        -----------------------------------------
Total Dipole Moment    :     -0.39959       0.00623      -0.32908
                        -----------------------------------------
Magnitude (a.u.)       :      0.51769
Magnitude (Debye)      :      1.31588

Rotational constants in cm-1:     0.019612     0.007720     0.007056
Rotational constants in MHz :   587.956220   231.449939   211.529733

                             ****ORCA TERMINATED NORMALLY****
TOTAL RUN TIME: 0 days 0 hours 0 minutes 29 seconds 687 msec
