                         Program Version 4.2.1 -  RELEASE  -
|  1> ! wB97X-D3 SP def2-SVP
|  2> %pal
|  3> nprocs 16
|  4> end
|  5>
|  6> * xyz 0 1
|  7> S 	 1.19209 	 16.0033 	 51.4591
|  8> C 	 2.14161 	 16.237 	 49.9466
|  9> C 	 2.04151 	 17.5533 	 49.5218
| 10> C 	 1.38708 	 18.3641 	 50.4748
| 11> C 	 0.915883 	 17.7246 	 51.6024
| 12> H 	 1.3034 	 19.4241 	 50.5575
| 13> C 	 2.56352 	 18.059 	 48.2276
| 14> H 	 1.85417 	 18.8 	 47.6901
| 15> H 	 2.40605 	 17.1531 	 47.6467
| 16> C 	 4.12924 	 18.5286 	 48.0976
| 17> H 	 4.27388 	 19.552 	 48.3242
| 18> H 	 4.7318 	 17.9184 	 48.7748
| 19> C 	 4.53645 	 18.2664 	 46.6471
| 20> H 	 3.96555 	 18.7085 	 45.8136
| 21> H 	 5.5975 	 18.6053 	 46.5692
| 22> H 	 4.53098 	 17.2546 	 46.4091
| 23> S 	 -1.0953 	 17.4021 	 53.5102
| 24> C 	 -1.42125 	 18.7001 	 54.68
| 25> C 	 -0.84591 	 19.8918 	 54.2698
| 26> C 	 0.0939743 	 19.6821 	 53.1795
| 27> C 	 0.168076 	 18.3651 	 52.7308
| 28> H 	 -1.12979 	 20.7394 	 54.9125
| 29> C 	 0.939781 	 20.8161 	 52.7284
| 30> H 	 0.532752 	 21.3368 	 51.7976
| 31> H 	 1.86 	 20.4076 	 52.3674
| 32> C 	 1.56925 	 21.8322 	 53.7646
| 33> H 	 0.643585 	 22.4038 	 54.1899
| 34> H 	 2.16537 	 22.6251 	 53.2636
| 35> C 	 2.51723 	 21.4241 	 54.9023
| 36> H 	 2.90155 	 22.2604 	 55.4771
| 37> H 	 3.335 	 20.8618 	 54.505
| 38> H 	 1.96259 	 20.7734 	 55.4641
| 39> H 	 2.49157 	 15.4159 	 49.3079
| 40> H 	 -2.24497 	 18.6617 	 55.3788
| 41> *
| 42>
| 43>                          ****END OF INPUT****

CARTESIAN COORDINATES (ANGSTROEM)
---------------------------------
  S      1.192090   16.003300   51.459100
  C      2.141610   16.237000   49.946600
  C      2.041510   17.553300   49.521800
  C      1.387080   18.364100   50.474800
  C      0.915883   17.724600   51.602400
  H      1.303400   19.424100   50.557500
  C      2.563520   18.059000   48.227600
  H      1.854170   18.800000   47.690100
  H      2.406050   17.153100   47.646700
  C      4.129240   18.528600   48.097600
  H      4.273880   19.552000   48.324200
  H      4.731800   17.918400   48.774800
  C      4.536450   18.266400   46.647100
  H      3.965550   18.708500   45.813600
  H      5.597500   18.605300   46.569200
  H      4.530980   17.254600   46.409100
  S     -1.095300   17.402100   53.510200
  C     -1.421250   18.700100   54.680000
  C     -0.845910   19.891800   54.269800
  C      0.093974   19.682100   53.179500
  C      0.168076   18.365100   52.730800
  H     -1.129790   20.739400   54.912500
  C      0.939781   20.816100   52.728400
  H      0.532752   21.336800   51.797600
  H      1.860000   20.407600   52.367400
  C      1.569250   21.832200   53.764600
  H      0.643585   22.403800   54.189900
  H      2.165370   22.625100   53.263600
  C      2.517230   21.424100   54.902300
  H      2.901550   22.260400   55.477100
  H      3.335000   20.861800   54.505000
  H      1.962590   20.773400   55.464100
  H      2.491570   15.415900   49.307900
  H     -2.244970   18.661700   55.378800

 Total Charge           Charge          ....    0
 Multiplicity           Mult            ....    1
 Number of Electrons    NEL             ....  134
 Basis Dimension        Dim             ....  322

ORBITAL ENERGIES
----------------

  NO   OCC          E(Eh)            E(eV)
   0   2.0000     -88.967978     -2420.9418
   1   2.0000     -88.965444     -2420.8728
   2   2.0000     -10.337552      -281.2991
   3   2.0000     -10.334108      -281.2054
   4   2.0000     -10.320688      -280.8402
   5   2.0000     -10.320264      -280.8287
   6   2.0000     -10.311870      -280.6002
   7   2.0000     -10.302970      -280.3581
   8   2.0000     -10.302052      -280.3331
   9   2.0000     -10.301099      -280.3071
  10   2.0000     -10.298313      -280.2313
  11   2.0000     -10.298146      -280.2268
  12   2.0000     -10.295886      -280.1653
  13   2.0000     -10.288287      -279.9585
  14   2.0000     -10.277700      -279.6704
  15   2.0000     -10.269016      -279.4341
  16   2.0000      -8.081781      -219.9165
  17   2.0000      -8.079638      -219.8581
  18   2.0000      -6.040374      -164.3669
  19   2.0000      -6.038212      -164.3081
  20   2.0000      -6.036489      -164.2612
  21   2.0000      -6.034357      -164.2032
  22   2.0000      -6.032423      -164.1506
  23   2.0000      -6.030219      -164.0906
  24   2.0000      -1.003317       -27.3016
  25   2.0000      -0.981689       -26.7131
  26   2.0000      -0.906125       -24.6569
  27   2.0000      -0.903748       -24.5922
  28   2.0000      -0.869465       -23.6593
  29   2.0000      -0.854377       -23.2488
  30   2.0000      -0.844980       -22.9931
  31   2.0000      -0.819723       -22.3058
  32   2.0000      -0.783694       -21.3254
  33   2.0000      -0.769655       -20.9434
  34   2.0000      -0.712837       -19.3973
  35   2.0000      -0.702422       -19.1139
  36   2.0000      -0.692912       -18.8551
  37   2.0000      -0.654560       -17.8115
  38   2.0000      -0.641283       -17.4502
  39   2.0000      -0.618949       -16.8425
  40   2.0000      -0.593248       -16.1431
  41   2.0000      -0.571209       -15.5434
  42   2.0000      -0.556727       -15.1493
  43   2.0000      -0.553097       -15.0505
  44   2.0000      -0.540712       -14.7135
  45   2.0000      -0.525957       -14.3120
  46   2.0000      -0.520697       -14.1689
  47   2.0000      -0.508036       -13.8244
  48   2.0000      -0.502988       -13.6870
  49   2.0000      -0.498764       -13.5721
  50   2.0000      -0.491040       -13.3619
  51   2.0000      -0.479445       -13.0464
  52   2.0000      -0.472582       -12.8596
  53   2.0000      -0.466655       -12.6983
  54   2.0000      -0.463327       -12.6078
  55   2.0000      -0.452989       -12.3264
  56   2.0000      -0.443346       -12.0641
  57   2.0000      -0.439735       -11.9658
  58   2.0000      -0.437630       -11.9085
  59   2.0000      -0.423487       -11.5237
  60   2.0000      -0.415520       -11.3069
  61   2.0000      -0.409882       -11.1535
  62   2.0000      -0.395984       -10.7753
  63   2.0000      -0.356516        -9.7013
  64   2.0000      -0.331847        -9.0300
  65   2.0000      -0.328840        -8.9482
  66   2.0000      -0.289459        -7.8766
  67   0.0000       0.017962         0.4888
  68   0.0000       0.074511         2.0275
  69   0.0000       0.094008         2.5581
  70   0.0000       0.123947         3.3728
  71   0.0000       0.124863         3.3977

MULLIKEN ATOMIC CHARGES
-----------------------
   0 S :    0.099068
   1 C :   -0.129472
   2 C :   -0.063055
   3 C :    0.034177
   4 C :   -0.138957
   5 H :   -0.021816
   6 C :   -0.001339
   7 H :    0.048980
   8 H :    0.017400
   9 C :   -0.012129
  10 H :    0.032380
  11 H :    0.035711
  12 C :   -0.067036
  13 H :    0.037443
  14 H :    0.034799
  15 H :    0.015834
  16 S :    0.080988
  17 C :   -0.095815
  18 C :   -0.047331
  19 C :   -0.049794
  20 C :   -0.093750
  21 H :    0.041442
  22 C :    0.014849
  23 H :    0.067428
  24 H :    0.024338
  25 C :   -0.143234
  26 H :    0.029599
  27 H :    0.031631
  28 C :    0.020769
  29 H :    0.042594
  30 H :    0.022368
  31 H :    0.012791
  32 H :    0.059192
  33 H :    0.059945
Sum of atomic charges:    0.0000000

LOEWDIN ATOMIC CHARGES
----------------------
   0 S :    0.384925
   1 C :   -0.186169
   2 C :   -0.067860
   3 C :   -0.065937
   4 C :   -0.186591
   5 H :    0.025247
   6 C :   -0.044275
   7 H :    0.042810
   8 H :    0.030437
   9 C :   -0.021185
  10 H :    0.019353
  11 H :    0.028808
  12 C :   -0.068263
  13 H :    0.028731
  14 H :    0.030768
  15 H :    0.013624
  16 S :    0.379058
  17 C :   -0.173747
  18 C :   -0.070391
  19 C :   -0.064294
  20 C :   -0.178754
  21 H :    0.042612
  22 C :   -0.050115
  23 H :    0.045857
  24 H :    0.027337
  25 C :   -0.047380
  26 H :    0.021507
  27 H :    0.026292
  28 C :   -0.053398
  29 H :    0.032893
  30 H :    0.024028
  31 H :    0.013314
  32 H :    0.033061
  33 H :    0.027696

  Mayer bond orders larger than 0.100000
B(  0-S ,  1-C ) :   1.1245 B(  0-S ,  4-C ) :   1.1439 B(  1-C ,  2-C ) :   1.6034
B(  1-C , 32-H ) :   0.9640 B(  2-C ,  3-C ) :   1.2300 B(  2-C ,  6-C ) :   1.0211
B(  3-C ,  4-C ) :   1.5778 B(  3-C ,  5-H ) :   0.9941 B(  4-C , 20-C ) :   1.0429
B(  6-C ,  7-H ) :   0.9439 B(  6-C ,  8-H ) :   0.9461 B(  6-C ,  9-C ) :   1.0330
B(  9-C , 10-H ) :   0.9620 B(  9-C , 11-H ) :   0.9582 B(  9-C , 12-C ) :   1.0750
B( 12-C , 13-H ) :   0.9765 B( 12-C , 14-H ) :   0.9731 B( 12-C , 15-H ) :   0.9779
B( 16-S , 17-C ) :   1.1398 B( 16-S , 20-C ) :   1.1309 B( 17-C , 18-C ) :   1.6456
B( 17-C , 33-H ) :   0.9637 B( 18-C , 19-C ) :   1.1992 B( 18-C , 21-H ) :   0.9871
B( 19-C , 20-C ) :   1.6099 B( 19-C , 22-C ) :   1.0545 B( 22-C , 23-H ) :   0.9233
B( 22-C , 24-H ) :   0.9298 B( 22-C , 25-C ) :   1.0534 B( 25-C , 26-H ) :   0.9521
B( 25-C , 27-H ) :   0.9597 B( 25-C , 28-C ) :   1.0722 B( 28-C , 29-H ) :   0.9718
B( 28-C , 30-H ) :   0.9697 B( 28-C , 31-H ) :   0.9742

Dispersion correction           -0.013481770
FINAL SINGLE POINT ENERGY     -1339.842227285165

DIPOLE MOMENT
-------------
                                X             Y             Z
Electronic contribution:    -18.63580     -19.38188      11.22413
Nuclear contribution   :     18.89561      19.97024     -11.56004
                        -----------------------------------------
Total Dipole Moment    :      0.25981       0.58837      -0.33591
                        -----------------------------------------
Magnitude (a.u.)       :      0.72561
Magnitude (Debye)      :      1.84436

Rotational constants in cm-1:     0.019156     0.007804     0.005967
Rotational constants in MHz :   574.272271   233.970416   178.878323

                             ****ORCA TERMINATED NORMALLY****
TOTAL RUN TIME: 0 days 0 hours 0 minutes 33 seconds 643 msec
