                         Program Version 4.2.1 -  RELEASE  -
|  1> ! wB97X-D3 SP def2-SVP
|  2> %pal
|  3> nprocs 16
|  4> end
|  5>
|  6> * xyz 0 1
|  7> S 	 23.3106 	 9.79212 	 72.4232
|  8> C 	 22.0623 	 8.95616 	 71.5262
|  9> C 	 22.1732 	 7.58609 	 71.6043
| 10> C 	 23.1096 	 7.21855 	 72.5906
| 11> C 	 23.7984 	 8.31882 	 73.1382
| 12> H 	 23.35 	 6.21054 	 72.899
| 13> C 	 21.2292 	 6.50111 	 71
| 14> H 	 21.7063 	 5.98201 	 70.156
| 15> H 	 20.406 	 6.95344 	 70.4462
| 16> C 	 20.6286 	 5.45457 	 71.9466
| 17> H 	 20.0581 	 4.73336 	 71.2701
| 18> H 	 21.3192 	 4.83235 	 72.5094
| 19> C 	 19.6849 	 6.01434 	 72.9781
| 20> H 	 19.0628 	 5.2998 	 73.5383
| 21> H 	 20.1003 	 6.61979 	 73.8028
| 22> H 	 18.9908 	 6.75779 	 72.5396
| 23> S 	 26.2428 	 9.47627 	 73.7247
| 24> C 	 27.3985 	 8.47292 	 74.4969
| 25> C 	 26.8034 	 7.53342 	 75.2805
| 26> C 	 25.425 	 7.28307 	 74.8627
| 27> C 	 25.0265 	 8.24255 	 73.8962
| 28> H 	 27.4333 	 6.97391 	 75.9976
| 29> C 	 24.5933 	 6.20163 	 75.5455
| 30> H 	 24.9889 	 5.26984 	 75.0644
| 31> H 	 23.6185 	 6.27677 	 75.2582
| 32> C 	 24.6853 	 6.258 	 77.0892
| 33> H 	 25.6889 	 6.06 	 77.4101
| 34> H 	 23.9977 	 5.46418 	 77.38
| 35> C 	 24.2823 	 7.56899 	 77.8695
| 36> H 	 23.7319 	 7.48846 	 78.7937
| 37> H 	 23.691 	 8.18086 	 77.2324
| 38> H 	 25.1083 	 8.17433 	 78.1842
| 39> H 	 21.3812 	 9.456 	 70.7932
| 40> H 	 28.4591 	 8.73427 	 74.7067
| 41> *
| 42>
| 43>                          ****END OF INPUT****

CARTESIAN COORDINATES (ANGSTROEM)
---------------------------------
  S     23.310600    9.792120   72.423200
  C     22.062300    8.956160   71.526200
  C     22.173200    7.586090   71.604300
  C     23.109600    7.218550   72.590600
  C     23.798400    8.318820   73.138200
  H     23.350000    6.210540   72.899000
  C     21.229200    6.501110   71.000000
  H     21.706300    5.982010   70.156000
  H     20.406000    6.953440   70.446200
  C     20.628600    5.454570   71.946600
  H     20.058100    4.733360   71.270100
  H     21.319200    4.832350   72.509400
  C     19.684900    6.014340   72.978100
  H     19.062800    5.299800   73.538300
  H     20.100300    6.619790   73.802800
  H     18.990800    6.757790   72.539600
  S     26.242800    9.476270   73.724700
  C     27.398500    8.472920   74.496900
  C     26.803400    7.533420   75.280500
  C     25.425000    7.283070   74.862700
  C     25.026500    8.242550   73.896200
  H     27.433300    6.973910   75.997600
  C     24.593300    6.201630   75.545500
  H     24.988900    5.269840   75.064400
  H     23.618500    6.276770   75.258200
  C     24.685300    6.258000   77.089200
  H     25.688900    6.060000   77.410100
  H     23.997700    5.464180   77.380000
  C     24.282300    7.568990   77.869500
  H     23.731900    7.488460   78.793700
  H     23.691000    8.180860   77.232400
  H     25.108300    8.174330   78.184200
  H     21.381200    9.456000   70.793200
  H     28.459100    8.734270   74.706700

 Total Charge           Charge          ....    0
 Multiplicity           Mult            ....    1
 Number of Electrons    NEL             ....  134
 Basis Dimension        Dim             ....  322

ORBITAL ENERGIES
----------------

  NO   OCC          E(Eh)            E(eV)
   0   2.0000     -88.969174     -2420.9743
   1   2.0000     -88.962996     -2420.8062
   2   2.0000     -10.327359      -281.0217
   3   2.0000     -10.326212      -280.9905
   4   2.0000     -10.316049      -280.7140
   5   2.0000     -10.312293      -280.6118
   6   2.0000     -10.306150      -280.4446
   7   2.0000     -10.302844      -280.3546
   8   2.0000     -10.299579      -280.2658
   9   2.0000     -10.295417      -280.1525
  10   2.0000     -10.294489      -280.1273
  11   2.0000     -10.292320      -280.0683
  12   2.0000     -10.291887      -280.0565
  13   2.0000     -10.291145      -280.0363
  14   2.0000     -10.276375      -279.6344
  15   2.0000     -10.271585      -279.5040
  16   2.0000      -8.084668      -219.9950
  17   2.0000      -8.078820      -219.8359
  18   2.0000      -6.043062      -164.4401
  19   2.0000      -6.039148      -164.3336
  20   2.0000      -6.037436      -164.2870
  21   2.0000      -6.035447      -164.2329
  22   2.0000      -6.033518      -164.1804
  23   2.0000      -6.029080      -164.0596
  24   2.0000      -1.011938       -27.5362
  25   2.0000      -0.987634       -26.8749
  26   2.0000      -0.911631       -24.8067
  27   2.0000      -0.906821       -24.6759
  28   2.0000      -0.870783       -23.6952
  29   2.0000      -0.850414       -23.1409
  30   2.0000      -0.839869       -22.8540
  31   2.0000      -0.811231       -22.0747
  32   2.0000      -0.788823       -21.4650
  33   2.0000      -0.777109       -21.1462
  34   2.0000      -0.712253       -19.3814
  35   2.0000      -0.699416       -19.0321
  36   2.0000      -0.691951       -18.8289
  37   2.0000      -0.653253       -17.7759
  38   2.0000      -0.632450       -17.2098
  39   2.0000      -0.625857       -17.0304
  40   2.0000      -0.598724       -16.2921
  41   2.0000      -0.563776       -15.3411
  42   2.0000      -0.554198       -15.0805
  43   2.0000      -0.551589       -15.0095
  44   2.0000      -0.533311       -14.5121
  45   2.0000      -0.530153       -14.4262
  46   2.0000      -0.520889       -14.1741
  47   2.0000      -0.504573       -13.7301
  48   2.0000      -0.499691       -13.5973
  49   2.0000      -0.492476       -13.4010
  50   2.0000      -0.489448       -13.3186
  51   2.0000      -0.476101       -12.9554
  52   2.0000      -0.475426       -12.9370
  53   2.0000      -0.467762       -12.7285
  54   2.0000      -0.457603       -12.4520
  55   2.0000      -0.452150       -12.3036
  56   2.0000      -0.450142       -12.2490
  57   2.0000      -0.442629       -12.0446
  58   2.0000      -0.436308       -11.8725
  59   2.0000      -0.426813       -11.6142
  60   2.0000      -0.422720       -11.5028
  61   2.0000      -0.411203       -11.1894
  62   2.0000      -0.406085       -11.0501
  63   2.0000      -0.359214        -9.7747
  64   2.0000      -0.337171        -9.1749
  65   2.0000      -0.322790        -8.7836
  66   2.0000      -0.276735        -7.5303
  67   0.0000       0.022028         0.5994
  68   0.0000       0.073377         1.9967
  69   0.0000       0.103128         2.8062
  70   0.0000       0.119201         3.2436
  71   0.0000       0.134307         3.6547

MULLIKEN ATOMIC CHARGES
-----------------------
   0 S :    0.105302
   1 C :   -0.135213
   2 C :   -0.054178
   3 C :   -0.007294
   4 C :   -0.120100
   5 H :    0.007233
   6 C :    0.064446
   7 H :    0.037386
   8 H :    0.013069
   9 C :   -0.073133
  10 H :    0.038741
  11 H :    0.031026
  12 C :   -0.071817
  13 H :    0.033334
  14 H :    0.034504
  15 H :    0.019455
  16 S :    0.103721
  17 C :   -0.096752
  18 C :   -0.055362
  19 C :   -0.099424
  20 C :   -0.128328
  21 H :    0.033180
  22 C :    0.109665
  23 H :    0.047406
  24 H :   -0.003179
  25 C :   -0.067380
  26 H :    0.028798
  27 H :    0.035852
  28 C :   -0.033429
  29 H :    0.030280
  30 H :    0.023174
  31 H :    0.024271
  32 H :    0.059868
  33 H :    0.064880
Sum of atomic charges:   -0.0000000

LOEWDIN ATOMIC CHARGES
----------------------
   0 S :    0.423762
   1 C :   -0.206328
   2 C :   -0.063625
   3 C :   -0.064584
   4 C :   -0.199359
   5 H :    0.027266
   6 C :   -0.031604
   7 H :    0.036489
   8 H :    0.029670
   9 C :   -0.045967
  10 H :    0.036612
  11 H :    0.021685
  12 C :   -0.080162
  13 H :    0.027375
  14 H :    0.028573
  15 H :    0.024265
  16 S :    0.406359
  17 C :   -0.202229
  18 C :   -0.075387
  19 C :   -0.054536
  20 C :   -0.203016
  21 H :    0.035586
  22 C :   -0.026462
  23 H :    0.044148
  24 H :    0.011821
  25 C :   -0.030867
  26 H :    0.018976
  27 H :    0.029217
  28 C :   -0.066208
  29 H :    0.027849
  30 H :    0.023236
  31 H :    0.024874
  32 H :    0.035611
  33 H :    0.036961

  Mayer bond orders larger than 0.100000
B(  0-S ,  1-C ) :   1.1397 B(  0-S ,  4-C ) :   1.1623 B(  1-C ,  2-C ) :   1.6087
B(  1-C , 32-H ) :   0.9582 B(  2-C ,  3-C ) :   1.2713 B(  2-C ,  6-C ) :   1.0082
B(  3-C ,  4-C ) :   1.5234 B(  3-C ,  5-H ) :   0.9922 B(  4-C , 20-C ) :   1.0957
B(  6-C ,  7-H ) :   0.9357 B(  6-C ,  8-H ) :   0.9435 B(  6-C ,  9-C ) :   1.0800
B(  9-C , 10-H ) :   0.9502 B(  9-C , 11-H ) :   0.9528 B(  9-C , 12-C ) :   1.0727
B( 12-C , 13-H ) :   0.9745 B( 12-C , 14-H ) :   0.9714 B( 12-C , 15-H ) :   0.9738
B( 16-S , 17-C ) :   1.1504 B( 16-S , 20-C ) :   1.1289 B( 17-C , 18-C ) :   1.6449
B( 17-C , 33-H ) :   0.9582 B( 18-C , 19-C ) :   1.2175 B( 18-C , 21-H ) :   0.9823
B( 19-C , 20-C ) :   1.5718 B( 19-C , 22-C ) :   1.0362 B( 22-C , 23-H ) :   0.9308
B( 22-C , 24-H ) :   0.9265 B( 22-C , 25-C ) :   1.0775 B( 25-C , 26-H ) :   0.9600
B( 25-C , 27-H ) :   0.9585 B( 25-C , 28-C ) :   1.0564 B( 28-C , 29-H ) :   0.9784
B( 28-C , 30-H ) :   0.9785 B( 28-C , 31-H ) :   0.9764

Dispersion correction           -0.014695327
FINAL SINGLE POINT ENERGY     -1339.859108830334

DIPOLE MOMENT
-------------
                                X             Y             Z
Electronic contribution:     15.55730      19.52641     -10.81360
Nuclear contribution   :    -15.73351     -20.10380      11.00703
                        -----------------------------------------
Total Dipole Moment    :     -0.17621      -0.57739       0.19343
                        -----------------------------------------
Magnitude (a.u.)       :      0.63391
Magnitude (Debye)      :      1.61126

Rotational constants in cm-1:     0.018758     0.009350     0.007104
Rotational constants in MHz :   562.360939   280.301831   212.983427

                             ****ORCA TERMINATED NORMALLY****
TOTAL RUN TIME: 0 days 0 hours 0 minutes 35 seconds 713 msec
