                         Program Version 4.2.1 -  RELEASE  -
|  1> ! wB97X-D3 SP def2-SVP
|  2> %pal
|  3> nprocs 16
|  4> end
|  5>
|  6> * xyz 0 1
|  7> S 	 -12.4172 	 41.8099 	 39.8014
|  8> C 	 -13.4362 	 40.4198 	 39.7208
|  9> C 	 -12.6521 	 39.2758 	 39.5155
| 10> C 	 -11.2629 	 39.5944 	 39.581
| 11> C 	 -10.9749 	 40.9024 	 39.8456
| 12> H 	 -10.4839 	 38.8408 	 39.4008
| 13> C 	 -13.1811 	 37.9328 	 39.2055
| 14> H 	 -12.6367 	 37.694 	 38.2996
| 15> H 	 -14.2357 	 37.806 	 38.9429
| 16> C 	 -13.0602 	 36.9935 	 40.3931
| 17> H 	 -11.9715 	 36.7447 	 40.584
| 18> H 	 -13.4565 	 37.3782 	 41.3566
| 19> C 	 -13.6572 	 35.6026 	 40.1387
| 20> H 	 -14.6775 	 35.4801 	 40.1925
| 21> H 	 -13.2592 	 35.1703 	 39.1363
| 22> H 	 -13.2463 	 34.8526 	 40.8272
| 23> S 	 -9.33979 	 42.27 	 41.4366
| 24> C 	 -7.67553 	 42.4128 	 41.1858
| 25> C 	 -7.32082 	 41.8256 	 39.9666
| 26> C 	 -8.42998 	 41.3209 	 39.2473
| 27> C 	 -9.63228 	 41.4479 	 39.9647
| 28> H 	 -6.30762 	 41.8711 	 39.6669
| 29> C 	 -8.3353 	 40.7724 	 37.8697
| 30> H 	 -9.28937 	 40.8 	 37.3743
| 31> H 	 -8.14414 	 39.6567 	 38.1357
| 32> C 	 -7.19649 	 41.3759 	 36.955
| 33> H 	 -6.24073 	 40.9567 	 37.2669
| 34> H 	 -7.15789 	 42.4715 	 37.0569
| 35> C 	 -7.46455 	 40.9873 	 35.5221
| 36> H 	 -8.30755 	 41.5055 	 35.0593
| 37> H 	 -7.63516 	 39.8841 	 35.458
| 38> H 	 -6.58179 	 41.2918 	 34.9128
| 39> H 	 -14.5616 	 40.3179 	 39.7185
| 40> H 	 -6.84412 	 42.8443 	 41.802
| 41> *
| 42>
| 43>                          ****END OF INPUT****

CARTESIAN COORDINATES (ANGSTROEM)
---------------------------------
  S    -12.417200   41.809900   39.801400
  C    -13.436200   40.419800   39.720800
  C    -12.652100   39.275800   39.515500
  C    -11.262900   39.594400   39.581000
  C    -10.974900   40.902400   39.845600
  H    -10.483900   38.840800   39.400800
  C    -13.181100   37.932800   39.205500
  H    -12.636700   37.694000   38.299600
  H    -14.235700   37.806000   38.942900
  C    -13.060200   36.993500   40.393100
  H    -11.971500   36.744700   40.584000
  H    -13.456500   37.378200   41.356600
  C    -13.657200   35.602600   40.138700
  H    -14.677500   35.480100   40.192500
  H    -13.259200   35.170300   39.136300
  H    -13.246300   34.852600   40.827200
  S     -9.339790   42.270000   41.436600
  C     -7.675530   42.412800   41.185800
  C     -7.320820   41.825600   39.966600
  C     -8.429980   41.320900   39.247300
  C     -9.632280   41.447900   39.964700
  H     -6.307620   41.871100   39.666900
  C     -8.335300   40.772400   37.869700
  H     -9.289370   40.800000   37.374300
  H     -8.144140   39.656700   38.135700
  C     -7.196490   41.375900   36.955000
  H     -6.240730   40.956700   37.266900
  H     -7.157890   42.471500   37.056900
  C     -7.464550   40.987300   35.522100
  H     -8.307550   41.505500   35.059300
  H     -7.635160   39.884100   35.458000
  H     -6.581790   41.291800   34.912800
  H    -14.561600   40.317900   39.718500
  H     -6.844120   42.844300   41.802000

 Total Charge           Charge          ....    0
 Multiplicity           Mult            ....    1
 Number of Electrons    NEL             ....  134
 Basis Dimension        Dim             ....  322

ORBITAL ENERGIES
----------------

  NO   OCC          E(Eh)            E(eV)
   0   2.0000     -88.965698     -2420.8797
   1   2.0000     -88.963546     -2420.8212
   2   2.0000     -10.323797      -280.9248
   3   2.0000     -10.319775      -280.8153
   4   2.0000     -10.315180      -280.6903
   5   2.0000     -10.314525      -280.6725
   6   2.0000     -10.301839      -280.3273
   7   2.0000     -10.296707      -280.1876
   8   2.0000     -10.295265      -280.1484
   9   2.0000     -10.291907      -280.0570
  10   2.0000     -10.291650      -280.0500
  11   2.0000     -10.290033      -280.0060
  12   2.0000     -10.289595      -279.9941
  13   2.0000     -10.287093      -279.9260
  14   2.0000     -10.282342      -279.7967
  15   2.0000     -10.278187      -279.6837
  16   2.0000      -8.081315      -219.9038
  17   2.0000      -8.079783      -219.8621
  18   2.0000      -6.039815      -164.3517
  19   2.0000      -6.038075      -164.3044
  20   2.0000      -6.035644      -164.2382
  21   2.0000      -6.033777      -164.1874
  22   2.0000      -6.032072      -164.1410
  23   2.0000      -6.030967      -164.1110
  24   2.0000      -1.015571       -27.6351
  25   2.0000      -0.992727       -27.0135
  26   2.0000      -0.917478       -24.9659
  27   2.0000      -0.909878       -24.7590
  28   2.0000      -0.870121       -23.6772
  29   2.0000      -0.856004       -23.2931
  30   2.0000      -0.848271       -23.0826
  31   2.0000      -0.814936       -22.1755
  32   2.0000      -0.780948       -21.2507
  33   2.0000      -0.766343       -20.8533
  34   2.0000      -0.706198       -19.2166
  35   2.0000      -0.699022       -19.0214
  36   2.0000      -0.694030       -18.8855
  37   2.0000      -0.653423       -17.7805
  38   2.0000      -0.637658       -17.3516
  39   2.0000      -0.625244       -17.0138
  40   2.0000      -0.594045       -16.1648
  41   2.0000      -0.572037       -15.5659
  42   2.0000      -0.567244       -15.4355
  43   2.0000      -0.563564       -15.3354
  44   2.0000      -0.528410       -14.3788
  45   2.0000      -0.523452       -14.2438
  46   2.0000      -0.519859       -14.1461
  47   2.0000      -0.515285       -14.0216
  48   2.0000      -0.505910       -13.7665
  49   2.0000      -0.502322       -13.6689
  50   2.0000      -0.489286       -13.3141
  51   2.0000      -0.480651       -13.0792
  52   2.0000      -0.468576       -12.7506
  53   2.0000      -0.461809       -12.5665
  54   2.0000      -0.460414       -12.5285
  55   2.0000      -0.448839       -12.2135
  56   2.0000      -0.448254       -12.1976
  57   2.0000      -0.434008       -11.8100
  58   2.0000      -0.432342       -11.7646
  59   2.0000      -0.430895       -11.7252
  60   2.0000      -0.425128       -11.5683
  61   2.0000      -0.411443       -11.1959
  62   2.0000      -0.403155       -10.9704
  63   2.0000      -0.343033        -9.3344
  64   2.0000      -0.326496        -8.8844
  65   2.0000      -0.325050        -8.8451
  66   2.0000      -0.292663        -7.9638
  67   0.0000       0.038344         1.0434
  68   0.0000       0.072942         1.9849
  69   0.0000       0.116476         3.1695
  70   0.0000       0.130916         3.5624
  71   0.0000       0.138102         3.7580

MULLIKEN ATOMIC CHARGES
-----------------------
   0 S :    0.128515
   1 C :   -0.128029
   2 C :   -0.108621
   3 C :    0.017708
   4 C :   -0.130220
   5 H :    0.012047
   6 C :    0.077886
   7 H :    0.032931
   8 H :    0.017873
   9 C :   -0.097187
  10 H :    0.032642
  11 H :    0.043518
  12 C :   -0.056487
  13 H :    0.025227
  14 H :    0.027637
  15 H :    0.028594
  16 S :    0.132011
  17 C :   -0.094140
  18 C :   -0.066318
  19 C :   -0.018572
  20 C :   -0.177427
  21 H :    0.002774
  22 C :    0.021463
  23 H :    0.030713
  24 H :    0.052871
  25 C :   -0.073334
  26 H :    0.032767
  27 H :    0.044263
  28 C :   -0.060680
  29 H :    0.038894
  30 H :    0.038410
  31 H :    0.036705
  32 H :    0.064705
  33 H :    0.070863
Sum of atomic charges:    0.0000000

LOEWDIN ATOMIC CHARGES
----------------------
   0 S :    0.437304
   1 C :   -0.222318
   2 C :   -0.065422
   3 C :   -0.066854
   4 C :   -0.220358
   5 H :    0.031812
   6 C :   -0.039063
   7 H :    0.037158
   8 H :    0.031473
   9 C :   -0.043916
  10 H :    0.029015
  11 H :    0.031386
  12 C :   -0.072958
  13 H :    0.008555
  14 H :    0.033195
  15 H :    0.028962
  16 S :    0.462130
  17 C :   -0.218868
  18 C :   -0.078829
  19 C :   -0.056864
  20 C :   -0.223265
  21 H :    0.023516
  22 C :   -0.038606
  23 H :    0.027382
  24 H :    0.047359
  25 C :   -0.039585
  26 H :    0.023755
  27 H :    0.028505
  28 C :   -0.070069
  29 H :    0.025445
  30 H :    0.029909
  31 H :    0.029863
  32 H :    0.044470
  33 H :    0.045781

  Mayer bond orders larger than 0.100000
B(  0-S ,  1-C ) :   1.1463 B(  0-S ,  4-C ) :   1.1734 B(  1-C ,  2-C ) :   1.5810
B(  1-C , 32-H ) :   0.9611 B(  2-C ,  3-C ) :   1.2726 B(  2-C ,  6-C ) :   1.0301
B(  3-C ,  4-C ) :   1.5424 B(  3-C ,  5-H ) :   0.9978 B(  4-C , 20-C ) :   1.0118
B(  6-C ,  7-H ) :   0.9305 B(  6-C ,  8-H ) :   0.9478 B(  6-C ,  9-C ) :   1.0552
B(  9-C , 10-H ) :   0.9559 B(  9-C , 11-H ) :   0.9570 B(  9-C , 12-C ) :   1.0824
B( 12-C , 13-H ) :   0.9774 B( 12-C , 14-H ) :   0.9711 B( 12-C , 15-H ) :   0.9738
B( 16-S , 17-C ) :   1.1955 B( 16-S , 20-C ) :   1.1721 B( 17-C , 18-C ) :   1.5579
B( 17-C , 20-C ) :   0.1074 B( 17-C , 33-H ) :   0.9594 B( 18-C , 19-C ) :   1.2800
B( 18-C , 21-H ) :   0.9978 B( 19-C , 20-C ) :   1.5407 B( 19-C , 22-C ) :   1.0397
B( 22-C , 23-H ) :   0.9493 B( 22-C , 24-H ) :   0.9174 B( 22-C , 25-C ) :   1.0579
B( 25-C , 26-H ) :   0.9435 B( 25-C , 27-H ) :   0.9615 B( 25-C , 28-C ) :   1.0962
B( 28-C , 29-H ) :   0.9752 B( 28-C , 30-H ) :   0.9704 B( 28-C , 31-H ) :   0.9719

Dispersion correction           -0.013519251
FINAL SINGLE POINT ENERGY     -1339.870841499880

DIPOLE MOMENT
-------------
                                X             Y             Z
Electronic contribution:     -2.64093      21.64999      15.12662
Nuclear contribution   :      2.90627     -22.16968     -15.50840
                        -----------------------------------------
Total Dipole Moment    :      0.26534      -0.51969      -0.38178
                        -----------------------------------------
Magnitude (a.u.)       :      0.69730
Magnitude (Debye)      :      1.77241

Rotational constants in cm-1:     0.017851     0.007654     0.006477
Rotational constants in MHz :   535.160213   229.472345   194.162123

                             ****ORCA TERMINATED NORMALLY****
TOTAL RUN TIME: 0 days 0 hours 0 minutes 33 seconds 379 msec
