                         Program Version 4.2.1 -  RELEASE  -
|  1> ! wB97X-D3 SP def2-SVP
|  2> %pal
|  3> nprocs 16
|  4> end
|  5>
|  6> * xyz 0 1
|  7> S 	 10.7895 	 33.5541 	 61.8116
|  8> C 	 11.9958 	 32.2423 	 61.7261
|  9> C 	 12.9725 	 32.4814 	 60.7252
| 10> C 	 12.7494 	 33.7956 	 60.2483
| 11> C 	 11.5707 	 34.444 	 60.5685
| 12> H 	 13.3428 	 34.2166 	 59.4336
| 13> C 	 14.1068 	 31.6063 	 60.2627
| 14> H 	 13.8848 	 31.4374 	 59.1638
| 15> H 	 14.2652 	 30.6636 	 60.8847
| 16> C 	 15.5193 	 32.1625 	 60.4558
| 17> H 	 15.6613 	 33.0858 	 59.951
| 18> H 	 15.7838 	 32.3567 	 61.5555
| 19> C 	 16.6453 	 31.3464 	 59.851
| 20> H 	 16.4871 	 31.2984 	 58.8154
| 21> H 	 17.6621 	 31.7208 	 60.0451
| 22> H 	 16.6082 	 30.2982 	 60.2646
| 23> S 	 10.7618 	 36.7713 	 61.641
| 24> C 	 10.1819 	 38.034 	 60.654
| 25> C 	 10.4031 	 37.7552 	 59.3071
| 26> C 	 11.0122 	 36.495 	 59.0751
| 27> C 	 11.1935 	 35.787 	 60.2831
| 28> H 	 10.0016 	 38.5559 	 58.5739
| 29> C 	 11.2497 	 35.8967 	 57.6722
| 30> H 	 11.5151 	 34.9254 	 57.6523
| 31> H 	 11.9945 	 36.482 	 57.1096
| 32> C 	 9.93856 	 35.9931 	 56.8235
| 33> H 	 10.3268 	 35.9223 	 55.784
| 34> H 	 9.30016 	 36.7958 	 56.9402
| 35> C 	 9.16927 	 34.7404 	 57.1098
| 36> H 	 9.61932 	 33.913 	 56.6406
| 37> H 	 8.09184 	 34.8458 	 56.8781
| 38> H 	 9.23235 	 34.3929 	 58.1181
| 39> H 	 11.9491 	 31.3794 	 62.2705
| 40> H 	 9.71845 	 38.8875 	 61.1241
| 41> *
| 42>
| 43>                          ****END OF INPUT****

CARTESIAN COORDINATES (ANGSTROEM)
---------------------------------
  S     10.789500   33.554100   61.811600
  C     11.995800   32.242300   61.726100
  C     12.972500   32.481400   60.725200
  C     12.749400   33.795600   60.248300
  C     11.570700   34.444000   60.568500
  H     13.342800   34.216600   59.433600
  C     14.106800   31.606300   60.262700
  H     13.884800   31.437400   59.163800
  H     14.265200   30.663600   60.884700
  C     15.519300   32.162500   60.455800
  H     15.661300   33.085800   59.951000
  H     15.783800   32.356700   61.555500
  C     16.645300   31.346400   59.851000
  H     16.487100   31.298400   58.815400
  H     17.662100   31.720800   60.045100
  H     16.608200   30.298200   60.264600
  S     10.761800   36.771300   61.641000
  C     10.181900   38.034000   60.654000
  C     10.403100   37.755200   59.307100
  C     11.012200   36.495000   59.075100
  C     11.193500   35.787000   60.283100
  H     10.001600   38.555900   58.573900
  C     11.249700   35.896700   57.672200
  H     11.515100   34.925400   57.652300
  H     11.994500   36.482000   57.109600
  C      9.938560   35.993100   56.823500
  H     10.326800   35.922300   55.784000
  H      9.300160   36.795800   56.940200
  C      9.169270   34.740400   57.109800
  H      9.619320   33.913000   56.640600
  H      8.091840   34.845800   56.878100
  H      9.232350   34.392900   58.118100
  H     11.949100   31.379400   62.270500
  H      9.718450   38.887500   61.124100

 Total Charge           Charge          ....    0
 Multiplicity           Mult            ....    1
 Number of Electrons    NEL             ....  134
 Basis Dimension        Dim             ....  322

ORBITAL ENERGIES
----------------

  NO   OCC          E(Eh)            E(eV)
   0   2.0000     -88.968217     -2420.9483
   1   2.0000     -88.963790     -2420.8278
   2   2.0000     -10.324425      -280.9419
   3   2.0000     -10.323824      -280.9255
   4   2.0000     -10.314681      -280.6768
   5   2.0000     -10.313911      -280.6558
   6   2.0000     -10.309306      -280.5305
   7   2.0000     -10.308804      -280.5168
   8   2.0000     -10.307201      -280.4732
   9   2.0000     -10.302553      -280.3467
  10   2.0000     -10.290824      -280.0276
  11   2.0000     -10.288491      -279.9641
  12   2.0000     -10.288481      -279.9638
  13   2.0000     -10.279354      -279.7154
  14   2.0000     -10.277391      -279.6620
  15   2.0000     -10.261606      -279.2325
  16   2.0000      -8.082777      -219.9436
  17   2.0000      -8.079834      -219.8635
  18   2.0000      -6.041254      -164.3909
  19   2.0000      -6.038095      -164.3049
  20   2.0000      -6.037156      -164.2794
  21   2.0000      -6.034015      -164.1939
  22   2.0000      -6.033719      -164.1858
  23   2.0000      -6.030910      -164.1094
  24   2.0000      -1.013015       -27.5655
  25   2.0000      -0.985891       -26.8275
  26   2.0000      -0.917883       -24.9769
  27   2.0000      -0.915155       -24.9026
  28   2.0000      -0.874542       -23.7975
  29   2.0000      -0.852662       -23.2021
  30   2.0000      -0.845190       -22.9988
  31   2.0000      -0.810673       -22.0595
  32   2.0000      -0.784931       -21.3591
  33   2.0000      -0.774818       -21.0839
  34   2.0000      -0.707160       -19.2428
  35   2.0000      -0.702932       -19.1278
  36   2.0000      -0.694585       -18.9006
  37   2.0000      -0.653499       -17.7826
  38   2.0000      -0.642399       -17.4806
  39   2.0000      -0.624719       -16.9995
  40   2.0000      -0.610825       -16.6214
  41   2.0000      -0.573462       -15.6047
  42   2.0000      -0.566744       -15.4219
  43   2.0000      -0.551571       -15.0090
  44   2.0000      -0.541161       -14.7258
  45   2.0000      -0.531264       -14.4564
  46   2.0000      -0.516565       -14.0564
  47   2.0000      -0.513667       -13.9776
  48   2.0000      -0.505138       -13.7455
  49   2.0000      -0.497822       -13.5464
  50   2.0000      -0.492366       -13.3979
  51   2.0000      -0.480846       -13.0845
  52   2.0000      -0.474580       -12.9140
  53   2.0000      -0.462916       -12.5966
  54   2.0000      -0.458515       -12.4768
  55   2.0000      -0.452925       -12.3247
  56   2.0000      -0.446847       -12.1593
  57   2.0000      -0.438855       -11.9419
  58   2.0000      -0.430682       -11.7195
  59   2.0000      -0.426060       -11.5937
  60   2.0000      -0.420967       -11.4551
  61   2.0000      -0.411291       -11.1918
  62   2.0000      -0.403906       -10.9908
  63   2.0000      -0.346264        -9.4223
  64   2.0000      -0.334102        -9.0914
  65   2.0000      -0.329046        -8.9538
  66   2.0000      -0.287337        -7.8188
  67   0.0000       0.026719         0.7271
  68   0.0000       0.072360         1.9690
  69   0.0000       0.111303         3.0287
  70   0.0000       0.119539         3.2528
  71   0.0000       0.132343         3.6012

MULLIKEN ATOMIC CHARGES
-----------------------
   0 S :    0.110643
   1 C :   -0.093719
   2 C :   -0.052738
   3 C :    0.014885
   4 C :   -0.153303
   5 H :    0.013627
   6 C :    0.034395
   7 H :    0.053812
   8 H :    0.038890
   9 C :   -0.103507
  10 H :    0.018284
  11 H :    0.046109
  12 C :   -0.043619
  13 H :    0.019264
  14 H :    0.043930
  15 H :    0.024691
  16 S :    0.115986
  17 C :   -0.114860
  18 C :   -0.069927
  19 C :   -0.015239
  20 C :   -0.161950
  21 H :    0.056017
  22 C :    0.113404
  23 H :   -0.014056
  24 H :    0.031636
  25 C :   -0.062290
  26 H :    0.028896
  27 H :    0.019561
  28 C :   -0.035389
  29 H :    0.010285
  30 H :    0.035329
  31 H :    0.019829
  32 H :    0.010258
  33 H :    0.060865
Sum of atomic charges:   -0.0000000

LOEWDIN ATOMIC CHARGES
----------------------
   0 S :    0.414183
   1 C :   -0.172249
   2 C :   -0.058852
   3 C :   -0.065694
   4 C :   -0.214401
   5 H :    0.026600
   6 C :   -0.038971
   7 H :    0.044849
   8 H :    0.043049
   9 C :   -0.050140
  10 H :    0.014530
  11 H :    0.034027
  12 C :   -0.063498
  13 H :    0.015761
  14 H :    0.031712
  15 H :    0.024542
  16 S :    0.435924
  17 C :   -0.203183
  18 C :   -0.084728
  19 C :   -0.051251
  20 C :   -0.210053
  21 H :    0.048833
  22 C :   -0.010276
  23 H :    0.009680
  24 H :    0.033491
  25 C :   -0.029290
  26 H :    0.028025
  27 H :    0.011126
  28 C :   -0.065626
  29 H :    0.018386
  30 H :    0.027834
  31 H :    0.022777
  32 H :    0.005543
  33 H :    0.027341

  Mayer bond orders larger than 0.100000
B(  0-S ,  1-C ) :   1.1522 B(  0-S ,  4-C ) :   1.1473 B(  1-C ,  2-C ) :   1.5655
B(  1-C ,  4-C ) :   0.1029 B(  1-C , 32-H ) :   0.9794 B(  2-C ,  3-C ) :   1.2694
B(  2-C ,  6-C ) :   1.0285 B(  3-C ,  4-C ) :   1.5567 B(  3-C ,  5-H ) :   0.9795
B(  4-C , 20-C ) :   1.0650 B(  6-C ,  7-H ) :   0.9311 B(  6-C ,  8-H ) :   0.9451
B(  6-C ,  9-C ) :   1.0601 B(  9-C , 10-H ) :   0.9505 B(  9-C , 11-H ) :   0.9564
B(  9-C , 12-C ) :   1.0864 B( 12-C , 13-H ) :   0.9741 B( 12-C , 14-H ) :   0.9735
B( 12-C , 15-H ) :   0.9722 B( 16-S , 17-C ) :   1.1791 B( 16-S , 20-C ) :   1.1686
B( 17-C , 18-C ) :   1.5706 B( 17-C , 20-C ) :   0.1045 B( 17-C , 33-H ) :   0.9726
B( 18-C , 19-C ) :   1.2654 B( 18-C , 21-H ) :   0.9770 B( 19-C , 20-C ) :   1.5412
B( 19-C , 22-C ) :   1.0523 B( 22-C , 23-H ) :   0.9357 B( 22-C , 24-H ) :   0.9338
B( 22-C , 25-C ) :   1.0618 B( 25-C , 26-H ) :   0.9574 B( 25-C , 27-H ) :   0.9678
B( 25-C , 28-C ) :   1.0752 B( 28-C , 29-H ) :   0.9686 B( 28-C , 30-H ) :   0.9735
B( 28-C , 31-H ) :   0.9746

Dispersion correction           -0.013973722
FINAL SINGLE POINT ENERGY     -1339.850706081405

DIPOLE MOMENT
-------------
                                X             Y             Z
Electronic contribution:    -12.69219      11.17654      19.20542
Nuclear contribution   :     12.99613     -11.26623     -19.67082
                        -----------------------------------------
Total Dipole Moment    :      0.30394      -0.08969      -0.46540
                        -----------------------------------------
Magnitude (a.u.)       :      0.56305
Magnitude (Debye)      :      1.43115

Rotational constants in cm-1:     0.019577     0.007943     0.006927
Rotational constants in MHz :   586.901593   238.123958   207.651483

                             ****ORCA TERMINATED NORMALLY****
TOTAL RUN TIME: 0 days 0 hours 0 minutes 33 seconds 92 msec
