                         Program Version 4.2.1 -  RELEASE  -
|  1> ! wB97X-D3 SP def2-SVP
|  2> %pal
|  3> nprocs 16
|  4> end
|  5>
|  6> * xyz 0 1
|  7> S 	 38.8995 	 29.328 	 84.0225
|  8> C 	 37.629 	 28.7092 	 85.0755
|  9> C 	 38.0603 	 27.5651 	 85.7382
| 10> C 	 39.4574 	 27.3233 	 85.4024
| 11> C 	 40.029 	 28.1024 	 84.4358
| 12> H 	 40.0605 	 26.5216 	 85.6922
| 13> C 	 37.3102 	 26.5275 	 86.5149
| 14> H 	 38.0682 	 25.8495 	 86.9612
| 15> H 	 36.8672 	 25.9266 	 85.7105
| 16> C 	 36.3458 	 26.9914 	 87.6381
| 17> H 	 36.9805 	 27.5188 	 88.3976
| 18> H 	 35.7336 	 27.7939 	 87.1936
| 19> C 	 35.6016 	 25.9064 	 88.2548
| 20> H 	 35.0727 	 26.2952 	 89.1272
| 21> H 	 34.8248 	 25.6429 	 87.6112
| 22> H 	 36.2274 	 25.0214 	 88.5574
| 23> S 	 42.4166 	 29.5335 	 84.7229
| 24> C 	 43.9255 	 28.7525 	 84.1787
| 25> C 	 43.7258 	 27.446 	 83.7279
| 26> C 	 42.32 	 27.1294 	 83.7353
| 27> C 	 41.4636 	 28.1566 	 84.1225
| 28> H 	 44.596 	 26.9393 	 83.4028
| 29> C 	 41.8963 	 25.7365 	 83.2957
| 30> H 	 42.3089 	 25.7784 	 82.2674
| 31> H 	 40.8157 	 25.6403 	 82.9305
| 32> C 	 42.4227 	 24.5505 	 84.0531
| 33> H 	 42.1043 	 24.5987 	 85.0937
| 34> H 	 43.5854 	 24.5394 	 83.9267
| 35> C 	 41.8115 	 23.2922 	 83.5349
| 36> H 	 41.9088 	 23.2303 	 82.4333
| 37> H 	 40.7881 	 23.2758 	 83.8567
| 38> H 	 42.2264 	 22.3211 	 83.9917
| 39> H 	 36.6524 	 29.1776 	 85.1341
| 40> H 	 44.937 	 29.1652 	 84.3488
| 41> *
| 42>
| 43>                          ****END OF INPUT****

CARTESIAN COORDINATES (ANGSTROEM)
---------------------------------
  S     38.899500   29.328000   84.022500
  C     37.629000   28.709200   85.075500
  C     38.060300   27.565100   85.738200
  C     39.457400   27.323300   85.402400
  C     40.029000   28.102400   84.435800
  H     40.060500   26.521600   85.692200
  C     37.310200   26.527500   86.514900
  H     38.068200   25.849500   86.961200
  H     36.867200   25.926600   85.710500
  C     36.345800   26.991400   87.638100
  H     36.980500   27.518800   88.397600
  H     35.733600   27.793900   87.193600
  C     35.601600   25.906400   88.254800
  H     35.072700   26.295200   89.127200
  H     34.824800   25.642900   87.611200
  H     36.227400   25.021400   88.557400
  S     42.416600   29.533500   84.722900
  C     43.925500   28.752500   84.178700
  C     43.725800   27.446000   83.727900
  C     42.320000   27.129400   83.735300
  C     41.463600   28.156600   84.122500
  H     44.596000   26.939300   83.402800
  C     41.896300   25.736500   83.295700
  H     42.308900   25.778400   82.267400
  H     40.815700   25.640300   82.930500
  C     42.422700   24.550500   84.053100
  H     42.104300   24.598700   85.093700
  H     43.585400   24.539400   83.926700
  C     41.811500   23.292200   83.534900
  H     41.908800   23.230300   82.433300
  H     40.788100   23.275800   83.856700
  H     42.226400   22.321100   83.991700
  H     36.652400   29.177600   85.134100
  H     44.937000   29.165200   84.348800

 Total Charge           Charge          ....    0
 Multiplicity           Mult            ....    1
 Number of Electrons    NEL             ....  134
 Basis Dimension        Dim             ....  322

ORBITAL ENERGIES
----------------

  NO   OCC          E(Eh)            E(eV)
   0   2.0000     -88.964948     -2420.8593
   1   2.0000     -88.961363     -2420.7617
   2   2.0000     -10.329313      -281.0749
   3   2.0000     -10.324294      -280.9383
   4   2.0000     -10.323342      -280.9124
   5   2.0000     -10.317238      -280.7463
   6   2.0000     -10.309122      -280.5255
   7   2.0000     -10.305276      -280.4208
   8   2.0000     -10.296545      -280.1832
   9   2.0000     -10.294941      -280.1396
  10   2.0000     -10.293876      -280.1106
  11   2.0000     -10.293780      -280.1080
  12   2.0000     -10.289232      -279.9842
  13   2.0000     -10.285742      -279.8893
  14   2.0000     -10.282693      -279.8063
  15   2.0000     -10.275210      -279.6027
  16   2.0000      -8.078700      -219.8326
  17   2.0000      -8.076601      -219.7755
  18   2.0000      -6.037354      -164.2848
  19   2.0000      -6.035116      -164.2239
  20   2.0000      -6.033417      -164.1776
  21   2.0000      -6.030907      -164.1093
  22   2.0000      -6.029271      -164.0648
  23   2.0000      -6.027447      -164.0152
  24   2.0000      -1.003841       -27.3159
  25   2.0000      -0.979345       -26.6493
  26   2.0000      -0.918170       -24.9847
  27   2.0000      -0.914905       -24.8958
  28   2.0000      -0.872627       -23.7454
  29   2.0000      -0.853449       -23.2235
  30   2.0000      -0.849806       -23.1244
  31   2.0000      -0.814808       -22.1721
  32   2.0000      -0.781682       -21.2706
  33   2.0000      -0.768645       -20.9159
  34   2.0000      -0.705928       -19.2093
  35   2.0000      -0.697325       -18.9752
  36   2.0000      -0.688672       -18.7397
  37   2.0000      -0.660258       -17.9665
  38   2.0000      -0.645742       -17.5715
  39   2.0000      -0.611151       -16.6303
  40   2.0000      -0.592270       -16.1165
  41   2.0000      -0.578263       -15.7353
  42   2.0000      -0.571553       -15.5527
  43   2.0000      -0.564516       -15.3613
  44   2.0000      -0.530780       -14.4433
  45   2.0000      -0.525781       -14.3072
  46   2.0000      -0.520578       -14.1656
  47   2.0000      -0.513196       -13.9648
  48   2.0000      -0.510188       -13.8829
  49   2.0000      -0.498849       -13.5744
  50   2.0000      -0.494002       -13.4425
  51   2.0000      -0.477271       -12.9872
  52   2.0000      -0.472678       -12.8622
  53   2.0000      -0.464356       -12.6358
  54   2.0000      -0.459196       -12.4954
  55   2.0000      -0.450789       -12.2666
  56   2.0000      -0.444247       -12.0886
  57   2.0000      -0.431516       -11.7422
  58   2.0000      -0.425597       -11.5811
  59   2.0000      -0.424504       -11.5513
  60   2.0000      -0.417575       -11.3628
  61   2.0000      -0.414164       -11.2700
  62   2.0000      -0.405736       -11.0406
  63   2.0000      -0.343432        -9.3453
  64   2.0000      -0.326695        -8.8898
  65   2.0000      -0.323018        -8.7898
  66   2.0000      -0.299051        -8.1376
  67   0.0000       0.035430         0.9641
  68   0.0000       0.064447         1.7537
  69   0.0000       0.112886         3.0718
  70   0.0000       0.118916         3.2359
  71   0.0000       0.123661         3.3650

MULLIKEN ATOMIC CHARGES
-----------------------
   0 S :    0.094864
   1 C :   -0.143464
   2 C :   -0.056502
   3 C :    0.044998
   4 C :   -0.169492
   5 H :   -0.020531
   6 C :    0.034990
   7 H :    0.023351
   8 H :    0.047438
   9 C :   -0.095947
  10 H :    0.035868
  11 H :    0.027696
  12 C :    0.000113
  13 H :    0.029628
  14 H :    0.016433
  15 H :    0.042966
  16 S :    0.099008
  17 C :   -0.110849
  18 C :   -0.021426
  19 C :   -0.025466
  20 C :   -0.111697
  21 H :    0.014811
  22 C :   -0.018305
  23 H :    0.031535
  24 H :    0.036060
  25 C :   -0.054068
  26 H :    0.034995
  27 H :    0.046786
  28 C :   -0.063868
  29 H :    0.035143
  30 H :    0.028464
  31 H :    0.041607
  32 H :    0.055901
  33 H :    0.068962
Sum of atomic charges:    0.0000000

LOEWDIN ATOMIC CHARGES
----------------------
   0 S :    0.410737
   1 C :   -0.195761
   2 C :   -0.060723
   3 C :   -0.055929
   4 C :   -0.211719
   5 H :    0.017904
   6 C :   -0.038340
   7 H :    0.031417
   8 H :    0.038639
   9 C :   -0.046449
  10 H :    0.030123
  11 H :    0.024430
  12 C :   -0.064382
  13 H :    0.031298
  14 H :    0.019664
  15 H :    0.034863
  16 S :    0.381801
  17 C :   -0.170507
  18 C :   -0.069106
  19 C :   -0.050835
  20 C :   -0.195594
  21 H :    0.030110
  22 C :   -0.056094
  23 H :    0.038752
  24 H :    0.038491
  25 C :   -0.048424
  26 H :    0.025598
  27 H :    0.034782
  28 C :   -0.069482
  29 H :    0.025759
  30 H :    0.022710
  31 H :    0.033658
  32 H :    0.027801
  33 H :    0.034810

  Mayer bond orders larger than 0.100000
B(  0-S ,  1-C ) :   1.1486 B(  0-S ,  4-C ) :   1.1465 B(  1-C ,  2-C ) :   1.5819
B(  1-C , 32-H ) :   0.9747 B(  2-C ,  3-C ) :   1.2406 B(  2-C ,  6-C ) :   1.0133
B(  3-C ,  4-C ) :   1.5936 B(  3-C ,  5-H ) :   0.9958 B(  4-C , 20-C ) :   1.0151
B(  6-C ,  7-H ) :   0.9401 B(  6-C ,  8-H ) :   0.9363 B(  6-C ,  9-C ) :   1.0525
B(  9-C , 10-H ) :   0.9553 B(  9-C , 11-H ) :   0.9546 B(  9-C , 12-C ) :   1.0999
B( 12-C , 13-H ) :   0.9665 B( 12-C , 14-H ) :   0.9687 B( 12-C , 15-H ) :   0.9688
B( 16-S , 17-C ) :   1.1556 B( 16-S , 20-C ) :   1.1166 B( 17-C , 18-C ) :   1.6292
B( 17-C , 33-H ) :   0.9606 B( 18-C , 19-C ) :   1.2044 B( 18-C , 21-H ) :   0.9997
B( 19-C , 20-C ) :   1.6302 B( 19-C , 22-C ) :   1.0266 B( 22-C , 23-H ) :   0.9285
B( 22-C , 24-H ) :   0.9425 B( 22-C , 25-C ) :   1.0558 B( 25-C , 26-H ) :   0.9557
B( 25-C , 27-H ) :   0.9447 B( 25-C , 28-C ) :   1.0890 B( 28-C , 29-H ) :   0.9724
B( 28-C , 30-H ) :   0.9730 B( 28-C , 31-H ) :   0.9715

Dispersion correction           -0.013597509
FINAL SINGLE POINT ENERGY     -1339.861792540026

DIPOLE MOMENT
-------------
                                X             Y             Z
Electronic contribution:      9.84364      26.47010      -8.51514
Nuclear contribution   :     -9.92043     -27.22711       8.75205
                        -----------------------------------------
Total Dipole Moment    :     -0.07679      -0.75700       0.23691
                        -----------------------------------------
Magnitude (a.u.)       :      0.79692
Magnitude (Debye)      :      2.02560

Rotational constants in cm-1:     0.017602     0.008068     0.006186
Rotational constants in MHz :   527.697046   241.868516   185.462527

                             ****ORCA TERMINATED NORMALLY****
TOTAL RUN TIME: 0 days 0 hours 0 minutes 29 seconds 697 msec
