                         Program Version 4.2.1 -  RELEASE  -
|  1> ! wB97X-D3 SP def2-SVP
|  2> %pal
|  3> nprocs 16
|  4> end
|  5>
|  6> * xyz 0 1
|  7> S 	 51.9485 	 1.71322 	 92.9843
|  8> C 	 53.4192 	 2.70077 	 93.2222
|  9> C 	 53.294 	 3.88995 	 92.4809
| 10> C 	 51.9765 	 4.07433 	 91.9218
| 11> C 	 51.1043 	 3.05276 	 92.189
| 12> H 	 51.7518 	 4.95251 	 91.3724
| 13> C 	 54.385 	 4.88246 	 92.3051
| 14> H 	 54.4535 	 5.01963 	 91.15
| 15> H 	 55.3174 	 4.40806 	 92.5528
| 16> C 	 54.2419 	 6.22432 	 92.9469
| 17> H 	 55.0361 	 6.80825 	 92.5763
| 18> H 	 53.352 	 6.77432 	 92.6491
| 19> C 	 54.2345 	 6.21702 	 94.4472
| 20> H 	 54.5856 	 7.26497 	 94.708
| 21> H 	 53.26 	 5.79944 	 94.7425
| 22> H 	 55.0279 	 5.56828 	 94.7832
| 23> S 	 49.4519 	 1.59266 	 90.5671
| 24> C 	 47.83 	 1.98783 	 90.3727
| 25> C 	 47.4892 	 3.11423 	 91.0947
| 26> C 	 48.5397 	 3.59336 	 91.8977
| 27> C 	 49.7266 	 2.93556 	 91.6323
| 28> H 	 46.4543 	 3.42901 	 90.9283
| 29> C 	 48.4409 	 4.75132 	 92.8273
| 30> H 	 47.8128 	 5.44262 	 92.297
| 31> H 	 49.4208 	 5.33238 	 92.9313
| 32> C 	 47.7812 	 4.43415 	 94.1437
| 33> H 	 46.8975 	 3.75744 	 94.0075
| 34> H 	 47.4905 	 5.27481 	 94.7137
| 35> C 	 48.9007 	 3.82784 	 94.9614
| 36> H 	 49.0835 	 2.83852 	 94.5837
| 37> H 	 48.5499 	 3.58326 	 95.9848
| 38> H 	 49.7847 	 4.43278 	 95.1148
| 39> H 	 54.3543 	 2.32839 	 93.6463
| 40> H 	 47.2015 	 1.56987 	 89.6493
| 41> *
| 42>
| 43>                          ****END OF INPUT****

CARTESIAN COORDINATES (ANGSTROEM)
---------------------------------
  S     51.948500    1.713220   92.984300
  C     53.419200    2.700770   93.222200
  C     53.294000    3.889950   92.480900
  C     51.976500    4.074330   91.921800
  C     51.104300    3.052760   92.189000
  H     51.751800    4.952510   91.372400
  C     54.385000    4.882460   92.305100
  H     54.453500    5.019630   91.150000
  H     55.317400    4.408060   92.552800
  C     54.241900    6.224320   92.946900
  H     55.036100    6.808250   92.576300
  H     53.352000    6.774320   92.649100
  C     54.234500    6.217020   94.447200
  H     54.585600    7.264970   94.708000
  H     53.260000    5.799440   94.742500
  H     55.027900    5.568280   94.783200
  S     49.451900    1.592660   90.567100
  C     47.830000    1.987830   90.372700
  C     47.489200    3.114230   91.094700
  C     48.539700    3.593360   91.897700
  C     49.726600    2.935560   91.632300
  H     46.454300    3.429010   90.928300
  C     48.440900    4.751320   92.827300
  H     47.812800    5.442620   92.297000
  H     49.420800    5.332380   92.931300
  C     47.781200    4.434150   94.143700
  H     46.897500    3.757440   94.007500
  H     47.490500    5.274810   94.713700
  C     48.900700    3.827840   94.961400
  H     49.083500    2.838520   94.583700
  H     48.549900    3.583260   95.984800
  H     49.784700    4.432780   95.114800
  H     54.354300    2.328390   93.646300
  H     47.201500    1.569870   89.649300

 Total Charge           Charge          ....    0
 Multiplicity           Mult            ....    1
 Number of Electrons    NEL             ....  134
 Basis Dimension        Dim             ....  322

ORBITAL ENERGIES
----------------

  NO   OCC          E(Eh)            E(eV)
   0   2.0000     -88.966167     -2420.8925
   1   2.0000     -88.963012     -2420.8066
   2   2.0000     -10.334211      -281.2082
   3   2.0000     -10.324205      -280.9359
   4   2.0000     -10.319835      -280.8170
   5   2.0000     -10.307065      -280.4695
   6   2.0000     -10.302458      -280.3441
   7   2.0000     -10.301759      -280.3251
   8   2.0000     -10.292952      -280.0855
   9   2.0000     -10.292193      -280.0648
  10   2.0000     -10.291798      -280.0541
  11   2.0000     -10.286542      -279.9110
  12   2.0000     -10.279206      -279.7114
  13   2.0000     -10.278271      -279.6860
  14   2.0000     -10.276778      -279.6453
  15   2.0000     -10.263502      -279.2841
  16   2.0000      -8.079742      -219.8610
  17   2.0000      -8.079484      -219.8539
  18   2.0000      -6.038457      -164.3148
  19   2.0000      -6.037655      -164.2929
  20   2.0000      -6.034436      -164.2054
  21   2.0000      -6.033648      -164.1839
  22   2.0000      -6.030593      -164.1008
  23   2.0000      -6.030315      -164.0932
  24   2.0000      -1.012058       -27.5395
  25   2.0000      -0.984125       -26.7794
  26   2.0000      -0.920789       -25.0559
  27   2.0000      -0.919084       -25.0096
  28   2.0000      -0.868120       -23.6227
  29   2.0000      -0.853550       -23.2263
  30   2.0000      -0.846018       -23.0213
  31   2.0000      -0.816606       -22.2210
  32   2.0000      -0.780745       -21.2452
  33   2.0000      -0.771017       -20.9804
  34   2.0000      -0.706701       -19.2303
  35   2.0000      -0.696149       -18.9432
  36   2.0000      -0.693112       -18.8605
  37   2.0000      -0.656945       -17.8764
  38   2.0000      -0.637696       -17.3526
  39   2.0000      -0.628129       -17.0923
  40   2.0000      -0.601684       -16.3726
  41   2.0000      -0.574471       -15.6322
  42   2.0000      -0.560337       -15.2476
  43   2.0000      -0.556969       -15.1559
  44   2.0000      -0.541755       -14.7419
  45   2.0000      -0.538680       -14.6582
  46   2.0000      -0.521610       -14.1937
  47   2.0000      -0.513862       -13.9829
  48   2.0000      -0.501440       -13.6449
  49   2.0000      -0.496524       -13.5111
  50   2.0000      -0.489428       -13.3180
  51   2.0000      -0.479383       -13.0447
  52   2.0000      -0.469432       -12.7739
  53   2.0000      -0.464327       -12.6350
  54   2.0000      -0.462552       -12.5867
  55   2.0000      -0.446677       -12.1547
  56   2.0000      -0.439380       -11.9562
  57   2.0000      -0.433691       -11.8013
  58   2.0000      -0.431653       -11.7459
  59   2.0000      -0.420325       -11.4376
  60   2.0000      -0.417157       -11.3514
  61   2.0000      -0.410694       -11.1756
  62   2.0000      -0.405697       -11.0396
  63   2.0000      -0.342496        -9.3198
  64   2.0000      -0.332607        -9.0507
  65   2.0000      -0.324713        -8.8359
  66   2.0000      -0.298931        -8.1343
  67   0.0000       0.037448         1.0190
  68   0.0000       0.061976         1.6865
  69   0.0000       0.108548         2.9538
  70   0.0000       0.122856         3.3431
  71   0.0000       0.128741         3.5032

MULLIKEN ATOMIC CHARGES
-----------------------
   0 S :    0.100350
   1 C :   -0.125314
   2 C :   -0.111796
   3 C :    0.052650
   4 C :   -0.119841
   5 H :    0.002542
   6 C :    0.040744
   7 H :    0.043381
   8 H :    0.009009
   9 C :   -0.050207
  10 H :    0.012987
  11 H :    0.020474
  12 C :   -0.039396
  13 H :    0.043712
  14 H :    0.054617
  15 H :    0.014402
  16 S :    0.117659
  17 C :   -0.075258
  18 C :   -0.061912
  19 C :   -0.014801
  20 C :   -0.180557
  21 H :    0.022886
  22 C :    0.056323
  23 H :    0.008943
  24 H :    0.035503
  25 C :   -0.038142
  26 H :    0.039789
  27 H :    0.018987
  28 C :   -0.047476
  29 H :    0.026015
  30 H :    0.013543
  31 H :    0.036438
  32 H :    0.056203
  33 H :    0.037542
Sum of atomic charges:    0.0000000

LOEWDIN ATOMIC CHARGES
----------------------
   0 S :    0.380300
   1 C :   -0.194788
   2 C :   -0.062429
   3 C :   -0.058317
   4 C :   -0.181161
   5 H :    0.026228
   6 C :   -0.039197
   7 H :    0.045590
   8 H :    0.025022
   9 C :   -0.047450
  10 H :    0.018446
  11 H :    0.022673
  12 C :   -0.063946
  13 H :    0.039361
  14 H :    0.032916
  15 H :    0.017865
  16 S :    0.442661
  17 C :   -0.198024
  18 C :   -0.076838
  19 C :   -0.056415
  20 C :   -0.204057
  21 H :    0.036469
  22 C :   -0.035688
  23 H :    0.024594
  24 H :    0.038488
  25 C :   -0.036969
  26 H :    0.032995
  27 H :    0.017963
  28 C :   -0.064128
  29 H :    0.021471
  30 H :    0.021130
  31 H :    0.025034
  32 H :    0.031042
  33 H :    0.019160

  Mayer bond orders larger than 0.100000
B(  0-S ,  1-C ) :   1.1199 B(  0-S ,  4-C ) :   1.1412 B(  1-C ,  2-C ) :   1.6038
B(  1-C , 32-H ) :   0.9673 B(  2-C ,  3-C ) :   1.2289 B(  2-C ,  6-C ) :   1.0405
B(  3-C ,  4-C ) :   1.5825 B(  3-C ,  5-H ) :   0.9991 B(  4-C , 20-C ) :   1.0091
B(  6-C ,  7-H ) :   0.9312 B(  6-C ,  8-H ) :   0.9371 B(  6-C ,  9-C ) :   1.0823
B(  9-C , 10-H ) :   0.9493 B(  9-C , 11-H ) :   0.9520 B(  9-C , 12-C ) :   1.0709
B( 12-C , 13-H ) :   0.9719 B( 12-C , 14-H ) :   0.9744 B( 12-C , 15-H ) :   0.9754
B( 16-S , 17-C ) :   1.1864 B( 16-S , 20-C ) :   1.1643 B( 17-C , 18-C ) :   1.5930
B( 17-C , 33-H ) :   0.9699 B( 18-C , 19-C ) :   1.2441 B( 18-C , 21-H ) :   0.9943
B( 19-C , 20-C ) :   1.5804 B( 19-C , 22-C ) :   1.0342 B( 22-C , 23-H ) :   0.9210
B( 22-C , 24-H ) :   0.9407 B( 22-C , 25-C ) :   1.0747 B( 25-C , 26-H ) :   0.9536
B( 25-C , 27-H ) :   0.9529 B( 25-C , 28-C ) :   1.0796 B( 28-C , 29-H ) :   0.9737
B( 28-C , 30-H ) :   0.9690 B( 28-C , 31-H ) :   0.9743

Dispersion correction           -0.015443271
FINAL SINGLE POINT ENERGY     -1339.869740648287

DIPOLE MOMENT
-------------
                                X             Y             Z
Electronic contribution:     -4.97314     -20.86956     -13.77751
Nuclear contribution   :      5.03372      21.45732      13.65435
                        -----------------------------------------
Total Dipole Moment    :      0.06059       0.58775      -0.12316
                        -----------------------------------------
Magnitude (a.u.)       :      0.60357
Magnitude (Debye)      :      1.53415

Rotational constants in cm-1:     0.020961     0.008978     0.007618
Rotational constants in MHz :   628.394719   269.161303   228.385807

                             ****ORCA TERMINATED NORMALLY****
TOTAL RUN TIME: 0 days 0 hours 0 minutes 32 seconds 23 msec
