                         Program Version 4.2.1 -  RELEASE  -
|  1> ! wB97X-D3 SP def2-SVP
|  2> %pal
|  3> nprocs 16
|  4> end
|  5>
|  6> * xyz 0 1
|  7> S 	 -42.9202 	 26.2485 	 78.2649
|  8> C 	 -42.1544 	 27.6616 	 78.9576
|  9> C 	 -41.0052 	 27.2618 	 79.6839
| 10> C 	 -40.8099 	 25.8485 	 79.5965
| 11> C 	 -41.6529 	 25.1798 	 78.7088
| 12> H 	 -39.9613 	 25.3203 	 80.0379
| 13> C 	 -40.0577 	 28.1708 	 80.4469
| 14> H 	 -39.981 	 29.1173 	 79.8826
| 15> H 	 -39.0163 	 27.6737 	 80.46
| 16> C 	 -40.4707 	 28.4696 	 81.8795
| 17> H 	 -41.4362 	 28.8025 	 81.9024
| 18> H 	 -40.5512 	 27.5103 	 82.3971
| 19> C 	 -39.5472 	 29.2901 	 82.6831
| 20> H 	 -39.2676 	 30.0658 	 81.9902
| 21> H 	 -39.8876 	 29.8188 	 83.5636
| 22> H 	 -38.6851 	 28.6517 	 82.9447
| 23> S 	 -43.2422 	 22.9681 	 78.8045
| 24> C 	 -42.6355 	 21.4787 	 78.0929
| 25> C 	 -41.2801 	 21.6669 	 77.7627
| 26> C 	 -40.7653 	 22.9712 	 77.9592
| 27> C 	 -41.7695 	 23.8218 	 78.3608
| 28> H 	 -40.7056 	 20.8161 	 77.3447
| 29> C 	 -39.3804 	 23.4391 	 77.5203
| 30> H 	 -38.8908 	 22.5113 	 77.3018
| 31> H 	 -38.9357 	 23.9618 	 78.3976
| 32> C 	 -39.2281 	 24.4575 	 76.3561
| 33> H 	 -39.9959 	 25.2578 	 76.2854
| 34> H 	 -39.4043 	 23.8458 	 75.518
| 35> C 	 -37.8198 	 24.9581 	 76.238
| 36> H 	 -37.5967 	 25.5667 	 77.109
| 37> H 	 -37.524 	 25.6025 	 75.4507
| 38> H 	 -37.1344 	 24.1295 	 76.1273
| 39> H 	 -42.572 	 28.668 	 78.8439
| 40> H 	 -43.1619 	 20.5835 	 78.086
| 41> *
| 42>
| 43>                          ****END OF INPUT****

CARTESIAN COORDINATES (ANGSTROEM)
---------------------------------
  S    -42.920200   26.248500   78.264900
  C    -42.154400   27.661600   78.957600
  C    -41.005200   27.261800   79.683900
  C    -40.809900   25.848500   79.596500
  C    -41.652900   25.179800   78.708800
  H    -39.961300   25.320300   80.037900
  C    -40.057700   28.170800   80.446900
  H    -39.981000   29.117300   79.882600
  H    -39.016300   27.673700   80.460000
  C    -40.470700   28.469600   81.879500
  H    -41.436200   28.802500   81.902400
  H    -40.551200   27.510300   82.397100
  C    -39.547200   29.290100   82.683100
  H    -39.267600   30.065800   81.990200
  H    -39.887600   29.818800   83.563600
  H    -38.685100   28.651700   82.944700
  S    -43.242200   22.968100   78.804500
  C    -42.635500   21.478700   78.092900
  C    -41.280100   21.666900   77.762700
  C    -40.765300   22.971200   77.959200
  C    -41.769500   23.821800   78.360800
  H    -40.705600   20.816100   77.344700
  C    -39.380400   23.439100   77.520300
  H    -38.890800   22.511300   77.301800
  H    -38.935700   23.961800   78.397600
  C    -39.228100   24.457500   76.356100
  H    -39.995900   25.257800   76.285400
  H    -39.404300   23.845800   75.518000
  C    -37.819800   24.958100   76.238000
  H    -37.596700   25.566700   77.109000
  H    -37.524000   25.602500   75.450700
  H    -37.134400   24.129500   76.127300
  H    -42.572000   28.668000   78.843900
  H    -43.161900   20.583500   78.086000

 Total Charge           Charge          ....    0
 Multiplicity           Mult            ....    1
 Number of Electrons    NEL             ....  134
 Basis Dimension        Dim             ....  322

ORBITAL ENERGIES
----------------

  NO   OCC          E(Eh)            E(eV)
   0   2.0000     -88.966505     -2420.9017
   1   2.0000     -88.964654     -2420.8513
   2   2.0000     -10.323814      -280.9253
   3   2.0000     -10.320572      -280.8370
   4   2.0000     -10.320389      -280.8321
   5   2.0000     -10.317162      -280.7443
   6   2.0000     -10.308049      -280.4963
   7   2.0000     -10.301065      -280.3062
   8   2.0000     -10.300852      -280.3004
   9   2.0000     -10.299234      -280.2564
  10   2.0000     -10.296303      -280.1766
  11   2.0000     -10.295182      -280.1462
  12   2.0000     -10.281638      -279.7776
  13   2.0000     -10.273342      -279.5519
  14   2.0000     -10.272275      -279.5228
  15   2.0000     -10.270228      -279.4671
  16   2.0000      -8.080982      -219.8947
  17   2.0000      -8.080060      -219.8696
  18   2.0000      -6.039478      -164.3426
  19   2.0000      -6.038406      -164.3134
  20   2.0000      -6.035489      -164.2340
  21   2.0000      -6.034336      -164.2026
  22   2.0000      -6.031794      -164.1335
  23   2.0000      -6.031070      -164.1138
  24   2.0000      -1.011945       -27.5364
  25   2.0000      -0.983263       -26.7559
  26   2.0000      -0.919940       -25.0328
  27   2.0000      -0.910269       -24.7697
  28   2.0000      -0.875329       -23.8189
  29   2.0000      -0.857821       -23.3425
  30   2.0000      -0.847620       -23.0649
  31   2.0000      -0.810992       -22.0682
  32   2.0000      -0.783888       -21.3307
  33   2.0000      -0.771964       -21.0062
  34   2.0000      -0.710925       -19.3453
  35   2.0000      -0.701460       -19.0877
  36   2.0000      -0.696955       -18.9651
  37   2.0000      -0.665383       -18.1060
  38   2.0000      -0.644024       -17.5248
  39   2.0000      -0.619493       -16.8573
  40   2.0000      -0.594652       -16.1813
  41   2.0000      -0.575388       -15.6571
  42   2.0000      -0.571437       -15.5496
  43   2.0000      -0.560768       -15.2593
  44   2.0000      -0.531266       -14.4565
  45   2.0000      -0.525524       -14.3002
  46   2.0000      -0.520830       -14.1725
  47   2.0000      -0.513503       -13.9731
  48   2.0000      -0.508181       -13.8283
  49   2.0000      -0.503781       -13.7086
  50   2.0000      -0.496136       -13.5005
  51   2.0000      -0.479454       -13.0466
  52   2.0000      -0.473657       -12.8889
  53   2.0000      -0.463245       -12.6055
  54   2.0000      -0.460129       -12.5207
  55   2.0000      -0.450198       -12.2505
  56   2.0000      -0.447508       -12.1773
  57   2.0000      -0.435291       -11.8449
  58   2.0000      -0.430744       -11.7211
  59   2.0000      -0.423550       -11.5254
  60   2.0000      -0.418460       -11.3869
  61   2.0000      -0.413916       -11.2632
  62   2.0000      -0.411240       -11.1904
  63   2.0000      -0.344734        -9.3807
  64   2.0000      -0.332473        -9.0471
  65   2.0000      -0.329374        -8.9627
  66   2.0000      -0.289076        -7.8662
  67   0.0000       0.023593         0.6420
  68   0.0000       0.063165         1.7188
  69   0.0000       0.111630         3.0376
  70   0.0000       0.115550         3.1443
  71   0.0000       0.131327         3.5736

MULLIKEN ATOMIC CHARGES
-----------------------
   0 S :    0.106211
   1 C :   -0.129260
   2 C :   -0.090276
   3 C :    0.041081
   4 C :   -0.194498
   5 H :    0.016988
   6 C :    0.023046
   7 H :    0.030245
   8 H :    0.033533
   9 C :   -0.031866
  10 H :   -0.002049
  11 H :    0.013963
  12 C :   -0.012949
  13 H :    0.012556
  14 H :    0.037080
  15 H :    0.032905
  16 S :    0.112814
  17 C :   -0.071131
  18 C :   -0.061203
  19 C :   -0.021019
  20 C :   -0.137275
  21 H :    0.027608
  22 C :    0.066778
  23 H :    0.016031
  24 H :    0.022042
  25 C :   -0.032752
  26 H :    0.049683
  27 H :    0.011059
  28 C :   -0.035699
  29 H :    0.023714
  30 H :    0.022107
  31 H :    0.022762
  32 H :    0.060407
  33 H :    0.037365
Sum of atomic charges:    0.0000000

LOEWDIN ATOMIC CHARGES
----------------------
   0 S :    0.428200
   1 C :   -0.203096
   2 C :   -0.061180
   3 C :   -0.064890
   4 C :   -0.208710
   5 H :    0.030009
   6 C :   -0.032608
   7 H :    0.030814
   8 H :    0.037044
   9 C :   -0.044903
  10 H :    0.010819
  11 H :    0.024882
  12 C :   -0.063070
  13 H :    0.022012
  14 H :    0.028585
  15 H :    0.029868
  16 S :    0.405300
  17 C :   -0.176577
  18 C :   -0.070354
  19 C :   -0.059692
  20 C :   -0.200673
  21 H :    0.034064
  22 C :   -0.024083
  23 H :    0.027406
  24 H :    0.031024
  25 C :   -0.037835
  26 H :    0.032257
  27 H :    0.017972
  28 C :   -0.064289
  29 H :    0.024343
  30 H :    0.023615
  31 H :    0.025382
  32 H :    0.031797
  33 H :    0.016568

  Mayer bond orders larger than 0.100000
B(  0-S ,  1-C ) :   1.1599 B(  0-S ,  4-C ) :   1.1661 B(  1-C ,  2-C ) :   1.5518
B(  1-C ,  4-C ) :   0.1117 B(  1-C , 32-H ) :   0.9740 B(  2-C ,  3-C ) :   1.2832
B(  2-C ,  6-C ) :   1.0258 B(  3-C ,  4-C ) :   1.5297 B(  3-C ,  5-H ) :   0.9865
B(  4-C , 20-C ) :   1.0625 B(  6-C ,  7-H ) :   0.9346 B(  6-C ,  8-H ) :   0.9429
B(  6-C ,  9-C ) :   1.0690 B(  9-C , 10-H ) :   0.9493 B(  9-C , 11-H ) :   0.9507
B(  9-C , 12-C ) :   1.0805 B( 12-C , 13-H ) :   0.9710 B( 12-C , 14-H ) :   0.9731
B( 12-C , 15-H ) :   0.9743 B( 16-S , 17-C ) :   1.1496 B( 16-S , 20-C ) :   1.1552
B( 17-C , 18-C ) :   1.5823 B( 17-C , 20-C ) :   0.1113 B( 17-C , 33-H ) :   0.9806
B( 18-C , 19-C ) :   1.2642 B( 18-C , 21-H ) :   0.9814 B( 19-C , 20-C ) :   1.5664
B( 19-C , 22-C ) :   1.0440 B( 22-C , 23-H ) :   0.9333 B( 22-C , 24-H ) :   0.9284
B( 22-C , 25-C ) :   1.0522 B( 25-C , 26-H ) :   0.9570 B( 25-C , 27-H ) :   0.9511
B( 25-C , 28-C ) :   1.0853 B( 28-C , 29-H ) :   0.9743 B( 28-C , 30-H ) :   0.9715
B( 28-C , 31-H ) :   0.9721

Dispersion correction           -0.014234255
FINAL SINGLE POINT ENERGY     -1339.867429846648

DIPOLE MOMENT
-------------
                                X             Y             Z
Electronic contribution:    -24.45064     -13.41707      -4.80849
Nuclear contribution   :     24.98557      13.52026       4.87761
                        -----------------------------------------
Total Dipole Moment    :      0.53493       0.10320       0.06912
                        -----------------------------------------
Magnitude (a.u.)       :      0.54916
Magnitude (Debye)      :      1.39585

Rotational constants in cm-1:     0.018862     0.008361     0.006880
Rotational constants in MHz :   565.460748   250.646963   206.244486

                             ****ORCA TERMINATED NORMALLY****
TOTAL RUN TIME: 0 days 0 hours 0 minutes 30 seconds 397 msec
