                         Program Version 4.2.1 -  RELEASE  -
|  1> ! wB97X-D3 SP def2-SVP
|  2> %pal
|  3> nprocs 16
|  4> end
|  5>
|  6> * xyz 0 1
|  7> S 	 -77.2421 	 41.5944 	 139.401
|  8> C 	 -76.4099 	 40.0673 	 139.542
|  9> C 	 -76.5262 	 39.4043 	 138.344
| 10> C 	 -77.2074 	 40.1269 	 137.302
| 11> C 	 -77.6238 	 41.3528 	 137.669
| 12> H 	 -77.3304 	 39.763 	 136.32
| 13> C 	 -75.8717 	 38.0733 	 137.935
| 14> H 	 -75.6791 	 38.1464 	 136.85
| 15> H 	 -76.5396 	 37.2785 	 138.183
| 16> C 	 -74.4813 	 37.8504 	 138.585
| 17> H 	 -74.5892 	 37.9678 	 139.669
| 18> H 	 -74.1817 	 36.8959 	 138.483
| 19> C 	 -73.3925 	 38.8246 	 138.145
| 20> H 	 -73.611 	 39.8271 	 138.259
| 21> H 	 -72.4881 	 38.5485 	 138.633
| 22> H 	 -73.1912 	 38.6387 	 137.118
| 23> S 	 -77.0046 	 43.7643 	 136.635
| 24> C 	 -77.9015 	 44.4326 	 135.31
| 25> C 	 -78.8939 	 43.6162 	 134.913
| 26> C 	 -79.0791 	 42.4972 	 135.765
| 27> C 	 -78.0987 	 42.4199 	 136.798
| 28> H 	 -79.4484 	 43.8625 	 134.068
| 29> C 	 -80.2328 	 41.4368 	 135.603
| 30> H 	 -79.9178 	 40.4301 	 135.229
| 31> H 	 -80.9456 	 41.8649 	 134.861
| 32> C 	 -80.8244 	 41.2625 	 137.041
| 33> H 	 -80.1377 	 40.9849 	 137.818
| 34> H 	 -81.4886 	 40.431 	 137.041
| 35> C 	 -81.563 	 42.4949 	 137.524
| 36> H 	 -82.0217 	 42.2304 	 138.491
| 37> H 	 -82.3888 	 42.6741 	 136.874
| 38> H 	 -80.9044 	 43.3843 	 137.568
| 39> H 	 -75.8704 	 39.6781 	 140.337
| 40> H 	 -77.6664 	 45.3942 	 134.877
| 41> *
| 42>
| 43>                          ****END OF INPUT****

CARTESIAN COORDINATES (ANGSTROEM)
---------------------------------
  S    -77.242100   41.594400  139.401000
  C    -76.409900   40.067300  139.542000
  C    -76.526200   39.404300  138.344000
  C    -77.207400   40.126900  137.302000
  C    -77.623800   41.352800  137.669000
  H    -77.330400   39.763000  136.320000
  C    -75.871700   38.073300  137.935000
  H    -75.679100   38.146400  136.850000
  H    -76.539600   37.278500  138.183000
  C    -74.481300   37.850400  138.585000
  H    -74.589200   37.967800  139.669000
  H    -74.181700   36.895900  138.483000
  C    -73.392500   38.824600  138.145000
  H    -73.611000   39.827100  138.259000
  H    -72.488100   38.548500  138.633000
  H    -73.191200   38.638700  137.118000
  S    -77.004600   43.764300  136.635000
  C    -77.901500   44.432600  135.310000
  C    -78.893900   43.616200  134.913000
  C    -79.079100   42.497200  135.765000
  C    -78.098700   42.419900  136.798000
  H    -79.448400   43.862500  134.068000
  C    -80.232800   41.436800  135.603000
  H    -79.917800   40.430100  135.229000
  H    -80.945600   41.864900  134.861000
  C    -80.824400   41.262500  137.041000
  H    -80.137700   40.984900  137.818000
  H    -81.488600   40.431000  137.041000
  C    -81.563000   42.494900  137.524000
  H    -82.021700   42.230400  138.491000
  H    -82.388800   42.674100  136.874000
  H    -80.904400   43.384300  137.568000
  H    -75.870400   39.678100  140.337000
  H    -77.666400   45.394200  134.877000

 Total Charge           Charge          ....    0
 Multiplicity           Mult            ....    1
 Number of Electrons    NEL             ....  134
 Basis Dimension        Dim             ....  322

ORBITAL ENERGIES
----------------

  NO   OCC          E(Eh)            E(eV)
   0   2.0000     -88.963540     -2420.8210
   1   2.0000     -88.963471     -2420.8191
   2   2.0000     -10.330234      -281.1000
   3   2.0000     -10.327667      -281.0301
   4   2.0000     -10.312907      -280.6285
   5   2.0000     -10.310257      -280.5564
   6   2.0000     -10.310187      -280.5544
   7   2.0000     -10.302964      -280.3579
   8   2.0000     -10.298230      -280.2291
   9   2.0000     -10.291279      -280.0399
  10   2.0000     -10.287131      -279.9271
  11   2.0000     -10.286994      -279.9234
  12   2.0000     -10.277314      -279.6599
  13   2.0000     -10.273771      -279.5635
  14   2.0000     -10.266698      -279.3711
  15   2.0000     -10.262789      -279.2647
  16   2.0000      -8.078806      -219.8355
  17   2.0000      -8.077704      -219.8055
  18   2.0000      -6.037159      -164.2794
  19   2.0000      -6.036451      -164.2602
  20   2.0000      -6.033092      -164.1688
  21   2.0000      -6.032209      -164.1448
  22   2.0000      -6.029815      -164.0796
  23   2.0000      -6.028294      -164.0382
  24   2.0000      -1.008013       -27.4294
  25   2.0000      -0.986206       -26.8360
  26   2.0000      -0.911195       -24.7949
  27   2.0000      -0.902734       -24.5647
  28   2.0000      -0.874569       -23.7982
  29   2.0000      -0.849356       -23.1121
  30   2.0000      -0.842082       -22.9142
  31   2.0000      -0.817569       -22.2472
  32   2.0000      -0.781823       -21.2745
  33   2.0000      -0.769798       -20.9473
  34   2.0000      -0.715088       -19.4585
  35   2.0000      -0.706314       -19.2198
  36   2.0000      -0.685709       -18.6591
  37   2.0000      -0.663006       -18.0413
  38   2.0000      -0.644142       -17.5280
  39   2.0000      -0.614469       -16.7206
  40   2.0000      -0.594438       -16.1755
  41   2.0000      -0.578274       -15.7356
  42   2.0000      -0.560192       -15.2436
  43   2.0000      -0.549031       -14.9399
  44   2.0000      -0.546693       -14.8763
  45   2.0000      -0.540340       -14.7034
  46   2.0000      -0.518846       -14.1185
  47   2.0000      -0.512061       -13.9339
  48   2.0000      -0.504838       -13.7373
  49   2.0000      -0.492740       -13.4081
  50   2.0000      -0.488211       -13.2849
  51   2.0000      -0.484377       -13.1806
  52   2.0000      -0.477223       -12.9859
  53   2.0000      -0.467027       -12.7084
  54   2.0000      -0.462326       -12.5805
  55   2.0000      -0.444197       -12.0872
  56   2.0000      -0.438312       -11.9271
  57   2.0000      -0.432379       -11.7656
  58   2.0000      -0.429997       -11.7008
  59   2.0000      -0.425185       -11.5699
  60   2.0000      -0.419917       -11.4265
  61   2.0000      -0.410778       -11.1778
  62   2.0000      -0.408696       -11.1212
  63   2.0000      -0.349269        -9.5041
  64   2.0000      -0.329273        -8.9600
  65   2.0000      -0.323838        -8.8121
  66   2.0000      -0.299055        -8.1377
  67   0.0000       0.029857         0.8124
  68   0.0000       0.069950         1.9034
  69   0.0000       0.120155         3.2696
  70   0.0000       0.125914         3.4263
  71   0.0000       0.134996         3.6734

MULLIKEN ATOMIC CHARGES
-----------------------
   0 S :    0.097125
   1 C :   -0.085616
   2 C :   -0.116094
   3 C :    0.056219
   4 C :   -0.157923
   5 H :   -0.003950
   6 C :    0.078382
   7 H :    0.028043
   8 H :    0.040408
   9 C :   -0.058597
  10 H :    0.010901
  11 H :   -0.004651
  12 C :    0.003438
  13 H :    0.032169
  14 H :    0.021120
  15 H :    0.010851
  16 S :    0.114279
  17 C :   -0.088043
  18 C :   -0.008867
  19 C :   -0.050903
  20 C :   -0.157195
  21 H :   -0.006351
  22 C :    0.068147
  23 H :    0.045886
  24 H :    0.027427
  25 C :   -0.074798
  26 H :    0.040883
  27 H :    0.005520
  28 C :   -0.039958
  29 H :    0.030805
  30 H :    0.013570
  31 H :    0.053503
  32 H :    0.019232
  33 H :    0.055039
Sum of atomic charges:    0.0000000

LOEWDIN ATOMIC CHARGES
----------------------
   0 S :    0.383580
   1 C :   -0.189617
   2 C :   -0.061589
   3 C :   -0.054581
   4 C :   -0.183579
   5 H :    0.026224
   6 C :   -0.023957
   7 H :    0.030568
   8 H :    0.030251
   9 C :   -0.030835
  10 H :    0.019164
  11 H :    0.007604
  12 C :   -0.048877
  13 H :    0.017305
  14 H :    0.025739
  15 H :    0.020876
  16 S :    0.427001
  17 C :   -0.181986
  18 C :   -0.073461
  19 C :   -0.049399
  20 C :   -0.208881
  21 H :    0.024006
  22 C :   -0.027419
  23 H :    0.033217
  24 H :    0.031385
  25 C :   -0.041837
  26 H :    0.024456
  27 H :    0.015137
  28 C :   -0.061615
  29 H :    0.029123
  30 H :    0.015557
  31 H :    0.029687
  32 H :    0.017662
  33 H :    0.029096

  Mayer bond orders larger than 0.100000
B(  0-S ,  1-C ) :   1.1160 B(  0-S ,  4-C ) :   1.1278 B(  1-C ,  2-C ) :   1.6328
B(  1-C , 32-H ) :   0.9793 B(  2-C ,  3-C ) :   1.2255 B(  2-C ,  6-C ) :   0.9964
B(  3-C ,  4-C ) :   1.6018 B(  3-C ,  5-H ) :   1.0050 B(  4-C , 20-C ) :   1.0248
B(  6-C ,  7-H ) :   0.9540 B(  6-C ,  8-H ) :   0.9324 B(  6-C ,  9-C ) :   1.0846
B(  9-C , 10-H ) :   0.9520 B(  9-C , 11-H ) :   0.9509 B(  9-C , 12-C ) :   1.0804
B( 12-C , 13-H ) :   0.9778 B( 12-C , 14-H ) :   0.9707 B( 12-C , 15-H ) :   0.9717
B( 16-S , 17-C ) :   1.1711 B( 16-S , 20-C ) :   1.1681 B( 17-C , 18-C ) :   1.5835
B( 17-C , 20-C ) :   0.1023 B( 17-C , 33-H ) :   0.9677 B( 18-C , 19-C ) :   1.2703
B( 18-C , 21-H ) :   1.0065 B( 19-C , 20-C ) :   1.5440 B( 19-C , 22-C ) :   1.0189
B( 22-C , 23-H ) :   0.9412 B( 22-C , 24-H ) :   0.9452 B( 22-C , 25-C ) :   1.0617
B( 25-C , 26-H ) :   0.9531 B( 25-C , 27-H ) :   0.9518 B( 25-C , 28-C ) :   1.0800
B( 28-C , 29-H ) :   0.9715 B( 28-C , 30-H ) :   0.9755 B( 28-C , 31-H ) :   0.9733

Dispersion correction           -0.015380383
FINAL SINGLE POINT ENERGY     -1339.868833384486

DIPOLE MOMENT
-------------
                                X             Y             Z
Electronic contribution:      2.12343      15.42735       1.91862
Nuclear contribution   :     -2.09711     -15.92458      -2.37153
                        -----------------------------------------
Total Dipole Moment    :      0.02632      -0.49723      -0.45291
                        -----------------------------------------
Magnitude (a.u.)       :      0.67309
Magnitude (Debye)      :      1.71087

Rotational constants in cm-1:     0.022736     0.008347     0.007524
Rotational constants in MHz :   681.619268   250.226147   225.571549

                             ****ORCA TERMINATED NORMALLY****
TOTAL RUN TIME: 0 days 0 hours 0 minutes 36 seconds 761 msec
