                         Program Version 4.2.1 -  RELEASE  -
|  1> ! wB97X-D3 SP def2-SVP
|  2> %pal
|  3> nprocs 16
|  4> end
|  5>
|  6> * xyz 0 1
|  7> S 	 6.31285 	 21.8867 	 65.3642
|  8> C 	 8.05866 	 21.7041 	 65.3848
|  9> C 	 8.65963 	 22.4496 	 64.4023
| 10> C 	 7.69276 	 23.0808 	 63.5191
| 11> C 	 6.40937 	 22.9765 	 63.9777
| 12> H 	 7.87883 	 23.7218 	 62.7316
| 13> C 	 10.1794 	 22.6717 	 64.2679
| 14> H 	 10.3142 	 21.946 	 63.4289
| 15> H 	 10.6645 	 22.302 	 65.2033
| 16> C 	 10.6057 	 24.1294 	 63.9152
| 17> H 	 11.6825 	 24.1703 	 63.8677
| 18> H 	 10.2962 	 24.4245 	 62.9112
| 19> C 	 10.1762 	 25.1133 	 65.0293
| 20> H 	 9.08483 	 25.159 	 65.12
| 21> H 	 10.4786 	 24.7047 	 65.937
| 22> H 	 10.5397 	 26.129 	 64.8874
| 23> S 	 4.5549 	 25.0217 	 64.2018
| 24> C 	 3.48521 	 25.3015 	 62.7872
| 25> C 	 3.70176 	 24.4525 	 61.7319
| 26> C 	 4.717 	 23.4462 	 62.0499
| 27> C 	 5.29444 	 23.6643 	 63.3483
| 28> H 	 3.14104 	 24.6424 	 60.8502
| 29> C 	 5.14907 	 22.6192 	 60.8737
| 30> H 	 6.23326 	 22.709 	 60.865
| 31> H 	 4.85429 	 23.0852 	 59.95
| 32> C 	 4.65392 	 21.1659 	 60.8709
| 33> H 	 3.58966 	 20.9471 	 60.9154
| 34> H 	 4.94291 	 20.6936 	 61.8298
| 35> C 	 5.0962 	 20.3019 	 59.7394
| 36> H 	 4.59354 	 19.341 	 59.8821
| 37> H 	 6.13913 	 19.9767 	 59.88
| 38> H 	 4.7804 	 20.7226 	 58.7897
| 39> H 	 8.70397 	 21.2073 	 66.1288
| 40> H 	 2.90434 	 26.21 	 62.6255
| 41> *
| 42>
| 43>                          ****END OF INPUT****

CARTESIAN COORDINATES (ANGSTROEM)
---------------------------------
  S      6.312850   21.886700   65.364200
  C      8.058660   21.704100   65.384800
  C      8.659630   22.449600   64.402300
  C      7.692760   23.080800   63.519100
  C      6.409370   22.976500   63.977700
  H      7.878830   23.721800   62.731600
  C     10.179400   22.671700   64.267900
  H     10.314200   21.946000   63.428900
  H     10.664500   22.302000   65.203300
  C     10.605700   24.129400   63.915200
  H     11.682500   24.170300   63.867700
  H     10.296200   24.424500   62.911200
  C     10.176200   25.113300   65.029300
  H      9.084830   25.159000   65.120000
  H     10.478600   24.704700   65.937000
  H     10.539700   26.129000   64.887400
  S      4.554900   25.021700   64.201800
  C      3.485210   25.301500   62.787200
  C      3.701760   24.452500   61.731900
  C      4.717000   23.446200   62.049900
  C      5.294440   23.664300   63.348300
  H      3.141040   24.642400   60.850200
  C      5.149070   22.619200   60.873700
  H      6.233260   22.709000   60.865000
  H      4.854290   23.085200   59.950000
  C      4.653920   21.165900   60.870900
  H      3.589660   20.947100   60.915400
  H      4.942910   20.693600   61.829800
  C      5.096200   20.301900   59.739400
  H      4.593540   19.341000   59.882100
  H      6.139130   19.976700   59.880000
  H      4.780400   20.722600   58.789700
  H      8.703970   21.207300   66.128800
  H      2.904340   26.210000   62.625500

 Total Charge           Charge          ....    0
 Multiplicity           Mult            ....    1
 Number of Electrons    NEL             ....  134
 Basis Dimension        Dim             ....  322

ORBITAL ENERGIES
----------------

  NO   OCC          E(Eh)            E(eV)
   0   2.0000     -88.968934     -2420.9678
   1   2.0000     -88.965471     -2420.8736
   2   2.0000     -10.333256      -281.1822
   3   2.0000     -10.327472      -281.0248
   4   2.0000     -10.317887      -280.7640
   5   2.0000     -10.312063      -280.6055
   6   2.0000     -10.311790      -280.5981
   7   2.0000     -10.302822      -280.3540
   8   2.0000     -10.301476      -280.3174
   9   2.0000     -10.293516      -280.1008
  10   2.0000     -10.291712      -280.0517
  11   2.0000     -10.290417      -280.0165
  12   2.0000     -10.288643      -279.9682
  13   2.0000     -10.278999      -279.7058
  14   2.0000     -10.273203      -279.5481
  15   2.0000     -10.271637      -279.5055
  16   2.0000      -8.082559      -219.9376
  17   2.0000      -8.079650      -219.8584
  18   2.0000      -6.041126      -164.3874
  19   2.0000      -6.038321      -164.3111
  20   2.0000      -6.037320      -164.2838
  21   2.0000      -6.034280      -164.2011
  22   2.0000      -6.033221      -164.1723
  23   2.0000      -6.030216      -164.0905
  24   2.0000      -0.999981       -27.2109
  25   2.0000      -0.975468       -26.5438
  26   2.0000      -0.909817       -24.7574
  27   2.0000      -0.906844       -24.6765
  28   2.0000      -0.870407       -23.6850
  29   2.0000      -0.853728       -23.2311
  30   2.0000      -0.843126       -22.9426
  31   2.0000      -0.817729       -22.2515
  32   2.0000      -0.781521       -21.2663
  33   2.0000      -0.767156       -20.8754
  34   2.0000      -0.710576       -19.3357
  35   2.0000      -0.697726       -18.9861
  36   2.0000      -0.687402       -18.7051
  37   2.0000      -0.657836       -17.9006
  38   2.0000      -0.639297       -17.3961
  39   2.0000      -0.619431       -16.8556
  40   2.0000      -0.591537       -16.0965
  41   2.0000      -0.568706       -15.4753
  42   2.0000      -0.560460       -15.2509
  43   2.0000      -0.553103       -15.0507
  44   2.0000      -0.538242       -14.6463
  45   2.0000      -0.528300       -14.3758
  46   2.0000      -0.516862       -14.0645
  47   2.0000      -0.509935       -13.8760
  48   2.0000      -0.504677       -13.7330
  49   2.0000      -0.496833       -13.5195
  50   2.0000      -0.488066       -13.2810
  51   2.0000      -0.483778       -13.1643
  52   2.0000      -0.471480       -12.8296
  53   2.0000      -0.463098       -12.6015
  54   2.0000      -0.453948       -12.3525
  55   2.0000      -0.447660       -12.1814
  56   2.0000      -0.442650       -12.0451
  57   2.0000      -0.435892       -11.8612
  58   2.0000      -0.433166       -11.7871
  59   2.0000      -0.428211       -11.6522
  60   2.0000      -0.424434       -11.5494
  61   2.0000      -0.411014       -11.1843
  62   2.0000      -0.401349       -10.9213
  63   2.0000      -0.341684        -9.2977
  64   2.0000      -0.328818        -8.9476
  65   2.0000      -0.322677        -8.7805
  66   2.0000      -0.298770        -8.1299
  67   0.0000       0.037167         1.0114
  68   0.0000       0.059978         1.6321
  69   0.0000       0.105079         2.8593
  70   0.0000       0.125579         3.4172
  71   0.0000       0.128569         3.4985

MULLIKEN ATOMIC CHARGES
-----------------------
   0 S :    0.117157
   1 C :   -0.126819
   2 C :   -0.120533
   3 C :    0.071546
   4 C :   -0.157441
   5 H :   -0.012371
   6 C :    0.033801
   7 H :    0.056223
   8 H :    0.030842
   9 C :   -0.060885
  10 H :    0.028357
  11 H :    0.028122
  12 C :   -0.024932
  13 H :    0.038654
  14 H :    0.009546
  15 H :    0.039193
  16 S :    0.110384
  17 C :   -0.095012
  18 C :   -0.038100
  19 C :   -0.009007
  20 C :   -0.191991
  21 H :    0.018046
  22 C :    0.112646
  23 H :    0.019250
  24 H :    0.008115
  25 C :   -0.102408
  26 H :    0.021502
  27 H :    0.023795
  28 C :   -0.026850
  29 H :    0.022314
  30 H :    0.033448
  31 H :    0.034529
  32 H :    0.049903
  33 H :    0.058976
Sum of atomic charges:   -0.0000000

LOEWDIN ATOMIC CHARGES
----------------------
   0 S :    0.391138
   1 C :   -0.212392
   2 C :   -0.063170
   3 C :   -0.051627
   4 C :   -0.191868
   5 H :    0.018106
   6 C :   -0.034337
   7 H :    0.043910
   8 H :    0.031613
   9 C :   -0.038923
  10 H :    0.024733
  11 H :    0.021483
  12 C :   -0.057955
  13 H :    0.029177
  14 H :    0.016329
  15 H :    0.027223
  16 S :    0.385475
  17 C :   -0.174977
  18 C :   -0.064445
  19 C :   -0.039713
  20 C :   -0.201041
  21 H :    0.030851
  22 C :   -0.029971
  23 H :    0.033222
  24 H :    0.026215
  25 C :   -0.051352
  26 H :    0.025615
  27 H :    0.027540
  28 C :   -0.067231
  29 H :    0.029691
  30 H :    0.027569
  31 H :    0.023564
  32 H :    0.035171
  33 H :    0.030377

  Mayer bond orders larger than 0.100000
B(  0-S ,  1-C ) :   1.1134 B(  0-S ,  4-C ) :   1.1293 B(  1-C ,  2-C ) :   1.6679
B(  1-C , 32-H ) :   0.9580 B(  2-C ,  3-C ) :   1.1962 B(  2-C ,  6-C ) :   0.9924
B(  3-C ,  4-C ) :   1.6195 B(  3-C ,  5-H ) :   0.9959 B(  4-C , 20-C ) :   1.0455
B(  6-C ,  7-H ) :   0.9387 B(  6-C ,  8-H ) :   0.9479 B(  6-C ,  9-C ) :   1.0738
B(  9-C , 10-H ) :   0.9559 B(  9-C , 11-H ) :   0.9528 B(  9-C , 12-C ) :   1.0682
B( 12-C , 13-H ) :   0.9736 B( 12-C , 14-H ) :   0.9734 B( 12-C , 15-H ) :   0.9758
B( 16-S , 17-C ) :   1.1317 B( 16-S , 20-C ) :   1.1386 B( 17-C , 18-C ) :   1.6675
B( 17-C , 33-H ) :   0.9586 B( 18-C , 19-C ) :   1.2024 B( 18-C , 21-H ) :   0.9895
B( 19-C , 20-C ) :   1.5926 B( 19-C , 22-C ) :   1.0417 B( 22-C , 23-H ) :   0.9305
B( 22-C , 24-H ) :   0.9372 B( 22-C , 25-C ) :   1.0475 B( 25-C , 26-H ) :   0.9585
B( 25-C , 27-H ) :   0.9519 B( 25-C , 28-C ) :   1.1022 B( 28-C , 29-H ) :   0.9701
B( 28-C , 30-H ) :   0.9720 B( 28-C , 31-H ) :   0.9711

Dispersion correction           -0.014616100
FINAL SINGLE POINT ENERGY     -1339.861994196228

DIPOLE MOMENT
-------------
                                X             Y             Z
Electronic contribution:    -13.95115       4.66077      14.29075
Nuclear contribution   :     14.36272      -4.51341     -14.83825
                        -----------------------------------------
Total Dipole Moment    :      0.41157       0.14736      -0.54750
                        -----------------------------------------
Magnitude (a.u.)       :      0.70061
Magnitude (Debye)      :      1.78082

Rotational constants in cm-1:     0.016784     0.008984     0.007577
Rotational constants in MHz :   503.179293   269.330977   227.167182

                             ****ORCA TERMINATED NORMALLY****
TOTAL RUN TIME: 0 days 0 hours 0 minutes 35 seconds 533 msec
