                         Program Version 4.2.1 -  RELEASE  -
|  1> ! wB97X-D3 SP def2-SVP
|  2> %pal
|  3> nprocs 16
|  4> end
|  5>
|  6> * xyz 0 1
|  7> S 	 3.67273 	 77.9096 	 45.2607
|  8> C 	 2.26671 	 77.0769 	 45.692
|  9> C 	 2.12925 	 75.9259 	 44.9858
| 10> C 	 3.13195 	 75.7478 	 43.9668
| 11> C 	 4.03217 	 76.8122 	 43.9206
| 12> H 	 3.28305 	 74.9679 	 43.2359
| 13> C 	 1.05963 	 74.8618 	 45.1349
| 14> H 	 1.16544 	 73.9975 	 44.5267
| 15> H 	 0.172993 	 75.3972 	 44.6587
| 16> C 	 0.711779 	 74.4142 	 46.5812
| 17> H 	 1.45376 	 73.646 	 46.8362
| 18> H 	 1.13057 	 75.1239 	 47.2888
| 19> C 	 -0.757668 	 74.0545 	 46.9183
| 20> H 	 -0.758327 	 73.6208 	 47.8808
| 21> H 	 -1.34807 	 74.9958 	 46.9327
| 22> H 	 -1.22307 	 73.3866 	 46.1261
| 23> S 	 5.41256 	 77.8378 	 41.7792
| 24> C 	 7.01848 	 77.241 	 41.5327
| 25> C 	 7.52839 	 76.6451 	 42.6933
| 26> C 	 6.50875 	 76.2938 	 43.6291
| 27> C 	 5.28172 	 76.786 	 43.1956
| 28> H 	 8.53941 	 76.4049 	 42.7283
| 29> C 	 6.88664 	 75.6175 	 44.9376
| 30> H 	 7.8491 	 75.2027 	 44.9317
| 31> H 	 6.14091 	 74.7705 	 45.1433
| 32> C 	 6.88166 	 76.5172 	 46.2128
| 33> H 	 7.17913 	 75.9885 	 47.1657
| 34> H 	 5.91854 	 77.0529 	 46.248
| 35> C 	 7.95156 	 77.4935 	 46.0801
| 36> H 	 8.10642 	 77.7542 	 45.0026
| 37> H 	 8.9471 	 77.0717 	 46.2779
| 38> H 	 7.71539 	 78.382 	 46.622
| 39> H 	 1.62412 	 77.308 	 46.5838
| 40> H 	 7.60673 	 77.5755 	 40.7177
| 41> *
| 42>
| 43>                          ****END OF INPUT****

CARTESIAN COORDINATES (ANGSTROEM)
---------------------------------
  S      3.672730   77.909600   45.260700
  C      2.266710   77.076900   45.692000
  C      2.129250   75.925900   44.985800
  C      3.131950   75.747800   43.966800
  C      4.032170   76.812200   43.920600
  H      3.283050   74.967900   43.235900
  C      1.059630   74.861800   45.134900
  H      1.165440   73.997500   44.526700
  H      0.172993   75.397200   44.658700
  C      0.711779   74.414200   46.581200
  H      1.453760   73.646000   46.836200
  H      1.130570   75.123900   47.288800
  C     -0.757668   74.054500   46.918300
  H     -0.758327   73.620800   47.880800
  H     -1.348070   74.995800   46.932700
  H     -1.223070   73.386600   46.126100
  S      5.412560   77.837800   41.779200
  C      7.018480   77.241000   41.532700
  C      7.528390   76.645100   42.693300
  C      6.508750   76.293800   43.629100
  C      5.281720   76.786000   43.195600
  H      8.539410   76.404900   42.728300
  C      6.886640   75.617500   44.937600
  H      7.849100   75.202700   44.931700
  H      6.140910   74.770500   45.143300
  C      6.881660   76.517200   46.212800
  H      7.179130   75.988500   47.165700
  H      5.918540   77.052900   46.248000
  C      7.951560   77.493500   46.080100
  H      8.106420   77.754200   45.002600
  H      8.947100   77.071700   46.277900
  H      7.715390   78.382000   46.622000
  H      1.624120   77.308000   46.583800
  H      7.606730   77.575500   40.717700

 Total Charge           Charge          ....    0
 Multiplicity           Mult            ....    1
 Number of Electrons    NEL             ....  134
 Basis Dimension        Dim             ....  322

ORBITAL ENERGIES
----------------

  NO   OCC          E(Eh)            E(eV)
   0   2.0000     -88.967063     -2420.9169
   1   2.0000     -88.966077     -2420.8900
   2   2.0000     -10.324893      -280.9546
   3   2.0000     -10.323990      -280.9301
   4   2.0000     -10.315706      -280.7046
   5   2.0000     -10.311831      -280.5992
   6   2.0000     -10.308189      -280.5001
   7   2.0000     -10.300115      -280.2804
   8   2.0000     -10.294592      -280.1301
   9   2.0000     -10.293087      -280.0891
  10   2.0000     -10.292789      -280.0810
  11   2.0000     -10.291712      -280.0517
  12   2.0000     -10.287393      -279.9342
  13   2.0000     -10.287159      -279.9278
  14   2.0000     -10.278208      -279.6843
  15   2.0000     -10.263041      -279.2716
  16   2.0000      -8.081985      -219.9220
  17   2.0000      -8.080826      -219.8905
  18   2.0000      -6.040216      -164.3626
  19   2.0000      -6.039268      -164.3368
  20   2.0000      -6.036734      -164.2679
  21   2.0000      -6.035263      -164.2279
  22   2.0000      -6.032759      -164.1597
  23   2.0000      -6.031689      -164.1306
  24   2.0000      -1.008865       -27.4526
  25   2.0000      -0.987815       -26.8798
  26   2.0000      -0.914571       -24.8867
  27   2.0000      -0.905766       -24.6472
  28   2.0000      -0.870744       -23.6941
  29   2.0000      -0.853715       -23.2308
  30   2.0000      -0.849522       -23.1167
  31   2.0000      -0.811111       -22.0715
  32   2.0000      -0.781659       -21.2700
  33   2.0000      -0.770162       -20.9572
  34   2.0000      -0.708170       -19.2703
  35   2.0000      -0.700213       -19.0538
  36   2.0000      -0.681109       -18.5339
  37   2.0000      -0.665985       -18.1224
  38   2.0000      -0.646208       -17.5842
  39   2.0000      -0.607052       -16.5187
  40   2.0000      -0.599957       -16.3257
  41   2.0000      -0.574946       -15.6451
  42   2.0000      -0.556976       -15.1561
  43   2.0000      -0.549213       -14.9449
  44   2.0000      -0.543737       -14.7958
  45   2.0000      -0.525359       -14.2957
  46   2.0000      -0.523145       -14.2355
  47   2.0000      -0.507915       -13.8211
  48   2.0000      -0.506309       -13.7774
  49   2.0000      -0.494060       -13.4441
  50   2.0000      -0.488905       -13.3038
  51   2.0000      -0.485530       -13.2119
  52   2.0000      -0.476632       -12.9698
  53   2.0000      -0.470617       -12.8061
  54   2.0000      -0.466261       -12.6876
  55   2.0000      -0.443872       -12.0784
  56   2.0000      -0.442223       -12.0335
  57   2.0000      -0.435970       -11.8633
  58   2.0000      -0.424003       -11.5377
  59   2.0000      -0.419991       -11.4285
  60   2.0000      -0.415086       -11.2951
  61   2.0000      -0.409150       -11.1335
  62   2.0000      -0.406222       -11.0539
  63   2.0000      -0.334596        -9.1048
  64   2.0000      -0.329613        -8.9692
  65   2.0000      -0.317148        -8.6300
  66   2.0000      -0.308109        -8.3841
  67   0.0000       0.037112         1.0099
  68   0.0000       0.048549         1.3211
  69   0.0000       0.100864         2.7446
  70   0.0000       0.122825         3.3422
  71   0.0000       0.133314         3.6277

MULLIKEN ATOMIC CHARGES
-----------------------
   0 S :    0.113007
   1 C :   -0.132510
   2 C :   -0.087233
   3 C :    0.036217
   4 C :   -0.149968
   5 H :    0.016067
   6 C :    0.065477
   7 H :    0.019621
   8 H :    0.045527
   9 C :   -0.097340
  10 H :    0.022059
  11 H :    0.009519
  12 C :   -0.041150
  13 H :    0.035861
  14 H :    0.040479
  15 H :    0.047794
  16 S :    0.118051
  17 C :   -0.078899
  18 C :   -0.023534
  19 C :   -0.010987
  20 C :   -0.213905
  21 H :    0.000688
  22 C :    0.074800
  23 H :    0.003157
  24 H :    0.043336
  25 C :   -0.065433
  26 H :    0.041010
  27 H :    0.036436
  28 C :   -0.051480
  29 H :    0.017588
  30 H :    0.016674
  31 H :    0.033062
  32 H :    0.069234
  33 H :    0.046777
Sum of atomic charges:    0.0000000

LOEWDIN ATOMIC CHARGES
----------------------
   0 S :    0.437351
   1 C :   -0.225900
   2 C :   -0.070094
   3 C :   -0.049406
   4 C :   -0.202417
   5 H :    0.034073
   6 C :   -0.035673
   7 H :    0.023700
   8 H :    0.042896
   9 C :   -0.054824
  10 H :    0.026436
  11 H :    0.019889
  12 C :   -0.062399
  13 H :    0.023182
  14 H :    0.030221
  15 H :    0.033428
  16 S :    0.414806
  17 C :   -0.179677
  18 C :   -0.062488
  19 C :   -0.044478
  20 C :   -0.203485
  21 H :    0.019427
  22 C :   -0.028795
  23 H :    0.019378
  24 H :    0.041613
  25 C :   -0.049816
  26 H :    0.033982
  27 H :    0.009725
  28 C :   -0.073808
  29 H :    0.026597
  30 H :    0.021464
  31 H :    0.023596
  32 H :    0.042473
  33 H :    0.019027

  Mayer bond orders larger than 0.100000
B(  0-S ,  1-C ) :   1.1488 B(  0-S ,  4-C ) :   1.1539 B(  1-C ,  2-C ) :   1.6143
B(  1-C , 32-H ) :   0.9556 B(  2-C ,  3-C ) :   1.2324 B(  2-C ,  6-C ) :   1.0108
B(  3-C ,  4-C ) :   1.5839 B(  3-C ,  5-H ) :   0.9984 B(  4-C , 20-C ) :   1.0292
B(  6-C ,  7-H ) :   0.9502 B(  6-C ,  8-H ) :   0.9450 B(  6-C ,  9-C ) :   1.0353
B(  9-C , 10-H ) :   0.9522 B(  9-C , 11-H ) :   0.9620 B(  9-C , 12-C ) :   1.0684
B( 12-C , 13-H ) :   0.9730 B( 12-C , 14-H ) :   0.9752 B( 12-C , 15-H ) :   0.9785
B( 16-S , 17-C ) :   1.1712 B( 16-S , 20-C ) :   1.1549 B( 17-C , 18-C ) :   1.5900
B( 17-C , 20-C ) :   0.1037 B( 17-C , 33-H ) :   0.9729 B( 18-C , 19-C ) :   1.2394
B( 18-C , 21-H ) :   0.9947 B( 19-C , 20-C ) :   1.5790 B( 19-C , 22-C ) :   1.0516
B( 22-C , 23-H ) :   0.9372 B( 22-C , 24-H ) :   0.9297 B( 22-C , 25-C ) :   1.0679
B( 25-C , 26-H ) :   0.9543 B( 25-C , 27-H ) :   0.9495 B( 25-C , 28-C ) :   1.0720
B( 28-C , 29-H ) :   0.9728 B( 28-C , 30-H ) :   0.9708 B( 28-C , 31-H ) :   0.9692

Dispersion correction           -0.015132644
FINAL SINGLE POINT ENERGY     -1339.852568388443

DIPOLE MOMENT
-------------
                                X             Y             Z
Electronic contribution:      4.84525      13.62785     -17.57044
Nuclear contribution   :     -4.79948     -14.04298      17.86423
                        -----------------------------------------
Total Dipole Moment    :      0.04577      -0.41513       0.29379
                        -----------------------------------------
Magnitude (a.u.)       :      0.51062
Magnitude (Debye)      :      1.29790

Rotational constants in cm-1:     0.024141     0.007567     0.006721
Rotational constants in MHz :   723.719754   226.838509   201.502116

                             ****ORCA TERMINATED NORMALLY****
TOTAL RUN TIME: 0 days 0 hours 0 minutes 34 seconds 726 msec
