                         Program Version 4.2.1 -  RELEASE  -
|  1> ! wB97X-D3 SP def2-SVP
|  2> %pal
|  3> nprocs 16
|  4> end
|  5>
|  6> * xyz 0 1
|  7> S 	 -98.7336 	 40.723 	 126.298
|  8> C 	 -98.9351 	 40.8497 	 128.09
|  9> C 	 -97.7334 	 41.1323 	 128.655
| 10> C 	 -96.6652 	 41.2017 	 127.753
| 11> C 	 -97.0243 	 41.1073 	 126.434
| 12> H 	 -95.6491 	 41.3566 	 128.039
| 13> C 	 -97.5257 	 41.3308 	 130.177
| 14> H 	 -98.5314 	 41.0673 	 130.634
| 15> H 	 -97.2112 	 42.3643 	 130.418
| 16> C 	 -96.5539 	 40.3865 	 130.839
| 17> H 	 -95.5958 	 40.4715 	 130.319
| 18> H 	 -96.4043 	 40.6776 	 131.909
| 19> C 	 -97.0063 	 38.9435 	 130.75
| 20> H 	 -96.5755 	 38.3742 	 131.593
| 21> H 	 -98.0854 	 38.8292 	 130.832
| 22> H 	 -96.8039 	 38.4553 	 129.796
| 23> S 	 -95.2838 	 39.6695 	 125.045
| 24> C 	 -94.3601 	 40.4445 	 123.788
| 25> C 	 -94.7764 	 41.7505 	 123.605
| 26> C 	 -95.8759 	 42.1489 	 124.41
| 27> C 	 -96.2106 	 41.1443 	 125.299
| 28> H 	 -94.2201 	 42.3995 	 122.895
| 29> C 	 -96.4466 	 43.5131 	 124.382
| 30> H 	 -95.7309 	 44.157 	 124.76
| 31> H 	 -97.2432 	 43.4329 	 125.123
| 32> C 	 -97.0748 	 44.0148 	 122.989
| 33> H 	 -97.8155 	 43.3273 	 122.663
| 34> H 	 -96.2857 	 44.0756 	 122.28
| 35> C 	 -97.7744 	 45.4472 	 123.15
| 36> H 	 -98.5941 	 45.3811 	 123.892
| 37> H 	 -98.1251 	 45.9133 	 122.141
| 38> H 	 -97.0869 	 46.1254 	 123.555
| 39> H 	 -99.9122 	 40.7692 	 128.614
| 40> H 	 -93.5962 	 39.9695 	 123.303
| 41> *
| 42>
| 43>                          ****END OF INPUT****

CARTESIAN COORDINATES (ANGSTROEM)
---------------------------------
  S    -98.733600   40.723000  126.298000
  C    -98.935100   40.849700  128.090000
  C    -97.733400   41.132300  128.655000
  C    -96.665200   41.201700  127.753000
  C    -97.024300   41.107300  126.434000
  H    -95.649100   41.356600  128.039000
  C    -97.525700   41.330800  130.177000
  H    -98.531400   41.067300  130.634000
  H    -97.211200   42.364300  130.418000
  C    -96.553900   40.386500  130.839000
  H    -95.595800   40.471500  130.319000
  H    -96.404300   40.677600  131.909000
  C    -97.006300   38.943500  130.750000
  H    -96.575500   38.374200  131.593000
  H    -98.085400   38.829200  130.832000
  H    -96.803900   38.455300  129.796000
  S    -95.283800   39.669500  125.045000
  C    -94.360100   40.444500  123.788000
  C    -94.776400   41.750500  123.605000
  C    -95.875900   42.148900  124.410000
  C    -96.210600   41.144300  125.299000
  H    -94.220100   42.399500  122.895000
  C    -96.446600   43.513100  124.382000
  H    -95.730900   44.157000  124.760000
  H    -97.243200   43.432900  125.123000
  C    -97.074800   44.014800  122.989000
  H    -97.815500   43.327300  122.663000
  H    -96.285700   44.075600  122.280000
  C    -97.774400   45.447200  123.150000
  H    -98.594100   45.381100  123.892000
  H    -98.125100   45.913300  122.141000
  H    -97.086900   46.125400  123.555000
  H    -99.912200   40.769200  128.614000
  H    -93.596200   39.969500  123.303000

 Total Charge           Charge          ....    0
 Multiplicity           Mult            ....    1
 Number of Electrons    NEL             ....  134
 Basis Dimension        Dim             ....  322

ORBITAL ENERGIES
----------------

  NO   OCC          E(Eh)            E(eV)
   0   2.0000     -88.963431     -2420.8180
   1   2.0000     -88.963197     -2420.8117
   2   2.0000     -10.323842      -280.9260
   3   2.0000     -10.318886      -280.7912
   4   2.0000     -10.318538      -280.7817
   5   2.0000     -10.311072      -280.5785
   6   2.0000     -10.301460      -280.3170
   7   2.0000     -10.297820      -280.2179
   8   2.0000     -10.296756      -280.1890
   9   2.0000     -10.294185      -280.1190
  10   2.0000     -10.291307      -280.0407
  11   2.0000     -10.289137      -279.9816
  12   2.0000     -10.286598      -279.9126
  13   2.0000     -10.286183      -279.9013
  14   2.0000     -10.286130      -279.8998
  15   2.0000     -10.272604      -279.5318
  16   2.0000      -8.078452      -219.8259
  17   2.0000      -8.077155      -219.7906
  18   2.0000      -6.036871      -164.2716
  19   2.0000      -6.035738      -164.2408
  20   2.0000      -6.032869      -164.1627
  21   2.0000      -6.031783      -164.1332
  22   2.0000      -6.029335      -164.0665
  23   2.0000      -6.027860      -164.0264
  24   2.0000      -1.010835       -27.5062
  25   2.0000      -0.983789       -26.7703
  26   2.0000      -0.914259       -24.8783
  27   2.0000      -0.903232       -24.5782
  28   2.0000      -0.874905       -23.8074
  29   2.0000      -0.847497       -23.0616
  30   2.0000      -0.842149       -22.9160
  31   2.0000      -0.811745       -22.0887
  32   2.0000      -0.782127       -21.2828
  33   2.0000      -0.771375       -20.9902
  34   2.0000      -0.713841       -19.4246
  35   2.0000      -0.708349       -19.2752
  36   2.0000      -0.687907       -18.7189
  37   2.0000      -0.664989       -18.0953
  38   2.0000      -0.638197       -17.3662
  39   2.0000      -0.622397       -16.9363
  40   2.0000      -0.596590       -16.2340
  41   2.0000      -0.567362       -15.4387
  42   2.0000      -0.562219       -15.2988
  43   2.0000      -0.552730       -15.0405
  44   2.0000      -0.543928       -14.8010
  45   2.0000      -0.524443       -14.2708
  46   2.0000      -0.520030       -14.1507
  47   2.0000      -0.511077       -13.9071
  48   2.0000      -0.505956       -13.7678
  49   2.0000      -0.502115       -13.6632
  50   2.0000      -0.488439       -13.2911
  51   2.0000      -0.471840       -12.8394
  52   2.0000      -0.464721       -12.6457
  53   2.0000      -0.463185       -12.6039
  54   2.0000      -0.455660       -12.3991
  55   2.0000      -0.446413       -12.1475
  56   2.0000      -0.444312       -12.0903
  57   2.0000      -0.439213       -11.9516
  58   2.0000      -0.431374       -11.7383
  59   2.0000      -0.425648       -11.5825
  60   2.0000      -0.423719       -11.5300
  61   2.0000      -0.420454       -11.4411
  62   2.0000      -0.410774       -11.1777
  63   2.0000      -0.337616        -9.1870
  64   2.0000      -0.328713        -8.9447
  65   2.0000      -0.323655        -8.8071
  66   2.0000      -0.309024        -8.4090
  67   0.0000       0.041036         1.1167
  68   0.0000       0.054395         1.4802
  69   0.0000       0.115658         3.1472
  70   0.0000       0.118416         3.2223
  71   0.0000       0.128049         3.4844

MULLIKEN ATOMIC CHARGES
-----------------------
   0 S :    0.098156
   1 C :   -0.156436
   2 C :   -0.058466
   3 C :    0.054358
   4 C :   -0.187566
   5 H :    0.001469
   6 C :    0.051232
   7 H :    0.021343
   8 H :    0.044927
   9 C :   -0.086564
  10 H :    0.031162
  11 H :    0.040423
  12 C :   -0.055729
  13 H :    0.037577
  14 H :    0.014401
  15 H :    0.043549
  16 S :    0.114333
  17 C :   -0.058802
  18 C :   -0.051239
  19 C :    0.006328
  20 C :   -0.194332
  21 H :    0.028873
  22 C :    0.087766
  23 H :    0.020359
  24 H :    0.020785
  25 C :   -0.058390
  26 H :    0.036099
  27 H :    0.026906
  28 C :   -0.072308
  29 H :    0.040215
  30 H :    0.053614
  31 H :    0.018837
  32 H :    0.064188
  33 H :    0.022935
Sum of atomic charges:    0.0000000

LOEWDIN ATOMIC CHARGES
----------------------
   0 S :    0.377343
   1 C :   -0.183188
   2 C :   -0.070172
   3 C :   -0.056961
   4 C :   -0.196678
   5 H :    0.028250
   6 C :   -0.030273
   7 H :    0.030653
   8 H :    0.033224
   9 C :   -0.049168
  10 H :    0.022853
  11 H :    0.031126
  12 C :   -0.070561
  13 H :    0.030097
  14 H :    0.020569
  15 H :    0.029605
  16 S :    0.411709
  17 C :   -0.170212
  18 C :   -0.073459
  19 C :   -0.049025
  20 C :   -0.205960
  21 H :    0.035565
  22 C :   -0.025072
  23 H :    0.024211
  24 H :    0.031269
  25 C :   -0.020522
  26 H :    0.022568
  27 H :    0.015632
  28 C :   -0.070184
  29 H :    0.028596
  30 H :    0.038274
  31 H :    0.013206
  32 H :    0.037599
  33 H :    0.009084

  Mayer bond orders larger than 0.100000
B(  0-S ,  1-C ) :   1.1222 B(  0-S ,  4-C ) :   1.1388 B(  1-C ,  2-C ) :   1.6342
B(  1-C ,  4-C ) :   0.1005 B(  1-C , 32-H ) :   0.9625 B(  2-C ,  3-C ) :   1.2254
B(  2-C ,  6-C ) :   1.0067 B(  3-C ,  4-C ) :   1.5958 B(  3-C ,  5-H ) :   1.0025
B(  4-C , 20-C ) :   1.0340 B(  6-C ,  7-H ) :   0.9457 B(  6-C ,  8-H ) :   0.9427
B(  6-C ,  9-C ) :   1.0806 B(  9-C , 10-H ) :   0.9515 B(  9-C , 11-H ) :   0.9570
B(  9-C , 12-C ) :   1.0700 B( 12-C , 13-H ) :   0.9753 B( 12-C , 14-H ) :   0.9762
B( 12-C , 15-H ) :   0.9719 B( 16-S , 17-C ) :   1.1567 B( 16-S , 20-C ) :   1.1488
B( 17-C , 18-C ) :   1.6055 B( 17-C , 20-C ) :   0.1052 B( 17-C , 33-H ) :   0.9821
B( 18-C , 19-C ) :   1.2237 B( 18-C , 21-H ) :   0.9858 B( 19-C , 20-C ) :   1.5905
B( 19-C , 22-C ) :   1.0556 B( 22-C , 23-H ) :   0.9286 B( 22-C , 24-H ) :   0.9249
B( 22-C , 25-C ) :   1.0491 B( 25-C , 26-H ) :   0.9616 B( 25-C , 27-H ) :   0.9614
B( 25-C , 28-C ) :   1.0733 B( 28-C , 29-H ) :   0.9774 B( 28-C , 30-H ) :   0.9759
B( 28-C , 31-H ) :   0.9766

Dispersion correction           -0.014226844
FINAL SINGLE POINT ENERGY     -1339.877410224583

DIPOLE MOMENT
-------------
                                X             Y             Z
Electronic contribution:      1.31414     -12.17703      -8.95168
Nuclear contribution   :     -1.01565      12.57622       9.18512
                        -----------------------------------------
Total Dipole Moment    :      0.29848       0.39920       0.23345
                        -----------------------------------------
Magnitude (a.u.)       :      0.55041
Magnitude (Debye)      :      1.39903

Rotational constants in cm-1:     0.020495     0.008032     0.006682
Rotational constants in MHz :   614.414490   240.779262   200.333168

                             ****ORCA TERMINATED NORMALLY****
TOTAL RUN TIME: 0 days 0 hours 0 minutes 31 seconds 131 msec
