                         Program Version 4.2.1 -  RELEASE  -
|  1> ! wB97X-D3 SP def2-SVP
|  2> %pal
|  3> nprocs 16
|  4> end
|  5>
|  6> * xyz 0 1
|  7> S 	 24.0698 	 30.6533 	 58.9013
|  8> C 	 25.0404 	 29.3227 	 58.1391
|  9> C 	 26.3324 	 29.6746 	 57.8187
| 10> C 	 26.5018 	 31.0827 	 58.0363
| 11> C 	 25.4558 	 31.6672 	 58.708
| 12> H 	 27.4085 	 31.5913 	 57.7305
| 13> C 	 27.4964 	 28.7613 	 57.3991
| 14> H 	 27.6227 	 27.8888 	 58.0802
| 15> H 	 28.4437 	 29.2665 	 57.3934
| 16> C 	 27.3847 	 28.3734 	 55.9108
| 17> H 	 26.5475 	 27.7726 	 55.7349
| 18> H 	 27.2115 	 29.2452 	 55.3539
| 19> C 	 28.5889 	 27.6037 	 55.3474
| 20> H 	 28.3325 	 27.2842 	 54.3305
| 21> H 	 29.5627 	 28.1263 	 55.3945
| 22> H 	 28.8702 	 26.7159 	 55.9343
| 23> S 	 24.2941 	 34.1595 	 58.6476
| 24> C 	 25.0941 	 35.4653 	 59.5163
| 25> C 	 26.1923 	 34.9936 	 60.2104
| 26> C 	 26.4742 	 33.6066 	 60.0588
| 27> C 	 25.538 	 33.0025 	 59.2454
| 28> H 	 26.7909 	 35.6483 	 60.7542
| 29> C 	 27.6278 	 32.9583 	 60.7544
| 30> H 	 27.518 	 31.8718 	 60.8162
| 31> H 	 27.7477 	 33.3282 	 61.7314
| 32> C 	 28.9969 	 33.3932 	 60.2592
| 33> H 	 29.6728 	 32.9125 	 60.9382
| 34> H 	 29.1869 	 34.4173 	 60.4764
| 35> C 	 29.3374 	 33.2388 	 58.7495
| 36> H 	 28.493 	 33.5031 	 58.2079
| 37> H 	 29.5406 	 32.23 	 58.5422
| 38> H 	 30.2046 	 33.8138 	 58.4511
| 39> H 	 24.814 	 28.2391 	 58.0714
| 40> H 	 24.9473 	 36.5143 	 59.4555
| 41> *
| 42>
| 43>                          ****END OF INPUT****

CARTESIAN COORDINATES (ANGSTROEM)
---------------------------------
  S     24.069800   30.653300   58.901300
  C     25.040400   29.322700   58.139100
  C     26.332400   29.674600   57.818700
  C     26.501800   31.082700   58.036300
  C     25.455800   31.667200   58.708000
  H     27.408500   31.591300   57.730500
  C     27.496400   28.761300   57.399100
  H     27.622700   27.888800   58.080200
  H     28.443700   29.266500   57.393400
  C     27.384700   28.373400   55.910800
  H     26.547500   27.772600   55.734900
  H     27.211500   29.245200   55.353900
  C     28.588900   27.603700   55.347400
  H     28.332500   27.284200   54.330500
  H     29.562700   28.126300   55.394500
  H     28.870200   26.715900   55.934300
  S     24.294100   34.159500   58.647600
  C     25.094100   35.465300   59.516300
  C     26.192300   34.993600   60.210400
  C     26.474200   33.606600   60.058800
  C     25.538000   33.002500   59.245400
  H     26.790900   35.648300   60.754200
  C     27.627800   32.958300   60.754400
  H     27.518000   31.871800   60.816200
  H     27.747700   33.328200   61.731400
  C     28.996900   33.393200   60.259200
  H     29.672800   32.912500   60.938200
  H     29.186900   34.417300   60.476400
  C     29.337400   33.238800   58.749500
  H     28.493000   33.503100   58.207900
  H     29.540600   32.230000   58.542200
  H     30.204600   33.813800   58.451100
  H     24.814000   28.239100   58.071400
  H     24.947300   36.514300   59.455500

 Total Charge           Charge          ....    0
 Multiplicity           Mult            ....    1
 Number of Electrons    NEL             ....  134
 Basis Dimension        Dim             ....  322

ORBITAL ENERGIES
----------------

  NO   OCC          E(Eh)            E(eV)
   0   2.0000     -88.972230     -2421.0575
   1   2.0000     -88.964522     -2420.8477
   2   2.0000     -10.325963      -280.9837
   3   2.0000     -10.324452      -280.9426
   4   2.0000     -10.316653      -280.7304
   5   2.0000     -10.315430      -280.6971
   6   2.0000     -10.301615      -280.3212
   7   2.0000     -10.301471      -280.3173
   8   2.0000     -10.298000      -280.2228
   9   2.0000     -10.290228      -280.0113
  10   2.0000     -10.287178      -279.9283
  11   2.0000     -10.286608      -279.9128
  12   2.0000     -10.281847      -279.7833
  13   2.0000     -10.281435      -279.7721
  14   2.0000     -10.278691      -279.6974
  15   2.0000     -10.267084      -279.3816
  16   2.0000      -8.086028      -220.0320
  17   2.0000      -8.078413      -219.8248
  18   2.0000      -6.044653      -164.4834
  19   2.0000      -6.040916      -164.3817
  20   2.0000      -6.037051      -164.2765
  21   2.0000      -6.036465      -164.2606
  22   2.0000      -6.033092      -164.1688
  23   2.0000      -6.029046      -164.0587
  24   2.0000      -1.004281       -27.3279
  25   2.0000      -0.979108       -26.6429
  26   2.0000      -0.915673       -24.9167
  27   2.0000      -0.912723       -24.8365
  28   2.0000      -0.868520       -23.6336
  29   2.0000      -0.850485       -23.1429
  30   2.0000      -0.845703       -23.0127
  31   2.0000      -0.810889       -22.0654
  32   2.0000      -0.791490       -21.5375
  33   2.0000      -0.778824       -21.1929
  34   2.0000      -0.711533       -19.3618
  35   2.0000      -0.706865       -19.2348
  36   2.0000      -0.695815       -18.9341
  37   2.0000      -0.662831       -18.0366
  38   2.0000      -0.634292       -17.2600
  39   2.0000      -0.619615       -16.8606
  40   2.0000      -0.599491       -16.3130
  41   2.0000      -0.572689       -15.5837
  42   2.0000      -0.560120       -15.2416
  43   2.0000      -0.551926       -15.0187
  44   2.0000      -0.546214       -14.8632
  45   2.0000      -0.528143       -14.3715
  46   2.0000      -0.523364       -14.2415
  47   2.0000      -0.515337       -14.0230
  48   2.0000      -0.501122       -13.6362
  49   2.0000      -0.493591       -13.4313
  50   2.0000      -0.489653       -13.3241
  51   2.0000      -0.476727       -12.9724
  52   2.0000      -0.476368       -12.9626
  53   2.0000      -0.466129       -12.6840
  54   2.0000      -0.455708       -12.4004
  55   2.0000      -0.449858       -12.2413
  56   2.0000      -0.445490       -12.1224
  57   2.0000      -0.442041       -12.0286
  58   2.0000      -0.438365       -11.9285
  59   2.0000      -0.429647       -11.6913
  60   2.0000      -0.422932       -11.5086
  61   2.0000      -0.419944       -11.4273
  62   2.0000      -0.413262       -11.2454
  63   2.0000      -0.338301        -9.2056
  64   2.0000      -0.334952        -9.1145
  65   2.0000      -0.329164        -8.9570
  66   2.0000      -0.292997        -7.9729
  67   0.0000       0.033312         0.9065
  68   0.0000       0.063342         1.7236
  69   0.0000       0.097289         2.6474
  70   0.0000       0.120058         3.2669
  71   0.0000       0.128503         3.4968

MULLIKEN ATOMIC CHARGES
-----------------------
   0 S :    0.126202
   1 C :   -0.119623
   2 C :   -0.104446
   3 C :    0.039195
   4 C :   -0.140384
   5 H :   -0.011331
   6 C :    0.067235
   7 H :    0.043250
   8 H :    0.010510
   9 C :   -0.048544
  10 H :    0.013830
  11 H :    0.022040
  12 C :   -0.057659
  13 H :    0.042450
  14 H :    0.029155
  15 H :    0.022378
  16 S :    0.094644
  17 C :   -0.060780
  18 C :   -0.029794
  19 C :   -0.014796
  20 C :   -0.181465
  21 H :   -0.011123
  22 C :    0.117780
  23 H :    0.037887
  24 H :    0.008344
  25 C :   -0.097824
  26 H :    0.016937
  27 H :    0.011592
  28 C :   -0.006582
  29 H :    0.040038
  30 H :    0.017588
  31 H :    0.031334
  32 H :    0.047460
  33 H :    0.044502
Sum of atomic charges:   -0.0000000

LOEWDIN ATOMIC CHARGES
----------------------
   0 S :    0.394908
   1 C :   -0.190263
   2 C :   -0.057258
   3 C :   -0.058654
   4 C :   -0.204534
   5 H :    0.029250
   6 C :   -0.027018
   7 H :    0.035785
   8 H :    0.026791
   9 C :   -0.032750
  10 H :    0.015730
  11 H :    0.021498
  12 C :   -0.071507
  13 H :    0.030610
  14 H :    0.024550
  15 H :    0.024845
  16 S :    0.376077
  17 C :   -0.174970
  18 C :   -0.061366
  19 C :   -0.052338
  20 C :   -0.179470
  21 H :    0.017789
  22 C :   -0.026398
  23 H :    0.034297
  24 H :    0.032942
  25 C :   -0.032615
  26 H :    0.021797
  27 H :    0.016687
  28 C :   -0.055248
  29 H :    0.016962
  30 H :    0.015181
  31 H :    0.028768
  32 H :    0.033219
  33 H :    0.026703

  Mayer bond orders larger than 0.100000
B(  0-S ,  1-C ) :   1.1050 B(  0-S ,  4-C ) :   1.1428 B(  1-C ,  2-C ) :   1.6699
B(  1-C , 32-H ) :   0.9551 B(  2-C ,  3-C ) :   1.2224 B(  2-C ,  6-C ) :   1.0196
B(  3-C ,  4-C ) :   1.5848 B(  3-C ,  5-H ) :   0.9878 B(  4-C , 20-C ) :   1.0306
B(  6-C ,  7-H ) :   0.9428 B(  6-C ,  8-H ) :   0.9445 B(  6-C ,  9-C ) :   1.0553
B(  9-C , 10-H ) :   0.9570 B(  9-C , 11-H ) :   0.9535 B(  9-C , 12-C ) :   1.0863
B( 12-C , 13-H ) :   0.9741 B( 12-C , 14-H ) :   0.9735 B( 12-C , 15-H ) :   0.9721
B( 16-S , 17-C ) :   1.1357 B( 16-S , 20-C ) :   1.1229 B( 17-C , 18-C ) :   1.6372
B( 17-C , 33-H ) :   0.9683 B( 18-C , 19-C ) :   1.2124 B( 18-C , 21-H ) :   0.9939
B( 19-C , 20-C ) :   1.6113 B( 19-C , 22-C ) :   1.0677 B( 22-C , 23-H ) :   0.9341
B( 22-C , 24-H ) :   0.9191 B( 22-C , 25-C ) :   1.0690 B( 25-C , 26-H ) :   0.9552
B( 25-C , 27-H ) :   0.9585 B( 25-C , 28-C ) :   1.0687 B( 28-C , 29-H ) :   0.9673
B( 28-C , 30-H ) :   0.9727 B( 28-C , 31-H ) :   0.9692

Dispersion correction           -0.015073777
FINAL SINGLE POINT ENERGY     -1339.865094986917

DIPOLE MOMENT
-------------
                                X             Y             Z
Electronic contribution:    -27.72577      11.35430       7.09066
Nuclear contribution   :     28.59516     -11.46053      -7.00686
                        -----------------------------------------
Total Dipole Moment    :      0.86939      -0.10623       0.08379
                        -----------------------------------------
Magnitude (a.u.)       :      0.87985
Magnitude (Debye)      :      2.23641

Rotational constants in cm-1:     0.019832     0.008658     0.006776
Rotational constants in MHz :   594.557792   259.552275   203.139201

                             ****ORCA TERMINATED NORMALLY****
TOTAL RUN TIME: 0 days 0 hours 0 minutes 33 seconds 886 msec
