                         Program Version 4.2.1 -  RELEASE  -
|  1> ! wB97X-D3 SP def2-SVP
|  2> %pal
|  3> nprocs 16
|  4> end
|  5>
|  6> * xyz 0 1
|  7> S 	 12.0472 	 24.9548 	 65.1803
|  8> C 	 12.889 	 24.1385 	 66.4627
|  9> C 	 12.0482 	 23.2552 	 67.105
| 10> C 	 10.7774 	 23.2752 	 66.5672
| 11> C 	 10.5942 	 24.0681 	 65.4005
| 12> H 	 9.8772 	 22.8501 	 66.9577
| 13> C 	 12.3946 	 22.4301 	 68.3037
| 14> H 	 11.5865 	 22.677 	 68.9953
| 15> H 	 13.3127 	 22.8932 	 68.695
| 16> C 	 12.4334 	 20.9607 	 68.1835
| 17> H 	 12.8295 	 20.5979 	 69.1255
| 18> H 	 11.4269 	 20.6694 	 68.015
| 19> C 	 13.5112 	 20.5291 	 67.1183
| 20> H 	 13.1841 	 21.1015 	 66.2282
| 21> H 	 14.4398 	 20.8659 	 67.3926
| 22> H 	 13.5013 	 19.4558 	 66.9855
| 23> S 	 9.27454 	 25.9795 	 64.0523
| 24> C 	 7.68003 	 25.6178 	 63.4523
| 25> C 	 7.30821 	 24.2949 	 63.4754
| 26> C 	 8.29636 	 23.5716 	 64.2069
| 27> C 	 9.35936 	 24.3892 	 64.6685
| 28> H 	 6.37981 	 23.9939 	 63.036
| 29> C 	 8.19417 	 22.0924 	 64.3467
| 30> H 	 9.17366 	 21.7178 	 64.5768
| 31> H 	 7.82781 	 21.5352 	 63.5189
| 32> C 	 7.23059 	 21.7464 	 65.4645
| 33> H 	 6.25865 	 22.2964 	 65.4448
| 34> H 	 7.69997 	 21.9808 	 66.353
| 35> C 	 6.96781 	 20.2472 	 65.6048
| 36> H 	 7.91761 	 19.6895 	 65.4181
| 37> H 	 6.26792 	 19.8828 	 64.805
| 38> H 	 6.63106 	 20.0879 	 66.6172
| 39> H 	 13.9044 	 24.3466 	 66.7153
| 40> H 	 6.94406 	 26.3225 	 62.966
| 41> *
| 42>
| 43>                          ****END OF INPUT****

CARTESIAN COORDINATES (ANGSTROEM)
---------------------------------
  S     12.047200   24.954800   65.180300
  C     12.889000   24.138500   66.462700
  C     12.048200   23.255200   67.105000
  C     10.777400   23.275200   66.567200
  C     10.594200   24.068100   65.400500
  H      9.877200   22.850100   66.957700
  C     12.394600   22.430100   68.303700
  H     11.586500   22.677000   68.995300
  H     13.312700   22.893200   68.695000
  C     12.433400   20.960700   68.183500
  H     12.829500   20.597900   69.125500
  H     11.426900   20.669400   68.015000
  C     13.511200   20.529100   67.118300
  H     13.184100   21.101500   66.228200
  H     14.439800   20.865900   67.392600
  H     13.501300   19.455800   66.985500
  S      9.274540   25.979500   64.052300
  C      7.680030   25.617800   63.452300
  C      7.308210   24.294900   63.475400
  C      8.296360   23.571600   64.206900
  C      9.359360   24.389200   64.668500
  H      6.379810   23.993900   63.036000
  C      8.194170   22.092400   64.346700
  H      9.173660   21.717800   64.576800
  H      7.827810   21.535200   63.518900
  C      7.230590   21.746400   65.464500
  H      6.258650   22.296400   65.444800
  H      7.699970   21.980800   66.353000
  C      6.967810   20.247200   65.604800
  H      7.917610   19.689500   65.418100
  H      6.267920   19.882800   64.805000
  H      6.631060   20.087900   66.617200
  H     13.904400   24.346600   66.715300
  H      6.944060   26.322500   62.966000

 Total Charge           Charge          ....    0
 Multiplicity           Mult            ....    1
 Number of Electrons    NEL             ....  134
 Basis Dimension        Dim             ....  322

ORBITAL ENERGIES
----------------

  NO   OCC          E(Eh)            E(eV)
   0   2.0000     -88.971607     -2421.0405
   1   2.0000     -88.966551     -2420.9029
   2   2.0000     -10.331233      -281.1271
   3   2.0000     -10.328829      -281.0617
   4   2.0000     -10.318986      -280.7939
   5   2.0000     -10.310462      -280.5619
   6   2.0000     -10.306398      -280.4513
   7   2.0000     -10.294728      -280.1338
   8   2.0000     -10.293536      -280.1014
   9   2.0000     -10.288510      -279.9646
  10   2.0000     -10.285109      -279.8720
  11   2.0000     -10.282030      -279.7883
  12   2.0000     -10.280878      -279.7569
  13   2.0000     -10.280851      -279.7562
  14   2.0000     -10.277548      -279.6663
  15   2.0000     -10.270229      -279.4671
  16   2.0000      -8.087076      -220.0605
  17   2.0000      -8.081949      -219.9210
  18   2.0000      -6.045483      -164.5060
  19   2.0000      -6.041697      -164.4029
  20   2.0000      -6.040328      -164.3657
  21   2.0000      -6.037680      -164.2936
  22   2.0000      -6.036205      -164.2535
  23   2.0000      -6.032985      -164.1659
  24   2.0000      -1.014991       -27.6193
  25   2.0000      -0.992610       -27.0103
  26   2.0000      -0.923601       -25.1325
  27   2.0000      -0.918532       -24.9945
  28   2.0000      -0.873615       -23.7723
  29   2.0000      -0.853449       -23.2235
  30   2.0000      -0.847217       -23.0540
  31   2.0000      -0.815451       -22.1895
  32   2.0000      -0.786278       -21.3957
  33   2.0000      -0.771809       -21.0020
  34   2.0000      -0.710073       -19.3221
  35   2.0000      -0.697898       -18.9908
  36   2.0000      -0.692089       -18.8327
  37   2.0000      -0.664159       -18.0727
  38   2.0000      -0.641274       -17.4499
  39   2.0000      -0.625600       -17.0234
  40   2.0000      -0.599776       -16.3207
  41   2.0000      -0.577721       -15.7206
  42   2.0000      -0.568736       -15.4761
  43   2.0000      -0.554374       -15.0853
  44   2.0000      -0.548678       -14.9303
  45   2.0000      -0.529060       -14.3964
  46   2.0000      -0.521888       -14.2013
  47   2.0000      -0.514515       -14.0007
  48   2.0000      -0.504281       -13.7222
  49   2.0000      -0.498106       -13.5541
  50   2.0000      -0.488876       -13.3030
  51   2.0000      -0.487285       -13.2597
  52   2.0000      -0.476047       -12.9539
  53   2.0000      -0.464069       -12.6280
  54   2.0000      -0.462058       -12.5732
  55   2.0000      -0.455481       -12.3943
  56   2.0000      -0.444020       -12.0824
  57   2.0000      -0.437468       -11.9041
  58   2.0000      -0.433716       -11.8020
  59   2.0000      -0.428727       -11.6663
  60   2.0000      -0.423864       -11.5339
  61   2.0000      -0.417952       -11.3731
  62   2.0000      -0.404295       -11.0014
  63   2.0000      -0.356217        -9.6932
  64   2.0000      -0.334807        -9.1106
  65   2.0000      -0.330321        -8.9885
  66   2.0000      -0.281057        -7.6480
  67   0.0000       0.023065         0.6276
  68   0.0000       0.075568         2.0563
  69   0.0000       0.102180         2.7805
  70   0.0000       0.120350         3.2749
  71   0.0000       0.132743         3.6121

MULLIKEN ATOMIC CHARGES
-----------------------
   0 S :    0.096691
   1 C :   -0.122197
   2 C :   -0.080574
   3 C :    0.001943
   4 C :   -0.135935
   5 H :   -0.008426
   6 C :    0.060454
   7 H :    0.029615
   8 H :    0.010480
   9 C :   -0.028121
  10 H :    0.026122
  11 H :    0.022273
  12 C :   -0.032174
  13 H :    0.046624
  14 H :    0.007873
  15 H :    0.038770
  16 S :    0.121951
  17 C :   -0.100660
  18 C :   -0.026880
  19 C :   -0.045444
  20 C :   -0.136565
  21 H :    0.016466
  22 C :    0.105216
  23 H :    0.014222
  24 H :    0.013550
  25 C :   -0.088050
  26 H :    0.036818
  27 H :   -0.002708
  28 C :   -0.047216
  29 H :    0.027411
  30 H :    0.039009
  31 H :    0.038066
  32 H :    0.037150
  33 H :    0.064248
Sum of atomic charges:   -0.0000000

LOEWDIN ATOMIC CHARGES
----------------------
   0 S :    0.424155
   1 C :   -0.201221
   2 C :   -0.070731
   3 C :   -0.074244
   4 C :   -0.201214
   5 H :    0.022442
   6 C :   -0.033588
   7 H :    0.036316
   8 H :    0.027142
   9 C :   -0.031667
  10 H :    0.025863
  11 H :    0.018942
  12 C :   -0.052756
  13 H :    0.032541
  14 H :    0.010782
  15 H :    0.024749
  16 S :    0.429742
  17 C :   -0.192487
  18 C :   -0.065217
  19 C :   -0.044602
  20 C :   -0.215193
  21 H :    0.033549
  22 C :   -0.028993
  23 H :    0.027235
  24 H :    0.026355
  25 C :   -0.038986
  26 H :    0.028150
  27 H :    0.008227
  28 C :   -0.066615
  29 H :    0.027197
  30 H :    0.026801
  31 H :    0.025681
  32 H :    0.023025
  33 H :    0.038618

  Mayer bond orders larger than 0.100000
B(  0-S ,  1-C ) :   1.1560 B(  0-S ,  4-C ) :   1.1796 B(  1-C ,  2-C ) :   1.5451
B(  1-C ,  4-C ) :   0.1064 B(  1-C , 32-H ) :   0.9757 B(  2-C ,  3-C ) :   1.2888
B(  2-C ,  6-C ) :   1.0126 B(  3-C ,  4-C ) :   1.5063 B(  3-C ,  5-H ) :   1.0006
B(  4-C , 20-C ) :   1.0636 B(  6-C ,  7-H ) :   0.9345 B(  6-C ,  8-H ) :   0.9373
B(  6-C ,  9-C ) :   1.0851 B(  9-C , 10-H ) :   0.9507 B(  9-C , 11-H ) :   0.9549
B(  9-C , 12-C ) :   1.0673 B( 12-C , 13-H ) :   0.9779 B( 12-C , 14-H ) :   0.9747
B( 12-C , 15-H ) :   0.9769 B( 16-S , 17-C ) :   1.1592 B( 16-S , 20-C ) :   1.1412
B( 17-C , 18-C ) :   1.6258 B( 17-C , 33-H ) :   0.9557 B( 18-C , 19-C ) :   1.2343
B( 18-C , 21-H ) :   0.9965 B( 19-C , 20-C ) :   1.5623 B( 19-C , 22-C ) :   1.0625
B( 22-C , 23-H ) :   0.9162 B( 22-C , 24-H ) :   0.9419 B( 22-C , 25-C ) :   1.0628
B( 25-C , 26-H ) :   0.9564 B( 25-C , 27-H ) :   0.9501 B( 25-C , 28-C ) :   1.0863
B( 28-C , 29-H ) :   0.9693 B( 28-C , 30-H ) :   0.9747 B( 28-C , 31-H ) :   0.9759

Dispersion correction           -0.014366891
FINAL SINGLE POINT ENERGY     -1339.862722180827

DIPOLE MOMENT
-------------
                                X             Y             Z
Electronic contribution:      3.07538      27.55759     -12.08490
Nuclear contribution   :     -3.36001     -27.96765      12.32851
                        -----------------------------------------
Total Dipole Moment    :     -0.28463      -0.41006       0.24360
                        -----------------------------------------
Magnitude (a.u.)       :      0.55544
Magnitude (Debye)      :      1.41180

Rotational constants in cm-1:     0.017637     0.009918     0.006728
Rotational constants in MHz :   528.736408   297.323475   201.712921

                             ****ORCA TERMINATED NORMALLY****
TOTAL RUN TIME: 0 days 0 hours 0 minutes 36 seconds 83 msec
