                         Program Version 4.2.1 -  RELEASE  -
|  1> ! wB97X-D3 SP def2-SVP
|  2> %pal
|  3> nprocs 16
|  4> end
|  5>
|  6> * xyz 0 1
|  7> S 	 7.68322 	 8.79285 	 83.854
|  8> C 	 8.73584 	 7.53496 	 83.1539
|  9> C 	 9.73465 	 7.14275 	 84.0234
| 10> C 	 9.73161 	 7.94568 	 85.2633
| 11> C 	 8.80125 	 8.94637 	 85.2058
| 12> H 	 10.3529 	 7.86508 	 86.0838
| 13> C 	 10.7002 	 6.02487 	 83.7647
| 14> H 	 11.761 	 6.17448 	 84.2089
| 15> H 	 10.9031 	 6.15105 	 82.6537
| 16> C 	 10.2116 	 4.62281 	 84.2152
| 17> H 	 10.0759 	 4.61243 	 85.2865
| 18> H 	 9.2899 	 4.44837 	 83.7335
| 19> C 	 11.2399 	 3.52981 	 83.862
| 20> H 	 10.8878 	 2.50916 	 83.796
| 21> H 	 11.946 	 3.83578 	 83.045
| 22> H 	 11.9504 	 3.55661 	 84.6816
| 23> S 	 8.51405 	 11.6792 	 85.8254
| 24> C 	 8.29798 	 12.0914 	 87.4689
| 25> C 	 8.06068 	 10.9958 	 88.3076
| 26> C 	 8.33183 	 9.77498 	 87.5908
| 27> C 	 8.49039 	 9.96168 	 86.2144
| 28> H 	 7.86558 	 11.1271 	 89.3678
| 29> C 	 8.01487 	 8.42274 	 88.2351
| 30> H 	 8.1585 	 7.71522 	 87.4368
| 31> H 	 6.90841 	 8.35687 	 88.4353
| 32> C 	 8.76956 	 8.15364 	 89.55
| 33> H 	 8.29395 	 7.1848 	 89.8437
| 34> H 	 8.53148 	 8.8451 	 90.342
| 35> C 	 10.2523 	 7.95531 	 89.3322
| 36> H 	 10.7189 	 7.38909 	 90.1093
| 37> H 	 10.7835 	 8.91054 	 89.2424
| 38> H 	 10.3867 	 7.48944 	 88.3481
| 39> H 	 8.61409 	 7.13355 	 82.2112
| 40> H 	 8.05248 	 13.0752 	 87.7894
| 41> *
| 42>
| 43>                          ****END OF INPUT****

CARTESIAN COORDINATES (ANGSTROEM)
---------------------------------
  S      7.683220    8.792850   83.854000
  C      8.735840    7.534960   83.153900
  C      9.734650    7.142750   84.023400
  C      9.731610    7.945680   85.263300
  C      8.801250    8.946370   85.205800
  H     10.352900    7.865080   86.083800
  C     10.700200    6.024870   83.764700
  H     11.761000    6.174480   84.208900
  H     10.903100    6.151050   82.653700
  C     10.211600    4.622810   84.215200
  H     10.075900    4.612430   85.286500
  H      9.289900    4.448370   83.733500
  C     11.239900    3.529810   83.862000
  H     10.887800    2.509160   83.796000
  H     11.946000    3.835780   83.045000
  H     11.950400    3.556610   84.681600
  S      8.514050   11.679200   85.825400
  C      8.297980   12.091400   87.468900
  C      8.060680   10.995800   88.307600
  C      8.331830    9.774980   87.590800
  C      8.490390    9.961680   86.214400
  H      7.865580   11.127100   89.367800
  C      8.014870    8.422740   88.235100
  H      8.158500    7.715220   87.436800
  H      6.908410    8.356870   88.435300
  C      8.769560    8.153640   89.550000
  H      8.293950    7.184800   89.843700
  H      8.531480    8.845100   90.342000
  C     10.252300    7.955310   89.332200
  H     10.718900    7.389090   90.109300
  H     10.783500    8.910540   89.242400
  H     10.386700    7.489440   88.348100
  H      8.614090    7.133550   82.211200
  H      8.052480   13.075200   87.789400

 Total Charge           Charge          ....    0
 Multiplicity           Mult            ....    1
 Number of Electrons    NEL             ....  134
 Basis Dimension        Dim             ....  322

ORBITAL ENERGIES
----------------

  NO   OCC          E(Eh)            E(eV)
   0   2.0000     -88.967759     -2420.9358
   1   2.0000     -88.964584     -2420.8494
   2   2.0000     -10.329121      -281.0697
   3   2.0000     -10.324639      -280.9477
   4   2.0000     -10.314771      -280.6792
   5   2.0000     -10.311251      -280.5834
   6   2.0000     -10.306366      -280.4505
   7   2.0000     -10.303764      -280.3797
   8   2.0000     -10.302794      -280.3533
   9   2.0000     -10.296141      -280.1722
  10   2.0000     -10.292921      -280.0846
  11   2.0000     -10.290488      -280.0184
  12   2.0000     -10.287500      -279.9371
  13   2.0000     -10.286433      -279.9081
  14   2.0000     -10.280243      -279.7396
  15   2.0000     -10.275235      -279.6034
  16   2.0000      -8.082983      -219.9491
  17   2.0000      -8.078870      -219.8372
  18   2.0000      -6.041385      -164.3944
  19   2.0000      -6.037475      -164.2880
  20   2.0000      -6.037395      -164.2859
  21   2.0000      -6.033853      -164.1895
  22   2.0000      -6.033626      -164.1833
  23   2.0000      -6.029384      -164.0679
  24   2.0000      -1.004094       -27.3228
  25   2.0000      -0.980490       -26.6805
  26   2.0000      -0.910575       -24.7780
  27   2.0000      -0.909898       -24.7596
  28   2.0000      -0.868471       -23.6323
  29   2.0000      -0.850748       -23.1500
  30   2.0000      -0.844271       -22.9738
  31   2.0000      -0.815953       -22.2032
  32   2.0000      -0.781667       -21.2702
  33   2.0000      -0.768672       -20.9166
  34   2.0000      -0.708213       -19.2714
  35   2.0000      -0.701990       -19.1021
  36   2.0000      -0.696278       -18.9467
  37   2.0000      -0.655079       -17.8256
  38   2.0000      -0.647594       -17.6219
  39   2.0000      -0.617761       -16.8101
  40   2.0000      -0.595320       -16.1995
  41   2.0000      -0.573537       -15.6067
  42   2.0000      -0.557350       -15.1663
  43   2.0000      -0.554012       -15.0754
  44   2.0000      -0.538004       -14.6398
  45   2.0000      -0.526243       -14.3198
  46   2.0000      -0.522073       -14.2063
  47   2.0000      -0.511214       -13.9108
  48   2.0000      -0.506149       -13.7730
  49   2.0000      -0.497729       -13.5439
  50   2.0000      -0.492116       -13.3912
  51   2.0000      -0.482403       -13.1269
  52   2.0000      -0.465162       -12.6577
  53   2.0000      -0.458660       -12.4808
  54   2.0000      -0.454518       -12.3681
  55   2.0000      -0.449700       -12.2370
  56   2.0000      -0.444784       -12.1032
  57   2.0000      -0.440151       -11.9771
  58   2.0000      -0.436735       -11.8842
  59   2.0000      -0.429959       -11.6998
  60   2.0000      -0.424516       -11.5517
  61   2.0000      -0.414961       -11.2917
  62   2.0000      -0.405166       -11.0251
  63   2.0000      -0.341345        -9.2885
  64   2.0000      -0.331142        -9.0108
  65   2.0000      -0.327782        -8.9194
  66   2.0000      -0.296910        -8.0793
  67   0.0000       0.031807         0.8655
  68   0.0000       0.067512         1.8371
  69   0.0000       0.106100         2.8871
  70   0.0000       0.113723         3.0946
  71   0.0000       0.124289         3.3821

MULLIKEN ATOMIC CHARGES
-----------------------
   0 S :    0.096678
   1 C :   -0.082737
   2 C :   -0.069164
   3 C :    0.070785
   4 C :   -0.148289
   5 H :   -0.030655
   6 C :   -0.036463
   7 H :    0.037075
   8 H :    0.040920
   9 C :   -0.019730
  10 H :    0.030343
  11 H :    0.019786
  12 C :   -0.045979
  13 H :    0.045771
  14 H :    0.033044
  15 H :    0.014532
  16 S :    0.126834
  17 C :   -0.077523
  18 C :   -0.042067
  19 C :   -0.034212
  20 C :   -0.158565
  21 H :    0.029225
  22 C :    0.014764
  23 H :    0.020874
  24 H :    0.047826
  25 C :   -0.067924
  26 H :    0.028346
  27 H :    0.030423
  28 C :   -0.030201
  29 H :    0.034190
  30 H :    0.039572
  31 H :    0.019745
  32 H :    0.014407
  33 H :    0.048368
Sum of atomic charges:    0.0000000

LOEWDIN ATOMIC CHARGES
----------------------
   0 S :    0.380112
   1 C :   -0.174109
   2 C :   -0.054513
   3 C :   -0.050891
   4 C :   -0.178178
   5 H :    0.016118
   6 C :   -0.047000
   7 H :    0.035196
   8 H :    0.038524
   9 C :   -0.030936
  10 H :    0.025459
  11 H :    0.016323
  12 C :   -0.073014
  13 H :    0.026960
  14 H :    0.031455
  15 H :    0.024445
  16 S :    0.425567
  17 C :   -0.190349
  18 C :   -0.069366
  19 C :   -0.055023
  20 C :   -0.215037
  21 H :    0.033068
  22 C :   -0.034216
  23 H :    0.024893
  24 H :    0.040787
  25 C :   -0.042589
  26 H :    0.029870
  27 H :    0.019828
  28 C :   -0.064274
  29 H :    0.023869
  30 H :    0.030052
  31 H :    0.024468
  32 H :    0.010851
  33 H :    0.021651

  Mayer bond orders larger than 0.100000
B(  0-S ,  1-C ) :   1.1093 B(  0-S ,  4-C ) :   1.1426 B(  1-C ,  2-C ) :   1.6535
B(  1-C , 32-H ) :   0.9779 B(  2-C ,  3-C ) :   1.1781 B(  2-C ,  6-C ) :   1.0233
B(  3-C ,  4-C ) :   1.6180 B(  3-C ,  5-H ) :   1.0117 B(  4-C , 20-C ) :   1.0099
B(  6-C ,  7-H ) :   0.9469 B(  6-C ,  8-H ) :   0.9411 B(  6-C ,  9-C ) :   1.0533
B(  9-C , 10-H ) :   0.9599 B(  9-C , 11-H ) :   0.9598 B(  9-C , 12-C ) :   1.0661
B( 12-C , 13-H ) :   0.9766 B( 12-C , 14-H ) :   0.9739 B( 12-C , 15-H ) :   0.9727
B( 16-S , 17-C ) :   1.1817 B( 16-S , 20-C ) :   1.1401 B( 17-C , 18-C ) :   1.5995
B( 17-C , 33-H ) :   0.9647 B( 18-C , 19-C ) :   1.2386 B( 18-C , 21-H ) :   0.9873
B( 19-C , 20-C ) :   1.5806 B( 19-C , 22-C ) :   1.0365 B( 22-C , 23-H ) :   0.9392
B( 22-C , 24-H ) :   0.9420 B( 22-C , 25-C ) :   1.0677 B( 25-C , 26-H ) :   0.9534
B( 25-C , 27-H ) :   0.9578 B( 25-C , 28-C ) :   1.0730 B( 28-C , 29-H ) :   0.9714
B( 28-C , 30-H ) :   0.9714 B( 28-C , 31-H ) :   0.9728

Dispersion correction           -0.014634859
FINAL SINGLE POINT ENERGY     -1339.873890400122

DIPOLE MOMENT
-------------
                                X             Y             Z
Electronic contribution:    -12.79734      25.53700     -10.35734
Nuclear contribution   :     12.94789     -25.99221      10.80032
                        -----------------------------------------
Total Dipole Moment    :      0.15054      -0.45521       0.44298
                        -----------------------------------------
Magnitude (a.u.)       :      0.65277
Magnitude (Debye)      :      1.65922

Rotational constants in cm-1:     0.019668     0.008542     0.006488
Rotational constants in MHz :   589.629009   256.082727   194.505873

                             ****ORCA TERMINATED NORMALLY****
TOTAL RUN TIME: 0 days 0 hours 0 minutes 35 seconds 195 msec
