                         Program Version 4.2.1 -  RELEASE  -
|  1> ! wB97X-D3 SP def2-SVP
|  2> %pal
|  3> nprocs 16
|  4> end
|  5>
|  6> * xyz 0 1
|  7> S 	 -34.1584 	 64.4443 	 143.6
|  8> C 	 -33.8461 	 63.0733 	 142.544
|  9> C 	 -32.4675 	 62.6551 	 142.622
| 10> C 	 -31.7886 	 63.3734 	 143.641
| 11> C 	 -32.5909 	 64.2669 	 144.298
| 12> H 	 -30.7579 	 63.2707 	 143.993
| 13> C 	 -31.8402 	 61.4179 	 141.955
| 14> H 	 -30.7458 	 61.6451 	 141.706
| 15> H 	 -32.3863 	 61.1848 	 140.974
| 16> C 	 -31.9788 	 60.1272 	 142.769
| 17> H 	 -33.0151 	 59.9077 	 143.149
| 18> H 	 -31.8456 	 59.1961 	 142.104
| 19> C 	 -31.0317 	 59.9651 	 143.986
| 20> H 	 -31.2255 	 58.9467 	 144.5
| 21> H 	 -29.9674 	 60.0681 	 143.707
| 22> H 	 -31.192 	 60.7925 	 144.706
| 23> S 	 -31.5648 	 66.6877 	 144.874
| 24> C 	 -31.3753 	 67.1389 	 146.512
| 25> C 	 -31.66 	 66.1113 	 147.364
| 26> C 	 -32.0459 	 64.894 	 146.7
| 27> C 	 -32.154 	 65.1383 	 145.32
| 28> H 	 -31.5522 	 66.2412 	 148.41
| 29> C 	 -32.2582 	 63.5595 	 147.369
| 30> H 	 -31.7759 	 63.4996 	 148.343
| 31> H 	 -31.6788 	 62.8471 	 146.809
| 32> C 	 -33.6916 	 63.0505 	 147.603
| 33> H 	 -33.5522 	 61.9167 	 147.654
| 34> H 	 -34.1809 	 63.1398 	 146.594
| 35> C 	 -34.4101 	 63.6127 	 148.815
| 36> H 	 -34.1345 	 63.2853 	 149.822
| 37> H 	 -35.4365 	 63.3376 	 148.936
| 38> H 	 -34.36 	 64.7422 	 148.797
| 39> H 	 -34.5966 	 62.6602 	 141.822
| 40> H 	 -30.9278 	 68.0878 	 146.846
| 41> *
| 42>
| 43>                          ****END OF INPUT****

CARTESIAN COORDINATES (ANGSTROEM)
---------------------------------
  S    -34.158400   64.444300  143.600000
  C    -33.846100   63.073300  142.544000
  C    -32.467500   62.655100  142.622000
  C    -31.788600   63.373400  143.641000
  C    -32.590900   64.266900  144.298000
  H    -30.757900   63.270700  143.993000
  C    -31.840200   61.417900  141.955000
  H    -30.745800   61.645100  141.706000
  H    -32.386300   61.184800  140.974000
  C    -31.978800   60.127200  142.769000
  H    -33.015100   59.907700  143.149000
  H    -31.845600   59.196100  142.104000
  C    -31.031700   59.965100  143.986000
  H    -31.225500   58.946700  144.500000
  H    -29.967400   60.068100  143.707000
  H    -31.192000   60.792500  144.706000
  S    -31.564800   66.687700  144.874000
  C    -31.375300   67.138900  146.512000
  C    -31.660000   66.111300  147.364000
  C    -32.045900   64.894000  146.700000
  C    -32.154000   65.138300  145.320000
  H    -31.552200   66.241200  148.410000
  C    -32.258200   63.559500  147.369000
  H    -31.775900   63.499600  148.343000
  H    -31.678800   62.847100  146.809000
  C    -33.691600   63.050500  147.603000
  H    -33.552200   61.916700  147.654000
  H    -34.180900   63.139800  146.594000
  C    -34.410100   63.612700  148.815000
  H    -34.134500   63.285300  149.822000
  H    -35.436500   63.337600  148.936000
  H    -34.360000   64.742200  148.797000
  H    -34.596600   62.660200  141.822000
  H    -30.927800   68.087800  146.846000

 Total Charge           Charge          ....    0
 Multiplicity           Mult            ....    1
 Number of Electrons    NEL             ....  134
 Basis Dimension        Dim             ....  322

ORBITAL ENERGIES
----------------

  NO   OCC          E(Eh)            E(eV)
   0   2.0000     -88.971600     -2421.0403
   1   2.0000     -88.963912     -2420.8311
   2   2.0000     -10.325037      -280.9585
   3   2.0000     -10.318680      -280.7855
   4   2.0000     -10.315501      -280.6990
   5   2.0000     -10.310892      -280.5736
   6   2.0000     -10.310571      -280.5649
   7   2.0000     -10.309180      -280.5271
   8   2.0000     -10.302422      -280.3432
   9   2.0000     -10.297765      -280.2164
  10   2.0000     -10.293604      -280.1032
  11   2.0000     -10.292262      -280.0667
  12   2.0000     -10.287817      -279.9457
  13   2.0000     -10.287508      -279.9373
  14   2.0000     -10.286719      -279.9158
  15   2.0000     -10.279237      -279.7123
  16   2.0000      -8.086132      -220.0348
  17   2.0000      -8.080051      -219.8694
  18   2.0000      -6.044404      -164.4766
  19   2.0000      -6.040666      -164.3749
  20   2.0000      -6.038351      -164.3119
  21   2.0000      -6.037146      -164.2791
  22   2.0000      -6.034308      -164.2019
  23   2.0000      -6.031011      -164.1122
  24   2.0000      -1.013408       -27.5762
  25   2.0000      -0.985229       -26.8094
  26   2.0000      -0.906628       -24.6706
  27   2.0000      -0.905531       -24.6408
  28   2.0000      -0.869541       -23.6614
  29   2.0000      -0.848551       -23.0903
  30   2.0000      -0.846627       -23.0379
  31   2.0000      -0.810460       -22.0537
  32   2.0000      -0.786229       -21.3944
  33   2.0000      -0.768476       -20.9113
  34   2.0000      -0.705081       -19.1862
  35   2.0000      -0.693760       -18.8782
  36   2.0000      -0.686216       -18.6729
  37   2.0000      -0.659432       -17.9441
  38   2.0000      -0.644008       -17.5243
  39   2.0000      -0.612475       -16.6663
  40   2.0000      -0.595660       -16.2087
  41   2.0000      -0.565009       -15.3747
  42   2.0000      -0.555011       -15.1026
  43   2.0000      -0.540996       -14.7212
  44   2.0000      -0.534868       -14.5545
  45   2.0000      -0.533447       -14.5158
  46   2.0000      -0.512163       -13.9367
  47   2.0000      -0.509205       -13.8562
  48   2.0000      -0.500812       -13.6278
  49   2.0000      -0.488595       -13.2953
  50   2.0000      -0.485404       -13.2085
  51   2.0000      -0.479040       -13.0353
  52   2.0000      -0.475879       -12.9493
  53   2.0000      -0.467928       -12.7330
  54   2.0000      -0.463472       -12.6117
  55   2.0000      -0.448672       -12.2090
  56   2.0000      -0.442718       -12.0470
  57   2.0000      -0.441630       -12.0174
  58   2.0000      -0.433952       -11.8084
  59   2.0000      -0.421708       -11.4753
  60   2.0000      -0.415129       -11.2962
  61   2.0000      -0.406981       -11.0745
  62   2.0000      -0.404728       -11.0132
  63   2.0000      -0.341432        -9.2908
  64   2.0000      -0.329119        -8.9558
  65   2.0000      -0.317536        -8.6406
  66   2.0000      -0.305100        -8.3022
  67   0.0000       0.043081         1.1723
  68   0.0000       0.052246         1.4217
  69   0.0000       0.110713         3.0126
  70   0.0000       0.119213         3.2439
  71   0.0000       0.124572         3.3898

MULLIKEN ATOMIC CHARGES
-----------------------
   0 S :    0.139736
   1 C :   -0.145041
   2 C :   -0.060567
   3 C :    0.036000
   4 C :   -0.196084
   5 H :    0.022820
   6 C :    0.025050
   7 H :    0.049415
   8 H :    0.039949
   9 C :   -0.093240
  10 H :    0.034726
  11 H :    0.036249
  12 C :   -0.092098
  13 H :    0.053137
  14 H :    0.031404
  15 H :    0.039799
  16 S :    0.136588
  17 C :   -0.097959
  18 C :   -0.026589
  19 C :   -0.008141
  20 C :   -0.209808
  21 H :    0.001063
  22 C :    0.082477
  23 H :    0.009085
  24 H :    0.017346
  25 C :   -0.073897
  26 H :    0.029775
  27 H :    0.036136
  28 C :   -0.035957
  29 H :    0.022097
  30 H :    0.023996
  31 H :    0.042121
  32 H :    0.068937
  33 H :    0.061475
Sum of atomic charges:    0.0000000

LOEWDIN ATOMIC CHARGES
----------------------
   0 S :    0.429922
   1 C :   -0.206986
   2 C :   -0.061434
   3 C :   -0.061878
   4 C :   -0.215033
   5 H :    0.037077
   6 C :   -0.042418
   7 H :    0.040495
   8 H :    0.040478
   9 C :   -0.056198
  10 H :    0.029991
  11 H :    0.029711
  12 C :   -0.080751
  13 H :    0.038352
  14 H :    0.022125
  15 H :    0.023276
  16 S :    0.441045
  17 C :   -0.205349
  18 C :   -0.070107
  19 C :   -0.049043
  20 C :   -0.223625
  21 H :    0.024634
  22 C :   -0.037912
  23 H :    0.029882
  24 H :    0.031401
  25 C :   -0.047692
  26 H :    0.031694
  27 H :    0.028096
  28 C :   -0.078884
  29 H :    0.027882
  30 H :    0.026437
  31 H :    0.034272
  32 H :    0.036299
  33 H :    0.034244

  Mayer bond orders larger than 0.100000
B(  0-S ,  1-C ) :   1.1587 B(  0-S ,  4-C ) :   1.1583 B(  1-C ,  2-C ) :   1.5726
B(  1-C ,  4-C ) :   0.1105 B(  1-C , 32-H ) :   0.9642 B(  2-C ,  3-C ) :   1.2424
B(  2-C ,  6-C ) :   1.0326 B(  3-C ,  4-C ) :   1.5859 B(  3-C ,  5-H ) :   0.9878
B(  4-C , 20-C ) :   1.0302 B(  6-C ,  7-H ) :   0.9451 B(  6-C ,  8-H ) :   0.9380
B(  6-C ,  9-C ) :   1.0588 B(  9-C , 10-H ) :   0.9532 B(  9-C , 11-H ) :   0.9562
B(  9-C , 12-C ) :   1.0742 B( 12-C , 13-H ) :   0.9716 B( 12-C , 14-H ) :   0.9746
B( 12-C , 15-H ) :   0.9725 B( 16-S , 17-C ) :   1.1602 B( 16-S , 20-C ) :   1.1776
B( 17-C , 18-C ) :   1.5994 B( 17-C , 33-H ) :   0.9638 B( 18-C , 19-C ) :   1.2514
B( 18-C , 21-H ) :   0.9969 B( 19-C , 20-C ) :   1.5625 B( 19-C , 22-C ) :   1.0479
B( 22-C , 23-H ) :   0.9287 B( 22-C , 24-H ) :   0.9236 B( 22-C , 25-C ) :   1.0742
B( 25-C , 26-H ) :   0.9510 B( 25-C , 27-H ) :   0.9565 B( 25-C , 28-C ) :   1.0661
B( 28-C , 29-H ) :   0.9694 B( 28-C , 30-H ) :   0.9702 B( 28-C , 31-H ) :   0.9759

Dispersion correction           -0.015571697
FINAL SINGLE POINT ENERGY     -1339.876617541122

DIPOLE MOMENT
-------------
                                X             Y             Z
Electronic contribution:     -1.34831      23.92304      -9.65316
Nuclear contribution   :      1.52961     -24.39392       9.84538
                        -----------------------------------------
Total Dipole Moment    :      0.18130      -0.47088       0.19223
                        -----------------------------------------
Magnitude (a.u.)       :      0.53995
Magnitude (Debye)      :      1.37245

Rotational constants in cm-1:     0.018066     0.009505     0.008015
Rotational constants in MHz :   541.604352   284.954263   240.272741

                             ****ORCA TERMINATED NORMALLY****
TOTAL RUN TIME: 0 days 0 hours 0 minutes 35 seconds 767 msec
