                         Program Version 4.2.1 -  RELEASE  -
|  1> ! wB97X-D3 SP def2-SVP
|  2> %pal
|  3> nprocs 16
|  4> end
|  5>
|  6> * xyz 0 1
|  7> S 	 7.48546 	 -13.1169 	 65.0766
|  8> C 	 7.49094 	 -13.3005 	 66.8279
|  9> C 	 6.21824 	 -13.5075 	 67.2821
| 10> C 	 5.25556 	 -13.5029 	 66.2182
| 11> C 	 5.80373 	 -13.4016 	 64.9491
| 12> H 	 4.2383 	 -13.4916 	 66.436
| 13> C 	 5.8069 	 -13.6223 	 68.7789
| 14> H 	 4.78445 	 -13.3746 	 68.9106
| 15> H 	 6.30709 	 -12.8025 	 69.2847
| 16> C 	 6.09754 	 -14.9904 	 69.489
| 17> H 	 7.06178 	 -15.4328 	 69.3395
| 18> H 	 6.11682 	 -14.8616 	 70.5231
| 19> C 	 5.07995 	 -16.0115 	 69.1717
| 20> H 	 5.08329 	 -16.0829 	 68.081
| 21> H 	 5.291 	 -16.9565 	 69.6889
| 22> H 	 4.04304 	 -15.7179 	 69.4457
| 23> S 	 5.6009 	 -12.0238 	 62.6717
| 24> C 	 4.68449 	 -12.6039 	 61.316
| 25> C 	 3.80575 	 -13.6327 	 61.6746
| 26> C 	 4.05318 	 -14.0305 	 63.0346
| 27> C 	 5.14166 	 -13.3478 	 63.6479
| 28> H 	 2.97215 	 -13.9561 	 60.992
| 29> C 	 3.21616 	 -15.0539 	 63.7561
| 30> H 	 3.20679 	 -14.7981 	 64.808
| 31> H 	 3.7258 	 -15.9922 	 63.609
| 32> C 	 1.84234 	 -15.2483 	 63.2222
| 33> H 	 1.85053 	 -15.5521 	 62.1745
| 34> H 	 1.22982 	 -14.301 	 63.2973
| 35> C 	 0.953903 	 -16.2249 	 63.9537
| 36> H 	 -0.012621 	 -16.3332 	 63.3706
| 37> H 	 0.719373 	 -15.7589 	 64.9032
| 38> H 	 1.30478 	 -17.2796 	 64.0692
| 39> H 	 8.0831 	 -12.7055 	 67.4863
| 40> H 	 4.64627 	 -12.0975 	 60.3357
| 41> *
| 42>
| 43>                          ****END OF INPUT****

CARTESIAN COORDINATES (ANGSTROEM)
---------------------------------
  S      7.485460  -13.116900   65.076600
  C      7.490940  -13.300500   66.827900
  C      6.218240  -13.507500   67.282100
  C      5.255560  -13.502900   66.218200
  C      5.803730  -13.401600   64.949100
  H      4.238300  -13.491600   66.436000
  C      5.806900  -13.622300   68.778900
  H      4.784450  -13.374600   68.910600
  H      6.307090  -12.802500   69.284700
  C      6.097540  -14.990400   69.489000
  H      7.061780  -15.432800   69.339500
  H      6.116820  -14.861600   70.523100
  C      5.079950  -16.011500   69.171700
  H      5.083290  -16.082900   68.081000
  H      5.291000  -16.956500   69.688900
  H      4.043040  -15.717900   69.445700
  S      5.600900  -12.023800   62.671700
  C      4.684490  -12.603900   61.316000
  C      3.805750  -13.632700   61.674600
  C      4.053180  -14.030500   63.034600
  C      5.141660  -13.347800   63.647900
  H      2.972150  -13.956100   60.992000
  C      3.216160  -15.053900   63.756100
  H      3.206790  -14.798100   64.808000
  H      3.725800  -15.992200   63.609000
  C      1.842340  -15.248300   63.222200
  H      1.850530  -15.552100   62.174500
  H      1.229820  -14.301000   63.297300
  C      0.953903  -16.224900   63.953700
  H     -0.012621  -16.333200   63.370600
  H      0.719373  -15.758900   64.903200
  H      1.304780  -17.279600   64.069200
  H      8.083100  -12.705500   67.486300
  H      4.646270  -12.097500   60.335700

 Total Charge           Charge          ....    0
 Multiplicity           Mult            ....    1
 Number of Electrons    NEL             ....  134
 Basis Dimension        Dim             ....  322

ORBITAL ENERGIES
----------------

  NO   OCC          E(Eh)            E(eV)
   0   2.0000     -88.967563     -2420.9305
   1   2.0000     -88.965036     -2420.8617
   2   2.0000     -10.332085      -281.1503
   3   2.0000     -10.325828      -280.9801
   4   2.0000     -10.320506      -280.8352
   5   2.0000     -10.309220      -280.5281
   6   2.0000     -10.304956      -280.4121
   7   2.0000     -10.303480      -280.3719
   8   2.0000     -10.302744      -280.3519
   9   2.0000     -10.295837      -280.1640
  10   2.0000     -10.289674      -279.9963
  11   2.0000     -10.287035      -279.9244
  12   2.0000     -10.285397      -279.8799
  13   2.0000     -10.283463      -279.8273
  14   2.0000     -10.277298      -279.6595
  15   2.0000     -10.273958      -279.5686
  16   2.0000      -8.083118      -219.9528
  17   2.0000      -8.080328      -219.8769
  18   2.0000      -6.041476      -164.3969
  19   2.0000      -6.038837      -164.3251
  20   2.0000      -6.037489      -164.2884
  21   2.0000      -6.034675      -164.2119
  22   2.0000      -6.033996      -164.1934
  23   2.0000      -6.031096      -164.1145
  24   2.0000      -1.012872       -27.5617
  25   2.0000      -0.987824       -26.8800
  26   2.0000      -0.919836       -25.0300
  27   2.0000      -0.913259       -24.8510
  28   2.0000      -0.874530       -23.7972
  29   2.0000      -0.853707       -23.2306
  30   2.0000      -0.846065       -23.0226
  31   2.0000      -0.817258       -22.2387
  32   2.0000      -0.784509       -21.3476
  33   2.0000      -0.772819       -21.0295
  34   2.0000      -0.704565       -19.1722
  35   2.0000      -0.702671       -19.1206
  36   2.0000      -0.695146       -18.9159
  37   2.0000      -0.651714       -17.7340
  38   2.0000      -0.636232       -17.3128
  39   2.0000      -0.623061       -16.9543
  40   2.0000      -0.597444       -16.2573
  41   2.0000      -0.580662       -15.8006
  42   2.0000      -0.572711       -15.5843
  43   2.0000      -0.561391       -15.2762
  44   2.0000      -0.542001       -14.7486
  45   2.0000      -0.524030       -14.2596
  46   2.0000      -0.515883       -14.0379
  47   2.0000      -0.513979       -13.9861
  48   2.0000      -0.508286       -13.8312
  49   2.0000      -0.501481       -13.6460
  50   2.0000      -0.486114       -13.2278
  51   2.0000      -0.479787       -13.0557
  52   2.0000      -0.472574       -12.8594
  53   2.0000      -0.468978       -12.7615
  54   2.0000      -0.458487       -12.4761
  55   2.0000      -0.454284       -12.3617
  56   2.0000      -0.443111       -12.0577
  57   2.0000      -0.436817       -11.8864
  58   2.0000      -0.430349       -11.7104
  59   2.0000      -0.425252       -11.5717
  60   2.0000      -0.420420       -11.4402
  61   2.0000      -0.419080       -11.4037
  62   2.0000      -0.411286       -11.1917
  63   2.0000      -0.344492        -9.3741
  64   2.0000      -0.332526        -9.0485
  65   2.0000      -0.327985        -8.9249
  66   2.0000      -0.290853        -7.9145
  67   0.0000       0.018970         0.5162
  68   0.0000       0.071040         1.9331
  69   0.0000       0.103983         2.8295
  70   0.0000       0.126292         3.4366
  71   0.0000       0.129565         3.5256

MULLIKEN ATOMIC CHARGES
-----------------------
   0 S :    0.104118
   1 C :   -0.083320
   2 C :   -0.152471
   3 C :    0.047774
   4 C :   -0.136518
   5 H :   -0.010928
   6 C :    0.072779
   7 H :    0.005499
   8 H :    0.023004
   9 C :   -0.012159
  10 H :    0.021986
  11 H :    0.005019
  12 C :   -0.060052
  13 H :    0.032585
  14 H :    0.038725
  15 H :    0.019852
  16 S :    0.119771
  17 C :   -0.101885
  18 C :   -0.062259
  19 C :   -0.063637
  20 C :   -0.146549
  21 H :    0.050477
  22 C :    0.145692
  23 H :    0.011628
  24 H :    0.033640
  25 C :   -0.145739
  26 H :    0.031545
  27 H :    0.035115
  28 C :   -0.050719
  29 H :    0.036676
  30 H :    0.029556
  31 H :    0.038314
  32 H :    0.055597
  33 H :    0.066882
Sum of atomic charges:   -0.0000000

LOEWDIN ATOMIC CHARGES
----------------------
   0 S :    0.422851
   1 C :   -0.216049
   2 C :   -0.051057
   3 C :   -0.069254
   4 C :   -0.201180
   5 H :    0.016418
   6 C :   -0.020939
   7 H :    0.023601
   8 H :    0.031154
   9 C :   -0.037386
  10 H :    0.025828
  11 H :    0.015392
  12 C :   -0.065063
  13 H :    0.026274
  14 H :    0.028437
  15 H :    0.021498
  16 S :    0.440765
  17 C :   -0.195621
  18 C :   -0.081414
  19 C :   -0.047174
  20 C :   -0.223301
  21 H :    0.045675
  22 C :   -0.034242
  23 H :    0.028333
  24 H :    0.038857
  25 C :   -0.052443
  26 H :    0.020749
  27 H :    0.031545
  28 C :   -0.067949
  29 H :    0.033932
  30 H :    0.022188
  31 H :    0.025433
  32 H :    0.030400
  33 H :    0.033740

  Mayer bond orders larger than 0.100000
B(  0-S ,  1-C ) :   1.1306 B(  0-S ,  4-C ) :   1.1806 B(  1-C ,  2-C ) :   1.6230
B(  1-C , 32-H ) :   0.9518 B(  2-C ,  3-C ) :   1.2767 B(  2-C ,  6-C ) :   1.0147
B(  3-C ,  4-C ) :   1.5217 B(  3-C ,  5-H ) :   1.0033 B(  4-C , 20-C ) :   1.0378
B(  6-C ,  7-H ) :   0.9457 B(  6-C ,  8-H ) :   0.9398 B(  6-C ,  9-C ) :   1.0611
B(  9-C , 10-H ) :   0.9551 B(  9-C , 11-H ) :   0.9493 B(  9-C , 12-C ) :   1.0877
B( 12-C , 13-H ) :   0.9776 B( 12-C , 14-H ) :   0.9705 B( 12-C , 15-H ) :   0.9731
B( 16-S , 17-C ) :   1.1856 B( 16-S , 20-C ) :   1.1696 B( 17-C , 18-C ) :   1.5602
B( 17-C , 20-C ) :   0.1075 B( 17-C , 33-H ) :   0.9628 B( 18-C , 19-C ) :   1.2838
B( 18-C , 21-H ) :   0.9789 B( 19-C , 20-C ) :   1.5396 B( 19-C , 22-C ) :   1.0367
B( 22-C , 23-H ) :   0.9354 B( 22-C , 24-H ) :   0.9093 B( 22-C , 25-C ) :   1.0913
B( 25-C , 26-H ) :   0.9401 B( 25-C , 27-H ) :   0.9549 B( 25-C , 28-C ) :   1.0941
B( 28-C , 29-H ) :   0.9719 B( 28-C , 30-H ) :   0.9741 B( 28-C , 31-H ) :   0.9726

Dispersion correction           -0.013532805
FINAL SINGLE POINT ENERGY     -1339.860665001976

DIPOLE MOMENT
-------------
                                X             Y             Z
Electronic contribution:     19.21432      17.70956     -16.52369
Nuclear contribution   :    -19.90807     -17.72961      16.81954
                        -----------------------------------------
Total Dipole Moment    :     -0.69375      -0.02005       0.29585
                        -----------------------------------------
Magnitude (a.u.)       :      0.75447
Magnitude (Debye)      :      1.91770

Rotational constants in cm-1:     0.016894     0.009227     0.006224
Rotational constants in MHz :   506.477711   276.604844   186.591198

                             ****ORCA TERMINATED NORMALLY****
TOTAL RUN TIME: 0 days 0 hours 0 minutes 30 seconds 244 msec
