                         Program Version 4.2.1 -  RELEASE  -
|  1> ! wB97X-D3 SP def2-SVP
|  2> %pal
|  3> nprocs 16
|  4> end
|  5>
|  6> * xyz 0 1
|  7> S 	 52.8586 	 0.480708 	 80.7999
|  8> C 	 51.3032 	 0.233266 	 81.5825
|  9> C 	 51.4334 	 0.0376699 	 82.8996
| 10> C 	 52.8304 	 0.0551401 	 83.2459
| 11> C 	 53.733 	 0.217535 	 82.2593
| 12> H 	 53.3328 	 0.0160226 	 84.3027
| 13> C 	 50.319 	 -0.19998 	 83.9121
| 14> H 	 50.8541 	 -0.531526 	 84.7946
| 15> H 	 49.6244 	 -0.961522 	 83.4394
| 16> C 	 49.449 	 0.987908 	 84.164
| 17> H 	 50.0157 	 1.71447 	 84.6692
| 18> H 	 49.0847 	 1.38864 	 83.2548
| 19> C 	 48.1853 	 0.612979 	 84.9794
| 20> H 	 47.5253 	 -0.0942574 	 84.4531
| 21> H 	 48.4593 	 0.146509 	 85.8767
| 22> H 	 47.5874 	 1.41964 	 85.304
| 23> S 	 55.6871 	 -1.747 	 82.4547
| 24> C 	 57.3387 	 -1.41611 	 82.1482
| 25> C 	 57.527 	 -0.0920042 	 81.8939
| 26> C 	 56.3367 	 0.668889 	 81.9827
| 27> C 	 55.1898 	 -0.058901 	 82.381
| 28> H 	 58.4646 	 0.281655 	 81.5532
| 29> C 	 56.3184 	 2.16208 	 81.4946
| 30> H 	 55.2537 	 2.43427 	 81.5358
| 31> H 	 56.6916 	 2.26228 	 80.4619
| 32> C 	 57.0365 	 3.19325 	 82.3517
| 33> H 	 58.0331 	 2.97371 	 82.2013
| 34> H 	 56.7296 	 3.11994 	 83.4009
| 35> C 	 56.7936 	 4.65523 	 82.051
| 36> H 	 57.3126 	 5.40126 	 82.5883
| 37> H 	 55.6662 	 4.77737 	 81.9412
| 38> H 	 57.0007 	 4.81902 	 81.0144
| 39> H 	 50.3695 	 0.358696 	 81.0717
| 40> H 	 58.0849 	 -2.29982 	 82.1838
| 41> *
| 42>
| 43>                          ****END OF INPUT****

CARTESIAN COORDINATES (ANGSTROEM)
---------------------------------
  S     52.858600    0.480708   80.799900
  C     51.303200    0.233266   81.582500
  C     51.433400    0.037670   82.899600
  C     52.830400    0.055140   83.245900
  C     53.733000    0.217535   82.259300
  H     53.332800    0.016023   84.302700
  C     50.319000   -0.199980   83.912100
  H     50.854100   -0.531526   84.794600
  H     49.624400   -0.961522   83.439400
  C     49.449000    0.987908   84.164000
  H     50.015700    1.714470   84.669200
  H     49.084700    1.388640   83.254800
  C     48.185300    0.612979   84.979400
  H     47.525300   -0.094257   84.453100
  H     48.459300    0.146509   85.876700
  H     47.587400    1.419640   85.304000
  S     55.687100   -1.747000   82.454700
  C     57.338700   -1.416110   82.148200
  C     57.527000   -0.092004   81.893900
  C     56.336700    0.668889   81.982700
  C     55.189800   -0.058901   82.381000
  H     58.464600    0.281655   81.553200
  C     56.318400    2.162080   81.494600
  H     55.253700    2.434270   81.535800
  H     56.691600    2.262280   80.461900
  C     57.036500    3.193250   82.351700
  H     58.033100    2.973710   82.201300
  H     56.729600    3.119940   83.400900
  C     56.793600    4.655230   82.051000
  H     57.312600    5.401260   82.588300
  H     55.666200    4.777370   81.941200
  H     57.000700    4.819020   81.014400
  H     50.369500    0.358696   81.071700
  H     58.084900   -2.299820   82.183800

 Total Charge           Charge          ....    0
 Multiplicity           Mult            ....    1
 Number of Electrons    NEL             ....  134
 Basis Dimension        Dim             ....  322

ORBITAL ENERGIES
----------------

  NO   OCC          E(Eh)            E(eV)
   0   2.0000     -88.963534     -2420.8208
   1   2.0000     -88.961717     -2420.7714
   2   2.0000     -10.332013      -281.1484
   3   2.0000     -10.324810      -280.9524
   4   2.0000     -10.324469      -280.9431
   5   2.0000     -10.310662      -280.5674
   6   2.0000     -10.310610      -280.5660
   7   2.0000     -10.298016      -280.2233
   8   2.0000     -10.295251      -280.1480
   9   2.0000     -10.294855      -280.1372
  10   2.0000     -10.294035      -280.1149
  11   2.0000     -10.291504      -280.0461
  12   2.0000     -10.279051      -279.7072
  13   2.0000     -10.274767      -279.5906
  14   2.0000     -10.273121      -279.5458
  15   2.0000     -10.271473      -279.5010
  16   2.0000      -8.079005      -219.8409
  17   2.0000      -8.076951      -219.7850
  18   2.0000      -6.037404      -164.2861
  19   2.0000      -6.035547      -164.2356
  20   2.0000      -6.033234      -164.1726
  21   2.0000      -6.031381      -164.1222
  22   2.0000      -6.029976      -164.0840
  23   2.0000      -6.027574      -164.0186
  24   2.0000      -1.011296       -27.5188
  25   2.0000      -0.992234       -27.0001
  26   2.0000      -0.919396       -25.0180
  27   2.0000      -0.909562       -24.7504
  28   2.0000      -0.873219       -23.7615
  29   2.0000      -0.850937       -23.1552
  30   2.0000      -0.844427       -22.9780
  31   2.0000      -0.816474       -22.2174
  32   2.0000      -0.784880       -21.3577
  33   2.0000      -0.775136       -21.0925
  34   2.0000      -0.709070       -19.2948
  35   2.0000      -0.700559       -19.0632
  36   2.0000      -0.690926       -18.8010
  37   2.0000      -0.658684       -17.9237
  38   2.0000      -0.639426       -17.3997
  39   2.0000      -0.615730       -16.7549
  40   2.0000      -0.597632       -16.2624
  41   2.0000      -0.576791       -15.6953
  42   2.0000      -0.575383       -15.6570
  43   2.0000      -0.568533       -15.4706
  44   2.0000      -0.532596       -14.4927
  45   2.0000      -0.521852       -14.2003
  46   2.0000      -0.518329       -14.1045
  47   2.0000      -0.514692       -14.0055
  48   2.0000      -0.503317       -13.6960
  49   2.0000      -0.499746       -13.5988
  50   2.0000      -0.495600       -13.4860
  51   2.0000      -0.479496       -13.0477
  52   2.0000      -0.468347       -12.7444
  53   2.0000      -0.465590       -12.6693
  54   2.0000      -0.458429       -12.4745
  55   2.0000      -0.452597       -12.3158
  56   2.0000      -0.444270       -12.0892
  57   2.0000      -0.434729       -11.8296
  58   2.0000      -0.431840       -11.7510
  59   2.0000      -0.425720       -11.5844
  60   2.0000      -0.414649       -11.2832
  61   2.0000      -0.412346       -11.2205
  62   2.0000      -0.409172       -11.1341
  63   2.0000      -0.340009        -9.2521
  64   2.0000      -0.330803        -9.0016
  65   2.0000      -0.327206        -8.9037
  66   2.0000      -0.311092        -8.4652
  67   0.0000       0.039747         1.0816
  68   0.0000       0.059894         1.6298
  69   0.0000       0.113842         3.0978
  70   0.0000       0.122996         3.3469
  71   0.0000       0.128034         3.4840

MULLIKEN ATOMIC CHARGES
-----------------------
   0 S :    0.107493
   1 C :   -0.137823
   2 C :   -0.054358
   3 C :   -0.038634
   4 C :   -0.146252
   5 H :    0.043648
   6 C :    0.073933
   7 H :    0.025028
   8 H :    0.037887
   9 C :   -0.034353
  10 H :    0.018385
  11 H :    0.016175
  12 C :   -0.021291
  13 H :    0.026786
  14 H :    0.009082
  15 H :    0.023092
  16 S :    0.109883
  17 C :   -0.125287
  18 C :   -0.001615
  19 C :   -0.057295
  20 C :   -0.149604
  21 H :    0.010666
  22 C :    0.035690
  23 H :    0.016161
  24 H :    0.040162
  25 C :   -0.048751
  26 H :    0.007811
  27 H :    0.033940
  28 C :   -0.021361
  29 H :    0.042219
  30 H :    0.023457
  31 H :   -0.002708
  32 H :    0.041061
  33 H :    0.096775
Sum of atomic charges:   -0.0000000

LOEWDIN ATOMIC CHARGES
----------------------
   0 S :    0.406271
   1 C :   -0.179951
   2 C :   -0.070584
   3 C :   -0.079391
   4 C :   -0.218014
   5 H :    0.046395
   6 C :   -0.026240
   7 H :    0.031292
   8 H :    0.041246
   9 C :   -0.030191
  10 H :    0.019391
  11 H :    0.018311
  12 C :   -0.059056
  13 H :    0.026237
  14 H :    0.016698
  15 H :    0.021365
  16 S :    0.428535
  17 C :   -0.197948
  18 C :   -0.080289
  19 C :   -0.046117
  20 C :   -0.206444
  21 H :    0.028438
  22 C :   -0.028632
  23 H :    0.024104
  24 H :    0.033262
  25 C :   -0.041126
  26 H :    0.009396
  27 H :    0.028518
  28 C :   -0.066612
  29 H :    0.023796
  30 H :    0.034276
  31 H :    0.017549
  32 H :    0.025320
  33 H :    0.050195

  Mayer bond orders larger than 0.100000
B(  0-S ,  1-C ) :   1.1428 B(  0-S ,  4-C ) :   1.1266 B(  1-C ,  2-C ) :   1.6303
B(  1-C , 32-H ) :   0.9706 B(  2-C ,  3-C ) :   1.2197 B(  2-C ,  6-C ) :   1.0056
B(  3-C ,  4-C ) :   1.6205 B(  3-C ,  5-H ) :   0.9767 B(  4-C , 20-C ) :   1.0193
B(  6-C ,  7-H ) :   0.9359 B(  6-C ,  8-H ) :   0.9411 B(  6-C ,  9-C ) :   1.0794
B(  9-C , 10-H ) :   0.9510 B(  9-C , 11-H ) :   0.9568 B(  9-C , 12-C ) :   1.0842
B( 12-C , 13-H ) :   0.9750 B( 12-C , 14-H ) :   0.9719 B( 12-C , 15-H ) :   0.9737
B( 16-S , 17-C ) :   1.1982 B( 16-S , 20-C ) :   1.1515 B( 17-C , 18-C ) :   1.5499
B( 17-C , 33-H ) :   0.9536 B( 18-C , 19-C ) :   1.2818 B( 18-C , 21-H ) :   1.0029
B( 19-C , 20-C ) :   1.5584 B( 19-C , 22-C ) :   1.0348 B( 22-C , 23-H ) :   0.9328
B( 22-C , 24-H ) :   0.9422 B( 22-C , 25-C ) :   1.0674 B( 25-C , 26-H ) :   0.9538
B( 25-C , 27-H ) :   0.9554 B( 25-C , 28-C ) :   1.0928 B( 28-C , 29-H ) :   0.9749
B( 28-C , 30-H ) :   0.9689 B( 28-C , 31-H ) :   0.9646

Dispersion correction           -0.013241918
FINAL SINGLE POINT ENERGY     -1339.858084524003

DIPOLE MOMENT
-------------
                                X             Y             Z
Electronic contribution:      9.74326     -17.34620      -9.68162
Nuclear contribution   :     -9.77757      17.53861       9.79235
                        -----------------------------------------
Total Dipole Moment    :     -0.03432       0.19241       0.11074
                        -----------------------------------------
Magnitude (a.u.)       :      0.22463
Magnitude (Debye)      :      0.57097

Rotational constants in cm-1:     0.019905     0.007064     0.005973
Rotational constants in MHz :   596.727279   211.773306   179.067525

                             ****ORCA TERMINATED NORMALLY****
TOTAL RUN TIME: 0 days 0 hours 0 minutes 28 seconds 464 msec
