                         Program Version 4.2.1 -  RELEASE  -
|  1> ! wB97X-D3 SP def2-SVP
|  2> %pal
|  3> nprocs 16
|  4> end
|  5>
|  6> * xyz 0 1
|  7> S 	 -54.6563 	 45.0873 	 106.144
|  8> C 	 -53.7941 	 46.6044 	 106.311
|  9> C 	 -54.0911 	 47.2593 	 107.459
| 10> C 	 -55.0214 	 46.4619 	 108.239
| 11> C 	 -55.4096 	 45.2758 	 107.688
| 12> H 	 -55.4133 	 46.7177 	 109.166
| 13> C 	 -53.6011 	 48.6136 	 107.865
| 14> H 	 -54.352 	 49.4764 	 107.753
| 15> H 	 -52.9811 	 49.0918 	 107.083
| 16> C 	 -52.9439 	 48.7438 	 109.262
| 17> H 	 -53.5567 	 48.0076 	 109.837
| 18> H 	 -51.961 	 48.346 	 109.191
| 19> C 	 -52.9067 	 50.094 	 109.924
| 20> H 	 -52.6171 	 50.8903 	 109.228
| 21> H 	 -53.8517 	 50.4886 	 110.328
| 22> H 	 -52.0565 	 50.1972 	 110.688
| 23> S 	 -57.6708 	 43.7994 	 107.023
| 24> C 	 -58.3578 	 42.62 	 108.149
| 25> C 	 -57.7945 	 42.8652 	 109.361
| 26> C 	 -56.8134 	 43.8805 	 109.394
| 27> C 	 -56.4199 	 44.2833 	 108.141
| 28> H 	 -58.1817 	 42.2964 	 110.159
| 29> C 	 -56.2498 	 44.3633 	 110.723
| 30> H 	 -56.985 	 44.2841 	 111.556
| 31> H 	 -56.0028 	 45.4423 	 110.631
| 32> C 	 -54.8794 	 43.7604 	 111.122
| 33> H 	 -54.2015 	 43.7999 	 110.297
| 34> H 	 -54.9814 	 42.6882 	 111.342
| 35> C 	 -54.1757 	 44.5631 	 112.21
| 36> H 	 -53.5623 	 43.9278 	 112.792
| 37> H 	 -54.9154 	 44.9775 	 112.847
| 38> H 	 -53.7062 	 45.4332 	 111.794
| 39> H 	 -53.163 	 47.0161 	 105.489
| 40> H 	 -59.2683 	 42.053 	 107.993
| 41> *
| 42>
| 43>                          ****END OF INPUT****

CARTESIAN COORDINATES (ANGSTROEM)
---------------------------------
  S    -54.656300   45.087300  106.144000
  C    -53.794100   46.604400  106.311000
  C    -54.091100   47.259300  107.459000
  C    -55.021400   46.461900  108.239000
  C    -55.409600   45.275800  107.688000
  H    -55.413300   46.717700  109.166000
  C    -53.601100   48.613600  107.865000
  H    -54.352000   49.476400  107.753000
  H    -52.981100   49.091800  107.083000
  C    -52.943900   48.743800  109.262000
  H    -53.556700   48.007600  109.837000
  H    -51.961000   48.346000  109.191000
  C    -52.906700   50.094000  109.924000
  H    -52.617100   50.890300  109.228000
  H    -53.851700   50.488600  110.328000
  H    -52.056500   50.197200  110.688000
  S    -57.670800   43.799400  107.023000
  C    -58.357800   42.620000  108.149000
  C    -57.794500   42.865200  109.361000
  C    -56.813400   43.880500  109.394000
  C    -56.419900   44.283300  108.141000
  H    -58.181700   42.296400  110.159000
  C    -56.249800   44.363300  110.723000
  H    -56.985000   44.284100  111.556000
  H    -56.002800   45.442300  110.631000
  C    -54.879400   43.760400  111.122000
  H    -54.201500   43.799900  110.297000
  H    -54.981400   42.688200  111.342000
  C    -54.175700   44.563100  112.210000
  H    -53.562300   43.927800  112.792000
  H    -54.915400   44.977500  112.847000
  H    -53.706200   45.433200  111.794000
  H    -53.163000   47.016100  105.489000
  H    -59.268300   42.053000  107.993000

 Total Charge           Charge          ....    0
 Multiplicity           Mult            ....    1
 Number of Electrons    NEL             ....  134
 Basis Dimension        Dim             ....  322

ORBITAL ENERGIES
----------------

  NO   OCC          E(Eh)            E(eV)
   0   2.0000     -88.965020     -2420.8613
   1   2.0000     -88.961812     -2420.7740
   2   2.0000     -10.331826      -281.1433
   3   2.0000     -10.330259      -281.1006
   4   2.0000     -10.317544      -280.7546
   5   2.0000     -10.315848      -280.7085
   6   2.0000     -10.305650      -280.4310
   7   2.0000     -10.302635      -280.3489
   8   2.0000     -10.300987      -280.3041
   9   2.0000     -10.297662      -280.2136
  10   2.0000     -10.292132      -280.0631
  11   2.0000     -10.290076      -280.0072
  12   2.0000     -10.288433      -279.9625
  13   2.0000     -10.287813      -279.9456
  14   2.0000     -10.279984      -279.7326
  15   2.0000     -10.267890      -279.4035
  16   2.0000      -8.080399      -219.8788
  17   2.0000      -8.076546      -219.7740
  18   2.0000      -6.038885      -164.3264
  19   2.0000      -6.035167      -164.2252
  20   2.0000      -6.034851      -164.2166
  21   2.0000      -6.031127      -164.1153
  22   2.0000      -6.031088      -164.1142
  23   2.0000      -6.027077      -164.0051
  24   2.0000      -1.012589       -27.5540
  25   2.0000      -0.991417       -26.9778
  26   2.0000      -0.913575       -24.8596
  27   2.0000      -0.908463       -24.7205
  28   2.0000      -0.874282       -23.7904
  29   2.0000      -0.853007       -23.2115
  30   2.0000      -0.846298       -23.0289
  31   2.0000      -0.823001       -22.3950
  32   2.0000      -0.783785       -21.3279
  33   2.0000      -0.774171       -21.0663
  34   2.0000      -0.712606       -19.3910
  35   2.0000      -0.699461       -19.0333
  36   2.0000      -0.691975       -18.8296
  37   2.0000      -0.665258       -18.1026
  38   2.0000      -0.646905       -17.6032
  39   2.0000      -0.630363       -17.1531
  40   2.0000      -0.598830       -16.2950
  41   2.0000      -0.575167       -15.6511
  42   2.0000      -0.566608       -15.4182
  43   2.0000      -0.559003       -15.2112
  44   2.0000      -0.527244       -14.3470
  45   2.0000      -0.525555       -14.3011
  46   2.0000      -0.520213       -14.1557
  47   2.0000      -0.515721       -14.0335
  48   2.0000      -0.506042       -13.7701
  49   2.0000      -0.497401       -13.5350
  50   2.0000      -0.492825       -13.4105
  51   2.0000      -0.490246       -13.3403
  52   2.0000      -0.475641       -12.9429
  53   2.0000      -0.469475       -12.7751
  54   2.0000      -0.460738       -12.5373
  55   2.0000      -0.457091       -12.4381
  56   2.0000      -0.438097       -11.9212
  57   2.0000      -0.433883       -11.8066
  58   2.0000      -0.427884       -11.6433
  59   2.0000      -0.425719       -11.5844
  60   2.0000      -0.421011       -11.4563
  61   2.0000      -0.414689       -11.2842
  62   2.0000      -0.407085       -11.0773
  63   2.0000      -0.355715        -9.6795
  64   2.0000      -0.330881        -9.0037
  65   2.0000      -0.325745        -8.8640
  66   2.0000      -0.296224        -8.0607
  67   0.0000       0.026369         0.7175
  68   0.0000       0.075822         2.0632
  69   0.0000       0.106603         2.9008
  70   0.0000       0.119123         3.2415
  71   0.0000       0.125274         3.4089

MULLIKEN ATOMIC CHARGES
-----------------------
   0 S :    0.105301
   1 C :   -0.142755
   2 C :   -0.035086
   3 C :    0.032432
   4 C :   -0.139511
   5 H :   -0.023554
   6 C :    0.021868
   7 H :    0.037650
   8 H :    0.007370
   9 C :   -0.053199
  10 H :    0.032479
  11 H :    0.029684
  12 C :   -0.072815
  13 H :    0.022633
  14 H :    0.040592
  15 H :    0.046028
  16 S :    0.084670
  17 C :   -0.085038
  18 C :   -0.028122
  19 C :   -0.022632
  20 C :   -0.113292
  21 H :    0.001113
  22 C :    0.033444
  23 H :    0.036166
  24 H :    0.008295
  25 C :   -0.076456
  26 H :    0.027845
  27 H :    0.026626
  28 C :    0.003292
  29 H :    0.030092
  30 H :    0.006653
  31 H :    0.030912
  32 H :    0.063814
  33 H :    0.063503
Sum of atomic charges:    0.0000000

LOEWDIN ATOMIC CHARGES
----------------------
   0 S :    0.411273
   1 C :   -0.190137
   2 C :   -0.066348
   3 C :   -0.057805
   4 C :   -0.192952
   5 H :    0.013040
   6 C :   -0.049635
   7 H :    0.041284
   8 H :    0.029255
   9 C :   -0.044362
  10 H :    0.027527
  11 H :    0.024158
  12 C :   -0.078119
  13 H :    0.025005
  14 H :    0.028070
  15 H :    0.039383
  16 S :    0.394565
  17 C :   -0.178390
  18 C :   -0.067379
  19 C :   -0.060216
  20 C :   -0.192490
  21 H :    0.025584
  22 C :   -0.033940
  23 H :    0.033946
  24 H :    0.027801
  25 C :   -0.038859
  26 H :    0.022665
  27 H :    0.022145
  28 C :   -0.055643
  29 H :    0.024813
  30 H :    0.017640
  31 H :    0.025406
  32 H :    0.037944
  33 H :    0.034771

  Mayer bond orders larger than 0.100000
B(  0-S ,  1-C ) :   1.1365 B(  0-S ,  4-C ) :   1.1494 B(  1-C ,  2-C ) :   1.6398
B(  1-C , 32-H ) :   0.9585 B(  2-C ,  3-C ) :   1.2081 B(  2-C ,  6-C ) :   1.0359
B(  3-C ,  4-C ) :   1.6055 B(  3-C ,  5-H ) :   0.9989 B(  4-C , 20-C ) :   1.0153
B(  6-C ,  7-H ) :   0.9389 B(  6-C ,  8-H ) :   0.9296 B(  6-C ,  9-C ) :   1.0340
B(  9-C , 10-H ) :   0.9645 B(  9-C , 11-H ) :   0.9540 B(  9-C , 12-C ) :   1.0819
B( 12-C , 13-H ) :   0.9708 B( 12-C , 14-H ) :   0.9732 B( 12-C , 15-H ) :   0.9731
B( 16-S , 17-C ) :   1.1389 B( 16-S , 20-C ) :   1.1524 B( 17-C , 18-C ) :   1.6093
B( 17-C , 20-C ) :   0.1051 B( 17-C , 33-H ) :   0.9688 B( 18-C , 19-C ) :   1.2404
B( 18-C , 21-H ) :   1.0011 B( 19-C , 20-C ) :   1.5861 B( 19-C , 22-C ) :   1.0475
B( 22-C , 23-H ) :   0.9328 B( 22-C , 24-H ) :   0.9353 B( 22-C , 25-C ) :   1.0657
B( 25-C , 26-H ) :   0.9586 B( 25-C , 27-H ) :   0.9577 B( 25-C , 28-C ) :   1.0764
B( 28-C , 29-H ) :   0.9717 B( 28-C , 30-H ) :   0.9731 B( 28-C , 31-H ) :   0.9720

Dispersion correction           -0.014158368
FINAL SINGLE POINT ENERGY     -1339.866648810632

DIPOLE MOMENT
-------------
                                X             Y             Z
Electronic contribution:    -14.17066     -16.30197     -24.17698
Nuclear contribution   :     14.24070      16.73006      24.75411
                        -----------------------------------------
Total Dipole Moment    :      0.07004       0.42809       0.57713
                        -----------------------------------------
Magnitude (a.u.)       :      0.72197
Magnitude (Debye)      :      1.83511

Rotational constants in cm-1:     0.018052     0.009117     0.006703
Rotational constants in MHz :   541.176664   273.333435   200.959227

                             ****ORCA TERMINATED NORMALLY****
TOTAL RUN TIME: 0 days 0 hours 0 minutes 31 seconds 94 msec
