                         Program Version 4.2.1 -  RELEASE  -
|  1> ! wB97X-D3 SP def2-SVP
|  2> %pal
|  3> nprocs 16
|  4> end
|  5>
|  6> * xyz 0 1
|  7> S 	 -44.1701 	 21.0182 	 87.9835
|  8> C 	 -44.5054 	 19.468 	 88.7469
|  9> C 	 -43.498 	 19.0562 	 89.6288
| 10> C 	 -42.464 	 20.0591 	 89.626
| 11> C 	 -42.6634 	 21.1648 	 88.7772
| 12> H 	 -41.503 	 20.0314 	 90.2389
| 13> C 	 -43.5021 	 17.8739 	 90.654
| 14> H 	 -42.8405 	 17.1333 	 90.1893
| 15> H 	 -44.4256 	 17.41 	 90.4555
| 16> C 	 -43.1342 	 18.3108 	 92.078
| 17> H 	 -43.2683 	 17.5271 	 92.7635
| 18> H 	 -42.1123 	 18.6364 	 92.1109
| 19> C 	 -43.9667 	 19.4716 	 92.6852
| 20> H 	 -43.7505 	 19.5238 	 93.7213
| 21> H 	 -43.7797 	 20.364 	 92.1081
| 22> H 	 -45.0367 	 19.27 	 92.5351
| 23> S 	 -42.8814 	 23.8662 	 88.5183
| 24> C 	 -41.4137 	 24.8382 	 88.4682
| 25> C 	 -40.3064 	 24.0959 	 88.7854
| 26> C 	 -40.5667 	 22.652 	 88.8037
| 27> C 	 -41.9137 	 22.3739 	 88.5898
| 28> H 	 -39.4045 	 24.6141 	 88.8782
| 29> C 	 -39.5461 	 21.6263 	 89.0565
| 30> H 	 -39.9042 	 20.6575 	 88.8264
| 31> H 	 -39.4155 	 21.5992 	 90.0413
| 32> C 	 -38.1344 	 21.7662 	 88.4164
| 33> H 	 -37.4263 	 21.0196 	 88.7716
| 34> H 	 -37.6277 	 22.6309 	 88.707
| 35> C 	 -38.1863 	 21.5807 	 86.8226
| 36> H 	 -38.8462 	 22.3326 	 86.3926
| 37> H 	 -38.4884 	 20.5862 	 86.5308
| 38> H 	 -37.1716 	 21.7993 	 86.4668
| 39> H 	 -45.4571 	 19.0195 	 88.6551
| 40> H 	 -41.3809 	 25.8775 	 88.3521
| 41> *
| 42>
| 43>                          ****END OF INPUT****

CARTESIAN COORDINATES (ANGSTROEM)
---------------------------------
  S    -44.170100   21.018200   87.983500
  C    -44.505400   19.468000   88.746900
  C    -43.498000   19.056200   89.628800
  C    -42.464000   20.059100   89.626000
  C    -42.663400   21.164800   88.777200
  H    -41.503000   20.031400   90.238900
  C    -43.502100   17.873900   90.654000
  H    -42.840500   17.133300   90.189300
  H    -44.425600   17.410000   90.455500
  C    -43.134200   18.310800   92.078000
  H    -43.268300   17.527100   92.763500
  H    -42.112300   18.636400   92.110900
  C    -43.966700   19.471600   92.685200
  H    -43.750500   19.523800   93.721300
  H    -43.779700   20.364000   92.108100
  H    -45.036700   19.270000   92.535100
  S    -42.881400   23.866200   88.518300
  C    -41.413700   24.838200   88.468200
  C    -40.306400   24.095900   88.785400
  C    -40.566700   22.652000   88.803700
  C    -41.913700   22.373900   88.589800
  H    -39.404500   24.614100   88.878200
  C    -39.546100   21.626300   89.056500
  H    -39.904200   20.657500   88.826400
  H    -39.415500   21.599200   90.041300
  C    -38.134400   21.766200   88.416400
  H    -37.426300   21.019600   88.771600
  H    -37.627700   22.630900   88.707000
  C    -38.186300   21.580700   86.822600
  H    -38.846200   22.332600   86.392600
  H    -38.488400   20.586200   86.530800
  H    -37.171600   21.799300   86.466800
  H    -45.457100   19.019500   88.655100
  H    -41.380900   25.877500   88.352100

 Total Charge           Charge          ....    0
 Multiplicity           Mult            ....    1
 Number of Electrons    NEL             ....  134
 Basis Dimension        Dim             ....  322

ORBITAL ENERGIES
----------------

  NO   OCC          E(Eh)            E(eV)
   0   2.0000     -88.964732     -2420.8534
   1   2.0000     -88.962927     -2420.8043
   2   2.0000     -10.327115      -281.0151
   3   2.0000     -10.326297      -280.9928
   4   2.0000     -10.314908      -280.6829
   5   2.0000     -10.313214      -280.6368
   6   2.0000     -10.308395      -280.5057
   7   2.0000     -10.307164      -280.4722
   8   2.0000     -10.300375      -280.2875
   9   2.0000     -10.297403      -280.2066
  10   2.0000     -10.293832      -280.1094
  11   2.0000     -10.286610      -279.9129
  12   2.0000     -10.285552      -279.8841
  13   2.0000     -10.277679      -279.6699
  14   2.0000     -10.277003      -279.6515
  15   2.0000     -10.271415      -279.4994
  16   2.0000      -8.080125      -219.8714
  17   2.0000      -8.077327      -219.7952
  18   2.0000      -6.038551      -164.3173
  19   2.0000      -6.036013      -164.2483
  20   2.0000      -6.034497      -164.2070
  21   2.0000      -6.032058      -164.1406
  22   2.0000      -6.030976      -164.1112
  23   2.0000      -6.027723      -164.0227
  24   2.0000      -1.007050       -27.4032
  25   2.0000      -0.979628       -26.6570
  26   2.0000      -0.912576       -24.8325
  27   2.0000      -0.909197       -24.7405
  28   2.0000      -0.871828       -23.7236
  29   2.0000      -0.847056       -23.0496
  30   2.0000      -0.837509       -22.7898
  31   2.0000      -0.813563       -22.1382
  32   2.0000      -0.789514       -21.4838
  33   2.0000      -0.777442       -21.1553
  34   2.0000      -0.715481       -19.4692
  35   2.0000      -0.705979       -19.2107
  36   2.0000      -0.697104       -18.9692
  37   2.0000      -0.659567       -17.9477
  38   2.0000      -0.639690       -17.4068
  39   2.0000      -0.621010       -16.8985
  40   2.0000      -0.601031       -16.3549
  41   2.0000      -0.567241       -15.4354
  42   2.0000      -0.558814       -15.2061
  43   2.0000      -0.554707       -15.0943
  44   2.0000      -0.544247       -14.8097
  45   2.0000      -0.534268       -14.5382
  46   2.0000      -0.521604       -14.1936
  47   2.0000      -0.512551       -13.9472
  48   2.0000      -0.501293       -13.6409
  49   2.0000      -0.495579       -13.4854
  50   2.0000      -0.490349       -13.3431
  51   2.0000      -0.476230       -12.9589
  52   2.0000      -0.472984       -12.8706
  53   2.0000      -0.462102       -12.5744
  54   2.0000      -0.460420       -12.5287
  55   2.0000      -0.450575       -12.2608
  56   2.0000      -0.445412       -12.1203
  57   2.0000      -0.441362       -12.0101
  58   2.0000      -0.433916       -11.8074
  59   2.0000      -0.426414       -11.6033
  60   2.0000      -0.421368       -11.4660
  61   2.0000      -0.416713       -11.3393
  62   2.0000      -0.414021       -11.2661
  63   2.0000      -0.354240        -9.6394
  64   2.0000      -0.330327        -8.9887
  65   2.0000      -0.326565        -8.8863
  66   2.0000      -0.284866        -7.7516
  67   0.0000       0.022499         0.6122
  68   0.0000       0.079966         2.1760
  69   0.0000       0.102127         2.7790
  70   0.0000       0.121142         3.2964
  71   0.0000       0.133066         3.6209

MULLIKEN ATOMIC CHARGES
-----------------------
   0 S :    0.104187
   1 C :   -0.115727
   2 C :   -0.132749
   3 C :   -0.023008
   4 C :   -0.164567
   5 H :    0.031770
   6 C :    0.135918
   7 H :    0.038380
   8 H :   -0.004671
   9 C :   -0.056683
  10 H :    0.022481
  11 H :    0.028617
  12 C :   -0.040880
  13 H :    0.034684
  14 H :    0.044158
  15 H :    0.025388
  16 S :    0.081464
  17 C :   -0.061988
  18 C :   -0.016811
  19 C :   -0.065826
  20 C :   -0.100039
  21 H :    0.000328
  22 C :    0.125989
  23 H :    0.013620
  24 H :    0.005868
  25 C :   -0.066573
  26 H :    0.020484
  27 H :    0.010122
  28 C :   -0.057818
  29 H :    0.043237
  30 H :    0.037717
  31 H :    0.030935
  32 H :    0.034245
  33 H :    0.037746
Sum of atomic charges:    0.0000000

LOEWDIN ATOMIC CHARGES
----------------------
   0 S :    0.421114
   1 C :   -0.194990
   2 C :   -0.058315
   3 C :   -0.081754
   4 C :   -0.209252
   5 H :    0.036881
   6 C :   -0.024382
   7 H :    0.039562
   8 H :    0.022468
   9 C :   -0.033195
  10 H :    0.020296
  11 H :    0.022764
  12 C :   -0.055896
  13 H :    0.022553
  14 H :    0.026235
  15 H :    0.026015
  16 S :    0.377207
  17 C :   -0.163511
  18 C :   -0.060828
  19 C :   -0.042404
  20 C :   -0.190313
  21 H :    0.022481
  22 C :   -0.027683
  23 H :    0.028878
  24 H :    0.019126
  25 C :   -0.030097
  26 H :    0.025908
  27 H :    0.010874
  28 C :   -0.059729
  29 H :    0.025724
  30 H :    0.023295
  31 H :    0.025419
  32 H :    0.016097
  33 H :    0.019453

  Mayer bond orders larger than 0.100000
B(  0-S ,  1-C ) :   1.1467 B(  0-S ,  4-C ) :   1.1647 B(  1-C ,  2-C ) :   1.5995
B(  1-C ,  4-C ) :   0.1009 B(  1-C , 32-H ) :   0.9705 B(  2-C ,  3-C ) :   1.2575
B(  2-C ,  6-C ) :   0.9977 B(  3-C ,  4-C ) :   1.5481 B(  3-C ,  5-H ) :   0.9717
B(  4-C , 20-C ) :   1.0697 B(  6-C ,  7-H ) :   0.9349 B(  6-C ,  8-H ) :   0.9357
B(  6-C ,  9-C ) :   1.0641 B(  9-C , 10-H ) :   0.9575 B(  9-C , 11-H ) :   0.9518
B(  9-C , 12-C ) :   1.0786 B( 12-C , 13-H ) :   0.9750 B( 12-C , 14-H ) :   0.9723
B( 12-C , 15-H ) :   0.9767 B( 16-S , 17-C ) :   1.1324 B( 16-S , 20-C ) :   1.1143
B( 17-C , 18-C ) :   1.6489 B( 17-C , 33-H ) :   0.9733 B( 18-C , 19-C ) :   1.1830
B( 18-C , 21-H ) :   1.0003 B( 19-C , 20-C ) :   1.6168 B( 19-C , 22-C ) :   1.0597
B( 22-C , 23-H ) :   0.9257 B( 22-C , 24-H ) :   0.9053 B( 22-C , 25-C ) :   1.0750
B( 25-C , 26-H ) :   0.9536 B( 25-C , 27-H ) :   0.9553 B( 25-C , 28-C ) :   1.0684
B( 28-C , 29-H ) :   0.9804 B( 28-C , 30-H ) :   0.9782 B( 28-C , 31-H ) :   0.9773

Dispersion correction           -0.014663054
FINAL SINGLE POINT ENERGY     -1339.862015042055

DIPOLE MOMENT
-------------
                                X             Y             Z
Electronic contribution:    -15.10051      13.23525     -10.55432
Nuclear contribution   :     15.59993     -13.50596      11.08711
                        -----------------------------------------
Total Dipole Moment    :      0.49942      -0.27071       0.53279
                        -----------------------------------------
Magnitude (a.u.)       :      0.77883
Magnitude (Debye)      :      1.97963

Rotational constants in cm-1:     0.018654     0.008836     0.007472
Rotational constants in MHz :   559.228589   264.896242   224.011727

                             ****ORCA TERMINATED NORMALLY****
TOTAL RUN TIME: 0 days 0 hours 0 minutes 30 seconds 371 msec
