                         Program Version 4.2.1 -  RELEASE  -
|  1> ! wB97X-D3 SP def2-SVP
|  2> %pal
|  3> nprocs 16
|  4> end
|  5>
|  6> * xyz 0 1
|  7> S 	 -54.7097 	 34.1042 	 90.7642
|  8> C 	 -54.5322 	 32.7972 	 89.6517
|  9> C 	 -55.0994 	 33.0409 	 88.4001
| 10> C 	 -55.7711 	 34.3399 	 88.4253
| 11> C 	 -55.7112 	 34.9623 	 89.6226
| 12> H 	 -56.3197 	 34.8256 	 87.5573
| 13> C 	 -55.148 	 32.0609 	 87.2098
| 14> H 	 -54.677 	 31.1354 	 87.6186
| 15> H 	 -54.475 	 32.4772 	 86.4592
| 16> C 	 -56.571 	 31.8667 	 86.5977
| 17> H 	 -56.9848 	 32.8634 	 86.4858
| 18> H 	 -56.5117 	 31.4013 	 85.6061
| 19> C 	 -57.6365 	 31.0803 	 87.3772
| 20> H 	 -58.6383 	 31.2204 	 86.8847
| 21> H 	 -57.389 	 30.0393 	 87.3123
| 22> H 	 -57.6177 	 31.3114 	 88.4401
| 23> S 	 -54.9913 	 37.5408 	 89.6847
| 24> C 	 -56.1347 	 38.8482 	 89.6604
| 25> C 	 -57.4014 	 38.3009 	 89.7341
| 26> C 	 -57.4677 	 36.8766 	 89.6324
| 27> C 	 -56.2113 	 36.3198 	 89.7492
| 28> H 	 -58.2523 	 38.9634 	 89.7382
| 29> C 	 -58.8207 	 36.1026 	 89.6185
| 30> H 	 -59.5309 	 36.1151 	 90.4253
| 31> H 	 -58.5865 	 35.0486 	 89.6923
| 32> C 	 -59.6694 	 36.4488 	 88.3164
| 33> H 	 -59.2147 	 36.1798 	 87.3629
| 34> H 	 -59.7357 	 37.4959 	 88.1698
| 35> C 	 -61.1555 	 36.0354 	 88.296
| 36> H 	 -61.2755 	 34.9961 	 88.7482
| 37> H 	 -61.4928 	 36.0349 	 87.2992
| 38> H 	 -61.8663 	 36.6169 	 88.8388
| 39> H 	 -53.9403 	 31.8718 	 89.7197
| 40> H 	 -55.9192 	 39.9051 	 89.763
| 41> *
| 42>
| 43>                          ****END OF INPUT****

CARTESIAN COORDINATES (ANGSTROEM)
---------------------------------
  S    -54.709700   34.104200   90.764200
  C    -54.532200   32.797200   89.651700
  C    -55.099400   33.040900   88.400100
  C    -55.771100   34.339900   88.425300
  C    -55.711200   34.962300   89.622600
  H    -56.319700   34.825600   87.557300
  C    -55.148000   32.060900   87.209800
  H    -54.677000   31.135400   87.618600
  H    -54.475000   32.477200   86.459200
  C    -56.571000   31.866700   86.597700
  H    -56.984800   32.863400   86.485800
  H    -56.511700   31.401300   85.606100
  C    -57.636500   31.080300   87.377200
  H    -58.638300   31.220400   86.884700
  H    -57.389000   30.039300   87.312300
  H    -57.617700   31.311400   88.440100
  S    -54.991300   37.540800   89.684700
  C    -56.134700   38.848200   89.660400
  C    -57.401400   38.300900   89.734100
  C    -57.467700   36.876600   89.632400
  C    -56.211300   36.319800   89.749200
  H    -58.252300   38.963400   89.738200
  C    -58.820700   36.102600   89.618500
  H    -59.530900   36.115100   90.425300
  H    -58.586500   35.048600   89.692300
  C    -59.669400   36.448800   88.316400
  H    -59.214700   36.179800   87.362900
  H    -59.735700   37.495900   88.169800
  C    -61.155500   36.035400   88.296000
  H    -61.275500   34.996100   88.748200
  H    -61.492800   36.034900   87.299200
  H    -61.866300   36.616900   88.838800
  H    -53.940300   31.871800   89.719700
  H    -55.919200   39.905100   89.763000

 Total Charge           Charge          ....    0
 Multiplicity           Mult            ....    1
 Number of Electrons    NEL             ....  134
 Basis Dimension        Dim             ....  322

ORBITAL ENERGIES
----------------

  NO   OCC          E(Eh)            E(eV)
   0   2.0000     -88.971694     -2421.0429
   1   2.0000     -88.961432     -2420.7636
   2   2.0000     -10.324750      -280.9507
   3   2.0000     -10.324101      -280.9331
   4   2.0000     -10.315804      -280.7073
   5   2.0000     -10.314549      -280.6732
   6   2.0000     -10.306821      -280.4629
   7   2.0000     -10.304609      -280.4027
   8   2.0000     -10.302544      -280.3465
   9   2.0000     -10.297427      -280.2072
  10   2.0000     -10.296440      -280.1804
  11   2.0000     -10.291236      -280.0388
  12   2.0000     -10.290134      -280.0088
  13   2.0000     -10.285243      -279.8757
  14   2.0000     -10.277672      -279.6697
  15   2.0000     -10.276032      -279.6251
  16   2.0000      -8.086515      -220.0452
  17   2.0000      -8.077023      -219.7870
  18   2.0000      -6.045080      -164.4950
  19   2.0000      -6.041089      -164.3864
  20   2.0000      -6.037130      -164.2786
  21   2.0000      -6.035555      -164.2358
  22   2.0000      -6.031194      -164.1171
  23   2.0000      -6.027924      -164.0282
  24   2.0000      -1.012278       -27.5455
  25   2.0000      -0.986895       -26.8548
  26   2.0000      -0.906689       -24.6723
  27   2.0000      -0.898218       -24.4417
  28   2.0000      -0.873674       -23.7739
  29   2.0000      -0.849296       -23.1105
  30   2.0000      -0.845539       -23.0083
  31   2.0000      -0.814742       -22.1703
  32   2.0000      -0.782785       -21.3007
  33   2.0000      -0.774406       -21.0726
  34   2.0000      -0.707392       -19.2491
  35   2.0000      -0.703666       -19.1477
  36   2.0000      -0.690131       -18.7794
  37   2.0000      -0.659114       -17.9354
  38   2.0000      -0.635489       -17.2925
  39   2.0000      -0.617975       -16.8160
  40   2.0000      -0.599553       -16.3147
  41   2.0000      -0.566732       -15.4216
  42   2.0000      -0.550645       -14.9838
  43   2.0000      -0.547838       -14.9074
  44   2.0000      -0.539175       -14.6717
  45   2.0000      -0.523275       -14.2390
  46   2.0000      -0.517729       -14.0881
  47   2.0000      -0.516054       -14.0425
  48   2.0000      -0.510876       -13.9016
  49   2.0000      -0.496481       -13.5099
  50   2.0000      -0.484203       -13.1758
  51   2.0000      -0.479928       -13.0595
  52   2.0000      -0.471681       -12.8351
  53   2.0000      -0.458141       -12.4667
  54   2.0000      -0.453564       -12.3421
  55   2.0000      -0.450233       -12.2515
  56   2.0000      -0.446814       -12.1584
  57   2.0000      -0.442686       -12.0461
  58   2.0000      -0.435183       -11.8419
  59   2.0000      -0.423868       -11.5340
  60   2.0000      -0.421012       -11.4563
  61   2.0000      -0.417335       -11.3563
  62   2.0000      -0.405894       -11.0449
  63   2.0000      -0.343828        -9.3560
  64   2.0000      -0.328455        -8.9377
  65   2.0000      -0.325839        -8.8665
  66   2.0000      -0.305951        -8.3254
  67   0.0000       0.042411         1.1541
  68   0.0000       0.065153         1.7729
  69   0.0000       0.118243         3.2176
  70   0.0000       0.123700         3.3660
  71   0.0000       0.129384         3.5207

MULLIKEN ATOMIC CHARGES
-----------------------
   0 S :    0.133962
   1 C :   -0.112886
   2 C :   -0.135642
   3 C :    0.003601
   4 C :   -0.162655
   5 H :    0.050040
   6 C :    0.090072
   7 H :    0.019472
   8 H :    0.045539
   9 C :   -0.092446
  10 H :    0.026330
  11 H :    0.033929
  12 C :   -0.050248
  13 H :    0.046820
  14 H :    0.021240
  15 H :    0.041142
  16 S :    0.106964
  17 C :   -0.096144
  18 C :   -0.030185
  19 C :   -0.015060
  20 C :   -0.167891
  21 H :    0.016234
  22 C :    0.089295
  23 H :    0.026514
  24 H :    0.018442
  25 C :   -0.083828
  26 H :    0.020829
  27 H :    0.014992
  28 C :   -0.052201
  29 H :    0.029593
  30 H :    0.025064
  31 H :    0.027421
  32 H :    0.049983
  33 H :    0.061709
Sum of atomic charges:    0.0000000

LOEWDIN ATOMIC CHARGES
----------------------
   0 S :    0.420003
   1 C :   -0.215227
   2 C :   -0.065336
   3 C :   -0.061303
   4 C :   -0.213255
   5 H :    0.044247
   6 C :   -0.030399
   7 H :    0.030016
   8 H :    0.037750
   9 C :   -0.043441
  10 H :    0.021304
  11 H :    0.026945
  12 C :   -0.066318
  13 H :    0.035843
  14 H :    0.019192
  15 H :    0.026534
  16 S :    0.422538
  17 C :   -0.196078
  18 C :   -0.067760
  19 C :   -0.058284
  20 C :   -0.197688
  21 H :    0.027333
  22 C :   -0.027969
  23 H :    0.030739
  24 H :    0.029919
  25 C :   -0.042731
  26 H :    0.023220
  27 H :    0.018522
  28 C :   -0.067201
  29 H :    0.029214
  30 H :    0.022464
  31 H :    0.018902
  32 H :    0.035079
  33 H :    0.033225

  Mayer bond orders larger than 0.100000
B(  0-S ,  1-C ) :   1.1365 B(  0-S ,  4-C ) :   1.1304 B(  1-C ,  2-C ) :   1.6467
B(  1-C , 32-H ) :   0.9543 B(  2-C ,  3-C ) :   1.2136 B(  2-C ,  6-C ) :   1.0152
B(  3-C ,  4-C ) :   1.6200 B(  3-C ,  5-H ) :   0.9763 B(  4-C , 20-C ) :   1.0034
B(  6-C ,  7-H ) :   0.9447 B(  6-C ,  8-H ) :   0.9328 B(  6-C ,  9-C ) :   1.0615
B(  9-C , 10-H ) :   0.9581 B(  9-C , 11-H ) :   0.9565 B(  9-C , 12-C ) :   1.0759
B( 12-C , 13-H ) :   0.9733 B( 12-C , 14-H ) :   0.9755 B( 12-C , 15-H ) :   0.9768
B( 16-S , 17-C ) :   1.1537 B( 16-S , 20-C ) :   1.1716 B( 17-C , 18-C ) :   1.6088
B( 17-C , 20-C ) :   0.1001 B( 17-C , 33-H ) :   0.9688 B( 18-C , 19-C ) :   1.2381
B( 18-C , 21-H ) :   0.9871 B( 19-C , 20-C ) :   1.6038 B( 19-C , 22-C ) :   1.0339
B( 22-C , 23-H ) :   0.9538 B( 22-C , 24-H ) :   0.9330 B( 22-C , 25-C ) :   1.0322
B( 25-C , 26-H ) :   0.9590 B( 25-C , 27-H ) :   0.9612 B( 25-C , 28-C ) :   1.0794
B( 28-C , 29-H ) :   0.9754 B( 28-C , 30-H ) :   0.9740 B( 28-C , 31-H ) :   0.9771

Dispersion correction           -0.014203737
FINAL SINGLE POINT ENERGY     -1339.869435475968

DIPOLE MOMENT
-------------
                                X             Y             Z
Electronic contribution:     23.82752      12.71712      15.69107
Nuclear contribution   :    -24.22672     -12.85829     -16.17487
                        -----------------------------------------
Total Dipole Moment    :     -0.39920      -0.14117      -0.48380
                        -----------------------------------------
Magnitude (a.u.)       :      0.64293
Magnitude (Debye)      :      1.63419

Rotational constants in cm-1:     0.015410     0.010263     0.006950
Rotational constants in MHz :   461.977491   307.679674   208.344149

                             ****ORCA TERMINATED NORMALLY****
TOTAL RUN TIME: 0 days 0 hours 0 minutes 28 seconds 750 msec
