                         Program Version 4.2.1 -  RELEASE  -
|  1> ! wB97X-D3 SP def2-SVP
|  2> %pal
|  3> nprocs 16
|  4> end
|  5>
|  6> * xyz 0 1
|  7> S 	 -108.405 	 39.827 	 127.953
|  8> C 	 -107.299 	 38.6491 	 128.607
|  9> C 	 -106.239 	 38.4666 	 127.72
| 10> C 	 -106.434 	 39.0934 	 126.434
| 11> C 	 -107.64 	 39.8332 	 126.361
| 12> H 	 -105.674 	 38.9615 	 125.663
| 13> C 	 -105.092 	 37.5535 	 127.989
| 14> H 	 -105.23 	 36.5821 	 127.46
| 15> H 	 -105.173 	 37.3662 	 129.042
| 16> C 	 -103.685 	 38.0992 	 127.732
| 17> H 	 -102.906 	 37.3088 	 127.687
| 18> H 	 -103.713 	 38.4019 	 126.654
| 19> C 	 -103.214 	 39.4612 	 128.323
| 20> H 	 -104.003 	 40.1959 	 128.249
| 21> H 	 -102.862 	 39.378 	 129.417
| 22> H 	 -102.308 	 39.8556 	 127.875
| 23> S 	 -109.07 	 42.0427 	 125.433
| 24> C 	 -109.527 	 42.0779 	 123.711
| 25> C 	 -109.005 	 41.007 	 123.051
| 26> C 	 -108.253 	 40.1641 	 123.902
| 27> C 	 -108.082 	 40.5979 	 125.189
| 28> H 	 -109.078 	 40.8564 	 122.015
| 29> C 	 -107.702 	 38.9112 	 123.267
| 30> H 	 -106.735 	 38.584 	 123.715
| 31> H 	 -107.256 	 39.1958 	 122.303
| 32> C 	 -108.674 	 37.6839 	 123.24
| 33> H 	 -109.62 	 37.9714 	 122.678
| 34> H 	 -109.041 	 37.455 	 124.26
| 35> C 	 -107.931 	 36.4816 	 122.644
| 36> H 	 -107.691 	 36.6496 	 121.533
| 37> H 	 -108.536 	 35.496 	 122.797
| 38> H 	 -106.916 	 36.4071 	 123
| 39> H 	 -107.377 	 38.2683 	 129.62
| 40> H 	 -110.049 	 42.9243 	 123.349
| 41> *
| 42>
| 43>                          ****END OF INPUT****

CARTESIAN COORDINATES (ANGSTROEM)
---------------------------------
  S    -108.405000   39.827000  127.953000
  C    -107.299000   38.649100  128.607000
  C    -106.239000   38.466600  127.720000
  C    -106.434000   39.093400  126.434000
  C    -107.640000   39.833200  126.361000
  H    -105.674000   38.961500  125.663000
  C    -105.092000   37.553500  127.989000
  H    -105.230000   36.582100  127.460000
  H    -105.173000   37.366200  129.042000
  C    -103.685000   38.099200  127.732000
  H    -102.906000   37.308800  127.687000
  H    -103.713000   38.401900  126.654000
  C    -103.214000   39.461200  128.323000
  H    -104.003000   40.195900  128.249000
  H    -102.862000   39.378000  129.417000
  H    -102.308000   39.855600  127.875000
  S    -109.070000   42.042700  125.433000
  C    -109.527000   42.077900  123.711000
  C    -109.005000   41.007000  123.051000
  C    -108.253000   40.164100  123.902000
  C    -108.082000   40.597900  125.189000
  H    -109.078000   40.856400  122.015000
  C    -107.702000   38.911200  123.267000
  H    -106.735000   38.584000  123.715000
  H    -107.256000   39.195800  122.303000
  C    -108.674000   37.683900  123.240000
  H    -109.620000   37.971400  122.678000
  H    -109.041000   37.455000  124.260000
  C    -107.931000   36.481600  122.644000
  H    -107.691000   36.649600  121.533000
  H    -108.536000   35.496000  122.797000
  H    -106.916000   36.407100  123.000000
  H    -107.377000   38.268300  129.620000
  H    -110.049000   42.924300  123.349000

 Total Charge           Charge          ....    0
 Multiplicity           Mult            ....    1
 Number of Electrons    NEL             ....  134
 Basis Dimension        Dim             ....  322

ORBITAL ENERGIES
----------------

  NO   OCC          E(Eh)            E(eV)
   0   2.0000     -88.968707     -2420.9616
   1   2.0000     -88.963690     -2420.8251
   2   2.0000     -10.338866      -281.3349
   3   2.0000     -10.329246      -281.0731
   4   2.0000     -10.320912      -280.8463
   5   2.0000     -10.316203      -280.7182
   6   2.0000     -10.300993      -280.3043
   7   2.0000     -10.300530      -280.2917
   8   2.0000     -10.298177      -280.2276
   9   2.0000     -10.296421      -280.1798
  10   2.0000     -10.294623      -280.1309
  11   2.0000     -10.293990      -280.1137
  12   2.0000     -10.291574      -280.0480
  13   2.0000     -10.291547      -280.0472
  14   2.0000     -10.291036      -280.0333
  15   2.0000     -10.283475      -279.8276
  16   2.0000      -8.083010      -219.9499
  17   2.0000      -8.078171      -219.8182
  18   2.0000      -6.041681      -164.4025
  19   2.0000      -6.037491      -164.2885
  20   2.0000      -6.036744      -164.2681
  21   2.0000      -6.033700      -164.1853
  22   2.0000      -6.032767      -164.1599
  23   2.0000      -6.028838      -164.0530
  24   2.0000      -1.005591       -27.3635
  25   2.0000      -0.983927       -26.7740
  26   2.0000      -0.910418       -24.7737
  27   2.0000      -0.903817       -24.5941
  28   2.0000      -0.870512       -23.6878
  29   2.0000      -0.849888       -23.1266
  30   2.0000      -0.841148       -22.8888
  31   2.0000      -0.816074       -22.2065
  32   2.0000      -0.779917       -21.2226
  33   2.0000      -0.768099       -20.9010
  34   2.0000      -0.709680       -19.3114
  35   2.0000      -0.697889       -18.9905
  36   2.0000      -0.694202       -18.8902
  37   2.0000      -0.668567       -18.1926
  38   2.0000      -0.634735       -17.2720
  39   2.0000      -0.624668       -16.9981
  40   2.0000      -0.603377       -16.4187
  41   2.0000      -0.567586       -15.4448
  42   2.0000      -0.553817       -15.0701
  43   2.0000      -0.548199       -14.9173
  44   2.0000      -0.535408       -14.5692
  45   2.0000      -0.528208       -14.3733
  46   2.0000      -0.517337       -14.0775
  47   2.0000      -0.513221       -13.9655
  48   2.0000      -0.504582       -13.7304
  49   2.0000      -0.494779       -13.4636
  50   2.0000      -0.491897       -13.3852
  51   2.0000      -0.478369       -13.0171
  52   2.0000      -0.472164       -12.8482
  53   2.0000      -0.460841       -12.5401
  54   2.0000      -0.454755       -12.3745
  55   2.0000      -0.452510       -12.3134
  56   2.0000      -0.443981       -12.0813
  57   2.0000      -0.441838       -12.0230
  58   2.0000      -0.437788       -11.9128
  59   2.0000      -0.421408       -11.4671
  60   2.0000      -0.416452       -11.3322
  61   2.0000      -0.407207       -11.0807
  62   2.0000      -0.393591       -10.7102
  63   2.0000      -0.358303        -9.7499
  64   2.0000      -0.334422        -9.1001
  65   2.0000      -0.327658        -8.9160
  66   2.0000      -0.288069        -7.8387
  67   0.0000       0.022474         0.6116
  68   0.0000       0.070598         1.9211
  69   0.0000       0.104106         2.8329
  70   0.0000       0.115884         3.1534
  71   0.0000       0.134752         3.6668

MULLIKEN ATOMIC CHARGES
-----------------------
   0 S :    0.111155
   1 C :   -0.130136
   2 C :   -0.116336
   3 C :    0.000341
   4 C :   -0.111318
   5 H :    0.027285
   6 C :    0.108469
   7 H :    0.052090
   8 H :    0.004448
   9 C :   -0.116650
  10 H :    0.034026
  11 H :    0.015588
  12 C :   -0.055676
  13 H :    0.047872
  14 H :    0.031477
  15 H :    0.032756
  16 S :    0.066067
  17 C :   -0.078228
  18 C :    0.025861
  19 C :   -0.058693
  20 C :   -0.114467
  21 H :    0.005690
  22 C :    0.015257
  23 H :    0.000369
  24 H :    0.020630
  25 C :   -0.057479
  26 H :    0.039169
  27 H :    0.045692
  28 C :   -0.073517
  29 H :    0.032339
  30 H :    0.061189
  31 H :    0.025235
  32 H :    0.056869
  33 H :    0.052625
Sum of atomic charges:   -0.0000000

LOEWDIN ATOMIC CHARGES
----------------------
   0 S :    0.406163
   1 C :   -0.203102
   2 C :   -0.067463
   3 C :   -0.067251
   4 C :   -0.181984
   5 H :    0.028783
   6 C :   -0.035384
   7 H :    0.042959
   8 H :    0.024157
   9 C :   -0.054526
  10 H :    0.028330
  11 H :    0.024319
  12 C :   -0.068788
  13 H :    0.027183
  14 H :    0.027524
  15 H :    0.026655
  16 S :    0.375613
  17 C :   -0.151585
  18 C :   -0.061100
  19 C :   -0.056549
  20 C :   -0.191045
  21 H :    0.027307
  22 C :   -0.040729
  23 H :    0.026107
  24 H :    0.030703
  25 C :   -0.041831
  26 H :    0.029711
  27 H :    0.031319
  28 C :   -0.080719
  29 H :    0.032060
  30 H :    0.039669
  31 H :    0.020245
  32 H :    0.031575
  33 H :    0.021673

  Mayer bond orders larger than 0.100000
B(  0-S ,  1-C ) :   1.1369 B(  0-S ,  4-C ) :   1.1560 B(  1-C ,  2-C ) :   1.5824
B(  1-C , 32-H ) :   0.9678 B(  2-C ,  3-C ) :   1.2595 B(  2-C ,  6-C ) :   1.0302
B(  3-C ,  4-C ) :   1.5277 B(  3-C ,  5-H ) :   0.9872 B(  4-C , 20-C ) :   1.0678
B(  6-C ,  7-H ) :   0.9378 B(  6-C ,  8-H ) :   0.9352 B(  6-C ,  9-C ) :   1.0659
B(  9-C , 10-H ) :   0.9558 B(  9-C , 11-H ) :   0.9542 B(  9-C , 12-C ) :   1.0658
B( 12-C , 13-H ) :   0.9722 B( 12-C , 14-H ) :   0.9747 B( 12-C , 15-H ) :   0.9754
B( 16-S , 17-C ) :   1.1557 B( 16-S , 20-C ) :   1.1070 B( 17-C , 18-C ) :   1.5799
B( 17-C , 33-H ) :   0.9753 B( 18-C , 19-C ) :   1.2532 B( 18-C , 21-H ) :   1.0017
B( 19-C , 20-C ) :   1.6099 B( 19-C , 22-C ) :   1.0343 B( 22-C , 23-H ) :   0.9395
B( 22-C , 24-H ) :   0.9376 B( 22-C , 25-C ) :   1.0411 B( 25-C , 26-H ) :   0.9559
B( 25-C , 27-H ) :   0.9564 B( 25-C , 28-C ) :   1.0697 B( 28-C , 29-H ) :   0.9715
B( 28-C , 30-H ) :   0.9728 B( 28-C , 31-H ) :   0.9728

Dispersion correction           -0.014312147
FINAL SINGLE POINT ENERGY     -1339.872424698920

DIPOLE MOMENT
-------------
                                X             Y             Z
Electronic contribution:    -18.17267      18.56278       7.19613
Nuclear contribution   :     18.51395     -18.95645      -7.61927
                        -----------------------------------------
Total Dipole Moment    :      0.34128      -0.39367      -0.42314
                        -----------------------------------------
Magnitude (a.u.)       :      0.67119
Magnitude (Debye)      :      1.70604

Rotational constants in cm-1:     0.017385     0.009065     0.007202
Rotational constants in MHz :   521.203307   271.756454   215.908760

                             ****ORCA TERMINATED NORMALLY****
TOTAL RUN TIME: 0 days 0 hours 0 minutes 34 seconds 322 msec
