                         Program Version 4.2.1 -  RELEASE  -
|  1> ! wB97X-D3 SP def2-SVP
|  2> %pal
|  3> nprocs 16
|  4> end
|  5>
|  6> * xyz 0 1
|  7> S 	 -32.7521 	 28.945 	 43.421
|  8> C 	 -32.2892 	 27.3394 	 43.9763
|  9> C 	 -32.286 	 27.318 	 45.3942
| 10> C 	 -32.7212 	 28.5991 	 45.9487
| 11> C 	 -33.0203 	 29.5601 	 44.9934
| 12> H 	 -32.8214 	 28.7806 	 47.007
| 13> C 	 -31.837 	 26.1596 	 46.2026
| 14> H 	 -31.4822 	 25.3133 	 45.5855
| 15> H 	 -32.69 	 25.7622 	 46.8316
| 16> C 	 -30.7302 	 26.3664 	 47.2205
| 17> H 	 -31.182 	 26.7022 	 48.1018
| 18> H 	 -30.3785 	 25.4073 	 47.7045
| 19> C 	 -29.466 	 27.0911 	 46.6776
| 20> H 	 -28.7056 	 27.0446 	 47.4929
| 21> H 	 -29.0199 	 26.7646 	 45.7695
| 22> H 	 -29.6282 	 28.1132 	 46.5803
| 23> S 	 -35.2585 	 31.2293 	 45.3825
| 24> C 	 -35.0031 	 32.7907 	 46.0449
| 25> C 	 -33.6781 	 33.1107 	 46.0425
| 26> C 	 -32.8369 	 32.0776 	 45.4821
| 27> C 	 -33.4575 	 30.9302 	 45.2737
| 28> H 	 -33.2134 	 34.0315 	 46.2302
| 29> C 	 -31.321 	 32.2408 	 45.4224
| 30> H 	 -30.8492 	 32.8926 	 44.5938
| 31> H 	 -30.9054 	 31.2998 	 45.0933
| 32> C 	 -30.4919 	 32.5374 	 46.6635
| 33> H 	 -30.6622 	 33.5344 	 46.908
| 34> H 	 -29.4391 	 32.4025 	 46.3141
| 35> C 	 -30.7171 	 31.4955 	 47.7418
| 36> H 	 -31.7736 	 31.5813 	 48.0843
| 37> H 	 -30.0971 	 31.7858 	 48.6336
| 38> H 	 -30.3627 	 30.4747 	 47.3855
| 39> H 	 -32.1949 	 26.4847 	 43.328
| 40> H 	 -35.8083 	 33.3702 	 46.4303
| 41> *
| 42>
| 43>                          ****END OF INPUT****

CARTESIAN COORDINATES (ANGSTROEM)
---------------------------------
  S    -32.752100   28.945000   43.421000
  C    -32.289200   27.339400   43.976300
  C    -32.286000   27.318000   45.394200
  C    -32.721200   28.599100   45.948700
  C    -33.020300   29.560100   44.993400
  H    -32.821400   28.780600   47.007000
  C    -31.837000   26.159600   46.202600
  H    -31.482200   25.313300   45.585500
  H    -32.690000   25.762200   46.831600
  C    -30.730200   26.366400   47.220500
  H    -31.182000   26.702200   48.101800
  H    -30.378500   25.407300   47.704500
  C    -29.466000   27.091100   46.677600
  H    -28.705600   27.044600   47.492900
  H    -29.019900   26.764600   45.769500
  H    -29.628200   28.113200   46.580300
  S    -35.258500   31.229300   45.382500
  C    -35.003100   32.790700   46.044900
  C    -33.678100   33.110700   46.042500
  C    -32.836900   32.077600   45.482100
  C    -33.457500   30.930200   45.273700
  H    -33.213400   34.031500   46.230200
  C    -31.321000   32.240800   45.422400
  H    -30.849200   32.892600   44.593800
  H    -30.905400   31.299800   45.093300
  C    -30.491900   32.537400   46.663500
  H    -30.662200   33.534400   46.908000
  H    -29.439100   32.402500   46.314100
  C    -30.717100   31.495500   47.741800
  H    -31.773600   31.581300   48.084300
  H    -30.097100   31.785800   48.633600
  H    -30.362700   30.474700   47.385500
  H    -32.194900   26.484700   43.328000
  H    -35.808300   33.370200   46.430300

 Total Charge           Charge          ....    0
 Multiplicity           Mult            ....    1
 Number of Electrons    NEL             ....  134
 Basis Dimension        Dim             ....  322

ORBITAL ENERGIES
----------------

  NO   OCC          E(Eh)            E(eV)
   0   2.0000     -88.966864     -2420.9114
   1   2.0000     -88.958905     -2420.6949
   2   2.0000     -10.329698      -281.0854
   3   2.0000     -10.326578      -281.0005
   4   2.0000     -10.319434      -280.8061
   5   2.0000     -10.317281      -280.7475
   6   2.0000     -10.308788      -280.5164
   7   2.0000     -10.300273      -280.2847
   8   2.0000     -10.298097      -280.2255
   9   2.0000     -10.293950      -280.1126
  10   2.0000     -10.289290      -279.9858
  11   2.0000     -10.289138      -279.9817
  12   2.0000     -10.287024      -279.9242
  13   2.0000     -10.284202      -279.8474
  14   2.0000     -10.280965      -279.7593
  15   2.0000     -10.273306      -279.5509
  16   2.0000      -8.081833      -219.9179
  17   2.0000      -8.073998      -219.7047
  18   2.0000      -6.040293      -164.3647
  19   2.0000      -6.036074      -164.2499
  20   2.0000      -6.032862      -164.1625
  21   2.0000      -6.032596      -164.1553
  22   2.0000      -6.028559      -164.0454
  23   2.0000      -6.024522      -163.9356
  24   2.0000      -1.007408       -27.4130
  25   2.0000      -0.985607       -26.8197
  26   2.0000      -0.914441       -24.8832
  27   2.0000      -0.911868       -24.8132
  28   2.0000      -0.870174       -23.6787
  29   2.0000      -0.847027       -23.0488
  30   2.0000      -0.842758       -22.9326
  31   2.0000      -0.813898       -22.1473
  32   2.0000      -0.784945       -21.3594
  33   2.0000      -0.776861       -21.1395
  34   2.0000      -0.712402       -19.3854
  35   2.0000      -0.697515       -18.9804
  36   2.0000      -0.693279       -18.8651
  37   2.0000      -0.664234       -18.0747
  38   2.0000      -0.640250       -17.4221
  39   2.0000      -0.617903       -16.8140
  40   2.0000      -0.607678       -16.5357
  41   2.0000      -0.563898       -15.3444
  42   2.0000      -0.554401       -15.0860
  43   2.0000      -0.553132       -15.0515
  44   2.0000      -0.543951       -14.8017
  45   2.0000      -0.539445       -14.6791
  46   2.0000      -0.516694       -14.0600
  47   2.0000      -0.514142       -13.9905
  48   2.0000      -0.508584       -13.8393
  49   2.0000      -0.497299       -13.5322
  50   2.0000      -0.493819       -13.4375
  51   2.0000      -0.480986       -13.0883
  52   2.0000      -0.469905       -12.7868
  53   2.0000      -0.469535       -12.7767
  54   2.0000      -0.463508       -12.6127
  55   2.0000      -0.448670       -12.2089
  56   2.0000      -0.437625       -11.9084
  57   2.0000      -0.429184       -11.6787
  58   2.0000      -0.423361       -11.5203
  59   2.0000      -0.422828       -11.5057
  60   2.0000      -0.416454       -11.3323
  61   2.0000      -0.409772       -11.1505
  62   2.0000      -0.402940       -10.9646
  63   2.0000      -0.334816        -9.1108
  64   2.0000      -0.327861        -8.9216
  65   2.0000      -0.321585        -8.7508
  66   2.0000      -0.316820        -8.6211
  67   0.0000       0.045363         1.2344
  68   0.0000       0.052565         1.4304
  69   0.0000       0.108638         2.9562
  70   0.0000       0.115210         3.1350
  71   0.0000       0.127013         3.4562

MULLIKEN ATOMIC CHARGES
-----------------------
   0 S :    0.123824
   1 C :   -0.128318
   2 C :   -0.084193
   3 C :    0.056546
   4 C :   -0.170131
   5 H :    0.013391
   6 C :    0.044897
   7 H :    0.025196
   8 H :    0.041645
   9 C :   -0.078924
  10 H :    0.004583
  11 H :    0.021878
  12 C :   -0.011467
  13 H :    0.027880
  14 H :    0.031563
  15 H :    0.016380
  16 S :    0.087959
  17 C :   -0.063476
  18 C :    0.004973
  19 C :    0.010403
  20 C :   -0.187657
  21 H :   -0.002277
  22 C :    0.011192
  23 H :    0.043851
  24 H :    0.002876
  25 C :   -0.059412
  26 H :    0.017454
  27 H :    0.032577
  28 C :   -0.083906
  29 H :    0.050240
  30 H :    0.036537
  31 H :    0.052183
  32 H :    0.054973
  33 H :    0.056758
Sum of atomic charges:   -0.0000000

LOEWDIN ATOMIC CHARGES
----------------------
   0 S :    0.426066
   1 C :   -0.196351
   2 C :   -0.059658
   3 C :   -0.053401
   4 C :   -0.214338
   5 H :    0.031028
   6 C :   -0.044161
   7 H :    0.031837
   8 H :    0.041198
   9 C :   -0.047383
  10 H :    0.014579
  11 H :    0.032159
  12 C :   -0.060031
  13 H :    0.032676
  14 H :    0.024601
  15 H :    0.014414
  16 S :    0.377475
  17 C :   -0.172708
  18 C :   -0.071481
  19 C :   -0.054129
  20 C :   -0.170672
  21 H :    0.021833
  22 C :   -0.045483
  23 H :    0.042600
  24 H :    0.023568
  25 C :   -0.041297
  26 H :    0.009208
  27 H :    0.033097
  28 C :   -0.073989
  29 H :    0.030138
  30 H :    0.029207
  31 H :    0.033763
  32 H :    0.028546
  33 H :    0.027089

  Mayer bond orders larger than 0.100000
B(  0-S ,  1-C ) :   1.1496 B(  0-S ,  4-C ) :   1.1705 B(  1-C ,  2-C ) :   1.5740
B(  1-C , 32-H ) :   0.9713 B(  2-C ,  3-C ) :   1.2418 B(  2-C ,  6-C ) :   1.0453
B(  3-C ,  4-C ) :   1.5682 B(  3-C ,  5-H ) :   0.9960 B(  4-C , 20-C ) :   0.9957
B(  6-C ,  7-H ) :   0.9461 B(  6-C ,  8-H ) :   0.9328 B(  6-C ,  9-C ) :   1.0793
B(  9-C , 10-H ) :   0.9507 B(  9-C , 11-H ) :   0.9531 B(  9-C , 12-C ) :   1.0618
B( 12-C , 13-H ) :   0.9727 B( 12-C , 14-H ) :   0.9752 B( 12-C , 15-H ) :   0.9733
B( 16-S , 17-C ) :   1.1582 B( 16-S , 20-C ) :   1.1058 B( 17-C , 18-C ) :   1.6094
B( 17-C , 33-H ) :   0.9722 B( 18-C , 19-C ) :   1.2054 B( 18-C , 21-H ) :   0.9972
B( 19-C , 20-C ) :   1.6822 B( 19-C , 22-C ) :   1.0401 B( 22-C , 23-H ) :   0.9358
B( 22-C , 24-H ) :   0.9309 B( 22-C , 25-C ) :   1.0745 B( 25-C , 26-H ) :   0.9564
B( 25-C , 27-H ) :   0.9511 B( 25-C , 28-C ) :   1.0817 B( 28-C , 29-H ) :   0.9702
B( 28-C , 30-H ) :   0.9709 B( 28-C , 31-H ) :   0.9688

Dispersion correction           -0.016139478
FINAL SINGLE POINT ENERGY     -1339.860585793161

DIPOLE MOMENT
-------------
                                X             Y             Z
Electronic contribution:    -22.67669       5.59303     -16.02858
Nuclear contribution   :     23.12553      -5.64172      16.48782
                        -----------------------------------------
Total Dipole Moment    :      0.44884      -0.04868       0.45924
                        -----------------------------------------
Magnitude (a.u.)       :      0.64399
Magnitude (Debye)      :      1.63690

Rotational constants in cm-1:     0.019134     0.009794     0.007797
Rotational constants in MHz :   573.620103   293.620747   233.745890

                             ****ORCA TERMINATED NORMALLY****
TOTAL RUN TIME: 0 days 0 hours 0 minutes 34 seconds 456 msec
