                         Program Version 4.2.1 -  RELEASE  -
|  1> ! wB97X-D3 SP def2-SVP
|  2> %pal
|  3> nprocs 16
|  4> end
|  5>
|  6> * xyz 0 1
|  7> S 	 -42.001 	 17.8486 	 78.5333
|  8> C 	 -42.0046 	 16.106 	 78.8888
|  9> C 	 -43.1829 	 15.4895 	 78.4546
| 10> C 	 -44.0118 	 16.3839 	 77.6944
| 11> C 	 -43.555 	 17.665 	 77.6512
| 12> H 	 -44.8522 	 16.1273 	 77.1266
| 13> C 	 -43.5392 	 14.0179 	 78.5149
| 14> H 	 -44.6701 	 13.7925 	 78.4882
| 15> H 	 -43.1548 	 13.5122 	 79.4667
| 16> C 	 -43.0202 	 13.2928 	 77.2372
| 17> H 	 -41.9872 	 13.6177 	 76.9107
| 18> H 	 -42.8431 	 12.2184 	 77.3888
| 19> C 	 -43.9697 	 13.3395 	 75.978
| 20> H 	 -43.5012 	 12.7506 	 75.117
| 21> H 	 -44.992 	 12.8762 	 75.9581
| 22> H 	 -44.1827 	 14.3544 	 75.65
| 23> S 	 -42.8119 	 19.6219 	 75.8816
| 24> C 	 -44.0001 	 20.5787 	 75.0604
| 25> C 	 -45.2004 	 20.1712 	 75.4437
| 26> C 	 -45.2728 	 19.1155 	 76.3652
| 27> C 	 -44.0187 	 18.7537 	 76.7551
| 28> H 	 -46.1224 	 20.6731 	 75.003
| 29> C 	 -46.5635 	 18.7116 	 77.0723
| 30> H 	 -46.6758 	 17.635 	 77.1819
| 31> H 	 -47.3674 	 19.1553 	 76.4362
| 32> C 	 -46.8165 	 19.2097 	 78.5079
| 33> H 	 -46.093 	 18.8134 	 79.3192
| 34> H 	 -47.7327 	 18.8155 	 78.9537
| 35> C 	 -46.7982 	 20.7276 	 78.5992
| 36> H 	 -45.7698 	 21.1211 	 78.4707
| 37> H 	 -47.0992 	 20.9018 	 79.6117
| 38> H 	 -47.5966 	 21.2038 	 78.003
| 39> H 	 -41.135 	 15.6514 	 79.2884
| 40> H 	 -43.71 	 21.2755 	 74.3019
| 41> *
| 42>
| 43>                          ****END OF INPUT****

CARTESIAN COORDINATES (ANGSTROEM)
---------------------------------
  S    -42.001000   17.848600   78.533300
  C    -42.004600   16.106000   78.888800
  C    -43.182900   15.489500   78.454600
  C    -44.011800   16.383900   77.694400
  C    -43.555000   17.665000   77.651200
  H    -44.852200   16.127300   77.126600
  C    -43.539200   14.017900   78.514900
  H    -44.670100   13.792500   78.488200
  H    -43.154800   13.512200   79.466700
  C    -43.020200   13.292800   77.237200
  H    -41.987200   13.617700   76.910700
  H    -42.843100   12.218400   77.388800
  C    -43.969700   13.339500   75.978000
  H    -43.501200   12.750600   75.117000
  H    -44.992000   12.876200   75.958100
  H    -44.182700   14.354400   75.650000
  S    -42.811900   19.621900   75.881600
  C    -44.000100   20.578700   75.060400
  C    -45.200400   20.171200   75.443700
  C    -45.272800   19.115500   76.365200
  C    -44.018700   18.753700   76.755100
  H    -46.122400   20.673100   75.003000
  C    -46.563500   18.711600   77.072300
  H    -46.675800   17.635000   77.181900
  H    -47.367400   19.155300   76.436200
  C    -46.816500   19.209700   78.507900
  H    -46.093000   18.813400   79.319200
  H    -47.732700   18.815500   78.953700
  C    -46.798200   20.727600   78.599200
  H    -45.769800   21.121100   78.470700
  H    -47.099200   20.901800   79.611700
  H    -47.596600   21.203800   78.003000
  H    -41.135000   15.651400   79.288400
  H    -43.710000   21.275500   74.301900

 Total Charge           Charge          ....    0
 Multiplicity           Mult            ....    1
 Number of Electrons    NEL             ....  134
 Basis Dimension        Dim             ....  322

ORBITAL ENERGIES
----------------

  NO   OCC          E(Eh)            E(eV)
   0   2.0000     -88.966450     -2420.9002
   1   2.0000     -88.961100     -2420.7546
   2   2.0000     -10.332660      -281.1660
   3   2.0000     -10.324471      -280.9431
   4   2.0000     -10.318258      -280.7741
   5   2.0000     -10.309352      -280.5317
   6   2.0000     -10.309227      -280.5283
   7   2.0000     -10.308790      -280.5164
   8   2.0000     -10.298479      -280.2359
   9   2.0000     -10.296778      -280.1896
  10   2.0000     -10.295180      -280.1461
  11   2.0000     -10.291342      -280.0417
  12   2.0000     -10.290865      -280.0287
  13   2.0000     -10.287905      -279.9481
  14   2.0000     -10.287873      -279.9473
  15   2.0000     -10.270699      -279.4799
  16   2.0000      -8.080179      -219.8729
  17   2.0000      -8.077124      -219.7897
  18   2.0000      -6.038762      -164.3231
  19   2.0000      -6.035427      -164.2323
  20   2.0000      -6.034960      -164.2196
  21   2.0000      -6.031435      -164.1237
  22   2.0000      -6.030796      -164.1063
  23   2.0000      -6.028008      -164.0304
  24   2.0000      -1.014844       -27.6153
  25   2.0000      -0.984547       -26.7909
  26   2.0000      -0.907064       -24.6825
  27   2.0000      -0.903383       -24.5823
  28   2.0000      -0.867902       -23.6168
  29   2.0000      -0.851323       -23.1657
  30   2.0000      -0.840915       -22.8824
  31   2.0000      -0.817072       -22.2337
  32   2.0000      -0.781489       -21.2654
  33   2.0000      -0.771341       -20.9893
  34   2.0000      -0.704818       -19.1791
  35   2.0000      -0.699192       -19.0260
  36   2.0000      -0.685326       -18.6487
  37   2.0000      -0.664370       -18.0784
  38   2.0000      -0.646357       -17.5883
  39   2.0000      -0.619593       -16.8600
  40   2.0000      -0.594897       -16.1880
  41   2.0000      -0.564642       -15.3647
  42   2.0000      -0.552607       -15.0372
  43   2.0000      -0.551510       -15.0073
  44   2.0000      -0.543461       -14.7883
  45   2.0000      -0.528078       -14.3697
  46   2.0000      -0.511140       -13.9088
  47   2.0000      -0.509539       -13.8653
  48   2.0000      -0.501076       -13.6350
  49   2.0000      -0.494106       -13.4453
  50   2.0000      -0.492870       -13.4117
  51   2.0000      -0.478220       -13.0130
  52   2.0000      -0.475349       -12.9349
  53   2.0000      -0.468421       -12.7464
  54   2.0000      -0.453056       -12.3283
  55   2.0000      -0.445263       -12.1162
  56   2.0000      -0.438207       -11.9242
  57   2.0000      -0.430985       -11.7277
  58   2.0000      -0.430306       -11.7092
  59   2.0000      -0.422811       -11.5053
  60   2.0000      -0.419777       -11.4227
  61   2.0000      -0.409754       -11.1500
  62   2.0000      -0.404327       -11.0023
  63   2.0000      -0.355881        -9.6840
  64   2.0000      -0.333275        -9.0689
  65   2.0000      -0.329647        -8.9701
  66   2.0000      -0.291759        -7.9392
  67   0.0000       0.025379         0.6906
  68   0.0000       0.077184         2.1003
  69   0.0000       0.101665         2.7664
  70   0.0000       0.122224         3.3259
  71   0.0000       0.138639         3.7726

MULLIKEN ATOMIC CHARGES
-----------------------
   0 S :    0.087097
   1 C :   -0.124413
   2 C :   -0.035706
   3 C :    0.026008
   4 C :   -0.121276
   5 H :   -0.000720
   6 C :    0.012013
   7 H :    0.048205
   8 H :    0.048426
   9 C :   -0.070238
  10 H :    0.041216
  11 H :    0.031978
  12 C :   -0.111008
  13 H :    0.041811
  14 H :    0.035176
  15 H :    0.036665
  16 S :    0.096940
  17 C :   -0.089353
  18 C :   -0.043144
  19 C :   -0.039922
  20 C :   -0.141676
  21 H :    0.033317
  22 C :    0.081866
  23 H :    0.025385
  24 H :    0.023880
  25 C :   -0.112259
  26 H :    0.040551
  27 H :    0.022274
  28 C :   -0.043077
  29 H :    0.058887
  30 H :    0.015887
  31 H :    0.028525
  32 H :    0.043677
  33 H :    0.053011
Sum of atomic charges:   -0.0000000

LOEWDIN ATOMIC CHARGES
----------------------
   0 S :    0.367997
   1 C :   -0.178500
   2 C :   -0.055790
   3 C :   -0.054749
   4 C :   -0.167486
   5 H :    0.023005
   6 C :   -0.044129
   7 H :    0.042505
   8 H :    0.039705
   9 C :   -0.046417
  10 H :    0.032207
  11 H :    0.025116
  12 C :   -0.087304
  13 H :    0.036233
  14 H :    0.027479
  15 H :    0.019450
  16 S :    0.418290
  17 C :   -0.187919
  18 C :   -0.078494
  19 C :   -0.074780
  20 C :   -0.194125
  21 H :    0.040368
  22 C :   -0.031940
  23 H :    0.028479
  24 H :    0.033980
  25 C :   -0.049811
  26 H :    0.034134
  27 H :    0.022454
  28 C :   -0.070380
  29 H :    0.033956
  30 H :    0.022709
  31 H :    0.024133
  32 H :    0.020290
  33 H :    0.029332

  Mayer bond orders larger than 0.100000
B(  0-S ,  1-C ) :   1.1271 B(  0-S ,  4-C ) :   1.1294 B(  1-C ,  2-C ) :   1.6148
B(  1-C , 32-H ) :   0.9773 B(  2-C ,  3-C ) :   1.2100 B(  2-C ,  6-C ) :   1.0336
B(  3-C ,  4-C ) :   1.6172 B(  3-C ,  5-H ) :   0.9919 B(  4-C , 20-C ) :   1.0224
B(  6-C ,  7-H ) :   0.9490 B(  6-C ,  8-H ) :   0.9452 B(  6-C ,  9-C ) :   1.0407
B(  9-C , 10-H ) :   0.9572 B(  9-C , 11-H ) :   0.9587 B(  9-C , 12-C ) :   1.0683
B( 12-C , 13-H ) :   0.9727 B( 12-C , 14-H ) :   0.9751 B( 12-C , 15-H ) :   0.9755
B( 16-S , 17-C ) :   1.1419 B( 16-S , 20-C ) :   1.1678 B( 17-C , 18-C ) :   1.6060
B( 17-C , 33-H ) :   0.9765 B( 18-C , 19-C ) :   1.2605 B( 18-C , 21-H ) :   0.9750
B( 19-C , 20-C ) :   1.5826 B( 19-C , 22-C ) :   1.0479 B( 22-C , 23-H ) :   0.9295
B( 22-C , 24-H ) :   0.9354 B( 22-C , 25-C ) :   1.0716 B( 25-C , 26-H ) :   0.9499
B( 25-C , 27-H ) :   0.9553 B( 25-C , 28-C ) :   1.0830 B( 28-C , 29-H ) :   0.9733
B( 28-C , 30-H ) :   0.9705 B( 28-C , 31-H ) :   0.9738

Dispersion correction           -0.015069822
FINAL SINGLE POINT ENERGY     -1339.871780109461

DIPOLE MOMENT
-------------
                                X             Y             Z
Electronic contribution:     16.96877      12.97871      -1.60526
Nuclear contribution   :    -17.37313     -13.37789       1.49619
                        -----------------------------------------
Total Dipole Moment    :     -0.40436      -0.39918      -0.10907
                        -----------------------------------------
Magnitude (a.u.)       :      0.57857
Magnitude (Debye)      :      1.47062

Rotational constants in cm-1:     0.019499     0.008642     0.008007
Rotational constants in MHz :   584.557406   259.091788   240.050992

                             ****ORCA TERMINATED NORMALLY****
TOTAL RUN TIME: 0 days 0 hours 0 minutes 28 seconds 988 msec
