                         Program Version 4.2.1 -  RELEASE  -
|  1> ! wB97X-D3 SP def2-SVP
|  2> %pal
|  3> nprocs 16
|  4> end
|  5>
|  6> * xyz 0 1
|  7> S 	 -30.1687 	 54.5012 	 112.678
|  8> C 	 -28.912 	 55.2189 	 111.697
|  9> C 	 -29.243 	 55.0865 	 110.346
| 10> C 	 -30.6235 	 54.7681 	 110.167
| 11> C 	 -31.2815 	 54.4078 	 111.332
| 12> H 	 -31.2475 	 54.8527 	 109.252
| 13> C 	 -28.3006 	 55.4728 	 109.246
| 14> H 	 -27.9413 	 54.5488 	 108.864
| 15> H 	 -27.4204 	 55.8018 	 109.784
| 16> C 	 -28.6456 	 56.6114 	 108.247
| 17> H 	 -29.6446 	 56.4264 	 107.964
| 18> H 	 -28.6922 	 57.5856 	 108.681
| 19> C 	 -27.7847 	 56.6458 	 106.988
| 20> H 	 -26.7994 	 56.8248 	 107.321
| 21> H 	 -27.9741 	 55.755 	 106.418
| 22> H 	 -28.1509 	 57.5048 	 106.373
| 23> S 	 -33.6654 	 55.3385 	 112.251
| 24> C 	 -35.1521 	 54.4203 	 112.013
| 25> C 	 -34.9004 	 53.3243 	 111.2
| 26> C 	 -33.5179 	 53.1276 	 110.942
| 27> C 	 -32.6894 	 54.1428 	 111.457
| 28> H 	 -35.7012 	 52.7296 	 110.733
| 29> C 	 -33.2453 	 51.9707 	 110.076
| 30> H 	 -34.1444 	 51.42 	 110.097
| 31> H 	 -32.5474 	 51.2793 	 110.612
| 32> C 	 -32.8092 	 52.2127 	 108.654
| 33> H 	 -32.8988 	 51.3032 	 108.055
| 34> H 	 -31.787 	 52.4899 	 108.653
| 35> C 	 -33.663 	 53.2499 	 107.992
| 36> H 	 -33.3396 	 54.2672 	 108.336
| 37> H 	 -34.7248 	 53.0775 	 108.092
| 38> H 	 -33.6222 	 53.167 	 106.919
| 39> H 	 -27.893 	 55.3635 	 112.022
| 40> H 	 -36.1118 	 54.7154 	 112.392
| 41> *
| 42>
| 43>                          ****END OF INPUT****

CARTESIAN COORDINATES (ANGSTROEM)
---------------------------------
  S    -30.168700   54.501200  112.678000
  C    -28.912000   55.218900  111.697000
  C    -29.243000   55.086500  110.346000
  C    -30.623500   54.768100  110.167000
  C    -31.281500   54.407800  111.332000
  H    -31.247500   54.852700  109.252000
  C    -28.300600   55.472800  109.246000
  H    -27.941300   54.548800  108.864000
  H    -27.420400   55.801800  109.784000
  C    -28.645600   56.611400  108.247000
  H    -29.644600   56.426400  107.964000
  H    -28.692200   57.585600  108.681000
  C    -27.784700   56.645800  106.988000
  H    -26.799400   56.824800  107.321000
  H    -27.974100   55.755000  106.418000
  H    -28.150900   57.504800  106.373000
  S    -33.665400   55.338500  112.251000
  C    -35.152100   54.420300  112.013000
  C    -34.900400   53.324300  111.200000
  C    -33.517900   53.127600  110.942000
  C    -32.689400   54.142800  111.457000
  H    -35.701200   52.729600  110.733000
  C    -33.245300   51.970700  110.076000
  H    -34.144400   51.420000  110.097000
  H    -32.547400   51.279300  110.612000
  C    -32.809200   52.212700  108.654000
  H    -32.898800   51.303200  108.055000
  H    -31.787000   52.489900  108.653000
  C    -33.663000   53.249900  107.992000
  H    -33.339600   54.267200  108.336000
  H    -34.724800   53.077500  108.092000
  H    -33.622200   53.167000  106.919000
  H    -27.893000   55.363500  112.022000
  H    -36.111800   54.715400  112.392000

 Total Charge           Charge          ....    0
 Multiplicity           Mult            ....    1
 Number of Electrons    NEL             ....  134
 Basis Dimension        Dim             ....  322

ORBITAL ENERGIES
----------------

  NO   OCC          E(Eh)            E(eV)
   0   2.0000     -88.965145     -2420.8647
   1   2.0000     -88.965114     -2420.8638
   2   2.0000     -10.327399      -281.0228
   3   2.0000     -10.324933      -280.9557
   4   2.0000     -10.317780      -280.7611
   5   2.0000     -10.314455      -280.6706
   6   2.0000     -10.302982      -280.3584
   7   2.0000     -10.298970      -280.2492
   8   2.0000     -10.296905      -280.1930
   9   2.0000     -10.292618      -280.0764
  10   2.0000     -10.286878      -279.9202
  11   2.0000     -10.281082      -279.7625
  12   2.0000     -10.280255      -279.7400
  13   2.0000     -10.277354      -279.6610
  14   2.0000     -10.277301      -279.6596
  15   2.0000     -10.273770      -279.5635
  16   2.0000      -8.079837      -219.8635
  17   2.0000      -8.079773      -219.8618
  18   2.0000      -6.038297      -164.3104
  19   2.0000      -6.038276      -164.3098
  20   2.0000      -6.034268      -164.2008
  21   2.0000      -6.034140      -164.1973
  22   2.0000      -6.030719      -164.1042
  23   2.0000      -6.030690      -164.1034
  24   2.0000      -1.007173       -27.4066
  25   2.0000      -0.984628       -26.7931
  26   2.0000      -0.919696       -25.0262
  27   2.0000      -0.912431       -24.8285
  28   2.0000      -0.873514       -23.7695
  29   2.0000      -0.851753       -23.1774
  30   2.0000      -0.849729       -23.1223
  31   2.0000      -0.816250       -22.2113
  32   2.0000      -0.783102       -21.3093
  33   2.0000      -0.771062       -20.9817
  34   2.0000      -0.715493       -19.4695
  35   2.0000      -0.704657       -19.1747
  36   2.0000      -0.688771       -18.7424
  37   2.0000      -0.664525       -18.0826
  38   2.0000      -0.644150       -17.5282
  39   2.0000      -0.615198       -16.7404
  40   2.0000      -0.590592       -16.0708
  41   2.0000      -0.568824       -15.4785
  42   2.0000      -0.566727       -15.4214
  43   2.0000      -0.560910       -15.2631
  44   2.0000      -0.552126       -15.0241
  45   2.0000      -0.530798       -14.4437
  46   2.0000      -0.521096       -14.1798
  47   2.0000      -0.515104       -14.0167
  48   2.0000      -0.505425       -13.7533
  49   2.0000      -0.496685       -13.5155
  50   2.0000      -0.489257       -13.3134
  51   2.0000      -0.483669       -13.1613
  52   2.0000      -0.473009       -12.8712
  53   2.0000      -0.467537       -12.7223
  54   2.0000      -0.461542       -12.5592
  55   2.0000      -0.446067       -12.1381
  56   2.0000      -0.441178       -12.0051
  57   2.0000      -0.440099       -11.9757
  58   2.0000      -0.430048       -11.7022
  59   2.0000      -0.420835       -11.4515
  60   2.0000      -0.418567       -11.3898
  61   2.0000      -0.414571       -11.2810
  62   2.0000      -0.410167       -11.1612
  63   2.0000      -0.340255        -9.2588
  64   2.0000      -0.325988        -8.8706
  65   2.0000      -0.325259        -8.8507
  66   2.0000      -0.301149        -8.1947
  67   0.0000       0.030497         0.8299
  68   0.0000       0.061133         1.6635
  69   0.0000       0.115696         3.1482
  70   0.0000       0.119309         3.2466
  71   0.0000       0.131675         3.5831

MULLIKEN ATOMIC CHARGES
-----------------------
   0 S :    0.119237
   1 C :   -0.111921
   2 C :   -0.126434
   3 C :    0.032283
   4 C :   -0.177309
   5 H :    0.025536
   6 C :    0.103583
   7 H :    0.023411
   8 H :   -0.007357
   9 C :   -0.050440
  10 H :    0.006818
  11 H :    0.026078
  12 C :   -0.032880
  13 H :    0.030887
  14 H :    0.035037
  15 H :    0.038371
  16 S :    0.116739
  17 C :   -0.088589
  18 C :   -0.052742
  19 C :   -0.051426
  20 C :   -0.177774
  21 H :    0.035317
  22 C :    0.100405
  23 H :   -0.008176
  24 H :    0.033854
  25 C :   -0.031635
  26 H :    0.023456
  27 H :    0.022146
  28 C :   -0.049894
  29 H :    0.049921
  30 H :    0.015818
  31 H :    0.020181
  32 H :    0.054783
  33 H :    0.052715
Sum of atomic charges:    0.0000000

LOEWDIN ATOMIC CHARGES
----------------------
   0 S :    0.410176
   1 C :   -0.198768
   2 C :   -0.061977
   3 C :   -0.063244
   4 C :   -0.204192
   5 H :    0.036283
   6 C :   -0.035866
   7 H :    0.031023
   8 H :    0.027743
   9 C :   -0.033977
  10 H :    0.013452
  11 H :    0.024005
  12 C :   -0.054267
  13 H :    0.019190
  14 H :    0.024554
  15 H :    0.034458
  16 S :    0.420217
  17 C :   -0.178023
  18 C :   -0.074665
  19 C :   -0.053471
  20 C :   -0.215366
  21 H :    0.035952
  22 C :   -0.034655
  23 H :    0.022194
  24 H :    0.039023
  25 C :   -0.037872
  26 H :    0.027391
  27 H :    0.018040
  28 C :   -0.067651
  29 H :    0.029494
  30 H :    0.023354
  31 H :    0.023915
  32 H :    0.027641
  33 H :    0.025890

  Mayer bond orders larger than 0.100000
B(  0-S ,  1-C ) :   1.1452 B(  0-S ,  4-C ) :   1.1563 B(  1-C ,  2-C ) :   1.6038
B(  1-C , 32-H ) :   0.9600 B(  2-C ,  3-C ) :   1.2320 B(  2-C ,  6-C ) :   1.0370
B(  3-C ,  4-C ) :   1.5879 B(  3-C ,  5-H ) :   0.9768 B(  4-C , 20-C ) :   1.0432
B(  6-C ,  7-H ) :   0.9278 B(  6-C ,  8-H ) :   0.9258 B(  6-C ,  9-C ) :   1.0437
B(  9-C , 10-H ) :   0.9594 B(  9-C , 11-H ) :   0.9558 B(  9-C , 12-C ) :   1.0859
B( 12-C , 13-H ) :   0.9793 B( 12-C , 14-H ) :   0.9774 B( 12-C , 15-H ) :   0.9725
B( 16-S , 17-C ) :   1.1702 B( 16-S , 20-C ) :   1.1573 B( 17-C , 18-C ) :   1.5713
B( 17-C , 20-C ) :   0.1066 B( 17-C , 33-H ) :   0.9718 B( 18-C , 19-C ) :   1.2779
B( 18-C , 21-H ) :   0.9801 B( 19-C , 20-C ) :   1.5497 B( 19-C , 22-C ) :   1.0542
B( 22-C , 23-H ) :   0.9234 B( 22-C , 24-H ) :   0.9201 B( 22-C , 25-C ) :   1.0796
B( 25-C , 26-H ) :   0.9503 B( 25-C , 27-H ) :   0.9506 B( 25-C , 28-C ) :   1.0890
B( 28-C , 29-H ) :   0.9640 B( 28-C , 30-H ) :   0.9701 B( 28-C , 31-H ) :   0.9691

Dispersion correction           -0.015031743
FINAL SINGLE POINT ENERGY     -1339.866910997906

DIPOLE MOMENT
-------------
                                X             Y             Z
Electronic contribution:     -7.15565       1.44465      27.25990
Nuclear contribution   :      7.16962      -1.58730     -27.96508
                        -----------------------------------------
Total Dipole Moment    :      0.01397      -0.14265      -0.70518
                        -----------------------------------------
Magnitude (a.u.)       :      0.71960
Magnitude (Debye)      :      1.82908

Rotational constants in cm-1:     0.019101     0.008795     0.007112
Rotational constants in MHz :   572.636236   263.673437   213.204397

                             ****ORCA TERMINATED NORMALLY****
TOTAL RUN TIME: 0 days 0 hours 0 minutes 29 seconds 369 msec
