                         Program Version 4.2.1 -  RELEASE  -
|  1> ! wB97X-D3 SP def2-SVP
|  2> %pal
|  3> nprocs 16
|  4> end
|  5>
|  6> * xyz 0 1
|  7> S 	 -100.271 	 48.0618 	 119.647
|  8> C 	 -101.462 	 47.1182 	 118.92
|  9> C 	 -101.524 	 47.3589 	 117.599
| 10> C 	 -100.756 	 48.4286 	 117.225
| 11> C 	 -99.8647 	 48.8692 	 118.166
| 12> H 	 -100.722 	 48.8777 	 116.211
| 13> C 	 -102.332 	 46.5367 	 116.579
| 14> H 	 -102.706 	 45.6911 	 117.078
| 15> H 	 -101.619 	 46.1803 	 115.825
| 16> C 	 -103.501 	 47.319 	 115.995
| 17> H 	 -104.261 	 47.2982 	 116.792
| 18> H 	 -103.357 	 48.3672 	 115.718
| 19> C 	 -103.97 	 46.7357 	 114.615
| 20> H 	 -104.671 	 47.436 	 114.256
| 21> H 	 -103.14 	 46.6455 	 113.827
| 22> H 	 -104.501 	 45.7772 	 114.748
| 23> S 	 -97.5714 	 49.5352 	 116.81
| 24> C 	 -96.8679 	 51.0917 	 117.129
| 25> C 	 -97.5256 	 51.8025 	 118.063
| 26> C 	 -98.6373 	 51.0903 	 118.602
| 27> C 	 -98.7862 	 49.8076 	 118.007
| 28> H 	 -97.1598 	 52.8281 	 118.291
| 29> C 	 -99.4835 	 51.8449 	 119.568
| 30> H 	 -98.8719 	 52.6381 	 119.877
| 31> H 	 -99.6426 	 51.0972 	 120.453
| 32> C 	 -100.755 	 52.5912 	 118.99
| 33> H 	 -101.368 	 52.95 	 119.824
| 34> H 	 -101.308 	 51.8578 	 118.549
| 35> C 	 -100.441 	 53.7629 	 118.075
| 36> H 	 -100.3 	 54.6695 	 118.679
| 37> H 	 -101.328 	 54.0039 	 117.385
| 38> H 	 -99.5807 	 53.6583 	 117.359
| 39> H 	 -101.965 	 46.3628 	 119.452
| 40> H 	 -95.9812 	 51.479 	 116.654
| 41> *
| 42>
| 43>                          ****END OF INPUT****

CARTESIAN COORDINATES (ANGSTROEM)
---------------------------------
  S    -100.271000   48.061800  119.647000
  C    -101.462000   47.118200  118.920000
  C    -101.524000   47.358900  117.599000
  C    -100.756000   48.428600  117.225000
  C    -99.864700   48.869200  118.166000
  H    -100.722000   48.877700  116.211000
  C    -102.332000   46.536700  116.579000
  H    -102.706000   45.691100  117.078000
  H    -101.619000   46.180300  115.825000
  C    -103.501000   47.319000  115.995000
  H    -104.261000   47.298200  116.792000
  H    -103.357000   48.367200  115.718000
  C    -103.970000   46.735700  114.615000
  H    -104.671000   47.436000  114.256000
  H    -103.140000   46.645500  113.827000
  H    -104.501000   45.777200  114.748000
  S    -97.571400   49.535200  116.810000
  C    -96.867900   51.091700  117.129000
  C    -97.525600   51.802500  118.063000
  C    -98.637300   51.090300  118.602000
  C    -98.786200   49.807600  118.007000
  H    -97.159800   52.828100  118.291000
  C    -99.483500   51.844900  119.568000
  H    -98.871900   52.638100  119.877000
  H    -99.642600   51.097200  120.453000
  C    -100.755000   52.591200  118.990000
  H    -101.368000   52.950000  119.824000
  H    -101.308000   51.857800  118.549000
  C    -100.441000   53.762900  118.075000
  H    -100.300000   54.669500  118.679000
  H    -101.328000   54.003900  117.385000
  H    -99.580700   53.658300  117.359000
  H    -101.965000   46.362800  119.452000
  H    -95.981200   51.479000  116.654000

 Total Charge           Charge          ....    0
 Multiplicity           Mult            ....    1
 Number of Electrons    NEL             ....  134
 Basis Dimension        Dim             ....  322

ORBITAL ENERGIES
----------------

  NO   OCC          E(Eh)            E(eV)
   0   2.0000     -88.967974     -2420.9417
   1   2.0000     -88.959938     -2420.7230
   2   2.0000     -10.324772      -280.9513
   3   2.0000     -10.320817      -280.8437
   4   2.0000     -10.310180      -280.5543
   5   2.0000     -10.301499      -280.3180
   6   2.0000     -10.300149      -280.2813
   7   2.0000     -10.290437      -280.0170
   8   2.0000     -10.289492      -279.9913
   9   2.0000     -10.288519      -279.9648
  10   2.0000     -10.287312      -279.9320
  11   2.0000     -10.287147      -279.9275
  12   2.0000     -10.285520      -279.8832
  13   2.0000     -10.284232      -279.8482
  14   2.0000     -10.282425      -279.7990
  15   2.0000     -10.280311      -279.7415
  16   2.0000      -8.083110      -219.9526
  17   2.0000      -8.076321      -219.7679
  18   2.0000      -6.041525      -164.3982
  19   2.0000      -6.037517      -164.2892
  20   2.0000      -6.034609      -164.2101
  21   2.0000      -6.034001      -164.1935
  22   2.0000      -6.030475      -164.0976
  23   2.0000      -6.027347      -164.0125
  24   2.0000      -1.017891       -27.6982
  25   2.0000      -0.994709       -27.0674
  26   2.0000      -0.909748       -24.7555
  27   2.0000      -0.906446       -24.6656
  28   2.0000      -0.875578       -23.8257
  29   2.0000      -0.851192       -23.1621
  30   2.0000      -0.846637       -23.0382
  31   2.0000      -0.817418       -22.2431
  32   2.0000      -0.783075       -21.3086
  33   2.0000      -0.767031       -20.8720
  34   2.0000      -0.713650       -19.4194
  35   2.0000      -0.696426       -18.9507
  36   2.0000      -0.690203       -18.7814
  37   2.0000      -0.662554       -18.0290
  38   2.0000      -0.642512       -17.4836
  39   2.0000      -0.623384       -16.9632
  40   2.0000      -0.587055       -15.9746
  41   2.0000      -0.571065       -15.5395
  42   2.0000      -0.560857       -15.2617
  43   2.0000      -0.549256       -14.9460
  44   2.0000      -0.542865       -14.7721
  45   2.0000      -0.528100       -14.3703
  46   2.0000      -0.519251       -14.1295
  47   2.0000      -0.509233       -13.8569
  48   2.0000      -0.500891       -13.6299
  49   2.0000      -0.492817       -13.4102
  50   2.0000      -0.487637       -13.2693
  51   2.0000      -0.480333       -13.0705
  52   2.0000      -0.474868       -12.9218
  53   2.0000      -0.467468       -12.7204
  54   2.0000      -0.466835       -12.7032
  55   2.0000      -0.443851       -12.0778
  56   2.0000      -0.442025       -12.0281
  57   2.0000      -0.441033       -12.0011
  58   2.0000      -0.433620       -11.7994
  59   2.0000      -0.425773       -11.5859
  60   2.0000      -0.416863       -11.3434
  61   2.0000      -0.414830       -11.2881
  62   2.0000      -0.405765       -11.0414
  63   2.0000      -0.343312        -9.3420
  64   2.0000      -0.335291        -9.1237
  65   2.0000      -0.326411        -8.8821
  66   2.0000      -0.293354        -7.9826
  67   0.0000       0.037256         1.0138
  68   0.0000       0.072779         1.9804
  69   0.0000       0.118682         3.2295
  70   0.0000       0.127574         3.4715
  71   0.0000       0.132403         3.6029

MULLIKEN ATOMIC CHARGES
-----------------------
   0 S :    0.113636
   1 C :   -0.113348
   2 C :   -0.085632
   3 C :    0.003954
   4 C :   -0.165512
   5 H :    0.017699
   6 C :    0.132680
   7 H :    0.000042
   8 H :    0.032896
   9 C :   -0.109092
  10 H :    0.031944
  11 H :    0.037254
  12 C :   -0.062104
  13 H :    0.023589
  14 H :    0.048697
  15 H :    0.036791
  16 S :    0.129362
  17 C :   -0.087701
  18 C :   -0.053495
  19 C :   -0.045155
  20 C :   -0.169249
  21 H :    0.033762
  22 C :    0.058727
  23 H :   -0.000429
  24 H :    0.049382
  25 C :    0.006965
  26 H :    0.032742
  27 H :    0.011513
  28 C :   -0.111335
  29 H :    0.035693
  30 H :    0.042933
  31 H :    0.050844
  32 H :    0.026494
  33 H :    0.045453
Sum of atomic charges:   -0.0000000

LOEWDIN ATOMIC CHARGES
----------------------
   0 S :    0.436649
   1 C :   -0.207663
   2 C :   -0.073466
   3 C :   -0.069688
   4 C :   -0.204699
   5 H :    0.034838
   6 C :   -0.019617
   7 H :    0.021748
   8 H :    0.031756
   9 C :   -0.042077
  10 H :    0.028413
  11 H :    0.024463
  12 C :   -0.068777
  13 H :    0.017773
  14 H :    0.034710
  15 H :    0.024416
  16 S :    0.429582
  17 C :   -0.188339
  18 C :   -0.080141
  19 C :   -0.052971
  20 C :   -0.216842
  21 H :    0.040247
  22 C :   -0.035750
  23 H :    0.019290
  24 H :    0.042770
  25 C :   -0.028728
  26 H :    0.030782
  27 H :    0.010556
  28 C :   -0.079152
  29 H :    0.025488
  30 H :    0.037405
  31 H :    0.030515
  32 H :    0.019087
  33 H :    0.027423

  Mayer bond orders larger than 0.100000
B(  0-S ,  1-C ) :   1.1636 B(  0-S ,  4-C ) :   1.1639 B(  1-C ,  2-C ) :   1.5884
B(  1-C , 32-H ) :   0.9757 B(  2-C ,  3-C ) :   1.2736 B(  2-C ,  6-C ) :   1.0131
B(  3-C ,  4-C ) :   1.5633 B(  3-C ,  5-H ) :   0.9923 B(  4-C , 20-C ) :   1.0488
B(  6-C ,  7-H ) :   0.9354 B(  6-C ,  8-H ) :   0.9459 B(  6-C ,  9-C ) :   1.0482
B(  9-C , 10-H ) :   0.9543 B(  9-C , 11-H ) :   0.9710 B(  9-C , 12-C ) :   1.0691
B( 12-C , 13-H ) :   0.9778 B( 12-C , 14-H ) :   0.9760 B( 12-C , 15-H ) :   0.9756
B( 16-S , 17-C ) :   1.1590 B( 16-S , 20-C ) :   1.1531 B( 17-C , 18-C ) :   1.6252
B( 17-C , 33-H ) :   0.9617 B( 18-C , 19-C ) :   1.2563 B( 18-C , 21-H ) :   0.9790
B( 19-C , 20-C ) :   1.5470 B( 19-C , 22-C ) :   1.0525 B( 22-C , 23-H ) :   0.9286
B( 22-C , 24-H ) :   0.9289 B( 22-C , 25-C ) :   1.0529 B( 25-C , 26-H ) :   0.9553
B( 25-C , 27-H ) :   0.9628 B( 25-C , 28-C ) :   1.0668 B( 28-C , 29-H ) :   0.9756
B( 28-C , 30-H ) :   0.9725 B( 28-C , 31-H ) :   0.9751

Dispersion correction           -0.014456981
FINAL SINGLE POINT ENERGY     -1339.867034936028

DIPOLE MOMENT
-------------
                                X             Y             Z
Electronic contribution:     19.21307      -7.65448       8.49200
Nuclear contribution   :    -19.51300       7.90234      -8.72692
                        -----------------------------------------
Total Dipole Moment    :     -0.29994       0.24786      -0.23492
                        -----------------------------------------
Magnitude (a.u.)       :      0.45452
Magnitude (Debye)      :      1.15529

Rotational constants in cm-1:     0.019297     0.007707     0.007397
Rotational constants in MHz :   578.512486   231.045381   221.755057

                             ****ORCA TERMINATED NORMALLY****
TOTAL RUN TIME: 0 days 0 hours 0 minutes 33 seconds 188 msec
