                         Program Version 4.2.1 -  RELEASE  -
|  1> ! wB97X-D3 SP def2-SVP
|  2> %pal
|  3> nprocs 16
|  4> end
|  5>
|  6> * xyz 0 1
|  7> S 	 -49.6179 	 35.1079 	 96.4509
|  8> C 	 -51.2505 	 34.8268 	 95.9459
|  9> C 	 -51.9343 	 36.0036 	 95.6095
| 10> C 	 -51.157 	 37.1312 	 95.9084
| 11> C 	 -49.9124 	 36.8809 	 96.5324
| 12> H 	 -51.4014 	 38.1955 	 95.8111
| 13> C 	 -53.4184 	 35.9306 	 95.1497
| 14> H 	 -53.577 	 35.0176 	 94.587
| 15> H 	 -53.5224 	 36.8006 	 94.4432
| 16> C 	 -54.508 	 35.9652 	 96.2267
| 17> H 	 -55.5237 	 35.8499 	 95.7504
| 18> H 	 -54.2699 	 35.0461 	 96.8892
| 19> C 	 -54.5122 	 37.2731 	 97.0624
| 20> H 	 -53.6472 	 37.4498 	 97.758
| 21> H 	 -54.5903 	 38.1496 	 96.3673
| 22> H 	 -55.4275 	 37.2071 	 97.6791
| 23> S 	 -47.6542 	 38.4002 	 96.2908
| 24> C 	 -47.112 	 39.2978 	 97.6448
| 25> C 	 -47.8211 	 38.9807 	 98.7958
| 26> C 	 -48.969 	 38.1726 	 98.5473
| 27> C 	 -49.0527 	 37.8061 	 97.1647
| 28> H 	 -47.499 	 39.2901 	 99.7616
| 29> C 	 -49.8265 	 37.7295 	 99.6772
| 30> H 	 -49.2981 	 36.8446 	 100.014
| 31> H 	 -50.6906 	 37.2341 	 99.1891
| 32> C 	 -50.3193 	 38.6617 	 100.752
| 33> H 	 -49.451 	 39.0741 	 101.281
| 34> H 	 -50.7834 	 38.0711 	 101.627
| 35> C 	 -51.2674 	 39.7734 	 100.258
| 36> H 	 -50.7969 	 40.604 	 99.7164
| 37> H 	 -51.884 	 40.2265 	 101.032
| 38> H 	 -51.9646 	 39.2936 	 99.5883
| 39> H 	 -51.6193 	 33.8088 	 95.831
| 40> H 	 -46.1175 	 39.8575 	 97.4342
| 41> *
| 42>
| 43>                          ****END OF INPUT****

CARTESIAN COORDINATES (ANGSTROEM)
---------------------------------
  S    -49.617900   35.107900   96.450900
  C    -51.250500   34.826800   95.945900
  C    -51.934300   36.003600   95.609500
  C    -51.157000   37.131200   95.908400
  C    -49.912400   36.880900   96.532400
  H    -51.401400   38.195500   95.811100
  C    -53.418400   35.930600   95.149700
  H    -53.577000   35.017600   94.587000
  H    -53.522400   36.800600   94.443200
  C    -54.508000   35.965200   96.226700
  H    -55.523700   35.849900   95.750400
  H    -54.269900   35.046100   96.889200
  C    -54.512200   37.273100   97.062400
  H    -53.647200   37.449800   97.758000
  H    -54.590300   38.149600   96.367300
  H    -55.427500   37.207100   97.679100
  S    -47.654200   38.400200   96.290800
  C    -47.112000   39.297800   97.644800
  C    -47.821100   38.980700   98.795800
  C    -48.969000   38.172600   98.547300
  C    -49.052700   37.806100   97.164700
  H    -47.499000   39.290100   99.761600
  C    -49.826500   37.729500   99.677200
  H    -49.298100   36.844600  100.014000
  H    -50.690600   37.234100   99.189100
  C    -50.319300   38.661700  100.752000
  H    -49.451000   39.074100  101.281000
  H    -50.783400   38.071100  101.627000
  C    -51.267400   39.773400  100.258000
  H    -50.796900   40.604000   99.716400
  H    -51.884000   40.226500  101.032000
  H    -51.964600   39.293600   99.588300
  H    -51.619300   33.808800   95.831000
  H    -46.117500   39.857500   97.434200

 Total Charge           Charge          ....    0
 Multiplicity           Mult            ....    1
 Number of Electrons    NEL             ....  134
 Basis Dimension        Dim             ....  322

ORBITAL ENERGIES
----------------

  NO   OCC          E(Eh)            E(eV)
   0   2.0000     -88.964030     -2420.8343
   1   2.0000     -88.962752     -2420.7996
   2   2.0000     -10.326053      -280.9862
   3   2.0000     -10.323883      -280.9271
   4   2.0000     -10.321674      -280.8670
   5   2.0000     -10.315381      -280.6958
   6   2.0000     -10.308106      -280.4978
   7   2.0000     -10.303196      -280.3642
   8   2.0000     -10.299813      -280.2722
   9   2.0000     -10.298010      -280.2231
  10   2.0000     -10.296689      -280.1872
  11   2.0000     -10.296512      -280.1823
  12   2.0000     -10.292689      -280.0783
  13   2.0000     -10.288656      -279.9686
  14   2.0000     -10.286114      -279.8994
  15   2.0000     -10.277687      -279.6701
  16   2.0000      -8.078466      -219.8262
  17   2.0000      -8.078377      -219.8238
  18   2.0000      -6.036674      -164.2662
  19   2.0000      -6.036604      -164.2643
  20   2.0000      -6.032945      -164.1648
  21   2.0000      -6.032785      -164.1604
  22   2.0000      -6.029538      -164.0721
  23   2.0000      -6.029454      -164.0698
  24   2.0000      -1.003109       -27.2960
  25   2.0000      -0.980765       -26.6880
  26   2.0000      -0.912912       -24.8416
  27   2.0000      -0.903796       -24.5936
  28   2.0000      -0.868020       -23.6200
  29   2.0000      -0.850268       -23.1370
  30   2.0000      -0.842471       -22.9248
  31   2.0000      -0.808863       -22.0103
  32   2.0000      -0.785873       -21.3847
  33   2.0000      -0.766508       -20.8577
  34   2.0000      -0.710606       -19.3366
  35   2.0000      -0.691720       -18.8227
  36   2.0000      -0.688378       -18.7317
  37   2.0000      -0.653485       -17.7822
  38   2.0000      -0.641628       -17.4596
  39   2.0000      -0.610925       -16.6241
  40   2.0000      -0.594826       -16.1860
  41   2.0000      -0.565654       -15.3922
  42   2.0000      -0.559773       -15.2322
  43   2.0000      -0.542599       -14.7649
  44   2.0000      -0.541085       -14.7237
  45   2.0000      -0.534086       -14.5332
  46   2.0000      -0.511981       -13.9317
  47   2.0000      -0.504442       -13.7266
  48   2.0000      -0.502453       -13.6724
  49   2.0000      -0.493815       -13.4374
  50   2.0000      -0.492154       -13.3922
  51   2.0000      -0.478319       -13.0157
  52   2.0000      -0.465126       -12.6567
  53   2.0000      -0.459510       -12.5039
  54   2.0000      -0.456036       -12.4094
  55   2.0000      -0.449735       -12.2379
  56   2.0000      -0.446258       -12.1433
  57   2.0000      -0.435815       -11.8591
  58   2.0000      -0.431649       -11.7458
  59   2.0000      -0.427599       -11.6356
  60   2.0000      -0.422353       -11.4928
  61   2.0000      -0.409962       -11.1556
  62   2.0000      -0.408315       -11.1108
  63   2.0000      -0.335601        -9.1322
  64   2.0000      -0.328957        -8.9514
  65   2.0000      -0.312901        -8.5145
  66   2.0000      -0.303123        -8.2484
  67   0.0000       0.039075         1.0633
  68   0.0000       0.043911         1.1949
  69   0.0000       0.113203         3.0804
  70   0.0000       0.118174         3.2157
  71   0.0000       0.126530         3.4431

MULLIKEN ATOMIC CHARGES
-----------------------
   0 S :    0.116354
   1 C :   -0.136275
   2 C :   -0.063709
   3 C :    0.044052
   4 C :   -0.208372
   5 H :    0.018265
   6 C :    0.054207
   7 H :    0.025569
   8 H :    0.031011
   9 C :   -0.089101
  10 H :    0.046657
  11 H :    0.038517
  12 C :   -0.090539
  13 H :    0.060252
  14 H :    0.035446
  15 H :    0.039271
  16 S :    0.113850
  17 C :   -0.129767
  18 C :   -0.021183
  19 C :   -0.033013
  20 C :   -0.196363
  21 H :    0.009819
  22 C :    0.066043
  23 H :    0.040621
  24 H :    0.023171
  25 C :   -0.070721
  26 H :    0.022265
  27 H :    0.040573
  28 C :   -0.037185
  29 H :    0.045937
  30 H :    0.032501
  31 H :    0.022243
  32 H :    0.054526
  33 H :    0.095077
Sum of atomic charges:   -0.0000000

LOEWDIN ATOMIC CHARGES
----------------------
   0 S :    0.393108
   1 C :   -0.194180
   2 C :   -0.073505
   3 C :   -0.052095
   4 C :   -0.200643
   5 H :    0.035977
   6 C :   -0.035686
   7 H :    0.028704
   8 H :    0.031278
   9 C :   -0.048331
  10 H :    0.032228
  11 H :    0.031813
  12 C :   -0.078523
  13 H :    0.030780
  14 H :    0.027191
  15 H :    0.028906
  16 S :    0.427843
  17 C :   -0.204245
  18 C :   -0.075334
  19 C :   -0.037757
  20 C :   -0.227004
  21 H :    0.025804
  22 C :   -0.045688
  23 H :    0.043526
  24 H :    0.035585
  25 C :   -0.047605
  26 H :    0.019661
  27 H :    0.038948
  28 C :   -0.065718
  29 H :    0.030900
  30 H :    0.027856
  31 H :    0.023791
  32 H :    0.026698
  33 H :    0.045717

  Mayer bond orders larger than 0.100000
B(  0-S ,  1-C ) :   1.1753 B(  0-S ,  4-C ) :   1.1282 B(  1-C ,  2-C ) :   1.5628
B(  1-C ,  4-C ) :   0.1146 B(  1-C , 32-H ) :   0.9681 B(  2-C ,  3-C ) :   1.2627
B(  2-C ,  6-C ) :   1.0130 B(  3-C ,  4-C ) :   1.5639 B(  3-C ,  5-H ) :   0.9919
B(  4-C , 20-C ) :   1.0743 B(  6-C ,  7-H ) :   0.9418 B(  6-C ,  8-H ) :   0.9422
B(  6-C ,  9-C ) :   1.0745 B(  9-C , 10-H ) :   0.9541 B(  9-C , 11-H ) :   0.9501
B(  9-C , 12-C ) :   1.0706 B( 12-C , 13-H ) :   0.9724 B( 12-C , 14-H ) :   0.9744
B( 12-C , 15-H ) :   0.9742 B( 16-S , 17-C ) :   1.1981 B( 16-S , 20-C ) :   1.1586
B( 17-C , 18-C ) :   1.5418 B( 17-C , 20-C ) :   0.1076 B( 17-C , 33-H ) :   0.9563
B( 18-C , 19-C ) :   1.2756 B( 18-C , 21-H ) :   1.0005 B( 19-C , 20-C ) :   1.5291
B( 19-C , 22-C ) :   1.0438 B( 22-C , 23-H ) :   0.9191 B( 22-C , 24-H ) :   0.9224
B( 22-C , 25-C ) :   1.0788 B( 25-C , 26-H ) :   0.9505 B( 25-C , 27-H ) :   0.9500
B( 25-C , 28-C ) :   1.0643 B( 28-C , 29-H ) :   0.9741 B( 28-C , 30-H ) :   0.9746
B( 28-C , 31-H ) :   0.9761

Dispersion correction           -0.015222095
FINAL SINGLE POINT ENERGY     -1339.875496519955

DIPOLE MOMENT
-------------
                                X             Y             Z
Electronic contribution:     24.54984      -6.28894     -12.81326
Nuclear contribution   :    -24.93765       6.34437      13.20460
                        -----------------------------------------
Total Dipole Moment    :     -0.38781       0.05542       0.39135
                        -----------------------------------------
Magnitude (a.u.)       :      0.55373
Magnitude (Debye)      :      1.40748

Rotational constants in cm-1:     0.017700     0.009625     0.007286
Rotational constants in MHz :   530.638310   288.553387   218.421628

                             ****ORCA TERMINATED NORMALLY****
TOTAL RUN TIME: 0 days 0 hours 0 minutes 33 seconds 180 msec
