                         Program Version 4.2.1 -  RELEASE  -
|  1> ! wB97X-D3 SP def2-SVP
|  2> %pal
|  3> nprocs 16
|  4> end
|  5>
|  6> * xyz 0 1
|  7> S 	 47.1874 	 5.24841 	 87.0939
|  8> C 	 47.2084 	 6.85319 	 87.8432
|  9> C 	 48.3787 	 7.53789 	 87.4695
| 10> C 	 49.2761 	 6.74964 	 86.6473
| 11> C 	 48.7255 	 5.49641 	 86.3824
| 12> H 	 50.2388 	 7.0182 	 86.2703
| 13> C 	 48.6599 	 9.01157 	 87.8486
| 14> H 	 49.5547 	 9.39193 	 87.336
| 15> H 	 48.9373 	 9.14131 	 88.9365
| 16> C 	 47.4808 	 9.93558 	 87.512
| 17> H 	 47.1612 	 9.68093 	 86.4575
| 18> H 	 46.7157 	 9.75945 	 88.2552
| 19> C 	 47.7707 	 11.4448 	 87.4884
| 20> H 	 48.5908 	 11.7511 	 86.8448
| 21> H 	 46.8757 	 11.9659 	 87.2253
| 22> H 	 48.0672 	 11.9169 	 88.4301
| 23> S 	 48.5666 	 4.48749 	 83.825
| 24> C 	 49.815 	 3.32705 	 83.3727
| 25> C 	 50.8713 	 3.2707 	 84.3085
| 26> C 	 50.4676 	 3.89392 	 85.5278
| 27> C 	 49.236 	 4.52365 	 85.4338
| 28> H 	 51.8514 	 2.77645 	 84.0568
| 29> C 	 51.3975 	 4.13358 	 86.6004
| 30> H 	 51.3066 	 5.1823 	 86.9798
| 31> H 	 52.4504 	 4.09645 	 86.1472
| 32> C 	 51.3533 	 3.10037 	 87.745
| 33> H 	 51.2934 	 2.10315 	 87.3167
| 34> H 	 50.4807 	 3.27186 	 88.3745
| 35> C 	 52.5157 	 3.2593 	 88.608
| 36> H 	 52.5254 	 4.15866 	 89.2314
| 37> H 	 53.3569 	 3.33325 	 87.9689
| 38> H 	 52.6553 	 2.4081 	 89.2543
| 39> H 	 46.3897 	 7.33364 	 88.4191
| 40> H 	 49.8017 	 2.71819 	 82.561
| 41> *
| 42>
| 43>                          ****END OF INPUT****

CARTESIAN COORDINATES (ANGSTROEM)
---------------------------------
  S     47.187400    5.248410   87.093900
  C     47.208400    6.853190   87.843200
  C     48.378700    7.537890   87.469500
  C     49.276100    6.749640   86.647300
  C     48.725500    5.496410   86.382400
  H     50.238800    7.018200   86.270300
  C     48.659900    9.011570   87.848600
  H     49.554700    9.391930   87.336000
  H     48.937300    9.141310   88.936500
  C     47.480800    9.935580   87.512000
  H     47.161200    9.680930   86.457500
  H     46.715700    9.759450   88.255200
  C     47.770700   11.444800   87.488400
  H     48.590800   11.751100   86.844800
  H     46.875700   11.965900   87.225300
  H     48.067200   11.916900   88.430100
  S     48.566600    4.487490   83.825000
  C     49.815000    3.327050   83.372700
  C     50.871300    3.270700   84.308500
  C     50.467600    3.893920   85.527800
  C     49.236000    4.523650   85.433800
  H     51.851400    2.776450   84.056800
  C     51.397500    4.133580   86.600400
  H     51.306600    5.182300   86.979800
  H     52.450400    4.096450   86.147200
  C     51.353300    3.100370   87.745000
  H     51.293400    2.103150   87.316700
  H     50.480700    3.271860   88.374500
  C     52.515700    3.259300   88.608000
  H     52.525400    4.158660   89.231400
  H     53.356900    3.333250   87.968900
  H     52.655300    2.408100   89.254300
  H     46.389700    7.333640   88.419100
  H     49.801700    2.718190   82.561000

 Total Charge           Charge          ....    0
 Multiplicity           Mult            ....    1
 Number of Electrons    NEL             ....  134
 Basis Dimension        Dim             ....  322

ORBITAL ENERGIES
----------------

  NO   OCC          E(Eh)            E(eV)
   0   2.0000     -88.968838     -2420.9652
   1   2.0000     -88.968775     -2420.9635
   2   2.0000     -10.324712      -280.9497
   3   2.0000     -10.318859      -280.7904
   4   2.0000     -10.318807      -280.7890
   5   2.0000     -10.313352      -280.6406
   6   2.0000     -10.308699      -280.5140
   7   2.0000     -10.300623      -280.2942
   8   2.0000     -10.297526      -280.2099
   9   2.0000     -10.297416      -280.2069
  10   2.0000     -10.294924      -280.1391
  11   2.0000     -10.291126      -280.0358
  12   2.0000     -10.287682      -279.9421
  13   2.0000     -10.276022      -279.6248
  14   2.0000     -10.275296      -279.6050
  15   2.0000     -10.263385      -279.2809
  16   2.0000      -8.083508      -219.9634
  17   2.0000      -8.083217      -219.9555
  18   2.0000      -6.041917      -164.4089
  19   2.0000      -6.041708      -164.4032
  20   2.0000      -6.037938      -164.3006
  21   2.0000      -6.037898      -164.2996
  22   2.0000      -6.034505      -164.2072
  23   2.0000      -6.033848      -164.1893
  24   2.0000      -1.007654       -27.4197
  25   2.0000      -0.980675       -26.6855
  26   2.0000      -0.917924       -24.9780
  27   2.0000      -0.907621       -24.6976
  28   2.0000      -0.865618       -23.5547
  29   2.0000      -0.860794       -23.4234
  30   2.0000      -0.847005       -23.0482
  31   2.0000      -0.810853       -22.0644
  32   2.0000      -0.781756       -21.2727
  33   2.0000      -0.765040       -20.8178
  34   2.0000      -0.703847       -19.1526
  35   2.0000      -0.698869       -19.0172
  36   2.0000      -0.690201       -18.7813
  37   2.0000      -0.662707       -18.0332
  38   2.0000      -0.642158       -17.4740
  39   2.0000      -0.612033       -16.6543
  40   2.0000      -0.596331       -16.2270
  41   2.0000      -0.569861       -15.5067
  42   2.0000      -0.569541       -15.4980
  43   2.0000      -0.560203       -15.2439
  44   2.0000      -0.528685       -14.3863
  45   2.0000      -0.522154       -14.2085
  46   2.0000      -0.519901       -14.1472
  47   2.0000      -0.514460       -13.9992
  48   2.0000      -0.506085       -13.7713
  49   2.0000      -0.499230       -13.5847
  50   2.0000      -0.494081       -13.4446
  51   2.0000      -0.476549       -12.9675
  52   2.0000      -0.469374       -12.7723
  53   2.0000      -0.459508       -12.5038
  54   2.0000      -0.455725       -12.4009
  55   2.0000      -0.449879       -12.2418
  56   2.0000      -0.443044       -12.0558
  57   2.0000      -0.434873       -11.8335
  58   2.0000      -0.429230       -11.6799
  59   2.0000      -0.425056       -11.5664
  60   2.0000      -0.422784       -11.5045
  61   2.0000      -0.419116       -11.4047
  62   2.0000      -0.411481       -11.1970
  63   2.0000      -0.336711        -9.1624
  64   2.0000      -0.327921        -8.9232
  65   2.0000      -0.322108        -8.7650
  66   2.0000      -0.299251        -8.1430
  67   0.0000       0.031942         0.8692
  68   0.0000       0.058699         1.5973
  69   0.0000       0.098440         2.6787
  70   0.0000       0.120399         3.2762
  71   0.0000       0.123327         3.3559

MULLIKEN ATOMIC CHARGES
-----------------------
   0 S :    0.127999
   1 C :   -0.136891
   2 C :   -0.091700
   3 C :    0.065464
   4 C :   -0.202126
   5 H :    0.013779
   6 C :    0.057102
   7 H :    0.012537
   8 H :    0.044415
   9 C :   -0.108307
  10 H :    0.050519
  11 H :    0.033798
  12 C :   -0.038030
  13 H :    0.027108
  14 H :    0.031106
  15 H :    0.017735
  16 S :    0.128734
  17 C :   -0.065039
  18 C :   -0.060968
  19 C :   -0.001067
  20 C :   -0.143860
  21 H :    0.046694
  22 C :   -0.009063
  23 H :    0.022648
  24 H :    0.025012
  25 C :   -0.044618
  26 H :    0.025401
  27 H :    0.030735
  28 C :    0.003720
  29 H :    0.026789
  30 H :   -0.001155
  31 H :    0.026676
  32 H :    0.065621
  33 H :    0.019232
Sum of atomic charges:    0.0000000

LOEWDIN ATOMIC CHARGES
----------------------
   0 S :    0.427505
   1 C :   -0.208198
   2 C :   -0.057206
   3 C :   -0.058237
   4 C :   -0.209409
   5 H :    0.028715
   6 C :   -0.039705
   7 H :    0.025541
   8 H :    0.036678
   9 C :   -0.042905
  10 H :    0.035608
  11 H :    0.021465
  12 C :   -0.069901
  13 H :    0.023770
  14 H :    0.025890
  15 H :    0.022659
  16 S :    0.413592
  17 C :   -0.165832
  18 C :   -0.067080
  19 C :   -0.061182
  20 C :   -0.214123
  21 H :    0.043142
  22 C :   -0.041445
  23 H :    0.032616
  24 H :    0.034553
  25 C :   -0.036595
  26 H :    0.024899
  27 H :    0.027546
  28 C :   -0.061461
  29 H :    0.027265
  30 H :    0.014698
  31 H :    0.024988
  32 H :    0.036847
  33 H :    0.005301

  Mayer bond orders larger than 0.100000
B(  0-S ,  1-C ) :   1.1366 B(  0-S ,  4-C ) :   1.1794 B(  1-C ,  2-C ) :   1.5984
B(  1-C , 32-H ) :   0.9672 B(  2-C ,  3-C ) :   1.2508 B(  2-C ,  6-C ) :   1.0176
B(  3-C ,  4-C ) :   1.5559 B(  3-C ,  5-H ) :   0.9904 B(  4-C , 20-C ) :   1.0124
B(  6-C ,  7-H ) :   0.9488 B(  6-C ,  8-H ) :   0.9369 B(  6-C ,  9-C ) :   1.0584
B(  9-C , 10-H ) :   0.9603 B(  9-C , 11-H ) :   0.9519 B(  9-C , 12-C ) :   1.0911
B( 12-C , 13-H ) :   0.9739 B( 12-C , 14-H ) :   0.9737 B( 12-C , 15-H ) :   0.9716
B( 16-S , 17-C ) :   1.1639 B( 16-S , 20-C ) :   1.1473 B( 17-C , 18-C ) :   1.5919
B( 17-C , 20-C ) :   0.1020 B( 17-C , 33-H ) :   0.9802 B( 18-C , 19-C ) :   1.2537
B( 18-C , 21-H ) :   0.9804 B( 19-C , 20-C ) :   1.5746 B( 19-C , 22-C ) :   1.0608
B( 22-C , 23-H ) :   0.9188 B( 22-C , 24-H ) :   0.9412 B( 22-C , 25-C ) :   1.0643
B( 25-C , 26-H ) :   0.9551 B( 25-C , 27-H ) :   0.9456 B( 25-C , 28-C ) :   1.1006
B( 28-C , 29-H ) :   0.9684 B( 28-C , 30-H ) :   0.9686 B( 28-C , 31-H ) :   0.9693

Dispersion correction           -0.013970840
FINAL SINGLE POINT ENERGY     -1339.865818032870

DIPOLE MOMENT
-------------
                                X             Y             Z
Electronic contribution:    -12.84511     -14.46822     -14.36385
Nuclear contribution   :     13.27459      14.83524      14.47378
                        -----------------------------------------
Total Dipole Moment    :      0.42948       0.36702       0.10993
                        -----------------------------------------
Magnitude (a.u.)       :      0.57554
Magnitude (Debye)      :      1.46290

Rotational constants in cm-1:     0.019356     0.007772     0.006623
Rotational constants in MHz :   580.287890   233.010938   198.555351

                             ****ORCA TERMINATED NORMALLY****
TOTAL RUN TIME: 0 days 0 hours 0 minutes 28 seconds 59 msec
