                         Program Version 4.2.1 -  RELEASE  -
|  1> ! wB97X-D3 SP def2-SVP
|  2> %pal
|  3> nprocs 16
|  4> end
|  5>
|  6> * xyz 0 1
|  7> S 	 7.32262 	 -27.5611 	 83.88
|  8> C 	 6.52165 	 -26.7604 	 85.2015
|  9> C 	 6.05689 	 -25.4881 	 84.7992
| 10> C 	 6.65847 	 -25.1264 	 83.6041
| 11> C 	 7.37298 	 -26.1208 	 82.9125
| 12> H 	 6.75012 	 -24.2184 	 83.0845
| 13> C 	 5.34872 	 -24.4471 	 85.6526
| 14> H 	 4.45801 	 -24.8798 	 86.0273
| 15> H 	 5.03603 	 -23.5403 	 85.0391
| 16> C 	 6.19517 	 -23.987 	 86.8811
| 17> H 	 6.59015 	 -24.945 	 87.376
| 18> H 	 7.08404 	 -23.4337 	 86.5899
| 19> C 	 5.40042 	 -23.2915 	 87.9995
| 20> H 	 5.27848 	 -22.2254 	 87.8956
| 21> H 	 4.41393 	 -23.6633 	 88.1774
| 22> H 	 6.01526 	 -23.2672 	 88.9062
| 23> S 	 7.11278 	 -25.9697 	 80.2162
| 24> C 	 8.39422 	 -25.3004 	 79.2881
| 25> C 	 9.52355 	 -24.9997 	 80.0289
| 26> C 	 9.25517 	 -25.1972 	 81.4018
| 27> C 	 8.05865 	 -25.9182 	 81.6729
| 28> H 	 10.3415 	 -24.5787 	 79.5228
| 29> C 	 10.295 	 -24.6597 	 82.3971
| 30> H 	 11.2966 	 -24.8956 	 82.0408
| 31> H 	 10.0672 	 -25.1704 	 83.3801
| 32> C 	 10.2679 	 -23.0717 	 82.5833
| 33> H 	 9.31831 	 -22.753 	 82.9817
| 34> H 	 10.2989 	 -22.4911 	 81.7007
| 35> C 	 11.2798 	 -22.648 	 83.6278
| 36> H 	 11.1928 	 -21.5575 	 83.674
| 37> H 	 12.3433 	 -22.856 	 83.3903
| 38> H 	 11.1153 	 -23.0343 	 84.6283
| 39> H 	 6.13588 	 -27.2508 	 86.02
| 40> H 	 8.33857 	 -25.1726 	 78.2101
| 41> *
| 42>
| 43>                          ****END OF INPUT****

CARTESIAN COORDINATES (ANGSTROEM)
---------------------------------
  S      7.322620  -27.561100   83.880000
  C      6.521650  -26.760400   85.201500
  C      6.056890  -25.488100   84.799200
  C      6.658470  -25.126400   83.604100
  C      7.372980  -26.120800   82.912500
  H      6.750120  -24.218400   83.084500
  C      5.348720  -24.447100   85.652600
  H      4.458010  -24.879800   86.027300
  H      5.036030  -23.540300   85.039100
  C      6.195170  -23.987000   86.881100
  H      6.590150  -24.945000   87.376000
  H      7.084040  -23.433700   86.589900
  C      5.400420  -23.291500   87.999500
  H      5.278480  -22.225400   87.895600
  H      4.413930  -23.663300   88.177400
  H      6.015260  -23.267200   88.906200
  S      7.112780  -25.969700   80.216200
  C      8.394220  -25.300400   79.288100
  C      9.523550  -24.999700   80.028900
  C      9.255170  -25.197200   81.401800
  C      8.058650  -25.918200   81.672900
  H     10.341500  -24.578700   79.522800
  C     10.295000  -24.659700   82.397100
  H     11.296600  -24.895600   82.040800
  H     10.067200  -25.170400   83.380100
  C     10.267900  -23.071700   82.583300
  H      9.318310  -22.753000   82.981700
  H     10.298900  -22.491100   81.700700
  C     11.279800  -22.648000   83.627800
  H     11.192800  -21.557500   83.674000
  H     12.343300  -22.856000   83.390300
  H     11.115300  -23.034300   84.628300
  H      6.135880  -27.250800   86.020000
  H      8.338570  -25.172600   78.210100

 Total Charge           Charge          ....    0
 Multiplicity           Mult            ....    1
 Number of Electrons    NEL             ....  134
 Basis Dimension        Dim             ....  322

ORBITAL ENERGIES
----------------

  NO   OCC          E(Eh)            E(eV)
   0   2.0000     -88.967612     -2420.9318
   1   2.0000     -88.965081     -2420.8629
   2   2.0000     -10.322646      -280.8935
   3   2.0000     -10.321427      -280.8603
   4   2.0000     -10.315482      -280.6985
   5   2.0000     -10.311412      -280.5878
   6   2.0000     -10.307324      -280.4766
   7   2.0000     -10.301200      -280.3099
   8   2.0000     -10.297582      -280.2115
   9   2.0000     -10.296231      -280.1747
  10   2.0000     -10.294810      -280.1360
  11   2.0000     -10.288199      -279.9561
  12   2.0000     -10.285161      -279.8734
  13   2.0000     -10.284319      -279.8506
  14   2.0000     -10.277935      -279.6768
  15   2.0000     -10.276207      -279.6298
  16   2.0000      -8.082191      -219.9276
  17   2.0000      -8.080616      -219.8847
  18   2.0000      -6.040471      -164.3696
  19   2.0000      -6.038950      -164.3282
  20   2.0000      -6.036478      -164.2609
  21   2.0000      -6.034939      -164.2190
  22   2.0000      -6.033441      -164.1783
  23   2.0000      -6.031574      -164.1275
  24   2.0000      -1.008644       -27.4466
  25   2.0000      -0.987139       -26.8614
  26   2.0000      -0.907333       -24.6898
  27   2.0000      -0.902136       -24.5484
  28   2.0000      -0.871884       -23.7252
  29   2.0000      -0.853028       -23.2121
  30   2.0000      -0.850843       -23.1526
  31   2.0000      -0.811586       -22.0844
  32   2.0000      -0.782716       -21.2988
  33   2.0000      -0.766527       -20.8583
  34   2.0000      -0.708274       -19.2731
  35   2.0000      -0.701967       -19.1015
  36   2.0000      -0.696285       -18.9469
  37   2.0000      -0.660490       -17.9728
  38   2.0000      -0.652307       -17.7502
  39   2.0000      -0.615637       -16.7523
  40   2.0000      -0.592532       -16.1236
  41   2.0000      -0.573300       -15.6003
  42   2.0000      -0.559673       -15.2295
  43   2.0000      -0.555130       -15.1059
  44   2.0000      -0.525727       -14.3058
  45   2.0000      -0.522393       -14.2150
  46   2.0000      -0.521646       -14.1947
  47   2.0000      -0.513161       -13.9638
  48   2.0000      -0.505117       -13.7449
  49   2.0000      -0.499527       -13.5928
  50   2.0000      -0.494112       -13.4455
  51   2.0000      -0.479125       -13.0376
  52   2.0000      -0.471388       -12.8271
  53   2.0000      -0.465923       -12.6784
  54   2.0000      -0.463407       -12.6099
  55   2.0000      -0.444726       -12.1016
  56   2.0000      -0.442292       -12.0354
  57   2.0000      -0.439095       -11.9484
  58   2.0000      -0.435905       -11.8616
  59   2.0000      -0.425052       -11.5663
  60   2.0000      -0.419966       -11.4278
  61   2.0000      -0.415418       -11.3041
  62   2.0000      -0.407923       -11.1002
  63   2.0000      -0.337425        -9.1818
  64   2.0000      -0.330200        -8.9852
  65   2.0000      -0.311198        -8.4681
  66   2.0000      -0.309623        -8.4253
  67   0.0000       0.041824         1.1381
  68   0.0000       0.047935         1.3044
  69   0.0000       0.114125         3.1055
  70   0.0000       0.123261         3.3541
  71   0.0000       0.131284         3.5724

MULLIKEN ATOMIC CHARGES
-----------------------
   0 S :    0.129427
   1 C :   -0.096340
   2 C :   -0.058274
   3 C :    0.048881
   4 C :   -0.202748
   5 H :   -0.012041
   6 C :    0.074909
   7 H :    0.012357
   8 H :    0.040818
   9 C :   -0.100899
  10 H :    0.034050
  11 H :    0.033171
  12 C :   -0.031461
  13 H :    0.018893
  14 H :    0.029264
  15 H :    0.030181
  16 S :    0.120929
  17 C :   -0.101989
  18 C :   -0.006583
  19 C :   -0.032613
  20 C :   -0.161829
  21 H :    0.005476
  22 C :    0.044811
  23 H :    0.028789
  24 H :    0.043992
  25 C :   -0.049447
  26 H :    0.012944
  27 H :    0.018815
  28 C :   -0.052848
  29 H :    0.028885
  30 H :    0.030270
  31 H :    0.034249
  32 H :    0.028943
  33 H :    0.057021
Sum of atomic charges:   -0.0000000

LOEWDIN ATOMIC CHARGES
----------------------
   0 S :    0.433104
   1 C :   -0.190239
   2 C :   -0.062691
   3 C :   -0.054070
   4 C :   -0.222172
   5 H :    0.022268
   6 C :   -0.030418
   7 H :    0.022806
   8 H :    0.038319
   9 C :   -0.040138
  10 H :    0.030660
  11 H :    0.024647
  12 C :   -0.072438
  13 H :    0.021987
  14 H :    0.022036
  15 H :    0.031832
  16 S :    0.435254
  17 C :   -0.186297
  18 C :   -0.072599
  19 C :   -0.042080
  20 C :   -0.227968
  21 H :    0.027068
  22 C :   -0.028715
  23 H :    0.028912
  24 H :    0.037936
  25 C :   -0.036140
  26 H :    0.022895
  27 H :    0.018337
  28 C :   -0.066959
  29 H :    0.028071
  30 H :    0.023893
  31 H :    0.025005
  32 H :    0.010329
  33 H :    0.027565

  Mayer bond orders larger than 0.100000
B(  0-S ,  1-C ) :   1.1865 B(  0-S ,  4-C ) :   1.1576 B(  1-C ,  2-C ) :   1.5310
B(  1-C ,  4-C ) :   0.1199 B(  1-C , 32-H ) :   0.9739 B(  2-C ,  3-C ) :   1.2699
B(  2-C ,  6-C ) :   1.0393 B(  3-C ,  4-C ) :   1.5458 B(  3-C ,  5-H ) :   1.0065
B(  4-C , 20-C ) :   1.0296 B(  6-C ,  7-H ) :   0.9289 B(  6-C ,  8-H ) :   0.9476
B(  6-C ,  9-C ) :   1.0598 B(  9-C , 10-H ) :   0.9594 B(  9-C , 11-H ) :   0.9571
B(  9-C , 12-C ) :   1.0738 B( 12-C , 13-H ) :   0.9726 B( 12-C , 14-H ) :   0.9759
B( 12-C , 15-H ) :   0.9721 B( 16-S , 17-C ) :   1.1988 B( 16-S , 20-C ) :   1.1442
B( 17-C , 18-C ) :   1.5758 B( 17-C , 20-C ) :   0.1016 B( 17-C , 33-H ) :   0.9630
B( 18-C , 19-C ) :   1.2540 B( 18-C , 21-H ) :   1.0030 B( 19-C , 20-C ) :   1.5620
B( 19-C , 22-C ) :   1.0479 B( 22-C , 23-H ) :   0.9427 B( 22-C , 24-H ) :   0.9394
B( 22-C , 25-C ) :   1.0521 B( 25-C , 26-H ) :   0.9486 B( 25-C , 27-H ) :   0.9583
B( 25-C , 28-C ) :   1.0887 B( 28-C , 29-H ) :   0.9724 B( 28-C , 30-H ) :   0.9749
B( 28-C , 31-H ) :   0.9751

Dispersion correction           -0.014169044
FINAL SINGLE POINT ENERGY     -1339.861548421679

DIPOLE MOMENT
-------------
                                X             Y             Z
Electronic contribution:     -6.20663     -22.05412     -20.52512
Nuclear contribution   :      6.32896      22.76802      20.72482
                        -----------------------------------------
Total Dipole Moment    :      0.12234       0.71390       0.19971
                        -----------------------------------------
Magnitude (a.u.)       :      0.75134
Magnitude (Debye)      :      1.90974

Rotational constants in cm-1:     0.017323     0.008606     0.006747
Rotational constants in MHz :   519.339346   258.001414   202.266546

                             ****ORCA TERMINATED NORMALLY****
TOTAL RUN TIME: 0 days 0 hours 0 minutes 32 seconds 843 msec
