                         Program Version 4.2.1 -  RELEASE  -
|  1> ! wB97X-D3 SP def2-SVP
|  2> %pal
|  3> nprocs 16
|  4> end
|  5>
|  6> * xyz 0 1
|  7> S 	 -3.65061 	 -11.1683 	 86.2501
|  8> C 	 -2.95102 	 -12.577 	 87.0356
|  9> C 	 -2.56171 	 -13.5451 	 86.1202
| 10> C 	 -2.87603 	 -13.1974 	 84.7852
| 11> C 	 -3.56695 	 -11.9933 	 84.644
| 12> H 	 -2.76904 	 -13.7769 	 83.8415
| 13> C 	 -1.83665 	 -14.8546 	 86.3835
| 14> H 	 -1.3181 	 -14.9064 	 87.3051
| 15> H 	 -1.05568 	 -15.0206 	 85.6653
| 16> C 	 -2.75342 	 -16.1054 	 86.3305
| 17> H 	 -3.58903 	 -15.8685 	 86.9508
| 18> H 	 -3.16338 	 -16.297 	 85.3555
| 19> C 	 -2.01295 	 -17.3514 	 86.714
| 20> H 	 -2.64088 	 -18.1648 	 87.0021
| 21> H 	 -1.45907 	 -17.7517 	 85.8866
| 22> H 	 -1.47882 	 -17.1787 	 87.587
| 23> S 	 -2.98378 	 -9.86439 	 83.077
| 24> C 	 -3.69513 	 -9.70584 	 81.4949
| 25> C 	 -4.60951 	 -10.6855 	 81.2821
| 26> C 	 -4.67312 	 -11.6986 	 82.31
| 27> C 	 -3.90918 	 -11.2998 	 83.3853
| 28> H 	 -5.03291 	 -10.8634 	 80.2912
| 29> C 	 -5.60233 	 -12.9071 	 82.2925
| 30> H 	 -6.65352 	 -12.6997 	 82.1207
| 31> H 	 -5.56378 	 -13.3667 	 83.2613
| 32> C 	 -5.0325 	 -14.0133 	 81.3262
| 33> H 	 -3.98156 	 -14.1809 	 81.4008
| 34> H 	 -5.3509 	 -13.6818 	 80.3151
| 35> C 	 -5.56297 	 -15.407 	 81.6119
| 36> H 	 -5.2031 	 -15.5583 	 82.6075
| 37> H 	 -5.03027 	 -16.2536 	 81.0774
| 38> H 	 -6.60645 	 -15.5029 	 81.6248
| 39> H 	 -2.65664 	 -12.6889 	 88.0465
| 40> H 	 -3.55117 	 -8.91754 	 80.8243
| 41> *
| 42>
| 43>                          ****END OF INPUT****

CARTESIAN COORDINATES (ANGSTROEM)
---------------------------------
  S     -3.650610  -11.168300   86.250100
  C     -2.951020  -12.577000   87.035600
  C     -2.561710  -13.545100   86.120200
  C     -2.876030  -13.197400   84.785200
  C     -3.566950  -11.993300   84.644000
  H     -2.769040  -13.776900   83.841500
  C     -1.836650  -14.854600   86.383500
  H     -1.318100  -14.906400   87.305100
  H     -1.055680  -15.020600   85.665300
  C     -2.753420  -16.105400   86.330500
  H     -3.589030  -15.868500   86.950800
  H     -3.163380  -16.297000   85.355500
  C     -2.012950  -17.351400   86.714000
  H     -2.640880  -18.164800   87.002100
  H     -1.459070  -17.751700   85.886600
  H     -1.478820  -17.178700   87.587000
  S     -2.983780   -9.864390   83.077000
  C     -3.695130   -9.705840   81.494900
  C     -4.609510  -10.685500   81.282100
  C     -4.673120  -11.698600   82.310000
  C     -3.909180  -11.299800   83.385300
  H     -5.032910  -10.863400   80.291200
  C     -5.602330  -12.907100   82.292500
  H     -6.653520  -12.699700   82.120700
  H     -5.563780  -13.366700   83.261300
  C     -5.032500  -14.013300   81.326200
  H     -3.981560  -14.180900   81.400800
  H     -5.350900  -13.681800   80.315100
  C     -5.562970  -15.407000   81.611900
  H     -5.203100  -15.558300   82.607500
  H     -5.030270  -16.253600   81.077400
  H     -6.606450  -15.502900   81.624800
  H     -2.656640  -12.688900   88.046500
  H     -3.551170   -8.917540   80.824300

 Total Charge           Charge          ....    0
 Multiplicity           Mult            ....    1
 Number of Electrons    NEL             ....  134
 Basis Dimension        Dim             ....  322

ORBITAL ENERGIES
----------------

  NO   OCC          E(Eh)            E(eV)
   0   2.0000     -88.968711     -2420.9617
   1   2.0000     -88.964298     -2420.8416
   2   2.0000     -10.334203      -281.2080
   3   2.0000     -10.325793      -280.9791
   4   2.0000     -10.315139      -280.6892
   5   2.0000     -10.311491      -280.5899
   6   2.0000     -10.304938      -280.4116
   7   2.0000     -10.302526      -280.3460
   8   2.0000     -10.298303      -280.2311
   9   2.0000     -10.293673      -280.1051
  10   2.0000     -10.291881      -280.0563
  11   2.0000     -10.288237      -279.9571
  12   2.0000     -10.287830      -279.9461
  13   2.0000     -10.278948      -279.7044
  14   2.0000     -10.275010      -279.5972
  15   2.0000     -10.267280      -279.3869
  16   2.0000      -8.082183      -219.9274
  17   2.0000      -8.079676      -219.8592
  18   2.0000      -6.040840      -164.3796
  19   2.0000      -6.038213      -164.3081
  20   2.0000      -6.036872      -164.2717
  21   2.0000      -6.034091      -164.1960
  22   2.0000      -6.032845      -164.1621
  23   2.0000      -6.030351      -164.0942
  24   2.0000      -1.006284       -27.3824
  25   2.0000      -0.982298       -26.7297
  26   2.0000      -0.914525       -24.8855
  27   2.0000      -0.910353       -24.7720
  28   2.0000      -0.871148       -23.7051
  29   2.0000      -0.854625       -23.2555
  30   2.0000      -0.848874       -23.0990
  31   2.0000      -0.816418       -22.2159
  32   2.0000      -0.783827       -21.3290
  33   2.0000      -0.774319       -21.0703
  34   2.0000      -0.706656       -19.2291
  35   2.0000      -0.702027       -19.1031
  36   2.0000      -0.698114       -18.9967
  37   2.0000      -0.661105       -17.9896
  38   2.0000      -0.645182       -17.5563
  39   2.0000      -0.617313       -16.7979
  40   2.0000      -0.600932       -16.3522
  41   2.0000      -0.576538       -15.6884
  42   2.0000      -0.575052       -15.6480
  43   2.0000      -0.564790       -15.3687
  44   2.0000      -0.530232       -14.4283
  45   2.0000      -0.518075       -14.0975
  46   2.0000      -0.515130       -14.0174
  47   2.0000      -0.513093       -13.9620
  48   2.0000      -0.508303       -13.8316
  49   2.0000      -0.501557       -13.6481
  50   2.0000      -0.494721       -13.4621
  51   2.0000      -0.483041       -13.1442
  52   2.0000      -0.471295       -12.8246
  53   2.0000      -0.468375       -12.7451
  54   2.0000      -0.457817       -12.4578
  55   2.0000      -0.446985       -12.1631
  56   2.0000      -0.444781       -12.1031
  57   2.0000      -0.442683       -12.0460
  58   2.0000      -0.432480       -11.7684
  59   2.0000      -0.427307       -11.6276
  60   2.0000      -0.426052       -11.5935
  61   2.0000      -0.418990       -11.4013
  62   2.0000      -0.409918       -11.1544
  63   2.0000      -0.345287        -9.3957
  64   2.0000      -0.330154        -8.9839
  65   2.0000      -0.329680        -8.9710
  66   2.0000      -0.299339        -8.1454
  67   0.0000       0.033669         0.9162
  68   0.0000       0.064901         1.7660
  69   0.0000       0.112854         3.0709
  70   0.0000       0.116158         3.1608
  71   0.0000       0.128347         3.4925

MULLIKEN ATOMIC CHARGES
-----------------------
   0 S :    0.103580
   1 C :   -0.087009
   2 C :   -0.080253
   3 C :    0.037506
   4 C :   -0.178628
   5 H :    0.024212
   6 C :    0.081306
   7 H :    0.000091
   8 H :    0.018206
   9 C :   -0.070521
  10 H :    0.020977
  11 H :    0.017744
  12 C :    0.001509
  13 H :    0.017719
  14 H :    0.031294
  15 H :    0.009360
  16 S :    0.113196
  17 C :   -0.064196
  18 C :   -0.022125
  19 C :   -0.049240
  20 C :   -0.157916
  21 H :    0.023868
  22 C :    0.076523
  23 H :    0.042295
  24 H :    0.009698
  25 C :   -0.093577
  26 H :    0.031749
  27 H :    0.032288
  28 C :   -0.036366
  29 H :    0.008593
  30 H :    0.043172
  31 H :    0.025632
  32 H :    0.031742
  33 H :    0.037573
Sum of atomic charges:    0.0000000

LOEWDIN ATOMIC CHARGES
----------------------
   0 S :    0.381657
   1 C :   -0.189175
   2 C :   -0.062984
   3 C :   -0.059994
   4 C :   -0.181050
   5 H :    0.038303
   6 C :   -0.025463
   7 H :    0.020942
   8 H :    0.028683
   9 C :   -0.033974
  10 H :    0.019528
  11 H :    0.018852
  12 C :   -0.058329
  13 H :    0.027026
  14 H :    0.027151
  15 H :    0.015709
  16 S :    0.415700
  17 C :   -0.176593
  18 C :   -0.071743
  19 C :   -0.053548
  20 C :   -0.203690
  21 H :    0.032060
  22 C :   -0.024178
  23 H :    0.034319
  24 H :    0.024901
  25 C :   -0.036489
  26 H :    0.022397
  27 H :    0.020443
  28 C :   -0.066476
  29 H :    0.020456
  30 H :    0.035884
  31 H :    0.014808
  32 H :    0.023996
  33 H :    0.020869

  Mayer bond orders larger than 0.100000
B(  0-S ,  1-C ) :   1.1316 B(  0-S ,  4-C ) :   1.1351 B(  1-C ,  2-C ) :   1.6223
B(  1-C , 32-H ) :   0.9672 B(  2-C ,  3-C ) :   1.2304 B(  2-C ,  6-C ) :   1.0333
B(  3-C ,  4-C ) :   1.5916 B(  3-C ,  5-H ) :   0.9841 B(  4-C , 20-C ) :   1.0082
B(  6-C ,  7-H ) :   0.9411 B(  6-C ,  8-H ) :   0.9401 B(  6-C ,  9-C ) :   1.0555
B(  9-C , 10-H ) :   0.9560 B(  9-C , 11-H ) :   0.9558 B(  9-C , 12-C ) :   1.0943
B( 12-C , 13-H ) :   0.9671 B( 12-C , 14-H ) :   0.9737 B( 12-C , 15-H ) :   0.9710
B( 16-S , 17-C ) :   1.1403 B( 16-S , 20-C ) :   1.1551 B( 17-C , 18-C ) :   1.6407
B( 17-C , 33-H ) :   0.9722 B( 18-C , 19-C ) :   1.2250 B( 18-C , 21-H ) :   0.9786
B( 19-C , 20-C ) :   1.6226 B( 19-C , 22-C ) :   1.0500 B( 22-C , 23-H ) :   0.9435
B( 22-C , 24-H ) :   0.9354 B( 22-C , 25-C ) :   1.0422 B( 25-C , 26-H ) :   0.9615
B( 25-C , 27-H ) :   0.9575 B( 25-C , 28-C ) :   1.0816 B( 28-C , 29-H ) :   0.9719
B( 28-C , 30-H ) :   0.9736 B( 28-C , 31-H ) :   0.9739

Dispersion correction           -0.014172083
FINAL SINGLE POINT ENERGY     -1339.870131910961

DIPOLE MOMENT
-------------
                                X             Y             Z
Electronic contribution:      2.27593      32.41989       3.16781
Nuclear contribution   :     -2.23705     -33.11177      -3.39656
                        -----------------------------------------
Total Dipole Moment    :      0.03888      -0.69188      -0.22875
                        -----------------------------------------
Magnitude (a.u.)       :      0.72975
Magnitude (Debye)      :      1.85488

Rotational constants in cm-1:     0.017211     0.009206     0.006567
Rotational constants in MHz :   515.962299   275.976586   196.880117

                             ****ORCA TERMINATED NORMALLY****
TOTAL RUN TIME: 0 days 0 hours 0 minutes 34 seconds 19 msec
