                         Program Version 4.2.1 -  RELEASE  -
|  1> ! wB97X-D3 SP def2-SVP
|  2> %pal
|  3> nprocs 16
|  4> end
|  5>
|  6> * xyz 0 1
|  7> S 	 32.6435 	 13.1197 	 69.6201
|  8> C 	 31.8759 	 14.4076 	 70.4164
|  9> C 	 32.7391 	 15.4573 	 70.7879
| 10> C 	 34.0659 	 15.1156 	 70.3898
| 11> C 	 34.1811 	 13.9612 	 69.6313
| 12> H 	 34.9314 	 15.7443 	 70.5035
| 13> C 	 32.2809 	 16.7323 	 71.3982
| 14> H 	 31.9719 	 17.2539 	 70.5751
| 15> H 	 33.1715 	 17.192 	 71.8206
| 16> C 	 31.1915 	 16.7075 	 72.4547
| 17> H 	 30.319 	 16.0906 	 72.0823
| 18> H 	 31.6865 	 16.1322 	 73.2311
| 19> C 	 30.7171 	 18.1783 	 72.7056
| 20> H 	 30.2321 	 18.4408 	 71.7646
| 21> H 	 29.875 	 18.1445 	 73.4228
| 22> H 	 31.4799 	 18.9128 	 72.9978
| 23> S 	 36.4256 	 14.4968 	 68.2391
| 24> C 	 37.5192 	 13.2492 	 67.795
| 25> C 	 37.1066 	 12.0311 	 68.1992
| 26> C 	 35.9651 	 12.0868 	 69.0667
| 27> C 	 35.4341 	 13.3863 	 69.1102
| 28> H 	 37.7573 	 11.1759 	 67.8454
| 29> C 	 35.2561 	 10.8292 	 69.5913
| 30> H 	 34.4652 	 10.4971 	 68.9458
| 31> H 	 34.7175 	 10.9869 	 70.5725
| 32> C 	 36.1542 	 9.61763 	 69.8729
| 33> H 	 36.8839 	 9.92817 	 70.6446
| 34> H 	 36.6091 	 9.31781 	 68.967
| 35> C 	 35.3744 	 8.46251 	 70.4049
| 36> H 	 34.5908 	 8.39314 	 69.6438
| 37> H 	 34.8708 	 8.63251 	 71.3712
| 38> H 	 36.0385 	 7.54251 	 70.4983
| 39> H 	 30.8514 	 14.2813 	 70.7429
| 40> H 	 38.417 	 13.4625 	 67.1879
| 41> *
| 42>
| 43>                          ****END OF INPUT****

CARTESIAN COORDINATES (ANGSTROEM)
---------------------------------
  S     32.643500   13.119700   69.620100
  C     31.875900   14.407600   70.416400
  C     32.739100   15.457300   70.787900
  C     34.065900   15.115600   70.389800
  C     34.181100   13.961200   69.631300
  H     34.931400   15.744300   70.503500
  C     32.280900   16.732300   71.398200
  H     31.971900   17.253900   70.575100
  H     33.171500   17.192000   71.820600
  C     31.191500   16.707500   72.454700
  H     30.319000   16.090600   72.082300
  H     31.686500   16.132200   73.231100
  C     30.717100   18.178300   72.705600
  H     30.232100   18.440800   71.764600
  H     29.875000   18.144500   73.422800
  H     31.479900   18.912800   72.997800
  S     36.425600   14.496800   68.239100
  C     37.519200   13.249200   67.795000
  C     37.106600   12.031100   68.199200
  C     35.965100   12.086800   69.066700
  C     35.434100   13.386300   69.110200
  H     37.757300   11.175900   67.845400
  C     35.256100   10.829200   69.591300
  H     34.465200   10.497100   68.945800
  H     34.717500   10.986900   70.572500
  C     36.154200    9.617630   69.872900
  H     36.883900    9.928170   70.644600
  H     36.609100    9.317810   68.967000
  C     35.374400    8.462510   70.404900
  H     34.590800    8.393140   69.643800
  H     34.870800    8.632510   71.371200
  H     36.038500    7.542510   70.498300
  H     30.851400   14.281300   70.742900
  H     38.417000   13.462500   67.187900

 Total Charge           Charge          ....    0
 Multiplicity           Mult            ....    1
 Number of Electrons    NEL             ....  134
 Basis Dimension        Dim             ....  322

ORBITAL ENERGIES
----------------

  NO   OCC          E(Eh)            E(eV)
   0   2.0000     -88.966432     -2420.8997
   1   2.0000     -88.962305     -2420.7874
   2   2.0000     -10.327928      -281.0372
   3   2.0000     -10.326696      -281.0037
   4   2.0000     -10.311019      -280.5771
   5   2.0000     -10.309044      -280.5234
   6   2.0000     -10.307705      -280.4869
   7   2.0000     -10.300337      -280.2864
   8   2.0000     -10.295382      -280.1516
   9   2.0000     -10.293886      -280.1109
  10   2.0000     -10.292365      -280.0695
  11   2.0000     -10.291095      -280.0349
  12   2.0000     -10.288203      -279.9562
  13   2.0000     -10.280433      -279.7448
  14   2.0000     -10.279930      -279.7311
  15   2.0000     -10.277771      -279.6724
  16   2.0000      -8.081598      -219.9115
  17   2.0000      -8.078348      -219.8230
  18   2.0000      -6.039940      -164.3551
  19   2.0000      -6.036634      -164.2652
  20   2.0000      -6.035943      -164.2463
  21   2.0000      -6.032666      -164.1572
  22   2.0000      -6.032637      -164.1564
  23   2.0000      -6.029273      -164.0649
  24   2.0000      -1.010036       -27.4845
  25   2.0000      -0.989590       -26.9281
  26   2.0000      -0.918606       -24.9965
  27   2.0000      -0.913827       -24.8665
  28   2.0000      -0.869672       -23.6650
  29   2.0000      -0.855318       -23.2744
  30   2.0000      -0.847978       -23.0746
  31   2.0000      -0.814212       -22.1558
  32   2.0000      -0.780504       -21.2386
  33   2.0000      -0.766528       -20.8583
  34   2.0000      -0.710289       -19.3279
  35   2.0000      -0.695306       -18.9202
  36   2.0000      -0.690279       -18.7834
  37   2.0000      -0.655028       -17.8242
  38   2.0000      -0.636504       -17.3202
  39   2.0000      -0.615753       -16.7555
  40   2.0000      -0.599566       -16.3150
  41   2.0000      -0.580020       -15.7832
  42   2.0000      -0.577242       -15.7075
  43   2.0000      -0.566009       -15.4019
  44   2.0000      -0.525178       -14.2908
  45   2.0000      -0.518367       -14.1055
  46   2.0000      -0.515817       -14.0361
  47   2.0000      -0.515014       -14.0142
  48   2.0000      -0.504214       -13.7204
  49   2.0000      -0.496313       -13.5054
  50   2.0000      -0.482970       -13.1423
  51   2.0000      -0.476912       -12.9774
  52   2.0000      -0.475706       -12.9446
  53   2.0000      -0.470802       -12.8112
  54   2.0000      -0.459602       -12.5064
  55   2.0000      -0.449075       -12.2200
  56   2.0000      -0.447103       -12.1663
  57   2.0000      -0.434021       -11.8103
  58   2.0000      -0.428878       -11.6704
  59   2.0000      -0.426556       -11.6072
  60   2.0000      -0.423834       -11.5331
  61   2.0000      -0.417619       -11.3640
  62   2.0000      -0.413814       -11.2604
  63   2.0000      -0.350782        -9.5453
  64   2.0000      -0.332794        -9.0558
  65   2.0000      -0.325348        -8.8532
  66   2.0000      -0.288051        -7.8383
  67   0.0000       0.030744         0.8366
  68   0.0000       0.078973         2.1490
  69   0.0000       0.119018         3.2386
  70   0.0000       0.122645         3.3373
  71   0.0000       0.129609         3.5268

MULLIKEN ATOMIC CHARGES
-----------------------
   0 S :    0.119634
   1 C :   -0.143125
   2 C :   -0.088321
   3 C :    0.013921
   4 C :   -0.139916
   5 H :    0.007787
   6 C :    0.109372
   7 H :    0.017689
   8 H :    0.019397
   9 C :   -0.117548
  10 H :    0.038236
  11 H :    0.036474
  12 C :   -0.039580
  13 H :    0.029768
  14 H :    0.037843
  15 H :    0.050892
  16 S :    0.106572
  17 C :   -0.109987
  18 C :   -0.063166
  19 C :    0.001528
  20 C :   -0.147587
  21 H :    0.047180
  22 C :   -0.004242
  23 H :    0.031616
  24 H :    0.032218
  25 C :   -0.074808
  26 H :    0.036405
  27 H :    0.022417
  28 C :   -0.053436
  29 H :    0.020638
  30 H :    0.035152
  31 H :    0.049806
  32 H :    0.051939
  33 H :    0.065234
Sum of atomic charges:    0.0000000

LOEWDIN ATOMIC CHARGES
----------------------
   0 S :    0.436774
   1 C :   -0.219058
   2 C :   -0.059636
   3 C :   -0.064080
   4 C :   -0.200706
   5 H :    0.025456
   6 C :   -0.031343
   7 H :    0.023063
   8 H :    0.031749
   9 C :   -0.040100
  10 H :    0.027866
  11 H :    0.024226
  12 C :   -0.063267
  13 H :    0.028946
  14 H :    0.029260
  15 H :    0.029824
  16 S :    0.430852
  17 C :   -0.201316
  18 C :   -0.082501
  19 C :   -0.060639
  20 C :   -0.198623
  21 H :    0.046343
  22 C :   -0.042682
  23 H :    0.023431
  24 H :    0.034088
  25 C :   -0.043821
  26 H :    0.026883
  27 H :    0.015537
  28 C :   -0.067718
  29 H :    0.024156
  30 H :    0.025017
  31 H :    0.035698
  32 H :    0.022011
  33 H :    0.034310

  Mayer bond orders larger than 0.100000
B(  0-S ,  1-C ) :   1.1747 B(  0-S ,  4-C ) :   1.1589 B(  1-C ,  2-C ) :   1.5512
B(  1-C , 32-H ) :   0.9666 B(  2-C ,  3-C ) :   1.2881 B(  2-C ,  6-C ) :   1.0081
B(  3-C ,  4-C ) :   1.5435 B(  3-C ,  5-H ) :   0.9912 B(  4-C , 20-C ) :   1.0262
B(  6-C ,  7-H ) :   0.9273 B(  6-C ,  8-H ) :   0.9379 B(  6-C ,  9-C ) :   1.0599
B(  9-C , 10-H ) :   0.9530 B(  9-C , 11-H ) :   0.9644 B(  9-C , 12-C ) :   1.0649
B( 12-C , 13-H ) :   0.9732 B( 12-C , 14-H ) :   0.9752 B( 12-C , 15-H ) :   0.9767
B( 16-S , 17-C ) :   1.1591 B( 16-S , 20-C ) :   1.1676 B( 17-C , 18-C ) :   1.6286
B( 17-C , 33-H ) :   0.9619 B( 18-C , 19-C ) :   1.2231 B( 18-C , 21-H ) :   0.9786
B( 19-C , 20-C ) :   1.5769 B( 19-C , 22-C ) :   1.0350 B( 22-C , 23-H ) :   0.9367
B( 22-C , 24-H ) :   0.9381 B( 22-C , 25-C ) :   1.0750 B( 25-C , 26-H ) :   0.9565
B( 25-C , 27-H ) :   0.9455 B( 25-C , 28-C ) :   1.0891 B( 28-C , 29-H ) :   0.9718
B( 28-C , 30-H ) :   0.9726 B( 28-C , 31-H ) :   0.9707

Dispersion correction           -0.013197846
FINAL SINGLE POINT ENERGY     -1339.877863534371

DIPOLE MOMENT
-------------
                                X             Y             Z
Electronic contribution:      8.09993       3.13982     -14.18379
Nuclear contribution   :     -8.17666      -3.09118      14.35863
                        -----------------------------------------
Total Dipole Moment    :     -0.07674       0.04864       0.17484
                        -----------------------------------------
Magnitude (a.u.)       :      0.19704
Magnitude (Debye)      :      0.50083

Rotational constants in cm-1:     0.023086     0.006799     0.005586
Rotational constants in MHz :   692.114744   203.820867   167.477416

                             ****ORCA TERMINATED NORMALLY****
TOTAL RUN TIME: 0 days 0 hours 0 minutes 28 seconds 966 msec
