                         Program Version 4.2.1 -  RELEASE  -
|  1> ! wB97X-D3 SP def2-SVP
|  2> %pal
|  3> nprocs 16
|  4> end
|  5>
|  6> * xyz 0 1
|  7> S 	 -1.99719 	 -14.7663 	 86.0149
|  8> C 	 -1.84885 	 -16.2502 	 86.9214
|  9> C 	 -2.96692 	 -17.0519 	 86.8686
| 10> C 	 -3.95216 	 -16.5131 	 86.0324
| 11> C 	 -3.63806 	 -15.2138 	 85.6212
| 12> H 	 -4.88207 	 -17.0074 	 85.8106
| 13> C 	 -3.0966 	 -18.4119 	 87.4365
| 14> H 	 -4.12343 	 -18.6664 	 87.7315
| 15> H 	 -2.47119 	 -18.5111 	 88.2746
| 16> C 	 -2.58669 	 -19.5582 	 86.4762
| 17> H 	 -2.96542 	 -19.2905 	 85.4453
| 18> H 	 -1.46325 	 -19.5534 	 86.5342
| 19> C 	 -3.23722 	 -20.9531 	 86.7861
| 20> H 	 -2.89251 	 -21.7361 	 86.1004
| 21> H 	 -3.01027 	 -21.3427 	 87.7185
| 22> H 	 -4.32807 	 -20.9337 	 86.5851
| 23> S 	 -3.55462 	 -13.9258 	 83.2773
| 24> C 	 -5.03249 	 -13.2925 	 82.6489
| 25> C 	 -6.09013 	 -13.3321 	 83.5077
| 26> C 	 -5.76359 	 -13.9503 	 84.7538
| 27> C 	 -4.42416 	 -14.3618 	 84.7081
| 28> H 	 -7.0151 	 -12.765 	 83.2499
| 29> C 	 -6.81165 	 -14.346 	 85.7294
| 30> H 	 -7.59189 	 -13.6738 	 85.6823
| 31> H 	 -6.46447 	 -14.3024 	 86.7446
| 32> C 	 -7.5436 	 -15.6889 	 85.4096
| 33> H 	 -6.91998 	 -16.5523 	 85.0606
| 34> H 	 -8.14511 	 -15.5507 	 84.4823
| 35> C 	 -8.41984 	 -16.1911 	 86.5783
| 36> H 	 -8.04738 	 -16.1229 	 87.6035
| 37> H 	 -8.88767 	 -17.2418 	 86.5414
| 38> H 	 -9.36631 	 -15.6276 	 86.6062
| 39> H 	 -0.836826 	 -16.3912 	 87.3482
| 40> H 	 -5.09624 	 -12.7639 	 81.6241
| 41> *
| 42>
| 43>                          ****END OF INPUT****

CARTESIAN COORDINATES (ANGSTROEM)
---------------------------------
  S     -1.997190  -14.766300   86.014900
  C     -1.848850  -16.250200   86.921400
  C     -2.966920  -17.051900   86.868600
  C     -3.952160  -16.513100   86.032400
  C     -3.638060  -15.213800   85.621200
  H     -4.882070  -17.007400   85.810600
  C     -3.096600  -18.411900   87.436500
  H     -4.123430  -18.666400   87.731500
  H     -2.471190  -18.511100   88.274600
  C     -2.586690  -19.558200   86.476200
  H     -2.965420  -19.290500   85.445300
  H     -1.463250  -19.553400   86.534200
  C     -3.237220  -20.953100   86.786100
  H     -2.892510  -21.736100   86.100400
  H     -3.010270  -21.342700   87.718500
  H     -4.328070  -20.933700   86.585100
  S     -3.554620  -13.925800   83.277300
  C     -5.032490  -13.292500   82.648900
  C     -6.090130  -13.332100   83.507700
  C     -5.763590  -13.950300   84.753800
  C     -4.424160  -14.361800   84.708100
  H     -7.015100  -12.765000   83.249900
  C     -6.811650  -14.346000   85.729400
  H     -7.591890  -13.673800   85.682300
  H     -6.464470  -14.302400   86.744600
  C     -7.543600  -15.688900   85.409600
  H     -6.919980  -16.552300   85.060600
  H     -8.145110  -15.550700   84.482300
  C     -8.419840  -16.191100   86.578300
  H     -8.047380  -16.122900   87.603500
  H     -8.887670  -17.241800   86.541400
  H     -9.366310  -15.627600   86.606200
  H     -0.836826  -16.391200   87.348200
  H     -5.096240  -12.763900   81.624100

 Total Charge           Charge          ....    0
 Multiplicity           Mult            ....    1
 Number of Electrons    NEL             ....  134
 Basis Dimension        Dim             ....  322

ORBITAL ENERGIES
----------------

  NO   OCC          E(Eh)            E(eV)
   0   2.0000     -88.966648     -2420.9056
   1   2.0000     -88.964995     -2420.8606
   2   2.0000     -10.326863      -281.0082
   3   2.0000     -10.323182      -280.9081
   4   2.0000     -10.316489      -280.7259
   5   2.0000     -10.313084      -280.6333
   6   2.0000     -10.302431      -280.3434
   7   2.0000     -10.298178      -280.2277
   8   2.0000     -10.298032      -280.2237
   9   2.0000     -10.296015      -280.1688
  10   2.0000     -10.293152      -280.0909
  11   2.0000     -10.289749      -279.9983
  12   2.0000     -10.287029      -279.9243
  13   2.0000     -10.286696      -279.9152
  14   2.0000     -10.285816      -279.8913
  15   2.0000     -10.278347      -279.6880
  16   2.0000      -8.082329      -219.9314
  17   2.0000      -8.080253      -219.8749
  18   2.0000      -6.040622      -164.3737
  19   2.0000      -6.038510      -164.3162
  20   2.0000      -6.036875      -164.2717
  21   2.0000      -6.034793      -164.2151
  22   2.0000      -6.033082      -164.1685
  23   2.0000      -6.031162      -164.1163
  24   2.0000      -1.010067       -27.4853
  25   2.0000      -0.987434       -26.8694
  26   2.0000      -0.911058       -24.7912
  27   2.0000      -0.906954       -24.6795
  28   2.0000      -0.863432       -23.4952
  29   2.0000      -0.851026       -23.1576
  30   2.0000      -0.848638       -23.0926
  31   2.0000      -0.811490       -22.0818
  32   2.0000      -0.785203       -21.3665
  33   2.0000      -0.768372       -20.9085
  34   2.0000      -0.706818       -19.2335
  35   2.0000      -0.697085       -18.9686
  36   2.0000      -0.689193       -18.7539
  37   2.0000      -0.660468       -17.9722
  38   2.0000      -0.639377       -17.3983
  39   2.0000      -0.625346       -17.0165
  40   2.0000      -0.598794       -16.2940
  41   2.0000      -0.566225       -15.4078
  42   2.0000      -0.561208       -15.2713
  43   2.0000      -0.549078       -14.9412
  44   2.0000      -0.523779       -14.2527
  45   2.0000      -0.517011       -14.0686
  46   2.0000      -0.512893       -13.9565
  47   2.0000      -0.507623       -13.8131
  48   2.0000      -0.506201       -13.7744
  49   2.0000      -0.495395       -13.4804
  50   2.0000      -0.484767       -13.1912
  51   2.0000      -0.480602       -13.0778
  52   2.0000      -0.467971       -12.7341
  53   2.0000      -0.464638       -12.6434
  54   2.0000      -0.455952       -12.4071
  55   2.0000      -0.453515       -12.3408
  56   2.0000      -0.444526       -12.0962
  57   2.0000      -0.441504       -12.0139
  58   2.0000      -0.436688       -11.8829
  59   2.0000      -0.430055       -11.7024
  60   2.0000      -0.428021       -11.6471
  61   2.0000      -0.418098       -11.3770
  62   2.0000      -0.407321       -11.0838
  63   2.0000      -0.344640        -9.3781
  64   2.0000      -0.332589        -9.0502
  65   2.0000      -0.328713        -8.9447
  66   2.0000      -0.287758        -7.8303
  67   0.0000       0.033301         0.9062
  68   0.0000       0.070023         1.9054
  69   0.0000       0.104999         2.8572
  70   0.0000       0.124328         3.3831
  71   0.0000       0.132370         3.6020

MULLIKEN ATOMIC CHARGES
-----------------------
   0 S :    0.101459
   1 C :   -0.163840
   2 C :   -0.038527
   3 C :    0.035493
   4 C :   -0.145316
   5 H :   -0.004514
   6 C :    0.093550
   7 H :    0.021335
   8 H :    0.009023
   9 C :   -0.114401
  10 H :    0.039760
  11 H :    0.044004
  12 C :   -0.041715
  13 H :    0.030318
  14 H :    0.020714
  15 H :    0.036290
  16 S :    0.123997
  17 C :   -0.120061
  18 C :   -0.061384
  19 C :   -0.021526
  20 C :   -0.170183
  21 H :    0.035902
  22 C :    0.135612
  23 H :   -0.004238
  24 H :    0.026739
  25 C :   -0.089234
  26 H :    0.037160
  27 H :    0.029640
  28 C :   -0.087213
  29 H :    0.038576
  30 H :    0.039445
  31 H :    0.025275
  32 H :    0.060805
  33 H :    0.077055
Sum of atomic charges:   -0.0000000

LOEWDIN ATOMIC CHARGES
----------------------
   0 S :    0.404909
   1 C :   -0.200027
   2 C :   -0.065974
   3 C :   -0.056124
   4 C :   -0.193128
   5 H :    0.028381
   6 C :   -0.030572
   7 H :    0.029520
   8 H :    0.023406
   9 C :   -0.036119
  10 H :    0.028061
  11 H :    0.027974
  12 C :   -0.068685
  13 H :    0.029843
  14 H :    0.012069
  15 H :    0.030110
  16 S :    0.424225
  17 C :   -0.207762
  18 C :   -0.080376
  19 C :   -0.055752
  20 C :   -0.199843
  21 H :    0.040599
  22 C :   -0.022525
  23 H :    0.023834
  24 H :    0.031696
  25 C :   -0.041964
  26 H :    0.023394
  27 H :    0.029622
  28 C :   -0.087126
  29 H :    0.025610
  30 H :    0.036366
  31 H :    0.025230
  32 H :    0.028247
  33 H :    0.042878

  Mayer bond orders larger than 0.100000
B(  0-S ,  1-C ) :   1.1465 B(  0-S ,  4-C ) :   1.1695 B(  1-C ,  2-C ) :   1.5689
B(  1-C , 32-H ) :   0.9692 B(  2-C ,  3-C ) :   1.2620 B(  2-C ,  6-C ) :   1.0544
B(  3-C ,  4-C ) :   1.5509 B(  3-C ,  5-H ) :   0.9941 B(  4-C , 20-C ) :   1.0137
B(  6-C ,  7-H ) :   0.9408 B(  6-C ,  8-H ) :   0.9308 B(  6-C ,  9-C ) :   1.0423
B(  9-C , 10-H ) :   0.9637 B(  9-C , 11-H ) :   0.9593 B(  9-C , 12-C ) :   1.0743
B( 12-C , 13-H ) :   0.9730 B( 12-C , 14-H ) :   0.9774 B( 12-C , 15-H ) :   0.9749
B( 16-S , 17-C ) :   1.1485 B( 16-S , 20-C ) :   1.1648 B( 17-C , 18-C ) :   1.6418
B( 17-C , 33-H ) :   0.9521 B( 18-C , 19-C ) :   1.2207 B( 18-C , 21-H ) :   0.9797
B( 19-C , 20-C ) :   1.5953 B( 19-C , 22-C ) :   1.0826 B( 22-C , 23-H ) :   0.9188
B( 22-C , 24-H ) :   0.9315 B( 22-C , 25-C ) :   1.0341 B( 25-C , 26-H ) :   0.9629
B( 25-C , 27-H ) :   0.9523 B( 25-C , 28-C ) :   1.0612 B( 28-C , 29-H ) :   0.9792
B( 28-C , 30-H ) :   0.9747 B( 28-C , 31-H ) :   0.9749

Dispersion correction           -0.014213670
FINAL SINGLE POINT ENERGY     -1339.869915061445

DIPOLE MOMENT
-------------
                                X             Y             Z
Electronic contribution:     16.90369      23.37155     -10.46846
Nuclear contribution   :    -17.33943     -23.76028      10.55772
                        -----------------------------------------
Total Dipole Moment    :     -0.43574      -0.38873       0.08926
                        -----------------------------------------
Magnitude (a.u.)       :      0.59072
Magnitude (Debye)      :      1.50149

Rotational constants in cm-1:     0.016847     0.009222     0.006872
Rotational constants in MHz :   505.066043   276.462379   206.004288

                             ****ORCA TERMINATED NORMALLY****
TOTAL RUN TIME: 0 days 0 hours 0 minutes 33 seconds 548 msec
