                         Program Version 4.2.1 -  RELEASE  -
|  1> ! wB97X-D3 SP def2-SVP
|  2> %pal
|  3> nprocs 16
|  4> end
|  5>
|  6> * xyz 0 1
|  7> S 	 -19.4939 	 0.325314 	 78.837
|  8> C 	 -18.057 	 1.29768 	 78.7407
|  9> C 	 -17.0251 	 0.76461 	 79.4453
| 10> C 	 -17.435 	 -0.390585 	 80.187
| 11> C 	 -18.8048 	 -0.756239 	 79.9986
| 12> H 	 -16.6721 	 -0.922969 	 80.8268
| 13> C 	 -15.6269 	 1.24883 	 79.5245
| 14> H 	 -15.4391 	 2.1694 	 78.9686
| 15> H 	 -15.0319 	 0.521306 	 78.9271
| 16> C 	 -15.0382 	 1.47364 	 80.8911
| 17> H 	 -15.4056 	 2.4338 	 81.2596
| 18> H 	 -15.4431 	 0.7766 	 81.6053
| 19> C 	 -13.5149 	 1.36273 	 80.7272
| 20> H 	 -12.9494 	 1.60921 	 81.628
| 21> H 	 -13.1984 	 0.338895 	 80.4247
| 22> H 	 -13.1996 	 2.05035 	 79.977
| 23> S 	 -21.2657 	 -1.63349 	 80.8442
| 24> C 	 -21.4455 	 -3.10515 	 81.7578
| 25> C 	 -20.2044 	 -3.81125 	 81.6944
| 26> C 	 -19.0923 	 -3.07176 	 81.1312
| 27> C 	 -19.5308 	 -1.83472 	 80.6275
| 28> H 	 -20.1757 	 -4.81431 	 82.061
| 29> C 	 -17.7107 	 -3.71087 	 81.0212
| 30> H 	 -17.2506 	 -3.31975 	 80.0834
| 31> H 	 -17.8772 	 -4.76218 	 80.931
| 32> C 	 -16.7788 	 -3.52876 	 82.2258
| 33> H 	 -17.3068 	 -3.89292 	 83.1431
| 34> H 	 -16.5564 	 -2.46441 	 82.3289
| 35> C 	 -15.5463 	 -4.41552 	 82.0287
| 36> H 	 -14.8943 	 -4.17115 	 82.8319
| 37> H 	 -15.0926 	 -4.32203 	 81.1027
| 38> H 	 -15.7248 	 -5.47631 	 82.1876
| 39> H 	 -17.9176 	 2.11935 	 78.0236
| 40> H 	 -22.424 	 -3.45465 	 82.0902
| 41> *
| 42>
| 43>                          ****END OF INPUT****

CARTESIAN COORDINATES (ANGSTROEM)
---------------------------------
  S    -19.493900    0.325314   78.837000
  C    -18.057000    1.297680   78.740700
  C    -17.025100    0.764610   79.445300
  C    -17.435000   -0.390585   80.187000
  C    -18.804800   -0.756239   79.998600
  H    -16.672100   -0.922969   80.826800
  C    -15.626900    1.248830   79.524500
  H    -15.439100    2.169400   78.968600
  H    -15.031900    0.521306   78.927100
  C    -15.038200    1.473640   80.891100
  H    -15.405600    2.433800   81.259600
  H    -15.443100    0.776600   81.605300
  C    -13.514900    1.362730   80.727200
  H    -12.949400    1.609210   81.628000
  H    -13.198400    0.338895   80.424700
  H    -13.199600    2.050350   79.977000
  S    -21.265700   -1.633490   80.844200
  C    -21.445500   -3.105150   81.757800
  C    -20.204400   -3.811250   81.694400
  C    -19.092300   -3.071760   81.131200
  C    -19.530800   -1.834720   80.627500
  H    -20.175700   -4.814310   82.061000
  C    -17.710700   -3.710870   81.021200
  H    -17.250600   -3.319750   80.083400
  H    -17.877200   -4.762180   80.931000
  C    -16.778800   -3.528760   82.225800
  H    -17.306800   -3.892920   83.143100
  H    -16.556400   -2.464410   82.328900
  C    -15.546300   -4.415520   82.028700
  H    -14.894300   -4.171150   82.831900
  H    -15.092600   -4.322030   81.102700
  H    -15.724800   -5.476310   82.187600
  H    -17.917600    2.119350   78.023600
  H    -22.424000   -3.454650   82.090200

 Total Charge           Charge          ....    0
 Multiplicity           Mult            ....    1
 Number of Electrons    NEL             ....  134
 Basis Dimension        Dim             ....  322

ORBITAL ENERGIES
----------------

  NO   OCC          E(Eh)            E(eV)
   0   2.0000     -88.967300     -2420.9233
   1   2.0000     -88.965319     -2420.8694
   2   2.0000     -10.335177      -281.2345
   3   2.0000     -10.330959      -281.1197
   4   2.0000     -10.324041      -280.9314
   5   2.0000     -10.310584      -280.5653
   6   2.0000     -10.308300      -280.5031
   7   2.0000     -10.300422      -280.2887
   8   2.0000     -10.300144      -280.2812
   9   2.0000     -10.295731      -280.1611
  10   2.0000     -10.292676      -280.0780
  11   2.0000     -10.291732      -280.0523
  12   2.0000     -10.289483      -279.9911
  13   2.0000     -10.285454      -279.8814
  14   2.0000     -10.281319      -279.7689
  15   2.0000     -10.271377      -279.4984
  16   2.0000      -8.082395      -219.9331
  17   2.0000      -8.080053      -219.8694
  18   2.0000      -6.040986      -164.3836
  19   2.0000      -6.038577      -164.3180
  20   2.0000      -6.036779      -164.2691
  21   2.0000      -6.034436      -164.2054
  22   2.0000      -6.033132      -164.1699
  23   2.0000      -6.030918      -164.1096
  24   2.0000      -1.006260       -27.3817
  25   2.0000      -0.982144       -26.7255
  26   2.0000      -0.921589       -25.0777
  27   2.0000      -0.912540       -24.8315
  28   2.0000      -0.870968       -23.7002
  29   2.0000      -0.854548       -23.2534
  30   2.0000      -0.843661       -22.9572
  31   2.0000      -0.806714       -21.9518
  32   2.0000      -0.782847       -21.3023
  33   2.0000      -0.773908       -21.0591
  34   2.0000      -0.713403       -19.4127
  35   2.0000      -0.703545       -19.1444
  36   2.0000      -0.694107       -18.8876
  37   2.0000      -0.666367       -18.1328
  38   2.0000      -0.632720       -17.2172
  39   2.0000      -0.625557       -17.0223
  40   2.0000      -0.595467       -16.2035
  41   2.0000      -0.572188       -15.5700
  42   2.0000      -0.567310       -15.4373
  43   2.0000      -0.560658       -15.2563
  44   2.0000      -0.532385       -14.4869
  45   2.0000      -0.525190       -14.2911
  46   2.0000      -0.518777       -14.1166
  47   2.0000      -0.511150       -13.9091
  48   2.0000      -0.505646       -13.7593
  49   2.0000      -0.501935       -13.6583
  50   2.0000      -0.495778       -13.4908
  51   2.0000      -0.481045       -13.0899
  52   2.0000      -0.467155       -12.7119
  53   2.0000      -0.466062       -12.6822
  54   2.0000      -0.461823       -12.5668
  55   2.0000      -0.450091       -12.2476
  56   2.0000      -0.448282       -12.1984
  57   2.0000      -0.442840       -12.0503
  58   2.0000      -0.439061       -11.9475
  59   2.0000      -0.425925       -11.5900
  60   2.0000      -0.421553       -11.4710
  61   2.0000      -0.418814       -11.3965
  62   2.0000      -0.412228       -11.2173
  63   2.0000      -0.357515        -9.7285
  64   2.0000      -0.330236        -8.9862
  65   2.0000      -0.326809        -8.8929
  66   2.0000      -0.281208        -7.6521
  67   0.0000       0.019486         0.5303
  68   0.0000       0.078896         2.1469
  69   0.0000       0.109247         2.9728
  70   0.0000       0.123389         3.3576
  71   0.0000       0.125903         3.4260

MULLIKEN ATOMIC CHARGES
-----------------------
   0 S :    0.110692
   1 C :   -0.130085
   2 C :   -0.062753
   3 C :   -0.022943
   4 C :   -0.122796
   5 H :    0.017247
   6 C :    0.029861
   7 H :    0.012917
   8 H :    0.038603
   9 C :   -0.051052
  10 H :    0.031213
  11 H :    0.022904
  12 C :   -0.045845
  13 H :    0.031858
  14 H :    0.036544
  15 H :    0.024338
  16 S :    0.100588
  17 C :   -0.104653
  18 C :   -0.037622
  19 C :   -0.027512
  20 C :   -0.135547
  21 H :    0.014160
  22 C :    0.044497
  23 H :    0.038414
  24 H :    0.011914
  25 C :   -0.086897
  26 H :    0.033936
  27 H :    0.035117
  28 C :    0.003018
  29 H :    0.024529
  30 H :    0.018424
  31 H :    0.026383
  32 H :    0.050064
  33 H :    0.070482
Sum of atomic charges:   -0.0000000

LOEWDIN ATOMIC CHARGES
----------------------
   0 S :    0.418894
   1 C :   -0.206905
   2 C :   -0.069250
   3 C :   -0.075258
   4 C :   -0.197120
   5 H :    0.033143
   6 C :   -0.038457
   7 H :    0.029442
   8 H :    0.037217
   9 C :   -0.036844
  10 H :    0.028261
  11 H :    0.017870
  12 C :   -0.059614
  13 H :    0.024472
  14 H :    0.029578
  15 H :    0.020797
  16 S :    0.407544
  17 C :   -0.194068
  18 C :   -0.066675
  19 C :   -0.052668
  20 C :   -0.196555
  21 H :    0.024863
  22 C :   -0.032623
  23 H :    0.034233
  24 H :    0.027179
  25 C :   -0.035298
  26 H :    0.031419
  27 H :    0.019398
  28 C :   -0.057416
  29 H :    0.025711
  30 H :    0.014975
  31 H :    0.028010
  32 H :    0.033236
  33 H :    0.032512

  Mayer bond orders larger than 0.100000
B(  0-S ,  1-C ) :   1.1286 B(  0-S ,  4-C ) :   1.1670 B(  1-C ,  2-C ) :   1.6126
B(  1-C , 32-H ) :   0.9606 B(  2-C ,  3-C ) :   1.2759 B(  2-C ,  6-C ) :   1.0233
B(  3-C ,  4-C ) :   1.5106 B(  3-C ,  5-H ) :   0.9752 B(  4-C , 20-C ) :   1.0941
B(  6-C ,  7-H ) :   0.9369 B(  6-C ,  8-H ) :   0.9406 B(  6-C ,  9-C ) :   1.0443
B(  9-C , 10-H ) :   0.9524 B(  9-C , 11-H ) :   0.9642 B(  9-C , 12-C ) :   1.0692
B( 12-C , 13-H ) :   0.9734 B( 12-C , 14-H ) :   0.9770 B( 12-C , 15-H ) :   0.9741
B( 16-S , 17-C ) :   1.1657 B( 16-S , 20-C ) :   1.1462 B( 17-C , 18-C ) :   1.5621
B( 17-C , 20-C ) :   0.1071 B( 17-C , 33-H ) :   0.9708 B( 18-C , 19-C ) :   1.2626
B( 18-C , 21-H ) :   0.9905 B( 19-C , 20-C ) :   1.5475 B( 19-C , 22-C ) :   1.0400
B( 22-C , 23-H ) :   0.9307 B( 22-C , 24-H ) :   0.9344 B( 22-C , 25-C ) :   1.0734
B( 25-C , 26-H ) :   0.9498 B( 25-C , 27-H ) :   0.9528 B( 25-C , 28-C ) :   1.0832
B( 28-C , 29-H ) :   0.9709 B( 28-C , 30-H ) :   0.9735 B( 28-C , 31-H ) :   0.9716

Dispersion correction           -0.013862350
FINAL SINGLE POINT ENERGY     -1339.887295049170

DIPOLE MOMENT
-------------
                                X             Y             Z
Electronic contribution:    -32.08169       4.20427      -8.49436
Nuclear contribution   :     32.76391      -4.49594       8.63976
                        -----------------------------------------
Total Dipole Moment    :      0.68221      -0.29167       0.14540
                        -----------------------------------------
Magnitude (a.u.)       :      0.75606
Magnitude (Debye)      :      1.92176

Rotational constants in cm-1:     0.016505     0.009749     0.006506
Rotational constants in MHz :   494.792866   292.277472   195.038505

                             ****ORCA TERMINATED NORMALLY****
TOTAL RUN TIME: 0 days 0 hours 0 minutes 33 seconds 863 msec
