                         Program Version 4.2.1 -  RELEASE  -
|  1> ! wB97X-D3 SP def2-SVP
|  2> %pal
|  3> nprocs 16
|  4> end
|  5>
|  6> * xyz 0 1
|  7> S 	 44.4824 	 4.9675 	 85.0506
|  8> C 	 45.144 	 6.53558 	 84.5656
|  9> C 	 45.0699 	 7.47402 	 85.6198
| 10> C 	 44.2922 	 6.97944 	 86.7304
| 11> C 	 43.9745 	 5.63938 	 86.6503
| 12> H 	 44.1234 	 7.52251 	 87.6882
| 13> C 	 45.7217 	 8.832 	 85.4992
| 14> H 	 45.2611 	 9.4862 	 86.3212
| 15> H 	 45.5259 	 9.44722 	 84.6174
| 16> C 	 47.2033 	 8.7784 	 85.6713
| 17> H 	 47.7964 	 8.12959 	 85.0023
| 18> H 	 47.5407 	 9.72767 	 85.3021
| 19> C 	 47.7132 	 8.39278 	 87.1021
| 20> H 	 47.3425 	 9.06859 	 87.8933
| 21> H 	 47.5058 	 7.32434 	 87.4419
| 22> H 	 48.7957 	 8.57902 	 87.1716
| 23> S 	 42.094 	 3.69165 	 87.3527
| 24> C 	 42.1818 	 2.98714 	 88.9671
| 25> C 	 43.0943 	 3.61783 	 89.7452
| 26> C 	 43.8304 	 4.65207 	 89.0671
| 27> C 	 43.4654 	 4.8001 	 87.7094
| 28> H 	 43.3406 	 3.23397 	 90.7719
| 29> C 	 44.8574 	 5.49242 	 89.7065
| 30> H 	 45.5774 	 5.84333 	 88.9585
| 31> H 	 45.4497 	 4.70456 	 90.2002
| 32> C 	 44.5035 	 6.60442 	 90.7091
| 33> H 	 44.1306 	 6.29572 	 91.7108
| 34> H 	 43.5797 	 7.12119 	 90.2868
| 35> C 	 45.7753 	 7.52338 	 90.7443
| 36> H 	 46.7044 	 7.00828 	 90.8815
| 37> H 	 45.6911 	 8.28999 	 91.5218
| 38> H 	 45.9013 	 8.06847 	 89.8653
| 39> H 	 45.7857 	 6.56806 	 83.6911
| 40> H 	 41.6113 	 2.14223 	 89.2742
| 41> *
| 42>
| 43>                          ****END OF INPUT****

CARTESIAN COORDINATES (ANGSTROEM)
---------------------------------
  S     44.482400    4.967500   85.050600
  C     45.144000    6.535580   84.565600
  C     45.069900    7.474020   85.619800
  C     44.292200    6.979440   86.730400
  C     43.974500    5.639380   86.650300
  H     44.123400    7.522510   87.688200
  C     45.721700    8.832000   85.499200
  H     45.261100    9.486200   86.321200
  H     45.525900    9.447220   84.617400
  C     47.203300    8.778400   85.671300
  H     47.796400    8.129590   85.002300
  H     47.540700    9.727670   85.302100
  C     47.713200    8.392780   87.102100
  H     47.342500    9.068590   87.893300
  H     47.505800    7.324340   87.441900
  H     48.795700    8.579020   87.171600
  S     42.094000    3.691650   87.352700
  C     42.181800    2.987140   88.967100
  C     43.094300    3.617830   89.745200
  C     43.830400    4.652070   89.067100
  C     43.465400    4.800100   87.709400
  H     43.340600    3.233970   90.771900
  C     44.857400    5.492420   89.706500
  H     45.577400    5.843330   88.958500
  H     45.449700    4.704560   90.200200
  C     44.503500    6.604420   90.709100
  H     44.130600    6.295720   91.710800
  H     43.579700    7.121190   90.286800
  C     45.775300    7.523380   90.744300
  H     46.704400    7.008280   90.881500
  H     45.691100    8.289990   91.521800
  H     45.901300    8.068470   89.865300
  H     45.785700    6.568060   83.691100
  H     41.611300    2.142230   89.274200

 Total Charge           Charge          ....    0
 Multiplicity           Mult            ....    1
 Number of Electrons    NEL             ....  134
 Basis Dimension        Dim             ....  322

ORBITAL ENERGIES
----------------

  NO   OCC          E(Eh)            E(eV)
   0   2.0000     -88.966203     -2420.8934
   1   2.0000     -88.961807     -2420.7738
   2   2.0000     -10.333851      -281.1984
   3   2.0000     -10.329856      -281.0897
   4   2.0000     -10.319879      -280.8182
   5   2.0000     -10.316478      -280.7256
   6   2.0000     -10.309123      -280.5255
   7   2.0000     -10.305626      -280.4303
   8   2.0000     -10.302621      -280.3486
   9   2.0000     -10.301490      -280.3178
  10   2.0000     -10.298445      -280.2349
  11   2.0000     -10.297038      -280.1966
  12   2.0000     -10.289481      -279.9910
  13   2.0000     -10.288333      -279.9598
  14   2.0000     -10.288252      -279.9576
  15   2.0000     -10.277482      -279.6645
  16   2.0000      -8.079813      -219.8629
  17   2.0000      -8.075876      -219.7558
  18   2.0000      -6.038318      -164.3110
  19   2.0000      -6.034494      -164.2069
  20   2.0000      -6.034436      -164.2054
  21   2.0000      -6.030616      -164.1014
  22   2.0000      -6.030554      -164.0997
  23   2.0000      -6.026539      -163.9905
  24   2.0000      -0.997993       -27.1568
  25   2.0000      -0.976219       -26.5643
  26   2.0000      -0.913596       -24.8602
  27   2.0000      -0.909383       -24.7456
  28   2.0000      -0.867838       -23.6151
  29   2.0000      -0.849589       -23.1185
  30   2.0000      -0.841005       -22.8849
  31   2.0000      -0.814265       -22.1573
  32   2.0000      -0.782296       -21.2874
  33   2.0000      -0.769112       -20.9286
  34   2.0000      -0.712523       -19.3887
  35   2.0000      -0.704201       -19.1623
  36   2.0000      -0.698709       -19.0128
  37   2.0000      -0.657323       -17.8867
  38   2.0000      -0.640961       -17.4414
  39   2.0000      -0.614693       -16.7267
  40   2.0000      -0.597953       -16.2711
  41   2.0000      -0.572221       -15.5709
  42   2.0000      -0.557394       -15.1675
  43   2.0000      -0.549815       -14.9612
  44   2.0000      -0.532270       -14.4838
  45   2.0000      -0.525894       -14.3103
  46   2.0000      -0.514614       -14.0034
  47   2.0000      -0.511201       -13.9105
  48   2.0000      -0.506662       -13.7870
  49   2.0000      -0.494957       -13.4685
  50   2.0000      -0.493885       -13.4393
  51   2.0000      -0.475748       -12.9458
  52   2.0000      -0.474102       -12.9010
  53   2.0000      -0.463164       -12.6033
  54   2.0000      -0.454165       -12.3585
  55   2.0000      -0.449877       -12.2418
  56   2.0000      -0.443921       -12.0797
  57   2.0000      -0.437970       -11.9178
  58   2.0000      -0.435054       -11.8384
  59   2.0000      -0.432797       -11.7770
  60   2.0000      -0.420744       -11.4490
  61   2.0000      -0.408771       -11.1232
  62   2.0000      -0.404576       -11.0091
  63   2.0000      -0.348197        -9.4749
  64   2.0000      -0.331997        -9.0341
  65   2.0000      -0.326760        -8.8916
  66   2.0000      -0.289072        -7.8660
  67   0.0000       0.022164         0.6031
  68   0.0000       0.065030         1.7696
  69   0.0000       0.107023         2.9122
  70   0.0000       0.121278         3.3001
  71   0.0000       0.123163         3.3514

MULLIKEN ATOMIC CHARGES
-----------------------
   0 S :    0.100097
   1 C :   -0.116605
   2 C :   -0.088741
   3 C :    0.029611
   4 C :   -0.142741
   5 H :    0.030207
   6 C :    0.040177
   7 H :    0.030233
   8 H :    0.039379
   9 C :   -0.053626
  10 H :    0.029148
  11 H :    0.011158
  12 C :   -0.100827
  13 H :    0.032571
  14 H :    0.066115
  15 H :    0.033879
  16 S :    0.086096
  17 C :   -0.076090
  18 C :   -0.034196
  19 C :   -0.036138
  20 C :   -0.161696
  21 H :    0.035763
  22 C :    0.017620
  23 H :    0.030739
  24 H :    0.022270
  25 C :   -0.061535
  26 H :    0.037489
  27 H :    0.038580
  28 C :   -0.019091
  29 H :    0.029890
  30 H :    0.027558
  31 H :    0.008810
  32 H :    0.062683
  33 H :    0.051213
Sum of atomic charges:    0.0000000

LOEWDIN ATOMIC CHARGES
----------------------
   0 S :    0.377495
   1 C :   -0.185318
   2 C :   -0.060850
   3 C :   -0.062942
   4 C :   -0.180095
   5 H :    0.040513
   6 C :   -0.041074
   7 H :    0.038431
   8 H :    0.035381
   9 C :   -0.045486
  10 H :    0.027676
  11 H :    0.021546
  12 C :   -0.077915
  13 H :    0.021137
  14 H :    0.035221
  15 H :    0.029091
  16 S :    0.372592
  17 C :   -0.168380
  18 C :   -0.079702
  19 C :   -0.052852
  20 C :   -0.188093
  21 H :    0.041719
  22 C :   -0.049261
  23 H :    0.034243
  24 H :    0.036102
  25 C :   -0.038084
  26 H :    0.027068
  27 H :    0.029100
  28 C :   -0.058120
  29 H :    0.025136
  30 H :    0.026207
  31 H :    0.015635
  32 H :    0.027507
  33 H :    0.026371

  Mayer bond orders larger than 0.100000
B(  0-S ,  1-C ) :   1.1409 B(  0-S ,  4-C ) :   1.1384 B(  1-C ,  2-C ) :   1.5965
B(  1-C , 32-H ) :   0.9682 B(  2-C ,  3-C ) :   1.2364 B(  2-C ,  6-C ) :   1.0148
B(  3-C ,  4-C ) :   1.5704 B(  3-C ,  5-H ) :   0.9839 B(  4-C , 20-C ) :   1.0731
B(  6-C ,  7-H ) :   0.9421 B(  6-C ,  8-H ) :   0.9471 B(  6-C ,  9-C ) :   1.0792
B(  9-C , 10-H ) :   0.9552 B(  9-C , 11-H ) :   0.9512 B(  9-C , 12-C ) :   1.0663
B( 12-C , 13-H ) :   0.9722 B( 12-C , 14-H ) :   0.9732 B( 12-C , 15-H ) :   0.9706
B( 16-S , 17-C ) :   1.1435 B( 16-S , 20-C ) :   1.1166 B( 17-C , 18-C ) :   1.6279
B( 17-C , 33-H ) :   0.9687 B( 18-C , 19-C ) :   1.2293 B( 18-C , 21-H ) :   0.9812
B( 19-C , 20-C ) :   1.5797 B( 19-C , 22-C ) :   1.0574 B( 22-C , 23-H ) :   0.9415
B( 22-C , 24-H ) :   0.9098 B( 22-C , 25-C ) :   1.0354 B( 25-C , 26-H ) :   0.9558
B( 25-C , 27-H ) :   0.9590 B( 25-C , 28-C ) :   1.0645 B( 28-C , 29-H ) :   0.9743
B( 28-C , 30-H ) :   0.9720 B( 28-C , 31-H ) :   0.9752

Dispersion correction           -0.015920899
FINAL SINGLE POINT ENERGY     -1339.873330593332

DIPOLE MOMENT
-------------
                                X             Y             Z
Electronic contribution:    -19.57887     -21.27322     -14.24094
Nuclear contribution   :     20.18899      21.71362      14.69295
                        -----------------------------------------
Total Dipole Moment    :      0.61012       0.44041       0.45202
                        -----------------------------------------
Magnitude (a.u.)       :      0.87780
Magnitude (Debye)      :      2.23118

Rotational constants in cm-1:     0.018126     0.010384     0.007044
Rotational constants in MHz :   543.404275   311.311892   211.165774

                             ****ORCA TERMINATED NORMALLY****
TOTAL RUN TIME: 0 days 0 hours 0 minutes 31 seconds 992 msec
