                         Program Version 4.2.1 -  RELEASE  -
|  1> ! wB97X-D3 SP def2-SVP
|  2> %pal
|  3> nprocs 16
|  4> end
|  5>
|  6> * xyz 0 1
|  7> S 	 -35.2855 	 55.8518 	 107.693
|  8> C 	 -35.4385 	 57.5197 	 107.294
|  9> C 	 -34.4164 	 57.9061 	 106.457
| 10> C 	 -33.5205 	 56.7954 	 106.118
| 11> C 	 -33.6997 	 55.6532 	 106.816
| 12> H 	 -32.6926 	 56.7932 	 105.417
| 13> C 	 -34.3494 	 59.2607 	 105.779
| 14> H 	 -33.4912 	 59.6796 	 106.328
| 15> H 	 -35.1523 	 59.9531 	 105.998
| 16> C 	 -34.2759 	 59.203 	 104.223
| 17> H 	 -33.3746 	 58.6648 	 104.029
| 18> H 	 -35.1752 	 58.739 	 103.802
| 19> C 	 -34.1828 	 60.5912 	 103.721
| 20> H 	 -35.0256 	 61.2151 	 103.735
| 21> H 	 -33.434 	 61.1972 	 104.289
| 22> H 	 -33.767 	 60.6867 	 102.691
| 23> S 	 -34.1502 	 52.9702 	 107.014
| 24> C 	 -32.8432 	 51.8374 	 107.3
| 25> C 	 -31.6352 	 52.5406 	 107.16
| 26> C 	 -31.7887 	 53.9205 	 106.842
| 27> C 	 -33.0944 	 54.329 	 106.837
| 28> H 	 -30.6598 	 52.0628 	 107.282
| 29> C 	 -30.5649 	 54.8478 	 106.816
| 30> H 	 -30.8981 	 55.547 	 106.044
| 31> H 	 -29.6699 	 54.5306 	 106.463
| 32> C 	 -30.4242 	 55.6053 	 108.166
| 33> H 	 -29.8328 	 54.9526 	 108.864
| 34> H 	 -31.4304 	 55.7337 	 108.689
| 35> C 	 -29.7185 	 56.9023 	 108.028
| 36> H 	 -28.656 	 56.8127 	 108.078
| 37> H 	 -30.0215 	 57.6605 	 108.794
| 38> H 	 -29.9504 	 57.4221 	 107.075
| 39> H 	 -36.2998 	 58.0836 	 107.7
| 40> H 	 -32.9353 	 50.7733 	 107.487
| 41> *
| 42>
| 43>                          ****END OF INPUT****

CARTESIAN COORDINATES (ANGSTROEM)
---------------------------------
  S    -35.285500   55.851800  107.693000
  C    -35.438500   57.519700  107.294000
  C    -34.416400   57.906100  106.457000
  C    -33.520500   56.795400  106.118000
  C    -33.699700   55.653200  106.816000
  H    -32.692600   56.793200  105.417000
  C    -34.349400   59.260700  105.779000
  H    -33.491200   59.679600  106.328000
  H    -35.152300   59.953100  105.998000
  C    -34.275900   59.203000  104.223000
  H    -33.374600   58.664800  104.029000
  H    -35.175200   58.739000  103.802000
  C    -34.182800   60.591200  103.721000
  H    -35.025600   61.215100  103.735000
  H    -33.434000   61.197200  104.289000
  H    -33.767000   60.686700  102.691000
  S    -34.150200   52.970200  107.014000
  C    -32.843200   51.837400  107.300000
  C    -31.635200   52.540600  107.160000
  C    -31.788700   53.920500  106.842000
  C    -33.094400   54.329000  106.837000
  H    -30.659800   52.062800  107.282000
  C    -30.564900   54.847800  106.816000
  H    -30.898100   55.547000  106.044000
  H    -29.669900   54.530600  106.463000
  C    -30.424200   55.605300  108.166000
  H    -29.832800   54.952600  108.864000
  H    -31.430400   55.733700  108.689000
  C    -29.718500   56.902300  108.028000
  H    -28.656000   56.812700  108.078000
  H    -30.021500   57.660500  108.794000
  H    -29.950400   57.422100  107.075000
  H    -36.299800   58.083600  107.700000
  H    -32.935300   50.773300  107.487000

 Total Charge           Charge          ....    0
 Multiplicity           Mult            ....    1
 Number of Electrons    NEL             ....  134
 Basis Dimension        Dim             ....  322

ORBITAL ENERGIES
----------------

  NO   OCC          E(Eh)            E(eV)
   0   2.0000     -88.966494     -2420.9014
   1   2.0000     -88.955495     -2420.6021
   2   2.0000     -10.334756      -281.2230
   3   2.0000     -10.326946      -281.0105
   4   2.0000     -10.321286      -280.8565
   5   2.0000     -10.315005      -280.6855
   6   2.0000     -10.305218      -280.4192
   7   2.0000     -10.302705      -280.3508
   8   2.0000     -10.299270      -280.2574
   9   2.0000     -10.295878      -280.1651
  10   2.0000     -10.291546      -280.0472
  11   2.0000     -10.289005      -279.9781
  12   2.0000     -10.287306      -279.9318
  13   2.0000     -10.286875      -279.9201
  14   2.0000     -10.274888      -279.5939
  15   2.0000     -10.274158      -279.5740
  16   2.0000      -8.081354      -219.9048
  17   2.0000      -8.070419      -219.6073
  18   2.0000      -6.039967      -164.3559
  19   2.0000      -6.035679      -164.2392
  20   2.0000      -6.032133      -164.1427
  21   2.0000      -6.029046      -164.0587
  22   2.0000      -6.024952      -163.9473
  23   2.0000      -6.020958      -163.8386
  24   2.0000      -1.009125       -27.4597
  25   2.0000      -0.983665       -26.7669
  26   2.0000      -0.914807       -24.8932
  27   2.0000      -0.910375       -24.7726
  28   2.0000      -0.873903       -23.7801
  29   2.0000      -0.853315       -23.2199
  30   2.0000      -0.843462       -22.9518
  31   2.0000      -0.820718       -22.3329
  32   2.0000      -0.781030       -21.2529
  33   2.0000      -0.766671       -20.8622
  34   2.0000      -0.711464       -19.3599
  35   2.0000      -0.696803       -18.9610
  36   2.0000      -0.691873       -18.8268
  37   2.0000      -0.667538       -18.1646
  38   2.0000      -0.647338       -17.6150
  39   2.0000      -0.621688       -16.9170
  40   2.0000      -0.599168       -16.3042
  41   2.0000      -0.572560       -15.5802
  42   2.0000      -0.564056       -15.3488
  43   2.0000      -0.559418       -15.2225
  44   2.0000      -0.525534       -14.3005
  45   2.0000      -0.521996       -14.2042
  46   2.0000      -0.517642       -14.0858
  47   2.0000      -0.515647       -14.0315
  48   2.0000      -0.513070       -13.9613
  49   2.0000      -0.503152       -13.6915
  50   2.0000      -0.495415       -13.4809
  51   2.0000      -0.489993       -13.3334
  52   2.0000      -0.476617       -12.9694
  53   2.0000      -0.471312       -12.8251
  54   2.0000      -0.457014       -12.4360
  55   2.0000      -0.447456       -12.1759
  56   2.0000      -0.439055       -11.9473
  57   2.0000      -0.431485       -11.7413
  58   2.0000      -0.428900       -11.6710
  59   2.0000      -0.421090       -11.4584
  60   2.0000      -0.417397       -11.3579
  61   2.0000      -0.410228       -11.1629
  62   2.0000      -0.398589       -10.8462
  63   2.0000      -0.359988        -9.7958
  64   2.0000      -0.331351        -9.0165
  65   2.0000      -0.322236        -8.7685
  66   2.0000      -0.288771        -7.8579
  67   0.0000       0.022924         0.6238
  68   0.0000       0.076675         2.0864
  69   0.0000       0.108804         2.9607
  70   0.0000       0.124208         3.3799
  71   0.0000       0.139009         3.7826

MULLIKEN ATOMIC CHARGES
-----------------------
   0 S :    0.060856
   1 C :   -0.129531
   2 C :   -0.063678
   3 C :    0.009942
   4 C :   -0.132194
   5 H :    0.019357
   6 C :    0.016967
   7 H :    0.041154
   8 H :    0.013955
   9 C :   -0.023377
  10 H :    0.028019
  11 H :    0.047725
  12 C :   -0.055250
  13 H :    0.022765
  14 H :    0.015763
  15 H :    0.030916
  16 S :    0.110260
  17 C :   -0.097962
  18 C :   -0.035126
  19 C :   -0.055031
  20 C :   -0.140398
  21 H :    0.021666
  22 C :    0.124411
  23 H :   -0.001260
  24 H :   -0.004209
  25 C :   -0.096270
  26 H :    0.032351
  27 H :    0.060020
  28 C :   -0.045961
  29 H :    0.027220
  30 H :    0.038628
  31 H :    0.022549
  32 H :    0.070363
  33 H :    0.065361
Sum of atomic charges:   -0.0000000

LOEWDIN ATOMIC CHARGES
----------------------
   0 S :    0.366231
   1 C :   -0.201109
   2 C :   -0.067939
   3 C :   -0.067607
   4 C :   -0.159649
   5 H :    0.028914
   6 C :   -0.035215
   7 H :    0.036723
   8 H :    0.025304
   9 C :   -0.032549
  10 H :    0.022453
  11 H :    0.034147
  12 C :   -0.072882
  13 H :    0.017067
  14 H :    0.027933
  15 H :    0.030339
  16 S :    0.420972
  17 C :   -0.188439
  18 C :   -0.070936
  19 C :   -0.057286
  20 C :   -0.207791
  21 H :    0.031912
  22 C :   -0.019242
  23 H :    0.027694
  24 H :    0.013964
  25 C :   -0.046317
  26 H :    0.028344
  27 H :    0.037950
  28 C :   -0.073930
  29 H :    0.020296
  30 H :    0.034461
  31 H :    0.024217
  32 H :    0.038291
  33 H :    0.033680

  Mayer bond orders larger than 0.100000
B(  0-S ,  1-C ) :   1.1363 B(  0-S ,  4-C ) :   1.1118 B(  1-C ,  2-C ) :   1.6231
B(  1-C , 32-H ) :   0.9689 B(  2-C ,  3-C ) :   1.1902 B(  2-C ,  6-C ) :   1.0122
B(  3-C ,  4-C ) :   1.6398 B(  3-C ,  5-H ) :   0.9834 B(  4-C , 20-C ) :   1.0492
B(  6-C ,  7-H ) :   0.9344 B(  6-C ,  8-H ) :   0.9559 B(  6-C ,  9-C ) :   1.0589
B(  9-C , 10-H ) :   0.9483 B(  9-C , 11-H ) :   0.9563 B(  9-C , 12-C ) :   1.0952
B( 12-C , 13-H ) :   0.9743 B( 12-C , 14-H ) :   0.9683 B( 12-C , 15-H ) :   0.9695
B( 16-S , 17-C ) :   1.1553 B( 16-S , 20-C ) :   1.1495 B( 17-C , 18-C ) :   1.5703
B( 17-C , 20-C ) :   0.1027 B( 17-C , 33-H ) :   0.9732 B( 18-C , 19-C ) :   1.2752
B( 18-C , 21-H ) :   0.9883 B( 19-C , 20-C ) :   1.5765 B( 19-C , 22-C ) :   1.0385
B( 22-C , 23-H ) :   0.9369 B( 22-C , 24-H ) :   0.9360 B( 22-C , 25-C ) :   1.0446
B( 25-C , 26-H ) :   0.9538 B( 25-C , 27-H ) :   0.9626 B( 25-C , 28-C ) :   1.0764
B( 28-C , 29-H ) :   0.9736 B( 28-C , 30-H ) :   0.9723 B( 28-C , 31-H ) :   0.9760

Dispersion correction           -0.014356459
FINAL SINGLE POINT ENERGY     -1339.864346135410

DIPOLE MOMENT
-------------
                                X             Y             Z
Electronic contribution:    -15.40207     -23.77744       7.65752
Nuclear contribution   :     15.88822      24.17993      -7.86319
                        -----------------------------------------
Total Dipole Moment    :      0.48615       0.40249      -0.20566
                        -----------------------------------------
Magnitude (a.u.)       :      0.66381
Magnitude (Debye)      :      1.68727

Rotational constants in cm-1:     0.019433     0.008568     0.006903
Rotational constants in MHz :   582.573045   256.857057   206.957784

                             ****ORCA TERMINATED NORMALLY****
TOTAL RUN TIME: 0 days 0 hours 0 minutes 28 seconds 530 msec
