                         Program Version 4.2.1 -  RELEASE  -
|  1> ! wB97X-D3 SP def2-SVP
|  2> %pal
|  3> nprocs 16
|  4> end
|  5>
|  6> * xyz 0 1
|  7> S 	 41.9781 	 20.2987 	 83.9081
|  8> C 	 40.5021 	 21.0763 	 84.0717
|  9> C 	 39.4715 	 20.4066 	 83.5987
| 10> C 	 39.8743 	 19.1635 	 83.0145
| 11> C 	 41.2117 	 18.8127 	 83.2611
| 12> H 	 39.1443 	 18.5715 	 82.4684
| 13> C 	 38.0662 	 20.9812 	 83.54
| 14> H 	 37.5793 	 20.4065 	 82.7636
| 15> H 	 38.0678 	 22.0312 	 83.3084
| 16> C 	 37.2515 	 20.74 	 84.7586
| 17> H 	 37.3209 	 19.6662 	 85.0253
| 18> H 	 37.7403 	 21.2918 	 85.681
| 19> C 	 35.8396 	 21.2143 	 84.5777
| 20> H 	 35.8356 	 22.2888 	 84.3709
| 21> H 	 35.3307 	 20.7053 	 83.7768
| 22> H 	 35.2833 	 20.962 	 85.4408
| 23> S 	 43.5133 	 17.8147 	 81.9605
| 24> C 	 43.6541 	 16.1107 	 81.6333
| 25> C 	 42.6089 	 15.4171 	 82.2199
| 26> C 	 41.5745 	 16.2836 	 82.7526
| 27> C 	 41.8818 	 17.6094 	 82.6837
| 28> H 	 42.5511 	 14.3024 	 82.1895
| 29> C 	 40.2569 	 15.7281 	 83.2172
| 30> H 	 40.315 	 14.7001 	 82.957
| 31> H 	 39.3421 	 16.0965 	 82.6413
| 32> C 	 40.1647 	 15.7483 	 84.7334
| 33> H 	 40.4828 	 16.7158 	 85.1402
| 34> H 	 40.8131 	 15.0487 	 85.1633
| 35> C 	 38.7528 	 15.4321 	 85.2574
| 36> H 	 38.2628 	 14.5482 	 84.9203
| 37> H 	 38.1507 	 16.3353 	 85.0409
| 38> H 	 38.7505 	 15.4237 	 86.3446
| 39> H 	 40.4307 	 22.0482 	 84.6113
| 40> H 	 44.5307 	 15.5773 	 81.3668
| 41> *
| 42>
| 43>                          ****END OF INPUT****

CARTESIAN COORDINATES (ANGSTROEM)
---------------------------------
  S     41.978100   20.298700   83.908100
  C     40.502100   21.076300   84.071700
  C     39.471500   20.406600   83.598700
  C     39.874300   19.163500   83.014500
  C     41.211700   18.812700   83.261100
  H     39.144300   18.571500   82.468400
  C     38.066200   20.981200   83.540000
  H     37.579300   20.406500   82.763600
  H     38.067800   22.031200   83.308400
  C     37.251500   20.740000   84.758600
  H     37.320900   19.666200   85.025300
  H     37.740300   21.291800   85.681000
  C     35.839600   21.214300   84.577700
  H     35.835600   22.288800   84.370900
  H     35.330700   20.705300   83.776800
  H     35.283300   20.962000   85.440800
  S     43.513300   17.814700   81.960500
  C     43.654100   16.110700   81.633300
  C     42.608900   15.417100   82.219900
  C     41.574500   16.283600   82.752600
  C     41.881800   17.609400   82.683700
  H     42.551100   14.302400   82.189500
  C     40.256900   15.728100   83.217200
  H     40.315000   14.700100   82.957000
  H     39.342100   16.096500   82.641300
  C     40.164700   15.748300   84.733400
  H     40.482800   16.715800   85.140200
  H     40.813100   15.048700   85.163300
  C     38.752800   15.432100   85.257400
  H     38.262800   14.548200   84.920300
  H     38.150700   16.335300   85.040900
  H     38.750500   15.423700   86.344600
  H     40.430700   22.048200   84.611300
  H     44.530700   15.577300   81.366800

 Total Charge           Charge          ....    0
 Multiplicity           Mult            ....    1
 Number of Electrons    NEL             ....  134
 Basis Dimension        Dim             ....  322

ORBITAL ENERGIES
----------------

  NO   OCC          E(Eh)            E(eV)
   0   2.0000     -88.966989     -2420.9148
   1   2.0000     -88.963433     -2420.8181
   2   2.0000     -10.338805      -281.3332
   3   2.0000     -10.331559      -281.1360
   4   2.0000     -10.314876      -280.6821
   5   2.0000     -10.306667      -280.4587
   6   2.0000     -10.301030      -280.3053
   7   2.0000     -10.299119      -280.2533
   8   2.0000     -10.298965      -280.2491
   9   2.0000     -10.290862      -280.0286
  10   2.0000     -10.290665      -280.0232
  11   2.0000     -10.289804      -279.9998
  12   2.0000     -10.286825      -279.9187
  13   2.0000     -10.277620      -279.6683
  14   2.0000     -10.274053      -279.5712
  15   2.0000     -10.273019      -279.5431
  16   2.0000      -8.082493      -219.9358
  17   2.0000      -8.077774      -219.8074
  18   2.0000      -6.041094      -164.3865
  19   2.0000      -6.036886      -164.2720
  20   2.0000      -6.036406      -164.2590
  21   2.0000      -6.033094      -164.1688
  22   2.0000      -6.032402      -164.1500
  23   2.0000      -6.028359      -164.0400
  24   2.0000      -1.009520       -27.4704
  25   2.0000      -0.988245       -26.8915
  26   2.0000      -0.921870       -25.0854
  27   2.0000      -0.910964       -24.7886
  28   2.0000      -0.870808       -23.6959
  29   2.0000      -0.854412       -23.2497
  30   2.0000      -0.846298       -23.0289
  31   2.0000      -0.815756       -22.1979
  32   2.0000      -0.782989       -21.3062
  33   2.0000      -0.774806       -21.0835
  34   2.0000      -0.707926       -19.2637
  35   2.0000      -0.693168       -18.8620
  36   2.0000      -0.692149       -18.8343
  37   2.0000      -0.665662       -18.1136
  38   2.0000      -0.639525       -17.4024
  39   2.0000      -0.623280       -16.9603
  40   2.0000      -0.593337       -16.1455
  41   2.0000      -0.573467       -15.6048
  42   2.0000      -0.569041       -15.4844
  43   2.0000      -0.563412       -15.3312
  44   2.0000      -0.528857       -14.3909
  45   2.0000      -0.524436       -14.2706
  46   2.0000      -0.517210       -14.0740
  47   2.0000      -0.509021       -13.8512
  48   2.0000      -0.507958       -13.8222
  49   2.0000      -0.497497       -13.5376
  50   2.0000      -0.493417       -13.4265
  51   2.0000      -0.490351       -13.3431
  52   2.0000      -0.470713       -12.8088
  53   2.0000      -0.468169       -12.7395
  54   2.0000      -0.463564       -12.6142
  55   2.0000      -0.448053       -12.1922
  56   2.0000      -0.443969       -12.0810
  57   2.0000      -0.440376       -11.9832
  58   2.0000      -0.432532       -11.7698
  59   2.0000      -0.422518       -11.4973
  60   2.0000      -0.415654       -11.3105
  61   2.0000      -0.413340       -11.2476
  62   2.0000      -0.410700       -11.1757
  63   2.0000      -0.356053        -9.6887
  64   2.0000      -0.330947        -9.0055
  65   2.0000      -0.328419        -8.9367
  66   2.0000      -0.293315        -7.9815
  67   0.0000       0.025581         0.6961
  68   0.0000       0.073549         2.0014
  69   0.0000       0.107787         2.9330
  70   0.0000       0.122120         3.3231
  71   0.0000       0.129055         3.5118

MULLIKEN ATOMIC CHARGES
-----------------------
   0 S :    0.112133
   1 C :   -0.141189
   2 C :   -0.070573
   3 C :    0.006360
   4 C :   -0.124445
   5 H :    0.013688
   6 C :    0.097350
   7 H :    0.004798
   8 H :    0.023499
   9 C :   -0.131741
  10 H :    0.030773
  11 H :    0.031851
  12 C :    0.008612
  13 H :    0.031451
  14 H :    0.019885
  15 H :    0.027699
  16 S :    0.086745
  17 C :   -0.065127
  18 C :   -0.055445
  19 C :   -0.075159
  20 C :   -0.135706
  21 H :    0.036655
  22 C :    0.076521
  23 H :   -0.004879
  24 H :    0.050020
  25 C :   -0.060873
  26 H :    0.039821
  27 H :    0.011995
  28 C :   -0.038374
  29 H :    0.030079
  30 H :    0.025232
  31 H :    0.024700
  32 H :    0.062402
  33 H :    0.051241
Sum of atomic charges:   -0.0000000

LOEWDIN ATOMIC CHARGES
----------------------
   0 S :    0.417994
   1 C :   -0.211544
   2 C :   -0.078137
   3 C :   -0.052589
   4 C :   -0.187491
   5 H :    0.028465
   6 C :   -0.027296
   7 H :    0.028090
   8 H :    0.027545
   9 C :   -0.049315
  10 H :    0.024440
  11 H :    0.028316
  12 C :   -0.060550
  13 H :    0.028414
  14 H :    0.022808
  15 H :    0.024070
  16 S :    0.383990
  17 C :   -0.186822
  18 C :   -0.073124
  19 C :   -0.060664
  20 C :   -0.174805
  21 H :    0.037668
  22 C :   -0.034291
  23 H :    0.024480
  24 H :    0.038043
  25 C :   -0.032642
  26 H :    0.027667
  27 H :    0.016545
  28 C :   -0.065965
  29 H :    0.018259
  30 H :    0.026747
  31 H :    0.025615
  32 H :    0.038925
  33 H :    0.027151

  Mayer bond orders larger than 0.100000
B(  0-S ,  1-C ) :   1.1578 B(  0-S ,  4-C ) :   1.1399 B(  1-C ,  2-C ) :   1.6248
B(  1-C , 32-H ) :   0.9531 B(  2-C ,  3-C ) :   1.2720 B(  2-C ,  6-C ) :   1.0124
B(  3-C ,  4-C ) :   1.5392 B(  3-C ,  5-H ) :   0.9882 B(  4-C , 20-C ) :   1.0543
B(  6-C ,  7-H ) :   0.9315 B(  6-C ,  8-H ) :   0.9434 B(  6-C ,  9-C ) :   1.0733
B(  9-C , 10-H ) :   0.9511 B(  9-C , 11-H ) :   0.9499 B(  9-C , 12-C ) :   1.0888
B( 12-C , 13-H ) :   0.9699 B( 12-C , 14-H ) :   0.9700 B( 12-C , 15-H ) :   0.9698
B( 16-S , 17-C ) :   1.1497 B( 16-S , 20-C ) :   1.1112 B( 17-C , 18-C ) :   1.6343
B( 17-C , 33-H ) :   0.9629 B( 18-C , 19-C ) :   1.2484 B( 18-C , 21-H ) :   0.9744
B( 19-C , 20-C ) :   1.6334 B( 19-C , 22-C ) :   1.0330 B( 22-C , 23-H ) :   0.9169
B( 22-C , 24-H ) :   0.9485 B( 22-C , 25-C ) :   1.0519 B( 25-C , 26-H ) :   0.9628
B( 25-C , 27-H ) :   0.9497 B( 25-C , 28-C ) :   1.0848 B( 28-C , 29-H ) :   0.9747
B( 28-C , 30-H ) :   0.9762 B( 28-C , 31-H ) :   0.9718

Dispersion correction           -0.014217486
FINAL SINGLE POINT ENERGY     -1339.873432333003

DIPOLE MOMENT
-------------
                                X             Y             Z
Electronic contribution:     29.70503       4.24296     -10.94078
Nuclear contribution   :    -30.35526      -4.44626      11.09979
                        -----------------------------------------
Total Dipole Moment    :     -0.65022      -0.20329       0.15900
                        -----------------------------------------
Magnitude (a.u.)       :      0.69957
Magnitude (Debye)      :      1.77817

Rotational constants in cm-1:     0.019827     0.008608     0.006527
Rotational constants in MHz :   594.406717   258.066606   195.674598

                             ****ORCA TERMINATED NORMALLY****
TOTAL RUN TIME: 0 days 0 hours 0 minutes 31 seconds 321 msec
