                         Program Version 4.2.1 -  RELEASE  -
|  1> ! wB97X-D3 SP def2-SVP
|  2> %pal
|  3> nprocs 16
|  4> end
|  5>
|  6> * xyz 0 1
|  7> S 	 -14.8766 	 39.2713 	 39.9101
|  8> C 	 -14.9428 	 39.3281 	 38.172
|  9> C 	 -14.6009 	 38.0788 	 37.6807
| 10> C 	 -14.1185 	 37.1094 	 38.6083
| 11> C 	 -14.2095 	 37.6413 	 39.9269
| 12> H 	 -13.881 	 36.0825 	 38.3946
| 13> C 	 -14.5036 	 37.7247 	 36.1947
| 14> H 	 -13.6423 	 37.116 	 36.0699
| 15> H 	 -14.233 	 38.6179 	 35.5941
| 16> C 	 -15.8075 	 37.1533 	 35.5799
| 17> H 	 -16.5791 	 37.7716 	 35.9642
| 18> H 	 -15.806 	 37.0761 	 34.5122
| 19> C 	 -16.1514 	 35.7983 	 36.1505
| 20> H 	 -16.4257 	 35.8248 	 37.2412
| 21> H 	 -16.9064 	 35.2656 	 35.6605
| 22> H 	 -15.2761 	 35.2191 	 35.9988
| 23> S 	 -13.7116 	 37.8032 	 42.4744
| 24> C 	 -13.4451 	 36.4379 	 43.5109
| 25> C 	 -13.677 	 35.2689 	 42.9121
| 26> C 	 -14.0227 	 35.4773 	 41.5174
| 27> C 	 -14.0653 	 36.838 	 41.152
| 28> H 	 -13.6094 	 34.321 	 43.4521
| 29> C 	 -14.0842 	 34.3454 	 40.5757
| 30> H 	 -14.8281 	 34.6741 	 39.9014
| 31> H 	 -14.5368 	 33.5889 	 41.2399
| 32> C 	 -12.7871 	 33.7631 	 40.0451
| 33> H 	 -11.9298 	 33.6902 	 40.6564
| 34> H 	 -12.3331 	 34.3646 	 39.2302
| 35> C 	 -13.1244 	 32.3846 	 39.3301
| 36> H 	 -13.91 	 31.8731 	 39.7963
| 37> H 	 -12.2663 	 31.7444 	 39.4978
| 38> H 	 -13.1567 	 32.4195 	 38.2092
| 39> H 	 -15.1028 	 40.3 	 37.6781
| 40> H 	 -13.2176 	 36.5122 	 44.5704
| 41> *
| 42>
| 43>                          ****END OF INPUT****

CARTESIAN COORDINATES (ANGSTROEM)
---------------------------------
  S    -14.876600   39.271300   39.910100
  C    -14.942800   39.328100   38.172000
  C    -14.600900   38.078800   37.680700
  C    -14.118500   37.109400   38.608300
  C    -14.209500   37.641300   39.926900
  H    -13.881000   36.082500   38.394600
  C    -14.503600   37.724700   36.194700
  H    -13.642300   37.116000   36.069900
  H    -14.233000   38.617900   35.594100
  C    -15.807500   37.153300   35.579900
  H    -16.579100   37.771600   35.964200
  H    -15.806000   37.076100   34.512200
  C    -16.151400   35.798300   36.150500
  H    -16.425700   35.824800   37.241200
  H    -16.906400   35.265600   35.660500
  H    -15.276100   35.219100   35.998800
  S    -13.711600   37.803200   42.474400
  C    -13.445100   36.437900   43.510900
  C    -13.677000   35.268900   42.912100
  C    -14.022700   35.477300   41.517400
  C    -14.065300   36.838000   41.152000
  H    -13.609400   34.321000   43.452100
  C    -14.084200   34.345400   40.575700
  H    -14.828100   34.674100   39.901400
  H    -14.536800   33.588900   41.239900
  C    -12.787100   33.763100   40.045100
  H    -11.929800   33.690200   40.656400
  H    -12.333100   34.364600   39.230200
  C    -13.124400   32.384600   39.330100
  H    -13.910000   31.873100   39.796300
  H    -12.266300   31.744400   39.497800
  H    -13.156700   32.419500   38.209200
  H    -15.102800   40.300000   37.678100
  H    -13.217600   36.512200   44.570400

 Total Charge           Charge          ....    0
 Multiplicity           Mult            ....    1
 Number of Electrons    NEL             ....  134
 Basis Dimension        Dim             ....  322

ORBITAL ENERGIES
----------------

  NO   OCC          E(Eh)            E(eV)
   0   2.0000     -88.968663     -2420.9604
   1   2.0000     -88.959237     -2420.7039
   2   2.0000     -10.337884      -281.3081
   3   2.0000     -10.322350      -280.8854
   4   2.0000     -10.318632      -280.7842
   5   2.0000     -10.309840      -280.5450
   6   2.0000     -10.303742      -280.3791
   7   2.0000     -10.301753      -280.3250
   8   2.0000     -10.297137      -280.1993
   9   2.0000     -10.291840      -280.0552
  10   2.0000     -10.290690      -280.0239
  11   2.0000     -10.287423      -279.9350
  12   2.0000     -10.286321      -279.9050
  13   2.0000     -10.278453      -279.6909
  14   2.0000     -10.278248      -279.6853
  15   2.0000     -10.266329      -279.3610
  16   2.0000      -8.083293      -219.9576
  17   2.0000      -8.076306      -219.7675
  18   2.0000      -6.041888      -164.4081
  19   2.0000      -6.037704      -164.2943
  20   2.0000      -6.034772      -164.2145
  21   2.0000      -6.034077      -164.1956
  22   2.0000      -6.030408      -164.0958
  23   2.0000      -6.027042      -164.0041
  24   2.0000      -1.014425       -27.6039
  25   2.0000      -0.987446       -26.8698
  26   2.0000      -0.915235       -24.9048
  27   2.0000      -0.910828       -24.7849
  28   2.0000      -0.876012       -23.8375
  29   2.0000      -0.852656       -23.2019
  30   2.0000      -0.846379       -23.0311
  31   2.0000      -0.818675       -22.2773
  32   2.0000      -0.779129       -21.2012
  33   2.0000      -0.767866       -20.8947
  34   2.0000      -0.715410       -19.4673
  35   2.0000      -0.701376       -19.0854
  36   2.0000      -0.694657       -18.9026
  37   2.0000      -0.669627       -18.2215
  38   2.0000      -0.641439       -17.4544
  39   2.0000      -0.618487       -16.8299
  40   2.0000      -0.594774       -16.1846
  41   2.0000      -0.577208       -15.7066
  42   2.0000      -0.564584       -15.3631
  43   2.0000      -0.547097       -14.8873
  44   2.0000      -0.542442       -14.7606
  45   2.0000      -0.529374       -14.4050
  46   2.0000      -0.524113       -14.2618
  47   2.0000      -0.517218       -14.0742
  48   2.0000      -0.508569       -13.8389
  49   2.0000      -0.500954       -13.6317
  50   2.0000      -0.488317       -13.2878
  51   2.0000      -0.486705       -13.2439
  52   2.0000      -0.468698       -12.7539
  53   2.0000      -0.464030       -12.6269
  54   2.0000      -0.457284       -12.4433
  55   2.0000      -0.453618       -12.3436
  56   2.0000      -0.448427       -12.2023
  57   2.0000      -0.437687       -11.9101
  58   2.0000      -0.431617       -11.7449
  59   2.0000      -0.419782       -11.4229
  60   2.0000      -0.415834       -11.3154
  61   2.0000      -0.413935       -11.2637
  62   2.0000      -0.404099       -10.9961
  63   2.0000      -0.362753        -9.8710
  64   2.0000      -0.334839        -9.1114
  65   2.0000      -0.323257        -8.7963
  66   2.0000      -0.285200        -7.7607
  67   0.0000       0.021048         0.5727
  68   0.0000       0.086492         2.3536
  69   0.0000       0.106811         2.9065
  70   0.0000       0.115392         3.1400
  71   0.0000       0.128114         3.4862

MULLIKEN ATOMIC CHARGES
-----------------------
   0 S :    0.102949
   1 C :   -0.131174
   2 C :   -0.086031
   3 C :    0.002872
   4 C :   -0.087912
   5 H :    0.011164
   6 C :    0.036289
   7 H :    0.015236
   8 H :    0.022784
   9 C :   -0.017217
  10 H :    0.018283
  11 H :    0.031068
  12 C :   -0.058828
  13 H :    0.049140
  14 H :    0.018815
  15 H :    0.008015
  16 S :    0.088600
  17 C :   -0.076285
  18 C :   -0.029486
  19 C :   -0.101846
  20 C :   -0.126578
  21 H :    0.025457
  22 C :    0.065551
  23 H :    0.027736
  24 H :    0.018760
  25 C :   -0.033945
  26 H :    0.022342
  27 H :    0.021955
  28 C :   -0.050679
  29 H :    0.024580
  30 H :    0.016665
  31 H :    0.046858
  32 H :    0.072921
  33 H :    0.051942
Sum of atomic charges:    0.0000000

LOEWDIN ATOMIC CHARGES
----------------------
   0 S :    0.406337
   1 C :   -0.207207
   2 C :   -0.060772
   3 C :   -0.064736
   4 C :   -0.185866
   5 H :    0.030337
   6 C :   -0.030500
   7 H :    0.019871
   8 H :    0.031832
   9 C :   -0.032160
  10 H :    0.021927
  11 H :    0.022507
  12 C :   -0.065687
  13 H :    0.032372
  14 H :    0.016880
  15 H :    0.015155
  16 S :    0.435376
  17 C :   -0.185781
  18 C :   -0.073861
  19 C :   -0.060235
  20 C :   -0.219207
  21 H :    0.038563
  22 C :   -0.040334
  23 H :    0.029510
  24 H :    0.035418
  25 C :   -0.035820
  26 H :    0.022110
  27 H :    0.027966
  28 C :   -0.065262
  29 H :    0.014924
  30 H :    0.025736
  31 H :    0.032889
  32 H :    0.038346
  33 H :    0.029373

  Mayer bond orders larger than 0.100000
B(  0-S ,  1-C ) :   1.1299 B(  0-S ,  4-C ) :   1.1731 B(  1-C ,  2-C ) :   1.5767
B(  1-C ,  4-C ) :   0.1030 B(  1-C , 32-H ) :   0.9711 B(  2-C ,  3-C ) :   1.2688
B(  2-C ,  6-C ) :   1.0152 B(  3-C ,  4-C ) :   1.5142 B(  3-C ,  5-H ) :   0.9949
B(  4-C , 20-C ) :   1.0477 B(  6-C ,  7-H ) :   0.9525 B(  6-C ,  8-H ) :   0.9459
B(  6-C ,  9-C ) :   1.0633 B(  9-C , 10-H ) :   0.9533 B(  9-C , 11-H ) :   0.9581
B(  9-C , 12-C ) :   1.0841 B( 12-C , 13-H ) :   0.9717 B( 12-C , 14-H ) :   0.9716
B( 12-C , 15-H ) :   0.9740 B( 16-S , 17-C ) :   1.1589 B( 16-S , 20-C ) :   1.1499
B( 17-C , 18-C ) :   1.6288 B( 17-C , 33-H ) :   0.9627 B( 18-C , 19-C ) :   1.2341
B( 18-C , 21-H ) :   0.9921 B( 19-C , 20-C ) :   1.5676 B( 19-C , 22-C ) :   1.0495
B( 22-C , 23-H ) :   0.9298 B( 22-C , 24-H ) :   0.9264 B( 22-C , 25-C ) :   1.0574
B( 25-C , 26-H ) :   0.9618 B( 25-C , 27-H ) :   0.9513 B( 25-C , 28-C ) :   1.0601
B( 28-C , 29-H ) :   0.9804 B( 28-C , 30-H ) :   0.9747 B( 28-C , 31-H ) :   0.9804

Dispersion correction           -0.014663068
FINAL SINGLE POINT ENERGY     -1339.852627014224

DIPOLE MOMENT
-------------
                                X             Y             Z
Electronic contribution:      0.89472      23.26777      20.84912
Nuclear contribution   :     -0.76759     -23.82714     -21.15035
                        -----------------------------------------
Total Dipole Moment    :      0.12713      -0.55937      -0.30123
                        -----------------------------------------
Magnitude (a.u.)       :      0.64791
Magnitude (Debye)      :      1.64686

Rotational constants in cm-1:     0.016833     0.010582     0.006866
Rotational constants in MHz :   504.643298   317.234537   205.845050

                             ****ORCA TERMINATED NORMALLY****
TOTAL RUN TIME: 0 days 0 hours 0 minutes 35 seconds 243 msec
