                         Program Version 4.2.1 -  RELEASE  -
|  1> ! wB97X-D3 SP def2-SVP
|  2> %pal
|  3> nprocs 16
|  4> end
|  5>
|  6> * xyz 0 1
|  7> S 	 -67.9709 	 38.5827 	 143.235
|  8> C 	 -69.2642 	 37.6658 	 142.489
|  9> C 	 -69.086 	 37.5364 	 141.126
| 10> C 	 -67.7982 	 37.9893 	 140.723
| 11> C 	 -67.0561 	 38.558 	 141.737
| 12> H 	 -67.3252 	 37.7786 	 139.751
| 13> C 	 -70.1164 	 36.938 	 140.244
| 14> H 	 -70.0668 	 37.3703 	 139.213
| 15> H 	 -71.1292 	 37.0903 	 140.624
| 16> C 	 -69.9845 	 35.4143 	 140.029
| 17> H 	 -69.0783 	 34.918 	 139.686
| 18> H 	 -70.0053 	 34.9785 	 141.059
| 19> C 	 -71.0653 	 34.8978 	 139.135
| 20> H 	 -72.0957 	 35.0163 	 139.507
| 21> H 	 -70.9997 	 35.4537 	 138.244
| 22> H 	 -70.9781 	 33.8771 	 138.815
| 23> S 	 -64.6001 	 38.454 	 142.954
| 24> C 	 -63.2925 	 39.5746 	 142.393
| 25> C 	 -63.7065 	 40.2825 	 141.287
| 26> C 	 -65.1078 	 40.0654 	 140.976
| 27> C 	 -65.7023 	 39.1392 	 141.77
| 28> H 	 -63.0326 	 40.9062 	 140.634
| 29> C 	 -65.7002 	 40.7192 	 139.782
| 30> H 	 -66.6738 	 40.2061 	 139.524
| 31> H 	 -64.9576 	 40.3772 	 139.054
| 32> C 	 -65.985 	 42.2326 	 139.799
| 33> H 	 -65.9573 	 42.6152 	 138.75
| 34> H 	 -65.1281 	 42.6773 	 140.322
| 35> C 	 -67.27 	 42.7409 	 140.537
| 36> H 	 -67.2947 	 43.7997 	 140.725
| 37> H 	 -67.3018 	 42.3753 	 141.597
| 38> H 	 -68.1805 	 42.3867 	 139.988
| 39> H 	 -70.2498 	 37.5173 	 142.887
| 40> H 	 -62.2339 	 39.6699 	 142.638
| 41> *
| 42>
| 43>                          ****END OF INPUT****

CARTESIAN COORDINATES (ANGSTROEM)
---------------------------------
  S    -67.970900   38.582700  143.235000
  C    -69.264200   37.665800  142.489000
  C    -69.086000   37.536400  141.126000
  C    -67.798200   37.989300  140.723000
  C    -67.056100   38.558000  141.737000
  H    -67.325200   37.778600  139.751000
  C    -70.116400   36.938000  140.244000
  H    -70.066800   37.370300  139.213000
  H    -71.129200   37.090300  140.624000
  C    -69.984500   35.414300  140.029000
  H    -69.078300   34.918000  139.686000
  H    -70.005300   34.978500  141.059000
  C    -71.065300   34.897800  139.135000
  H    -72.095700   35.016300  139.507000
  H    -70.999700   35.453700  138.244000
  H    -70.978100   33.877100  138.815000
  S    -64.600100   38.454000  142.954000
  C    -63.292500   39.574600  142.393000
  C    -63.706500   40.282500  141.287000
  C    -65.107800   40.065400  140.976000
  C    -65.702300   39.139200  141.770000
  H    -63.032600   40.906200  140.634000
  C    -65.700200   40.719200  139.782000
  H    -66.673800   40.206100  139.524000
  H    -64.957600   40.377200  139.054000
  C    -65.985000   42.232600  139.799000
  H    -65.957300   42.615200  138.750000
  H    -65.128100   42.677300  140.322000
  C    -67.270000   42.740900  140.537000
  H    -67.294700   43.799700  140.725000
  H    -67.301800   42.375300  141.597000
  H    -68.180500   42.386700  139.988000
  H    -70.249800   37.517300  142.887000
  H    -62.233900   39.669900  142.638000

 Total Charge           Charge          ....    0
 Multiplicity           Mult            ....    1
 Number of Electrons    NEL             ....  134
 Basis Dimension        Dim             ....  322

ORBITAL ENERGIES
----------------

  NO   OCC          E(Eh)            E(eV)
   0   2.0000     -88.967596     -2420.9314
   1   2.0000     -88.966352     -2420.8975
   2   2.0000     -10.332295      -281.1560
   3   2.0000     -10.325502      -280.9712
   4   2.0000     -10.323211      -280.9089
   5   2.0000     -10.310313      -280.5579
   6   2.0000     -10.300155      -280.2815
   7   2.0000     -10.299797      -280.2717
   8   2.0000     -10.299155      -280.2542
   9   2.0000     -10.297651      -280.2133
  10   2.0000     -10.297588      -280.2116
  11   2.0000     -10.292761      -280.0803
  12   2.0000     -10.292287      -280.0674
  13   2.0000     -10.285692      -279.8879
  14   2.0000     -10.282437      -279.7993
  15   2.0000     -10.270968      -279.4872
  16   2.0000      -8.081116      -219.8984
  17   2.0000      -8.080944      -219.8937
  18   2.0000      -6.040032      -164.3576
  19   2.0000      -6.039421      -164.3410
  20   2.0000      -6.035842      -164.2436
  21   2.0000      -6.035476      -164.2337
  22   2.0000      -6.031720      -164.1315
  23   2.0000      -6.031441      -164.1239
  24   2.0000      -1.006533       -27.3892
  25   2.0000      -0.983062       -26.7505
  26   2.0000      -0.917395       -24.9636
  27   2.0000      -0.903470       -24.5847
  28   2.0000      -0.871644       -23.7186
  29   2.0000      -0.850329       -23.1386
  30   2.0000      -0.843384       -22.9496
  31   2.0000      -0.819524       -22.3004
  32   2.0000      -0.781340       -21.2613
  33   2.0000      -0.770475       -20.9657
  34   2.0000      -0.707484       -19.2516
  35   2.0000      -0.700880       -19.0719
  36   2.0000      -0.692389       -18.8409
  37   2.0000      -0.661513       -18.0007
  38   2.0000      -0.644428       -17.5358
  39   2.0000      -0.619295       -16.8519
  40   2.0000      -0.588465       -16.0129
  41   2.0000      -0.572981       -15.5916
  42   2.0000      -0.559447       -15.2233
  43   2.0000      -0.549918       -14.9640
  44   2.0000      -0.539495       -14.6804
  45   2.0000      -0.524669       -14.2770
  46   2.0000      -0.515044       -14.0151
  47   2.0000      -0.509607       -13.8671
  48   2.0000      -0.504595       -13.7307
  49   2.0000      -0.497398       -13.5349
  50   2.0000      -0.485953       -13.2234
  51   2.0000      -0.479108       -13.0372
  52   2.0000      -0.467146       -12.7117
  53   2.0000      -0.459817       -12.5123
  54   2.0000      -0.457382       -12.4460
  55   2.0000      -0.454923       -12.3791
  56   2.0000      -0.444212       -12.0876
  57   2.0000      -0.441080       -12.0024
  58   2.0000      -0.438179       -11.9234
  59   2.0000      -0.428934       -11.6719
  60   2.0000      -0.414407       -11.2766
  61   2.0000      -0.410007       -11.1569
  62   2.0000      -0.406362       -11.0577
  63   2.0000      -0.347936        -9.4678
  64   2.0000      -0.331526        -9.0213
  65   2.0000      -0.327572        -8.9137
  66   2.0000      -0.297396        -8.0926
  67   0.0000       0.033338         0.9072
  68   0.0000       0.066074         1.7980
  69   0.0000       0.101825         2.7708
  70   0.0000       0.108174         2.9436
  71   0.0000       0.134250         3.6531

MULLIKEN ATOMIC CHARGES
-----------------------
   0 S :    0.112128
   1 C :   -0.096187
   2 C :   -0.092666
   3 C :    0.044403
   4 C :   -0.170130
   5 H :    0.027570
   6 C :    0.047266
   7 H :    0.028420
   8 H :    0.026144
   9 C :   -0.087216
  10 H :    0.027184
  11 H :    0.020844
  12 C :   -0.013083
  13 H :    0.026430
  14 H :    0.008236
  15 H :    0.027881
  16 S :    0.105221
  17 C :   -0.078821
  18 C :   -0.063464
  19 C :   -0.040159
  20 C :   -0.151600
  21 H :    0.043490
  22 C :    0.041435
  23 H :    0.022463
  24 H :    0.038451
  25 C :   -0.068095
  26 H :    0.038917
  27 H :    0.020302
  28 C :   -0.065715
  29 H :    0.035294
  30 H :    0.039257
  31 H :    0.045107
  32 H :    0.041380
  33 H :    0.059314
Sum of atomic charges:    0.0000000

LOEWDIN ATOMIC CHARGES
----------------------
   0 S :    0.406345
   1 C :   -0.197406
   2 C :   -0.063563
   3 C :   -0.066093
   4 C :   -0.184666
   5 H :    0.037088
   6 C :   -0.030538
   7 H :    0.033625
   8 H :    0.033973
   9 C :   -0.049341
  10 H :    0.026678
  11 H :    0.024253
  12 C :   -0.064879
  13 H :    0.025004
  14 H :    0.018722
  15 H :    0.025566
  16 S :    0.379700
  17 C :   -0.173998
  18 C :   -0.072772
  19 C :   -0.063042
  20 C :   -0.201722
  21 H :    0.040569
  22 C :   -0.041815
  23 H :    0.033284
  24 H :    0.039613
  25 C :   -0.044443
  26 H :    0.029329
  27 H :    0.021730
  28 C :   -0.072041
  29 H :    0.025234
  30 H :    0.033510
  31 H :    0.029843
  32 H :    0.024951
  33 H :    0.037298

  Mayer bond orders larger than 0.100000
B(  0-S ,  1-C ) :   1.1310 B(  0-S ,  4-C ) :   1.1621 B(  1-C ,  2-C ) :   1.6205
B(  1-C , 32-H ) :   0.9633 B(  2-C ,  3-C ) :   1.2342 B(  2-C ,  6-C ) :   1.0425
B(  3-C ,  4-C ) :   1.5955 B(  3-C ,  5-H ) :   0.9852 B(  4-C , 20-C ) :   0.9994
B(  6-C ,  7-H ) :   0.9395 B(  6-C ,  8-H ) :   0.9396 B(  6-C ,  9-C ) :   1.0472
B(  9-C , 10-H ) :   0.9586 B(  9-C , 11-H ) :   0.9511 B(  9-C , 12-C ) :   1.0836
B( 12-C , 13-H ) :   0.9730 B( 12-C , 14-H ) :   0.9678 B( 12-C , 15-H ) :   0.9720
B( 16-S , 17-C ) :   1.1169 B( 16-S , 20-C ) :   1.1168 B( 17-C , 18-C ) :   1.6654
B( 17-C , 33-H ) :   0.9622 B( 18-C , 19-C ) :   1.2037 B( 18-C , 21-H ) :   0.9705
B( 19-C , 20-C ) :   1.6509 B( 19-C , 22-C ) :   1.0347 B( 22-C , 23-H ) :   0.9329
B( 22-C , 24-H ) :   0.9328 B( 22-C , 25-C ) :   1.0601 B( 25-C , 26-H ) :   0.9555
B( 25-C , 27-H ) :   0.9578 B( 25-C , 28-C ) :   1.0747 B( 28-C , 29-H ) :   0.9747
B( 28-C , 30-H ) :   0.9738 B( 28-C , 31-H ) :   0.9751

Dispersion correction           -0.014012631
FINAL SINGLE POINT ENERGY     -1339.876122737727

DIPOLE MOMENT
-------------
                                X             Y             Z
Electronic contribution:     15.01252      -1.23201      19.88415
Nuclear contribution   :    -15.11586       1.31698     -20.59507
                        -----------------------------------------
Total Dipole Moment    :     -0.10334       0.08498      -0.71092
                        -----------------------------------------
Magnitude (a.u.)       :      0.72340
Magnitude (Debye)      :      1.83873

Rotational constants in cm-1:     0.020217     0.007660     0.006705
Rotational constants in MHz :   606.095079   229.629040   201.011775

                             ****ORCA TERMINATED NORMALLY****
TOTAL RUN TIME: 0 days 0 hours 0 minutes 34 seconds 561 msec
