                         Program Version 4.2.1 -  RELEASE  -
|  1> ! wB97X-D3 SP def2-SVP
|  2> %pal
|  3> nprocs 16
|  4> end
|  5>
|  6> * xyz 0 1
|  7> S 	 -117.572 	 47.3605 	 135.219
|  8> C 	 -117.663 	 47.5925 	 133.475
|  9> C 	 -117.127 	 48.763 	 133.002
| 10> C 	 -116.607 	 49.5361 	 134.081
| 11> C 	 -116.909 	 49.0752 	 135.352
| 12> H 	 -116.028 	 50.5028 	 134.102
| 13> C 	 -117.096 	 49.2055 	 131.505
| 14> H 	 -116.777 	 48.3192 	 131.006
| 15> H 	 -116.48 	 50.0978 	 131.168
| 16> C 	 -118.449 	 49.6508 	 131.114
| 17> H 	 -118.469 	 49.7923 	 130.093
| 18> H 	 -119.002 	 48.7863 	 131.25
| 19> C 	 -119.043 	 50.7976 	 131.91
| 20> H 	 -118.439 	 51.6249 	 131.685
| 21> H 	 -120.052 	 50.9322 	 131.532
| 22> H 	 -119.035 	 50.5747 	 132.933
| 23> S 	 -117.719 	 50.0331 	 137.752
| 24> C 	 -116.664 	 51.0101 	 138.762
| 25> C 	 -115.44 	 51.138 	 138.183
| 26> C 	 -115.327 	 50.4353 	 136.92
| 27> C 	 -116.543 	 49.7573 	 136.612
| 28> H 	 -114.71 	 51.7696 	 138.742
| 29> C 	 -114.075 	 50.5371 	 136.147
| 30> H 	 -114.105 	 49.8291 	 135.346
| 31> H 	 -113.222 	 50.3926 	 136.799
| 32> C 	 -113.847 	 51.8699 	 135.486
| 33> H 	 -114.033 	 52.7036 	 136.151
| 34> H 	 -114.621 	 51.8322 	 134.744
| 35> C 	 -112.476 	 51.9833 	 134.683
| 36> H 	 -112.513 	 52.9362 	 134.169
| 37> H 	 -112.217 	 51.0845 	 134.068
| 38> H 	 -111.74 	 52.0744 	 135.458
| 39> H 	 -118.362 	 46.954 	 132.951
| 40> H 	 -116.94 	 51.4155 	 139.72
| 41> *
| 42>
| 43>                          ****END OF INPUT****

CARTESIAN COORDINATES (ANGSTROEM)
---------------------------------
  S    -117.572000   47.360500  135.219000
  C    -117.663000   47.592500  133.475000
  C    -117.127000   48.763000  133.002000
  C    -116.607000   49.536100  134.081000
  C    -116.909000   49.075200  135.352000
  H    -116.028000   50.502800  134.102000
  C    -117.096000   49.205500  131.505000
  H    -116.777000   48.319200  131.006000
  H    -116.480000   50.097800  131.168000
  C    -118.449000   49.650800  131.114000
  H    -118.469000   49.792300  130.093000
  H    -119.002000   48.786300  131.250000
  C    -119.043000   50.797600  131.910000
  H    -118.439000   51.624900  131.685000
  H    -120.052000   50.932200  131.532000
  H    -119.035000   50.574700  132.933000
  S    -117.719000   50.033100  137.752000
  C    -116.664000   51.010100  138.762000
  C    -115.440000   51.138000  138.183000
  C    -115.327000   50.435300  136.920000
  C    -116.543000   49.757300  136.612000
  H    -114.710000   51.769600  138.742000
  C    -114.075000   50.537100  136.147000
  H    -114.105000   49.829100  135.346000
  H    -113.222000   50.392600  136.799000
  C    -113.847000   51.869900  135.486000
  H    -114.033000   52.703600  136.151000
  H    -114.621000   51.832200  134.744000
  C    -112.476000   51.983300  134.683000
  H    -112.513000   52.936200  134.169000
  H    -112.217000   51.084500  134.068000
  H    -111.740000   52.074400  135.458000
  H    -118.362000   46.954000  132.951000
  H    -116.940000   51.415500  139.720000

 Total Charge           Charge          ....    0
 Multiplicity           Mult            ....    1
 Number of Electrons    NEL             ....  134
 Basis Dimension        Dim             ....  322

ORBITAL ENERGIES
----------------

  NO   OCC          E(Eh)            E(eV)
   0   2.0000     -88.966445     -2420.9001
   1   2.0000     -88.964456     -2420.8459
   2   2.0000     -10.336642      -281.2743
   3   2.0000     -10.326739      -281.0049
   4   2.0000     -10.316180      -280.7175
   5   2.0000     -10.314806      -280.6802
   6   2.0000     -10.307995      -280.4948
   7   2.0000     -10.306119      -280.4438
   8   2.0000     -10.300967      -280.3036
   9   2.0000     -10.297169      -280.2002
  10   2.0000     -10.293732      -280.1067
  11   2.0000     -10.284629      -279.8590
  12   2.0000     -10.284582      -279.8577
  13   2.0000     -10.281929      -279.7855
  14   2.0000     -10.264736      -279.3177
  15   2.0000     -10.264445      -279.3098
  16   2.0000      -8.080958      -219.8940
  17   2.0000      -8.079834      -219.8635
  18   2.0000      -6.039298      -164.3376
  19   2.0000      -6.038450      -164.3146
  20   2.0000      -6.035062      -164.2224
  21   2.0000      -6.034784      -164.2148
  22   2.0000      -6.031931      -164.1372
  23   2.0000      -6.030307      -164.0930
  24   2.0000      -1.009008       -27.4565
  25   2.0000      -0.982774       -26.7427
  26   2.0000      -0.922472       -25.1017
  27   2.0000      -0.918019       -24.9806
  28   2.0000      -0.872278       -23.7359
  29   2.0000      -0.848600       -23.0916
  30   2.0000      -0.842619       -22.9288
  31   2.0000      -0.818270       -22.2663
  32   2.0000      -0.788233       -21.4489
  33   2.0000      -0.772683       -21.0258
  34   2.0000      -0.703983       -19.1564
  35   2.0000      -0.700531       -19.0624
  36   2.0000      -0.692437       -18.8422
  37   2.0000      -0.662288       -18.0218
  38   2.0000      -0.638860       -17.3843
  39   2.0000      -0.615775       -16.7561
  40   2.0000      -0.598632       -16.2896
  41   2.0000      -0.588097       -16.0029
  42   2.0000      -0.573429       -15.6038
  43   2.0000      -0.561701       -15.2846
  44   2.0000      -0.541651       -14.7391
  45   2.0000      -0.525901       -14.3105
  46   2.0000      -0.516052       -14.0425
  47   2.0000      -0.512016       -13.9327
  48   2.0000      -0.505394       -13.7525
  49   2.0000      -0.494900       -13.4669
  50   2.0000      -0.490526       -13.3479
  51   2.0000      -0.480569       -13.0769
  52   2.0000      -0.477396       -12.9906
  53   2.0000      -0.466504       -12.6942
  54   2.0000      -0.462700       -12.5907
  55   2.0000      -0.448484       -12.2039
  56   2.0000      -0.442042       -12.0286
  57   2.0000      -0.439988       -11.9727
  58   2.0000      -0.433263       -11.7897
  59   2.0000      -0.426846       -11.6151
  60   2.0000      -0.421871       -11.4797
  61   2.0000      -0.413099       -11.2410
  62   2.0000      -0.408926       -11.1274
  63   2.0000      -0.349798        -9.5185
  64   2.0000      -0.333994        -9.0884
  65   2.0000      -0.324134        -8.8201
  66   2.0000      -0.294654        -8.0179
  67   0.0000       0.026908         0.7322
  68   0.0000       0.070095         1.9074
  69   0.0000       0.101998         2.7755
  70   0.0000       0.121704         3.3117
  71   0.0000       0.124851         3.3974

MULLIKEN ATOMIC CHARGES
-----------------------
   0 S :    0.092799
   1 C :   -0.131840
   2 C :   -0.081929
   3 C :    0.003089
   4 C :   -0.150771
   5 H :    0.019945
   6 C :    0.066697
   7 H :    0.029262
   8 H :    0.035403
   9 C :   -0.041511
  10 H :    0.003400
  11 H :   -0.014277
  12 C :    0.011186
  13 H :    0.012434
  14 H :    0.034417
  15 H :    0.041719
  16 S :    0.115738
  17 C :   -0.099785
  18 C :   -0.046544
  19 C :   -0.047653
  20 C :   -0.143982
  21 H :    0.036408
  22 C :    0.092289
  23 H :    0.013560
  24 H :    0.018202
  25 C :   -0.098235
  26 H :    0.029462
  27 H :    0.008404
  28 C :   -0.035295
  29 H :    0.043234
  30 H :    0.049783
  31 H :    0.022859
  32 H :    0.059871
  33 H :    0.051660
Sum of atomic charges:   -0.0000000

LOEWDIN ATOMIC CHARGES
----------------------
   0 S :    0.356984
   1 C :   -0.187900
   2 C :   -0.059549
   3 C :   -0.066366
   4 C :   -0.167372
   5 H :    0.040039
   6 C :   -0.024090
   7 H :    0.029075
   8 H :    0.036157
   9 C :   -0.039279
  10 H :    0.012702
  11 H :    0.008986
  12 C :   -0.043048
  13 H :    0.017775
  14 H :    0.031501
  15 H :    0.023098
  16 S :    0.444968
  17 C :   -0.185791
  18 C :   -0.073193
  19 C :   -0.053011
  20 C :   -0.233658
  21 H :    0.041168
  22 C :   -0.036525
  23 H :    0.026209
  24 H :    0.028666
  25 C :   -0.034183
  26 H :    0.020996
  27 H :    0.011934
  28 C :   -0.061892
  29 H :    0.029124
  30 H :    0.034380
  31 H :    0.019877
  32 H :    0.024344
  33 H :    0.027874

  Mayer bond orders larger than 0.100000
B(  0-S ,  1-C ) :   1.1352 B(  0-S ,  4-C ) :   1.1179 B(  1-C ,  2-C ) :   1.6397
B(  1-C ,  4-C ) :   0.1014 B(  1-C , 32-H ) :   0.9556 B(  2-C ,  3-C ) :   1.2124
B(  2-C ,  6-C ) :   0.9911 B(  3-C ,  4-C ) :   1.6140 B(  3-C ,  5-H ) :   0.9817
B(  4-C , 20-C ) :   1.0253 B(  6-C ,  7-H ) :   0.9384 B(  6-C ,  8-H ) :   0.9544
B(  6-C ,  9-C ) :   1.0831 B(  9-C , 10-H ) :   0.9501 B(  9-C , 11-H ) :   0.9474
B(  9-C , 12-C ) :   1.0725 B( 12-C , 13-H ) :   0.9746 B( 12-C , 14-H ) :   0.9699
B( 12-C , 15-H ) :   0.9718 B( 16-S , 17-C ) :   1.1570 B( 16-S , 20-C ) :   1.1760
B( 17-C , 18-C ) :   1.6142 B( 17-C , 33-H ) :   0.9704 B( 18-C , 19-C ) :   1.2356
B( 18-C , 21-H ) :   0.9837 B( 19-C , 20-C ) :   1.5438 B( 19-C , 22-C ) :   1.0757
B( 22-C , 23-H ) :   0.9244 B( 22-C , 24-H ) :   0.9250 B( 22-C , 25-C ) :   1.0618
B( 25-C , 26-H ) :   0.9535 B( 25-C , 27-H ) :   0.9511 B( 25-C , 28-C ) :   1.0735
B( 28-C , 29-H ) :   0.9750 B( 28-C , 30-H ) :   0.9736 B( 28-C , 31-H ) :   0.9769

Dispersion correction           -0.014739679
FINAL SINGLE POINT ENERGY     -1339.850482487810

DIPOLE MOMENT
-------------
                                X             Y             Z
Electronic contribution:    -10.63260     -14.22519      19.65371
Nuclear contribution   :     10.91471      14.71617     -19.99302
                        -----------------------------------------
Total Dipole Moment    :      0.28211       0.49098      -0.33931
                        -----------------------------------------
Magnitude (a.u.)       :      0.66013
Magnitude (Debye)      :      1.67793

Rotational constants in cm-1:     0.016809     0.009475     0.007354
Rotational constants in MHz :   503.912324   284.057670   220.459119

                             ****ORCA TERMINATED NORMALLY****
TOTAL RUN TIME: 0 days 0 hours 0 minutes 34 seconds 396 msec
