                         Program Version 4.2.1 -  RELEASE  -
|  1> ! wB97X-D3 SP def2-SVP
|  2> %pal
|  3> nprocs 16
|  4> end
|  5>
|  6> * xyz 0 1
|  7> S 	 8.95852 	 -6.4547 	 64.5526
|  8> C 	 7.35081 	 -6.08895 	 63.9755
|  9> C 	 6.97539 	 -7.07087 	 63.0631
| 10> C 	 7.92382 	 -8.14629 	 62.9224
| 11> C 	 9.11334 	 -7.99101 	 63.6132
| 12> H 	 7.80733 	 -9.15373 	 62.4555
| 13> C 	 5.62414 	 -7.10806 	 62.4453
| 14> H 	 5.03318 	 -6.75819 	 63.3363
| 15> H 	 5.30185 	 -8.07951 	 62.0525
| 16> C 	 5.35082 	 -6.07198 	 61.323
| 17> H 	 4.26444 	 -6.15935 	 61.1272
| 18> H 	 5.57702 	 -5.12444 	 61.665
| 19> C 	 6.22522 	 -6.26283 	 60.0716
| 20> H 	 5.98784 	 -7.21007 	 59.6292
| 21> H 	 6.16897 	 -5.4964 	 59.3804
| 22> H 	 7.26588 	 -6.30687 	 60.4653
| 23> S 	 11.7616 	 -8.04405 	 63.1092
| 24> C 	 12.6819 	 -9.50273 	 63.1743
| 25> C 	 11.8951 	 -10.5632 	 63.4928
| 26> C 	 10.53 	 -10.2047 	 63.7797
| 27> C 	 10.285 	 -8.8636 	 63.6843
| 28> H 	 12.3163 	 -11.5654 	 63.6013
| 29> C 	 9.4302 	 -11.1916 	 64.0955
| 30> H 	 8.5175 	 -10.6716 	 64.239
| 31> H 	 9.6329 	 -11.7545 	 64.9713
| 32> C 	 9.28017 	 -12.1876 	 62.9928
| 33> H 	 8.48548 	 -12.8602 	 63.3877
| 34> H 	 10.1763 	 -12.8064 	 62.8526
| 35> C 	 8.65683 	 -11.6945 	 61.6272
| 36> H 	 9.43133 	 -11.4075 	 60.9013
| 37> H 	 7.86355 	 -10.9556 	 61.7058
| 38> H 	 8.17415 	 -12.5207 	 61.1153
| 39> H 	 6.80246 	 -5.24142 	 64.268
| 40> H 	 13.7769 	 -9.66634 	 62.9631
| 41> *
| 42>
| 43>                          ****END OF INPUT****

CARTESIAN COORDINATES (ANGSTROEM)
---------------------------------
  S      8.958520   -6.454700   64.552600
  C      7.350810   -6.088950   63.975500
  C      6.975390   -7.070870   63.063100
  C      7.923820   -8.146290   62.922400
  C      9.113340   -7.991010   63.613200
  H      7.807330   -9.153730   62.455500
  C      5.624140   -7.108060   62.445300
  H      5.033180   -6.758190   63.336300
  H      5.301850   -8.079510   62.052500
  C      5.350820   -6.071980   61.323000
  H      4.264440   -6.159350   61.127200
  H      5.577020   -5.124440   61.665000
  C      6.225220   -6.262830   60.071600
  H      5.987840   -7.210070   59.629200
  H      6.168970   -5.496400   59.380400
  H      7.265880   -6.306870   60.465300
  S     11.761600   -8.044050   63.109200
  C     12.681900   -9.502730   63.174300
  C     11.895100  -10.563200   63.492800
  C     10.530000  -10.204700   63.779700
  C     10.285000   -8.863600   63.684300
  H     12.316300  -11.565400   63.601300
  C      9.430200  -11.191600   64.095500
  H      8.517500  -10.671600   64.239000
  H      9.632900  -11.754500   64.971300
  C      9.280170  -12.187600   62.992800
  H      8.485480  -12.860200   63.387700
  H     10.176300  -12.806400   62.852600
  C      8.656830  -11.694500   61.627200
  H      9.431330  -11.407500   60.901300
  H      7.863550  -10.955600   61.705800
  H      8.174150  -12.520700   61.115300
  H      6.802460   -5.241420   64.268000
  H     13.776900   -9.666340   62.963100

 Total Charge           Charge          ....    0
 Multiplicity           Mult            ....    1
 Number of Electrons    NEL             ....  134
 Basis Dimension        Dim             ....  322

ORBITAL ENERGIES
----------------

  NO   OCC          E(Eh)            E(eV)
   0   2.0000     -88.963401     -2420.8172
   1   2.0000     -88.960586     -2420.7406
   2   2.0000     -10.335623      -281.2466
   3   2.0000     -10.327736      -281.0320
   4   2.0000     -10.319946      -280.8200
   5   2.0000     -10.315836      -280.7082
   6   2.0000     -10.304077      -280.3882
   7   2.0000     -10.303959      -280.3850
   8   2.0000     -10.299166      -280.2546
   9   2.0000     -10.293656      -280.1046
  10   2.0000     -10.292448      -280.0717
  11   2.0000     -10.292276      -280.0671
  12   2.0000     -10.284371      -279.8520
  13   2.0000     -10.282442      -279.7995
  14   2.0000     -10.279964      -279.7320
  15   2.0000     -10.267637      -279.3966
  16   2.0000      -8.077327      -219.7952
  17   2.0000      -8.075683      -219.7505
  18   2.0000      -6.035918      -164.2457
  19   2.0000      -6.034295      -164.2015
  20   2.0000      -6.031786      -164.1332
  21   2.0000      -6.030126      -164.0881
  22   2.0000      -6.028177      -164.0350
  23   2.0000      -6.026273      -163.9832
  24   2.0000      -1.005436       -27.3593
  25   2.0000      -0.983581       -26.7646
  26   2.0000      -0.916165       -24.9301
  27   2.0000      -0.911403       -24.8005
  28   2.0000      -0.871878       -23.7250
  29   2.0000      -0.844982       -22.9931
  30   2.0000      -0.841276       -22.8923
  31   2.0000      -0.819763       -22.3069
  32   2.0000      -0.788703       -21.4617
  33   2.0000      -0.772588       -21.0232
  34   2.0000      -0.708455       -19.2780
  35   2.0000      -0.702006       -19.1026
  36   2.0000      -0.694849       -18.9078
  37   2.0000      -0.656495       -17.8641
  38   2.0000      -0.645089       -17.5538
  39   2.0000      -0.612866       -16.6769
  40   2.0000      -0.597053       -16.2466
  41   2.0000      -0.582987       -15.8639
  42   2.0000      -0.560480       -15.2514
  43   2.0000      -0.550350       -14.9758
  44   2.0000      -0.542274       -14.7560
  45   2.0000      -0.535778       -14.5793
  46   2.0000      -0.523910       -14.2563
  47   2.0000      -0.518353       -14.1051
  48   2.0000      -0.508999       -13.8506
  49   2.0000      -0.494672       -13.4607
  50   2.0000      -0.485644       -13.2151
  51   2.0000      -0.476795       -12.9743
  52   2.0000      -0.475177       -12.9302
  53   2.0000      -0.469842       -12.7850
  54   2.0000      -0.463708       -12.6181
  55   2.0000      -0.445318       -12.1177
  56   2.0000      -0.439397       -11.9566
  57   2.0000      -0.435419       -11.8484
  58   2.0000      -0.434151       -11.8139
  59   2.0000      -0.431246       -11.7348
  60   2.0000      -0.417191       -11.3523
  61   2.0000      -0.411373       -11.1940
  62   2.0000      -0.401780       -10.9330
  63   2.0000      -0.348475        -9.4825
  64   2.0000      -0.329138        -8.9563
  65   2.0000      -0.325446        -8.8558
  66   2.0000      -0.296985        -8.0814
  67   0.0000       0.030948         0.8421
  68   0.0000       0.064724         1.7612
  69   0.0000       0.111668         3.0387
  70   0.0000       0.119803         3.2600
  71   0.0000       0.129837         3.5330

MULLIKEN ATOMIC CHARGES
-----------------------
   0 S :    0.098970
   1 C :   -0.104241
   2 C :   -0.085414
   3 C :    0.058993
   4 C :   -0.168479
   5 H :   -0.013020
   6 C :    0.029138
   7 H :    0.041381
   8 H :    0.026132
   9 C :   -0.049774
  10 H :    0.033192
  11 H :    0.000744
  12 C :   -0.028048
  13 H :    0.018240
  14 H :    0.024989
  15 H :    0.041953
  16 S :    0.092318
  17 C :   -0.087910
  18 C :   -0.052182
  19 C :   -0.046940
  20 C :   -0.144881
  21 H :    0.021473
  22 C :    0.144601
  23 H :    0.009672
  24 H :    0.020219
  25 C :   -0.121859
  26 H :    0.031303
  27 H :    0.038212
  28 C :   -0.053984
  29 H :    0.045853
  30 H :    0.038762
  31 H :    0.023204
  32 H :    0.040746
  33 H :    0.076636
Sum of atomic charges:   -0.0000000

LOEWDIN ATOMIC CHARGES
----------------------
   0 S :    0.385922
   1 C :   -0.187610
   2 C :   -0.069851
   3 C :   -0.070618
   4 C :   -0.184088
   5 H :    0.035253
   6 C :   -0.036392
   7 H :    0.043597
   8 H :    0.028275
   9 C :   -0.032188
  10 H :    0.024652
  11 H :    0.008020
  12 C :   -0.056880
  13 H :    0.019105
  14 H :    0.014845
  15 H :    0.034919
  16 S :    0.399519
  17 C :   -0.192772
  18 C :   -0.082418
  19 C :   -0.050545
  20 C :   -0.188681
  21 H :    0.032677
  22 C :   -0.024153
  23 H :    0.026068
  24 H :    0.031261
  25 C :   -0.040293
  26 H :    0.028771
  27 H :    0.024846
  28 C :   -0.070986
  29 H :    0.030961
  30 H :    0.021122
  31 H :    0.027986
  32 H :    0.022456
  33 H :    0.047221

  Mayer bond orders larger than 0.100000
B(  0-S ,  1-C ) :   1.1440 B(  0-S ,  4-C ) :   1.1440 B(  1-C ,  2-C ) :   1.5815
B(  1-C ,  4-C ) :   0.1052 B(  1-C , 32-H ) :   0.9784 B(  2-C ,  3-C ) :   1.2250
B(  2-C ,  6-C ) :   1.0177 B(  3-C ,  4-C ) :   1.5859 B(  3-C ,  5-H ) :   0.9865
B(  4-C , 20-C ) :   1.0144 B(  6-C ,  7-H ) :   0.9401 B(  6-C ,  8-H ) :   0.9510
B(  6-C ,  9-C ) :   1.0730 B(  9-C , 10-H ) :   0.9577 B(  9-C , 11-H ) :   0.9564
B(  9-C , 12-C ) :   1.0722 B( 12-C , 13-H ) :   0.9767 B( 12-C , 14-H ) :   0.9765
B( 12-C , 15-H ) :   0.9731 B( 16-S , 17-C ) :   1.1537 B( 16-S , 20-C ) :   1.1229
B( 17-C , 18-C ) :   1.6358 B( 17-C , 33-H ) :   0.9561 B( 18-C , 19-C ) :   1.2100
B( 18-C , 21-H ) :   0.9884 B( 19-C , 20-C ) :   1.6392 B( 19-C , 22-C ) :   1.0451
B( 22-C , 23-H ) :   0.9338 B( 22-C , 24-H ) :   0.9219 B( 22-C , 25-C ) :   1.0889
B( 25-C , 26-H ) :   0.9582 B( 25-C , 27-H ) :   0.9548 B( 25-C , 28-C ) :   1.0609
B( 28-C , 29-H ) :   0.9765 B( 28-C , 30-H ) :   0.9677 B( 28-C , 31-H ) :   0.9688

Dispersion correction           -0.015048947
FINAL SINGLE POINT ENERGY     -1339.871255519594

DIPOLE MOMENT
-------------
                                X             Y             Z
Electronic contribution:     18.68100      11.00981      14.10753
Nuclear contribution   :    -19.06489     -11.62173     -14.30905
                        -----------------------------------------
Total Dipole Moment    :     -0.38389      -0.61191      -0.20152
                        -----------------------------------------
Magnitude (a.u.)       :      0.74995
Magnitude (Debye)      :      1.90622

Rotational constants in cm-1:     0.019651     0.008914     0.007343
Rotational constants in MHz :   589.108572   267.221311   220.142083

                             ****ORCA TERMINATED NORMALLY****
TOTAL RUN TIME: 0 days 0 hours 0 minutes 36 seconds 319 msec
