                         Program Version 4.2.1 -  RELEASE  -
|  1> ! wB97X-D3 SP def2-SVP
|  2> %pal
|  3> nprocs 16
|  4> end
|  5>
|  6> * xyz 0 1
|  7> S 	 67.795 	 22.7267 	 76.7138
|  8> C 	 68.3507 	 21.8364 	 78.1488
|  9> C 	 69.4742 	 21.1187 	 77.7782
| 10> C 	 69.8849 	 21.3061 	 76.4264
| 11> C 	 69.1335 	 22.2215 	 75.6372
| 12> H 	 70.7769 	 20.945 	 75.9447
| 13> C 	 70.1177 	 20.0866 	 78.6456
| 14> H 	 70.8028 	 19.4985 	 78.0388
| 15> H 	 69.4428 	 19.3808 	 79.0028
| 16> C 	 70.8051 	 20.6622 	 79.8899
| 17> H 	 71.2875 	 21.6428 	 79.6001
| 18> H 	 69.9731 	 20.7874 	 80.6146
| 19> C 	 71.9353 	 19.686 	 80.3092
| 20> H 	 72.7343 	 19.58 	 79.5867
| 21> H 	 72.3779 	 19.9509 	 81.2138
| 22> H 	 71.4755 	 18.7045 	 80.5332
| 23> S 	 67.9199 	 22.7615 	 73.2254
| 24> C 	 68.8982 	 22.8896 	 71.8041
| 25> C 	 70.2408 	 23.0053 	 72.112
| 26> C 	 70.481 	 22.9538 	 73.5084
| 27> C 	 69.3641 	 22.6502 	 74.2338
| 28> H 	 70.9575 	 23.234 	 71.3521
| 29> C 	 71.92 	 23.2959 	 74.0665
| 30> H 	 72.6202 	 23.0316 	 73.3138
| 31> H 	 72.2775 	 22.6342 	 74.8271
| 32> C 	 72.1551 	 24.7671 	 74.4992
| 33> H 	 73.1035 	 24.6561 	 75.0099
| 34> H 	 71.2907 	 25.0043 	 75.166
| 35> C 	 72.2743 	 25.7481 	 73.3053
| 36> H 	 72.4852 	 26.775 	 73.6043
| 37> H 	 71.3062 	 25.7365 	 72.871
| 38> H 	 73.0199 	 25.5692 	 72.5063
| 39> H 	 67.6847 	 21.7003 	 79.0172
| 40> H 	 68.6014 	 23.1052 	 70.7632
| 41> *
| 42>
| 43>                          ****END OF INPUT****

CARTESIAN COORDINATES (ANGSTROEM)
---------------------------------
  S     67.795000   22.726700   76.713800
  C     68.350700   21.836400   78.148800
  C     69.474200   21.118700   77.778200
  C     69.884900   21.306100   76.426400
  C     69.133500   22.221500   75.637200
  H     70.776900   20.945000   75.944700
  C     70.117700   20.086600   78.645600
  H     70.802800   19.498500   78.038800
  H     69.442800   19.380800   79.002800
  C     70.805100   20.662200   79.889900
  H     71.287500   21.642800   79.600100
  H     69.973100   20.787400   80.614600
  C     71.935300   19.686000   80.309200
  H     72.734300   19.580000   79.586700
  H     72.377900   19.950900   81.213800
  H     71.475500   18.704500   80.533200
  S     67.919900   22.761500   73.225400
  C     68.898200   22.889600   71.804100
  C     70.240800   23.005300   72.112000
  C     70.481000   22.953800   73.508400
  C     69.364100   22.650200   74.233800
  H     70.957500   23.234000   71.352100
  C     71.920000   23.295900   74.066500
  H     72.620200   23.031600   73.313800
  H     72.277500   22.634200   74.827100
  C     72.155100   24.767100   74.499200
  H     73.103500   24.656100   75.009900
  H     71.290700   25.004300   75.166000
  C     72.274300   25.748100   73.305300
  H     72.485200   26.775000   73.604300
  H     71.306200   25.736500   72.871000
  H     73.019900   25.569200   72.506300
  H     67.684700   21.700300   79.017200
  H     68.601400   23.105200   70.763200

 Total Charge           Charge          ....    0
 Multiplicity           Mult            ....    1
 Number of Electrons    NEL             ....  134
 Basis Dimension        Dim             ....  322

ORBITAL ENERGIES
----------------

  NO   OCC          E(Eh)            E(eV)
   0   2.0000     -88.969107     -2420.9725
   1   2.0000     -88.962906     -2420.8037
   2   2.0000     -10.340693      -281.3846
   3   2.0000     -10.333828      -281.1978
   4   2.0000     -10.320712      -280.8408
   5   2.0000     -10.319738      -280.8143
   6   2.0000     -10.308303      -280.5032
   7   2.0000     -10.301715      -280.3239
   8   2.0000     -10.296011      -280.1687
   9   2.0000     -10.293252      -280.0936
  10   2.0000     -10.292526      -280.0739
  11   2.0000     -10.291789      -280.0538
  12   2.0000     -10.290966      -280.0314
  13   2.0000     -10.279906      -279.7305
  14   2.0000     -10.276267      -279.6314
  15   2.0000     -10.276091      -279.6266
  16   2.0000      -8.084032      -219.9777
  17   2.0000      -8.076480      -219.7722
  18   2.0000      -6.042575      -164.4268
  19   2.0000      -6.038582      -164.3182
  20   2.0000      -6.035151      -164.2248
  21   2.0000      -6.034653      -164.2113
  22   2.0000      -6.030936      -164.1101
  23   2.0000      -6.027333      -164.0121
  24   2.0000      -1.005802       -27.3693
  25   2.0000      -0.981727       -26.7141
  26   2.0000      -0.912532       -24.8313
  27   2.0000      -0.904694       -24.6180
  28   2.0000      -0.867643       -23.6098
  29   2.0000      -0.848907       -23.0999
  30   2.0000      -0.840762       -22.8783
  31   2.0000      -0.814166       -22.1546
  32   2.0000      -0.787150       -21.4194
  33   2.0000      -0.773925       -21.0596
  34   2.0000      -0.707675       -19.2568
  35   2.0000      -0.699960       -19.0469
  36   2.0000      -0.689664       -18.7667
  37   2.0000      -0.665001       -18.0956
  38   2.0000      -0.642301       -17.4779
  39   2.0000      -0.616594       -16.7784
  40   2.0000      -0.599401       -16.3105
  41   2.0000      -0.571412       -15.5489
  42   2.0000      -0.565141       -15.3783
  43   2.0000      -0.548646       -14.9294
  44   2.0000      -0.539719       -14.6865
  45   2.0000      -0.520632       -14.1671
  46   2.0000      -0.518041       -14.0966
  47   2.0000      -0.513914       -13.9843
  48   2.0000      -0.504075       -13.7166
  49   2.0000      -0.496031       -13.4977
  50   2.0000      -0.487630       -13.2691
  51   2.0000      -0.480445       -13.0736
  52   2.0000      -0.478221       -13.0130
  53   2.0000      -0.473102       -12.8738
  54   2.0000      -0.460689       -12.5360
  55   2.0000      -0.450866       -12.2687
  56   2.0000      -0.440148       -11.9770
  57   2.0000      -0.430829       -11.7235
  58   2.0000      -0.429511       -11.6876
  59   2.0000      -0.424416       -11.5489
  60   2.0000      -0.420020       -11.4293
  61   2.0000      -0.412802       -11.2329
  62   2.0000      -0.406607       -11.0643
  63   2.0000      -0.350561        -9.5393
  64   2.0000      -0.336365        -9.1530
  65   2.0000      -0.325994        -8.8708
  66   2.0000      -0.291427        -7.9301
  67   0.0000       0.019055         0.5185
  68   0.0000       0.069993         1.9046
  69   0.0000       0.107609         2.9282
  70   0.0000       0.121043         3.2938
  71   0.0000       0.132781         3.6131

MULLIKEN ATOMIC CHARGES
-----------------------
   0 S :    0.078092
   1 C :   -0.136517
   2 C :   -0.070075
   3 C :    0.026416
   4 C :   -0.133433
   5 H :    0.005336
   6 C :    0.081293
   7 H :    0.009360
   8 H :    0.016816
   9 C :   -0.106625
  10 H :    0.046207
  11 H :    0.040303
  12 C :   -0.024697
  13 H :    0.037413
  14 H :    0.015385
  15 H :    0.023335
  16 S :    0.115942
  17 C :   -0.081496
  18 C :   -0.046241
  19 C :   -0.049485
  20 C :   -0.161971
  21 H :    0.015448
  22 C :    0.080687
  23 H :   -0.002330
  24 H :    0.011793
  25 C :   -0.057179
  26 H :    0.032128
  27 H :    0.055939
  28 C :   -0.054615
  29 H :    0.033307
  30 H :    0.030506
  31 H :    0.030495
  32 H :    0.073624
  33 H :    0.064839
Sum of atomic charges:   -0.0000000

LOEWDIN ATOMIC CHARGES
----------------------
   0 S :    0.374649
   1 C :   -0.193429
   2 C :   -0.065477
   3 C :   -0.067667
   4 C :   -0.181519
   5 H :    0.026250
   6 C :   -0.031288
   7 H :    0.026172
   8 H :    0.022881
   9 C :   -0.037031
  10 H :    0.029519
  11 H :    0.027201
  12 C :   -0.061265
  13 H :    0.026355
  14 H :    0.015049
  15 H :    0.027221
  16 S :    0.414061
  17 C :   -0.191810
  18 C :   -0.072970
  19 C :   -0.055747
  20 C :   -0.192429
  21 H :    0.029587
  22 C :   -0.027571
  23 H :    0.021927
  24 H :    0.024820
  25 C :   -0.031384
  26 H :    0.024186
  27 H :    0.037417
  28 C :   -0.071521
  29 H :    0.026738
  30 H :    0.022826
  31 H :    0.027178
  32 H :    0.038309
  33 H :    0.038760

  Mayer bond orders larger than 0.100000
B(  0-S ,  1-C ) :   1.1380 B(  0-S ,  4-C ) :   1.1520 B(  1-C ,  2-C ) :   1.5614
B(  1-C ,  4-C ) :   0.1105 B(  1-C , 32-H ) :   0.9703 B(  2-C ,  3-C ) :   1.2714
B(  2-C ,  6-C ) :   1.0306 B(  3-C ,  4-C ) :   1.5466 B(  3-C ,  5-H ) :   0.9935
B(  4-C , 20-C ) :   1.0441 B(  6-C ,  7-H ) :   0.9487 B(  6-C ,  8-H ) :   0.9363
B(  6-C ,  9-C ) :   1.0377 B(  9-C , 10-H ) :   0.9645 B(  9-C , 11-H ) :   0.9570
B(  9-C , 12-C ) :   1.0818 B( 12-C , 13-H ) :   0.9765 B( 12-C , 14-H ) :   0.9735
B( 12-C , 15-H ) :   0.9712 B( 16-S , 17-C ) :   1.1625 B( 16-S , 20-C ) :   1.1299
B( 17-C , 18-C ) :   1.6087 B( 17-C , 33-H ) :   0.9600 B( 18-C , 19-C ) :   1.2533
B( 18-C , 21-H ) :   0.9897 B( 19-C , 20-C ) :   1.6085 B( 19-C , 22-C ) :   1.0211
B( 22-C , 23-H ) :   0.9303 B( 22-C , 24-H ) :   0.9395 B( 22-C , 25-C ) :   1.0632
B( 25-C , 26-H ) :   0.9559 B( 25-C , 27-H ) :   0.9587 B( 25-C , 28-C ) :   1.0712
B( 28-C , 29-H ) :   0.9748 B( 28-C , 30-H ) :   0.9758 B( 28-C , 31-H ) :   0.9764

Dispersion correction           -0.013921742
FINAL SINGLE POINT ENERGY     -1339.862104525663

DIPOLE MOMENT
-------------
                                X             Y             Z
Electronic contribution:    -23.96627       1.34402     -11.73768
Nuclear contribution   :     24.63146      -1.49480      11.75653
                        -----------------------------------------
Total Dipole Moment    :      0.66519      -0.15078       0.01886
                        -----------------------------------------
Magnitude (a.u.)       :      0.68233
Magnitude (Debye)      :      1.73435

Rotational constants in cm-1:     0.020107     0.007614     0.006260
Rotational constants in MHz :   602.788393   228.265587   187.657418

                             ****ORCA TERMINATED NORMALLY****
TOTAL RUN TIME: 0 days 0 hours 0 minutes 29 seconds 662 msec
