                         Program Version 4.2.1 -  RELEASE  -
|  1> ! wB97X-D3 SP def2-SVP
|  2> %pal
|  3> nprocs 16
|  4> end
|  5>
|  6> * xyz 0 1
|  7> S 	 -0.942224 	 46.2685 	 34.2488
|  8> C 	 -1.20875 	 45.5489 	 35.8417
|  9> C 	 -0.031959 	 45.451 	 36.5722
| 10> C 	 1.06627 	 46.09 	 35.8756
| 11> C 	 0.718 	 46.6167 	 34.6555
| 12> H 	 2.10413 	 46.2151 	 36.2933
| 13> C 	 0.111904 	 44.7943 	 37.8893
| 14> H 	 0.291653 	 45.6565 	 38.527
| 15> H 	 1.03673 	 44.2163 	 37.7004
| 16> C 	 -0.893314 	 43.7582 	 38.2895
| 17> H 	 -1.91856 	 44.2414 	 38.4021
| 18> H 	 -0.864353 	 42.9092 	 37.5874
| 19> C 	 -0.498377 	 43.2447 	 39.6675
| 20> H 	 0.466806 	 42.6695 	 39.6878
| 21> H 	 -0.305998 	 43.9697 	 40.3979
| 22> H 	 -1.26413 	 42.564 	 40.0931
| 23> S 	 1.41555 	 46.7227 	 31.9422
| 24> C 	 2.61314 	 47.9331 	 31.4963
| 25> C 	 3.10059 	 48.5992 	 32.5566
| 26> C 	 2.64508 	 48.0769 	 33.8417
| 27> C 	 1.64359 	 47.1299 	 33.6769
| 28> H 	 3.79728 	 49.3919 	 32.4201
| 29> C 	 3.01774 	 48.7592 	 35.1625
| 30> H 	 3.84276 	 49.4207 	 35.0619
| 31> H 	 3.46756 	 48.0368 	 35.8153
| 32> C 	 1.96495 	 49.6049 	 35.8055
| 33> H 	 2.35649 	 50.128 	 36.6556
| 34> H 	 1.24681 	 48.8777 	 36.2011
| 35> C 	 1.49954 	 50.709 	 34.8415
| 36> H 	 0.890939 	 51.3952 	 35.3304
| 37> H 	 0.934257 	 50.3023 	 33.9969
| 38> H 	 2.32774 	 51.2261 	 34.2801
| 39> H 	 -2.19899 	 45.1104 	 36.0821
| 40> H 	 2.79119 	 48.2041 	 30.474
| 41> *
| 42>
| 43>                          ****END OF INPUT****

CARTESIAN COORDINATES (ANGSTROEM)
---------------------------------
  S     -0.942224   46.268500   34.248800
  C     -1.208750   45.548900   35.841700
  C     -0.031959   45.451000   36.572200
  C      1.066270   46.090000   35.875600
  C      0.718000   46.616700   34.655500
  H      2.104130   46.215100   36.293300
  C      0.111904   44.794300   37.889300
  H      0.291653   45.656500   38.527000
  H      1.036730   44.216300   37.700400
  C     -0.893314   43.758200   38.289500
  H     -1.918560   44.241400   38.402100
  H     -0.864353   42.909200   37.587400
  C     -0.498377   43.244700   39.667500
  H      0.466806   42.669500   39.687800
  H     -0.305998   43.969700   40.397900
  H     -1.264130   42.564000   40.093100
  S      1.415550   46.722700   31.942200
  C      2.613140   47.933100   31.496300
  C      3.100590   48.599200   32.556600
  C      2.645080   48.076900   33.841700
  C      1.643590   47.129900   33.676900
  H      3.797280   49.391900   32.420100
  C      3.017740   48.759200   35.162500
  H      3.842760   49.420700   35.061900
  H      3.467560   48.036800   35.815300
  C      1.964950   49.604900   35.805500
  H      2.356490   50.128000   36.655600
  H      1.246810   48.877700   36.201100
  C      1.499540   50.709000   34.841500
  H      0.890939   51.395200   35.330400
  H      0.934257   50.302300   33.996900
  H      2.327740   51.226100   34.280100
  H     -2.198990   45.110400   36.082100
  H      2.791190   48.204100   30.474000

 Total Charge           Charge          ....    0
 Multiplicity           Mult            ....    1
 Number of Electrons    NEL             ....  134
 Basis Dimension        Dim             ....  322

ORBITAL ENERGIES
----------------

  NO   OCC          E(Eh)            E(eV)
   0   2.0000     -88.963962     -2420.8325
   1   2.0000     -88.963514     -2420.8203
   2   2.0000     -10.328566      -281.0546
   3   2.0000     -10.327807      -281.0339
   4   2.0000     -10.314378      -280.6685
   5   2.0000     -10.312617      -280.6206
   6   2.0000     -10.305432      -280.4251
   7   2.0000     -10.301890      -280.3287
   8   2.0000     -10.297683      -280.2142
   9   2.0000     -10.296847      -280.1915
  10   2.0000     -10.291190      -280.0375
  11   2.0000     -10.291024      -280.0330
  12   2.0000     -10.282908      -279.8121
  13   2.0000     -10.278784      -279.6999
  14   2.0000     -10.277952      -279.6773
  15   2.0000     -10.270682      -279.4795
  16   2.0000      -8.078604      -219.8300
  17   2.0000      -8.077681      -219.8049
  18   2.0000      -6.037145      -164.2791
  19   2.0000      -6.036396      -164.2587
  20   2.0000      -6.033228      -164.1725
  21   2.0000      -6.032369      -164.1491
  22   2.0000      -6.029237      -164.0639
  23   2.0000      -6.028162      -164.0346
  24   2.0000      -1.004406       -27.3313
  25   2.0000      -0.980005       -26.6673
  26   2.0000      -0.923607       -25.1326
  27   2.0000      -0.912818       -24.8390
  28   2.0000      -0.871086       -23.7035
  29   2.0000      -0.852019       -23.1846
  30   2.0000      -0.839732       -22.8503
  31   2.0000      -0.813531       -22.1373
  32   2.0000      -0.785691       -21.3797
  33   2.0000      -0.772198       -21.0126
  34   2.0000      -0.714456       -19.4413
  35   2.0000      -0.705065       -19.1858
  36   2.0000      -0.685428       -18.6515
  37   2.0000      -0.662757       -18.0345
  38   2.0000      -0.633795       -17.2464
  39   2.0000      -0.609722       -16.5914
  40   2.0000      -0.594702       -16.1827
  41   2.0000      -0.584921       -15.9165
  42   2.0000      -0.563912       -15.3448
  43   2.0000      -0.557310       -15.1652
  44   2.0000      -0.554312       -15.0836
  45   2.0000      -0.527219       -14.3464
  46   2.0000      -0.517509       -14.0821
  47   2.0000      -0.509573       -13.8662
  48   2.0000      -0.499216       -13.5844
  49   2.0000      -0.492594       -13.4042
  50   2.0000      -0.486569       -13.2402
  51   2.0000      -0.478998       -13.0342
  52   2.0000      -0.472332       -12.8528
  53   2.0000      -0.462543       -12.5864
  54   2.0000      -0.458343       -12.4721
  55   2.0000      -0.448513       -12.2046
  56   2.0000      -0.445346       -12.1185
  57   2.0000      -0.441394       -12.0109
  58   2.0000      -0.431314       -11.7367
  59   2.0000      -0.423897       -11.5348
  60   2.0000      -0.417983       -11.3739
  61   2.0000      -0.415788       -11.3142
  62   2.0000      -0.405975       -11.0471
  63   2.0000      -0.354488        -9.6461
  64   2.0000      -0.331235        -9.0134
  65   2.0000      -0.326743        -8.8911
  66   2.0000      -0.286423        -7.7940
  67   0.0000       0.025622         0.6972
  68   0.0000       0.075455         2.0532
  69   0.0000       0.110399         3.0041
  70   0.0000       0.125436         3.4133
  71   0.0000       0.131637         3.5820

MULLIKEN ATOMIC CHARGES
-----------------------
   0 S :    0.098463
   1 C :   -0.152795
   2 C :   -0.083393
   3 C :   -0.013208
   4 C :   -0.131248
   5 H :    0.031382
   6 C :    0.042061
   7 H :    0.049626
   8 H :    0.035411
   9 C :   -0.077536
  10 H :    0.045286
  11 H :    0.047688
  12 C :   -0.041988
  13 H :    0.026532
  14 H :    0.013355
  15 H :    0.036368
  16 S :    0.089108
  17 C :   -0.079872
  18 C :   -0.014390
  19 C :   -0.059099
  20 C :   -0.134399
  21 H :    0.010193
  22 C :    0.064587
  23 H :   -0.004814
  24 H :    0.017973
  25 C :   -0.034178
  26 H :    0.018680
  27 H :    0.040251
  28 C :   -0.044643
  29 H :    0.023860
  30 H :    0.039971
  31 H :    0.025294
  32 H :    0.062930
  33 H :    0.052543
Sum of atomic charges:    0.0000000

LOEWDIN ATOMIC CHARGES
----------------------
   0 S :    0.393755
   1 C :   -0.206175
   2 C :   -0.062095
   3 C :   -0.071561
   4 C :   -0.190839
   5 H :    0.039785
   6 C :   -0.041694
   7 H :    0.039932
   8 H :    0.042147
   9 C :   -0.042279
  10 H :    0.031810
  11 H :    0.035112
  12 C :   -0.068928
  13 H :    0.029105
  14 H :    0.015663
  15 H :    0.028551
  16 S :    0.370168
  17 C :   -0.174514
  18 C :   -0.065210
  19 C :   -0.049785
  20 C :   -0.176923
  21 H :    0.027599
  22 C :   -0.035998
  23 H :    0.023760
  24 H :    0.025076
  25 C :   -0.037252
  26 H :    0.021847
  27 H :    0.027016
  28 C :   -0.062033
  29 H :    0.015668
  30 H :    0.029258
  31 H :    0.030082
  32 H :    0.031757
  33 H :    0.027195

  Mayer bond orders larger than 0.100000
B(  0-S ,  1-C ) :   1.1157 B(  0-S ,  4-C ) :   1.1449 B(  1-C ,  2-C ) :   1.6163
B(  1-C , 32-H ) :   0.9632 B(  2-C ,  3-C ) :   1.2386 B(  2-C ,  6-C ) :   0.9933
B(  3-C ,  4-C ) :   1.5634 B(  3-C ,  5-H ) :   0.9847 B(  4-C , 20-C ) :   1.0822
B(  6-C ,  7-H ) :   0.9326 B(  6-C ,  8-H ) :   0.9414 B(  6-C ,  9-C ) :   1.0919
B(  9-C , 10-H ) :   0.9427 B(  9-C , 11-H ) :   0.9528 B(  9-C , 12-C ) :   1.0891
B( 12-C , 13-H ) :   0.9710 B( 12-C , 14-H ) :   0.9730 B( 12-C , 15-H ) :   0.9734
B( 16-S , 17-C ) :   1.1236 B( 16-S , 20-C ) :   1.1171 B( 17-C , 18-C ) :   1.6586
B( 17-C , 33-H ) :   0.9662 B( 18-C , 19-C ) :   1.2101 B( 18-C , 21-H ) :   0.9937
B( 19-C , 20-C ) :   1.6135 B( 19-C , 22-C ) :   1.0404 B( 22-C , 23-H ) :   0.9281
B( 22-C , 24-H ) :   0.9284 B( 22-C , 25-C ) :   1.0817 B( 25-C , 26-H ) :   0.9519
B( 25-C , 27-H ) :   0.9495 B( 25-C , 28-C ) :   1.0679 B( 28-C , 29-H ) :   0.9758
B( 28-C , 30-H ) :   0.9715 B( 28-C , 31-H ) :   0.9728

Dispersion correction           -0.015005673
FINAL SINGLE POINT ENERGY     -1339.876210341137

DIPOLE MOMENT
-------------
                                X             Y             Z
Electronic contribution:     -2.52787      -2.17017     -24.48777
Nuclear contribution   :      2.79469       2.28679      25.10133
                        -----------------------------------------
Total Dipole Moment    :      0.26682       0.11662       0.61356
                        -----------------------------------------
Magnitude (a.u.)       :      0.67915
Magnitude (Debye)      :      1.72627

Rotational constants in cm-1:     0.023856     0.007660     0.006635
Rotational constants in MHz :   715.180229   229.626975   198.899992

                             ****ORCA TERMINATED NORMALLY****
TOTAL RUN TIME: 0 days 0 hours 0 minutes 32 seconds 673 msec
