                         Program Version 4.2.1 -  RELEASE  -
|  1> ! wB97X-D3 SP def2-SVP
|  2> %pal
|  3> nprocs 16
|  4> end
|  5>
|  6> * xyz 0 1
|  7> S 	 -40.8771 	 36.2445 	 81.3241
|  8> C 	 -41.061 	 37.846 	 80.6935
|  9> C 	 -42.3509 	 37.9446 	 80.1496
| 10> C 	 -43.1428 	 36.7638 	 80.3016
| 11> C 	 -42.4381 	 35.7621 	 80.9076
| 12> H 	 -44.2251 	 36.4992 	 80.019
| 13> C 	 -42.8657 	 39.0992 	 79.3471
| 14> H 	 -42.0858 	 39.87 	 79.211
| 15> H 	 -43.5613 	 39.5577 	 80.1458
| 16> C 	 -43.7328 	 38.6902 	 78.0932
| 17> H 	 -42.9471 	 38.2203 	 77.3864
| 18> H 	 -44.5678 	 37.9517 	 78.2413
| 19> C 	 -44.2543 	 39.9031 	 77.3843
| 20> H 	 -43.4577 	 40.6459 	 77.3426
| 21> H 	 -44.6452 	 39.5143 	 76.441
| 22> H 	 -45.0907 	 40.349 	 77.9026
| 23> S 	 -44.3434 	 34.2612 	 82.1296
| 24> C 	 -44.1877 	 32.447 	 82.0453
| 25> C 	 -43.2123 	 32.0446 	 81.2415
| 26> C 	 -42.4454 	 33.1359 	 80.6729
| 27> C 	 -42.8593 	 34.3685 	 81.1197
| 28> H 	 -43.0252 	 30.9874 	 81.0511
| 29> C 	 -41.15 	 32.9154 	 79.8057
| 30> H 	 -40.7592 	 33.9035 	 79.6726
| 31> H 	 -41.4875 	 32.6396 	 78.8497
| 32> C 	 -39.9955 	 31.9682 	 80.32
| 33> H 	 -40.412 	 30.9927 	 80.69
| 34> H 	 -39.5755 	 32.356 	 81.2709
| 35> C 	 -38.803 	 31.6457 	 79.3461
| 36> H 	 -38.2804 	 32.5961 	 79.1737
| 37> H 	 -39.0716 	 31.28 	 78.3298
| 38> H 	 -37.9737 	 31.0659 	 79.6979
| 39> H 	 -40.2748 	 38.5392 	 80.592
| 40> H 	 -44.8139 	 31.8455 	 82.5938
| 41> *
| 42>
| 43>                          ****END OF INPUT****

CARTESIAN COORDINATES (ANGSTROEM)
---------------------------------
  S    -40.877100   36.244500   81.324100
  C    -41.061000   37.846000   80.693500
  C    -42.350900   37.944600   80.149600
  C    -43.142800   36.763800   80.301600
  C    -42.438100   35.762100   80.907600
  H    -44.225100   36.499200   80.019000
  C    -42.865700   39.099200   79.347100
  H    -42.085800   39.870000   79.211000
  H    -43.561300   39.557700   80.145800
  C    -43.732800   38.690200   78.093200
  H    -42.947100   38.220300   77.386400
  H    -44.567800   37.951700   78.241300
  C    -44.254300   39.903100   77.384300
  H    -43.457700   40.645900   77.342600
  H    -44.645200   39.514300   76.441000
  H    -45.090700   40.349000   77.902600
  S    -44.343400   34.261200   82.129600
  C    -44.187700   32.447000   82.045300
  C    -43.212300   32.044600   81.241500
  C    -42.445400   33.135900   80.672900
  C    -42.859300   34.368500   81.119700
  H    -43.025200   30.987400   81.051100
  C    -41.150000   32.915400   79.805700
  H    -40.759200   33.903500   79.672600
  H    -41.487500   32.639600   78.849700
  C    -39.995500   31.968200   80.320000
  H    -40.412000   30.992700   80.690000
  H    -39.575500   32.356000   81.270900
  C    -38.803000   31.645700   79.346100
  H    -38.280400   32.596100   79.173700
  H    -39.071600   31.280000   78.329800
  H    -37.973700   31.065900   79.697900
  H    -40.274800   38.539200   80.592000
  H    -44.813900   31.845500   82.593800

 Total Charge           Charge          ....    0
 Multiplicity           Mult            ....    1
 Number of Electrons    NEL             ....  134
 Basis Dimension        Dim             ....  322

ORBITAL ENERGIES
----------------

  NO   OCC          E(Eh)            E(eV)
   0   2.0000     -88.963098     -2420.8090
   1   2.0000     -88.961004     -2420.7520
   2   2.0000     -10.330926      -281.1188
   3   2.0000     -10.323172      -280.9078
   4   2.0000     -10.313415      -280.6423
   5   2.0000     -10.310409      -280.5605
   6   2.0000     -10.308828      -280.5175
   7   2.0000     -10.303987      -280.3857
   8   2.0000     -10.300041      -280.2784
   9   2.0000     -10.299536      -280.2646
  10   2.0000     -10.298588      -280.2388
  11   2.0000     -10.295750      -280.1616
  12   2.0000     -10.294566      -280.1294
  13   2.0000     -10.293155      -280.0910
  14   2.0000     -10.282911      -279.8122
  15   2.0000     -10.275442      -279.6090
  16   2.0000      -8.078991      -219.8405
  17   2.0000      -8.074510      -219.7186
  18   2.0000      -6.037367      -164.2851
  19   2.0000      -6.033203      -164.1718
  20   2.0000      -6.033114      -164.1694
  21   2.0000      -6.030046      -164.0859
  22   2.0000      -6.029446      -164.0696
  23   2.0000      -6.024892      -163.9456
  24   2.0000      -1.010719       -27.5031
  25   2.0000      -0.981165       -26.6988
  26   2.0000      -0.911097       -24.7922
  27   2.0000      -0.891811       -24.2674
  28   2.0000      -0.873954       -23.7815
  29   2.0000      -0.852841       -23.2070
  30   2.0000      -0.840534       -22.8721
  31   2.0000      -0.819275       -22.2936
  32   2.0000      -0.781334       -21.2612
  33   2.0000      -0.769432       -20.9373
  34   2.0000      -0.707074       -19.2404
  35   2.0000      -0.701775       -19.0963
  36   2.0000      -0.687951       -18.7201
  37   2.0000      -0.666584       -18.1387
  38   2.0000      -0.637900       -17.3581
  39   2.0000      -0.613713       -16.7000
  40   2.0000      -0.596544       -16.2328
  41   2.0000      -0.568884       -15.4801
  42   2.0000      -0.557789       -15.1782
  43   2.0000      -0.552282       -15.0284
  44   2.0000      -0.537164       -14.6170
  45   2.0000      -0.521514       -14.1911
  46   2.0000      -0.519243       -14.1293
  47   2.0000      -0.510315       -13.8864
  48   2.0000      -0.506589       -13.7850
  49   2.0000      -0.498766       -13.5721
  50   2.0000      -0.489578       -13.3221
  51   2.0000      -0.474800       -12.9200
  52   2.0000      -0.464866       -12.6496
  53   2.0000      -0.463500       -12.6125
  54   2.0000      -0.460591       -12.5333
  55   2.0000      -0.450230       -12.2514
  56   2.0000      -0.446507       -12.1501
  57   2.0000      -0.442662       -12.0455
  58   2.0000      -0.434997       -11.8369
  59   2.0000      -0.420262       -11.4359
  60   2.0000      -0.413875       -11.2621
  61   2.0000      -0.409977       -11.1560
  62   2.0000      -0.407110       -11.0780
  63   2.0000      -0.346129        -9.4187
  64   2.0000      -0.332124        -9.0376
  65   2.0000      -0.322525        -8.7763
  66   2.0000      -0.299127        -8.1397
  67   0.0000       0.038967         1.0603
  68   0.0000       0.072124         1.9626
  69   0.0000       0.098451         2.6790
  70   0.0000       0.127700         3.4749
  71   0.0000       0.132806         3.6138

MULLIKEN ATOMIC CHARGES
-----------------------
   0 S :    0.117951
   1 C :   -0.114984
   2 C :   -0.075839
   3 C :    0.001049
   4 C :   -0.159588
   5 H :    0.045655
   6 C :    0.024711
   7 H :    0.025798
   8 H :    0.048258
   9 C :   -0.130721
  10 H :    0.046125
  11 H :    0.051138
  12 C :   -0.008529
  13 H :    0.029654
  14 H :    0.035132
  15 H :    0.026119
  16 S :    0.068330
  17 C :   -0.048905
  18 C :   -0.017024
  19 C :   -0.039138
  20 C :   -0.173107
  21 H :    0.028777
  22 C :    0.129000
  23 H :    0.009875
  24 H :    0.016293
  25 C :   -0.087758
  26 H :    0.027231
  27 H :    0.034644
  28 C :   -0.062396
  29 H :    0.024155
  30 H :    0.038303
  31 H :    0.033995
  32 H :    0.032318
  33 H :    0.023479
Sum of atomic charges:    0.0000000

LOEWDIN ATOMIC CHARGES
----------------------
   0 S :    0.447979
   1 C :   -0.214595
   2 C :   -0.058971
   3 C :   -0.083294
   4 C :   -0.218523
   5 H :    0.047268
   6 C :   -0.045422
   7 H :    0.030772
   8 H :    0.044438
   9 C :   -0.047620
  10 H :    0.033858
  11 H :    0.031305
  12 C :   -0.063287
  13 H :    0.025352
  14 H :    0.029749
  15 H :    0.021555
  16 S :    0.343574
  17 C :   -0.135966
  18 C :   -0.066427
  19 C :   -0.050646
  20 C :   -0.174281
  21 H :    0.037950
  22 C :   -0.022570
  23 H :    0.019811
  24 H :    0.024653
  25 C :   -0.043896
  26 H :    0.021224
  27 H :    0.029328
  28 C :   -0.075334
  29 H :    0.027280
  30 H :    0.027807
  31 H :    0.026779
  32 H :    0.019507
  33 H :    0.010645

  Mayer bond orders larger than 0.100000
B(  0-S ,  1-C ) :   1.1380 B(  0-S ,  4-C ) :   1.1920 B(  1-C ,  2-C ) :   1.5772
B(  1-C , 32-H ) :   0.9823 B(  2-C ,  3-C ) :   1.2399 B(  2-C ,  6-C ) :   1.0269
B(  3-C ,  4-C ) :   1.5777 B(  3-C ,  5-H ) :   0.9748 B(  4-C , 20-C ) :   0.9788
B(  6-C ,  7-H ) :   0.9472 B(  6-C ,  8-H ) :   0.9289 B(  6-C ,  9-C ) :   1.0488
B(  9-C , 10-H ) :   0.9574 B(  9-C , 11-H ) :   0.9489 B(  9-C , 12-C ) :   1.0883
B( 12-C , 13-H ) :   0.9712 B( 12-C , 14-H ) :   0.9715 B( 12-C , 15-H ) :   0.9747
B( 16-S , 17-C ) :   1.1063 B( 16-S , 20-C ) :   1.1151 B( 17-C , 18-C ) :   1.6850
B( 17-C , 33-H ) :   0.9781 B( 18-C , 19-C ) :   1.1694 B( 18-C , 21-H ) :   0.9874
B( 19-C , 20-C ) :   1.6782 B( 19-C , 22-C ) :   1.0329 B( 22-C , 23-H ) :   0.9336
B( 22-C , 24-H ) :   0.9294 B( 22-C , 25-C ) :   1.0413 B( 25-C , 26-H ) :   0.9609
B( 25-C , 27-H ) :   0.9570 B( 25-C , 28-C ) :   1.0702 B( 28-C , 29-H ) :   0.9751
B( 28-C , 30-H ) :   0.9780 B( 28-C , 31-H ) :   0.9760

Dispersion correction           -0.013692208
FINAL SINGLE POINT ENERGY     -1339.860990990061

DIPOLE MOMENT
-------------
                                X             Y             Z
Electronic contribution:     -5.99860      -2.95905      18.14119
Nuclear contribution   :      6.07489       2.90772     -18.60722
                        -----------------------------------------
Total Dipole Moment    :      0.07629      -0.05133      -0.46603
                        -----------------------------------------
Magnitude (a.u.)       :      0.47501
Magnitude (Debye)      :      1.20739

Rotational constants in cm-1:     0.018359     0.007732     0.006518
Rotational constants in MHz :   550.397719   231.802596   195.410030

                             ****ORCA TERMINATED NORMALLY****
TOTAL RUN TIME: 0 days 0 hours 0 minutes 29 seconds 944 msec
