                         Program Version 4.2.1 -  RELEASE  -
|  1> ! wB97X-D3 SP def2-SVP
|  2> %pal
|  3> nprocs 16
|  4> end
|  5>
|  6> * xyz 0 1
|  7> S 	 -36.1231 	 32.4138 	 83.0254
|  8> C 	 -35.3087 	 32.8126 	 81.5716
|  9> C 	 -36.1674 	 33.0965 	 80.4823
| 10> C 	 -37.5208 	 32.8534 	 80.8783
| 11> C 	 -37.6685 	 32.3268 	 82.1455
| 12> H 	 -38.3996 	 33.0089 	 80.2157
| 13> C 	 -35.7096 	 33.6043 	 79.2222
| 14> H 	 -35.5843 	 32.716 	 78.5869
| 15> H 	 -34.7315 	 34.0558 	 79.3996
| 16> C 	 -36.6348 	 34.5222 	 78.5036
| 17> H 	 -37.5405 	 33.9374 	 78.1301
| 18> H 	 -37.0807 	 35.3257 	 79.061
| 19> C 	 -35.8214 	 35.1319 	 77.3283
| 20> H 	 -35.7768 	 34.4246 	 76.5347
| 21> H 	 -36.3969 	 35.9328 	 76.8823
| 22> H 	 -34.8079 	 35.3701 	 77.6468
| 23> S 	 -39.3144 	 32.7114 	 84.3057
| 24> C 	 -40.9267 	 31.9491 	 84.3374
| 25> C 	 -41.1487 	 31.2489 	 83.1254
| 26> C 	 -40.0788 	 31.2968 	 82.2098
| 27> C 	 -38.972 	 31.9393 	 82.7309
| 28> H 	 -42.1265 	 30.6463 	 83.0846
| 29> C 	 -40.1982 	 30.5244 	 80.9295
| 30> H 	 -40.7111 	 29.5547 	 81.1338
| 31> H 	 -39.1104 	 30.2431 	 80.7683
| 32> C 	 -40.9436 	 31.3705 	 79.9225
| 33> H 	 -40.3991 	 32.4042 	 79.7763
| 34> H 	 -41.8641 	 31.6706 	 80.4261
| 35> C 	 -41.1766 	 30.5666 	 78.6649
| 36> H 	 -41.6958 	 31.1498 	 77.8687
| 37> H 	 -41.6054 	 29.5671 	 78.8556
| 38> H 	 -40.2598 	 30.1547 	 78.2593
| 39> H 	 -34.2614 	 33.1395 	 81.604
| 40> H 	 -41.6643 	 31.9861 	 85.1336
| 41> *
| 42>
| 43>                          ****END OF INPUT****

CARTESIAN COORDINATES (ANGSTROEM)
---------------------------------
  S    -36.123100   32.413800   83.025400
  C    -35.308700   32.812600   81.571600
  C    -36.167400   33.096500   80.482300
  C    -37.520800   32.853400   80.878300
  C    -37.668500   32.326800   82.145500
  H    -38.399600   33.008900   80.215700
  C    -35.709600   33.604300   79.222200
  H    -35.584300   32.716000   78.586900
  H    -34.731500   34.055800   79.399600
  C    -36.634800   34.522200   78.503600
  H    -37.540500   33.937400   78.130100
  H    -37.080700   35.325700   79.061000
  C    -35.821400   35.131900   77.328300
  H    -35.776800   34.424600   76.534700
  H    -36.396900   35.932800   76.882300
  H    -34.807900   35.370100   77.646800
  S    -39.314400   32.711400   84.305700
  C    -40.926700   31.949100   84.337400
  C    -41.148700   31.248900   83.125400
  C    -40.078800   31.296800   82.209800
  C    -38.972000   31.939300   82.730900
  H    -42.126500   30.646300   83.084600
  C    -40.198200   30.524400   80.929500
  H    -40.711100   29.554700   81.133800
  H    -39.110400   30.243100   80.768300
  C    -40.943600   31.370500   79.922500
  H    -40.399100   32.404200   79.776300
  H    -41.864100   31.670600   80.426100
  C    -41.176600   30.566600   78.664900
  H    -41.695800   31.149800   77.868700
  H    -41.605400   29.567100   78.855600
  H    -40.259800   30.154700   78.259300
  H    -34.261400   33.139500   81.604000
  H    -41.664300   31.986100   85.133600

 Total Charge           Charge          ....    0
 Multiplicity           Mult            ....    1
 Number of Electrons    NEL             ....  134
 Basis Dimension        Dim             ....  322

ORBITAL ENERGIES
----------------

  NO   OCC          E(Eh)            E(eV)
   0   2.0000     -88.967793     -2420.9367
   1   2.0000     -88.965071     -2420.8627
   2   2.0000     -10.330640      -281.1110
   3   2.0000     -10.330310      -281.1020
   4   2.0000     -10.321214      -280.8545
   5   2.0000     -10.311090      -280.5790
   6   2.0000     -10.300535      -280.2918
   7   2.0000     -10.299770      -280.2710
   8   2.0000     -10.297879      -280.2195
   9   2.0000     -10.297393      -280.2063
  10   2.0000     -10.295890      -280.1654
  11   2.0000     -10.295070      -280.1431
  12   2.0000     -10.289564      -279.9933
  13   2.0000     -10.286520      -279.9104
  14   2.0000     -10.282048      -279.7887
  15   2.0000     -10.276577      -279.6399
  16   2.0000      -8.082403      -219.9334
  17   2.0000      -8.078650      -219.8312
  18   2.0000      -6.040911      -164.3816
  19   2.0000      -6.037245      -164.2818
  20   2.0000      -6.037012      -164.2755
  21   2.0000      -6.033349      -164.1758
  22   2.0000      -6.033112      -164.1693
  23   2.0000      -6.029366      -164.0674
  24   2.0000      -1.002159       -27.2701
  25   2.0000      -0.980852       -26.6903
  26   2.0000      -0.925476       -25.1835
  27   2.0000      -0.915085       -24.9007
  28   2.0000      -0.864411       -23.5218
  29   2.0000      -0.853983       -23.2381
  30   2.0000      -0.848628       -23.0923
  31   2.0000      -0.811618       -22.0852
  32   2.0000      -0.778458       -21.1829
  33   2.0000      -0.766998       -20.8711
  34   2.0000      -0.712819       -19.3968
  35   2.0000      -0.701685       -19.0938
  36   2.0000      -0.688386       -18.7319
  37   2.0000      -0.658173       -17.9098
  38   2.0000      -0.638928       -17.3861
  39   2.0000      -0.619609       -16.8604
  40   2.0000      -0.590207       -16.0603
  41   2.0000      -0.577982       -15.7277
  42   2.0000      -0.564984       -15.3740
  43   2.0000      -0.557935       -15.1822
  44   2.0000      -0.536171       -14.5900
  45   2.0000      -0.526080       -14.3154
  46   2.0000      -0.510783       -13.8991
  47   2.0000      -0.509327       -13.8595
  48   2.0000      -0.506893       -13.7933
  49   2.0000      -0.499264       -13.5857
  50   2.0000      -0.489547       -13.3213
  51   2.0000      -0.480229       -13.0677
  52   2.0000      -0.471350       -12.8261
  53   2.0000      -0.460442       -12.5293
  54   2.0000      -0.456325       -12.4172
  55   2.0000      -0.450190       -12.2503
  56   2.0000      -0.447065       -12.1652
  57   2.0000      -0.442352       -12.0370
  58   2.0000      -0.431632       -11.7453
  59   2.0000      -0.424981       -11.5643
  60   2.0000      -0.419553       -11.4166
  61   2.0000      -0.417101       -11.3499
  62   2.0000      -0.408951       -11.1281
  63   2.0000      -0.346652        -9.4329
  64   2.0000      -0.331749        -9.0273
  65   2.0000      -0.324970        -8.8429
  66   2.0000      -0.284943        -7.7537
  67   0.0000       0.024906         0.6777
  68   0.0000       0.069505         1.8913
  69   0.0000       0.104688         2.8487
  70   0.0000       0.122343         3.3291
  71   0.0000       0.127386         3.4663

MULLIKEN ATOMIC CHARGES
-----------------------
   0 S :    0.119055
   1 C :   -0.132854
   2 C :   -0.095846
   3 C :    0.014791
   4 C :   -0.142059
   5 H :    0.007708
   6 C :    0.081210
   7 H :    0.047099
   8 H :    0.016357
   9 C :   -0.128317
  10 H :    0.038239
  11 H :    0.033578
  12 C :   -0.001671
  13 H :    0.015809
  14 H :    0.027971
  15 H :    0.033840
  16 S :    0.088608
  17 C :   -0.100031
  18 C :   -0.073985
  19 C :   -0.043837
  20 C :   -0.138334
  21 H :    0.049756
  22 C :    0.017848
  23 H :    0.034932
  24 H :    0.046312
  25 C :   -0.087740
  26 H :    0.046785
  27 H :    0.029784
  28 C :   -0.001269
  29 H :    0.049816
  30 H :    0.021038
  31 H :    0.012713
  32 H :    0.056037
  33 H :    0.056659
Sum of atomic charges:    0.0000000

LOEWDIN ATOMIC CHARGES
----------------------
   0 S :    0.410232
   1 C :   -0.218382
   2 C :   -0.061746
   3 C :   -0.062981
   4 C :   -0.194142
   5 H :    0.032669
   6 C :   -0.041916
   7 H :    0.045727
   8 H :    0.031545
   9 C :   -0.041797
  10 H :    0.030673
  11 H :    0.020174
  12 C :   -0.055797
  13 H :    0.020789
  14 H :    0.025984
  15 H :    0.025697
  16 S :    0.376494
  17 C :   -0.181944
  18 C :   -0.081372
  19 C :   -0.066015
  20 C :   -0.179248
  21 H :    0.045626
  22 C :   -0.038116
  23 H :    0.034516
  24 H :    0.039309
  25 C :   -0.046095
  26 H :    0.034668
  27 H :    0.026517
  28 C :   -0.076439
  29 H :    0.031429
  30 H :    0.030748
  31 H :    0.025897
  32 H :    0.027843
  33 H :    0.029452

  Mayer bond orders larger than 0.100000
B(  0-S ,  1-C ) :   1.1534 B(  0-S ,  4-C ) :   1.1500 B(  1-C ,  2-C ) :   1.5787
B(  1-C , 32-H ) :   0.9599 B(  2-C ,  3-C ) :   1.2656 B(  2-C ,  6-C ) :   1.0406
B(  3-C ,  4-C ) :   1.5466 B(  3-C ,  5-H ) :   0.9829 B(  4-C , 20-C ) :   1.0324
B(  6-C ,  7-H ) :   0.9108 B(  6-C ,  8-H ) :   0.9391 B(  6-C ,  9-C ) :   1.0799
B(  9-C , 10-H ) :   0.9391 B(  9-C , 11-H ) :   0.9667 B(  9-C , 12-C ) :   1.0820
B( 12-C , 13-H ) :   0.9724 B( 12-C , 14-H ) :   0.9722 B( 12-C , 15-H ) :   0.9761
B( 16-S , 17-C ) :   1.1444 B( 16-S , 20-C ) :   1.1322 B( 17-C , 18-C ) :   1.6201
B( 17-C , 20-C ) :   0.1092 B( 17-C , 33-H ) :   0.9673 B( 18-C , 19-C ) :   1.2319
B( 18-C , 21-H ) :   0.9726 B( 19-C , 20-C ) :   1.6174 B( 19-C , 22-C ) :   1.0255
B( 22-C , 23-H ) :   0.9438 B( 22-C , 24-H ) :   0.9357 B( 22-C , 25-C ) :   1.0454
B( 25-C , 26-H ) :   0.9447 B( 25-C , 27-H ) :   0.9521 B( 25-C , 28-C ) :   1.0785
B( 28-C , 29-H ) :   0.9728 B( 28-C , 30-H ) :   0.9637 B( 28-C , 31-H ) :   0.9636

Dispersion correction           -0.014105014
FINAL SINGLE POINT ENERGY     -1339.864317359935

DIPOLE MOMENT
-------------
                                X             Y             Z
Electronic contribution:      4.65624      -1.40057      30.79702
Nuclear contribution   :     -4.88079       1.39479     -31.50943
                        -----------------------------------------
Total Dipole Moment    :     -0.22455      -0.00579      -0.71241
                        -----------------------------------------
Magnitude (a.u.)       :      0.74698
Magnitude (Debye)      :      1.89868

Rotational constants in cm-1:     0.016670     0.009396     0.006662
Rotational constants in MHz :   499.762685   281.672378   199.717233

                             ****ORCA TERMINATED NORMALLY****
TOTAL RUN TIME: 0 days 0 hours 0 minutes 28 seconds 672 msec
