                         Program Version 4.2.1 -  RELEASE  -
|  1> ! wB97X-D3 SP def2-SVP
|  2> %pal
|  3> nprocs 16
|  4> end
|  5>
|  6> * xyz 0 1
|  7> S 	 -4.93394 	 44.1659 	 45.3235
|  8> C 	 -3.3408 	 43.4534 	 44.9967
|  9> C 	 -2.47739 	 43.6776 	 46.0774
| 10> C 	 -3.22514 	 44.1073 	 47.2165
| 11> C 	 -4.49735 	 44.5782 	 46.9314
| 12> H 	 -2.80103 	 44.2345 	 48.2176
| 13> C 	 -1.03258 	 43.1929 	 46.089
| 14> H 	 -0.873199 	 42.4675 	 45.3199
| 15> H 	 -0.851682 	 42.6035 	 46.9674
| 16> C 	 0.0172203 	 44.3166 	 46.0142
| 17> H 	 -0.100447 	 44.9736 	 46.8538
| 18> H 	 0.951258 	 43.7745 	 46.1012
| 19> C 	 -0.115194 	 45.1337 	 44.6981
| 20> H 	 -0.324934 	 44.5381 	 43.8805
| 21> H 	 -0.94031 	 45.7582 	 44.7122
| 22> H 	 0.853063 	 45.6795 	 44.5208
| 23> S 	 -7.12687 	 45.1959 	 47.3157
| 24> C 	 -7.56741 	 46.1808 	 48.7253
| 25> C 	 -6.48858 	 46.4545 	 49.506
| 26> C 	 -5.25294 	 45.9353 	 48.9795
| 27> C 	 -5.41799 	 45.2568 	 47.7753
| 28> H 	 -6.65869 	 47.0778 	 50.3493
| 29> C 	 -3.97895 	 46.1815 	 49.8359
| 30> H 	 -3.96473 	 47.2516 	 49.8693
| 31> H 	 -3.06898 	 45.8698 	 49.3664
| 32> C 	 -3.9046 	 45.5863 	 51.2479
| 33> H 	 -4.10307 	 44.5153 	 51.3138
| 34> H 	 -4.63998 	 46.0348 	 51.8917
| 35> C 	 -2.4866 	 45.8306 	 51.905
| 36> H 	 -2.54273 	 45.6373 	 52.9657
| 37> H 	 -2.14429 	 46.8979 	 51.8716
| 38> H 	 -1.74863 	 45.1887 	 51.4208
| 39> H 	 -3.10117 	 43.2675 	 44.0209
| 40> H 	 -8.45267 	 46.7218 	 48.9612
| 41> *
| 42>
| 43>                          ****END OF INPUT****

CARTESIAN COORDINATES (ANGSTROEM)
---------------------------------
  S     -4.933940   44.165900   45.323500
  C     -3.340800   43.453400   44.996700
  C     -2.477390   43.677600   46.077400
  C     -3.225140   44.107300   47.216500
  C     -4.497350   44.578200   46.931400
  H     -2.801030   44.234500   48.217600
  C     -1.032580   43.192900   46.089000
  H     -0.873199   42.467500   45.319900
  H     -0.851682   42.603500   46.967400
  C      0.017220   44.316600   46.014200
  H     -0.100447   44.973600   46.853800
  H      0.951258   43.774500   46.101200
  C     -0.115194   45.133700   44.698100
  H     -0.324934   44.538100   43.880500
  H     -0.940310   45.758200   44.712200
  H      0.853063   45.679500   44.520800
  S     -7.126870   45.195900   47.315700
  C     -7.567410   46.180800   48.725300
  C     -6.488580   46.454500   49.506000
  C     -5.252940   45.935300   48.979500
  C     -5.417990   45.256800   47.775300
  H     -6.658690   47.077800   50.349300
  C     -3.978950   46.181500   49.835900
  H     -3.964730   47.251600   49.869300
  H     -3.068980   45.869800   49.366400
  C     -3.904600   45.586300   51.247900
  H     -4.103070   44.515300   51.313800
  H     -4.639980   46.034800   51.891700
  C     -2.486600   45.830600   51.905000
  H     -2.542730   45.637300   52.965700
  H     -2.144290   46.897900   51.871600
  H     -1.748630   45.188700   51.420800
  H     -3.101170   43.267500   44.020900
  H     -8.452670   46.721800   48.961200

 Total Charge           Charge          ....    0
 Multiplicity           Mult            ....    1
 Number of Electrons    NEL             ....  134
 Basis Dimension        Dim             ....  322

ORBITAL ENERGIES
----------------

  NO   OCC          E(Eh)            E(eV)
   0   2.0000     -88.966593     -2420.9041
   1   2.0000     -88.963289     -2420.8142
   2   2.0000     -10.329617      -281.0832
   3   2.0000     -10.327293      -281.0199
   4   2.0000     -10.314708      -280.6775
   5   2.0000     -10.310216      -280.5552
   6   2.0000     -10.309188      -280.5273
   7   2.0000     -10.305925      -280.4385
   8   2.0000     -10.294031      -280.1148
   9   2.0000     -10.293546      -280.1016
  10   2.0000     -10.291576      -280.0480
  11   2.0000     -10.290718      -280.0247
  12   2.0000     -10.288184      -279.9557
  13   2.0000     -10.286402      -279.9072
  14   2.0000     -10.285590      -279.8851
  15   2.0000     -10.268617      -279.4233
  16   2.0000      -8.080632      -219.8852
  17   2.0000      -8.078620      -219.8304
  18   2.0000      -6.039437      -164.3414
  19   2.0000      -6.037014      -164.2755
  20   2.0000      -6.035342      -164.2300
  21   2.0000      -6.033038      -164.1673
  22   2.0000      -6.031011      -164.1122
  23   2.0000      -6.029478      -164.0704
  24   2.0000      -1.009351       -27.4658
  25   2.0000      -0.981725       -26.7141
  26   2.0000      -0.914102       -24.8740
  27   2.0000      -0.905863       -24.6498
  28   2.0000      -0.873983       -23.7823
  29   2.0000      -0.850905       -23.1543
  30   2.0000      -0.840812       -22.8796
  31   2.0000      -0.816337       -22.2137
  32   2.0000      -0.787870       -21.4390
  33   2.0000      -0.776482       -21.1291
  34   2.0000      -0.716031       -19.4842
  35   2.0000      -0.703022       -19.1302
  36   2.0000      -0.700184       -19.0530
  37   2.0000      -0.662755       -18.0345
  38   2.0000      -0.643567       -17.5124
  39   2.0000      -0.624670       -16.9981
  40   2.0000      -0.595977       -16.2174
  41   2.0000      -0.573106       -15.5950
  42   2.0000      -0.566725       -15.4214
  43   2.0000      -0.545142       -14.8341
  44   2.0000      -0.544659       -14.8209
  45   2.0000      -0.524602       -14.2751
  46   2.0000      -0.519876       -14.1465
  47   2.0000      -0.513192       -13.9647
  48   2.0000      -0.506722       -13.7886
  49   2.0000      -0.501373       -13.6431
  50   2.0000      -0.492218       -13.3939
  51   2.0000      -0.484054       -13.1718
  52   2.0000      -0.469902       -12.7867
  53   2.0000      -0.465729       -12.6731
  54   2.0000      -0.460027       -12.5180
  55   2.0000      -0.454254       -12.3609
  56   2.0000      -0.446592       -12.1524
  57   2.0000      -0.439254       -11.9527
  58   2.0000      -0.435929       -11.8622
  59   2.0000      -0.424995       -11.5647
  60   2.0000      -0.423436       -11.5223
  61   2.0000      -0.418616       -11.3911
  62   2.0000      -0.410460       -11.1692
  63   2.0000      -0.362049        -9.8518
  64   2.0000      -0.335608        -9.1324
  65   2.0000      -0.327682        -8.9167
  66   2.0000      -0.281881        -7.6704
  67   0.0000       0.015932         0.4335
  68   0.0000       0.083783         2.2798
  69   0.0000       0.094465         2.5705
  70   0.0000       0.114130         3.1056
  71   0.0000       0.131166         3.5692

MULLIKEN ATOMIC CHARGES
-----------------------
   0 S :    0.085532
   1 C :   -0.081851
   2 C :   -0.094891
   3 C :   -0.001788
   4 C :   -0.113146
   5 H :    0.009919
   6 C :    0.050321
   7 H :    0.015680
   8 H :    0.021033
   9 C :   -0.054743
  10 H :    0.025883
  11 H :    0.028348
  12 C :   -0.015285
  13 H :    0.000226
  14 H :    0.027411
  15 H :    0.044281
  16 S :    0.091303
  17 C :   -0.058982
  18 C :   -0.045027
  19 C :   -0.044416
  20 C :   -0.107574
  21 H :    0.010929
  22 C :    0.083354
  23 H :    0.027734
  24 H :   -0.001238
  25 C :   -0.065450
  26 H :    0.038454
  27 H :    0.020706
  28 C :   -0.079790
  29 H :    0.035656
  30 H :    0.036396
  31 H :    0.040995
  32 H :    0.026189
  33 H :    0.043828
Sum of atomic charges:   -0.0000000

LOEWDIN ATOMIC CHARGES
----------------------
   0 S :    0.404115
   1 C :   -0.177532
   2 C :   -0.051153
   3 C :   -0.070760
   4 C :   -0.194863
   5 H :    0.028628
   6 C :   -0.029631
   7 H :    0.026260
   8 H :    0.029361
   9 C :   -0.030009
  10 H :    0.019993
  11 H :    0.023760
  12 C :   -0.056972
  13 H :    0.012470
  14 H :    0.019760
  15 H :    0.035540
  16 S :    0.378543
  17 C :   -0.172339
  18 C :   -0.065927
  19 C :   -0.050042
  20 C :   -0.188009
  21 H :    0.028542
  22 C :   -0.027813
  23 H :    0.033239
  24 H :    0.018684
  25 C :   -0.035111
  26 H :    0.027932
  27 H :    0.017669
  28 C :   -0.067704
  29 H :    0.025928
  30 H :    0.029195
  31 H :    0.024000
  32 H :    0.004918
  33 H :    0.029332

  Mayer bond orders larger than 0.100000
B(  0-S ,  1-C ) :   1.1356 B(  0-S ,  4-C ) :   1.1589 B(  1-C ,  2-C ) :   1.5826
B(  1-C ,  4-C ) :   0.1033 B(  1-C , 32-H ) :   0.9778 B(  2-C ,  3-C ) :   1.2528
B(  2-C ,  6-C ) :   1.0236 B(  3-C ,  4-C ) :   1.5524 B(  3-C ,  5-H ) :   0.9804
B(  4-C , 20-C ) :   1.1072 B(  6-C ,  7-H ) :   0.9474 B(  6-C ,  8-H ) :   0.9428
B(  6-C ,  9-C ) :   1.0728 B(  9-C , 10-H ) :   0.9596 B(  9-C , 11-H ) :   0.9582
B(  9-C , 12-C ) :   1.0682 B( 12-C , 13-H ) :   0.9755 B( 12-C , 14-H ) :   0.9717
B( 12-C , 15-H ) :   0.9756 B( 16-S , 17-C ) :   1.1224 B( 16-S , 20-C ) :   1.1091
B( 17-C , 18-C ) :   1.6702 B( 17-C , 33-H ) :   0.9627 B( 18-C , 19-C ) :   1.2055
B( 18-C , 21-H ) :   0.9912 B( 19-C , 20-C ) :   1.6187 B( 19-C , 22-C ) :   1.0247
B( 22-C , 23-H ) :   0.9272 B( 22-C , 24-H ) :   0.9439 B( 22-C , 25-C ) :   1.0626
B( 25-C , 26-H ) :   0.9578 B( 25-C , 27-H ) :   0.9526 B( 25-C , 28-C ) :   1.0800
B( 28-C , 29-H ) :   0.9753 B( 28-C , 30-H ) :   0.9762 B( 28-C , 31-H ) :   0.9772

Dispersion correction           -0.014017150
FINAL SINGLE POINT ENERGY     -1339.869764711263

DIPOLE MOMENT
-------------
                                X             Y             Z
Electronic contribution:    -27.18663      -3.40921     -12.44297
Nuclear contribution   :     27.76301       3.65499      12.96183
                        -----------------------------------------
Total Dipole Moment    :      0.57638       0.24578       0.51886
                        -----------------------------------------
Magnitude (a.u.)       :      0.81354
Magnitude (Debye)      :      2.06785

Rotational constants in cm-1:     0.016782     0.009510     0.006484
Rotational constants in MHz :   503.117747   285.114815   194.382456

                             ****ORCA TERMINATED NORMALLY****
TOTAL RUN TIME: 0 days 0 hours 0 minutes 33 seconds 535 msec
