                         Program Version 4.2.1 -  RELEASE  -
|  1> ! wB97X-D3 SP def2-SVP
|  2> %pal
|  3> nprocs 16
|  4> end
|  5>
|  6> * xyz 0 1
|  7> S 	 -44.4671 	 37.4271 	 80.1278
|  8> C 	 -43.099 	 38.1908 	 79.2742
|  9> C 	 -42.0213 	 37.3023 	 79.1819
| 10> C 	 -42.3018 	 35.986 	 79.7745
| 11> C 	 -43.5504 	 35.9046 	 80.3122
| 12> H 	 -41.6717 	 35.0838 	 79.8157
| 13> C 	 -40.6747 	 37.6355 	 78.6301
| 14> H 	 -40.6818 	 38.674 	 78.1984
| 15> H 	 -40.4066 	 36.8723 	 77.9367
| 16> C 	 -39.5583 	 37.6926 	 79.7152
| 17> H 	 -39.785 	 38.3996 	 80.5448
| 18> H 	 -39.5428 	 36.6798 	 80.1194
| 19> C 	 -38.1504 	 37.9325 	 78.9972
| 20> H 	 -37.3602 	 38.0722 	 79.8008
| 21> H 	 -37.8074 	 37.1934 	 78.234
| 22> H 	 -38.2712 	 38.8715 	 78.4225
| 23> S 	 -45.6434 	 34.0731 	 79.9309
| 24> C 	 -45.8059 	 32.7709 	 81.0202
| 25> C 	 -44.874 	 32.8739 	 82.0524
| 26> C 	 -43.9399 	 33.9303 	 81.8874
| 27> C 	 -44.2879 	 34.7419 	 80.8163
| 28> H 	 -44.79 	 32.0969 	 82.8408
| 29> C 	 -42.8197 	 34.1312 	 82.8313
| 30> H 	 -43.1571 	 33.9791 	 83.8443
| 31> H 	 -42.6479 	 35.2525 	 82.874
| 32> C 	 -41.465 	 33.5047 	 82.5343
| 33> H 	 -41.3071 	 33.5185 	 81.4809
| 34> H 	 -41.7034 	 32.4258 	 82.7192
| 35> C 	 -40.2659 	 34.0046 	 83.3991
| 36> H 	 -40.358 	 33.8826 	 84.4494
| 37> H 	 -40.1531 	 35.0618 	 83.1159
| 38> H 	 -39.3822 	 33.393 	 83.1563
| 39> H 	 -43.0929 	 39.1361 	 78.8188
| 40> H 	 -46.4778 	 32.0055 	 80.7513
| 41> *
| 42>
| 43>                          ****END OF INPUT****

CARTESIAN COORDINATES (ANGSTROEM)
---------------------------------
  S    -44.467100   37.427100   80.127800
  C    -43.099000   38.190800   79.274200
  C    -42.021300   37.302300   79.181900
  C    -42.301800   35.986000   79.774500
  C    -43.550400   35.904600   80.312200
  H    -41.671700   35.083800   79.815700
  C    -40.674700   37.635500   78.630100
  H    -40.681800   38.674000   78.198400
  H    -40.406600   36.872300   77.936700
  C    -39.558300   37.692600   79.715200
  H    -39.785000   38.399600   80.544800
  H    -39.542800   36.679800   80.119400
  C    -38.150400   37.932500   78.997200
  H    -37.360200   38.072200   79.800800
  H    -37.807400   37.193400   78.234000
  H    -38.271200   38.871500   78.422500
  S    -45.643400   34.073100   79.930900
  C    -45.805900   32.770900   81.020200
  C    -44.874000   32.873900   82.052400
  C    -43.939900   33.930300   81.887400
  C    -44.287900   34.741900   80.816300
  H    -44.790000   32.096900   82.840800
  C    -42.819700   34.131200   82.831300
  H    -43.157100   33.979100   83.844300
  H    -42.647900   35.252500   82.874000
  C    -41.465000   33.504700   82.534300
  H    -41.307100   33.518500   81.480900
  H    -41.703400   32.425800   82.719200
  C    -40.265900   34.004600   83.399100
  H    -40.358000   33.882600   84.449400
  H    -40.153100   35.061800   83.115900
  H    -39.382200   33.393000   83.156300
  H    -43.092900   39.136100   78.818800
  H    -46.477800   32.005500   80.751300

 Total Charge           Charge          ....    0
 Multiplicity           Mult            ....    1
 Number of Electrons    NEL             ....  134
 Basis Dimension        Dim             ....  322

ORBITAL ENERGIES
----------------

  NO   OCC          E(Eh)            E(eV)
   0   2.0000     -88.966553     -2420.9030
   1   2.0000     -88.962798     -2420.8008
   2   2.0000     -10.330734      -281.1136
   3   2.0000     -10.324527      -280.9447
   4   2.0000     -10.315375      -280.6956
   5   2.0000     -10.314973      -280.6847
   6   2.0000     -10.306271      -280.4479
   7   2.0000     -10.300814      -280.2994
   8   2.0000     -10.299882      -280.2740
   9   2.0000     -10.296787      -280.1898
  10   2.0000     -10.295370      -280.1513
  11   2.0000     -10.292988      -280.0864
  12   2.0000     -10.292651      -280.0773
  13   2.0000     -10.289491      -279.9913
  14   2.0000     -10.287780      -279.9447
  15   2.0000     -10.284182      -279.8468
  16   2.0000      -8.082135      -219.9261
  17   2.0000      -8.076558      -219.7743
  18   2.0000      -6.040435      -164.3686
  19   2.0000      -6.036360      -164.2577
  20   2.0000      -6.035267      -164.2280
  21   2.0000      -6.033225      -164.1724
  22   2.0000      -6.031218      -164.1178
  23   2.0000      -6.027152      -164.0071
  24   2.0000      -1.006867       -27.3982
  25   2.0000      -0.979238       -26.6464
  26   2.0000      -0.912718       -24.8363
  27   2.0000      -0.907652       -24.6985
  28   2.0000      -0.865025       -23.5385
  29   2.0000      -0.853963       -23.2375
  30   2.0000      -0.838392       -22.8138
  31   2.0000      -0.812929       -22.1209
  32   2.0000      -0.784703       -21.3529
  33   2.0000      -0.766896       -20.8683
  34   2.0000      -0.708744       -19.2859
  35   2.0000      -0.700245       -19.0546
  36   2.0000      -0.694665       -18.9028
  37   2.0000      -0.662031       -18.0148
  38   2.0000      -0.644961       -17.5503
  39   2.0000      -0.615494       -16.7484
  40   2.0000      -0.602511       -16.3952
  41   2.0000      -0.569492       -15.4967
  42   2.0000      -0.563409       -15.3311
  43   2.0000      -0.555668       -15.1205
  44   2.0000      -0.525449       -14.2982
  45   2.0000      -0.523400       -14.2424
  46   2.0000      -0.516158       -14.0454
  47   2.0000      -0.512826       -13.9547
  48   2.0000      -0.508024       -13.8240
  49   2.0000      -0.501117       -13.6361
  50   2.0000      -0.493133       -13.4188
  51   2.0000      -0.475030       -12.9262
  52   2.0000      -0.466193       -12.6858
  53   2.0000      -0.462904       -12.5962
  54   2.0000      -0.459128       -12.4935
  55   2.0000      -0.453069       -12.3286
  56   2.0000      -0.448017       -12.1912
  57   2.0000      -0.440927       -11.9982
  58   2.0000      -0.436012       -11.8645
  59   2.0000      -0.428679       -11.6649
  60   2.0000      -0.418393       -11.3851
  61   2.0000      -0.414804       -11.2874
  62   2.0000      -0.402079       -10.9411
  63   2.0000      -0.342994        -9.3333
  64   2.0000      -0.332504        -9.0479
  65   2.0000      -0.322971        -8.7885
  66   2.0000      -0.299296        -8.1443
  67   0.0000       0.035918         0.9774
  68   0.0000       0.062888         1.7113
  69   0.0000       0.115829         3.1519
  70   0.0000       0.122275         3.3273
  71   0.0000       0.124117         3.3774

MULLIKEN ATOMIC CHARGES
-----------------------
   0 S :    0.089895
   1 C :   -0.090682
   2 C :   -0.091637
   3 C :    0.037969
   4 C :   -0.172744
   5 H :    0.022491
   6 C :    0.057926
   7 H :    0.025897
   8 H :    0.028106
   9 C :   -0.100653
  10 H :    0.049772
  11 H :    0.027796
  12 C :   -0.085134
  13 H :    0.052167
  14 H :    0.046660
  15 H :    0.030845
  16 S :    0.126765
  17 C :   -0.095383
  18 C :   -0.024558
  19 C :   -0.025744
  20 C :   -0.156120
  21 H :    0.028256
  22 C :    0.032009
  23 H :    0.018913
  24 H :    0.023264
  25 C :   -0.058917
  26 H :    0.014169
  27 H :    0.017962
  28 C :   -0.029221
  29 H :    0.031678
  30 H :    0.045996
  31 H :    0.039390
  32 H :    0.030780
  33 H :    0.052089
Sum of atomic charges:   -0.0000000

LOEWDIN ATOMIC CHARGES
----------------------
   0 S :    0.369271
   1 C :   -0.182043
   2 C :   -0.057224
   3 C :   -0.064921
   4 C :   -0.173748
   5 H :    0.035808
   6 C :   -0.035147
   7 H :    0.032348
   8 H :    0.028743
   9 C :   -0.038151
  10 H :    0.031237
  11 H :    0.018409
  12 C :   -0.078168
  13 H :    0.033468
  14 H :    0.030441
  15 H :    0.024075
  16 S :    0.434849
  17 C :   -0.190462
  18 C :   -0.073773
  19 C :   -0.055411
  20 C :   -0.211803
  21 H :    0.034914
  22 C :   -0.043786
  23 H :    0.028340
  24 H :    0.034380
  25 C :   -0.040282
  26 H :    0.016028
  27 H :    0.024882
  28 C :   -0.059388
  29 H :    0.022447
  30 H :    0.031260
  31 H :    0.032946
  32 H :    0.019680
  33 H :    0.020782

  Mayer bond orders larger than 0.100000
B(  0-S ,  1-C ) :   1.1110 B(  0-S ,  4-C ) :   1.1306 B(  1-C ,  2-C ) :   1.6514
B(  1-C , 32-H ) :   0.9726 B(  2-C ,  3-C ) :   1.1710 B(  2-C ,  6-C ) :   1.0470
B(  3-C ,  4-C ) :   1.6477 B(  3-C ,  5-H ) :   0.9816 B(  4-C , 20-C ) :   1.0063
B(  6-C ,  7-H ) :   0.9430 B(  6-C ,  8-H ) :   0.9346 B(  6-C ,  9-C ) :   1.0567
B(  9-C , 10-H ) :   0.9593 B(  9-C , 11-H ) :   0.9565 B(  9-C , 12-C ) :   1.0622
B( 12-C , 13-H ) :   0.9759 B( 12-C , 14-H ) :   0.9762 B( 12-C , 15-H ) :   0.9762
B( 16-S , 17-C ) :   1.1895 B( 16-S , 20-C ) :   1.1594 B( 17-C , 18-C ) :   1.5442
B( 17-C , 20-C ) :   0.1010 B( 17-C , 33-H ) :   0.9789 B( 18-C , 19-C ) :   1.2804
B( 18-C , 21-H ) :   0.9863 B( 19-C , 20-C ) :   1.5653 B( 19-C , 22-C ) :   1.0550
B( 22-C , 23-H ) :   0.9366 B( 22-C , 24-H ) :   0.9247 B( 22-C , 25-C ) :   1.0495
B( 25-C , 26-H ) :   0.9562 B( 25-C , 27-H ) :   0.9484 B( 25-C , 28-C ) :   1.0714
B( 28-C , 29-H ) :   0.9764 B( 28-C , 30-H ) :   0.9749 B( 28-C , 31-H ) :   0.9737

Dispersion correction           -0.014510764
FINAL SINGLE POINT ENERGY     -1339.882073427854

DIPOLE MOMENT
-------------
                                X             Y             Z
Electronic contribution:    -31.73271      -0.90614      -6.27080
Nuclear contribution   :     32.37734       0.62052       6.36037
                        -----------------------------------------
Total Dipole Moment    :      0.64463      -0.28561       0.08957
                        -----------------------------------------
Magnitude (a.u.)       :      0.71074
Magnitude (Debye)      :      1.80655

Rotational constants in cm-1:     0.017830     0.009186     0.006665
Rotational constants in MHz :   534.528409   275.402185   199.818983

                             ****ORCA TERMINATED NORMALLY****
TOTAL RUN TIME: 0 days 0 hours 0 minutes 28 seconds 771 msec
