                         Program Version 4.2.1 -  RELEASE  -
|  1> ! wB97X-D3 SP def2-SVP
|  2> %pal
|  3> nprocs 16
|  4> end
|  5>
|  6> * xyz 0 1
|  7> S 	 51.2552 	 5.94912 	 94.1907
|  8> C 	 52.4634 	 7.20197 	 94.312
|  9> C 	 51.8777 	 8.39683 	 94.859
| 10> C 	 50.4792 	 8.21409 	 95.134
| 11> C 	 49.9879 	 6.9645 	 94.8829
| 12> H 	 49.8382 	 8.9401 	 95.6528
| 13> C 	 52.5672 	 9.72672 	 95.2244
| 14> H 	 53.3847 	 9.54338 	 95.9645
| 15> H 	 51.8681 	 10.3293 	 95.7123
| 16> C 	 53.1562 	 10.4648 	 94.0145
| 17> H 	 53.8159 	 9.72284 	 93.5631
| 18> H 	 52.324 	 10.7331 	 93.3375
| 19> C 	 53.9078 	 11.7387 	 94.3627
| 20> H 	 54.8495 	 11.4825 	 94.7405
| 21> H 	 54.0648 	 12.3231 	 93.3796
| 22> H 	 53.3823 	 12.3686 	 95.1767
| 23> S 	 47.9605 	 5.82681 	 93.5304
| 24> C 	 46.4754 	 5.47699 	 94.4244
| 25> C 	 46.6562 	 5.67003 	 95.8021
| 26> C 	 47.888 	 6.2864 	 96.0786
| 27> C 	 48.6398 	 6.45754 	 94.9987
| 28> H 	 45.9311 	 5.36352 	 96.5006
| 29> C 	 48.2562 	 6.74319 	 97.4576
| 30> H 	 47.9531 	 7.76361 	 97.4333
| 31> H 	 49.334 	 6.66588 	 97.6059
| 32> C 	 47.5048 	 5.96729 	 98.6531
| 33> H 	 46.4335 	 6.17872 	 98.7825
| 34> H 	 47.7942 	 6.40782 	 99.617
| 35> C 	 47.8173 	 4.49018 	 98.7204
| 36> H 	 47.205 	 3.93511 	 98.0727
| 37> H 	 47.6886 	 4.08263 	 99.7359
| 38> H 	 48.8451 	 4.25364 	 98.5945
| 39> H 	 53.5166 	 7.07369 	 94.1892
| 40> H 	 45.4967 	 5.22625 	 94.0065
| 41> *
| 42>
| 43>                          ****END OF INPUT****

CARTESIAN COORDINATES (ANGSTROEM)
---------------------------------
  S     51.255200    5.949120   94.190700
  C     52.463400    7.201970   94.312000
  C     51.877700    8.396830   94.859000
  C     50.479200    8.214090   95.134000
  C     49.987900    6.964500   94.882900
  H     49.838200    8.940100   95.652800
  C     52.567200    9.726720   95.224400
  H     53.384700    9.543380   95.964500
  H     51.868100   10.329300   95.712300
  C     53.156200   10.464800   94.014500
  H     53.815900    9.722840   93.563100
  H     52.324000   10.733100   93.337500
  C     53.907800   11.738700   94.362700
  H     54.849500   11.482500   94.740500
  H     54.064800   12.323100   93.379600
  H     53.382300   12.368600   95.176700
  S     47.960500    5.826810   93.530400
  C     46.475400    5.476990   94.424400
  C     46.656200    5.670030   95.802100
  C     47.888000    6.286400   96.078600
  C     48.639800    6.457540   94.998700
  H     45.931100    5.363520   96.500600
  C     48.256200    6.743190   97.457600
  H     47.953100    7.763610   97.433300
  H     49.334000    6.665880   97.605900
  C     47.504800    5.967290   98.653100
  H     46.433500    6.178720   98.782500
  H     47.794200    6.407820   99.617000
  C     47.817300    4.490180   98.720400
  H     47.205000    3.935110   98.072700
  H     47.688600    4.082630   99.735900
  H     48.845100    4.253640   98.594500
  H     53.516600    7.073690   94.189200
  H     45.496700    5.226250   94.006500

 Total Charge           Charge          ....    0
 Multiplicity           Mult            ....    1
 Number of Electrons    NEL             ....  134
 Basis Dimension        Dim             ....  322

ORBITAL ENERGIES
----------------

  NO   OCC          E(Eh)            E(eV)
   0   2.0000     -88.966032     -2420.8888
   1   2.0000     -88.965159     -2420.8650
   2   2.0000     -10.324848      -280.9534
   3   2.0000     -10.319550      -280.8092
   4   2.0000     -10.317448      -280.7520
   5   2.0000     -10.313818      -280.6533
   6   2.0000     -10.307527      -280.4821
   7   2.0000     -10.293610      -280.1034
   8   2.0000     -10.292936      -280.0850
   9   2.0000     -10.292732      -280.0795
  10   2.0000     -10.292053      -280.0610
  11   2.0000     -10.290609      -280.0217
  12   2.0000     -10.289588      -279.9939
  13   2.0000     -10.285759      -279.8897
  14   2.0000     -10.285084      -279.8714
  15   2.0000     -10.269958      -279.4598
  16   2.0000      -8.080351      -219.8775
  17   2.0000      -8.079963      -219.8670
  18   2.0000      -6.038904      -164.3269
  19   2.0000      -6.038486      -164.3156
  20   2.0000      -6.034733      -164.2134
  21   2.0000      -6.034585      -164.2094
  22   2.0000      -6.031283      -164.1196
  23   2.0000      -6.030573      -164.1002
  24   2.0000      -1.010977       -27.5101
  25   2.0000      -0.980990       -26.6941
  26   2.0000      -0.910117       -24.7655
  27   2.0000      -0.905625       -24.6433
  28   2.0000      -0.868132       -23.6231
  29   2.0000      -0.855568       -23.2812
  30   2.0000      -0.845700       -23.0127
  31   2.0000      -0.813178       -22.1277
  32   2.0000      -0.783789       -21.3280
  33   2.0000      -0.769266       -20.9328
  34   2.0000      -0.708606       -19.2821
  35   2.0000      -0.700064       -19.0497
  36   2.0000      -0.690900       -18.8003
  37   2.0000      -0.667411       -18.1612
  38   2.0000      -0.643673       -17.5152
  39   2.0000      -0.613430       -16.6923
  40   2.0000      -0.592280       -16.1168
  41   2.0000      -0.573147       -15.5961
  42   2.0000      -0.561855       -15.2889
  43   2.0000      -0.557663       -15.1748
  44   2.0000      -0.537243       -14.6191
  45   2.0000      -0.530345       -14.4314
  46   2.0000      -0.515139       -14.0176
  47   2.0000      -0.513666       -13.9776
  48   2.0000      -0.502925       -13.6853
  49   2.0000      -0.496857       -13.5202
  50   2.0000      -0.488239       -13.2856
  51   2.0000      -0.477294       -12.9878
  52   2.0000      -0.468761       -12.7556
  53   2.0000      -0.466238       -12.6870
  54   2.0000      -0.459841       -12.5129
  55   2.0000      -0.450360       -12.2549
  56   2.0000      -0.444244       -12.0885
  57   2.0000      -0.441626       -12.0173
  58   2.0000      -0.427107       -11.6222
  59   2.0000      -0.422094       -11.4858
  60   2.0000      -0.420246       -11.4355
  61   2.0000      -0.417948       -11.3729
  62   2.0000      -0.413801       -11.2601
  63   2.0000      -0.344691        -9.3795
  64   2.0000      -0.332184        -9.0392
  65   2.0000      -0.327145        -8.9021
  66   2.0000      -0.290285        -7.8991
  67   0.0000       0.037877         1.0307
  68   0.0000       0.057087         1.5534
  69   0.0000       0.111576         3.0361
  70   0.0000       0.125493         3.4148
  71   0.0000       0.134215         3.6522

MULLIKEN ATOMIC CHARGES
-----------------------
   0 S :    0.114411
   1 C :   -0.115786
   2 C :   -0.104315
   3 C :    0.027516
   4 C :   -0.178808
   5 H :    0.018392
   6 C :    0.080821
   7 H :    0.034839
   8 H :   -0.003483
   9 C :   -0.091616
  10 H :    0.029251
  11 H :    0.038720
  12 C :   -0.057162
  13 H :    0.019455
  14 H :    0.052231
  15 H :    0.043971
  16 S :    0.118473
  17 C :   -0.092999
  18 C :   -0.033308
  19 C :   -0.022439
  20 C :   -0.175680
  21 H :    0.005108
  22 C :    0.102494
  23 H :    0.037189
  24 H :    0.045442
  25 C :   -0.103497
  26 H :    0.026397
  27 H :    0.018288
  28 C :   -0.011248
  29 H :    0.025518
  30 H :    0.022970
  31 H :    0.023497
  32 H :    0.047364
  33 H :    0.057992
Sum of atomic charges:    0.0000000

LOEWDIN ATOMIC CHARGES
----------------------
   0 S :    0.406234
   1 C :   -0.205531
   2 C :   -0.054465
   3 C :   -0.071385
   4 C :   -0.190558
   5 H :    0.034280
   6 C :   -0.029732
   7 H :    0.034301
   8 H :    0.015925
   9 C :   -0.043592
  10 H :    0.023502
  11 H :    0.027930
  12 C :   -0.072418
  13 H :    0.013378
  14 H :    0.039600
  15 H :    0.034045
  16 S :    0.405968
  17 C :   -0.177804
  18 C :   -0.061106
  19 C :   -0.061317
  20 C :   -0.208515
  21 H :    0.024380
  22 C :   -0.019178
  23 H :    0.033307
  24 H :    0.034978
  25 C :   -0.049474
  26 H :    0.024725
  27 H :    0.026947
  28 C :   -0.062982
  29 H :    0.016832
  30 H :    0.031628
  31 H :    0.025126
  32 H :    0.023850
  33 H :    0.031124

  Mayer bond orders larger than 0.100000
B(  0-S ,  1-C ) :   1.1488 B(  0-S ,  4-C ) :   1.1524 B(  1-C ,  2-C ) :   1.5737
B(  1-C ,  4-C ) :   0.1069 B(  1-C , 32-H ) :   0.9729 B(  2-C ,  3-C ) :   1.2636
B(  2-C ,  6-C ) :   1.0216 B(  3-C ,  4-C ) :   1.5866 B(  3-C ,  5-H ) :   0.9859
B(  4-C , 20-C ) :   1.0172 B(  6-C ,  7-H ) :   0.9408 B(  6-C ,  8-H ) :   0.9374
B(  6-C ,  9-C ) :   1.0622 B(  9-C , 10-H ) :   0.9587 B(  9-C , 11-H ) :   0.9584
B(  9-C , 12-C ) :   1.0790 B( 12-C , 13-H ) :   0.9735 B( 12-C , 14-H ) :   0.9737
B( 12-C , 15-H ) :   0.9725 B( 16-S , 17-C ) :   1.1519 B( 16-S , 20-C ) :   1.1292
B( 17-C , 18-C ) :   1.6038 B( 17-C , 20-C ) :   0.1001 B( 17-C , 33-H ) :   0.9646
B( 18-C , 19-C ) :   1.2369 B( 18-C , 21-H ) :   0.9935 B( 19-C , 20-C ) :   1.6476
B( 19-C , 22-C ) :   1.0221 B( 22-C , 23-H ) :   0.9292 B( 22-C , 24-H ) :   0.9324
B( 22-C , 25-C ) :   1.0746 B( 25-C , 26-H ) :   0.9497 B( 25-C , 27-H ) :   0.9539
B( 25-C , 28-C ) :   1.0777 B( 28-C , 29-H ) :   0.9760 B( 28-C , 30-H ) :   0.9702
B( 28-C , 31-H ) :   0.9720

Dispersion correction           -0.013926733
FINAL SINGLE POINT ENERGY     -1339.869197196610

DIPOLE MOMENT
-------------
                                X             Y             Z
Electronic contribution:     -6.86646     -14.10276     -16.33723
Nuclear contribution   :      6.83030      14.44493      16.97853
                        -----------------------------------------
Total Dipole Moment    :     -0.03616       0.34217       0.64130
                        -----------------------------------------
Magnitude (a.u.)       :      0.72777
Magnitude (Debye)      :      1.84985

Rotational constants in cm-1:     0.022833     0.006993     0.006197
Rotational constants in MHz :   684.517044   209.640933   185.784003

                             ****ORCA TERMINATED NORMALLY****
TOTAL RUN TIME: 0 days 0 hours 0 minutes 29 seconds 193 msec
