                         Program Version 4.2.1 -  RELEASE  -
|  1> ! wB97X-D3 SP def2-SVP
|  2> %pal
|  3> nprocs 16
|  4> end
|  5>
|  6> * xyz 0 1
|  7> S 	 57.5659 	 -5.34134 	 88.2918
|  8> C 	 55.8924 	 -5.85048 	 88.1136
|  9> C 	 55.0892 	 -4.83452 	 87.71
| 10> C 	 55.8137 	 -3.61278 	 87.5131
| 11> C 	 57.1222 	 -3.76361 	 87.7541
| 12> H 	 55.3762 	 -2.67598 	 87.083
| 13> C 	 53.5957 	 -4.96841 	 87.3093
| 14> H 	 53.72 	 -5.49122 	 86.344
| 15> H 	 53.1043 	 -4.01628 	 87.0871
| 16> C 	 52.7399 	 -5.63805 	 88.4134
| 17> H 	 53.1163 	 -6.60154 	 88.6467
| 18> H 	 52.8272 	 -5.1821 	 89.3639
| 19> C 	 51.2313 	 -5.82834 	 88.1535
| 20> H 	 51.0395 	 -6.62478 	 87.4483
| 21> H 	 50.6172 	 -6.32124 	 88.9002
| 22> H 	 50.7309 	 -4.85325 	 87.8765
| 23> S 	 59.4111 	 -2.92828 	 86.2961
| 24> C 	 59.8694 	 -1.21548 	 86.4608
| 25> C 	 59.0036 	 -0.496491 	 87.3055
| 26> C 	 58.0135 	 -1.34478 	 87.9392
| 27> C 	 58.1098 	 -2.71111 	 87.6412
| 28> H 	 59.1012 	 0.591447 	 87.4359
| 29> C 	 57.0149 	 -0.786193 	 88.8655
| 30> H 	 56.0797 	 -0.900965 	 88.4815
| 31> H 	 57.1355 	 0.309091 	 88.7911
| 32> C 	 57.003 	 -1.35235 	 90.3115
| 33> H 	 57.9403 	 -1.10543 	 90.8615
| 34> H 	 57.1007 	 -2.53614 	 90.3008
| 35> C 	 55.9206 	 -0.832654 	 91.2008
| 36> H 	 55.88 	 -1.5317 	 92.0875
| 37> H 	 54.9826 	 -1.00478 	 90.7702
| 38> H 	 56.1204 	 0.101647 	 91.5812
| 39> H 	 55.72 	 -6.92624 	 88.1755
| 40> H 	 60.7489 	 -0.659279 	 85.9237
| 41> *
| 42>
| 43>                          ****END OF INPUT****

CARTESIAN COORDINATES (ANGSTROEM)
---------------------------------
  S     57.565900   -5.341340   88.291800
  C     55.892400   -5.850480   88.113600
  C     55.089200   -4.834520   87.710000
  C     55.813700   -3.612780   87.513100
  C     57.122200   -3.763610   87.754100
  H     55.376200   -2.675980   87.083000
  C     53.595700   -4.968410   87.309300
  H     53.720000   -5.491220   86.344000
  H     53.104300   -4.016280   87.087100
  C     52.739900   -5.638050   88.413400
  H     53.116300   -6.601540   88.646700
  H     52.827200   -5.182100   89.363900
  C     51.231300   -5.828340   88.153500
  H     51.039500   -6.624780   87.448300
  H     50.617200   -6.321240   88.900200
  H     50.730900   -4.853250   87.876500
  S     59.411100   -2.928280   86.296100
  C     59.869400   -1.215480   86.460800
  C     59.003600   -0.496491   87.305500
  C     58.013500   -1.344780   87.939200
  C     58.109800   -2.711110   87.641200
  H     59.101200    0.591447   87.435900
  C     57.014900   -0.786193   88.865500
  H     56.079700   -0.900965   88.481500
  H     57.135500    0.309091   88.791100
  C     57.003000   -1.352350   90.311500
  H     57.940300   -1.105430   90.861500
  H     57.100700   -2.536140   90.300800
  C     55.920600   -0.832654   91.200800
  H     55.880000   -1.531700   92.087500
  H     54.982600   -1.004780   90.770200
  H     56.120400    0.101647   91.581200
  H     55.720000   -6.926240   88.175500
  H     60.748900   -0.659279   85.923700

 Total Charge           Charge          ....    0
 Multiplicity           Mult            ....    1
 Number of Electrons    NEL             ....  134
 Basis Dimension        Dim             ....  322

ORBITAL ENERGIES
----------------

  NO   OCC          E(Eh)            E(eV)
   0   2.0000     -88.964195     -2420.8388
   1   2.0000     -88.963671     -2420.8246
   2   2.0000     -10.332521      -281.1622
   3   2.0000     -10.330049      -281.0949
   4   2.0000     -10.323062      -280.9048
   5   2.0000     -10.313024      -280.6316
   6   2.0000     -10.306916      -280.4654
   7   2.0000     -10.304156      -280.3903
   8   2.0000     -10.301272      -280.3119
   9   2.0000     -10.300356      -280.2869
  10   2.0000     -10.294056      -280.1155
  11   2.0000     -10.291591      -280.0484
  12   2.0000     -10.284065      -279.8436
  13   2.0000     -10.282993      -279.8145
  14   2.0000     -10.281101      -279.7630
  15   2.0000     -10.267683      -279.3979
  16   2.0000      -8.079202      -219.8463
  17   2.0000      -8.076614      -219.7758
  18   2.0000      -6.037636      -164.2924
  19   2.0000      -6.035351      -164.2302
  20   2.0000      -6.033696      -164.1852
  21   2.0000      -6.031533      -164.1264
  22   2.0000      -6.029903      -164.0820
  23   2.0000      -6.027165      -164.0075
  24   2.0000      -1.008455       -27.4415
  25   2.0000      -0.971615       -26.4390
  26   2.0000      -0.907956       -24.7067
  27   2.0000      -0.907004       -24.6808
  28   2.0000      -0.867186       -23.5973
  29   2.0000      -0.855175       -23.2705
  30   2.0000      -0.848775       -23.0964
  31   2.0000      -0.810043       -22.0424
  32   2.0000      -0.785513       -21.3749
  33   2.0000      -0.769600       -20.9419
  34   2.0000      -0.712050       -19.3759
  35   2.0000      -0.703102       -19.1324
  36   2.0000      -0.684592       -18.6287
  37   2.0000      -0.658284       -17.9128
  38   2.0000      -0.643262       -17.5040
  39   2.0000      -0.615035       -16.7359
  40   2.0000      -0.590892       -16.0790
  41   2.0000      -0.572990       -15.5918
  42   2.0000      -0.564369       -15.3572
  43   2.0000      -0.551114       -14.9966
  44   2.0000      -0.524807       -14.2807
  45   2.0000      -0.523461       -14.2441
  46   2.0000      -0.518897       -14.1199
  47   2.0000      -0.512677       -13.9507
  48   2.0000      -0.507785       -13.8175
  49   2.0000      -0.495163       -13.4741
  50   2.0000      -0.493743       -13.4354
  51   2.0000      -0.484859       -13.1937
  52   2.0000      -0.477678       -12.9983
  53   2.0000      -0.459032       -12.4909
  54   2.0000      -0.452754       -12.3201
  55   2.0000      -0.447597       -12.1797
  56   2.0000      -0.446586       -12.1522
  57   2.0000      -0.427497       -11.6328
  58   2.0000      -0.424193       -11.5429
  59   2.0000      -0.423550       -11.5254
  60   2.0000      -0.418430       -11.3861
  61   2.0000      -0.416196       -11.3253
  62   2.0000      -0.404982       -11.0201
  63   2.0000      -0.341066        -9.2809
  64   2.0000      -0.332924        -9.0593
  65   2.0000      -0.327504        -8.9118
  66   2.0000      -0.295543        -8.0421
  67   0.0000       0.025482         0.6934
  68   0.0000       0.064687         1.7602
  69   0.0000       0.102637         2.7929
  70   0.0000       0.115320         3.1380
  71   0.0000       0.128882         3.5071

MULLIKEN ATOMIC CHARGES
-----------------------
   0 S :    0.107707
   1 C :   -0.156176
   2 C :   -0.070547
   3 C :   -0.001882
   4 C :   -0.157314
   5 H :    0.039585
   6 C :    0.077239
   7 H :    0.054640
   8 H :    0.020059
   9 C :   -0.046127
  10 H :    0.008110
  11 H :    0.023656
  12 C :   -0.065350
  13 H :    0.018791
  14 H :    0.023703
  15 H :    0.042569
  16 S :    0.073479
  17 C :   -0.120426
  18 C :   -0.042054
  19 C :   -0.063580
  20 C :   -0.112267
  21 H :    0.031544
  22 C :    0.144813
  23 H :   -0.015698
  24 H :    0.005989
  25 C :   -0.144297
  26 H :    0.026485
  27 H :    0.058894
  28 C :    0.015384
  29 H :    0.027350
  30 H :    0.015540
  31 H :    0.026188
  32 H :    0.060485
  33 H :    0.093508
Sum of atomic charges:   -0.0000000

LOEWDIN ATOMIC CHARGES
----------------------
   0 S :    0.406814
   1 C :   -0.194030
   2 C :   -0.059143
   3 C :   -0.065914
   4 C :   -0.204423
   5 H :    0.043453
   6 C :   -0.024908
   7 H :    0.042028
   8 H :    0.027578
   9 C :   -0.041139
  10 H :    0.018549
  11 H :    0.024327
  12 C :   -0.079710
  13 H :    0.024213
  14 H :    0.029194
  15 H :    0.029506
  16 S :    0.339353
  17 C :   -0.185768
  18 C :   -0.083406
  19 C :   -0.041606
  20 C :   -0.168763
  21 H :    0.036163
  22 C :   -0.034248
  23 H :    0.014411
  24 H :    0.032986
  25 C :   -0.047297
  26 H :    0.026032
  27 H :    0.039513
  28 C :   -0.057426
  29 H :    0.039469
  30 H :    0.016441
  31 H :    0.015725
  32 H :    0.027615
  33 H :    0.054413

  Mayer bond orders larger than 0.100000
B(  0-S ,  1-C ) :   1.1236 B(  0-S ,  4-C ) :   1.1495 B(  1-C ,  2-C ) :   1.6337
B(  1-C , 32-H ) :   0.9727 B(  2-C ,  3-C ) :   1.2259 B(  2-C ,  6-C ) :   0.9975
B(  3-C ,  4-C ) :   1.6066 B(  3-C ,  5-H ) :   0.9872 B(  4-C , 20-C ) :   1.0169
B(  6-C ,  7-H ) :   0.9433 B(  6-C ,  8-H ) :   0.9477 B(  6-C ,  9-C ) :   1.0488
B(  9-C , 10-H ) :   0.9522 B(  9-C , 11-H ) :   0.9595 B(  9-C , 12-C ) :   1.0883
B( 12-C , 13-H ) :   0.9717 B( 12-C , 14-H ) :   0.9696 B( 12-C , 15-H ) :   0.9752
B( 16-S , 17-C ) :   1.1577 B( 16-S , 20-C ) :   1.0861 B( 17-C , 18-C ) :   1.6177
B( 17-C , 33-H ) :   0.9479 B( 18-C , 19-C ) :   1.2343 B( 18-C , 21-H ) :   0.9821
B( 19-C , 20-C ) :   1.6028 B( 19-C , 22-C ) :   1.0579 B( 22-C , 23-H ) :   0.9118
B( 22-C , 24-H ) :   0.9230 B( 22-C , 25-C ) :   1.0462 B( 25-C , 26-H ) :   0.9540
B( 25-C , 27-H ) :   0.9552 B( 25-C , 28-C ) :   1.0895 B( 28-C , 29-H ) :   0.9661
B( 28-C , 30-H ) :   0.9720 B( 28-C , 31-H ) :   0.9758

Dispersion correction           -0.014288401
FINAL SINGLE POINT ENERGY     -1339.845059303626

DIPOLE MOMENT
-------------
                                X             Y             Z
Electronic contribution:     26.66903      -4.39517     -12.28919
Nuclear contribution   :    -27.32086       4.70926      12.36449
                        -----------------------------------------
Total Dipole Moment    :     -0.65183       0.31409       0.07530
                        -----------------------------------------
Magnitude (a.u.)       :      0.72746
Magnitude (Debye)      :      1.84907

Rotational constants in cm-1:     0.019531     0.008109     0.006632
Rotational constants in MHz :   585.537021   243.096159   198.827759

                             ****ORCA TERMINATED NORMALLY****
TOTAL RUN TIME: 0 days 0 hours 0 minutes 28 seconds 523 msec
