                         Program Version 4.2.1 -  RELEASE  -
|  1> ! wB97X-D3 SP def2-SVP
|  2> %pal
|  3> nprocs 16
|  4> end
|  5>
|  6> * xyz 0 1
|  7> S 	 -33.8998 	 36.3213 	 104.082
|  8> C 	 -34.3874 	 35.0571 	 102.966
|  9> C 	 -34.6665 	 35.5782 	 101.686
| 10> C 	 -34.7402 	 37.0055 	 101.641
| 11> C 	 -34.4023 	 37.55 	 102.846
| 12> H 	 -35.0025 	 37.6413 	 100.836
| 13> C 	 -34.834 	 34.6837 	 100.447
| 14> H 	 -35.051 	 33.6476 	 100.739
| 15> H 	 -33.8259 	 34.5141 	 100.086
| 16> C 	 -35.6897 	 35.2563 	 99.2981
| 17> H 	 -36.7514 	 35.2062 	 99.5662
| 18> H 	 -35.4641 	 36.3737 	 99.1743
| 19> C 	 -35.2846 	 34.5097 	 97.9854
| 20> H 	 -34.2302 	 34.6864 	 97.6889
| 21> H 	 -35.4283 	 33.407 	 97.9921
| 22> H 	 -35.7735 	 35.03 	 97.1554
| 23> S 	 -32.8804 	 39.7573 	 103.034
| 24> C 	 -33.6237 	 41.313 	 102.958
| 25> C 	 -35.0337 	 41.198 	 103.066
| 26> C 	 -35.507 	 39.8788 	 103.168
| 27> C 	 -34.4256 	 38.9601 	 103.191
| 28> H 	 -35.5997 	 42.1233 	 103.146
| 29> C 	 -36.9543 	 39.4653 	 103.018
| 30> H 	 -37.1352 	 39.0825 	 101.995
| 31> H 	 -37.594 	 40.3467 	 103.08
| 32> C 	 -37.4573 	 38.405 	 104.099
| 33> H 	 -37.3086 	 38.8478 	 105.073
| 34> H 	 -36.8618 	 37.496 	 104.089
| 35> C 	 -38.9932 	 38.1484 	 103.998
| 36> H 	 -39.427 	 37.6123 	 104.88
| 37> H 	 -39.0969 	 37.4904 	 103.16
| 38> H 	 -39.4736 	 39.063 	 103.686
| 39> H 	 -34.2112 	 34.0235 	 103.219
| 40> H 	 -33.122 	 42.2267 	 103.086
| 41> *
| 42>
| 43>                          ****END OF INPUT****

CARTESIAN COORDINATES (ANGSTROEM)
---------------------------------
  S    -33.899800   36.321300  104.082000
  C    -34.387400   35.057100  102.966000
  C    -34.666500   35.578200  101.686000
  C    -34.740200   37.005500  101.641000
  C    -34.402300   37.550000  102.846000
  H    -35.002500   37.641300  100.836000
  C    -34.834000   34.683700  100.447000
  H    -35.051000   33.647600  100.739000
  H    -33.825900   34.514100  100.086000
  C    -35.689700   35.256300   99.298100
  H    -36.751400   35.206200   99.566200
  H    -35.464100   36.373700   99.174300
  C    -35.284600   34.509700   97.985400
  H    -34.230200   34.686400   97.688900
  H    -35.428300   33.407000   97.992100
  H    -35.773500   35.030000   97.155400
  S    -32.880400   39.757300  103.034000
  C    -33.623700   41.313000  102.958000
  C    -35.033700   41.198000  103.066000
  C    -35.507000   39.878800  103.168000
  C    -34.425600   38.960100  103.191000
  H    -35.599700   42.123300  103.146000
  C    -36.954300   39.465300  103.018000
  H    -37.135200   39.082500  101.995000
  H    -37.594000   40.346700  103.080000
  C    -37.457300   38.405000  104.099000
  H    -37.308600   38.847800  105.073000
  H    -36.861800   37.496000  104.089000
  C    -38.993200   38.148400  103.998000
  H    -39.427000   37.612300  104.880000
  H    -39.096900   37.490400  103.160000
  H    -39.473600   39.063000  103.686000
  H    -34.211200   34.023500  103.219000
  H    -33.122000   42.226700  103.086000

 Total Charge           Charge          ....    0
 Multiplicity           Mult            ....    1
 Number of Electrons    NEL             ....  134
 Basis Dimension        Dim             ....  322

ORBITAL ENERGIES
----------------

  NO   OCC          E(Eh)            E(eV)
   0   2.0000     -88.967398     -2420.9260
   1   2.0000     -88.964499     -2420.8471
   2   2.0000     -10.329087      -281.0687
   3   2.0000     -10.322196      -280.8812
   4   2.0000     -10.314758      -280.6788
   5   2.0000     -10.314418      -280.6696
   6   2.0000     -10.306637      -280.4578
   7   2.0000     -10.306427      -280.4521
   8   2.0000     -10.300153      -280.2814
   9   2.0000     -10.296919      -280.1934
  10   2.0000     -10.295684      -280.1598
  11   2.0000     -10.293776      -280.1079
  12   2.0000     -10.292331      -280.0686
  13   2.0000     -10.287528      -279.9379
  14   2.0000     -10.281906      -279.7849
  15   2.0000     -10.274676      -279.5882
  16   2.0000      -8.082380      -219.9327
  17   2.0000      -8.078172      -219.8182
  18   2.0000      -6.040734      -164.3767
  19   2.0000      -6.036652      -164.2657
  20   2.0000      -6.036630      -164.2650
  21   2.0000      -6.033510      -164.1802
  22   2.0000      -6.032952      -164.1650
  23   2.0000      -6.028900      -164.0547
  24   2.0000      -1.003277       -27.3006
  25   2.0000      -0.977994       -26.6126
  26   2.0000      -0.905107       -24.6292
  27   2.0000      -0.899351       -24.4726
  28   2.0000      -0.866555       -23.5802
  29   2.0000      -0.850290       -23.1376
  30   2.0000      -0.844913       -22.9912
  31   2.0000      -0.811222       -22.0745
  32   2.0000      -0.777878       -21.1671
  33   2.0000      -0.762994       -20.7621
  34   2.0000      -0.711802       -19.3691
  35   2.0000      -0.697908       -18.9910
  36   2.0000      -0.686305       -18.6753
  37   2.0000      -0.659966       -17.9586
  38   2.0000      -0.647721       -17.6254
  39   2.0000      -0.622295       -16.9335
  40   2.0000      -0.592619       -16.1260
  41   2.0000      -0.559862       -15.2346
  42   2.0000      -0.558595       -15.2001
  43   2.0000      -0.554789       -15.0966
  44   2.0000      -0.525994       -14.3130
  45   2.0000      -0.521665       -14.1952
  46   2.0000      -0.514687       -14.0054
  47   2.0000      -0.507733       -13.8161
  48   2.0000      -0.502549       -13.6751
  49   2.0000      -0.496805       -13.5187
  50   2.0000      -0.484775       -13.1914
  51   2.0000      -0.482547       -13.1308
  52   2.0000      -0.476135       -12.9563
  53   2.0000      -0.463639       -12.6163
  54   2.0000      -0.454864       -12.3775
  55   2.0000      -0.448301       -12.1989
  56   2.0000      -0.443004       -12.0548
  57   2.0000      -0.438527       -11.9329
  58   2.0000      -0.428873       -11.6702
  59   2.0000      -0.428461       -11.6590
  60   2.0000      -0.420408       -11.4399
  61   2.0000      -0.413300       -11.2465
  62   2.0000      -0.410497       -11.1702
  63   2.0000      -0.342545        -9.3211
  64   2.0000      -0.330691        -8.9986
  65   2.0000      -0.317481        -8.6391
  66   2.0000      -0.298013        -8.1093
  67   0.0000       0.034646         0.9428
  68   0.0000       0.051295         1.3958
  69   0.0000       0.112438         3.0596
  70   0.0000       0.122116         3.3230
  71   0.0000       0.129062         3.5120

MULLIKEN ATOMIC CHARGES
-----------------------
   0 S :    0.098586
   1 C :   -0.124600
   2 C :   -0.072861
   3 C :    0.059518
   4 C :   -0.185888
   5 H :    0.007808
   6 C :    0.071506
   7 H :    0.017101
   8 H :    0.028360
   9 C :   -0.107612
  10 H :    0.048180
  11 H :    0.046101
  12 C :   -0.067584
  13 H :    0.033288
  14 H :    0.050517
  15 H :    0.031072
  16 S :    0.124581
  17 C :   -0.085591
  18 C :   -0.066751
  19 C :   -0.000810
  20 C :   -0.167010
  21 H :    0.023591
  22 C :    0.055231
  23 H :    0.037364
  24 H :    0.012066
  25 C :   -0.091595
  26 H :    0.025736
  27 H :    0.048837
  28 C :   -0.036344
  29 H :    0.052254
  30 H :    0.017762
  31 H :    0.022971
  32 H :    0.048376
  33 H :    0.045837
Sum of atomic charges:   -0.0000000

LOEWDIN ATOMIC CHARGES
----------------------
   0 S :    0.373835
   1 C :   -0.199695
   2 C :   -0.054615
   3 C :   -0.055536
   4 C :   -0.175796
   5 H :    0.030283
   6 C :   -0.039928
   7 H :    0.030903
   8 H :    0.033135
   9 C :   -0.044235
  10 H :    0.027337
  11 H :    0.032581
  12 C :   -0.073108
  13 H :    0.029276
  14 H :    0.030220
  15 H :    0.027047
  16 S :    0.437316
  17 C :   -0.192605
  18 C :   -0.072848
  19 C :   -0.052091
  20 C :   -0.214063
  21 H :    0.031887
  22 C :   -0.030699
  23 H :    0.033329
  24 H :    0.027332
  25 C :   -0.034476
  26 H :    0.020507
  27 H :    0.023019
  28 C :   -0.067425
  29 H :    0.034715
  30 H :    0.020283
  31 H :    0.021707
  32 H :    0.023249
  33 H :    0.019158

  Mayer bond orders larger than 0.100000
B(  0-S ,  1-C ) :   1.1308 B(  0-S ,  4-C ) :   1.1349 B(  1-C ,  2-C ) :   1.6186
B(  1-C ,  4-C ) :   0.1020 B(  1-C , 32-H ) :   0.9719 B(  2-C ,  3-C ) :   1.2054
B(  2-C ,  6-C ) :   1.0136 B(  3-C ,  4-C ) :   1.6173 B(  3-C ,  5-H ) :   0.9963
B(  4-C , 20-C ) :   0.9923 B(  6-C ,  7-H ) :   0.9385 B(  6-C ,  8-H ) :   0.9382
B(  6-C ,  9-C ) :   1.0488 B(  9-C , 10-H ) :   0.9604 B(  9-C , 11-H ) :   0.9510
B(  9-C , 12-C ) :   1.0730 B( 12-C , 13-H ) :   0.9742 B( 12-C , 14-H ) :   0.9767
B( 12-C , 15-H ) :   0.9733 B( 16-S , 17-C ) :   1.1887 B( 16-S , 20-C ) :   1.1813
B( 17-C , 18-C ) :   1.5569 B( 17-C , 20-C ) :   0.1158 B( 17-C , 33-H ) :   0.9705
B( 18-C , 19-C ) :   1.2933 B( 18-C , 21-H ) :   0.9886 B( 19-C , 20-C ) :   1.5258
B( 19-C , 22-C ) :   1.0503 B( 22-C , 23-H ) :   0.9330 B( 22-C , 24-H ) :   0.9323
B( 22-C , 25-C ) :   1.0481 B( 25-C , 26-H ) :   0.9604 B( 25-C , 27-H ) :   0.9595
B( 25-C , 28-C ) :   1.0759 B( 28-C , 29-H ) :   0.9757 B( 28-C , 30-H ) :   0.9762
B( 28-C , 31-H ) :   0.9728

Dispersion correction           -0.014604432
FINAL SINGLE POINT ENERGY     -1339.874486231234

DIPOLE MOMENT
-------------
                                X             Y             Z
Electronic contribution:     20.47702       9.31916      14.57444
Nuclear contribution   :    -20.77754      -9.35748     -15.11096
                        -----------------------------------------
Total Dipole Moment    :     -0.30052      -0.03833      -0.53652
                        -----------------------------------------
Magnitude (a.u.)       :      0.61615
Magnitude (Debye)      :      1.56612

Rotational constants in cm-1:     0.016284     0.008730     0.007802
Rotational constants in MHz :   488.181086   261.705485   233.907588

                             ****ORCA TERMINATED NORMALLY****
TOTAL RUN TIME: 0 days 0 hours 0 minutes 28 seconds 435 msec
