                         Program Version 4.2.1 -  RELEASE  -
|  1> ! wB97X-D3 SP def2-SVP
|  2> %pal
|  3> nprocs 16
|  4> end
|  5>
|  6> * xyz 0 1
|  7> S 	 34.5624 	 -7.95971 	 72.1654
|  8> C 	 34.8634 	 -6.76781 	 73.4012
|  9> C 	 35.4673 	 -5.59329 	 72.9792
| 10> C 	 35.7981 	 -5.76129 	 71.6175
| 11> C 	 35.3637 	 -6.92146 	 71.0393
| 12> H 	 36.3359 	 -5.07625 	 71.0124
| 13> C 	 35.7281 	 -4.23627 	 73.6272
| 14> H 	 36.7267 	 -4.24873 	 74.0928
| 15> H 	 35.0311 	 -4.14596 	 74.4303
| 16> C 	 35.69 	 -3.03398 	 72.7682
| 17> H 	 36.5915 	 -3.11912 	 72.0228
| 18> H 	 34.7777 	 -3.07749 	 72.134
| 19> C 	 35.7934 	 -1.71174 	 73.5231
| 20> H 	 35.6343 	 -1.00839 	 72.715
| 21> H 	 35.098 	 -1.7811 	 74.2717
| 22> H 	 36.7953 	 -1.50833 	 74.0016
| 23> S 	 34.594 	 -8.7597 	 69.0788
| 24> C 	 34.9 	 -8.48094 	 67.4323
| 25> C 	 35.7096 	 -7.35355 	 67.2611
| 26> C 	 35.9602 	 -6.61534 	 68.4782
| 27> C 	 35.4511 	 -7.29098 	 69.6098
| 28> H 	 35.8035 	 -6.99372 	 66.3264
| 29> C 	 36.5796 	 -5.26424 	 68.4025
| 30> H 	 37.234 	 -5.16865 	 67.5958
| 31> H 	 37.2393 	 -5.15865 	 69.2331
| 32> C 	 35.5176 	 -4.06889 	 68.2861
| 33> H 	 34.7876 	 -4.16621 	 69.0885
| 34> H 	 34.86 	 -4.13259 	 67.473
| 35> C 	 36.2248 	 -2.67841 	 68.2013
| 36> H 	 36.702 	 -2.58964 	 67.244
| 37> H 	 37.0216 	 -2.73605 	 68.9558
| 38> H 	 35.6713 	 -1.83719 	 68.492
| 39> H 	 34.3805 	 -6.94896 	 74.3851
| 40> H 	 34.5331 	 -9.11 	 66.6617
| 41> *
| 42>
| 43>                          ****END OF INPUT****

CARTESIAN COORDINATES (ANGSTROEM)
---------------------------------
  S     34.562400   -7.959710   72.165400
  C     34.863400   -6.767810   73.401200
  C     35.467300   -5.593290   72.979200
  C     35.798100   -5.761290   71.617500
  C     35.363700   -6.921460   71.039300
  H     36.335900   -5.076250   71.012400
  C     35.728100   -4.236270   73.627200
  H     36.726700   -4.248730   74.092800
  H     35.031100   -4.145960   74.430300
  C     35.690000   -3.033980   72.768200
  H     36.591500   -3.119120   72.022800
  H     34.777700   -3.077490   72.134000
  C     35.793400   -1.711740   73.523100
  H     35.634300   -1.008390   72.715000
  H     35.098000   -1.781100   74.271700
  H     36.795300   -1.508330   74.001600
  S     34.594000   -8.759700   69.078800
  C     34.900000   -8.480940   67.432300
  C     35.709600   -7.353550   67.261100
  C     35.960200   -6.615340   68.478200
  C     35.451100   -7.290980   69.609800
  H     35.803500   -6.993720   66.326400
  C     36.579600   -5.264240   68.402500
  H     37.234000   -5.168650   67.595800
  H     37.239300   -5.158650   69.233100
  C     35.517600   -4.068890   68.286100
  H     34.787600   -4.166210   69.088500
  H     34.860000   -4.132590   67.473000
  C     36.224800   -2.678410   68.201300
  H     36.702000   -2.589640   67.244000
  H     37.021600   -2.736050   68.955800
  H     35.671300   -1.837190   68.492000
  H     34.380500   -6.948960   74.385100
  H     34.533100   -9.110000   66.661700

 Total Charge           Charge          ....    0
 Multiplicity           Mult            ....    1
 Number of Electrons    NEL             ....  134
 Basis Dimension        Dim             ....  322

ORBITAL ENERGIES
----------------

  NO   OCC          E(Eh)            E(eV)
   0   2.0000     -88.967080     -2420.9173
   1   2.0000     -88.964529     -2420.8479
   2   2.0000     -10.332057      -281.1496
   3   2.0000     -10.326109      -280.9877
   4   2.0000     -10.315460      -280.6979
   5   2.0000     -10.313834      -280.6537
   6   2.0000     -10.305839      -280.4361
   7   2.0000     -10.302236      -280.3381
   8   2.0000     -10.294817      -280.1362
   9   2.0000     -10.290911      -280.0299
  10   2.0000     -10.290260      -280.0122
  11   2.0000     -10.287980      -279.9502
  12   2.0000     -10.285698      -279.8881
  13   2.0000     -10.282740      -279.8076
  14   2.0000     -10.280199      -279.7384
  15   2.0000     -10.277131      -279.6550
  16   2.0000      -8.082464      -219.9350
  17   2.0000      -8.079794      -219.8624
  18   2.0000      -6.040926      -164.3819
  19   2.0000      -6.038276      -164.3099
  20   2.0000      -6.037041      -164.2762
  21   2.0000      -6.034127      -164.1969
  22   2.0000      -6.033096      -164.1689
  23   2.0000      -6.030699      -164.1037
  24   2.0000      -1.008536       -27.4437
  25   2.0000      -0.985402       -26.8141
  26   2.0000      -0.922867       -25.1125
  27   2.0000      -0.907809       -24.7027
  28   2.0000      -0.868867       -23.6431
  29   2.0000      -0.857116       -23.3233
  30   2.0000      -0.848241       -23.0818
  31   2.0000      -0.813246       -22.1295
  32   2.0000      -0.788781       -21.4638
  33   2.0000      -0.776213       -21.1218
  34   2.0000      -0.715729       -19.4760
  35   2.0000      -0.702346       -19.1118
  36   2.0000      -0.687131       -18.6978
  37   2.0000      -0.667212       -18.1558
  38   2.0000      -0.639798       -17.4098
  39   2.0000      -0.630070       -17.1451
  40   2.0000      -0.600854       -16.3501
  41   2.0000      -0.576615       -15.6905
  42   2.0000      -0.567977       -15.4554
  43   2.0000      -0.561818       -15.2878
  44   2.0000      -0.537469       -14.6253
  45   2.0000      -0.526768       -14.3341
  46   2.0000      -0.515192       -14.0191
  47   2.0000      -0.513876       -13.9833
  48   2.0000      -0.507205       -13.8018
  49   2.0000      -0.502673       -13.6784
  50   2.0000      -0.489981       -13.3331
  51   2.0000      -0.482994       -13.1429
  52   2.0000      -0.476758       -12.9732
  53   2.0000      -0.468414       -12.7462
  54   2.0000      -0.461601       -12.5608
  55   2.0000      -0.450439       -12.2571
  56   2.0000      -0.445351       -12.1186
  57   2.0000      -0.440213       -11.9788
  58   2.0000      -0.437820       -11.9137
  59   2.0000      -0.429343       -11.6830
  60   2.0000      -0.419781       -11.4228
  61   2.0000      -0.416445       -11.3321
  62   2.0000      -0.412627       -11.2281
  63   2.0000      -0.360389        -9.8067
  64   2.0000      -0.337141        -9.1741
  65   2.0000      -0.326522        -8.8851
  66   2.0000      -0.277131        -7.5411
  67   0.0000       0.022042         0.5998
  68   0.0000       0.086785         2.3615
  69   0.0000       0.095818         2.6073
  70   0.0000       0.119071         3.2401
  71   0.0000       0.120722         3.2850

MULLIKEN ATOMIC CHARGES
-----------------------
   0 S :    0.109540
   1 C :   -0.159388
   2 C :   -0.037439
   3 C :   -0.033393
   4 C :   -0.080811
   5 H :   -0.038334
   6 C :    0.115890
   7 H :    0.037479
   8 H :    0.006479
   9 C :   -0.184881
  10 H :    0.045687
  11 H :    0.043380
  12 C :    0.018576
  13 H :    0.041812
  14 H :    0.014209
  15 H :    0.039008
  16 S :    0.088604
  17 C :   -0.085996
  18 C :    0.026988
  19 C :   -0.092012
  20 C :   -0.100673
  21 H :   -0.022133
  22 C :    0.078727
  23 H :   -0.003332
  24 H :    0.020525
  25 C :   -0.054550
  26 H :    0.022891
  27 H :    0.011284
  28 C :   -0.015208
  29 H :    0.034340
  30 H :    0.014436
  31 H :    0.030496
  32 H :    0.054566
  33 H :    0.053235
Sum of atomic charges:   -0.0000000

LOEWDIN ATOMIC CHARGES
----------------------
   0 S :    0.411719
   1 C :   -0.201831
   2 C :   -0.056850
   3 C :   -0.068192
   4 C :   -0.190009
   5 H :    0.018847
   6 C :   -0.034577
   7 H :    0.039042
   8 H :    0.023416
   9 C :   -0.051044
  10 H :    0.028781
  11 H :    0.027151
  12 C :   -0.051560
  13 H :    0.033570
  14 H :    0.012171
  15 H :    0.033614
  16 S :    0.408476
  17 C :   -0.190362
  18 C :   -0.060979
  19 C :   -0.052850
  20 C :   -0.184531
  21 H :    0.009854
  22 C :   -0.025018
  23 H :    0.022903
  24 H :    0.025039
  25 C :   -0.029485
  26 H :    0.023003
  27 H :    0.016180
  28 C :   -0.058731
  29 H :    0.025059
  30 H :    0.023940
  31 H :    0.020806
  32 H :    0.027413
  33 H :    0.025037

  Mayer bond orders larger than 0.100000
B(  0-S ,  1-C ) :   1.1446 B(  0-S ,  4-C ) :   1.1446 B(  1-C ,  2-C ) :   1.6134
B(  1-C , 32-H ) :   0.9607 B(  2-C ,  3-C ) :   1.2443 B(  2-C ,  6-C ) :   1.0078
B(  3-C ,  4-C ) :   1.5856 B(  3-C ,  5-H ) :   0.9879 B(  4-C , 20-C ) :   1.0721
B(  6-C ,  7-H ) :   0.9203 B(  6-C ,  8-H ) :   0.9359 B(  6-C ,  9-C ) :   1.0900
B(  9-C , 10-H ) :   0.9348 B(  9-C , 11-H ) :   0.9581 B(  9-C , 12-C ) :   1.0730
B( 12-C , 13-H ) :   0.9724 B( 12-C , 14-H ) :   0.9737 B( 12-C , 15-H ) :   0.9727
B( 16-S , 17-C ) :   1.1792 B( 16-S , 20-C ) :   1.1368 B( 17-C , 18-C ) :   1.5794
B( 17-C , 33-H ) :   0.9718 B( 18-C , 19-C ) :   1.2666 B( 18-C , 21-H ) :   0.9990
B( 19-C , 20-C ) :   1.5645 B( 19-C , 22-C ) :   1.0631 B( 22-C , 23-H ) :   0.9244
B( 22-C , 24-H ) :   0.9289 B( 22-C , 25-C ) :   1.0413 B( 25-C , 26-H ) :   0.9582
B( 25-C , 27-H ) :   0.9578 B( 25-C , 28-C ) :   1.0662 B( 28-C , 29-H ) :   0.9767
B( 28-C , 30-H ) :   0.9757 B( 28-C , 31-H ) :   0.9752

Dispersion correction           -0.014792707
FINAL SINGLE POINT ENERGY     -1339.860218769876

DIPOLE MOMENT
-------------
                                X             Y             Z
Electronic contribution:     -7.75400     -33.49656      -0.88743
Nuclear contribution   :      7.79037      34.30153       0.75668
                        -----------------------------------------
Total Dipole Moment    :      0.03637       0.80498      -0.13075
                        -----------------------------------------
Magnitude (a.u.)       :      0.81634
Magnitude (Debye)      :      2.07497

Rotational constants in cm-1:     0.017468     0.010257     0.006665
Rotational constants in MHz :   523.666526   307.483923   199.812671

                             ****ORCA TERMINATED NORMALLY****
TOTAL RUN TIME: 0 days 0 hours 0 minutes 29 seconds 795 msec
