                         Program Version 4.2.1 -  RELEASE  -
|  1> ! wB97X-D3 SP def2-SVP
|  2> %pal
|  3> nprocs 16
|  4> end
|  5>
|  6> * xyz 0 1
|  7> S 	 21.4132 	 33.0978 	 54.0714
|  8> C 	 20.0274 	 32.7869 	 55.1603
|  9> C 	 20.2429 	 33.297 	 56.4435
| 10> C 	 21.4262 	 34.0721 	 56.4437
| 11> C 	 22.1886 	 34.0727 	 55.3305
| 12> H 	 21.7731 	 34.778 	 57.1869
| 13> C 	 19.2424 	 33.3052 	 57.5714
| 14> H 	 19.4625 	 32.3286 	 58.1235
| 15> H 	 18.2414 	 33.2663 	 57.1072
| 16> C 	 19.2625 	 34.5474 	 58.4865
| 17> H 	 20.2338 	 34.6196 	 58.9796
| 18> H 	 19.2137 	 35.5398 	 57.9439
| 19> C 	 18.1847 	 34.6454 	 59.5518
| 20> H 	 18.6104 	 35.2895 	 60.329
| 21> H 	 17.266 	 34.8477 	 59.0368
| 22> H 	 18.0449 	 33.6482 	 59.8384
| 23> S 	 24.6097 	 34.4017 	 56.596
| 24> C 	 26.0149 	 34.9349 	 55.7073
| 25> C 	 25.6883 	 35.1964 	 54.4559
| 26> C 	 24.3117 	 34.92 	 54.127
| 27> C 	 23.5513 	 34.6127 	 55.2165
| 28> H 	 26.4469 	 35.4132 	 53.7485
| 29> C 	 23.9356 	 35.2781 	 52.687
| 30> H 	 24.3666 	 36.2789 	 52.3926
| 31> H 	 22.8412 	 35.4069 	 52.7366
| 32> C 	 24.4585 	 34.1883 	 51.6622
| 33> H 	 23.9638 	 33.2243 	 51.8002
| 34> H 	 25.5273 	 34.0965 	 51.8277
| 35> C 	 24.4319 	 34.7241 	 50.2069
| 36> H 	 24.8678 	 35.724 	 50.3315
| 37> H 	 23.4538 	 34.8584 	 49.8281
| 38> H 	 24.9331 	 34.0805 	 49.4857
| 39> H 	 19.2151 	 32.2455 	 54.8249
| 40> H 	 26.9218 	 35.2481 	 56.1162
| 41> *
| 42>
| 43>                          ****END OF INPUT****

CARTESIAN COORDINATES (ANGSTROEM)
---------------------------------
  S     21.413200   33.097800   54.071400
  C     20.027400   32.786900   55.160300
  C     20.242900   33.297000   56.443500
  C     21.426200   34.072100   56.443700
  C     22.188600   34.072700   55.330500
  H     21.773100   34.778000   57.186900
  C     19.242400   33.305200   57.571400
  H     19.462500   32.328600   58.123500
  H     18.241400   33.266300   57.107200
  C     19.262500   34.547400   58.486500
  H     20.233800   34.619600   58.979600
  H     19.213700   35.539800   57.943900
  C     18.184700   34.645400   59.551800
  H     18.610400   35.289500   60.329000
  H     17.266000   34.847700   59.036800
  H     18.044900   33.648200   59.838400
  S     24.609700   34.401700   56.596000
  C     26.014900   34.934900   55.707300
  C     25.688300   35.196400   54.455900
  C     24.311700   34.920000   54.127000
  C     23.551300   34.612700   55.216500
  H     26.446900   35.413200   53.748500
  C     23.935600   35.278100   52.687000
  H     24.366600   36.278900   52.392600
  H     22.841200   35.406900   52.736600
  C     24.458500   34.188300   51.662200
  H     23.963800   33.224300   51.800200
  H     25.527300   34.096500   51.827700
  C     24.431900   34.724100   50.206900
  H     24.867800   35.724000   50.331500
  H     23.453800   34.858400   49.828100
  H     24.933100   34.080500   49.485700
  H     19.215100   32.245500   54.824900
  H     26.921800   35.248100   56.116200

 Total Charge           Charge          ....    0
 Multiplicity           Mult            ....    1
 Number of Electrons    NEL             ....  134
 Basis Dimension        Dim             ....  322

ORBITAL ENERGIES
----------------

  NO   OCC          E(Eh)            E(eV)
   0   2.0000     -88.965972     -2420.8872
   1   2.0000     -88.959907     -2420.7221
   2   2.0000     -10.327540      -281.0267
   3   2.0000     -10.327257      -281.0190
   4   2.0000     -10.315225      -280.6915
   5   2.0000     -10.306476      -280.4535
   6   2.0000     -10.305228      -280.4195
   7   2.0000     -10.303651      -280.3766
   8   2.0000     -10.299158      -280.2543
   9   2.0000     -10.299010      -280.2503
  10   2.0000     -10.288873      -279.9745
  11   2.0000     -10.288763      -279.9715
  12   2.0000     -10.286752      -279.9168
  13   2.0000     -10.282283      -279.7951
  14   2.0000     -10.274210      -279.5755
  15   2.0000     -10.273202      -279.5480
  16   2.0000      -8.079577      -219.8565
  17   2.0000      -8.075133      -219.7356
  18   2.0000      -6.038141      -164.3062
  19   2.0000      -6.034307      -164.2018
  20   2.0000      -6.033863      -164.1898
  21   2.0000      -6.030309      -164.0931
  22   2.0000      -6.029608      -164.0740
  23   2.0000      -6.025566      -163.9640
  24   2.0000      -1.009608       -27.4728
  25   2.0000      -0.986103       -26.8332
  26   2.0000      -0.913565       -24.8594
  27   2.0000      -0.901951       -24.5433
  28   2.0000      -0.877111       -23.8674
  29   2.0000      -0.853079       -23.2134
  30   2.0000      -0.845423       -23.0051
  31   2.0000      -0.822467       -22.3805
  32   2.0000      -0.781407       -21.2632
  33   2.0000      -0.768479       -20.9114
  34   2.0000      -0.710178       -19.3249
  35   2.0000      -0.696974       -18.9656
  36   2.0000      -0.690555       -18.7910
  37   2.0000      -0.672988       -18.3129
  38   2.0000      -0.636380       -17.3168
  39   2.0000      -0.618257       -16.8236
  40   2.0000      -0.595170       -16.1954
  41   2.0000      -0.573697       -15.6111
  42   2.0000      -0.569598       -15.4996
  43   2.0000      -0.566608       -15.4182
  44   2.0000      -0.540908       -14.7188
  45   2.0000      -0.523293       -14.2395
  46   2.0000      -0.518467       -14.1082
  47   2.0000      -0.512517       -13.9463
  48   2.0000      -0.508269       -13.8307
  49   2.0000      -0.500406       -13.6167
  50   2.0000      -0.489214       -13.3122
  51   2.0000      -0.483144       -13.1470
  52   2.0000      -0.471627       -12.8336
  53   2.0000      -0.464582       -12.6419
  54   2.0000      -0.452293       -12.3075
  55   2.0000      -0.450317       -12.2537
  56   2.0000      -0.440552       -11.9880
  57   2.0000      -0.434621       -11.8266
  58   2.0000      -0.430363       -11.7108
  59   2.0000      -0.425671       -11.5831
  60   2.0000      -0.420451       -11.4411
  61   2.0000      -0.411731       -11.2038
  62   2.0000      -0.407476       -11.0880
  63   2.0000      -0.357047        -9.7157
  64   2.0000      -0.332738        -9.0543
  65   2.0000      -0.326934        -8.8963
  66   2.0000      -0.292515        -7.9597
  67   0.0000       0.025406         0.6913
  68   0.0000       0.083374         2.2687
  69   0.0000       0.103878         2.8267
  70   0.0000       0.114803         3.1239
  71   0.0000       0.133714         3.6386

MULLIKEN ATOMIC CHARGES
-----------------------
   0 S :    0.090752
   1 C :   -0.114530
   2 C :   -0.044038
   3 C :   -0.038529
   4 C :   -0.099970
   5 H :    0.015348
   6 C :    0.059985
   7 H :    0.061879
   8 H :    0.030973
   9 C :   -0.167031
  10 H :    0.031155
  11 H :    0.038764
  12 C :    0.034862
  13 H :    0.052013
  14 H :    0.025351
  15 H :    0.002409
  16 S :    0.077202
  17 C :   -0.040024
  18 C :   -0.020367
  19 C :   -0.070975
  20 C :   -0.114284
  21 H :    0.009227
  22 C :    0.008192
  23 H :    0.038046
  24 H :    0.029862
  25 C :   -0.074966
  26 H :    0.040811
  27 H :    0.026639
  28 C :   -0.029171
  29 H :    0.021633
  30 H :    0.021736
  31 H :    0.040256
  32 H :    0.022552
  33 H :    0.034236
Sum of atomic charges:    0.0000000

LOEWDIN ATOMIC CHARGES
----------------------
   0 S :    0.380105
   1 C :   -0.166986
   2 C :   -0.058052
   3 C :   -0.075793
   4 C :   -0.180474
   5 H :    0.029762
   6 C :   -0.037564
   7 H :    0.047925
   8 H :    0.033542
   9 C :   -0.052909
  10 H :    0.019181
  11 H :    0.029621
  12 C :   -0.056224
  13 H :    0.038395
  14 H :    0.025258
  15 H :    0.016585
  16 S :    0.397773
  17 C :   -0.169045
  18 C :   -0.066381
  19 C :   -0.063133
  20 C :   -0.192144
  21 H :    0.026106
  22 C :   -0.034182
  23 H :    0.035111
  24 H :    0.024583
  25 C :   -0.034733
  26 H :    0.023202
  27 H :    0.022641
  28 C :   -0.063020
  29 H :    0.026044
  30 H :    0.016632
  31 H :    0.026634
  32 H :    0.009511
  33 H :    0.022030

  Mayer bond orders larger than 0.100000
B(  0-S ,  1-C ) :   1.1394 B(  0-S ,  4-C ) :   1.1166 B(  1-C ,  2-C ) :   1.6026
B(  1-C , 32-H ) :   0.9828 B(  2-C ,  3-C ) :   1.2201 B(  2-C ,  6-C ) :   1.0096
B(  3-C ,  4-C ) :   1.5936 B(  3-C ,  5-H ) :   0.9929 B(  4-C , 20-C ) :   1.0692
B(  6-C ,  7-H ) :   0.9188 B(  6-C ,  8-H ) :   0.9507 B(  6-C ,  9-C ) :   1.0827
B(  9-C , 10-H ) :   0.9465 B(  9-C , 11-H ) :   0.9584 B(  9-C , 12-C ) :   1.0791
B( 12-C , 13-H ) :   0.9720 B( 12-C , 14-H ) :   0.9726 B( 12-C , 15-H ) :   0.9704
B( 16-S , 17-C ) :   1.1307 B( 16-S , 20-C ) :   1.1174 B( 17-C , 18-C ) :   1.6611
B( 17-C , 33-H ) :   0.9650 B( 18-C , 19-C ) :   1.2105 B( 18-C , 21-H ) :   0.9909
B( 19-C , 20-C ) :   1.6212 B( 19-C , 22-C ) :   1.0349 B( 22-C , 23-H ) :   0.9471
B( 22-C , 24-H ) :   0.9411 B( 22-C , 25-C ) :   1.0433 B( 25-C , 26-H ) :   0.9551
B( 25-C , 27-H ) :   0.9635 B( 25-C , 28-C ) :   1.0714 B( 28-C , 29-H ) :   0.9736
B( 28-C , 30-H ) :   0.9767 B( 28-C , 31-H ) :   0.9761

Dispersion correction           -0.013618637
FINAL SINGLE POINT ENERGY     -1339.860885145355

DIPOLE MOMENT
-------------
                                X             Y             Z
Electronic contribution:      8.86220      -4.97344       2.50622
Nuclear contribution   :     -8.96322       5.13657      -2.49448
                        -----------------------------------------
Total Dipole Moment    :     -0.10102       0.16313       0.01174
                        -----------------------------------------
Magnitude (a.u.)       :      0.19224
Magnitude (Debye)      :      0.48862

Rotational constants in cm-1:     0.023034     0.007382     0.005946
Rotational constants in MHz :   690.555074   221.319087   178.264091

                             ****ORCA TERMINATED NORMALLY****
TOTAL RUN TIME: 0 days 0 hours 0 minutes 34 seconds 577 msec
