                         Program Version 4.2.1 -  RELEASE  -
|  1> ! wB97X-D3 SP def2-SVP
|  2> %pal
|  3> nprocs 16
|  4> end
|  5>
|  6> * xyz 0 1
|  7> S 	 -37.5422 	 25.1558 	 80.6154
|  8> C 	 -38.7907 	 24.1226 	 81.2323
|  9> C 	 -38.6952 	 22.9017 	 80.6232
| 10> C 	 -37.8584 	 22.8983 	 79.4831
| 11> C 	 -37.2762 	 24.1655 	 79.231
| 12> H 	 -37.7386 	 22.0539 	 78.7565
| 13> C 	 -39.6062 	 21.7116 	 80.8879
| 14> H 	 -40.0628 	 21.4533 	 79.9351
| 15> H 	 -40.3602 	 22.0541 	 81.5133
| 16> C 	 -38.9803 	 20.4321 	 81.3764
| 17> H 	 -39.7557 	 19.6476 	 81.4047
| 18> H 	 -38.264 	 20.0953 	 80.6278
| 19> C 	 -38.1963 	 20.5623 	 82.6822
| 20> H 	 -37.4066 	 21.3447 	 82.6642
| 21> H 	 -38.7674 	 20.897 	 83.5498
| 22> H 	 -37.691 	 19.591 	 82.9359
| 23> S 	 -34.6204 	 24.8568 	 78.6322
| 24> C 	 -34.0908 	 24.6774 	 76.9354
| 25> C 	 -35.1387 	 24.4551 	 76.0808
| 26> C 	 -36.3697 	 24.2196 	 76.8383
| 27> C 	 -36.3157 	 24.5055 	 78.1765
| 28> H 	 -34.9118 	 24.4226 	 75.0562
| 29> C 	 -37.6349 	 23.7645 	 76.1426
| 30> H 	 -38.0901 	 23.0234 	 76.7876
| 31> H 	 -37.4583 	 23.1074 	 75.3258
| 32> C 	 -38.6437 	 24.8461 	 75.9906
| 33> H 	 -38.1721 	 25.79 	 75.6841
| 34> H 	 -39.1 	 25.1389 	 76.9764
| 35> C 	 -39.7074 	 24.7384 	 74.918
| 36> H 	 -40.0577 	 25.6932 	 74.4418
| 37> H 	 -40.4415 	 24.008 	 75.0694
| 38> H 	 -39.22 	 24.5 	 74.0119
| 39> H 	 -39.3555 	 24.2597 	 82.1363
| 40> H 	 -32.998 	 24.6809 	 76.7056
| 41> *
| 42>
| 43>                          ****END OF INPUT****

CARTESIAN COORDINATES (ANGSTROEM)
---------------------------------
  S    -37.542200   25.155800   80.615400
  C    -38.790700   24.122600   81.232300
  C    -38.695200   22.901700   80.623200
  C    -37.858400   22.898300   79.483100
  C    -37.276200   24.165500   79.231000
  H    -37.738600   22.053900   78.756500
  C    -39.606200   21.711600   80.887900
  H    -40.062800   21.453300   79.935100
  H    -40.360200   22.054100   81.513300
  C    -38.980300   20.432100   81.376400
  H    -39.755700   19.647600   81.404700
  H    -38.264000   20.095300   80.627800
  C    -38.196300   20.562300   82.682200
  H    -37.406600   21.344700   82.664200
  H    -38.767400   20.897000   83.549800
  H    -37.691000   19.591000   82.935900
  S    -34.620400   24.856800   78.632200
  C    -34.090800   24.677400   76.935400
  C    -35.138700   24.455100   76.080800
  C    -36.369700   24.219600   76.838300
  C    -36.315700   24.505500   78.176500
  H    -34.911800   24.422600   75.056200
  C    -37.634900   23.764500   76.142600
  H    -38.090100   23.023400   76.787600
  H    -37.458300   23.107400   75.325800
  C    -38.643700   24.846100   75.990600
  H    -38.172100   25.790000   75.684100
  H    -39.100000   25.138900   76.976400
  C    -39.707400   24.738400   74.918000
  H    -40.057700   25.693200   74.441800
  H    -40.441500   24.008000   75.069400
  H    -39.220000   24.500000   74.011900
  H    -39.355500   24.259700   82.136300
  H    -32.998000   24.680900   76.705600

 Total Charge           Charge          ....    0
 Multiplicity           Mult            ....    1
 Number of Electrons    NEL             ....  134
 Basis Dimension        Dim             ....  322

ORBITAL ENERGIES
----------------

  NO   OCC          E(Eh)            E(eV)
   0   2.0000     -88.966700     -2420.9070
   1   2.0000     -88.962098     -2420.7818
   2   2.0000     -10.333351      -281.1848
   3   2.0000     -10.328656      -281.0570
   4   2.0000     -10.325813      -280.9797
   5   2.0000     -10.311100      -280.5793
   6   2.0000     -10.308559      -280.5102
   7   2.0000     -10.298883      -280.2468
   8   2.0000     -10.297671      -280.2139
   9   2.0000     -10.297590      -280.2117
  10   2.0000     -10.287740      -279.9436
  11   2.0000     -10.283707      -279.8339
  12   2.0000     -10.283314      -279.8232
  13   2.0000     -10.281672      -279.7785
  14   2.0000     -10.279464      -279.7184
  15   2.0000     -10.268597      -279.4227
  16   2.0000      -8.082095      -219.9250
  17   2.0000      -8.076165      -219.7636
  18   2.0000      -6.040530      -164.3712
  19   2.0000      -6.036540      -164.2626
  20   2.0000      -6.034899      -164.2179
  21   2.0000      -6.032856      -164.1624
  22   2.0000      -6.030865      -164.1082
  23   2.0000      -6.026618      -163.9926
  24   2.0000      -1.008888       -27.4532
  25   2.0000      -0.984026       -26.7767
  26   2.0000      -0.915971       -24.9248
  27   2.0000      -0.912468       -24.8295
  28   2.0000      -0.871003       -23.7012
  29   2.0000      -0.850229       -23.1359
  30   2.0000      -0.843318       -22.9479
  31   2.0000      -0.815962       -22.2034
  32   2.0000      -0.786747       -21.4085
  33   2.0000      -0.777674       -21.1616
  34   2.0000      -0.711304       -19.3556
  35   2.0000      -0.698931       -19.0189
  36   2.0000      -0.692680       -18.8488
  37   2.0000      -0.662515       -18.0279
  38   2.0000      -0.636676       -17.3248
  39   2.0000      -0.622776       -16.9466
  40   2.0000      -0.598559       -16.2876
  41   2.0000      -0.574418       -15.6307
  42   2.0000      -0.558804       -15.2058
  43   2.0000      -0.550007       -14.9665
  44   2.0000      -0.540525       -14.7084
  45   2.0000      -0.528588       -14.3836
  46   2.0000      -0.527578       -14.3561
  47   2.0000      -0.519777       -14.1439
  48   2.0000      -0.505320       -13.7505
  49   2.0000      -0.500638       -13.6230
  50   2.0000      -0.488735       -13.2992
  51   2.0000      -0.484650       -13.1880
  52   2.0000      -0.469988       -12.7890
  53   2.0000      -0.463552       -12.6139
  54   2.0000      -0.457338       -12.4448
  55   2.0000      -0.448297       -12.1988
  56   2.0000      -0.443839       -12.0775
  57   2.0000      -0.433633       -11.7998
  58   2.0000      -0.426898       -11.6165
  59   2.0000      -0.418425       -11.3859
  60   2.0000      -0.416897       -11.3443
  61   2.0000      -0.413682       -11.2569
  62   2.0000      -0.399599       -10.8737
  63   2.0000      -0.350138        -9.5277
  64   2.0000      -0.329541        -8.9673
  65   2.0000      -0.327543        -8.9129
  66   2.0000      -0.294506        -8.0139
  67   0.0000       0.029869         0.8128
  68   0.0000       0.059289         1.6133
  69   0.0000       0.109872         2.9898
  70   0.0000       0.116736         3.1765
  71   0.0000       0.126976         3.4552

MULLIKEN ATOMIC CHARGES
-----------------------
   0 S :    0.114742
   1 C :   -0.100512
   2 C :   -0.106576
   3 C :    0.018619
   4 C :   -0.184890
   5 H :    0.041344
   6 C :    0.094792
   7 H :    0.026419
   8 H :   -0.003922
   9 C :   -0.051707
  10 H :    0.033464
  11 H :    0.023225
  12 C :   -0.081785
  13 H :    0.041409
  14 H :    0.024072
  15 H :    0.042152
  16 S :    0.075737
  17 C :   -0.121461
  18 C :    0.012082
  19 C :   -0.102481
  20 C :   -0.082892
  21 H :    0.009137
  22 C :    0.136828
  23 H :   -0.006674
  24 H :    0.004362
  25 C :   -0.078693
  26 H :    0.020804
  27 H :    0.044421
  28 C :   -0.016848
  29 H :    0.029146
  30 H :    0.025975
  31 H :   -0.004856
  32 H :    0.044562
  33 H :    0.080004
Sum of atomic charges:   -0.0000000

LOEWDIN ATOMIC CHARGES
----------------------
   0 S :    0.427885
   1 C :   -0.202659
   2 C :   -0.067182
   3 C :   -0.066058
   4 C :   -0.200659
   5 H :    0.036489
   6 C :   -0.024739
   7 H :    0.034261
   8 H :    0.017311
   9 C :   -0.041749
  10 H :    0.028283
  11 H :    0.024336
  12 C :   -0.076325
  13 H :    0.030266
  14 H :    0.021154
  15 H :    0.031751
  16 S :    0.362221
  17 C :   -0.164214
  18 C :   -0.066607
  19 C :   -0.041984
  20 C :   -0.190698
  21 H :    0.028716
  22 C :   -0.038599
  23 H :    0.030880
  24 H :    0.025762
  25 C :   -0.046576
  26 H :    0.027559
  27 H :    0.032189
  28 C :   -0.072922
  29 H :    0.039854
  30 H :    0.013931
  31 H :    0.021275
  32 H :    0.028566
  33 H :    0.038280

  Mayer bond orders larger than 0.100000
B(  0-S ,  1-C ) :   1.1403 B(  0-S ,  4-C ) :   1.1753 B(  1-C ,  2-C ) :   1.5919
B(  1-C ,  4-C ) :   0.1054 B(  1-C , 32-H ) :   0.9674 B(  2-C ,  3-C ) :   1.2636
B(  2-C ,  6-C ) :   1.0218 B(  3-C ,  4-C ) :   1.5312 B(  3-C ,  5-H ) :   0.9786
B(  4-C , 20-C ) :   1.0361 B(  6-C ,  7-H ) :   0.9420 B(  6-C ,  8-H ) :   0.9405
B(  6-C ,  9-C ) :   1.0777 B(  9-C , 10-H ) :   0.9534 B(  9-C , 11-H ) :   0.9525
B(  9-C , 12-C ) :   1.0731 B( 12-C , 13-H ) :   0.9718 B( 12-C , 14-H ) :   0.9763
B( 12-C , 15-H ) :   0.9749 B( 16-S , 17-C ) :   1.1496 B( 16-S , 20-C ) :   1.0997
B( 17-C , 18-C ) :   1.6372 B( 17-C , 33-H ) :   0.9597 B( 18-C , 19-C ) :   1.1819
B( 18-C , 21-H ) :   1.0065 B( 19-C , 20-C ) :   1.6560 B( 19-C , 22-C ) :   1.0595
B( 22-C , 23-H ) :   0.9090 B( 22-C , 24-H ) :   0.9331 B( 22-C , 25-C ) :   1.0547
B( 25-C , 26-H ) :   0.9576 B( 25-C , 27-H ) :   0.9505 B( 25-C , 28-C ) :   1.0880
B( 28-C , 29-H ) :   0.9689 B( 28-C , 30-H ) :   0.9768 B( 28-C , 31-H ) :   0.9597

Dispersion correction           -0.014521980
FINAL SINGLE POINT ENERGY     -1339.854395822999

DIPOLE MOMENT
-------------
                                X             Y             Z
Electronic contribution:     17.05915      14.96412       5.29277
Nuclear contribution   :    -17.26269     -15.55429      -5.69091
                        -----------------------------------------
Total Dipole Moment    :     -0.20354      -0.59017      -0.39814
                        -----------------------------------------
Magnitude (a.u.)       :      0.74044
Magnitude (Debye)      :      1.88204

Rotational constants in cm-1:     0.018030     0.008685     0.007232
Rotational constants in MHz :   540.523410   260.356103   216.797537

                             ****ORCA TERMINATED NORMALLY****
TOTAL RUN TIME: 0 days 0 hours 0 minutes 30 seconds 888 msec
