                         Program Version 4.2.1 -  RELEASE  -
|  1> ! wB97X-D3 SP def2-SVP
|  2> %pal
|  3> nprocs 16
|  4> end
|  5>
|  6> * xyz 0 1
|  7> S 	 -68.0608 	 53.9286 	 120.68
|  8> C 	 -68.4131 	 54.9082 	 122.084
|  9> C 	 -69.5755 	 55.5938 	 121.919
| 10> C 	 -70.2534 	 55.2799 	 120.71
| 11> C 	 -69.5223 	 54.4293 	 119.842
| 12> H 	 -71.1048 	 55.7363 	 120.34
| 13> C 	 -70.1286 	 56.628 	 122.867
| 14> H 	 -70.8605 	 56.1026 	 123.422
| 15> H 	 -70.6245 	 57.4069 	 122.284
| 16> C 	 -69.0805 	 57.2273 	 123.848
| 17> H 	 -68.4348 	 56.4253 	 124.311
| 18> H 	 -68.4365 	 57.8874 	 123.276
| 19> C 	 -69.6979 	 58.0862 	 124.967
| 20> H 	 -70.39 	 57.4912 	 125.583
| 21> H 	 -68.9252 	 58.4846 	 125.657
| 22> H 	 -70.2407 	 58.9196 	 124.554
| 23> S 	 -70.3269 	 55.4442 	 117.526
| 24> C 	 -70.3673 	 54.5296 	 116.023
| 25> C 	 -69.9872 	 53.2323 	 116.253
| 26> C 	 -69.7135 	 52.9566 	 117.638
| 27> C 	 -69.8134 	 54.1267 	 118.431
| 28> H 	 -69.9161 	 52.5055 	 115.388
| 29> C 	 -69.081 	 51.6078 	 117.943
| 30> H 	 -68.5731 	 51.807 	 118.912
| 31> H 	 -68.2979 	 51.415 	 117.154
| 32> C 	 -70.1321 	 50.4393 	 118.145
| 33> H 	 -70.3306 	 50.0488 	 117.093
| 34> H 	 -71.1212 	 50.7532 	 118.447
| 35> C 	 -69.6416 	 49.2686 	 118.964
| 36> H 	 -68.7204 	 48.9734 	 118.451
| 37> H 	 -70.3115 	 48.4199 	 118.893
| 38> H 	 -69.5506 	 49.5286 	 120.051
| 39> H 	 -67.7118 	 55.0332 	 122.907
| 40> H 	 -70.5801 	 54.9652 	 115.021
| 41> *
| 42>
| 43>                          ****END OF INPUT****

CARTESIAN COORDINATES (ANGSTROEM)
---------------------------------
  S    -68.060800   53.928600  120.680000
  C    -68.413100   54.908200  122.084000
  C    -69.575500   55.593800  121.919000
  C    -70.253400   55.279900  120.710000
  C    -69.522300   54.429300  119.842000
  H    -71.104800   55.736300  120.340000
  C    -70.128600   56.628000  122.867000
  H    -70.860500   56.102600  123.422000
  H    -70.624500   57.406900  122.284000
  C    -69.080500   57.227300  123.848000
  H    -68.434800   56.425300  124.311000
  H    -68.436500   57.887400  123.276000
  C    -69.697900   58.086200  124.967000
  H    -70.390000   57.491200  125.583000
  H    -68.925200   58.484600  125.657000
  H    -70.240700   58.919600  124.554000
  S    -70.326900   55.444200  117.526000
  C    -70.367300   54.529600  116.023000
  C    -69.987200   53.232300  116.253000
  C    -69.713500   52.956600  117.638000
  C    -69.813400   54.126700  118.431000
  H    -69.916100   52.505500  115.388000
  C    -69.081000   51.607800  117.943000
  H    -68.573100   51.807000  118.912000
  H    -68.297900   51.415000  117.154000
  C    -70.132100   50.439300  118.145000
  H    -70.330600   50.048800  117.093000
  H    -71.121200   50.753200  118.447000
  C    -69.641600   49.268600  118.964000
  H    -68.720400   48.973400  118.451000
  H    -70.311500   48.419900  118.893000
  H    -69.550600   49.528600  120.051000
  H    -67.711800   55.033200  122.907000
  H    -70.580100   54.965200  115.021000

 Total Charge           Charge          ....    0
 Multiplicity           Mult            ....    1
 Number of Electrons    NEL             ....  134
 Basis Dimension        Dim             ....  322

ORBITAL ENERGIES
----------------

  NO   OCC          E(Eh)            E(eV)
   0   2.0000     -88.966582     -2420.9038
   1   2.0000     -88.965378     -2420.8710
   2   2.0000     -10.335799      -281.2514
   3   2.0000     -10.328714      -281.0586
   4   2.0000     -10.318541      -280.7818
   5   2.0000     -10.310379      -280.5597
   6   2.0000     -10.305099      -280.4160
   7   2.0000     -10.298711      -280.2422
   8   2.0000     -10.297719      -280.2152
   9   2.0000     -10.297447      -280.2078
  10   2.0000     -10.293567      -280.1022
  11   2.0000     -10.290616      -280.0219
  12   2.0000     -10.290263      -280.0123
  13   2.0000     -10.288250      -279.9575
  14   2.0000     -10.281574      -279.7758
  15   2.0000     -10.277051      -279.6528
  16   2.0000      -8.082348      -219.9319
  17   2.0000      -8.079586      -219.8567
  18   2.0000      -6.040841      -164.3796
  19   2.0000      -6.038189      -164.3075
  20   2.0000      -6.036577      -164.2636
  21   2.0000      -6.034028      -164.1942
  22   2.0000      -6.033178      -164.1711
  23   2.0000      -6.030434      -164.0965
  24   2.0000      -1.009612       -27.4729
  25   2.0000      -0.986574       -26.8460
  26   2.0000      -0.910539       -24.7770
  27   2.0000      -0.901775       -24.5386
  28   2.0000      -0.870569       -23.6894
  29   2.0000      -0.853964       -23.2375
  30   2.0000      -0.845716       -23.0131
  31   2.0000      -0.813581       -22.1387
  32   2.0000      -0.780306       -21.2332
  33   2.0000      -0.765029       -20.8175
  34   2.0000      -0.710803       -19.3419
  35   2.0000      -0.695252       -18.9188
  36   2.0000      -0.687018       -18.6947
  37   2.0000      -0.661387       -17.9973
  38   2.0000      -0.641034       -17.4434
  39   2.0000      -0.609065       -16.5735
  40   2.0000      -0.589946       -16.0532
  41   2.0000      -0.576390       -15.6844
  42   2.0000      -0.565130       -15.3780
  43   2.0000      -0.557423       -15.1682
  44   2.0000      -0.525478       -14.2990
  45   2.0000      -0.523176       -14.2363
  46   2.0000      -0.515759       -14.0345
  47   2.0000      -0.512638       -13.9496
  48   2.0000      -0.506720       -13.7885
  49   2.0000      -0.502651       -13.6778
  50   2.0000      -0.491788       -13.3822
  51   2.0000      -0.485901       -13.2220
  52   2.0000      -0.473340       -12.8802
  53   2.0000      -0.466123       -12.6839
  54   2.0000      -0.458639       -12.4802
  55   2.0000      -0.443246       -12.0613
  56   2.0000      -0.438839       -11.9414
  57   2.0000      -0.431910       -11.7529
  58   2.0000      -0.429729       -11.6935
  59   2.0000      -0.427477       -11.6322
  60   2.0000      -0.422153       -11.4874
  61   2.0000      -0.419674       -11.4199
  62   2.0000      -0.406114       -11.0509
  63   2.0000      -0.352290        -9.5863
  64   2.0000      -0.329444        -8.9646
  65   2.0000      -0.327760        -8.9188
  66   2.0000      -0.289455        -7.8765
  67   0.0000       0.029034         0.7900
  68   0.0000       0.076277         2.0756
  69   0.0000       0.117575         3.1994
  70   0.0000       0.119756         3.2587
  71   0.0000       0.124289         3.3821

MULLIKEN ATOMIC CHARGES
-----------------------
   0 S :    0.101716
   1 C :   -0.137480
   2 C :   -0.082540
   3 C :    0.036074
   4 C :   -0.129090
   5 H :   -0.017573
   6 C :    0.101462
   7 H :    0.028973
   8 H :    0.031947
   9 C :   -0.124407
  10 H :    0.041902
  11 H :    0.035344
  12 C :   -0.044447
  13 H :    0.029841
  14 H :    0.039642
  15 H :    0.029397
  16 S :    0.111113
  17 C :   -0.113478
  18 C :   -0.051793
  19 C :   -0.045844
  20 C :   -0.151028
  21 H :    0.045102
  22 C :    0.029284
  23 H :    0.019586
  24 H :    0.053953
  25 C :   -0.084143
  26 H :    0.022761
  27 H :    0.032177
  28 C :   -0.044082
  29 H :    0.030450
  30 H :    0.030203
  31 H :    0.052440
  32 H :    0.051845
  33 H :    0.070692
Sum of atomic charges:   -0.0000000

LOEWDIN ATOMIC CHARGES
----------------------
   0 S :    0.408022
   1 C :   -0.204858
   2 C :   -0.063110
   3 C :   -0.063376
   4 C :   -0.185610
   5 H :    0.013540
   6 C :   -0.024596
   7 H :    0.029828
   8 H :    0.033195
   9 C :   -0.042643
  10 H :    0.027268
  11 H :    0.024323
  12 C :   -0.065947
  13 H :    0.023880
  14 H :    0.030922
  15 H :    0.022117
  16 S :    0.443902
  17 C :   -0.197437
  18 C :   -0.075947
  19 C :   -0.063623
  20 C :   -0.223171
  21 H :    0.042874
  22 C :   -0.037598
  23 H :    0.021287
  24 H :    0.040546
  25 C :   -0.045019
  26 H :    0.026367
  27 H :    0.021170
  28 C :   -0.068411
  29 H :    0.027918
  30 H :    0.024722
  31 H :    0.032288
  32 H :    0.028758
  33 H :    0.038422

  Mayer bond orders larger than 0.100000
B(  0-S ,  1-C ) :   1.1287 B(  0-S ,  4-C ) :   1.1631 B(  1-C ,  2-C ) :   1.6159
B(  1-C , 32-H ) :   0.9635 B(  2-C ,  3-C ) :   1.2502 B(  2-C ,  6-C ) :   1.0043
B(  3-C ,  4-C ) :   1.5469 B(  3-C ,  5-H ) :   1.0052 B(  4-C , 20-C ) :   1.0382
B(  6-C ,  7-H ) :   0.9311 B(  6-C ,  8-H ) :   0.9440 B(  6-C ,  9-C ) :   1.0693
B(  9-C , 10-H ) :   0.9498 B(  9-C , 11-H ) :   0.9591 B(  9-C , 12-C ) :   1.0886
B( 12-C , 13-H ) :   0.9764 B( 12-C , 14-H ) :   0.9736 B( 12-C , 15-H ) :   0.9744
B( 16-S , 17-C ) :   1.1523 B( 16-S , 20-C ) :   1.1764 B( 17-C , 18-C ) :   1.6038
B( 17-C , 33-H ) :   0.9646 B( 18-C , 19-C ) :   1.2564 B( 18-C , 21-H ) :   0.9787
B( 19-C , 20-C ) :   1.5406 B( 19-C , 22-C ) :   1.0377 B( 22-C , 23-H ) :   0.9415
B( 22-C , 24-H ) :   0.9441 B( 22-C , 25-C ) :   1.0293 B( 25-C , 26-H ) :   0.9528
B( 25-C , 27-H ) :   0.9636 B( 25-C , 28-C ) :   1.0925 B( 28-C , 29-H ) :   0.9713
B( 28-C , 30-H ) :   0.9726 B( 28-C , 31-H ) :   0.9745

Dispersion correction           -0.013258240
FINAL SINGLE POINT ENERGY     -1339.884778903675

DIPOLE MOMENT
-------------
                                X             Y             Z
Electronic contribution:      2.01914       5.02690     -14.39760
Nuclear contribution   :     -2.11845      -4.94891      14.43507
                        -----------------------------------------
Total Dipole Moment    :     -0.09932       0.07799       0.03747
                        -----------------------------------------
Magnitude (a.u.)       :      0.13172
Magnitude (Debye)      :      0.33481

Rotational constants in cm-1:     0.022879     0.006950     0.005727
Rotational constants in MHz :   685.904410   208.366307   171.701571

                             ****ORCA TERMINATED NORMALLY****
TOTAL RUN TIME: 0 days 0 hours 0 minutes 31 seconds 738 msec
