                         Program Version 4.2.1 -  RELEASE  -
|  1> ! wB97X-D3 SP def2-SVP
|  2> %pal
|  3> nprocs 16
|  4> end
|  5>
|  6> * xyz 0 1
|  7> S 	 33.3478 	 12.225 	 70.9964
|  8> C 	 32.2429 	 12.388 	 69.6127
|  9> C 	 32.8266 	 11.9495 	 68.3835
| 10> C 	 34.1381 	 11.4654 	 68.6497
| 11> C 	 34.6475 	 11.6889 	 69.8927
| 12> H 	 34.8068 	 11.2001 	 67.8702
| 13> C 	 32.0723 	 11.9443 	 67.0873
| 14> H 	 31.0711 	 12.1031 	 67.4852
| 15> H 	 32.0071 	 11.0101 	 66.5896
| 16> C 	 32.4377 	 13.0326 	 66.069
| 17> H 	 32.4948 	 14.0032 	 66.5493
| 18> H 	 33.5089 	 12.7901 	 65.6798
| 19> C 	 31.4445 	 13.1053 	 64.871
| 20> H 	 30.4232 	 13.4166 	 65.1344
| 21> H 	 31.7526 	 13.8095 	 64.15
| 22> H 	 31.4283 	 12.1755 	 64.3238
| 23> S 	 36.4185 	 12.3535 	 71.8188
| 24> C 	 38.0264 	 11.7715 	 71.7661
| 25> C 	 38.189 	 10.8111 	 70.7556
| 26> C 	 37.0323 	 10.5544 	 69.9783
| 27> C 	 35.9645 	 11.3512 	 70.3954
| 28> H 	 39.1568 	 10.4554 	 70.7057
| 29> C 	 36.9228 	 9.49834 	 68.9393
| 30> H 	 37.9608 	 9.23706 	 68.8243
| 31> H 	 36.7153 	 9.86696 	 67.9509
| 32> C 	 36.0762 	 8.2691 	 69.3184
| 33> H 	 35.0298 	 8.52303 	 69.2872
| 34> H 	 36.2049 	 7.98627 	 70.3995
| 35> C 	 36.3515 	 7.05057 	 68.4405
| 36> H 	 35.6764 	 6.26316 	 68.7114
| 37> H 	 37.3766 	 6.77406 	 68.7523
| 38> H 	 36.2881 	 7.16465 	 67.3508
| 39> H 	 31.1764 	 12.6816 	 69.6769
| 40> H 	 38.903 	 12.0907 	 72.32
| 41> *
| 42>
| 43>                          ****END OF INPUT****

CARTESIAN COORDINATES (ANGSTROEM)
---------------------------------
  S     33.347800   12.225000   70.996400
  C     32.242900   12.388000   69.612700
  C     32.826600   11.949500   68.383500
  C     34.138100   11.465400   68.649700
  C     34.647500   11.688900   69.892700
  H     34.806800   11.200100   67.870200
  C     32.072300   11.944300   67.087300
  H     31.071100   12.103100   67.485200
  H     32.007100   11.010100   66.589600
  C     32.437700   13.032600   66.069000
  H     32.494800   14.003200   66.549300
  H     33.508900   12.790100   65.679800
  C     31.444500   13.105300   64.871000
  H     30.423200   13.416600   65.134400
  H     31.752600   13.809500   64.150000
  H     31.428300   12.175500   64.323800
  S     36.418500   12.353500   71.818800
  C     38.026400   11.771500   71.766100
  C     38.189000   10.811100   70.755600
  C     37.032300   10.554400   69.978300
  C     35.964500   11.351200   70.395400
  H     39.156800   10.455400   70.705700
  C     36.922800    9.498340   68.939300
  H     37.960800    9.237060   68.824300
  H     36.715300    9.866960   67.950900
  C     36.076200    8.269100   69.318400
  H     35.029800    8.523030   69.287200
  H     36.204900    7.986270   70.399500
  C     36.351500    7.050570   68.440500
  H     35.676400    6.263160   68.711400
  H     37.376600    6.774060   68.752300
  H     36.288100    7.164650   67.350800
  H     31.176400   12.681600   69.676900
  H     38.903000   12.090700   72.320000

 Total Charge           Charge          ....    0
 Multiplicity           Mult            ....    1
 Number of Electrons    NEL             ....  134
 Basis Dimension        Dim             ....  322

ORBITAL ENERGIES
----------------

  NO   OCC          E(Eh)            E(eV)
   0   2.0000     -88.968196     -2420.9477
   1   2.0000     -88.965972     -2420.8872
   2   2.0000     -10.330988      -281.1205
   3   2.0000     -10.329289      -281.0742
   4   2.0000     -10.321513      -280.8627
   5   2.0000     -10.315611      -280.7020
   6   2.0000     -10.305717      -280.4328
   7   2.0000     -10.305059      -280.4149
   8   2.0000     -10.296540      -280.1831
   9   2.0000     -10.289539      -279.9926
  10   2.0000     -10.289176      -279.9827
  11   2.0000     -10.288817      -279.9730
  12   2.0000     -10.287211      -279.9292
  13   2.0000     -10.286765      -279.9171
  14   2.0000     -10.278231      -279.6849
  15   2.0000     -10.277709      -279.6707
  16   2.0000      -8.081762      -219.9159
  17   2.0000      -8.080666      -219.8861
  18   2.0000      -6.040433      -164.3685
  19   2.0000      -6.039090      -164.3320
  20   2.0000      -6.036560      -164.2631
  21   2.0000      -6.035104      -164.2235
  22   2.0000      -6.032288      -164.1469
  23   2.0000      -6.031594      -164.1280
  24   2.0000      -1.004024       -27.3209
  25   2.0000      -0.978944       -26.6384
  26   2.0000      -0.912848       -24.8399
  27   2.0000      -0.910466       -24.7750
  28   2.0000      -0.866300       -23.5732
  29   2.0000      -0.857204       -23.3257
  30   2.0000      -0.844902       -22.9909
  31   2.0000      -0.817137       -22.2354
  32   2.0000      -0.786376       -21.3984
  33   2.0000      -0.770488       -20.9660
  34   2.0000      -0.711167       -19.3518
  35   2.0000      -0.701199       -19.0806
  36   2.0000      -0.691969       -18.8294
  37   2.0000      -0.665818       -18.1178
  38   2.0000      -0.638162       -17.3653
  39   2.0000      -0.623400       -16.9636
  40   2.0000      -0.595694       -16.2097
  41   2.0000      -0.577073       -15.7030
  42   2.0000      -0.564126       -15.3506
  43   2.0000      -0.550181       -14.9712
  44   2.0000      -0.530417       -14.4334
  45   2.0000      -0.521766       -14.1980
  46   2.0000      -0.517006       -14.0685
  47   2.0000      -0.513883       -13.9835
  48   2.0000      -0.505790       -13.7632
  49   2.0000      -0.498193       -13.5565
  50   2.0000      -0.493541       -13.4299
  51   2.0000      -0.484138       -13.1741
  52   2.0000      -0.468510       -12.7488
  53   2.0000      -0.458440       -12.4748
  54   2.0000      -0.456344       -12.4178
  55   2.0000      -0.448015       -12.1911
  56   2.0000      -0.442750       -12.0478
  57   2.0000      -0.442164       -12.0319
  58   2.0000      -0.437445       -11.9035
  59   2.0000      -0.431083       -11.7304
  60   2.0000      -0.422773       -11.5042
  61   2.0000      -0.415636       -11.3100
  62   2.0000      -0.406782       -11.0691
  63   2.0000      -0.356924        -9.7124
  64   2.0000      -0.335928        -9.1411
  65   2.0000      -0.331148        -9.0110
  66   2.0000      -0.276553        -7.5254
  67   0.0000       0.017641         0.4800
  68   0.0000       0.072727         1.9790
  69   0.0000       0.096629         2.6294
  70   0.0000       0.118926         3.2361
  71   0.0000       0.139997         3.8095

MULLIKEN ATOMIC CHARGES
-----------------------
   0 S :    0.097823
   1 C :   -0.130206
   2 C :   -0.098578
   3 C :    0.001679
   4 C :   -0.085742
   5 H :   -0.007108
   6 C :    0.095728
   7 H :    0.002281
   8 H :    0.020775
   9 C :   -0.097698
  10 H :    0.033093
  11 H :    0.039213
  12 C :   -0.025739
  13 H :    0.034176
  14 H :    0.022860
  15 H :    0.024754
  16 S :    0.096005
  17 C :   -0.081930
  18 C :   -0.039758
  19 C :   -0.043279
  20 C :   -0.133044
  21 H :   -0.014183
  22 C :    0.097666
  23 H :   -0.005136
  24 H :    0.023533
  25 C :   -0.068823
  26 H :    0.029949
  27 H :    0.038265
  28 C :   -0.046334
  29 H :    0.032177
  30 H :    0.031785
  31 H :    0.037107
  32 H :    0.062305
  33 H :    0.056387
Sum of atomic charges:   -0.0000000

LOEWDIN ATOMIC CHARGES
----------------------
   0 S :    0.375480
   1 C :   -0.196719
   2 C :   -0.054750
   3 C :   -0.069650
   4 C :   -0.176355
   5 H :    0.023930
   6 C :   -0.034961
   7 H :    0.031128
   8 H :    0.026696
   9 C :   -0.038220
  10 H :    0.023519
  11 H :    0.031527
  12 C :   -0.064875
  13 H :    0.027473
  14 H :    0.022068
  15 H :    0.023558
  16 S :    0.405013
  17 C :   -0.197968
  18 C :   -0.067880
  19 C :   -0.054948
  20 C :   -0.172875
  21 H :    0.018925
  22 C :   -0.033404
  23 H :    0.028373
  24 H :    0.027787
  25 C :   -0.038178
  26 H :    0.020522
  27 H :    0.034059
  28 C :   -0.064660
  29 H :    0.025118
  30 H :    0.028309
  31 H :    0.025430
  32 H :    0.032679
  33 H :    0.033849

  Mayer bond orders larger than 0.100000
B(  0-S ,  1-C ) :   1.1319 B(  0-S ,  4-C ) :   1.1186 B(  1-C ,  2-C ) :   1.6072
B(  1-C ,  4-C ) :   0.1018 B(  1-C , 32-H ) :   0.9559 B(  2-C ,  3-C ) :   1.2461
B(  2-C ,  6-C ) :   1.0270 B(  3-C ,  4-C ) :   1.6009 B(  3-C ,  5-H ) :   0.9912
B(  4-C , 20-C ) :   1.0755 B(  6-C ,  7-H ) :   0.9327 B(  6-C ,  8-H ) :   0.9400
B(  6-C ,  9-C ) :   1.0548 B(  9-C , 10-H ) :   0.9572 B(  9-C , 11-H ) :   0.9558
B(  9-C , 12-C ) :   1.0805 B( 12-C , 13-H ) :   0.9754 B( 12-C , 14-H ) :   0.9734
B( 12-C , 15-H ) :   0.9735 B( 16-S , 17-C ) :   1.1678 B( 16-S , 20-C ) :   1.1319
B( 17-C , 18-C ) :   1.6044 B( 17-C , 20-C ) :   0.1027 B( 17-C , 33-H ) :   0.9629
B( 18-C , 19-C ) :   1.2432 B( 18-C , 21-H ) :   1.0036 B( 19-C , 20-C ) :   1.5542
B( 19-C , 22-C ) :   1.0457 B( 22-C , 23-H ) :   0.9228 B( 22-C , 24-H ) :   0.9220
B( 22-C , 25-C ) :   1.0523 B( 25-C , 26-H ) :   0.9515 B( 25-C , 27-H ) :   0.9557
B( 25-C , 28-C ) :   1.0807 B( 28-C , 29-H ) :   0.9734 B( 28-C , 30-H ) :   0.9784
B( 28-C , 31-H ) :   0.9757

Dispersion correction           -0.013743337
FINAL SINGLE POINT ENERGY     -1339.871695837593

DIPOLE MOMENT
-------------
                                X             Y             Z
Electronic contribution:      5.25751      11.66561      26.00788
Nuclear contribution   :     -5.15593     -11.95409     -26.64496
                        -----------------------------------------
Total Dipole Moment    :      0.10158      -0.28849      -0.63708
                        -----------------------------------------
Magnitude (a.u.)       :      0.70669
Magnitude (Debye)      :      1.79627

Rotational constants in cm-1:     0.017693     0.008249     0.006491
Rotational constants in MHz :   530.418581   247.294288   194.606524

                             ****ORCA TERMINATED NORMALLY****
TOTAL RUN TIME: 0 days 0 hours 0 minutes 29 seconds 604 msec
