                         Program Version 4.2.1 -  RELEASE  -
|  1> ! wB97X-D3 SP def2-SVP
|  2> %pal
|  3> nprocs 16
|  4> end
|  5>
|  6> * xyz 0 1
|  7> S 	 -36.8198 	 60.0637 	 111.206
|  8> C 	 -35.0942 	 60.3817 	 111.448
|  9> C 	 -34.5457 	 59.3604 	 112.223
| 10> C 	 -35.4535 	 58.3366 	 112.529
| 11> C 	 -36.703 	 58.4721 	 111.928
| 12> H 	 -35.3437 	 57.3771 	 113.058
| 13> C 	 -33.0708 	 59.3285 	 112.708
| 14> H 	 -32.8187 	 58.3829 	 113.258
| 15> H 	 -32.8448 	 60.2221 	 113.215
| 16> C 	 -32.0753 	 59.3581 	 111.482
| 17> H 	 -32.0453 	 60.2839 	 110.893
| 18> H 	 -31.0609 	 59.2721 	 111.77
| 19> C 	 -32.3745 	 58.2142 	 110.45
| 20> H 	 -33.3385 	 58.4266 	 109.924
| 21> H 	 -31.5935 	 58.195 	 109.679
| 22> H 	 -32.4155 	 57.1535 	 110.897
| 23> S 	 -39.0663 	 58.0462 	 113.167
| 24> C 	 -39.7901 	 56.4588 	 112.952
| 25> C 	 -39.0929 	 55.6595 	 112.157
| 26> C 	 -37.9174 	 56.2552 	 111.636
| 27> C 	 -37.7884 	 57.5667 	 112.14
| 28> H 	 -39.4578 	 54.6588 	 111.991
| 29> C 	 -36.9423 	 55.5149 	 110.78
| 30> H 	 -37.2116 	 54.5226 	 110.92
| 31> H 	 -35.9491 	 55.8148 	 111.228
| 32> C 	 -37.0416 	 55.9147 	 109.233
| 33> H 	 -36.1278 	 55.8388 	 108.652
| 34> H 	 -37.1903 	 56.9965 	 109.132
| 35> C 	 -38.0747 	 55.004 	 108.473
| 36> H 	 -38.1779 	 55.1973 	 107.434
| 37> H 	 -38.9711 	 54.9523 	 109.053
| 38> H 	 -37.6213 	 53.9652 	 108.407
| 39> H 	 -34.4721 	 61.2314 	 111.283
| 40> H 	 -40.748 	 56.1867 	 113.324
| 41> *
| 42>
| 43>                          ****END OF INPUT****

CARTESIAN COORDINATES (ANGSTROEM)
---------------------------------
  S    -36.819800   60.063700  111.206000
  C    -35.094200   60.381700  111.448000
  C    -34.545700   59.360400  112.223000
  C    -35.453500   58.336600  112.529000
  C    -36.703000   58.472100  111.928000
  H    -35.343700   57.377100  113.058000
  C    -33.070800   59.328500  112.708000
  H    -32.818700   58.382900  113.258000
  H    -32.844800   60.222100  113.215000
  C    -32.075300   59.358100  111.482000
  H    -32.045300   60.283900  110.893000
  H    -31.060900   59.272100  111.770000
  C    -32.374500   58.214200  110.450000
  H    -33.338500   58.426600  109.924000
  H    -31.593500   58.195000  109.679000
  H    -32.415500   57.153500  110.897000
  S    -39.066300   58.046200  113.167000
  C    -39.790100   56.458800  112.952000
  C    -39.092900   55.659500  112.157000
  C    -37.917400   56.255200  111.636000
  C    -37.788400   57.566700  112.140000
  H    -39.457800   54.658800  111.991000
  C    -36.942300   55.514900  110.780000
  H    -37.211600   54.522600  110.920000
  H    -35.949100   55.814800  111.228000
  C    -37.041600   55.914700  109.233000
  H    -36.127800   55.838800  108.652000
  H    -37.190300   56.996500  109.132000
  C    -38.074700   55.004000  108.473000
  H    -38.177900   55.197300  107.434000
  H    -38.971100   54.952300  109.053000
  H    -37.621300   53.965200  108.407000
  H    -34.472100   61.231400  111.283000
  H    -40.748000   56.186700  113.324000

 Total Charge           Charge          ....    0
 Multiplicity           Mult            ....    1
 Number of Electrons    NEL             ....  134
 Basis Dimension        Dim             ....  322

ORBITAL ENERGIES
----------------

  NO   OCC          E(Eh)            E(eV)
   0   2.0000     -88.970864     -2421.0203
   1   2.0000     -88.966702     -2420.9070
   2   2.0000     -10.324783      -280.9516
   3   2.0000     -10.319595      -280.8104
   4   2.0000     -10.314739      -280.6783
   5   2.0000     -10.307860      -280.4911
   6   2.0000     -10.302777      -280.3528
   7   2.0000     -10.300430      -280.2889
   8   2.0000     -10.299097      -280.2527
   9   2.0000     -10.293237      -280.0932
  10   2.0000     -10.292400      -280.0704
  11   2.0000     -10.288861      -279.9741
  12   2.0000     -10.288259      -279.9577
  13   2.0000     -10.285954      -279.8950
  14   2.0000     -10.283208      -279.8203
  15   2.0000     -10.278407      -279.6897
  16   2.0000      -8.084546      -219.9917
  17   2.0000      -8.082201      -219.9279
  18   2.0000      -6.043101      -164.4411
  19   2.0000      -6.040535      -164.3713
  20   2.0000      -6.039125      -164.3329
  21   2.0000      -6.036721      -164.2675
  22   2.0000      -6.035372      -164.2308
  23   2.0000      -6.032981      -164.1658
  24   2.0000      -1.012174       -27.5427
  25   2.0000      -0.986336       -26.8396
  26   2.0000      -0.905136       -24.6300
  27   2.0000      -0.902839       -24.5675
  28   2.0000      -0.873104       -23.7584
  29   2.0000      -0.848122       -23.0786
  30   2.0000      -0.841485       -22.8980
  31   2.0000      -0.815375       -22.1875
  32   2.0000      -0.780444       -21.2370
  33   2.0000      -0.768402       -20.9093
  34   2.0000      -0.714846       -19.4520
  35   2.0000      -0.700561       -19.0632
  36   2.0000      -0.694563       -18.9000
  37   2.0000      -0.662736       -18.0340
  38   2.0000      -0.638704       -17.3800
  39   2.0000      -0.609353       -16.5813
  40   2.0000      -0.588480       -16.0134
  41   2.0000      -0.572490       -15.5783
  42   2.0000      -0.559044       -15.2124
  43   2.0000      -0.551652       -15.0112
  44   2.0000      -0.542768       -14.7695
  45   2.0000      -0.536350       -14.5948
  46   2.0000      -0.510723       -13.8975
  47   2.0000      -0.507830       -13.8188
  48   2.0000      -0.500110       -13.6087
  49   2.0000      -0.494101       -13.4452
  50   2.0000      -0.483054       -13.1446
  51   2.0000      -0.475862       -12.9489
  52   2.0000      -0.471971       -12.8430
  53   2.0000      -0.465389       -12.6639
  54   2.0000      -0.457427       -12.4472
  55   2.0000      -0.450698       -12.2641
  56   2.0000      -0.438302       -11.9268
  57   2.0000      -0.435664       -11.8550
  58   2.0000      -0.432872       -11.7790
  59   2.0000      -0.430938       -11.7264
  60   2.0000      -0.425883       -11.5889
  61   2.0000      -0.415360       -11.3025
  62   2.0000      -0.406289       -11.0557
  63   2.0000      -0.345466        -9.4006
  64   2.0000      -0.332769        -9.0551
  65   2.0000      -0.324214        -8.8223
  66   2.0000      -0.296923        -8.0797
  67   0.0000       0.032773         0.8918
  68   0.0000       0.059160         1.6098
  69   0.0000       0.114409         3.1132
  70   0.0000       0.122692         3.3386
  71   0.0000       0.132038         3.5929

MULLIKEN ATOMIC CHARGES
-----------------------
   0 S :    0.124240
   1 C :   -0.094192
   2 C :   -0.095426
   3 C :    0.028463
   4 C :   -0.197974
   5 H :    0.025071
   6 C :    0.105973
   7 H :    0.043220
   8 H :    0.029336
   9 C :   -0.094081
  10 H :    0.024866
  11 H :    0.020372
  12 C :   -0.101411
  13 H :    0.054929
  14 H :    0.031750
  15 H :    0.038820
  16 S :    0.129176
  17 C :   -0.071908
  18 C :   -0.034318
  19 C :   -0.052893
  20 C :   -0.189588
  21 H :    0.013341
  22 C :    0.116560
  23 H :    0.003700
  24 H :    0.040209
  25 C :   -0.062842
  26 H :    0.022148
  27 H :    0.031937
  28 C :   -0.052863
  29 H :    0.033203
  30 H :    0.034551
  31 H :    0.027395
  32 H :    0.032946
  33 H :    0.035290
Sum of atomic charges:   -0.0000000

LOEWDIN ATOMIC CHARGES
----------------------
   0 S :    0.408422
   1 C :   -0.198215
   2 C :   -0.061025
   3 C :   -0.066671
   4 C :   -0.202435
   5 H :    0.036592
   6 C :   -0.020807
   7 H :    0.038926
   8 H :    0.025999
   9 C :   -0.042837
  10 H :    0.022434
  11 H :    0.016163
  12 C :   -0.078312
  13 H :    0.030204
  14 H :    0.022301
  15 H :    0.028383
  16 S :    0.424397
  17 C :   -0.175030
  18 C :   -0.074937
  19 C :   -0.050978
  20 C :   -0.221490
  21 H :    0.032927
  22 C :   -0.022954
  23 H :    0.019378
  24 H :    0.043188
  25 C :   -0.037557
  26 H :    0.021784
  27 H :    0.024243
  28 C :   -0.064972
  29 H :    0.022294
  30 H :    0.019321
  31 H :    0.031368
  32 H :    0.027579
  33 H :    0.022319

  Mayer bond orders larger than 0.100000
B(  0-S ,  1-C ) :   1.1367 B(  0-S ,  4-C ) :   1.1490 B(  1-C ,  2-C ) :   1.5897
B(  1-C ,  4-C ) :   0.1104 B(  1-C , 32-H ) :   0.9695 B(  2-C ,  3-C ) :   1.2591
B(  2-C ,  6-C ) :   1.0122 B(  3-C ,  4-C ) :   1.5644 B(  3-C ,  5-H ) :   0.9851
B(  4-C , 20-C ) :   1.0460 B(  6-C ,  7-H ) :   0.9519 B(  6-C ,  8-H ) :   0.9375
B(  6-C ,  9-C ) :   1.0638 B(  9-C , 10-H ) :   0.9553 B(  9-C , 11-H ) :   0.9615
B(  9-C , 12-C ) :   1.0692 B( 12-C , 13-H ) :   0.9716 B( 12-C , 14-H ) :   0.9757
B( 12-C , 15-H ) :   0.9779 B( 16-S , 17-C ) :   1.1398 B( 16-S , 20-C ) :   1.1684
B( 17-C , 18-C ) :   1.6460 B( 17-C , 33-H ) :   0.9644 B( 18-C , 19-C ) :   1.2413
B( 18-C , 21-H ) :   0.9872 B( 19-C , 20-C ) :   1.5692 B( 19-C , 22-C ) :   1.0359
B( 22-C , 23-H ) :   0.9352 B( 22-C , 24-H ) :   0.9244 B( 22-C , 25-C ) :   1.0478
B( 25-C , 26-H ) :   0.9604 B( 25-C , 27-H ) :   0.9639 B( 25-C , 28-C ) :   1.0639
B( 28-C , 29-H ) :   0.9751 B( 28-C , 30-H ) :   0.9811 B( 28-C , 31-H ) :   0.9748

Dispersion correction           -0.015378295
FINAL SINGLE POINT ENERGY     -1339.861805838789

DIPOLE MOMENT
-------------
                                X             Y             Z
Electronic contribution:    -18.89931      12.59344      13.48587
Nuclear contribution   :     19.30822     -12.96006     -13.51593
                        -----------------------------------------
Total Dipole Moment    :      0.40891      -0.36662      -0.03006
                        -----------------------------------------
Magnitude (a.u.)       :      0.55002
Magnitude (Debye)      :      1.39804

Rotational constants in cm-1:     0.019421     0.009178     0.007363
Rotational constants in MHz :   582.212660   275.143443   220.744051

                             ****ORCA TERMINATED NORMALLY****
TOTAL RUN TIME: 0 days 0 hours 0 minutes 31 seconds 413 msec
