                         Program Version 4.2.1 -  RELEASE  -
|  1> ! wB97X-D3 SP def2-SVP
|  2> %pal
|  3> nprocs 16
|  4> end
|  5>
|  6> * xyz 0 1
|  7> S 	 -12.2385 	 45.7686 	 41.689
|  8> C 	 -12.7504 	 46.106 	 40.1134
|  9> C 	 -11.6885 	 46.2705 	 39.2338
| 10> C 	 -10.4243 	 46.2064 	 39.8928
| 11> C 	 -10.5552 	 46.0157 	 41.2572
| 12> H 	 -9.48067 	 46.3676 	 39.3875
| 13> C 	 -11.7179 	 46.457 	 37.7303
| 14> H 	 -10.7226 	 46.6913 	 37.3424
| 15> H 	 -12.1893 	 47.4302 	 37.5209
| 16> C 	 -12.3552 	 45.2774 	 36.8884
| 17> H 	 -11.9551 	 44.2926 	 37.2318
| 18> H 	 -13.4421 	 45.3493 	 36.9839
| 19> C 	 -12.0038 	 45.4158 	 35.4658
| 20> H 	 -12.3477 	 44.6051 	 34.9177
| 21> H 	 -12.5273 	 46.3799 	 35.1804
| 22> H 	 -10.9279 	 45.4653 	 35.3441
| 23> S 	 -9.73193 	 44.704 	 43.434
| 24> C 	 -8.12529 	 44.9079 	 44.0975
| 25> C 	 -7.51152 	 45.9685 	 43.4606
| 26> C 	 -8.26138 	 46.5615 	 42.409
| 27> C 	 -9.48973 	 45.9598 	 42.2657
| 28> H 	 -6.50298 	 46.2461 	 43.7362
| 29> C 	 -7.7458 	 47.7115 	 41.6258
| 30> H 	 -7.52969 	 48.5062 	 42.4009
| 31> H 	 -8.58289 	 48.0765 	 41.0243
| 32> C 	 -6.61627 	 47.4314 	 40.6837
| 33> H 	 -6.65101 	 46.4237 	 40.2212
| 34> H 	 -5.72405 	 47.4982 	 41.2863
| 35> C 	 -6.33554 	 48.4725 	 39.6264
| 36> H 	 -6.19733 	 49.5144 	 40.0012
| 37> H 	 -7.14647 	 48.6749 	 38.9217
| 38> H 	 -5.40399 	 48.2226 	 39.0759
| 39> H 	 -13.8189 	 46.189 	 39.7785
| 40> H 	 -7.63799 	 44.2535 	 44.8697
| 41> *
| 42>
| 43>                          ****END OF INPUT****

CARTESIAN COORDINATES (ANGSTROEM)
---------------------------------
  S    -12.238500   45.768600   41.689000
  C    -12.750400   46.106000   40.113400
  C    -11.688500   46.270500   39.233800
  C    -10.424300   46.206400   39.892800
  C    -10.555200   46.015700   41.257200
  H     -9.480670   46.367600   39.387500
  C    -11.717900   46.457000   37.730300
  H    -10.722600   46.691300   37.342400
  H    -12.189300   47.430200   37.520900
  C    -12.355200   45.277400   36.888400
  H    -11.955100   44.292600   37.231800
  H    -13.442100   45.349300   36.983900
  C    -12.003800   45.415800   35.465800
  H    -12.347700   44.605100   34.917700
  H    -12.527300   46.379900   35.180400
  H    -10.927900   45.465300   35.344100
  S     -9.731930   44.704000   43.434000
  C     -8.125290   44.907900   44.097500
  C     -7.511520   45.968500   43.460600
  C     -8.261380   46.561500   42.409000
  C     -9.489730   45.959800   42.265700
  H     -6.502980   46.246100   43.736200
  C     -7.745800   47.711500   41.625800
  H     -7.529690   48.506200   42.400900
  H     -8.582890   48.076500   41.024300
  C     -6.616270   47.431400   40.683700
  H     -6.651010   46.423700   40.221200
  H     -5.724050   47.498200   41.286300
  C     -6.335540   48.472500   39.626400
  H     -6.197330   49.514400   40.001200
  H     -7.146470   48.674900   38.921700
  H     -5.403990   48.222600   39.075900
  H    -13.818900   46.189000   39.778500
  H     -7.637990   44.253500   44.869700

 Total Charge           Charge          ....    0
 Multiplicity           Mult            ....    1
 Number of Electrons    NEL             ....  134
 Basis Dimension        Dim             ....  322

ORBITAL ENERGIES
----------------

  NO   OCC          E(Eh)            E(eV)
   0   2.0000     -88.967847     -2420.9382
   1   2.0000     -88.961505     -2420.7656
   2   2.0000     -10.329585      -281.0823
   3   2.0000     -10.324167      -280.9349
   4   2.0000     -10.319941      -280.8199
   5   2.0000     -10.313066      -280.6328
   6   2.0000     -10.298285      -280.2306
   7   2.0000     -10.298165      -280.2273
   8   2.0000     -10.293840      -280.1096
   9   2.0000     -10.292200      -280.0650
  10   2.0000     -10.291358      -280.0421
  11   2.0000     -10.290304      -280.0134
  12   2.0000     -10.287867      -279.9471
  13   2.0000     -10.285891      -279.8933
  14   2.0000     -10.282400      -279.7983
  15   2.0000     -10.272544      -279.5301
  16   2.0000      -8.083428      -219.9613
  17   2.0000      -8.076956      -219.7851
  18   2.0000      -6.041930      -164.4093
  19   2.0000      -6.037763      -164.2959
  20   2.0000      -6.035456      -164.2331
  21   2.0000      -6.034212      -164.1993
  22   2.0000      -6.031314      -164.1204
  23   2.0000      -6.027721      -164.0226
  24   2.0000      -1.011781       -27.5320
  25   2.0000      -0.988802       -26.9067
  26   2.0000      -0.917499       -24.9664
  27   2.0000      -0.912398       -24.8276
  28   2.0000      -0.871016       -23.7015
  29   2.0000      -0.859714       -23.3940
  30   2.0000      -0.852413       -23.1953
  31   2.0000      -0.813962       -22.1490
  32   2.0000      -0.780002       -21.2249
  33   2.0000      -0.768839       -20.9212
  34   2.0000      -0.703418       -19.1410
  35   2.0000      -0.697701       -18.9854
  36   2.0000      -0.689541       -18.7634
  37   2.0000      -0.665695       -18.1145
  38   2.0000      -0.636752       -17.3269
  39   2.0000      -0.619934       -16.8693
  40   2.0000      -0.595593       -16.2069
  41   2.0000      -0.571970       -15.5641
  42   2.0000      -0.569455       -15.4956
  43   2.0000      -0.563765       -15.3408
  44   2.0000      -0.533500       -14.5173
  45   2.0000      -0.531853       -14.4725
  46   2.0000      -0.517260       -14.0754
  47   2.0000      -0.513609       -13.9760
  48   2.0000      -0.503851       -13.7105
  49   2.0000      -0.496680       -13.5153
  50   2.0000      -0.493584       -13.4311
  51   2.0000      -0.484530       -13.1847
  52   2.0000      -0.474153       -12.9024
  53   2.0000      -0.462872       -12.5954
  54   2.0000      -0.457717       -12.4551
  55   2.0000      -0.450231       -12.2514
  56   2.0000      -0.444452       -12.0941
  57   2.0000      -0.436757       -11.8848
  58   2.0000      -0.430032       -11.7018
  59   2.0000      -0.427084       -11.6216
  60   2.0000      -0.420363       -11.4387
  61   2.0000      -0.414446       -11.2777
  62   2.0000      -0.408252       -11.1091
  63   2.0000      -0.355946        -9.6858
  64   2.0000      -0.333286        -9.0692
  65   2.0000      -0.327291        -8.9060
  66   2.0000      -0.284506        -7.7418
  67   0.0000       0.030759         0.8370
  68   0.0000       0.075019         2.0414
  69   0.0000       0.107620         2.9285
  70   0.0000       0.124408         3.3853
  71   0.0000       0.126478         3.4416

MULLIKEN ATOMIC CHARGES
-----------------------
   0 S :    0.124563
   1 C :   -0.130480
   2 C :   -0.085777
   3 C :    0.014344
   4 C :   -0.132275
   5 H :    0.008728
   6 C :    0.042280
   7 H :    0.002390
   8 H :    0.029171
   9 C :   -0.076248
  10 H :    0.038221
  11 H :    0.032723
  12 C :   -0.021181
  13 H :    0.023954
  14 H :    0.030669
  15 H :    0.027982
  16 S :    0.088096
  17 C :   -0.105633
  18 C :   -0.034921
  19 C :   -0.054668
  20 C :   -0.123942
  21 H :    0.011675
  22 C :    0.055430
  23 H :    0.046247
  24 H :    0.013356
  25 C :   -0.055283
  26 H :    0.045186
  27 H :    0.021516
  28 C :   -0.068107
  29 H :    0.024099
  30 H :    0.023439
  31 H :    0.042684
  32 H :    0.064169
  33 H :    0.077592
Sum of atomic charges:   -0.0000000

LOEWDIN ATOMIC CHARGES
----------------------
   0 S :    0.430253
   1 C :   -0.225975
   2 C :   -0.066972
   3 C :   -0.064156
   4 C :   -0.192438
   5 H :    0.030983
   6 C :   -0.037944
   7 H :    0.025040
   8 H :    0.033472
   9 C :   -0.038317
  10 H :    0.027737
  11 H :    0.023557
  12 C :   -0.060542
  13 H :    0.016853
  14 H :    0.032902
  15 H :    0.022861
  16 S :    0.406533
  17 C :   -0.194229
  18 C :   -0.070928
  19 C :   -0.065675
  20 C :   -0.194758
  21 H :    0.028725
  22 C :   -0.037447
  23 H :    0.043532
  24 H :    0.027504
  25 C :   -0.048208
  26 H :    0.031903
  27 H :    0.026114
  28 C :   -0.073629
  29 H :    0.027855
  30 H :    0.018981
  31 H :    0.032354
  32 H :    0.040573
  33 H :    0.043487

  Mayer bond orders larger than 0.100000
B(  0-S ,  1-C ) :   1.1502 B(  0-S ,  4-C ) :   1.1646 B(  1-C ,  2-C ) :   1.5933
B(  1-C , 32-H ) :   0.9631 B(  2-C ,  3-C ) :   1.2705 B(  2-C ,  6-C ) :   1.0255
B(  3-C ,  4-C ) :   1.5460 B(  3-C ,  5-H ) :   0.9968 B(  4-C , 20-C ) :   1.0194
B(  6-C ,  7-H ) :   0.9459 B(  6-C ,  8-H ) :   0.9289 B(  6-C ,  9-C ) :   1.0506
B(  9-C , 10-H ) :   0.9588 B(  9-C , 11-H ) :   0.9533 B(  9-C , 12-C ) :   1.0947
B( 12-C , 13-H ) :   0.9713 B( 12-C , 14-H ) :   0.9725 B( 12-C , 15-H ) :   0.9741
B( 16-S , 17-C ) :   1.1498 B( 16-S , 20-C ) :   1.1458 B( 17-C , 18-C ) :   1.6041
B( 17-C , 33-H ) :   0.9635 B( 18-C , 19-C ) :   1.2334 B( 18-C , 21-H ) :   0.9932
B( 19-C , 20-C ) :   1.6041 B( 19-C , 22-C ) :   1.0526 B( 22-C , 23-H ) :   0.9266
B( 22-C , 24-H ) :   0.9357 B( 22-C , 25-C ) :   1.0567 B( 25-C , 26-H ) :   0.9566
B( 25-C , 27-H ) :   0.9446 B( 25-C , 28-C ) :   1.0941 B( 28-C , 29-H ) :   0.9694
B( 28-C , 30-H ) :   0.9731 B( 28-C , 31-H ) :   0.9734

Dispersion correction           -0.013708990
FINAL SINGLE POINT ENERGY     -1339.885058807310

DIPOLE MOMENT
-------------
                                X             Y             Z
Electronic contribution:    -10.10984      -9.87985      27.36232
Nuclear contribution   :     10.49469      10.09880     -27.88176
                        -----------------------------------------
Total Dipole Moment    :      0.38486       0.21895      -0.51943
                        -----------------------------------------
Magnitude (a.u.)       :      0.68254
Magnitude (Debye)      :      1.73488

Rotational constants in cm-1:     0.017662     0.008607     0.006296
Rotational constants in MHz :   529.480379   258.017778   188.758734

                             ****ORCA TERMINATED NORMALLY****
TOTAL RUN TIME: 0 days 0 hours 0 minutes 33 seconds 424 msec
