                         Program Version 4.2.1 -  RELEASE  -
|  1> ! wB97X-D3 SP def2-SVP
|  2> %pal
|  3> nprocs 16
|  4> end
|  5>
|  6> * xyz 0 1
|  7> S 	 67.4066 	 -7.76762 	 87.6188
|  8> C 	 66.1397 	 -7.77788 	 88.8202
|  9> C 	 66.0379 	 -6.56259 	 89.4895
| 10> C 	 67.088 	 -5.67108 	 89.2162
| 11> C 	 67.9811 	 -6.25133 	 88.309
| 12> H 	 67.2456 	 -4.6281 	 89.4371
| 13> C 	 64.9283 	 -6.25336 	 90.4001
| 14> H 	 64.2766 	 -7.15339 	 90.5025
| 15> H 	 64.3027 	 -5.52403 	 89.8798
| 16> C 	 65.3304 	 -5.83314 	 91.7564
| 17> H 	 65.717 	 -6.6979 	 92.3047
| 18> H 	 66.083 	 -5.16432 	 91.9307
| 19> C 	 64.1091 	 -5.42064 	 92.6036
| 20> H 	 64.3624 	 -4.81274 	 93.5056
| 21> H 	 63.4695 	 -4.76411 	 92.0624
| 22> H 	 63.5173 	 -6.23144 	 92.9678
| 23> S 	 70.6634 	 -6.75461 	 88.0464
| 24> C 	 71.8306 	 -5.44305 	 87.7486
| 25> C 	 71.1461 	 -4.22853 	 87.3282
| 26> C 	 69.6934 	 -4.41432 	 87.3952
| 27> C 	 69.2801 	 -5.6977 	 87.8046
| 28> H 	 71.6652 	 -3.31365 	 87.2226
| 29> C 	 68.7312 	 -3.2188 	 87.2786
| 30> H 	 67.712 	 -3.47203 	 86.994
| 31> H 	 68.958 	 -2.73744 	 86.3219
| 32> C 	 68.758 	 -2.22634 	 88.4944
| 33> H 	 69.74 	 -1.71179 	 88.5575
| 34> H 	 68.7164 	 -2.73204 	 89.47
| 35> C 	 67.6687 	 -1.13967 	 88.375
| 36> H 	 66.6472 	 -1.39122 	 88.7357
| 37> H 	 67.5145 	 -0.80577 	 87.3128
| 38> H 	 67.9186 	 -0.213541 	 88.9001
| 39> H 	 65.4168 	 -8.56606 	 88.9435
| 40> H 	 72.8934 	 -5.5492 	 87.4695
| 41> *
| 42>
| 43>                          ****END OF INPUT****

CARTESIAN COORDINATES (ANGSTROEM)
---------------------------------
  S     67.406600   -7.767620   87.618800
  C     66.139700   -7.777880   88.820200
  C     66.037900   -6.562590   89.489500
  C     67.088000   -5.671080   89.216200
  C     67.981100   -6.251330   88.309000
  H     67.245600   -4.628100   89.437100
  C     64.928300   -6.253360   90.400100
  H     64.276600   -7.153390   90.502500
  H     64.302700   -5.524030   89.879800
  C     65.330400   -5.833140   91.756400
  H     65.717000   -6.697900   92.304700
  H     66.083000   -5.164320   91.930700
  C     64.109100   -5.420640   92.603600
  H     64.362400   -4.812740   93.505600
  H     63.469500   -4.764110   92.062400
  H     63.517300   -6.231440   92.967800
  S     70.663400   -6.754610   88.046400
  C     71.830600   -5.443050   87.748600
  C     71.146100   -4.228530   87.328200
  C     69.693400   -4.414320   87.395200
  C     69.280100   -5.697700   87.804600
  H     71.665200   -3.313650   87.222600
  C     68.731200   -3.218800   87.278600
  H     67.712000   -3.472030   86.994000
  H     68.958000   -2.737440   86.321900
  C     68.758000   -2.226340   88.494400
  H     69.740000   -1.711790   88.557500
  H     68.716400   -2.732040   89.470000
  C     67.668700   -1.139670   88.375000
  H     66.647200   -1.391220   88.735700
  H     67.514500   -0.805770   87.312800
  H     67.918600   -0.213541   88.900100
  H     65.416800   -8.566060   88.943500
  H     72.893400   -5.549200   87.469500

 Total Charge           Charge          ....    0
 Multiplicity           Mult            ....    1
 Number of Electrons    NEL             ....  134
 Basis Dimension        Dim             ....  322

ORBITAL ENERGIES
----------------

  NO   OCC          E(Eh)            E(eV)
   0   2.0000     -88.968861     -2420.9658
   1   2.0000     -88.968052     -2420.9438
   2   2.0000     -10.334838      -281.2252
   3   2.0000     -10.332153      -281.1522
   4   2.0000     -10.328292      -281.0471
   5   2.0000     -10.312750      -280.6242
   6   2.0000     -10.311056      -280.5781
   7   2.0000     -10.305374      -280.4235
   8   2.0000     -10.298782      -280.2441
   9   2.0000     -10.297516      -280.2097
  10   2.0000     -10.296686      -280.1871
  11   2.0000     -10.295425      -280.1528
  12   2.0000     -10.289231      -279.9842
  13   2.0000     -10.287222      -279.9295
  14   2.0000     -10.275935      -279.6224
  15   2.0000     -10.273061      -279.5442
  16   2.0000      -8.083341      -219.9589
  17   2.0000      -8.081798      -219.9169
  18   2.0000      -6.041635      -164.4013
  19   2.0000      -6.040430      -164.3685
  20   2.0000      -6.038062      -164.3040
  21   2.0000      -6.036206      -164.2535
  22   2.0000      -6.034180      -164.1984
  23   2.0000      -6.032694      -164.1580
  24   2.0000      -1.002141       -27.2697
  25   2.0000      -0.975509       -26.5450
  26   2.0000      -0.921573       -25.0773
  27   2.0000      -0.901091       -24.5199
  28   2.0000      -0.862827       -23.4787
  29   2.0000      -0.852006       -23.1843
  30   2.0000      -0.844531       -22.9809
  31   2.0000      -0.814061       -22.1517
  32   2.0000      -0.779654       -21.2155
  33   2.0000      -0.766568       -20.8594
  34   2.0000      -0.713021       -19.4023
  35   2.0000      -0.706090       -19.2137
  36   2.0000      -0.690711       -18.7952
  37   2.0000      -0.663993       -18.0682
  38   2.0000      -0.645523       -17.5656
  39   2.0000      -0.621706       -16.9175
  40   2.0000      -0.590389       -16.0653
  41   2.0000      -0.569666       -15.5014
  42   2.0000      -0.564666       -15.3653
  43   2.0000      -0.551884       -15.0175
  44   2.0000      -0.532118       -14.4797
  45   2.0000      -0.522052       -14.2058
  46   2.0000      -0.513892       -13.9837
  47   2.0000      -0.510331       -13.8868
  48   2.0000      -0.507390       -13.8068
  49   2.0000      -0.503001       -13.6874
  50   2.0000      -0.488394       -13.2899
  51   2.0000      -0.472289       -12.8516
  52   2.0000      -0.469752       -12.7826
  53   2.0000      -0.461039       -12.5455
  54   2.0000      -0.456830       -12.4310
  55   2.0000      -0.450867       -12.2687
  56   2.0000      -0.444756       -12.1024
  57   2.0000      -0.442177       -12.0322
  58   2.0000      -0.437360       -11.9012
  59   2.0000      -0.428662       -11.6645
  60   2.0000      -0.425229       -11.5711
  61   2.0000      -0.411574       -11.1995
  62   2.0000      -0.408829       -11.1248
  63   2.0000      -0.340546        -9.2667
  64   2.0000      -0.329850        -8.9757
  65   2.0000      -0.328260        -8.9324
  66   2.0000      -0.293083        -7.9752
  67   0.0000       0.025101         0.6830
  68   0.0000       0.059825         1.6279
  69   0.0000       0.106026         2.8851
  70   0.0000       0.117687         3.2024
  71   0.0000       0.119243         3.2448

MULLIKEN ATOMIC CHARGES
-----------------------
   0 S :    0.119054
   1 C :   -0.112770
   2 C :   -0.077429
   3 C :    0.047923
   4 C :   -0.161472
   5 H :    0.007154
   6 C :    0.083563
   7 H :    0.016853
   8 H :    0.035218
   9 C :   -0.045711
  10 H :    0.023426
  11 H :    0.010271
  12 C :   -0.049100
  13 H :    0.029018
  14 H :    0.010852
  15 H :    0.027940
  16 S :    0.109496
  17 C :   -0.115033
  18 C :   -0.043209
  19 C :   -0.042424
  20 C :   -0.141971
  21 H :    0.023961
  22 C :    0.042514
  23 H :    0.023186
  24 H :    0.021780
  25 C :   -0.063960
  26 H :    0.030574
  27 H :    0.040782
  28 C :   -0.074395
  29 H :    0.037714
  30 H :    0.032198
  31 H :    0.034103
  32 H :    0.038395
  33 H :    0.081498
Sum of atomic charges:   -0.0000000

LOEWDIN ATOMIC CHARGES
----------------------
   0 S :    0.405766
   1 C :   -0.201436
   2 C :   -0.060219
   3 C :   -0.057726
   4 C :   -0.180802
   5 H :    0.035157
   6 C :   -0.033659
   7 H :    0.036584
   8 H :    0.034079
   9 C :   -0.039443
  10 H :    0.033143
  11 H :    0.012254
  12 C :   -0.062871
  13 H :    0.030554
  14 H :    0.015272
  15 H :    0.020274
  16 S :    0.404898
  17 C :   -0.194836
  18 C :   -0.060940
  19 C :   -0.056475
  20 C :   -0.204034
  21 H :    0.025867
  22 C :   -0.042734
  23 H :    0.029157
  24 H :    0.033973
  25 C :   -0.042735
  26 H :    0.028571
  27 H :    0.025612
  28 C :   -0.077070
  29 H :    0.026342
  30 H :    0.029792
  31 H :    0.026963
  32 H :    0.023320
  33 H :    0.037400

  Mayer bond orders larger than 0.100000
B(  0-S ,  1-C ) :   1.1287 B(  0-S ,  4-C ) :   1.1763 B(  1-C ,  2-C ) :   1.6024
B(  1-C , 32-H ) :   0.9684 B(  2-C ,  3-C ) :   1.2305 B(  2-C ,  6-C ) :   1.0399
B(  3-C ,  4-C ) :   1.5661 B(  3-C ,  5-H ) :   0.9961 B(  4-C , 20-C ) :   0.9982
B(  6-C ,  7-H ) :   0.9357 B(  6-C ,  8-H ) :   0.9273 B(  6-C ,  9-C ) :   1.0608
B(  9-C , 10-H ) :   0.9480 B(  9-C , 11-H ) :   0.9634 B(  9-C , 12-C ) :   1.0791
B( 12-C , 13-H ) :   0.9743 B( 12-C , 14-H ) :   0.9756 B( 12-C , 15-H ) :   0.9777
B( 16-S , 17-C ) :   1.1657 B( 16-S , 20-C ) :   1.1463 B( 17-C , 18-C ) :   1.5839
B( 17-C , 20-C ) :   0.1076 B( 17-C , 33-H ) :   0.9570 B( 18-C , 19-C ) :   1.2544
B( 18-C , 21-H ) :   0.9909 B( 19-C , 20-C ) :   1.5865 B( 19-C , 22-C ) :   1.0472
B( 22-C , 23-H ) :   0.9456 B( 22-C , 24-H ) :   0.9265 B( 22-C , 25-C ) :   1.0402
B( 25-C , 26-H ) :   0.9549 B( 25-C , 27-H ) :   0.9582 B( 25-C , 28-C ) :   1.0688
B( 28-C , 29-H ) :   0.9769 B( 28-C , 30-H ) :   0.9743 B( 28-C , 31-H ) :   0.9761

Dispersion correction           -0.014112823
FINAL SINGLE POINT ENERGY     -1339.858234165653

DIPOLE MOMENT
-------------
                                X             Y             Z
Electronic contribution:     17.09426     -21.99180     -14.85578
Nuclear contribution   :    -17.40626      22.63466      15.04489
                        -----------------------------------------
Total Dipole Moment    :     -0.31200       0.64285       0.18911
                        -----------------------------------------
Magnitude (a.u.)       :      0.73917
Magnitude (Debye)      :      1.87881

Rotational constants in cm-1:     0.016472     0.009162     0.006719
Rotational constants in MHz :   493.826721   274.681194   201.416237

                             ****ORCA TERMINATED NORMALLY****
TOTAL RUN TIME: 0 days 0 hours 0 minutes 30 seconds 62 msec
