                         Program Version 4.2.1 -  RELEASE  -
|  1> ! wB97X-D3 SP def2-SVP
|  2> %pal
|  3> nprocs 16
|  4> end
|  5>
|  6> * xyz 0 1
|  7> S 	 4.70699 	 -22.6949 	 59.7829
|  8> C 	 3.58522 	 -24.092 	 59.4466
|  9> C 	 4.24127 	 -25.2396 	 59.0588
| 10> C 	 5.69365 	 -25.1406 	 59.241
| 11> C 	 6.10514 	 -23.7983 	 59.5234
| 12> H 	 6.45112 	 -25.8356 	 59.052
| 13> C 	 3.54647 	 -26.5674 	 58.7412
| 14> H 	 4.12626 	 -26.9557 	 57.8619
| 15> H 	 2.52475 	 -26.3609 	 58.3504
| 16> C 	 3.51803 	 -27.6494 	 59.8284
| 17> H 	 4.56376 	 -28.0585 	 59.8118
| 18> H 	 3.34165 	 -27.2668 	 60.8417
| 19> C 	 2.58334 	 -28.792 	 59.4922
| 20> H 	 2.92218 	 -29.3233 	 58.5803
| 21> H 	 2.42845 	 -29.5069 	 60.3476
| 22> H 	 1.6087 	 -28.3652 	 59.2009
| 23> S 	 7.74569 	 -21.8347 	 58.745
| 24> C 	 9.47263 	 -21.8649 	 59.1903
| 25> C 	 9.80122 	 -22.9802 	 59.956
| 26> C 	 8.6628 	 -23.833 	 60.2354
| 27> C 	 7.50946 	 -23.3895 	 59.5629
| 28> H 	 10.7779 	 -23.0968 	 60.3689
| 29> C 	 8.81135 	 -25.1242 	 61.074
| 30> H 	 7.82519 	 -25.405 	 61.4961
| 31> H 	 9.36898 	 -24.8804 	 61.9123
| 32> C 	 9.53222 	 -26.3331 	 60.3302
| 33> H 	 9.56184 	 -27.0978 	 61.0606
| 34> H 	 10.6087 	 -26.1237 	 60.3214
| 35> C 	 9.17793 	 -26.74 	 58.9038
| 36> H 	 9.92548 	 -27.4299 	 58.6173
| 37> H 	 9.16734 	 -25.8465 	 58.2593
| 38> H 	 8.21166 	 -27.2616 	 58.91
| 39> H 	 2.46552 	 -24.0923 	 59.4904
| 40> H 	 10.1726 	 -21.1811 	 58.7441
| 41> *
| 42>
| 43>                          ****END OF INPUT****

CARTESIAN COORDINATES (ANGSTROEM)
---------------------------------
  S      4.706990  -22.694900   59.782900
  C      3.585220  -24.092000   59.446600
  C      4.241270  -25.239600   59.058800
  C      5.693650  -25.140600   59.241000
  C      6.105140  -23.798300   59.523400
  H      6.451120  -25.835600   59.052000
  C      3.546470  -26.567400   58.741200
  H      4.126260  -26.955700   57.861900
  H      2.524750  -26.360900   58.350400
  C      3.518030  -27.649400   59.828400
  H      4.563760  -28.058500   59.811800
  H      3.341650  -27.266800   60.841700
  C      2.583340  -28.792000   59.492200
  H      2.922180  -29.323300   58.580300
  H      2.428450  -29.506900   60.347600
  H      1.608700  -28.365200   59.200900
  S      7.745690  -21.834700   58.745000
  C      9.472630  -21.864900   59.190300
  C      9.801220  -22.980200   59.956000
  C      8.662800  -23.833000   60.235400
  C      7.509460  -23.389500   59.562900
  H     10.777900  -23.096800   60.368900
  C      8.811350  -25.124200   61.074000
  H      7.825190  -25.405000   61.496100
  H      9.368980  -24.880400   61.912300
  C      9.532220  -26.333100   60.330200
  H      9.561840  -27.097800   61.060600
  H     10.608700  -26.123700   60.321400
  C      9.177930  -26.740000   58.903800
  H      9.925480  -27.429900   58.617300
  H      9.167340  -25.846500   58.259300
  H      8.211660  -27.261600   58.910000
  H      2.465520  -24.092300   59.490400
  H     10.172600  -21.181100   58.744100

 Total Charge           Charge          ....    0
 Multiplicity           Mult            ....    1
 Number of Electrons    NEL             ....  134
 Basis Dimension        Dim             ....  322

ORBITAL ENERGIES
----------------

  NO   OCC          E(Eh)            E(eV)
   0   2.0000     -88.972020     -2421.0517
   1   2.0000     -88.964589     -2420.8495
   2   2.0000     -10.338505      -281.3250
   3   2.0000     -10.331944      -281.1465
   4   2.0000     -10.321935      -280.8741
   5   2.0000     -10.320839      -280.8443
   6   2.0000     -10.311397      -280.5874
   7   2.0000     -10.307434      -280.4795
   8   2.0000     -10.300239      -280.2837
   9   2.0000     -10.298568      -280.2383
  10   2.0000     -10.297760      -280.2163
  11   2.0000     -10.295000      -280.1412
  12   2.0000     -10.291279      -280.0399
  13   2.0000     -10.287757      -279.9441
  14   2.0000     -10.286021      -279.8969
  15   2.0000     -10.279925      -279.7310
  16   2.0000      -8.084345      -219.9862
  17   2.0000      -8.078746      -219.8338
  18   2.0000      -6.043209      -164.4441
  19   2.0000      -6.039360      -164.3394
  20   2.0000      -6.037295      -164.2831
  21   2.0000      -6.034683      -164.2121
  22   2.0000      -6.033389      -164.1769
  23   2.0000      -6.029441      -164.0694
  24   2.0000      -0.993660       -27.0389
  25   2.0000      -0.967805       -26.3353
  26   2.0000      -0.909633       -24.7524
  27   2.0000      -0.902056       -24.5462
  28   2.0000      -0.866641       -23.5825
  29   2.0000      -0.848970       -23.1017
  30   2.0000      -0.841887       -22.9089
  31   2.0000      -0.810367       -22.0512
  32   2.0000      -0.784191       -21.3389
  33   2.0000      -0.770470       -20.9655
  34   2.0000      -0.708861       -19.2891
  35   2.0000      -0.695161       -18.9163
  36   2.0000      -0.691120       -18.8063
  37   2.0000      -0.663739       -18.0613
  38   2.0000      -0.635059       -17.2808
  39   2.0000      -0.611287       -16.6340
  40   2.0000      -0.589780       -16.0487
  41   2.0000      -0.569496       -15.4968
  42   2.0000      -0.555964       -15.1286
  43   2.0000      -0.550224       -14.9724
  44   2.0000      -0.544336       -14.8121
  45   2.0000      -0.524391       -14.2694
  46   2.0000      -0.520265       -14.1571
  47   2.0000      -0.507262       -13.8033
  48   2.0000      -0.499554       -13.5936
  49   2.0000      -0.493337       -13.4244
  50   2.0000      -0.488488       -13.2924
  51   2.0000      -0.474770       -12.9191
  52   2.0000      -0.467260       -12.7148
  53   2.0000      -0.462531       -12.5861
  54   2.0000      -0.460215       -12.5231
  55   2.0000      -0.452025       -12.3002
  56   2.0000      -0.445829       -12.1316
  57   2.0000      -0.437076       -11.8934
  58   2.0000      -0.436136       -11.8679
  59   2.0000      -0.426250       -11.5989
  60   2.0000      -0.421100       -11.4587
  61   2.0000      -0.411595       -11.2001
  62   2.0000      -0.410697       -11.1756
  63   2.0000      -0.348054        -9.4710
  64   2.0000      -0.332130        -9.0377
  65   2.0000      -0.330179        -8.9846
  66   2.0000      -0.285318        -7.7639
  67   0.0000       0.025156         0.6845
  68   0.0000       0.062404         1.6981
  69   0.0000       0.098794         2.6883
  70   0.0000       0.120582         3.2812
  71   0.0000       0.121734         3.3126

MULLIKEN ATOMIC CHARGES
-----------------------
   0 S :    0.108735
   1 C :   -0.133367
   2 C :   -0.059108
   3 C :    0.057427
   4 C :   -0.127100
   5 H :   -0.042710
   6 C :    0.012528
   7 H :    0.037809
   8 H :    0.021605
   9 C :   -0.057482
  10 H :    0.030340
  11 H :    0.039844
  12 C :   -0.064902
  13 H :    0.033194
  14 H :    0.052828
  15 H :    0.025443
  16 S :    0.083603
  17 C :   -0.090854
  18 C :   -0.021781
  19 C :   -0.061816
  20 C :   -0.172643
  21 H :    0.017375
  22 C :    0.100931
  23 H :    0.032502
  24 H :    0.006496
  25 C :   -0.093791
  26 H :    0.014347
  27 H :    0.013552
  28 C :   -0.021502
  29 H :    0.029380
  30 H :    0.058145
  31 H :    0.048483
  32 H :    0.062030
  33 H :    0.060460
Sum of atomic charges:   -0.0000000

LOEWDIN ATOMIC CHARGES
----------------------
   0 S :    0.357226
   1 C :   -0.186971
   2 C :   -0.059230
   3 C :   -0.053236
   4 C :   -0.176789
   5 H :    0.017056
   6 C :   -0.038047
   7 H :    0.037750
   8 H :    0.026847
   9 C :   -0.047175
  10 H :    0.028720
  11 H :    0.026191
  12 C :   -0.071485
  13 H :    0.028201
  14 H :    0.034666
  15 H :    0.022830
  16 S :    0.380743
  17 C :   -0.171411
  18 C :   -0.064687
  19 C :   -0.055057
  20 C :   -0.186688
  21 H :    0.029281
  22 C :   -0.025112
  23 H :    0.032938
  24 H :    0.023085
  25 C :   -0.042349
  26 H :    0.018651
  27 H :    0.023154
  28 C :   -0.060978
  29 H :    0.026596
  30 H :    0.035851
  31 H :    0.024316
  32 H :    0.039477
  33 H :    0.025642

  Mayer bond orders larger than 0.100000
B(  0-S ,  1-C ) :   1.0968 B(  0-S ,  4-C ) :   1.1228 B(  1-C ,  2-C ) :   1.6687
B(  1-C , 32-H ) :   0.9565 B(  2-C ,  3-C ) :   1.1822 B(  2-C ,  6-C ) :   1.0338
B(  3-C ,  4-C ) :   1.5921 B(  3-C ,  5-H ) :   0.9940 B(  4-C , 20-C ) :   1.0677
B(  6-C ,  7-H ) :   0.9362 B(  6-C ,  8-H ) :   0.9467 B(  6-C ,  9-C ) :   1.0494
B(  9-C , 10-H ) :   0.9499 B(  9-C , 11-H ) :   0.9612 B(  9-C , 12-C ) :   1.0819
B( 12-C , 13-H ) :   0.9730 B( 12-C , 14-H ) :   0.9735 B( 12-C , 15-H ) :   0.9751
B( 16-S , 17-C ) :   1.1411 B( 16-S , 20-C ) :   1.1327 B( 17-C , 18-C ) :   1.6230
B( 17-C , 33-H ) :   0.9686 B( 18-C , 19-C ) :   1.2151 B( 18-C , 21-H ) :   0.9914
B( 19-C , 20-C ) :   1.5888 B( 19-C , 22-C ) :   1.0483 B( 22-C , 23-H ) :   0.9371
B( 22-C , 24-H ) :   0.9267 B( 22-C , 25-C ) :   1.0628 B( 25-C , 26-H ) :   0.9540
B( 25-C , 27-H ) :   0.9544 B( 25-C , 28-C ) :   1.0802 B( 28-C , 29-H ) :   0.9662
B( 28-C , 30-H ) :   0.9683 B( 28-C , 31-H ) :   0.9659

Dispersion correction           -0.014630115
FINAL SINGLE POINT ENERGY     -1339.870288842137

DIPOLE MOMENT
-------------
                                X             Y             Z
Electronic contribution:      0.92720      30.91085      -1.57400
Nuclear contribution   :     -0.63152     -31.66534       1.69054
                        -----------------------------------------
Total Dipole Moment    :      0.29567      -0.75449       0.11654
                        -----------------------------------------
Magnitude (a.u.)       :      0.81870
Magnitude (Debye)      :      2.08096

Rotational constants in cm-1:     0.019149     0.008743     0.006452
Rotational constants in MHz :   574.067818   262.120488   193.427470

                             ****ORCA TERMINATED NORMALLY****
TOTAL RUN TIME: 0 days 0 hours 0 minutes 35 seconds 456 msec
