                         Program Version 4.2.1 -  RELEASE  -
|  1> ! wB97X-D3 SP def2-SVP
|  2> %pal
|  3> nprocs 16
|  4> end
|  5>
|  6> * xyz 0 1
|  7> S 	 -45.6231 	 28.9927 	 90.814
|  8> C 	 -46.678 	 28.0904 	 91.8617
|  9> C 	 -47.9501 	 28.0665 	 91.3451
| 10> C 	 -48.1039 	 28.6834 	 90.0884
| 11> C 	 -46.9029 	 29.2052 	 89.6242
| 12> H 	 -48.961 	 28.8241 	 89.4279
| 13> C 	 -49.2001 	 27.5019 	 92.0167
| 14> H 	 -50.1119 	 27.5958 	 91.4164
| 15> H 	 -49.3913 	 27.9809 	 92.9898
| 16> C 	 -48.9517 	 25.9988 	 92.3364
| 17> H 	 -48.6369 	 25.4772 	 91.5157
| 18> H 	 -48.1249 	 25.9666 	 93.0552
| 19> C 	 -50.1642 	 25.1346 	 92.8077
| 20> H 	 -50.4805 	 25.4853 	 93.7932
| 21> H 	 -50.9965 	 25.4098 	 92.1397
| 22> H 	 -50.0312 	 24.0441 	 92.7171
| 23> S 	 -46.197 	 28.9001 	 86.9732
| 24> C 	 -46.5944 	 30.2619 	 85.8977
| 25> C 	 -46.7176 	 31.4517 	 86.5797
| 26> C 	 -46.7709 	 31.2572 	 88.0022
| 27> C 	 -46.6268 	 29.918 	 88.3743
| 28> H 	 -46.7618 	 32.3259 	 86.0212
| 29> C 	 -47.199 	 32.3696 	 88.9829
| 30> H 	 -47.2898 	 32.0025 	 90.0176
| 31> H 	 -48.2132 	 32.7567 	 88.7012
| 32> C 	 -46.2239 	 33.5808 	 89.0955
| 33> H 	 -45.8955 	 33.8985 	 88.0688
| 34> H 	 -45.3331 	 33.1905 	 89.4524
| 35> C 	 -46.7013 	 34.6965 	 89.9844
| 36> H 	 -47.4963 	 35.1863 	 89.4317
| 37> H 	 -45.8945 	 35.405 	 90.1125
| 38> H 	 -47.1594 	 34.3031 	 90.8983
| 39> H 	 -46.4324 	 27.8228 	 92.8728
| 40> H 	 -46.42 	 30.2172 	 84.8578
| 41> *
| 42>
| 43>                          ****END OF INPUT****

CARTESIAN COORDINATES (ANGSTROEM)
---------------------------------
  S    -45.623100   28.992700   90.814000
  C    -46.678000   28.090400   91.861700
  C    -47.950100   28.066500   91.345100
  C    -48.103900   28.683400   90.088400
  C    -46.902900   29.205200   89.624200
  H    -48.961000   28.824100   89.427900
  C    -49.200100   27.501900   92.016700
  H    -50.111900   27.595800   91.416400
  H    -49.391300   27.980900   92.989800
  C    -48.951700   25.998800   92.336400
  H    -48.636900   25.477200   91.515700
  H    -48.124900   25.966600   93.055200
  C    -50.164200   25.134600   92.807700
  H    -50.480500   25.485300   93.793200
  H    -50.996500   25.409800   92.139700
  H    -50.031200   24.044100   92.717100
  S    -46.197000   28.900100   86.973200
  C    -46.594400   30.261900   85.897700
  C    -46.717600   31.451700   86.579700
  C    -46.770900   31.257200   88.002200
  C    -46.626800   29.918000   88.374300
  H    -46.761800   32.325900   86.021200
  C    -47.199000   32.369600   88.982900
  H    -47.289800   32.002500   90.017600
  H    -48.213200   32.756700   88.701200
  C    -46.223900   33.580800   89.095500
  H    -45.895500   33.898500   88.068800
  H    -45.333100   33.190500   89.452400
  C    -46.701300   34.696500   89.984400
  H    -47.496300   35.186300   89.431700
  H    -45.894500   35.405000   90.112500
  H    -47.159400   34.303100   90.898300
  H    -46.432400   27.822800   92.872800
  H    -46.420000   30.217200   84.857800

 Total Charge           Charge          ....    0
 Multiplicity           Mult            ....    1
 Number of Electrons    NEL             ....  134
 Basis Dimension        Dim             ....  322

ORBITAL ENERGIES
----------------

  NO   OCC          E(Eh)            E(eV)
   0   2.0000     -88.965491     -2420.8741
   1   2.0000     -88.963520     -2420.8204
   2   2.0000     -10.329365      -281.0763
   3   2.0000     -10.328694      -281.0581
   4   2.0000     -10.317514      -280.7538
   5   2.0000     -10.312406      -280.6148
   6   2.0000     -10.311443      -280.5886
   7   2.0000     -10.300932      -280.3026
   8   2.0000     -10.296224      -280.1745
   9   2.0000     -10.294758      -280.1346
  10   2.0000     -10.294536      -280.1286
  11   2.0000     -10.293823      -280.1092
  12   2.0000     -10.280493      -279.7464
  13   2.0000     -10.279626      -279.7228
  14   2.0000     -10.278085      -279.6809
  15   2.0000     -10.276582      -279.6400
  16   2.0000      -8.080218      -219.8739
  17   2.0000      -8.077626      -219.8034
  18   2.0000      -6.038598      -164.3186
  19   2.0000      -6.036169      -164.2525
  20   2.0000      -6.034621      -164.2104
  21   2.0000      -6.032401      -164.1500
  22   2.0000      -6.031224      -164.1179
  23   2.0000      -6.028197      -164.0356
  24   2.0000      -1.003946       -27.3188
  25   2.0000      -0.981581       -26.7102
  26   2.0000      -0.906844       -24.6765
  27   2.0000      -0.905395       -24.6370
  28   2.0000      -0.867679       -23.6107
  29   2.0000      -0.849115       -23.1056
  30   2.0000      -0.848759       -23.0959
  31   2.0000      -0.815479       -22.1903
  32   2.0000      -0.780017       -21.2254
  33   2.0000      -0.767836       -20.8939
  34   2.0000      -0.706013       -19.2116
  35   2.0000      -0.698120       -18.9968
  36   2.0000      -0.693969       -18.8838
  37   2.0000      -0.661144       -17.9906
  38   2.0000      -0.648632       -17.6502
  39   2.0000      -0.614968       -16.7341
  40   2.0000      -0.597663       -16.2632
  41   2.0000      -0.571010       -15.5380
  42   2.0000      -0.563226       -15.3262
  43   2.0000      -0.556746       -15.1498
  44   2.0000      -0.529626       -14.4119
  45   2.0000      -0.523924       -14.2567
  46   2.0000      -0.518633       -14.1127
  47   2.0000      -0.513404       -13.9704
  48   2.0000      -0.501969       -13.6593
  49   2.0000      -0.500253       -13.6126
  50   2.0000      -0.492386       -13.3985
  51   2.0000      -0.480534       -13.0760
  52   2.0000      -0.467247       -12.7145
  53   2.0000      -0.462648       -12.5893
  54   2.0000      -0.459730       -12.5099
  55   2.0000      -0.452467       -12.3123
  56   2.0000      -0.442642       -12.0449
  57   2.0000      -0.433300       -11.7907
  58   2.0000      -0.432655       -11.7731
  59   2.0000      -0.422465       -11.4959
  60   2.0000      -0.421223       -11.4620
  61   2.0000      -0.414074       -11.2675
  62   2.0000      -0.411456       -11.1963
  63   2.0000      -0.338779        -9.2186
  64   2.0000      -0.328988        -8.9522
  65   2.0000      -0.316017        -8.5993
  66   2.0000      -0.313957        -8.5432
  67   0.0000       0.041097         1.1183
  68   0.0000       0.047950         1.3048
  69   0.0000       0.106897         2.9088
  70   0.0000       0.118251         3.2178
  71   0.0000       0.128885         3.5071

MULLIKEN ATOMIC CHARGES
-----------------------
   0 S :    0.115722
   1 C :   -0.117591
   2 C :   -0.070310
   3 C :    0.051535
   4 C :   -0.196514
   5 H :    0.021326
   6 C :    0.082114
   7 H :    0.020540
   8 H :    0.036102
   9 C :   -0.093516
  10 H :    0.012664
  11 H :    0.023890
  12 C :   -0.046717
  13 H :    0.025969
  14 H :    0.020398
  15 H :    0.050719
  16 S :    0.098874
  17 C :   -0.081434
  18 C :   -0.012460
  19 C :    0.025246
  20 C :   -0.189708
  21 H :    0.001846
  22 C :    0.033477
  23 H :    0.031223
  24 H :    0.034369
  25 C :   -0.087247
  26 H :    0.019210
  27 H :    0.005998
  28 C :   -0.008363
  29 H :    0.022663
  30 H :    0.041188
  31 H :    0.034125
  32 H :    0.048157
  33 H :    0.046505
Sum of atomic charges:    0.0000000

LOEWDIN ATOMIC CHARGES
----------------------
   0 S :    0.411936
   1 C :   -0.201671
   2 C :   -0.062005
   3 C :   -0.057709
   4 C :   -0.195603
   5 H :    0.040185
   6 C :   -0.024969
   7 H :    0.026667
   8 H :    0.032480
   9 C :   -0.036977
  10 H :    0.011392
  11 H :    0.019496
  12 C :   -0.068188
  13 H :    0.021181
  14 H :    0.024657
  15 H :    0.031528
  16 S :    0.377451
  17 C :   -0.160281
  18 C :   -0.060450
  19 C :   -0.045835
  20 C :   -0.196342
  21 H :    0.023227
  22 C :   -0.031555
  23 H :    0.029984
  24 H :    0.030841
  25 C :   -0.043901
  26 H :    0.022405
  27 H :    0.011726
  28 C :   -0.059258
  29 H :    0.024970
  30 H :    0.030074
  31 H :    0.028894
  32 H :    0.026764
  33 H :    0.018885

  Mayer bond orders larger than 0.100000
B(  0-S ,  1-C ) :   1.1424 B(  0-S ,  4-C ) :   1.1703 B(  1-C ,  2-C ) :   1.5979
B(  1-C ,  4-C ) :   0.1035 B(  1-C , 32-H ) :   0.9696 B(  2-C ,  3-C ) :   1.2425
B(  2-C ,  6-C ) :   1.0218 B(  3-C ,  4-C ) :   1.5810 B(  3-C ,  5-H ) :   0.9985
B(  4-C , 20-C ) :   0.9996 B(  6-C ,  7-H ) :   0.9487 B(  6-C ,  8-H ) :   0.9382
B(  6-C ,  9-C ) :   1.0521 B(  9-C , 10-H ) :   0.9616 B(  9-C , 11-H ) :   0.9579
B(  9-C , 12-C ) :   1.0773 B( 12-C , 13-H ) :   0.9755 B( 12-C , 14-H ) :   0.9731
B( 12-C , 15-H ) :   0.9775 B( 16-S , 17-C ) :   1.1452 B( 16-S , 20-C ) :   1.1324
B( 17-C , 18-C ) :   1.6409 B( 17-C , 33-H ) :   0.9675 B( 18-C , 19-C ) :   1.2010
B( 18-C , 21-H ) :   1.0009 B( 19-C , 20-C ) :   1.6213 B( 19-C , 22-C ) :   1.0411
B( 22-C , 23-H ) :   0.9353 B( 22-C , 24-H ) :   0.9460 B( 22-C , 25-C ) :   1.0502
B( 25-C , 26-H ) :   0.9579 B( 25-C , 27-H ) :   0.9502 B( 25-C , 28-C ) :   1.0836
B( 28-C , 29-H ) :   0.9740 B( 28-C , 30-H ) :   0.9719 B( 28-C , 31-H ) :   0.9710

Dispersion correction           -0.013603186
FINAL SINGLE POINT ENERGY     -1339.873243075730

DIPOLE MOMENT
-------------
                                X             Y             Z
Electronic contribution:     14.23610      -5.46840     -13.68516
Nuclear contribution   :    -14.62915       5.82055      13.77475
                        -----------------------------------------
Total Dipole Moment    :     -0.39305       0.35215       0.08959
                        -----------------------------------------
Magnitude (a.u.)       :      0.53528
Magnitude (Debye)      :      1.36057

Rotational constants in cm-1:     0.020112     0.007139     0.006103
Rotational constants in MHz :   602.955181   214.025821   182.956332

                             ****ORCA TERMINATED NORMALLY****
TOTAL RUN TIME: 0 days 0 hours 0 minutes 28 seconds 668 msec
