                         Program Version 4.2.1 -  RELEASE  -
|  1> ! wB97X-D3 SP def2-SVP
|  2> %pal
|  3> nprocs 16
|  4> end
|  5>
|  6> * xyz 0 1
|  7> S 	 -84.5702 	 53.4146 	 136.141
|  8> C 	 -85.1461 	 54.0735 	 137.623
|  9> C 	 -84.2577 	 53.956 	 138.649
| 10> C 	 -83.1635 	 53.1 	 138.217
| 11> C 	 -83.2709 	 52.7245 	 136.913
| 12> H 	 -82.3122 	 52.6966 	 138.678
| 13> C 	 -84.4597 	 54.5235 	 140.078
| 14> H 	 -84.7266 	 55.5651 	 139.929
| 15> H 	 -83.5137 	 54.4442 	 140.526
| 16> C 	 -85.4609 	 53.7065 	 140.964
| 17> H 	 -86.5172 	 53.6227 	 140.549
| 18> H 	 -85.0712 	 52.6887 	 141.169
| 19> C 	 -85.6501 	 54.4272 	 142.306
| 20> H 	 -86.3594 	 55.2595 	 142.212
| 21> H 	 -86.0758 	 53.8891 	 143.092
| 22> H 	 -84.7568 	 54.8321 	 142.744
| 23> S 	 -81.6758 	 52.5942 	 134.693
| 24> C 	 -80.4953 	 51.4174 	 134.537
| 25> C 	 -80.4642 	 50.5544 	 135.581
| 26> C 	 -81.3803 	 50.9647 	 136.602
| 27> C 	 -82.2829 	 51.9657 	 136.178
| 28> H 	 -79.7141 	 49.8342 	 135.487
| 29> C 	 -81.3347 	 50.2064 	 137.924
| 30> H 	 -81.4778 	 49.194 	 137.647
| 31> H 	 -82.2173 	 50.5404 	 138.416
| 32> C 	 -80.0757 	 50.4156 	 138.716
| 33> H 	 -79.2726 	 49.8019 	 138.275
| 34> H 	 -80.3531 	 50.0102 	 139.715
| 35> C 	 -79.6532 	 51.8716 	 138.952
| 36> H 	 -78.6413 	 51.8832 	 139.376
| 37> H 	 -80.3231 	 52.4044 	 139.551
| 38> H 	 -79.5217 	 52.3722 	 137.993
| 39> H 	 -85.9395 	 54.7275 	 137.664
| 40> H 	 -79.8107 	 51.3487 	 133.685
| 41> *
| 42>
| 43>                          ****END OF INPUT****

CARTESIAN COORDINATES (ANGSTROEM)
---------------------------------
  S    -84.570200   53.414600  136.141000
  C    -85.146100   54.073500  137.623000
  C    -84.257700   53.956000  138.649000
  C    -83.163500   53.100000  138.217000
  C    -83.270900   52.724500  136.913000
  H    -82.312200   52.696600  138.678000
  C    -84.459700   54.523500  140.078000
  H    -84.726600   55.565100  139.929000
  H    -83.513700   54.444200  140.526000
  C    -85.460900   53.706500  140.964000
  H    -86.517200   53.622700  140.549000
  H    -85.071200   52.688700  141.169000
  C    -85.650100   54.427200  142.306000
  H    -86.359400   55.259500  142.212000
  H    -86.075800   53.889100  143.092000
  H    -84.756800   54.832100  142.744000
  S    -81.675800   52.594200  134.693000
  C    -80.495300   51.417400  134.537000
  C    -80.464200   50.554400  135.581000
  C    -81.380300   50.964700  136.602000
  C    -82.282900   51.965700  136.178000
  H    -79.714100   49.834200  135.487000
  C    -81.334700   50.206400  137.924000
  H    -81.477800   49.194000  137.647000
  H    -82.217300   50.540400  138.416000
  C    -80.075700   50.415600  138.716000
  H    -79.272600   49.801900  138.275000
  H    -80.353100   50.010200  139.715000
  C    -79.653200   51.871600  138.952000
  H    -78.641300   51.883200  139.376000
  H    -80.323100   52.404400  139.551000
  H    -79.521700   52.372200  137.993000
  H    -85.939500   54.727500  137.664000
  H    -79.810700   51.348700  133.685000

 Total Charge           Charge          ....    0
 Multiplicity           Mult            ....    1
 Number of Electrons    NEL             ....  134
 Basis Dimension        Dim             ....  322

ORBITAL ENERGIES
----------------

  NO   OCC          E(Eh)            E(eV)
   0   2.0000     -88.961774     -2420.7729
   1   2.0000     -88.960174     -2420.7294
   2   2.0000     -10.321910      -280.8735
   3   2.0000     -10.316329      -280.7216
   4   2.0000     -10.307609      -280.4843
   5   2.0000     -10.302484      -280.3449
   6   2.0000     -10.302300      -280.3398
   7   2.0000     -10.300145      -280.2812
   8   2.0000     -10.298592      -280.2389
   9   2.0000     -10.295805      -280.1631
  10   2.0000     -10.288761      -279.9714
  11   2.0000     -10.284991      -279.8688
  12   2.0000     -10.283093      -279.8172
  13   2.0000     -10.279652      -279.7235
  14   2.0000     -10.273593      -279.5587
  15   2.0000     -10.270857      -279.4842
  16   2.0000      -8.079159      -219.8451
  17   2.0000      -8.077123      -219.7897
  18   2.0000      -6.037362      -164.2850
  19   2.0000      -6.035423      -164.2322
  20   2.0000      -6.033399      -164.1771
  21   2.0000      -6.031196      -164.1172
  22   2.0000      -6.029980      -164.0841
  23   2.0000      -6.028103      -164.0330
  24   2.0000      -1.021059       -27.7844
  25   2.0000      -0.996789       -27.1240
  26   2.0000      -0.915948       -24.9242
  27   2.0000      -0.909823       -24.7576
  28   2.0000      -0.875933       -23.8353
  29   2.0000      -0.852856       -23.2074
  30   2.0000      -0.846504       -23.0345
  31   2.0000      -0.819867       -22.3097
  32   2.0000      -0.789183       -21.4748
  33   2.0000      -0.779488       -21.2109
  34   2.0000      -0.709747       -19.3132
  35   2.0000      -0.703595       -19.1458
  36   2.0000      -0.692574       -18.8459
  37   2.0000      -0.663551       -18.0561
  38   2.0000      -0.643898       -17.5213
  39   2.0000      -0.618115       -16.8198
  40   2.0000      -0.592857       -16.1325
  41   2.0000      -0.576413       -15.6850
  42   2.0000      -0.565629       -15.3915
  43   2.0000      -0.557407       -15.1678
  44   2.0000      -0.545052       -14.8316
  45   2.0000      -0.527049       -14.3417
  46   2.0000      -0.523825       -14.2540
  47   2.0000      -0.510713       -13.8972
  48   2.0000      -0.509056       -13.8521
  49   2.0000      -0.501104       -13.6357
  50   2.0000      -0.496174       -13.5016
  51   2.0000      -0.481345       -13.0980
  52   2.0000      -0.472114       -12.8469
  53   2.0000      -0.468826       -12.7574
  54   2.0000      -0.463810       -12.6209
  55   2.0000      -0.447725       -12.1832
  56   2.0000      -0.443963       -12.0809
  57   2.0000      -0.438963       -11.9448
  58   2.0000      -0.436573       -11.8798
  59   2.0000      -0.427207       -11.6249
  60   2.0000      -0.425074       -11.5668
  61   2.0000      -0.419916       -11.4265
  62   2.0000      -0.404829       -11.0160
  63   2.0000      -0.355783        -9.6813
  64   2.0000      -0.330266        -8.9870
  65   2.0000      -0.326453        -8.8832
  66   2.0000      -0.289405        -7.8751
  67   0.0000       0.037585         1.0227
  68   0.0000       0.082649         2.2490
  69   0.0000       0.119058         3.2397
  70   0.0000       0.123649         3.3647
  71   0.0000       0.137982         3.7547

MULLIKEN ATOMIC CHARGES
-----------------------
   0 S :    0.115262
   1 C :   -0.079533
   2 C :   -0.087539
   3 C :    0.059477
   4 C :   -0.157180
   5 H :   -0.079678
   6 C :    0.104423
   7 H :    0.034821
   8 H :    0.011360
   9 C :   -0.085138
  10 H :    0.046039
  11 H :    0.040069
  12 C :   -0.028284
  13 H :    0.022772
  14 H :    0.014740
  15 H :    0.017311
  16 S :    0.104724
  17 C :   -0.099207
  18 C :   -0.011169
  19 C :   -0.123677
  20 C :   -0.093363
  21 H :   -0.006712
  22 C :    0.115635
  23 H :    0.025641
  24 H :    0.006488
  25 C :   -0.089075
  26 H :    0.036581
  27 H :    0.034405
  28 C :   -0.037200
  29 H :    0.032622
  30 H :    0.045207
  31 H :    0.041839
  32 H :    0.010276
  33 H :    0.058062
Sum of atomic charges:    0.0000000

LOEWDIN ATOMIC CHARGES
----------------------
   0 S :    0.449136
   1 C :   -0.194815
   2 C :   -0.051866
   3 C :   -0.067748
   4 C :   -0.218550
   5 H :    0.016438
   6 C :   -0.020294
   7 H :    0.033247
   8 H :    0.025000
   9 C :   -0.036997
  10 H :    0.033283
  11 H :    0.028656
  12 C :   -0.070193
  13 H :    0.026371
  14 H :    0.017671
  15 H :    0.020109
  16 S :    0.440694
  17 C :   -0.204026
  18 C :   -0.076594
  19 C :   -0.050844
  20 C :   -0.217080
  21 H :    0.024394
  22 C :   -0.032960
  23 H :    0.031464
  24 H :    0.021870
  25 C :   -0.040421
  26 H :    0.026093
  27 H :    0.031063
  28 C :   -0.061335
  29 H :    0.032320
  30 H :    0.015309
  31 H :    0.029490
  32 H :    0.008633
  33 H :    0.032483

  Mayer bond orders larger than 0.100000
B(  0-S ,  1-C ) :   1.1430 B(  0-S ,  4-C ) :   1.1706 B(  1-C ,  2-C ) :   1.6268
B(  1-C , 32-H ) :   0.9771 B(  2-C ,  3-C ) :   1.2096 B(  2-C ,  6-C ) :   1.0153
B(  3-C ,  4-C ) :   1.5863 B(  3-C ,  5-H ) :   0.9971 B(  4-C , 20-C ) :   1.0199
B(  6-C ,  7-H ) :   0.9421 B(  6-C ,  8-H ) :   0.9352 B(  6-C ,  9-C ) :   1.0643
B(  9-C , 10-H ) :   0.9611 B(  9-C , 11-H ) :   0.9577 B(  9-C , 12-C ) :   1.0734
B( 12-C , 13-H ) :   0.9755 B( 12-C , 14-H ) :   0.9731 B( 12-C , 15-H ) :   0.9733
B( 16-S , 17-C ) :   1.1902 B( 16-S , 20-C ) :   1.1507 B( 17-C , 18-C ) :   1.5998
B( 17-C , 33-H ) :   0.9615 B( 18-C , 19-C ) :   1.2262 B( 18-C , 21-H ) :   1.0080
B( 19-C , 20-C ) :   1.5710 B( 19-C , 22-C ) :   1.0332 B( 22-C , 23-H ) :   0.9333
B( 22-C , 24-H ) :   0.9260 B( 22-C , 25-C ) :   1.0793 B( 25-C , 26-H ) :   0.9533
B( 25-C , 27-H ) :   0.9538 B( 25-C , 28-C ) :   1.0906 B( 28-C , 29-H ) :   0.9676
B( 28-C , 30-H ) :   0.9631 B( 28-C , 31-H ) :   0.9692

Dispersion correction           -0.014760409
FINAL SINGLE POINT ENERGY     -1339.865615015011

DIPOLE MOMENT
-------------
                                X             Y             Z
Electronic contribution:     -2.69452       1.15397     -29.45501
Nuclear contribution   :      3.01566      -1.22064      30.04503
                        -----------------------------------------
Total Dipole Moment    :      0.32113      -0.06667       0.59001
                        -----------------------------------------
Magnitude (a.u.)       :      0.67505
Magnitude (Debye)      :      1.71583

Rotational constants in cm-1:     0.021216     0.008544     0.006514
Rotational constants in MHz :   636.053553   256.152637   195.293909

                             ****ORCA TERMINATED NORMALLY****
TOTAL RUN TIME: 0 days 0 hours 0 minutes 35 seconds 832 msec
