                         Program Version 4.2.1 -  RELEASE  -
|  1> ! wB97X-D3 SP def2-SVP
|  2> %pal
|  3> nprocs 16
|  4> end
|  5>
|  6> * xyz 0 1
|  7> S 	 4.34887 	 14.6014 	 51.8215
|  8> C 	 3.20749 	 13.3231 	 52.2064
|  9> C 	 2.60826 	 12.7948 	 51.1055
| 10> C 	 3.0339 	 13.4971 	 49.9012
| 11> C 	 3.88854 	 14.5303 	 50.1191
| 12> H 	 2.82687 	 13.2956 	 48.842
| 13> C 	 1.56923 	 11.7117 	 51.1129
| 14> H 	 1.90932 	 10.9372 	 51.8034
| 15> H 	 1.59035 	 11.3143 	 50.1152
| 16> C 	 0.0793137 	 12.0479 	 51.5353
| 17> H 	 0.200989 	 12.7307 	 52.4269
| 18> H 	 -0.310202 	 12.775 	 50.7472
| 19> C 	 -0.760376 	 10.8429 	 51.8865
| 20> H 	 -1.82804 	 11.1841 	 51.89
| 21> H 	 -0.602226 	 10.067 	 51.1202
| 22> H 	 -0.483125 	 10.3951 	 52.8626
| 23> S 	 6.0801 	 15.8053 	 49.2249
| 24> C 	 6.03886 	 16.6482 	 47.7154
| 25> C 	 4.78402 	 16.7392 	 47.2152
| 26> C 	 3.8493 	 16.0036 	 47.9737
| 27> C 	 4.40464 	 15.4456 	 49.0971
| 28> H 	 4.74971 	 17.2814 	 46.263
| 29> C 	 2.38801 	 15.7673 	 47.5404
| 30> H 	 1.7916 	 15.6983 	 48.3692
| 31> H 	 2.35392 	 14.8115 	 47.1835
| 32> C 	 1.727 	 16.4431 	 46.3558
| 33> H 	 0.827537 	 15.8139 	 46.0877
| 34> H 	 2.39194 	 16.5029 	 45.4262
| 35> C 	 1.11745 	 17.825 	 46.8137
| 36> H 	 0.246579 	 17.737 	 47.4769
| 37> H 	 0.706284 	 18.341 	 45.9644
| 38> H 	 1.8535 	 18.5814 	 47.209
| 39> H 	 3.17201 	 12.968 	 53.2065
| 40> H 	 6.8971 	 17.1148 	 47.2641
| 41> *
| 42>
| 43>                          ****END OF INPUT****

CARTESIAN COORDINATES (ANGSTROEM)
---------------------------------
  S      4.348870   14.601400   51.821500
  C      3.207490   13.323100   52.206400
  C      2.608260   12.794800   51.105500
  C      3.033900   13.497100   49.901200
  C      3.888540   14.530300   50.119100
  H      2.826870   13.295600   48.842000
  C      1.569230   11.711700   51.112900
  H      1.909320   10.937200   51.803400
  H      1.590350   11.314300   50.115200
  C      0.079314   12.047900   51.535300
  H      0.200989   12.730700   52.426900
  H     -0.310202   12.775000   50.747200
  C     -0.760376   10.842900   51.886500
  H     -1.828040   11.184100   51.890000
  H     -0.602226   10.067000   51.120200
  H     -0.483125   10.395100   52.862600
  S      6.080100   15.805300   49.224900
  C      6.038860   16.648200   47.715400
  C      4.784020   16.739200   47.215200
  C      3.849300   16.003600   47.973700
  C      4.404640   15.445600   49.097100
  H      4.749710   17.281400   46.263000
  C      2.388010   15.767300   47.540400
  H      1.791600   15.698300   48.369200
  H      2.353920   14.811500   47.183500
  C      1.727000   16.443100   46.355800
  H      0.827537   15.813900   46.087700
  H      2.391940   16.502900   45.426200
  C      1.117450   17.825000   46.813700
  H      0.246579   17.737000   47.476900
  H      0.706284   18.341000   45.964400
  H      1.853500   18.581400   47.209000
  H      3.172010   12.968000   53.206500
  H      6.897100   17.114800   47.264100

 Total Charge           Charge          ....    0
 Multiplicity           Mult            ....    1
 Number of Electrons    NEL             ....  134
 Basis Dimension        Dim             ....  322

ORBITAL ENERGIES
----------------

  NO   OCC          E(Eh)            E(eV)
   0   2.0000     -88.962110     -2420.7821
   1   2.0000     -88.961632     -2420.7691
   2   2.0000     -10.326878      -281.0086
   3   2.0000     -10.320863      -280.8450
   4   2.0000     -10.310601      -280.5657
   5   2.0000     -10.310062      -280.5510
   6   2.0000     -10.305069      -280.4152
   7   2.0000     -10.302909      -280.3564
   8   2.0000     -10.302547      -280.3466
   9   2.0000     -10.297196      -280.2010
  10   2.0000     -10.292794      -280.0812
  11   2.0000     -10.290769      -280.0261
  12   2.0000     -10.290564      -280.0205
  13   2.0000     -10.289119      -279.9812
  14   2.0000     -10.279042      -279.7070
  15   2.0000     -10.276892      -279.6485
  16   2.0000      -8.077784      -219.8077
  17   2.0000      -8.076974      -219.7856
  18   2.0000      -6.036136      -164.2516
  19   2.0000      -6.035590      -164.2367
  20   2.0000      -6.032139      -164.1428
  21   2.0000      -6.031563      -164.1272
  22   2.0000      -6.028580      -164.0460
  23   2.0000      -6.027523      -164.0172
  24   2.0000      -1.013337       -27.5743
  25   2.0000      -0.987622       -26.8746
  26   2.0000      -0.911017       -24.7900
  27   2.0000      -0.907367       -24.6907
  28   2.0000      -0.873461       -23.7681
  29   2.0000      -0.851107       -23.1598
  30   2.0000      -0.844213       -22.9722
  31   2.0000      -0.819538       -22.3008
  32   2.0000      -0.786970       -21.4145
  33   2.0000      -0.774036       -21.0626
  34   2.0000      -0.704444       -19.1689
  35   2.0000      -0.699248       -19.0275
  36   2.0000      -0.694992       -18.9117
  37   2.0000      -0.657483       -17.8910
  38   2.0000      -0.643443       -17.5090
  39   2.0000      -0.618215       -16.8225
  40   2.0000      -0.600523       -16.3411
  41   2.0000      -0.567973       -15.4553
  42   2.0000      -0.557100       -15.1595
  43   2.0000      -0.552796       -15.0423
  44   2.0000      -0.534391       -14.5415
  45   2.0000      -0.523572       -14.2471
  46   2.0000      -0.521168       -14.1817
  47   2.0000      -0.515019       -14.0144
  48   2.0000      -0.505907       -13.7664
  49   2.0000      -0.498366       -13.5612
  50   2.0000      -0.493456       -13.4276
  51   2.0000      -0.481122       -13.0920
  52   2.0000      -0.470196       -12.7947
  53   2.0000      -0.468706       -12.7541
  54   2.0000      -0.462379       -12.5820
  55   2.0000      -0.446941       -12.1619
  56   2.0000      -0.443535       -12.0692
  57   2.0000      -0.440821       -11.9954
  58   2.0000      -0.429372       -11.6838
  59   2.0000      -0.427122       -11.6226
  60   2.0000      -0.418580       -11.3901
  61   2.0000      -0.412107       -11.2140
  62   2.0000      -0.411130       -11.1874
  63   2.0000      -0.355273        -9.6675
  64   2.0000      -0.332032        -9.0350
  65   2.0000      -0.326459        -8.8834
  66   2.0000      -0.290749        -7.9117
  67   0.0000       0.033166         0.9025
  68   0.0000       0.077363         2.1052
  69   0.0000       0.108096         2.9414
  70   0.0000       0.128746         3.5034
  71   0.0000       0.135235         3.6799

MULLIKEN ATOMIC CHARGES
-----------------------
   0 S :    0.094803
   1 C :   -0.124304
   2 C :   -0.060282
   3 C :   -0.015463
   4 C :   -0.124527
   5 H :    0.016570
   6 C :    0.070682
   7 H :    0.021376
   8 H :    0.016621
   9 C :   -0.104182
  10 H :    0.030053
  11 H :    0.038316
  12 C :   -0.045916
  13 H :    0.052364
  14 H :    0.037183
  15 H :    0.044067
  16 S :    0.103663
  17 C :   -0.090832
  18 C :   -0.063708
  19 C :   -0.007658
  20 C :   -0.157551
  21 H :    0.025196
  22 C :    0.125748
  23 H :    0.003844
  24 H :    0.009047
  25 C :   -0.101033
  26 H :    0.039215
  27 H :    0.047542
  28 C :   -0.070030
  29 H :    0.036891
  30 H :    0.018453
  31 H :    0.045861
  32 H :    0.040221
  33 H :    0.047772
Sum of atomic charges:    0.0000000

LOEWDIN ATOMIC CHARGES
----------------------
   0 S :    0.381688
   1 C :   -0.180563
   2 C :   -0.063133
   3 C :   -0.070836
   4 C :   -0.185344
   5 H :    0.035121
   6 C :   -0.036057
   7 H :    0.029925
   8 H :    0.025369
   9 C :   -0.050816
  10 H :    0.026098
  11 H :    0.029403
  12 C :   -0.070923
  13 H :    0.038216
  14 H :    0.027196
  15 H :    0.031171
  16 S :    0.421776
  17 C :   -0.184158
  18 C :   -0.081130
  19 C :   -0.047743
  20 C :   -0.206473
  21 H :    0.039473
  22 C :   -0.030602
  23 H :    0.022281
  24 H :    0.024278
  25 C :   -0.038354
  26 H :    0.035738
  27 H :    0.032931
  28 C :   -0.079390
  29 H :    0.027385
  30 H :    0.018584
  31 H :    0.031348
  32 H :    0.021167
  33 H :    0.026371

  Mayer bond orders larger than 0.100000
B(  0-S ,  1-C ) :   1.1256 B(  0-S ,  4-C ) :   1.1298 B(  1-C ,  2-C ) :   1.6311
B(  1-C , 32-H ) :   0.9765 B(  2-C ,  3-C ) :   1.1887 B(  2-C ,  6-C ) :   1.0341
B(  3-C ,  4-C ) :   1.6245 B(  3-C ,  5-H ) :   0.9920 B(  4-C , 20-C ) :   1.0308
B(  6-C ,  7-H ) :   0.9385 B(  6-C ,  8-H ) :   0.9327 B(  6-C ,  9-C ) :   1.0512
B(  9-C , 10-H ) :   0.9578 B(  9-C , 11-H ) :   0.9568 B(  9-C , 12-C ) :   1.0684
B( 12-C , 13-H ) :   0.9717 B( 12-C , 14-H ) :   0.9761 B( 12-C , 15-H ) :   0.9716
B( 16-S , 17-C ) :   1.1639 B( 16-S , 20-C ) :   1.1469 B( 17-C , 18-C ) :   1.6277
B( 17-C , 33-H ) :   0.9648 B( 18-C , 19-C ) :   1.2158 B( 18-C , 21-H ) :   0.9935
B( 19-C , 20-C ) :   1.6160 B( 19-C , 22-C ) :   1.0184 B( 22-C , 23-H ) :   0.9238
B( 22-C , 24-H ) :   0.9180 B( 22-C , 25-C ) :   1.0731 B( 25-C , 26-H ) :   0.9526
B( 25-C , 27-H ) :   0.9494 B( 25-C , 28-C ) :   1.0751 B( 28-C , 29-H ) :   0.9754
B( 28-C , 30-H ) :   0.9752 B( 28-C , 31-H ) :   0.9783

Dispersion correction           -0.013559754
FINAL SINGLE POINT ENERGY     -1339.869163158879

DIPOLE MOMENT
-------------
                                X             Y             Z
Electronic contribution:     28.22069       6.30629       7.94889
Nuclear contribution   :    -28.76534      -6.57557      -8.38198
                        -----------------------------------------
Total Dipole Moment    :     -0.54465      -0.26928      -0.43309
                        -----------------------------------------
Magnitude (a.u.)       :      0.74614
Magnitude (Debye)      :      1.89653

Rotational constants in cm-1:     0.018219     0.008156     0.006025
Rotational constants in MHz :   546.188606   244.499129   180.638007

                             ****ORCA TERMINATED NORMALLY****
TOTAL RUN TIME: 0 days 0 hours 0 minutes 33 seconds 965 msec
