                         Program Version 4.2.1 -  RELEASE  -
|  1> ! wB97X-D3 SP def2-SVP
|  2> %pal
|  3> nprocs 16
|  4> end
|  5>
|  6> * xyz 0 1
|  7> S 	 -40.6532 	 17.1921 	 77.048
|  8> C 	 -39.5352 	 18.5799 	 76.8802
|  9> C 	 -38.2523 	 18.1193 	 76.8069
| 10> C 	 -38.1668 	 16.7381 	 77.0633
| 11> C 	 -39.3425 	 16.0327 	 77.2443
| 12> H 	 -37.2126 	 16.2642 	 77.1401
| 13> C 	 -37.0069 	 18.9819 	 76.7609
| 14> H 	 -36.1014 	 18.3943 	 76.9636
| 15> H 	 -37.0526 	 19.753 	 77.4949
| 16> C 	 -36.8885 	 19.6851 	 75.4416
| 17> H 	 -37.827 	 20.287 	 75.5246
| 18> H 	 -36.1664 	 20.4706 	 75.4038
| 19> C 	 -36.9248 	 18.7931 	 74.2693
| 20> H 	 -36.1294 	 18.111 	 74.2076
| 21> H 	 -37.8726 	 18.2353 	 74.2952
| 22> H 	 -36.9319 	 19.405 	 73.3447
| 23> S 	 -39.8815 	 14.351 	 79.442
| 24> C 	 -39.4261 	 12.6899 	 79.1624
| 25> C 	 -38.7351 	 12.4979 	 78.022
| 26> C 	 -38.8594 	 13.6233 	 77.1312
| 27> C 	 -39.5125 	 14.7082 	 77.7241
| 28> H 	 -38.3834 	 11.4746 	 77.8833
| 29> C 	 -38.1864 	 13.544 	 75.7127
| 30> H 	 -37.9382 	 12.4743 	 75.5708
| 31> H 	 -37.1864 	 14.1057 	 75.6169
| 32> C 	 -39.1857 	 14.0866 	 74.7081
| 33> H 	 -39.5623 	 15.1023 	 74.8902
| 34> H 	 -40.1233 	 13.5209 	 74.8127
| 35> C 	 -38.6328 	 14.0767 	 73.3033
| 36> H 	 -38.4172 	 13.0591 	 72.9205
| 37> H 	 -37.6234 	 14.568 	 73.1256
| 38> H 	 -39.3902 	 14.5035 	 72.594
| 39> H 	 -39.8737 	 19.6142 	 76.7558
| 40> H 	 -39.6242 	 12.0056 	 79.9611
| 41> *
| 42>
| 43>                          ****END OF INPUT****

CARTESIAN COORDINATES (ANGSTROEM)
---------------------------------
  S    -40.653200   17.192100   77.048000
  C    -39.535200   18.579900   76.880200
  C    -38.252300   18.119300   76.806900
  C    -38.166800   16.738100   77.063300
  C    -39.342500   16.032700   77.244300
  H    -37.212600   16.264200   77.140100
  C    -37.006900   18.981900   76.760900
  H    -36.101400   18.394300   76.963600
  H    -37.052600   19.753000   77.494900
  C    -36.888500   19.685100   75.441600
  H    -37.827000   20.287000   75.524600
  H    -36.166400   20.470600   75.403800
  C    -36.924800   18.793100   74.269300
  H    -36.129400   18.111000   74.207600
  H    -37.872600   18.235300   74.295200
  H    -36.931900   19.405000   73.344700
  S    -39.881500   14.351000   79.442000
  C    -39.426100   12.689900   79.162400
  C    -38.735100   12.497900   78.022000
  C    -38.859400   13.623300   77.131200
  C    -39.512500   14.708200   77.724100
  H    -38.383400   11.474600   77.883300
  C    -38.186400   13.544000   75.712700
  H    -37.938200   12.474300   75.570800
  H    -37.186400   14.105700   75.616900
  C    -39.185700   14.086600   74.708100
  H    -39.562300   15.102300   74.890200
  H    -40.123300   13.520900   74.812700
  C    -38.632800   14.076700   73.303300
  H    -38.417200   13.059100   72.920500
  H    -37.623400   14.568000   73.125600
  H    -39.390200   14.503500   72.594000
  H    -39.873700   19.614200   76.755800
  H    -39.624200   12.005600   79.961100

 Total Charge           Charge          ....    0
 Multiplicity           Mult            ....    1
 Number of Electrons    NEL             ....  134
 Basis Dimension        Dim             ....  322

ORBITAL ENERGIES
----------------

  NO   OCC          E(Eh)            E(eV)
   0   2.0000     -88.964309     -2420.8419
   1   2.0000     -88.962343     -2420.7884
   2   2.0000     -10.326020      -280.9853
   3   2.0000     -10.325202      -280.9630
   4   2.0000     -10.318771      -280.7880
   5   2.0000     -10.316173      -280.7173
   6   2.0000     -10.311138      -280.5803
   7   2.0000     -10.303231      -280.3652
   8   2.0000     -10.297143      -280.1995
   9   2.0000     -10.294349      -280.1235
  10   2.0000     -10.288835      -279.9734
  11   2.0000     -10.286797      -279.9180
  12   2.0000     -10.280569      -279.7485
  13   2.0000     -10.280252      -279.7399
  14   2.0000     -10.278166      -279.6831
  15   2.0000     -10.269027      -279.4344
  16   2.0000      -8.079013      -219.8411
  17   2.0000      -8.076332      -219.7682
  18   2.0000      -6.037526      -164.2894
  19   2.0000      -6.034899      -164.2179
  20   2.0000      -6.033777      -164.1874
  21   2.0000      -6.030787      -164.1061
  22   2.0000      -6.029495      -164.0709
  23   2.0000      -6.027223      -164.0091
  24   2.0000      -1.006291       -27.3826
  25   2.0000      -0.984329       -26.7850
  26   2.0000      -0.924329       -25.1523
  27   2.0000      -0.906457       -24.6660
  28   2.0000      -0.874169       -23.7873
  29   2.0000      -0.847139       -23.0518
  30   2.0000      -0.843197       -22.9446
  31   2.0000      -0.812192       -22.1009
  32   2.0000      -0.787192       -21.4206
  33   2.0000      -0.770556       -20.9679
  34   2.0000      -0.710699       -19.3391
  35   2.0000      -0.700206       -19.0536
  36   2.0000      -0.688019       -18.7219
  37   2.0000      -0.657714       -17.8973
  38   2.0000      -0.638682       -17.3794
  39   2.0000      -0.616700       -16.7813
  40   2.0000      -0.596640       -16.2354
  41   2.0000      -0.581720       -15.8294
  42   2.0000      -0.558917       -15.2089
  43   2.0000      -0.555914       -15.1272
  44   2.0000      -0.544996       -14.8301
  45   2.0000      -0.523968       -14.2579
  46   2.0000      -0.513912       -13.9843
  47   2.0000      -0.511062       -13.9067
  48   2.0000      -0.506759       -13.7896
  49   2.0000      -0.495792       -13.4912
  50   2.0000      -0.494024       -13.4431
  51   2.0000      -0.481945       -13.1144
  52   2.0000      -0.471533       -12.8311
  53   2.0000      -0.463145       -12.6028
  54   2.0000      -0.454103       -12.3568
  55   2.0000      -0.450214       -12.2509
  56   2.0000      -0.440396       -11.9838
  57   2.0000      -0.436063       -11.8659
  58   2.0000      -0.432633       -11.7725
  59   2.0000      -0.420163       -11.4332
  60   2.0000      -0.416736       -11.3400
  61   2.0000      -0.404719       -11.0130
  62   2.0000      -0.403958       -10.9922
  63   2.0000      -0.341121        -9.2824
  64   2.0000      -0.330251        -8.9866
  65   2.0000      -0.326382        -8.8813
  66   2.0000      -0.302032        -8.2187
  67   0.0000       0.023811         0.6479
  68   0.0000       0.062391         1.6978
  69   0.0000       0.105078         2.8593
  70   0.0000       0.119284         3.2459
  71   0.0000       0.129140         3.5141

MULLIKEN ATOMIC CHARGES
-----------------------
   0 S :    0.092045
   1 C :   -0.144150
   2 C :   -0.093194
   3 C :    0.048256
   4 C :   -0.198343
   5 H :   -0.003387
   6 C :    0.108128
   7 H :    0.016897
   8 H :    0.024160
   9 C :   -0.088844
  10 H :    0.006751
  11 H :    0.017083
  12 C :   -0.016737
  13 H :    0.018497
  14 H :    0.046758
  15 H :    0.031938
  16 S :    0.101925
  17 C :   -0.101535
  18 C :   -0.013975
  19 C :   -0.060732
  20 C :   -0.102103
  21 H :    0.028862
  22 C :    0.067381
  23 H :    0.026005
  24 H :    0.047934
  25 C :   -0.085246
  26 H :    0.049165
  27 H :    0.031658
  28 C :   -0.067218
  29 H :    0.019311
  30 H :    0.035740
  31 H :    0.041118
  32 H :    0.061546
  33 H :    0.054305
Sum of atomic charges:   -0.0000000

LOEWDIN ATOMIC CHARGES
----------------------
   0 S :    0.382458
   1 C :   -0.178608
   2 C :   -0.070291
   3 C :   -0.051187
   4 C :   -0.195716
   5 H :    0.024818
   6 C :   -0.022300
   7 H :    0.024213
   8 H :    0.029756
   9 C :   -0.048032
  10 H :    0.025156
  11 H :    0.016992
  12 C :   -0.061788
  13 H :    0.015477
  14 H :    0.033305
  15 H :    0.031520
  16 S :    0.389335
  17 C :   -0.163844
  18 C :   -0.080657
  19 C :   -0.036647
  20 C :   -0.204848
  21 H :    0.037765
  22 C :   -0.028980
  23 H :    0.031340
  24 H :    0.037613
  25 C :   -0.053748
  26 H :    0.029226
  27 H :    0.030207
  28 C :   -0.078668
  29 H :    0.020677
  30 H :    0.029714
  31 H :    0.031252
  32 H :    0.031644
  33 H :    0.022845

  Mayer bond orders larger than 0.100000
B(  0-S ,  1-C ) :   1.1454 B(  0-S ,  4-C ) :   1.1276 B(  1-C ,  2-C ) :   1.5841
B(  1-C , 32-H ) :   0.9659 B(  2-C ,  3-C ) :   1.2624 B(  2-C ,  6-C ) :   1.0063
B(  3-C ,  4-C ) :   1.5591 B(  3-C ,  5-H ) :   0.9991 B(  4-C , 20-C ) :   1.0617
B(  6-C ,  7-H ) :   0.9459 B(  6-C ,  8-H ) :   0.9444 B(  6-C ,  9-C ) :   1.0638
B(  9-C , 10-H ) :   0.9531 B(  9-C , 11-H ) :   0.9560 B(  9-C , 12-C ) :   1.0852
B( 12-C , 13-H ) :   0.9761 B( 12-C , 14-H ) :   0.9629 B( 12-C , 15-H ) :   0.9687
B( 16-S , 17-C ) :   1.1632 B( 16-S , 20-C ) :   1.1185 B( 17-C , 18-C ) :   1.6275
B( 17-C , 33-H ) :   0.9683 B( 18-C , 19-C ) :   1.2206 B( 18-C , 21-H ) :   0.9884
B( 19-C , 20-C ) :   1.5883 B( 19-C , 22-C ) :   1.0222 B( 22-C , 23-H ) :   0.9415
B( 22-C , 24-H ) :   0.9354 B( 22-C , 25-C ) :   1.0573 B( 25-C , 26-H ) :   0.9489
B( 25-C , 27-H ) :   0.9487 B( 25-C , 28-C ) :   1.0888 B( 28-C , 29-H ) :   0.9719
B( 28-C , 30-H ) :   0.9714 B( 28-C , 31-H ) :   0.9725

Dispersion correction           -0.015554003
FINAL SINGLE POINT ENERGY     -1339.867069910343

DIPOLE MOMENT
-------------
                                X             Y             Z
Electronic contribution:    -15.16714      -5.46709      22.93455
Nuclear contribution   :     15.78172       5.40030     -23.09756
                        -----------------------------------------
Total Dipole Moment    :      0.61458      -0.06680      -0.16301
                        -----------------------------------------
Magnitude (a.u.)       :      0.63933
Magnitude (Debye)      :      1.62505

Rotational constants in cm-1:     0.019309     0.009619     0.007683
Rotational constants in MHz :   578.860809   288.374165   230.320460

                             ****ORCA TERMINATED NORMALLY****
TOTAL RUN TIME: 0 days 0 hours 0 minutes 32 seconds 517 msec
