                         Program Version 4.2.1 -  RELEASE  -
|  1> ! wB97X-D3 SP def2-SVP
|  2> %pal
|  3> nprocs 16
|  4> end
|  5>
|  6> * xyz 0 1
|  7> S 	 9.97464 	 -3.14358 	 85.7028
|  8> C 	 9.86497 	 -1.4996 	 86.3274
|  9> C 	 8.58771 	 -1.03756 	 86.4259
| 10> C 	 7.71528 	 -1.94499 	 85.7218
| 11> C 	 8.22226 	 -3.20605 	 85.4265
| 12> H 	 6.60707 	 -1.73692 	 85.4252
| 13> C 	 8.2105 	 0.380627 	 86.6376
| 14> H 	 7.21307 	 0.61932 	 86.3295
| 15> H 	 8.77092 	 1.11014 	 86.0538
| 16> C 	 8.36376 	 0.849615 	 88.1358
| 17> H 	 8.38095 	 1.98553 	 88.1203
| 18> H 	 7.52028 	 0.500506 	 88.6973
| 19> C 	 9.57714 	 0.453334 	 88.9834
| 20> H 	 9.333 	 -0.525119 	 89.4926
| 21> H 	 10.5797 	 0.351524 	 88.4795
| 22> H 	 9.68321 	 1.23685 	 89.8112
| 23> S 	 8.01692 	 -4.30226 	 82.9246
| 24> C 	 6.9419 	 -5.65145 	 82.6879
| 25> C 	 6.23264 	 -5.97301 	 83.8512
| 26> C 	 6.664 	 -5.21034 	 84.9576
| 27> C 	 7.62378 	 -4.27156 	 84.6313
| 28> H 	 5.44762 	 -6.63226 	 83.8402
| 29> C 	 6.14003 	 -5.3837 	 86.3394
| 30> H 	 5.45362 	 -4.58851 	 86.5695
| 31> H 	 6.95559 	 -5.3609 	 87.0756
| 32> C 	 5.41529 	 -6.78097 	 86.5805
| 33> H 	 5.93514 	 -7.5777 	 86.0671
| 34> H 	 4.43185 	 -6.70649 	 86.0725
| 35> C 	 5.24634 	 -7.04268 	 88.0808
| 36> H 	 4.83249 	 -8.06771 	 88.1761
| 37> H 	 4.41405 	 -6.44354 	 88.5827
| 38> H 	 6.16183 	 -7.03352 	 88.5917
| 39> H 	 10.7788 	 -1.00854 	 86.5723
| 40> H 	 6.72613 	 -6.02816 	 81.6905
| 41> *
| 42>
| 43>                          ****END OF INPUT****

CARTESIAN COORDINATES (ANGSTROEM)
---------------------------------
  S      9.974640   -3.143580   85.702800
  C      9.864970   -1.499600   86.327400
  C      8.587710   -1.037560   86.425900
  C      7.715280   -1.944990   85.721800
  C      8.222260   -3.206050   85.426500
  H      6.607070   -1.736920   85.425200
  C      8.210500    0.380627   86.637600
  H      7.213070    0.619320   86.329500
  H      8.770920    1.110140   86.053800
  C      8.363760    0.849615   88.135800
  H      8.380950    1.985530   88.120300
  H      7.520280    0.500506   88.697300
  C      9.577140    0.453334   88.983400
  H      9.333000   -0.525119   89.492600
  H     10.579700    0.351524   88.479500
  H      9.683210    1.236850   89.811200
  S      8.016920   -4.302260   82.924600
  C      6.941900   -5.651450   82.687900
  C      6.232640   -5.973010   83.851200
  C      6.664000   -5.210340   84.957600
  C      7.623780   -4.271560   84.631300
  H      5.447620   -6.632260   83.840200
  C      6.140030   -5.383700   86.339400
  H      5.453620   -4.588510   86.569500
  H      6.955590   -5.360900   87.075600
  C      5.415290   -6.780970   86.580500
  H      5.935140   -7.577700   86.067100
  H      4.431850   -6.706490   86.072500
  C      5.246340   -7.042680   88.080800
  H      4.832490   -8.067710   88.176100
  H      4.414050   -6.443540   88.582700
  H      6.161830   -7.033520   88.591700
  H     10.778800   -1.008540   86.572300
  H      6.726130   -6.028160   81.690500

 Total Charge           Charge          ....    0
 Multiplicity           Mult            ....    1
 Number of Electrons    NEL             ....  134
 Basis Dimension        Dim             ....  322

ORBITAL ENERGIES
----------------

  NO   OCC          E(Eh)            E(eV)
   0   2.0000     -88.964769     -2420.8544
   1   2.0000     -88.961541     -2420.7666
   2   2.0000     -10.326960      -281.0109
   3   2.0000     -10.319751      -280.8147
   4   2.0000     -10.318334      -280.7761
   5   2.0000     -10.315249      -280.6922
   6   2.0000     -10.304365      -280.3960
   7   2.0000     -10.300348      -280.2867
   8   2.0000     -10.297949      -280.2214
   9   2.0000     -10.291140      -280.0362
  10   2.0000     -10.289766      -279.9988
  11   2.0000     -10.289692      -279.9968
  12   2.0000     -10.289481      -279.9910
  13   2.0000     -10.288311      -279.9592
  14   2.0000     -10.287392      -279.9342
  15   2.0000     -10.281122      -279.7636
  16   2.0000      -8.079648      -219.8584
  17   2.0000      -8.076138      -219.7629
  18   2.0000      -6.037963      -164.3013
  19   2.0000      -6.034604      -164.2099
  20   2.0000      -6.034122      -164.1968
  21   2.0000      -6.030675      -164.1030
  22   2.0000      -6.030621      -164.1015
  23   2.0000      -6.026943      -164.0015
  24   2.0000      -1.004505       -27.3340
  25   2.0000      -0.983603       -26.7652
  26   2.0000      -0.908060       -24.7096
  27   2.0000      -0.904965       -24.6253
  28   2.0000      -0.865588       -23.5538
  29   2.0000      -0.851351       -23.1664
  30   2.0000      -0.842898       -22.9364
  31   2.0000      -0.810222       -22.0473
  32   2.0000      -0.783783       -21.3278
  33   2.0000      -0.770606       -20.9693
  34   2.0000      -0.705721       -19.2036
  35   2.0000      -0.696614       -18.9558
  36   2.0000      -0.687188       -18.6993
  37   2.0000      -0.656303       -17.8589
  38   2.0000      -0.644662       -17.5422
  39   2.0000      -0.611811       -16.6482
  40   2.0000      -0.599355       -16.3093
  41   2.0000      -0.573626       -15.6091
  42   2.0000      -0.569486       -15.4965
  43   2.0000      -0.549435       -14.9509
  44   2.0000      -0.535800       -14.5799
  45   2.0000      -0.519966       -14.1490
  46   2.0000      -0.514217       -13.9926
  47   2.0000      -0.507492       -13.8095
  48   2.0000      -0.504846       -13.7376
  49   2.0000      -0.496411       -13.5080
  50   2.0000      -0.483365       -13.1530
  51   2.0000      -0.478909       -13.0318
  52   2.0000      -0.472850       -12.8669
  53   2.0000      -0.464275       -12.6336
  54   2.0000      -0.457330       -12.4446
  55   2.0000      -0.456008       -12.4086
  56   2.0000      -0.438980       -11.9453
  57   2.0000      -0.433259       -11.7896
  58   2.0000      -0.428209       -11.6522
  59   2.0000      -0.427462       -11.6318
  60   2.0000      -0.418556       -11.3895
  61   2.0000      -0.409614       -11.1462
  62   2.0000      -0.407946       -11.1008
  63   2.0000      -0.336865        -9.1666
  64   2.0000      -0.326329        -8.8799
  65   2.0000      -0.323589        -8.8053
  66   2.0000      -0.303462        -8.2576
  67   0.0000       0.036317         0.9882
  68   0.0000       0.056823         1.5462
  69   0.0000       0.111479         3.0335
  70   0.0000       0.120553         3.2804
  71   0.0000       0.127639         3.4732

MULLIKEN ATOMIC CHARGES
-----------------------
   0 S :    0.094838
   1 C :   -0.128412
   2 C :   -0.021294
   3 C :   -0.006283
   4 C :   -0.181510
   5 H :    0.050202
   6 C :    0.074547
   7 H :    0.012407
   8 H :    0.032928
   9 C :   -0.107636
  10 H :    0.034495
  11 H :    0.031637
  12 C :   -0.102117
  13 H :    0.048373
  14 H :    0.038587
  15 H :    0.045955
  16 S :    0.123338
  17 C :   -0.088696
  18 C :   -0.015176
  19 C :   -0.024376
  20 C :   -0.174415
  21 H :   -0.015443
  22 C :    0.083494
  23 H :    0.034099
  24 H :    0.033914
  25 C :   -0.128059
  26 H :    0.037644
  27 H :    0.032860
  28 C :   -0.031383
  29 H :    0.026926
  30 H :    0.044206
  31 H :    0.034046
  32 H :    0.050839
  33 H :    0.059465
Sum of atomic charges:   -0.0000000

LOEWDIN ATOMIC CHARGES
----------------------
   0 S :    0.386313
   1 C :   -0.163099
   2 C :   -0.078620
   3 C :   -0.057887
   4 C :   -0.204438
   5 H :    0.045830
   6 C :   -0.029984
   7 H :    0.028556
   8 H :    0.033296
   9 C :   -0.045450
  10 H :    0.027219
  11 H :    0.021910
  12 C :   -0.084156
  13 H :    0.032074
  14 H :    0.024120
  15 H :    0.036078
  16 S :    0.418860
  17 C :   -0.182237
  18 C :   -0.063788
  19 C :   -0.052829
  20 C :   -0.212626
  21 H :    0.016462
  22 C :   -0.029110
  23 H :    0.032717
  24 H :    0.033739
  25 C :   -0.042561
  26 H :    0.021917
  27 H :    0.024307
  28 C :   -0.067795
  29 H :    0.030290
  30 H :    0.036078
  31 H :    0.018143
  32 H :    0.019102
  33 H :    0.027569

  Mayer bond orders larger than 0.100000
B(  0-S ,  1-C ) :   1.1626 B(  0-S ,  4-C ) :   1.1265 B(  1-C ,  2-C ) :   1.5886
B(  1-C , 32-H ) :   0.9696 B(  2-C ,  3-C ) :   1.2244 B(  2-C ,  6-C ) :   1.0340
B(  3-C ,  4-C ) :   1.6248 B(  3-C ,  5-H ) :   0.9695 B(  4-C , 20-C ) :   1.0220
B(  6-C ,  7-H ) :   0.9443 B(  6-C ,  8-H ) :   0.9484 B(  6-C ,  9-C ) :   1.0564
B(  9-C , 10-H ) :   0.9650 B(  9-C , 11-H ) :   0.9586 B(  9-C , 12-C ) :   1.0755
B( 12-C , 13-H ) :   0.9751 B( 12-C , 14-H ) :   0.9724 B( 12-C , 15-H ) :   0.9729
B( 16-S , 17-C ) :   1.1800 B( 16-S , 20-C ) :   1.1531 B( 17-C , 18-C ) :   1.5630
B( 17-C , 20-C ) :   0.1032 B( 17-C , 33-H ) :   0.9643 B( 18-C , 19-C ) :   1.2669
B( 18-C , 21-H ) :   1.0046 B( 19-C , 20-C ) :   1.5940 B( 19-C , 22-C ) :   1.0433
B( 22-C , 23-H ) :   0.9202 B( 22-C , 24-H ) :   0.9381 B( 22-C , 25-C ) :   1.0698
B( 25-C , 26-H ) :   0.9612 B( 25-C , 27-H ) :   0.9463 B( 25-C , 28-C ) :   1.0890
B( 28-C , 29-H ) :   0.9699 B( 28-C , 30-H ) :   0.9727 B( 28-C , 31-H ) :   0.9751

Dispersion correction           -0.013657177
FINAL SINGLE POINT ENERGY     -1339.868743947807

DIPOLE MOMENT
-------------
                                X             Y             Z
Electronic contribution:     10.89752      -4.75975     -21.91524
Nuclear contribution   :    -11.40173       4.98417      22.08991
                        -----------------------------------------
Total Dipole Moment    :     -0.50421       0.22442       0.17467
                        -----------------------------------------
Magnitude (a.u.)       :      0.57888
Magnitude (Debye)      :      1.47139

Rotational constants in cm-1:     0.019461     0.007679     0.006218
Rotational constants in MHz :   583.440985   230.202783   186.399154

                             ****ORCA TERMINATED NORMALLY****
TOTAL RUN TIME: 0 days 0 hours 0 minutes 32 seconds 754 msec
