                         Program Version 4.2.1 -  RELEASE  -
|  1> ! wB97X-D3 SP def2-SVP
|  2> %pal
|  3> nprocs 16
|  4> end
|  5>
|  6> * xyz 0 1
|  7> S 	 -93.4175 	 57.7363 	 127.563
|  8> C 	 -92.6203 	 57.6787 	 129.14
|  9> C 	 -91.3349 	 57.1637 	 129.037
| 10> C 	 -91.0252 	 56.7326 	 127.733
| 11> C 	 -92.0676 	 56.8558 	 126.856
| 12> H 	 -90.0996 	 56.3055 	 127.365
| 13> C 	 -90.3066 	 57.0182 	 130.207
| 14> H 	 -90.7655 	 57.2615 	 131.231
| 15> H 	 -89.5255 	 57.8409 	 130.131
| 16> C 	 -89.4965 	 55.7125 	 130.048
| 17> H 	 -90.0713 	 54.9734 	 130.571
| 18> H 	 -89.6233 	 55.2748 	 129.055
| 19> C 	 -88.0335 	 55.7313 	 130.558
| 20> H 	 -87.5348 	 56.5645 	 130.056
| 21> H 	 -88.0397 	 55.9864 	 131.649
| 22> H 	 -87.4729 	 54.8547 	 130.332
| 23> S 	 -92.9725 	 57.3793 	 124.289
| 24> C 	 -92.2652 	 56.4163 	 123.07
| 25> C 	 -91.5754 	 55.3155 	 123.557
| 26> C 	 -91.5252 	 55.1496 	 124.991
| 27> C 	 -92.1846 	 56.2926 	 125.524
| 28> H 	 -91.1548 	 54.6741 	 122.88
| 29> C 	 -90.8779 	 54.0205 	 125.705
| 30> H 	 -91.3408 	 53.0959 	 125.204
| 31> H 	 -91.2833 	 54.0687 	 126.702
| 32> C 	 -89.2829 	 53.8679 	 125.727
| 33> H 	 -88.726 	 54.741 	 126.026
| 34> H 	 -88.8929 	 53.6113 	 124.723
| 35> C 	 -88.7992 	 52.7528 	 126.71
| 36> H 	 -89.3381 	 51.807 	 126.414
| 37> H 	 -89.0364 	 52.9374 	 127.707
| 38> H 	 -87.7266 	 52.6574 	 126.57
| 39> H 	 -92.9502 	 58.076 	 130.08
| 40> H 	 -92.3734 	 56.5877 	 121.983
| 41> *
| 42>
| 43>                          ****END OF INPUT****

CARTESIAN COORDINATES (ANGSTROEM)
---------------------------------
  S    -93.417500   57.736300  127.563000
  C    -92.620300   57.678700  129.140000
  C    -91.334900   57.163700  129.037000
  C    -91.025200   56.732600  127.733000
  C    -92.067600   56.855800  126.856000
  H    -90.099600   56.305500  127.365000
  C    -90.306600   57.018200  130.207000
  H    -90.765500   57.261500  131.231000
  H    -89.525500   57.840900  130.131000
  C    -89.496500   55.712500  130.048000
  H    -90.071300   54.973400  130.571000
  H    -89.623300   55.274800  129.055000
  C    -88.033500   55.731300  130.558000
  H    -87.534800   56.564500  130.056000
  H    -88.039700   55.986400  131.649000
  H    -87.472900   54.854700  130.332000
  S    -92.972500   57.379300  124.289000
  C    -92.265200   56.416300  123.070000
  C    -91.575400   55.315500  123.557000
  C    -91.525200   55.149600  124.991000
  C    -92.184600   56.292600  125.524000
  H    -91.154800   54.674100  122.880000
  C    -90.877900   54.020500  125.705000
  H    -91.340800   53.095900  125.204000
  H    -91.283300   54.068700  126.702000
  C    -89.282900   53.867900  125.727000
  H    -88.726000   54.741000  126.026000
  H    -88.892900   53.611300  124.723000
  C    -88.799200   52.752800  126.710000
  H    -89.338100   51.807000  126.414000
  H    -89.036400   52.937400  127.707000
  H    -87.726600   52.657400  126.570000
  H    -92.950200   58.076000  130.080000
  H    -92.373400   56.587700  121.983000

 Total Charge           Charge          ....    0
 Multiplicity           Mult            ....    1
 Number of Electrons    NEL             ....  134
 Basis Dimension        Dim             ....  322

ORBITAL ENERGIES
----------------

  NO   OCC          E(Eh)            E(eV)
   0   2.0000     -88.968398     -2420.9532
   1   2.0000     -88.964753     -2420.8540
   2   2.0000     -10.332711      -281.1674
   3   2.0000     -10.325851      -280.9807
   4   2.0000     -10.317357      -280.7495
   5   2.0000     -10.312272      -280.6112
   6   2.0000     -10.312119      -280.6070
   7   2.0000     -10.307830      -280.4903
   8   2.0000     -10.307074      -280.4697
   9   2.0000     -10.302904      -280.3563
  10   2.0000     -10.301141      -280.3083
  11   2.0000     -10.288919      -279.9757
  12   2.0000     -10.287525      -279.9378
  13   2.0000     -10.285620      -279.8859
  14   2.0000     -10.284088      -279.8443
  15   2.0000     -10.283587      -279.8306
  16   2.0000      -8.082967      -219.9487
  17   2.0000      -8.079192      -219.8460
  18   2.0000      -6.041455      -164.3964
  19   2.0000      -6.037812      -164.2972
  20   2.0000      -6.037667      -164.2933
  21   2.0000      -6.033892      -164.1905
  22   2.0000      -6.033605      -164.1827
  23   2.0000      -6.029716      -164.0769
  24   2.0000      -1.003722       -27.3127
  25   2.0000      -0.979841       -26.6628
  26   2.0000      -0.907323       -24.6895
  27   2.0000      -0.905552       -24.6413
  28   2.0000      -0.866545       -23.5799
  29   2.0000      -0.858993       -23.3744
  30   2.0000      -0.843492       -22.9526
  31   2.0000      -0.811136       -22.0721
  32   2.0000      -0.785891       -21.3852
  33   2.0000      -0.770147       -20.9568
  34   2.0000      -0.713701       -19.4208
  35   2.0000      -0.703670       -19.1478
  36   2.0000      -0.692426       -18.8419
  37   2.0000      -0.660004       -17.9596
  38   2.0000      -0.639157       -17.3923
  39   2.0000      -0.622955       -16.9515
  40   2.0000      -0.595765       -16.2116
  41   2.0000      -0.566180       -15.4065
  42   2.0000      -0.560913       -15.2632
  43   2.0000      -0.546541       -14.8721
  44   2.0000      -0.534908       -14.5556
  45   2.0000      -0.527783       -14.3617
  46   2.0000      -0.516462       -14.0536
  47   2.0000      -0.506910       -13.7937
  48   2.0000      -0.502382       -13.6705
  49   2.0000      -0.496518       -13.5109
  50   2.0000      -0.487923       -13.2771
  51   2.0000      -0.486015       -13.2251
  52   2.0000      -0.472816       -12.8660
  53   2.0000      -0.463880       -12.6228
  54   2.0000      -0.456940       -12.4340
  55   2.0000      -0.454240       -12.3605
  56   2.0000      -0.446218       -12.1422
  57   2.0000      -0.443275       -12.0621
  58   2.0000      -0.438548       -11.9335
  59   2.0000      -0.433916       -11.8075
  60   2.0000      -0.424815       -11.5598
  61   2.0000      -0.420518       -11.4429
  62   2.0000      -0.408553       -11.1173
  63   2.0000      -0.349859        -9.5201
  64   2.0000      -0.333790        -9.0829
  65   2.0000      -0.330049        -8.9811
  66   2.0000      -0.278779        -7.5860
  67   0.0000       0.020719         0.5638
  68   0.0000       0.072131         1.9628
  69   0.0000       0.096171         2.6169
  70   0.0000       0.114303         3.1103
  71   0.0000       0.126235         3.4350

MULLIKEN ATOMIC CHARGES
-----------------------
   0 S :    0.098163
   1 C :   -0.103883
   2 C :   -0.085400
   3 C :   -0.007844
   4 C :   -0.117724
   5 H :    0.008183
   6 C :    0.053502
   7 H :    0.039648
   8 H :    0.038331
   9 C :   -0.097130
  10 H :    0.019157
  11 H :    0.021207
  12 C :   -0.043477
  13 H :    0.028898
  14 H :    0.044889
  15 H :    0.036950
  16 S :    0.102729
  17 C :   -0.086947
  18 C :   -0.015296
  19 C :   -0.025194
  20 C :   -0.144810
  21 H :   -0.025359
  22 C :    0.030658
  23 H :    0.050644
  24 H :    0.033032
  25 C :   -0.073487
  26 H :    0.034842
  27 H :    0.033640
  28 C :   -0.048858
  29 H :    0.033438
  30 H :    0.027715
  31 H :    0.042154
  32 H :    0.031207
  33 H :    0.066426
Sum of atomic charges:    0.0000000

LOEWDIN ATOMIC CHARGES
----------------------
   0 S :    0.385442
   1 C :   -0.193074
   2 C :   -0.060693
   3 C :   -0.073803
   4 C :   -0.182181
   5 H :    0.031566
   6 C :   -0.035121
   7 H :    0.036352
   8 H :    0.033962
   9 C :   -0.053635
  10 H :    0.023340
  11 H :    0.024051
  12 C :   -0.063243
  13 H :    0.024150
  14 H :    0.033248
  15 H :    0.023693
  16 S :    0.390683
  17 C :   -0.198362
  18 C :   -0.064713
  19 C :   -0.047315
  20 C :   -0.173620
  21 H :    0.011838
  22 C :   -0.039299
  23 H :    0.048935
  24 H :    0.031723
  25 C :   -0.035289
  26 H :    0.019186
  27 H :    0.026894
  28 C :   -0.058629
  29 H :    0.030807
  30 H :    0.012627
  31 H :    0.029187
  32 H :    0.024875
  33 H :    0.036419

  Mayer bond orders larger than 0.100000
B(  0-S ,  1-C ) :   1.1210 B(  0-S ,  4-C ) :   1.1352 B(  1-C ,  2-C ) :   1.6406
B(  1-C , 32-H ) :   0.9674 B(  2-C ,  3-C ) :   1.2256 B(  2-C ,  6-C ) :   1.0108
B(  3-C ,  4-C ) :   1.5925 B(  3-C ,  5-H ) :   0.9867 B(  4-C , 20-C ) :   1.0440
B(  6-C ,  7-H ) :   0.9476 B(  6-C ,  8-H ) :   0.9488 B(  6-C ,  9-C ) :   1.0212
B(  9-C , 10-H ) :   0.9482 B(  9-C , 11-H ) :   0.9619 B(  9-C , 12-C ) :   1.0750
B( 12-C , 13-H ) :   0.9759 B( 12-C , 14-H ) :   0.9753 B( 12-C , 15-H ) :   0.9747
B( 16-S , 17-C ) :   1.1477 B( 16-S , 20-C ) :   1.1261 B( 17-C , 18-C ) :   1.6289
B( 17-C , 33-H ) :   0.9615 B( 18-C , 19-C ) :   1.2112 B( 18-C , 21-H ) :   1.0014
B( 19-C , 20-C ) :   1.5751 B( 19-C , 22-C ) :   1.0535 B( 22-C , 23-H ) :   0.9260
B( 22-C , 24-H ) :   0.9352 B( 22-C , 25-C ) :   1.0433 B( 25-C , 26-H ) :   0.9590
B( 25-C , 27-H ) :   0.9546 B( 25-C , 28-C ) :   1.0783 B( 28-C , 29-H ) :   0.9740
B( 28-C , 30-H ) :   0.9786 B( 28-C , 31-H ) :   0.9747

Dispersion correction           -0.014938870
FINAL SINGLE POINT ENERGY     -1339.862419137487

DIPOLE MOMENT
-------------
                                X             Y             Z
Electronic contribution:    -25.97400      18.16832     -14.94019
Nuclear contribution   :     26.67160     -18.66613      15.02985
                        -----------------------------------------
Total Dipole Moment    :      0.69760      -0.49781       0.08966
                        -----------------------------------------
Magnitude (a.u.)       :      0.86168
Magnitude (Debye)      :      2.19022

Rotational constants in cm-1:     0.016310     0.010610     0.006780
Rotational constants in MHz :   488.974125   318.072602   203.273777

                             ****ORCA TERMINATED NORMALLY****
TOTAL RUN TIME: 0 days 0 hours 0 minutes 34 seconds 865 msec
