                         Program Version 4.2.1 -  RELEASE  -
|  1> ! wB97X-D3 SP def2-SVP
|  2> %pal
|  3> nprocs 16
|  4> end
|  5>
|  6> * xyz 0 1
|  7> S 	 2.44603 	 -20.3432 	 61.7587
|  8> C 	 2.89642 	 -20.5449 	 60.0804
|  9> C 	 1.78215 	 -20.7212 	 59.2789
| 10> C 	 0.613719 	 -20.4572 	 60.0451
| 11> C 	 0.760213 	 -20.3048 	 61.4065
| 12> H 	 -0.400263 	 -20.5371 	 59.6811
| 13> C 	 1.70715 	 -21.1353 	 57.8139
| 14> H 	 2.61204 	 -20.8427 	 57.2872
| 15> H 	 1.09417 	 -20.3661 	 57.2917
| 16> C 	 1.55849 	 -22.6358 	 57.5165
| 17> H 	 1.80353 	 -22.7592 	 56.4589
| 18> H 	 2.33525 	 -23.1623 	 58.0474
| 19> C 	 0.146059 	 -23.1274 	 57.7522
| 20> H 	 -0.559295 	 -22.3098 	 58.1171
| 21> H 	 -0.234368 	 -23.553 	 56.8418
| 22> H 	 0.126597 	 -23.9746 	 58.4372
| 23> S 	 -0.169639 	 -21.3561 	 63.832
| 24> C 	 -1.67627 	 -20.881 	 64.5131
| 25> C 	 -2.17912 	 -19.8326 	 63.7253
| 26> C 	 -1.40127 	 -19.4332 	 62.625
| 27> C 	 -0.238581 	 -20.174 	 62.486
| 28> H 	 -3.08171 	 -19.3352 	 64.0457
| 29> C 	 -1.71114 	 -18.2391 	 61.752
| 30> H 	 -2.56295 	 -18.4927 	 61.1204
| 31> H 	 -0.928327 	 -18.2622 	 61.0328
| 32> C 	 -1.83107 	 -16.8898 	 62.3773
| 33> H 	 -2.64045 	 -16.7774 	 63.0935
| 34> H 	 -2.1562 	 -16.165 	 61.6135
| 35> C 	 -0.543329 	 -16.3883 	 63.1263
| 36> H 	 0.114791 	 -16.0616 	 62.2874
| 37> H 	 -0.153047 	 -17.2599 	 63.6519
| 38> H 	 -0.821284 	 -15.6045 	 63.8118
| 39> H 	 3.86659 	 -20.9267 	 59.8449
| 40> H 	 -2.22834 	 -21.372 	 65.3353
| 41> *
| 42>
| 43>                          ****END OF INPUT****

CARTESIAN COORDINATES (ANGSTROEM)
---------------------------------
  S      2.446030  -20.343200   61.758700
  C      2.896420  -20.544900   60.080400
  C      1.782150  -20.721200   59.278900
  C      0.613719  -20.457200   60.045100
  C      0.760213  -20.304800   61.406500
  H     -0.400263  -20.537100   59.681100
  C      1.707150  -21.135300   57.813900
  H      2.612040  -20.842700   57.287200
  H      1.094170  -20.366100   57.291700
  C      1.558490  -22.635800   57.516500
  H      1.803530  -22.759200   56.458900
  H      2.335250  -23.162300   58.047400
  C      0.146059  -23.127400   57.752200
  H     -0.559295  -22.309800   58.117100
  H     -0.234368  -23.553000   56.841800
  H      0.126597  -23.974600   58.437200
  S     -0.169639  -21.356100   63.832000
  C     -1.676270  -20.881000   64.513100
  C     -2.179120  -19.832600   63.725300
  C     -1.401270  -19.433200   62.625000
  C     -0.238581  -20.174000   62.486000
  H     -3.081710  -19.335200   64.045700
  C     -1.711140  -18.239100   61.752000
  H     -2.562950  -18.492700   61.120400
  H     -0.928327  -18.262200   61.032800
  C     -1.831070  -16.889800   62.377300
  H     -2.640450  -16.777400   63.093500
  H     -2.156200  -16.165000   61.613500
  C     -0.543329  -16.388300   63.126300
  H      0.114791  -16.061600   62.287400
  H     -0.153047  -17.259900   63.651900
  H     -0.821284  -15.604500   63.811800
  H      3.866590  -20.926700   59.844900
  H     -2.228340  -21.372000   65.335300

 Total Charge           Charge          ....    0
 Multiplicity           Mult            ....    1
 Number of Electrons    NEL             ....  134
 Basis Dimension        Dim             ....  322

ORBITAL ENERGIES
----------------

  NO   OCC          E(Eh)            E(eV)
   0   2.0000     -88.965598     -2420.8770
   1   2.0000     -88.963370     -2420.8164
   2   2.0000     -10.332585      -281.1639
   3   2.0000     -10.330694      -281.1125
   4   2.0000     -10.323860      -280.9265
   5   2.0000     -10.312014      -280.6042
   6   2.0000     -10.304223      -280.3922
   7   2.0000     -10.302429      -280.3433
   8   2.0000     -10.295135      -280.1449
   9   2.0000     -10.292521      -280.0737
  10   2.0000     -10.291586      -280.0483
  11   2.0000     -10.288060      -279.9524
  12   2.0000     -10.284569      -279.8574
  13   2.0000     -10.282959      -279.8135
  14   2.0000     -10.277072      -279.6533
  15   2.0000     -10.274391      -279.5804
  16   2.0000      -8.080190      -219.8732
  17   2.0000      -8.078823      -219.8360
  18   2.0000      -6.038676      -164.3207
  19   2.0000      -6.037268      -164.2824
  20   2.0000      -6.034442      -164.2055
  21   2.0000      -6.033135      -164.1699
  22   2.0000      -6.031234      -164.1182
  23   2.0000      -6.029690      -164.0762
  24   2.0000      -1.008933       -27.4545
  25   2.0000      -0.987985       -26.8844
  26   2.0000      -0.913158       -24.8483
  27   2.0000      -0.911223       -24.7956
  28   2.0000      -0.869286       -23.6545
  29   2.0000      -0.849478       -23.1155
  30   2.0000      -0.841791       -22.9063
  31   2.0000      -0.813792       -22.1444
  32   2.0000      -0.786152       -21.3923
  33   2.0000      -0.777003       -21.1433
  34   2.0000      -0.704940       -19.1824
  35   2.0000      -0.701417       -19.0865
  36   2.0000      -0.696611       -18.9557
  37   2.0000      -0.655540       -17.8381
  38   2.0000      -0.645230       -17.5576
  39   2.0000      -0.618691       -16.8354
  40   2.0000      -0.596459       -16.2305
  41   2.0000      -0.574041       -15.6205
  42   2.0000      -0.557917       -15.1817
  43   2.0000      -0.547955       -14.9106
  44   2.0000      -0.543593       -14.7919
  45   2.0000      -0.535059       -14.5597
  46   2.0000      -0.525308       -14.2944
  47   2.0000      -0.509920       -13.8756
  48   2.0000      -0.505592       -13.7579
  49   2.0000      -0.495129       -13.4732
  50   2.0000      -0.489636       -13.3237
  51   2.0000      -0.480750       -13.0819
  52   2.0000      -0.468229       -12.7412
  53   2.0000      -0.466096       -12.6831
  54   2.0000      -0.462029       -12.5724
  55   2.0000      -0.448245       -12.1974
  56   2.0000      -0.442343       -12.0368
  57   2.0000      -0.435552       -11.8520
  58   2.0000      -0.430000       -11.7009
  59   2.0000      -0.418858       -11.3977
  60   2.0000      -0.413553       -11.2533
  61   2.0000      -0.407817       -11.0973
  62   2.0000      -0.405764       -11.0414
  63   2.0000      -0.347229        -9.4486
  64   2.0000      -0.333434        -9.0732
  65   2.0000      -0.331200        -9.0124
  66   2.0000      -0.295254        -8.0343
  67   0.0000       0.027760         0.7554
  68   0.0000       0.064883         1.7656
  69   0.0000       0.119707         3.2574
  70   0.0000       0.122201         3.3252
  71   0.0000       0.133221         3.6251

MULLIKEN ATOMIC CHARGES
-----------------------
   0 S :    0.100575
   1 C :   -0.096571
   2 C :   -0.099715
   3 C :    0.034407
   4 C :   -0.162204
   5 H :    0.004465
   6 C :    0.017306
   7 H :    0.005081
   8 H :    0.036456
   9 C :   -0.022933
  10 H :    0.028654
  11 H :    0.027999
  12 C :   -0.050858
  13 H :    0.046638
  14 H :    0.025459
  15 H :    0.033312
  16 S :    0.101798
  17 C :   -0.101286
  18 C :   -0.048990
  19 C :   -0.062564
  20 C :   -0.147116
  21 H :    0.013843
  22 C :    0.127724
  23 H :    0.027031
  24 H :   -0.001793
  25 C :   -0.084195
  26 H :    0.015217
  27 H :    0.026099
  28 C :   -0.054773
  29 H :    0.044618
  30 H :    0.051056
  31 H :    0.038019
  32 H :    0.048622
  33 H :    0.078618
Sum of atomic charges:    0.0000000

LOEWDIN ATOMIC CHARGES
----------------------
   0 S :    0.419000
   1 C :   -0.195717
   2 C :   -0.060542
   3 C :   -0.069643
   4 C :   -0.203874
   5 H :    0.025562
   6 C :   -0.043736
   7 H :    0.030076
   8 H :    0.038718
   9 C :   -0.035264
  10 H :    0.027588
  11 H :    0.026349
  12 C :   -0.072125
  13 H :    0.033879
  14 H :    0.024575
  15 H :    0.028368
  16 S :    0.407099
  17 C :   -0.197577
  18 C :   -0.076843
  19 C :   -0.059750
  20 C :   -0.190990
  21 H :    0.027742
  22 C :   -0.033120
  23 H :    0.035630
  24 H :    0.026011
  25 C :   -0.045487
  26 H :    0.016538
  27 H :    0.026847
  28 C :   -0.060375
  29 H :    0.032278
  30 H :    0.028926
  31 H :    0.024247
  32 H :    0.022329
  33 H :    0.043280

  Mayer bond orders larger than 0.100000
B(  0-S ,  1-C ) :   1.1508 B(  0-S ,  4-C ) :   1.1713 B(  1-C ,  2-C ) :   1.6062
B(  1-C ,  4-C ) :   0.1034 B(  1-C , 32-H ) :   0.9635 B(  2-C ,  3-C ) :   1.2601
B(  2-C ,  6-C ) :   1.0195 B(  3-C ,  4-C ) :   1.5666 B(  3-C ,  5-H ) :   0.9920
B(  4-C , 20-C ) :   1.0092 B(  6-C ,  7-H ) :   0.9343 B(  6-C ,  8-H ) :   0.9441
B(  6-C ,  9-C ) :   1.0732 B(  9-C , 10-H ) :   0.9607 B(  9-C , 11-H ) :   0.9545
B(  9-C , 12-C ) :   1.0586 B( 12-C , 13-H ) :   0.9796 B( 12-C , 14-H ) :   0.9760
B( 12-C , 15-H ) :   0.9753 B( 16-S , 17-C ) :   1.1776 B( 16-S , 20-C ) :   1.1448
B( 17-C , 18-C ) :   1.5601 B( 17-C , 20-C ) :   0.1106 B( 17-C , 33-H ) :   0.9663
B( 18-C , 19-C ) :   1.2680 B( 18-C , 21-H ) :   0.9939 B( 19-C , 20-C ) :   1.5685
B( 19-C , 22-C ) :   1.0393 B( 22-C , 23-H ) :   0.9194 B( 22-C , 24-H ) :   0.9238
B( 22-C , 25-C ) :   1.0792 B( 25-C , 26-H ) :   0.9573 B( 25-C , 27-H ) :   0.9520
B( 25-C , 28-C ) :   1.0588 B( 28-C , 29-H ) :   0.9784 B( 28-C , 30-H ) :   0.9795
B( 28-C , 31-H ) :   0.9767

Dispersion correction           -0.014650910
FINAL SINGLE POINT ENERGY     -1339.873782014054

DIPOLE MOMENT
-------------
                                X             Y             Z
Electronic contribution:      7.79006      -6.35282      16.45175
Nuclear contribution   :     -8.19567       6.27569     -16.94749
                        -----------------------------------------
Total Dipole Moment    :     -0.40561      -0.07713      -0.49573
                        -----------------------------------------
Magnitude (a.u.)       :      0.64515
Magnitude (Debye)      :      1.63985

Rotational constants in cm-1:     0.020072     0.008026     0.007575
Rotational constants in MHz :   601.730950   240.626945   227.079853

                             ****ORCA TERMINATED NORMALLY****
TOTAL RUN TIME: 0 days 0 hours 0 minutes 35 seconds 89 msec
