                         Program Version 4.2.1 -  RELEASE  -
|  1> ! wB97X-D3 SP def2-SVP
|  2> %pal
|  3> nprocs 16
|  4> end
|  5>
|  6> * xyz 0 1
|  7> S 	 -22.4579 	 34.6831 	 37.8406
|  8> C 	 -20.826 	 33.9011 	 37.7611
|  9> C 	 -20.7138 	 32.8232 	 38.6919
| 10> C 	 -21.7612 	 32.7763 	 39.6206
| 11> C 	 -22.7494 	 33.6912 	 39.3007
| 12> H 	 -21.7776 	 32.2642 	 40.5834
| 13> C 	 -19.5688 	 31.8809 	 38.9195
| 14> H 	 -19.6875 	 31.4329 	 39.9635
| 15> H 	 -18.7084 	 32.5252 	 38.9648
| 16> C 	 -19.4911 	 30.6761 	 37.993
| 17> H 	 -20.3461 	 29.972 	 38.0778
| 18> H 	 -19.4892 	 31.0332 	 36.95
| 19> C 	 -18.3048 	 29.8262 	 38.4084
| 20> H 	 -18.3281 	 29.7087 	 39.4596
| 21> H 	 -18.2086 	 28.8518 	 37.9104
| 22> H 	 -17.3844 	 30.3167 	 38.0444
| 23> S 	 -25.483 	 34.0509 	 39.0794
| 24> C 	 -26.3857 	 34.3999 	 40.5015
| 25> C 	 -25.6042 	 34.2771 	 41.6422
| 26> C 	 -24.252 	 34.0403 	 41.3586
| 27> C 	 -23.9665 	 33.9493 	 40.0353
| 28> H 	 -26.0752 	 34.5271 	 42.5812
| 29> C 	 -23.2445 	 34.0055 	 42.4808
| 30> H 	 -23.4259 	 34.9744 	 43.0379
| 31> H 	 -22.2064 	 34.0911 	 42.0542
| 32> C 	 -23.4231 	 32.8583 	 43.5103
| 33> H 	 -23.4433 	 31.8914 	 43.0352
| 34> H 	 -24.4557 	 33.0206 	 43.9851
| 35> C 	 -22.4189 	 32.922 	 44.6507
| 36> H 	 -21.3937 	 32.7687 	 44.3466
| 37> H 	 -22.6106 	 32.1298 	 45.3696
| 38> H 	 -22.4317 	 33.8465 	 45.2919
| 39> H 	 -20.0157 	 34.1677 	 37.1277
| 40> H 	 -27.4165 	 34.6771 	 40.6016
| 41> *
| 42>
| 43>                          ****END OF INPUT****

CARTESIAN COORDINATES (ANGSTROEM)
---------------------------------
  S    -22.457900   34.683100   37.840600
  C    -20.826000   33.901100   37.761100
  C    -20.713800   32.823200   38.691900
  C    -21.761200   32.776300   39.620600
  C    -22.749400   33.691200   39.300700
  H    -21.777600   32.264200   40.583400
  C    -19.568800   31.880900   38.919500
  H    -19.687500   31.432900   39.963500
  H    -18.708400   32.525200   38.964800
  C    -19.491100   30.676100   37.993000
  H    -20.346100   29.972000   38.077800
  H    -19.489200   31.033200   36.950000
  C    -18.304800   29.826200   38.408400
  H    -18.328100   29.708700   39.459600
  H    -18.208600   28.851800   37.910400
  H    -17.384400   30.316700   38.044400
  S    -25.483000   34.050900   39.079400
  C    -26.385700   34.399900   40.501500
  C    -25.604200   34.277100   41.642200
  C    -24.252000   34.040300   41.358600
  C    -23.966500   33.949300   40.035300
  H    -26.075200   34.527100   42.581200
  C    -23.244500   34.005500   42.480800
  H    -23.425900   34.974400   43.037900
  H    -22.206400   34.091100   42.054200
  C    -23.423100   32.858300   43.510300
  H    -23.443300   31.891400   43.035200
  H    -24.455700   33.020600   43.985100
  C    -22.418900   32.922000   44.650700
  H    -21.393700   32.768700   44.346600
  H    -22.610600   32.129800   45.369600
  H    -22.431700   33.846500   45.291900
  H    -20.015700   34.167700   37.127700
  H    -27.416500   34.677100   40.601600

 Total Charge           Charge          ....    0
 Multiplicity           Mult            ....    1
 Number of Electrons    NEL             ....  134
 Basis Dimension        Dim             ....  322

ORBITAL ENERGIES
----------------

  NO   OCC          E(Eh)            E(eV)
   0   2.0000     -88.973514     -2421.0924
   1   2.0000     -88.963096     -2420.8089
   2   2.0000     -10.331091      -281.1233
   3   2.0000     -10.321769      -280.8696
   4   2.0000     -10.320677      -280.8399
   5   2.0000     -10.312075      -280.6058
   6   2.0000     -10.303583      -280.3747
   7   2.0000     -10.297278      -280.2032
   8   2.0000     -10.295691      -280.1600
   9   2.0000     -10.295668      -280.1594
  10   2.0000     -10.294664      -280.1321
  11   2.0000     -10.293797      -280.1085
  12   2.0000     -10.288558      -279.9659
  13   2.0000     -10.287532      -279.9380
  14   2.0000     -10.281118      -279.7635
  15   2.0000     -10.276161      -279.6285
  16   2.0000      -8.086237      -220.0377
  17   2.0000      -8.077756      -219.8069
  18   2.0000      -6.044832      -164.4883
  19   2.0000      -6.041208      -164.3896
  20   2.0000      -6.036841      -164.2708
  21   2.0000      -6.036299      -164.2560
  22   2.0000      -6.032336      -164.1482
  23   2.0000      -6.028429      -164.0419
  24   2.0000      -1.005285       -27.3552
  25   2.0000      -0.979555       -26.6550
  26   2.0000      -0.916226       -24.9318
  27   2.0000      -0.907107       -24.6836
  28   2.0000      -0.868162       -23.6239
  29   2.0000      -0.857573       -23.3357
  30   2.0000      -0.848301       -23.0834
  31   2.0000      -0.810803       -22.0631
  32   2.0000      -0.780630       -21.2420
  33   2.0000      -0.768589       -20.9144
  34   2.0000      -0.706298       -19.2193
  35   2.0000      -0.702224       -19.1085
  36   2.0000      -0.695892       -18.9362
  37   2.0000      -0.661954       -18.0127
  38   2.0000      -0.640178       -17.4201
  39   2.0000      -0.618915       -16.8415
  40   2.0000      -0.591625       -16.0989
  41   2.0000      -0.577516       -15.7150
  42   2.0000      -0.563676       -15.3384
  43   2.0000      -0.555378       -15.1126
  44   2.0000      -0.526808       -14.3352
  45   2.0000      -0.523105       -14.2344
  46   2.0000      -0.517894       -14.0926
  47   2.0000      -0.511357       -13.9147
  48   2.0000      -0.508787       -13.8448
  49   2.0000      -0.500170       -13.6103
  50   2.0000      -0.491990       -13.3877
  51   2.0000      -0.477342       -12.9891
  52   2.0000      -0.476254       -12.9595
  53   2.0000      -0.462971       -12.5981
  54   2.0000      -0.456655       -12.4262
  55   2.0000      -0.448035       -12.1916
  56   2.0000      -0.446517       -12.1503
  57   2.0000      -0.435712       -11.8563
  58   2.0000      -0.432384       -11.7658
  59   2.0000      -0.429065       -11.6755
  60   2.0000      -0.419817       -11.4238
  61   2.0000      -0.416736       -11.3400
  62   2.0000      -0.408554       -11.1173
  63   2.0000      -0.345782        -9.4092
  64   2.0000      -0.336929        -9.1683
  65   2.0000      -0.330574        -8.9954
  66   2.0000      -0.282167        -7.6781
  67   0.0000       0.023261         0.6330
  68   0.0000       0.065854         1.7920
  69   0.0000       0.096474         2.6252
  70   0.0000       0.121323         3.3014
  71   0.0000       0.124625         3.3912

MULLIKEN ATOMIC CHARGES
-----------------------
   0 S :    0.114792
   1 C :   -0.105358
   2 C :   -0.070230
   3 C :    0.012111
   4 C :   -0.148391
   5 H :    0.027206
   6 C :    0.020656
   7 H :    0.023155
   8 H :    0.032897
   9 C :   -0.067792
  10 H :    0.035148
  11 H :    0.033581
  12 C :   -0.029722
  13 H :    0.024458
  14 H :    0.033656
  15 H :    0.025433
  16 S :    0.098060
  17 C :   -0.081174
  18 C :   -0.055691
  19 C :    0.005956
  20 C :   -0.147895
  21 H :    0.015828
  22 C :    0.011411
  23 H :    0.035362
  24 H :    0.036364
  25 C :   -0.081579
  26 H :    0.034133
  27 H :    0.038073
  28 C :   -0.042082
  29 H :    0.025133
  30 H :    0.028860
  31 H :    0.035670
  32 H :    0.033645
  33 H :    0.048326
Sum of atomic charges:   -0.0000000

LOEWDIN ATOMIC CHARGES
----------------------
   0 S :    0.377848
   1 C :   -0.185197
   2 C :   -0.053588
   3 C :   -0.062360
   4 C :   -0.170288
   5 H :    0.038175
   6 C :   -0.035546
   7 H :    0.034546
   8 H :    0.030795
   9 C :   -0.042286
  10 H :    0.030016
  11 H :    0.024509
  12 C :   -0.064612
  13 H :    0.018927
  14 H :    0.027397
  15 H :    0.026782
  16 S :    0.391351
  17 C :   -0.188831
  18 C :   -0.074022
  19 C :   -0.066867
  20 C :   -0.186278
  21 H :    0.030253
  22 C :   -0.038565
  23 H :    0.038540
  24 H :    0.030835
  25 C :   -0.042311
  26 H :    0.022091
  27 H :    0.033522
  28 C :   -0.072001
  29 H :    0.020683
  30 H :    0.026834
  31 H :    0.031572
  32 H :    0.019546
  33 H :    0.028529

  Mayer bond orders larger than 0.100000
B(  0-S ,  1-C ) :   1.1149 B(  0-S ,  4-C ) :   1.1433 B(  1-C ,  2-C ) :   1.6021
B(  1-C ,  4-C ) :   0.1137 B(  1-C , 32-H ) :   0.9749 B(  2-C ,  3-C ) :   1.2405
B(  2-C ,  6-C ) :   1.0136 B(  3-C ,  4-C ) :   1.5802 B(  3-C ,  5-H ) :   0.9863
B(  4-C , 20-C ) :   1.0433 B(  6-C ,  7-H ) :   0.9435 B(  6-C ,  8-H ) :   0.9417
B(  6-C ,  9-C ) :   1.0576 B(  9-C , 10-H ) :   0.9547 B(  9-C , 11-H ) :   0.9583
B(  9-C , 12-C ) :   1.0776 B( 12-C , 13-H ) :   0.9715 B( 12-C , 14-H ) :   0.9743
B( 12-C , 15-H ) :   0.9746 B( 16-S , 17-C ) :   1.1535 B( 16-S , 20-C ) :   1.1142
B( 17-C , 18-C ) :   1.6247 B( 17-C , 33-H ) :   0.9656 B( 18-C , 19-C ) :   1.2211
B( 18-C , 21-H ) :   0.9910 B( 19-C , 20-C ) :   1.6290 B( 19-C , 22-C ) :   1.0368
B( 22-C , 23-H ) :   0.9339 B( 22-C , 24-H ) :   0.9418 B( 22-C , 25-C ) :   1.0526
B( 25-C , 26-H ) :   0.9574 B( 25-C , 27-H ) :   0.9507 B( 25-C , 28-C ) :   1.0875
B( 28-C , 29-H ) :   0.9739 B( 28-C , 30-H ) :   0.9724 B( 28-C , 31-H ) :   0.9730

Dispersion correction           -0.013604745
FINAL SINGLE POINT ENERGY     -1339.871825132628

DIPOLE MOMENT
-------------
                                X             Y             Z
Electronic contribution:    -19.49588      16.01346     -17.34355
Nuclear contribution   :     19.88871     -16.26380      17.92293
                        -----------------------------------------
Total Dipole Moment    :      0.39283      -0.25034       0.57939
                        -----------------------------------------
Magnitude (a.u.)       :      0.74342
Magnitude (Debye)      :      1.88962

Rotational constants in cm-1:     0.016952     0.008585     0.006286
Rotational constants in MHz :   508.222384   257.380833   188.451874

                             ****ORCA TERMINATED NORMALLY****
TOTAL RUN TIME: 0 days 0 hours 0 minutes 30 seconds 938 msec
