                         Program Version 4.2.1 -  RELEASE  -
|  1> ! wB97X-D3 SP def2-SVP
|  2> %pal
|  3> nprocs 16
|  4> end
|  5>
|  6> * xyz 0 1
|  7> S 	 -40.7336 	 50.3156 	 103.789
|  8> C 	 -39.5237 	 49.0443 	 103.796
|  9> C 	 -38.2748 	 49.5355 	 103.382
| 10> C 	 -38.3069 	 50.8737 	 102.948
| 11> C 	 -39.5589 	 51.365 	 103.1
| 12> H 	 -37.4752 	 51.3465 	 102.411
| 13> C 	 -37.112 	 48.7114 	 103.276
| 14> H 	 -37.492 	 47.7609 	 103.625
| 15> H 	 -36.3446 	 49.0725 	 103.974
| 16> C 	 -36.5071 	 48.4082 	 101.911
| 17> H 	 -35.7665 	 47.6633 	 102.129
| 18> H 	 -37.3593 	 47.9271 	 101.448
| 19> C 	 -35.9752 	 49.5709 	 101.028
| 20> H 	 -35.2043 	 49.286 	 100.29
| 21> H 	 -36.7573 	 50.1213 	 100.536
| 22> H 	 -35.5252 	 50.3689 	 101.633
| 23> S 	 -39.5916 	 53.9911 	 103.718
| 24> C 	 -40.2522 	 55.1276 	 102.672
| 25> C 	 -40.7549 	 54.5162 	 101.548
| 26> C 	 -40.766 	 53.0965 	 101.559
| 27> C 	 -40.0488 	 52.6694 	 102.655
| 28> H 	 -41.1625 	 55.1881 	 100.8
| 29> C 	 -41.2681 	 52.2479 	 100.445
| 30> H 	 -41.8068 	 52.8573 	 99.772
| 31> H 	 -42.017 	 51.5423 	 100.813
| 32> C 	 -40.2297 	 51.3298 	 99.8005
| 33> H 	 -39.9621 	 50.4338 	 100.418
| 34> H 	 -39.2384 	 51.8891 	 99.6412
| 35> C 	 -40.8533 	 50.8318 	 98.4144
| 36> H 	 -41.1333 	 51.7179 	 97.8435
| 37> H 	 -41.7611 	 50.1719 	 98.519
| 38> H 	 -40.2269 	 50.1123 	 97.7895
| 39> H 	 -39.5895 	 48.0063 	 104.167
| 40> H 	 -40.1448 	 56.1553 	 102.812
| 41> *
| 42>
| 43>                          ****END OF INPUT****

CARTESIAN COORDINATES (ANGSTROEM)
---------------------------------
  S    -40.733600   50.315600  103.789000
  C    -39.523700   49.044300  103.796000
  C    -38.274800   49.535500  103.382000
  C    -38.306900   50.873700  102.948000
  C    -39.558900   51.365000  103.100000
  H    -37.475200   51.346500  102.411000
  C    -37.112000   48.711400  103.276000
  H    -37.492000   47.760900  103.625000
  H    -36.344600   49.072500  103.974000
  C    -36.507100   48.408200  101.911000
  H    -35.766500   47.663300  102.129000
  H    -37.359300   47.927100  101.448000
  C    -35.975200   49.570900  101.028000
  H    -35.204300   49.286000  100.290000
  H    -36.757300   50.121300  100.536000
  H    -35.525200   50.368900  101.633000
  S    -39.591600   53.991100  103.718000
  C    -40.252200   55.127600  102.672000
  C    -40.754900   54.516200  101.548000
  C    -40.766000   53.096500  101.559000
  C    -40.048800   52.669400  102.655000
  H    -41.162500   55.188100  100.800000
  C    -41.268100   52.247900  100.445000
  H    -41.806800   52.857300   99.772000
  H    -42.017000   51.542300  100.813000
  C    -40.229700   51.329800   99.800500
  H    -39.962100   50.433800  100.418000
  H    -39.238400   51.889100   99.641200
  C    -40.853300   50.831800   98.414400
  H    -41.133300   51.717900   97.843500
  H    -41.761100   50.171900   98.519000
  H    -40.226900   50.112300   97.789500
  H    -39.589500   48.006300  104.167000
  H    -40.144800   56.155300  102.812000

 Total Charge           Charge          ....    0
 Multiplicity           Mult            ....    1
 Number of Electrons    NEL             ....  134
 Basis Dimension        Dim             ....  322

ORBITAL ENERGIES
----------------

  NO   OCC          E(Eh)            E(eV)
   0   2.0000     -88.969598     -2420.9858
   1   2.0000     -88.959444     -2420.7095
   2   2.0000     -10.322329      -280.8849
   3   2.0000     -10.317474      -280.7528
   4   2.0000     -10.313243      -280.6376
   5   2.0000     -10.303118      -280.3621
   6   2.0000     -10.299568      -280.2655
   7   2.0000     -10.298403      -280.2338
   8   2.0000     -10.290840      -280.0280
   9   2.0000     -10.288956      -279.9767
  10   2.0000     -10.288539      -279.9654
  11   2.0000     -10.287451      -279.9358
  12   2.0000     -10.286934      -279.9217
  13   2.0000     -10.286849      -279.9194
  14   2.0000     -10.283297      -279.8227
  15   2.0000     -10.281485      -279.7734
  16   2.0000      -8.084353      -219.9864
  17   2.0000      -8.075716      -219.7514
  18   2.0000      -6.042766      -164.4320
  19   2.0000      -6.038876      -164.3262
  20   2.0000      -6.035209      -164.2264
  21   2.0000      -6.034002      -164.1935
  22   2.0000      -6.029873      -164.0812
  23   2.0000      -6.026762      -163.9965
  24   2.0000      -1.014154       -27.5965
  25   2.0000      -0.991628       -26.9836
  26   2.0000      -0.922209       -25.0946
  27   2.0000      -0.910029       -24.7632
  28   2.0000      -0.865289       -23.5457
  29   2.0000      -0.851013       -23.1572
  30   2.0000      -0.845935       -23.0191
  31   2.0000      -0.818362       -22.2688
  32   2.0000      -0.784192       -21.3389
  33   2.0000      -0.770997       -20.9799
  34   2.0000      -0.711828       -19.3698
  35   2.0000      -0.703669       -19.1478
  36   2.0000      -0.691265       -18.8103
  37   2.0000      -0.662306       -18.0223
  38   2.0000      -0.635524       -17.2935
  39   2.0000      -0.620397       -16.8819
  40   2.0000      -0.599727       -16.3194
  41   2.0000      -0.578099       -15.7309
  42   2.0000      -0.561944       -15.2913
  43   2.0000      -0.545999       -14.8574
  44   2.0000      -0.537221       -14.6185
  45   2.0000      -0.521694       -14.1960
  46   2.0000      -0.518734       -14.1155
  47   2.0000      -0.512051       -13.9336
  48   2.0000      -0.505622       -13.7587
  49   2.0000      -0.494775       -13.4635
  50   2.0000      -0.489389       -13.3170
  51   2.0000      -0.484635       -13.1876
  52   2.0000      -0.472301       -12.8520
  53   2.0000      -0.462929       -12.5969
  54   2.0000      -0.459930       -12.5153
  55   2.0000      -0.452180       -12.3045
  56   2.0000      -0.438903       -11.9432
  57   2.0000      -0.438390       -11.9292
  58   2.0000      -0.431583       -11.7440
  59   2.0000      -0.427482       -11.6324
  60   2.0000      -0.422277       -11.4907
  61   2.0000      -0.418904       -11.3990
  62   2.0000      -0.412511       -11.2250
  63   2.0000      -0.339183        -9.2296
  64   2.0000      -0.328255        -8.9323
  65   2.0000      -0.319775        -8.7015
  66   2.0000      -0.303975        -8.2716
  67   0.0000       0.043760         1.1908
  68   0.0000       0.065787         1.7902
  69   0.0000       0.115539         3.1440
  70   0.0000       0.121922         3.3177
  71   0.0000       0.129528         3.5246

MULLIKEN ATOMIC CHARGES
-----------------------
   0 S :    0.140000
   1 C :   -0.132127
   2 C :   -0.116269
   3 C :    0.047027
   4 C :   -0.167043
   5 H :    0.016400
   6 C :    0.062168
   7 H :   -0.004528
   8 H :    0.037423
   9 C :   -0.035923
  10 H :    0.031789
  11 H :    0.020839
  12 C :   -0.064286
  13 H :    0.046031
  14 H :    0.034801
  15 H :    0.027185
  16 S :    0.121436
  17 C :   -0.064758
  18 C :   -0.068768
  19 C :    0.027221
  20 C :   -0.217826
  21 H :    0.012030
  22 C :    0.119924
  23 H :   -0.000642
  24 H :    0.026598
  25 C :   -0.117127
  26 H :    0.060917
  27 H :    0.049016
  28 C :   -0.089708
  29 H :    0.036848
  30 H :    0.035553
  31 H :    0.041679
  32 H :    0.049918
  33 H :    0.034204
Sum of atomic charges:   -0.0000000

LOEWDIN ATOMIC CHARGES
----------------------
   0 S :    0.426260
   1 C :   -0.215996
   2 C :   -0.064651
   3 C :   -0.061599
   4 C :   -0.202129
   5 H :    0.040053
   6 C :   -0.039906
   7 H :    0.030504
   8 H :    0.032767
   9 C :   -0.032758
  10 H :    0.025903
  11 H :    0.025751
  12 C :   -0.074555
  13 H :    0.033996
  14 H :    0.024208
  15 H :    0.023232
  16 S :    0.436502
  17 C :   -0.201227
  18 C :   -0.076754
  19 C :   -0.055371
  20 C :   -0.203569
  21 H :    0.028714
  22 C :   -0.032297
  23 H :    0.023502
  24 H :    0.039270
  25 C :   -0.040887
  26 H :    0.031906
  27 H :    0.028566
  28 C :   -0.080581
  29 H :    0.022496
  30 H :    0.029172
  31 H :    0.030349
  32 H :    0.031766
  33 H :    0.017363

  Mayer bond orders larger than 0.100000
B(  0-S ,  1-C ) :   1.1216 B(  0-S ,  4-C ) :   1.1772 B(  1-C ,  2-C ) :   1.6124
B(  1-C , 32-H ) :   0.9566 B(  2-C ,  3-C ) :   1.2327 B(  2-C ,  6-C ) :   1.0587
B(  3-C ,  4-C ) :   1.5889 B(  3-C ,  5-H ) :   0.9908 B(  4-C , 20-C ) :   0.9771
B(  6-C ,  7-H ) :   0.9258 B(  6-C ,  8-H ) :   0.9185 B(  6-C ,  9-C ) :   1.0790
B(  9-C , 10-H ) :   0.9557 B(  9-C , 11-H ) :   0.9524 B(  9-C , 12-C ) :   1.0700
B( 12-C , 13-H ) :   0.9702 B( 12-C , 14-H ) :   0.9707 B( 12-C , 15-H ) :   0.9733
B( 16-S , 17-C ) :   1.1729 B( 16-S , 20-C ) :   1.1782 B( 17-C , 18-C ) :   1.5983
B( 17-C , 33-H ) :   0.9745 B( 18-C , 19-C ) :   1.2353 B( 18-C , 21-H ) :   0.9899
B( 19-C , 20-C ) :   1.5749 B( 19-C , 22-C ) :   1.0619 B( 22-C , 23-H ) :   0.9325
B( 22-C , 24-H ) :   0.9118 B( 22-C , 25-C ) :   1.0490 B( 25-C , 26-H ) :   0.9487
B( 25-C , 27-H ) :   0.9625 B( 25-C , 28-C ) :   1.0623 B( 28-C , 29-H ) :   0.9783
B( 28-C , 30-H ) :   0.9747 B( 28-C , 31-H ) :   0.9760

Dispersion correction           -0.015843755
FINAL SINGLE POINT ENERGY     -1339.871657041796

DIPOLE MOMENT
-------------
                                X             Y             Z
Electronic contribution:    -10.22970      13.06966      21.15884
Nuclear contribution   :     10.48733     -13.27594     -21.60213
                        -----------------------------------------
Total Dipole Moment    :      0.25763      -0.20628      -0.44329
                        -----------------------------------------
Magnitude (a.u.)       :      0.55265
Magnitude (Debye)      :      1.40473

Rotational constants in cm-1:     0.017355     0.010084     0.008506
Rotational constants in MHz :   520.300711   302.307271   255.018252

                             ****ORCA TERMINATED NORMALLY****
TOTAL RUN TIME: 0 days 0 hours 0 minutes 32 seconds 437 msec
