                         Program Version 4.2.1 -  RELEASE  -
|  1> ! wB97X-D3 SP def2-SVP
|  2> %pal
|  3> nprocs 16
|  4> end
|  5>
|  6> * xyz 0 1
|  7> S 	 -44.1776 	 27.3305 	 84.261
|  8> C 	 -44.2676 	 25.604 	 84.6571
|  9> C 	 -45.0866 	 24.886 	 83.803
| 10> C 	 -45.699 	 25.8084 	 82.8516
| 11> C 	 -45.4386 	 27.1914 	 83.068
| 12> H 	 -46.3342 	 25.5003 	 81.9919
| 13> C 	 -45.1751 	 23.4532 	 83.6761
| 14> H 	 -46.2988 	 23.2922 	 83.6329
| 15> H 	 -44.9087 	 23.0244 	 84.5692
| 16> C 	 -44.5318 	 22.8927 	 82.4204
| 17> H 	 -44.7359 	 21.8657 	 82.2786
| 18> H 	 -44.9572 	 23.4607 	 81.5485
| 19> C 	 -43.0017 	 23.0464 	 82.4557
| 20> H 	 -42.6275 	 22.8072 	 83.4626
| 21> H 	 -42.5525 	 22.4114 	 81.7409
| 22> H 	 -42.6558 	 24.0876 	 82.2815
| 23> S 	 -46.3075 	 29.6806 	 83.4555
| 24> C 	 -47.2782 	 30.4313 	 82.2365
| 25> C 	 -47.1694 	 29.7784 	 81.0166
| 26> C 	 -46.4934 	 28.5301 	 81.072
| 27> C 	 -45.9307 	 28.3501 	 82.359
| 28> H 	 -47.5819 	 30.3077 	 80.2126
| 29> C 	 -46.4458 	 27.5817 	 79.9623
| 30> H 	 -46.6129 	 28.1965 	 79.1378
| 31> H 	 -47.2504 	 26.8933 	 80.0338
| 32> C 	 -45.0563 	 26.9607 	 79.6766
| 33> H 	 -44.5574 	 26.3702 	 80.3934
| 34> H 	 -44.4391 	 27.8191 	 79.3937
| 35> C 	 -45.0252 	 26.0502 	 78.4306
| 36> H 	 -43.9951 	 26.0474 	 77.9756
| 37> H 	 -45.5425 	 26.4794 	 77.6843
| 38> H 	 -45.39 	 25.0353 	 78.5228
| 39> H 	 -43.7108 	 25.0657 	 85.4652
| 40> H 	 -47.6792 	 31.4183 	 82.4389
| 41> *
| 42>
| 43>                          ****END OF INPUT****

CARTESIAN COORDINATES (ANGSTROEM)
---------------------------------
  S    -44.177600   27.330500   84.261000
  C    -44.267600   25.604000   84.657100
  C    -45.086600   24.886000   83.803000
  C    -45.699000   25.808400   82.851600
  C    -45.438600   27.191400   83.068000
  H    -46.334200   25.500300   81.991900
  C    -45.175100   23.453200   83.676100
  H    -46.298800   23.292200   83.632900
  H    -44.908700   23.024400   84.569200
  C    -44.531800   22.892700   82.420400
  H    -44.735900   21.865700   82.278600
  H    -44.957200   23.460700   81.548500
  C    -43.001700   23.046400   82.455700
  H    -42.627500   22.807200   83.462600
  H    -42.552500   22.411400   81.740900
  H    -42.655800   24.087600   82.281500
  S    -46.307500   29.680600   83.455500
  C    -47.278200   30.431300   82.236500
  C    -47.169400   29.778400   81.016600
  C    -46.493400   28.530100   81.072000
  C    -45.930700   28.350100   82.359000
  H    -47.581900   30.307700   80.212600
  C    -46.445800   27.581700   79.962300
  H    -46.612900   28.196500   79.137800
  H    -47.250400   26.893300   80.033800
  C    -45.056300   26.960700   79.676600
  H    -44.557400   26.370200   80.393400
  H    -44.439100   27.819100   79.393700
  C    -45.025200   26.050200   78.430600
  H    -43.995100   26.047400   77.975600
  H    -45.542500   26.479400   77.684300
  H    -45.390000   25.035300   78.522800
  H    -43.710800   25.065700   85.465200
  H    -47.679200   31.418300   82.438900

 Total Charge           Charge          ....    0
 Multiplicity           Mult            ....    1
 Number of Electrons    NEL             ....  134
 Basis Dimension        Dim             ....  322

ORBITAL ENERGIES
----------------

  NO   OCC          E(Eh)            E(eV)
   0   2.0000     -88.964641     -2420.8510
   1   2.0000     -88.964364     -2420.8434
   2   2.0000     -10.331181      -281.1257
   3   2.0000     -10.327375      -281.0222
   4   2.0000     -10.317286      -280.7476
   5   2.0000     -10.314666      -280.6763
   6   2.0000     -10.307218      -280.4737
   7   2.0000     -10.297940      -280.2212
   8   2.0000     -10.297607      -280.2121
   9   2.0000     -10.293218      -280.0927
  10   2.0000     -10.288694      -279.9696
  11   2.0000     -10.286947      -279.9221
  12   2.0000     -10.284937      -279.8674
  13   2.0000     -10.282942      -279.8131
  14   2.0000     -10.274498      -279.5833
  15   2.0000     -10.269118      -279.4369
  16   2.0000      -8.079601      -219.8571
  17   2.0000      -8.078955      -219.8395
  18   2.0000      -6.037931      -164.3005
  19   2.0000      -6.037610      -164.2917
  20   2.0000      -6.033981      -164.1930
  21   2.0000      -6.033599      -164.1826
  22   2.0000      -6.030555      -164.0997
  23   2.0000      -6.029522      -164.0716
  24   2.0000      -1.005662       -27.3655
  25   2.0000      -0.980956       -26.6932
  26   2.0000      -0.922922       -25.1140
  27   2.0000      -0.917581       -24.9686
  28   2.0000      -0.868344       -23.6288
  29   2.0000      -0.857638       -23.3375
  30   2.0000      -0.841508       -22.8986
  31   2.0000      -0.810142       -22.0451
  32   2.0000      -0.787743       -21.4356
  33   2.0000      -0.775067       -21.0907
  34   2.0000      -0.715580       -19.4719
  35   2.0000      -0.706920       -19.2363
  36   2.0000      -0.689506       -18.7624
  37   2.0000      -0.666820       -18.1451
  38   2.0000      -0.631796       -17.1920
  39   2.0000      -0.618678       -16.8351
  40   2.0000      -0.598480       -16.2855
  41   2.0000      -0.580082       -15.7848
  42   2.0000      -0.569409       -15.4944
  43   2.0000      -0.555665       -15.1204
  44   2.0000      -0.539050       -14.6683
  45   2.0000      -0.530434       -14.4338
  46   2.0000      -0.519539       -14.1374
  47   2.0000      -0.512800       -13.9540
  48   2.0000      -0.502943       -13.6858
  49   2.0000      -0.497835       -13.5468
  50   2.0000      -0.492133       -13.3916
  51   2.0000      -0.487023       -13.2526
  52   2.0000      -0.466748       -12.7009
  53   2.0000      -0.461520       -12.5586
  54   2.0000      -0.454822       -12.3763
  55   2.0000      -0.445303       -12.1173
  56   2.0000      -0.444274       -12.0893
  57   2.0000      -0.437618       -11.9082
  58   2.0000      -0.432621       -11.7722
  59   2.0000      -0.427619       -11.6361
  60   2.0000      -0.426262       -11.5992
  61   2.0000      -0.423515       -11.5244
  62   2.0000      -0.415450       -11.3050
  63   2.0000      -0.349970        -9.5232
  64   2.0000      -0.331181        -9.0119
  65   2.0000      -0.322577        -8.7778
  66   2.0000      -0.281278        -7.6540
  67   0.0000       0.021385         0.5819
  68   0.0000       0.073242         1.9930
  69   0.0000       0.105175         2.8620
  70   0.0000       0.117731         3.2036
  71   0.0000       0.126402         3.4396

MULLIKEN ATOMIC CHARGES
-----------------------
   0 S :    0.099973
   1 C :   -0.128160
   2 C :   -0.108892
   3 C :   -0.019998
   4 C :   -0.127668
   5 H :    0.019537
   6 C :    0.092222
   7 H :    0.034739
   8 H :   -0.008490
   9 C :   -0.044494
  10 H :    0.024235
  11 H :    0.031868
  12 C :   -0.048720
  13 H :    0.020856
  14 H :    0.027656
  15 H :    0.047087
  16 S :    0.101536
  17 C :   -0.103923
  18 C :   -0.020560
  19 C :   -0.056601
  20 C :   -0.128240
  21 H :    0.000068
  22 C :    0.130571
  23 H :   -0.003523
  24 H :    0.038864
  25 C :   -0.091930
  26 H :    0.046804
  27 H :    0.030790
  28 C :   -0.021966
  29 H :    0.031519
  30 H :   -0.016051
  31 H :    0.032984
  32 H :    0.055428
  33 H :    0.062482
Sum of atomic charges:    0.0000000

LOEWDIN ATOMIC CHARGES
----------------------
   0 S :    0.393147
   1 C :   -0.204782
   2 C :   -0.063103
   3 C :   -0.074111
   4 C :   -0.196232
   5 H :    0.029511
   6 C :   -0.034128
   7 H :    0.043654
   8 H :    0.016517
   9 C :   -0.031059
  10 H :    0.019613
  11 H :    0.029742
  12 C :   -0.062528
  13 H :    0.023785
  14 H :    0.019293
  15 H :    0.031296
  16 S :    0.416004
  17 C :   -0.184772
  18 C :   -0.067649
  19 C :   -0.046863
  20 C :   -0.195533
  21 H :    0.024620
  22 C :   -0.027764
  23 H :    0.029723
  24 H :    0.029887
  25 C :   -0.030246
  26 H :    0.018851
  27 H :    0.031906
  28 C :   -0.062420
  29 H :    0.035988
  30 H :    0.003109
  31 H :    0.021801
  32 H :    0.036101
  33 H :    0.026643

  Mayer bond orders larger than 0.100000
B(  0-S ,  1-C ) :   1.1197 B(  0-S ,  4-C ) :   1.1479 B(  1-C ,  2-C ) :   1.6205
B(  1-C , 32-H ) :   0.9571 B(  2-C ,  3-C ) :   1.2271 B(  2-C ,  6-C ) :   1.0435
B(  3-C ,  4-C ) :   1.5654 B(  3-C ,  5-H ) :   0.9815 B(  4-C , 20-C ) :   1.0523
B(  6-C ,  7-H ) :   0.9247 B(  6-C ,  8-H ) :   0.9320 B(  6-C ,  9-C ) :   1.0755
B(  9-C , 10-H ) :   0.9556 B(  9-C , 11-H ) :   0.9513 B(  9-C , 12-C ) :   1.0695
B( 12-C , 13-H ) :   0.9753 B( 12-C , 14-H ) :   0.9752 B( 12-C , 15-H ) :   0.9741
B( 16-S , 17-C ) :   1.1780 B( 16-S , 20-C ) :   1.1465 B( 17-C , 18-C ) :   1.5815
B( 17-C , 20-C ) :   0.1035 B( 17-C , 33-H ) :   0.9651 B( 18-C , 19-C ) :   1.2477
B( 18-C , 21-H ) :   1.0025 B( 19-C , 20-C ) :   1.5448 B( 19-C , 22-C ) :   1.0540
B( 22-C , 23-H ) :   0.9139 B( 22-C , 24-H ) :   0.9180 B( 22-C , 25-C ) :   1.0639
B( 25-C , 26-H ) :   0.9608 B( 25-C , 27-H ) :   0.9542 B( 25-C , 28-C ) :   1.0903
B( 28-C , 29-H ) :   0.9727 B( 28-C , 30-H ) :   0.9656 B( 28-C , 31-H ) :   0.9750

Dispersion correction           -0.015467270
FINAL SINGLE POINT ENERGY     -1339.856452612539

DIPOLE MOMENT
-------------
                                X             Y             Z
Electronic contribution:     -4.95826      22.77213      18.78350
Nuclear contribution   :      4.79344     -23.13257     -19.38213
                        -----------------------------------------
Total Dipole Moment    :     -0.16482      -0.36045      -0.59862
                        -----------------------------------------
Magnitude (a.u.)       :      0.71794
Magnitude (Debye)      :      1.82486

Rotational constants in cm-1:     0.019331     0.010102     0.007308
Rotational constants in MHz :   579.531064   302.859229   219.089377

                             ****ORCA TERMINATED NORMALLY****
TOTAL RUN TIME: 0 days 0 hours 0 minutes 32 seconds 135 msec
