                         Program Version 4.2.1 -  RELEASE  -
|  1> ! wB97X-D3 SP def2-SVP
|  2> %pal
|  3> nprocs 16
|  4> end
|  5>
|  6> * xyz 0 1
|  7> S 	 -46.3156 	 28.4862 	 85.4046
|  8> C 	 -46.1937 	 30.2597 	 85.8132
|  9> C 	 -45.0733 	 30.7926 	 85.1522
| 10> C 	 -44.3479 	 29.8518 	 84.3335
| 11> C 	 -44.8259 	 28.5558 	 84.5351
| 12> H 	 -43.4986 	 30.0938 	 83.6986
| 13> C 	 -44.6561 	 32.2771 	 85.1459
| 14> H 	 -44.1459 	 32.3756 	 84.2102
| 15> H 	 -43.8421 	 32.5063 	 85.9449
| 16> C 	 -45.8238 	 33.1612 	 85.3382
| 17> H 	 -46.4317 	 33.0002 	 84.5458
| 18> H 	 -46.2639 	 33.0267 	 86.2911
| 19> C 	 -45.4892 	 34.7005 	 85.2305
| 20> H 	 -44.723 	 34.7258 	 84.4971
| 21> H 	 -46.3383 	 35.3125 	 84.8977
| 22> H 	 -45.1273 	 35.0875 	 86.1863
| 23> S 	 -45.1165 	 26.6594 	 82.4794
| 24> C 	 -43.6706 	 25.7577 	 82.0499
| 25> C 	 -42.6577 	 25.9501 	 82.9284
| 26> C 	 -42.9434 	 26.9817 	 83.9083
| 27> C 	 -44.2469 	 27.3745 	 83.8483
| 28> H 	 -41.83 	 25.2065 	 82.8853
| 29> C 	 -41.9457 	 27.2122 	 85.0329
| 30> H 	 -41.5508 	 26.2985 	 85.3544
| 31> H 	 -42.3671 	 27.6762 	 85.9566
| 32> C 	 -40.9701 	 28.3094 	 84.7849
| 33> H 	 -40.4671 	 28.3825 	 85.671
| 34> H 	 -41.3857 	 29.3279 	 84.6571
| 35> C 	 -39.8355 	 28.0798 	 83.7841
| 36> H 	 -39.3002 	 29.0038 	 83.5192
| 37> H 	 -40.153 	 27.564 	 82.8721
| 38> H 	 -39.0538 	 27.4579 	 84.2689
| 39> H 	 -46.8842 	 30.8249 	 86.396
| 40> H 	 -43.7273 	 25.005 	 81.32
| 41> *
| 42>
| 43>                          ****END OF INPUT****

CARTESIAN COORDINATES (ANGSTROEM)
---------------------------------
  S    -46.315600   28.486200   85.404600
  C    -46.193700   30.259700   85.813200
  C    -45.073300   30.792600   85.152200
  C    -44.347900   29.851800   84.333500
  C    -44.825900   28.555800   84.535100
  H    -43.498600   30.093800   83.698600
  C    -44.656100   32.277100   85.145900
  H    -44.145900   32.375600   84.210200
  H    -43.842100   32.506300   85.944900
  C    -45.823800   33.161200   85.338200
  H    -46.431700   33.000200   84.545800
  H    -46.263900   33.026700   86.291100
  C    -45.489200   34.700500   85.230500
  H    -44.723000   34.725800   84.497100
  H    -46.338300   35.312500   84.897700
  H    -45.127300   35.087500   86.186300
  S    -45.116500   26.659400   82.479400
  C    -43.670600   25.757700   82.049900
  C    -42.657700   25.950100   82.928400
  C    -42.943400   26.981700   83.908300
  C    -44.246900   27.374500   83.848300
  H    -41.830000   25.206500   82.885300
  C    -41.945700   27.212200   85.032900
  H    -41.550800   26.298500   85.354400
  H    -42.367100   27.676200   85.956600
  C    -40.970100   28.309400   84.784900
  H    -40.467100   28.382500   85.671000
  H    -41.385700   29.327900   84.657100
  C    -39.835500   28.079800   83.784100
  H    -39.300200   29.003800   83.519200
  H    -40.153000   27.564000   82.872100
  H    -39.053800   27.457900   84.268900
  H    -46.884200   30.824900   86.396000
  H    -43.727300   25.005000   81.320000

 Total Charge           Charge          ....    0
 Multiplicity           Mult            ....    1
 Number of Electrons    NEL             ....  134
 Basis Dimension        Dim             ....  322

ORBITAL ENERGIES
----------------

  NO   OCC          E(Eh)            E(eV)
   0   2.0000     -88.968475     -2420.9553
   1   2.0000     -88.962347     -2420.7885
   2   2.0000     -10.331221      -281.1268
   3   2.0000     -10.325589      -280.9736
   4   2.0000     -10.319259      -280.8013
   5   2.0000     -10.312498      -280.6173
   6   2.0000     -10.306222      -280.4466
   7   2.0000     -10.302716      -280.3511
   8   2.0000     -10.296806      -280.1903
   9   2.0000     -10.296221      -280.1744
  10   2.0000     -10.295859      -280.1646
  11   2.0000     -10.287476      -279.9365
  12   2.0000     -10.276927      -279.6494
  13   2.0000     -10.274945      -279.5955
  14   2.0000     -10.274103      -279.5725
  15   2.0000     -10.273985      -279.5694
  16   2.0000      -8.082323      -219.9312
  17   2.0000      -8.077162      -219.7908
  18   2.0000      -6.040890      -164.3810
  19   2.0000      -6.037015      -164.2755
  20   2.0000      -6.035694      -164.2396
  21   2.0000      -6.033016      -164.1667
  22   2.0000      -6.031800      -164.1336
  23   2.0000      -6.027750      -164.0234
  24   2.0000      -1.002948       -27.2916
  25   2.0000      -0.978844       -26.6357
  26   2.0000      -0.918442       -24.9921
  27   2.0000      -0.916033       -24.9265
  28   2.0000      -0.864759       -23.5313
  29   2.0000      -0.849115       -23.1056
  30   2.0000      -0.843783       -22.9605
  31   2.0000      -0.811119       -22.0717
  32   2.0000      -0.786082       -21.3904
  33   2.0000      -0.774598       -21.0779
  34   2.0000      -0.715336       -19.4653
  35   2.0000      -0.701379       -19.0855
  36   2.0000      -0.685623       -18.6567
  37   2.0000      -0.658967       -17.9314
  38   2.0000      -0.638145       -17.3648
  39   2.0000      -0.611757       -16.6467
  40   2.0000      -0.598971       -16.2988
  41   2.0000      -0.584208       -15.8971
  42   2.0000      -0.564300       -15.3554
  43   2.0000      -0.555624       -15.1193
  44   2.0000      -0.543050       -14.7772
  45   2.0000      -0.525249       -14.2927
  46   2.0000      -0.520432       -14.1617
  47   2.0000      -0.509892       -13.8749
  48   2.0000      -0.503466       -13.7000
  49   2.0000      -0.497498       -13.5376
  50   2.0000      -0.492416       -13.3993
  51   2.0000      -0.483577       -13.1588
  52   2.0000      -0.478654       -13.0248
  53   2.0000      -0.460475       -12.5302
  54   2.0000      -0.456838       -12.4312
  55   2.0000      -0.443584       -12.0705
  56   2.0000      -0.442442       -12.0395
  57   2.0000      -0.438627       -11.9356
  58   2.0000      -0.434422       -11.8212
  59   2.0000      -0.427058       -11.6208
  60   2.0000      -0.412038       -11.2121
  61   2.0000      -0.411144       -11.1878
  62   2.0000      -0.409102       -11.1322
  63   2.0000      -0.339509        -9.2385
  64   2.0000      -0.330974        -9.0063
  65   2.0000      -0.327206        -8.9037
  66   2.0000      -0.301691        -8.2094
  67   0.0000       0.033859         0.9213
  68   0.0000       0.064652         1.7593
  69   0.0000       0.104499         2.8436
  70   0.0000       0.120580         3.2811
  71   0.0000       0.126138         3.4324

MULLIKEN ATOMIC CHARGES
-----------------------
   0 S :    0.103907
   1 C :   -0.116415
   2 C :   -0.105200
   3 C :    0.030363
   4 C :   -0.155618
   5 H :    0.030893
   6 C :    0.060987
   7 H :    0.012684
   8 H :    0.049829
   9 C :   -0.066928
  10 H :    0.015076
  11 H :    0.033453
  12 C :   -0.038455
  13 H :    0.014607
  14 H :    0.040256
  15 H :    0.032149
  16 S :    0.091364
  17 C :   -0.082019
  18 C :   -0.038682
  19 C :   -0.021639
  20 C :   -0.133628
  21 H :    0.040387
  22 C :    0.074504
  23 H :    0.014975
  24 H :    0.033780
  25 C :   -0.045269
  26 H :   -0.001555
  27 H :    0.024629
  28 C :   -0.065891
  29 H :    0.031172
  30 H :    0.034344
  31 H :    0.021997
  32 H :    0.040134
  33 H :    0.039809
Sum of atomic charges:   -0.0000000

LOEWDIN ATOMIC CHARGES
----------------------
   0 S :    0.391526
   1 C :   -0.183656
   2 C :   -0.052576
   3 C :   -0.062904
   4 C :   -0.194165
   5 H :    0.034297
   6 C :   -0.033377
   7 H :    0.024387
   8 H :    0.040921
   9 C :   -0.032779
  10 H :    0.014863
  11 H :    0.020459
  12 C :   -0.056930
  13 H :    0.017108
  14 H :    0.028536
  15 H :    0.023150
  16 S :    0.382276
  17 C :   -0.167645
  18 C :   -0.075546
  19 C :   -0.053219
  20 C :   -0.191194
  21 H :    0.041122
  22 C :   -0.023396
  23 H :    0.025117
  24 H :    0.045806
  25 C :   -0.042778
  26 H :    0.015403
  27 H :    0.026632
  28 C :   -0.073343
  29 H :    0.027012
  30 H :    0.021268
  31 H :    0.024577
  32 H :    0.022055
  33 H :    0.016992

  Mayer bond orders larger than 0.100000
B(  0-S ,  1-C ) :   1.1089 B(  0-S ,  4-C ) :   1.1646 B(  1-C ,  2-C ) :   1.6199
B(  1-C , 32-H ) :   0.9741 B(  2-C ,  3-C ) :   1.2367 B(  2-C ,  6-C ) :   1.0070
B(  3-C ,  4-C ) :   1.5748 B(  3-C ,  5-H ) :   0.9848 B(  4-C , 20-C ) :   0.9891
B(  6-C ,  7-H ) :   0.9373 B(  6-C ,  8-H ) :   0.9303 B(  6-C ,  9-C ) :   1.0948
B(  9-C , 10-H ) :   0.9577 B(  9-C , 11-H ) :   0.9490 B(  9-C , 12-C ) :   1.0789
B( 12-C , 13-H ) :   0.9766 B( 12-C , 14-H ) :   0.9778 B( 12-C , 15-H ) :   0.9779
B( 16-S , 17-C ) :   1.1443 B( 16-S , 20-C ) :   1.1250 B( 17-C , 18-C ) :   1.6579
B( 17-C , 33-H ) :   0.9699 B( 18-C , 19-C ) :   1.1787 B( 18-C , 21-H ) :   0.9803
B( 19-C , 20-C ) :   1.6733 B( 19-C , 22-C ) :   1.0267 B( 22-C , 23-H ) :   0.9481
B( 22-C , 24-H ) :   0.9377 B( 22-C , 25-C ) :   1.0718 B( 25-C , 26-H ) :   0.9498
B( 25-C , 27-H ) :   0.9530 B( 25-C , 28-C ) :   1.0723 B( 28-C , 29-H ) :   0.9734
B( 28-C , 30-H ) :   0.9776 B( 28-C , 31-H ) :   0.9778

Dispersion correction           -0.014273682
FINAL SINGLE POINT ENERGY     -1339.851081746374

DIPOLE MOMENT
-------------
                                X             Y             Z
Electronic contribution:    -17.30610     -21.46498      -5.10842
Nuclear contribution   :     17.79222      21.76874       5.22737
                        -----------------------------------------
Total Dipole Moment    :      0.48613       0.30376       0.11895
                        -----------------------------------------
Magnitude (a.u.)       :      0.58544
Magnitude (Debye)      :      1.48807

Rotational constants in cm-1:     0.019880     0.007954     0.006423
Rotational constants in MHz :   595.984746   238.453942   192.563277

                             ****ORCA TERMINATED NORMALLY****
TOTAL RUN TIME: 0 days 0 hours 0 minutes 30 seconds 359 msec
