                         Program Version 4.2.1 -  RELEASE  -
|  1> ! wB97X-D3 SP def2-SVP
|  2> %pal
|  3> nprocs 16
|  4> end
|  5>
|  6> * xyz 0 1
|  7> S 	 -66.784 	 38.8255 	 130.499
|  8> C 	 -67.4637 	 40.4085 	 130.889
|  9> C 	 -66.9914 	 41.0074 	 132.045
| 10> C 	 -66.1819 	 40.0593 	 132.711
| 11> C 	 -65.9464 	 38.9004 	 132.038
| 12> H 	 -65.8214 	 40.1142 	 133.784
| 13> C 	 -67.4844 	 42.3406 	 132.601
| 14> H 	 -67.5012 	 42.9949 	 131.807
| 15> H 	 -66.7119 	 42.7244 	 133.26
| 16> C 	 -68.9176 	 42.2498 	 133.251
| 17> H 	 -69.4131 	 43.2207 	 133.503
| 18> H 	 -69.5243 	 41.6906 	 132.561
| 19> C 	 -68.9963 	 41.3739 	 134.595
| 20> H 	 -68.7332 	 40.3308 	 134.431
| 21> H 	 -68.3468 	 41.6904 	 135.445
| 22> H 	 -70.063 	 41.4074 	 134.905
| 23> S 	 -66.0322 	 36.141 	 132.265
| 24> C 	 -64.8299 	 35.3563 	 133.292
| 25> C 	 -63.8007 	 36.2646 	 133.706
| 26> C 	 -64.0779 	 37.5626 	 133.266
| 27> C 	 -65.28 	 37.7227 	 132.579
| 28> H 	 -62.9727 	 35.9083 	 134.3
| 29> C 	 -63.0991 	 38.6382 	 133.758
| 30> H 	 -62.8414 	 38.4279 	 134.79
| 31> H 	 -63.6042 	 39.5763 	 133.793
| 32> C 	 -61.7103 	 38.6797 	 133.062
| 33> H 	 -61.131 	 37.7227 	 133.272
| 34> H 	 -61.0878 	 39.4766 	 133.505
| 35> C 	 -61.9157 	 38.917 	 131.52
| 36> H 	 -62.3053 	 38.018 	 131.046
| 37> H 	 -60.883 	 39.2058 	 131.036
| 38> H 	 -62.6803 	 39.732 	 131.49
| 39> H 	 -68.1477 	 40.993 	 130.311
| 40> H 	 -64.7872 	 34.3167 	 133.452
| 41> *
| 42>
| 43>                          ****END OF INPUT****

CARTESIAN COORDINATES (ANGSTROEM)
---------------------------------
  S    -66.784000   38.825500  130.499000
  C    -67.463700   40.408500  130.889000
  C    -66.991400   41.007400  132.045000
  C    -66.181900   40.059300  132.711000
  C    -65.946400   38.900400  132.038000
  H    -65.821400   40.114200  133.784000
  C    -67.484400   42.340600  132.601000
  H    -67.501200   42.994900  131.807000
  H    -66.711900   42.724400  133.260000
  C    -68.917600   42.249800  133.251000
  H    -69.413100   43.220700  133.503000
  H    -69.524300   41.690600  132.561000
  C    -68.996300   41.373900  134.595000
  H    -68.733200   40.330800  134.431000
  H    -68.346800   41.690400  135.445000
  H    -70.063000   41.407400  134.905000
  S    -66.032200   36.141000  132.265000
  C    -64.829900   35.356300  133.292000
  C    -63.800700   36.264600  133.706000
  C    -64.077900   37.562600  133.266000
  C    -65.280000   37.722700  132.579000
  H    -62.972700   35.908300  134.300000
  C    -63.099100   38.638200  133.758000
  H    -62.841400   38.427900  134.790000
  H    -63.604200   39.576300  133.793000
  C    -61.710300   38.679700  133.062000
  H    -61.131000   37.722700  133.272000
  H    -61.087800   39.476600  133.505000
  C    -61.915700   38.917000  131.520000
  H    -62.305300   38.018000  131.046000
  H    -60.883000   39.205800  131.036000
  H    -62.680300   39.732000  131.490000
  H    -68.147700   40.993000  130.311000
  H    -64.787200   34.316700  133.452000

 Total Charge           Charge          ....    0
 Multiplicity           Mult            ....    1
 Number of Electrons    NEL             ....  134
 Basis Dimension        Dim             ....  322

ORBITAL ENERGIES
----------------

  NO   OCC          E(Eh)            E(eV)
   0   2.0000     -88.972919     -2421.0762
   1   2.0000     -88.969850     -2420.9927
   2   2.0000     -10.329946      -281.0921
   3   2.0000     -10.327021      -281.0125
   4   2.0000     -10.320347      -280.8309
   5   2.0000     -10.312937      -280.6293
   6   2.0000     -10.303243      -280.3655
   7   2.0000     -10.301815      -280.3266
   8   2.0000     -10.299090      -280.2525
   9   2.0000     -10.296827      -280.1909
  10   2.0000     -10.295130      -280.1447
  11   2.0000     -10.293907      -280.1114
  12   2.0000     -10.293465      -280.0994
  13   2.0000     -10.288164      -279.9552
  14   2.0000     -10.283522      -279.8288
  15   2.0000     -10.283372      -279.8248
  16   2.0000      -8.087080      -220.0606
  17   2.0000      -8.083606      -219.9661
  18   2.0000      -6.045558      -164.5080
  19   2.0000      -6.042052      -164.4126
  20   2.0000      -6.041913      -164.4088
  21   2.0000      -6.038270      -164.3097
  22   2.0000      -6.037667      -164.2933
  23   2.0000      -6.034491      -164.2068
  24   2.0000      -1.006952       -27.4006
  25   2.0000      -0.981603       -26.7108
  26   2.0000      -0.907489       -24.6940
  27   2.0000      -0.901424       -24.5290
  28   2.0000      -0.862288       -23.4641
  29   2.0000      -0.848005       -23.0754
  30   2.0000      -0.840622       -22.8745
  31   2.0000      -0.809779       -22.0352
  32   2.0000      -0.782212       -21.2851
  33   2.0000      -0.770286       -20.9605
  34   2.0000      -0.705374       -19.1942
  35   2.0000      -0.701288       -19.0830
  36   2.0000      -0.689627       -18.7657
  37   2.0000      -0.663641       -18.0586
  38   2.0000      -0.638830       -17.3835
  39   2.0000      -0.615743       -16.7552
  40   2.0000      -0.592269       -16.1165
  41   2.0000      -0.570665       -15.5286
  42   2.0000      -0.546637       -14.8748
  43   2.0000      -0.543369       -14.7858
  44   2.0000      -0.539893       -14.6912
  45   2.0000      -0.532790       -14.4980
  46   2.0000      -0.513572       -13.9750
  47   2.0000      -0.510567       -13.8932
  48   2.0000      -0.499859       -13.6018
  49   2.0000      -0.493085       -13.4175
  50   2.0000      -0.487165       -13.2564
  51   2.0000      -0.468765       -12.7557
  52   2.0000      -0.465424       -12.6648
  53   2.0000      -0.463419       -12.6103
  54   2.0000      -0.454887       -12.3781
  55   2.0000      -0.451395       -12.2831
  56   2.0000      -0.442386       -12.0379
  57   2.0000      -0.439595       -11.9620
  58   2.0000      -0.428701       -11.6656
  59   2.0000      -0.426911       -11.6168
  60   2.0000      -0.424715       -11.5571
  61   2.0000      -0.419046       -11.4028
  62   2.0000      -0.410869       -11.1803
  63   2.0000      -0.349224        -9.5029
  64   2.0000      -0.337061        -9.1719
  65   2.0000      -0.334177        -9.0934
  66   2.0000      -0.284165        -7.7325
  67   0.0000       0.023190         0.6310
  68   0.0000       0.066361         1.8058
  69   0.0000       0.097737         2.6596
  70   0.0000       0.117905         3.2084
  71   0.0000       0.136392         3.7114

MULLIKEN ATOMIC CHARGES
-----------------------
   0 S :    0.121727
   1 C :   -0.105587
   2 C :   -0.122216
   3 C :   -0.019523
   4 C :   -0.137787
   5 H :    0.042918
   6 C :    0.139844
   7 H :    0.007271
   8 H :    0.022740
   9 C :   -0.074095
  10 H :    0.048304
  11 H :    0.027905
  12 C :   -0.101544
  13 H :    0.044858
  14 H :    0.037889
  15 H :    0.041118
  16 S :    0.103392
  17 C :   -0.086976
  18 C :   -0.043138
  19 C :   -0.021368
  20 C :   -0.156253
  21 H :    0.026169
  22 C :    0.066105
  23 H :    0.022437
  24 H :    0.007547
  25 C :   -0.099677
  26 H :    0.034287
  27 H :    0.037185
  28 C :   -0.086639
  29 H :    0.053941
  30 H :    0.050902
  31 H :    0.045773
  32 H :    0.027988
  33 H :    0.044506
Sum of atomic charges:   -0.0000000

LOEWDIN ATOMIC CHARGES
----------------------
   0 S :    0.397372
   1 C :   -0.185475
   2 C :   -0.060480
   3 C :   -0.071250
   4 C :   -0.193522
   5 H :    0.041881
   6 C :   -0.021975
   7 H :    0.021501
   8 H :    0.031218
   9 C :   -0.032360
  10 H :    0.029629
  11 H :    0.022777
  12 C :   -0.075728
  13 H :    0.024210
  14 H :    0.024824
  15 H :    0.030160
  16 S :    0.393016
  17 C :   -0.173100
  18 C :   -0.062992
  19 C :   -0.058505
  20 C :   -0.191685
  21 H :    0.033499
  22 C :   -0.031138
  23 H :    0.030652
  24 H :    0.019262
  25 C :   -0.044895
  26 H :    0.024113
  27 H :    0.024992
  28 C :   -0.074705
  29 H :    0.026070
  30 H :    0.035439
  31 H :    0.030545
  32 H :    0.019670
  33 H :    0.016979

  Mayer bond orders larger than 0.100000
B(  0-S ,  1-C ) :   1.1326 B(  0-S ,  4-C ) :   1.1235 B(  1-C ,  2-C ) :   1.6354
B(  1-C , 32-H ) :   0.9601 B(  2-C ,  3-C ) :   1.2318 B(  2-C ,  6-C ) :   1.0211
B(  3-C ,  4-C ) :   1.6184 B(  3-C ,  5-H ) :   0.9710 B(  4-C , 20-C ) :   1.0568
B(  6-C ,  7-H ) :   0.9282 B(  6-C ,  8-H ) :   0.9430 B(  6-C ,  9-C ) :   1.0557
B(  9-C , 10-H ) :   0.9627 B(  9-C , 11-H ) :   0.9570 B(  9-C , 12-C ) :   1.0650
B( 12-C , 13-H ) :   0.9772 B( 12-C , 14-H ) :   0.9791 B( 12-C , 15-H ) :   0.9763
B( 16-S , 17-C ) :   1.1668 B( 16-S , 20-C ) :   1.1320 B( 17-C , 18-C ) :   1.5723
B( 17-C , 20-C ) :   0.1127 B( 17-C , 33-H ) :   0.9737 B( 18-C , 19-C ) :   1.2602
B( 18-C , 21-H ) :   0.9937 B( 19-C , 20-C ) :   1.5697 B( 19-C , 22-C ) :   1.0303
B( 22-C , 23-H ) :   0.9385 B( 22-C , 24-H ) :   0.9372 B( 22-C , 25-C ) :   1.0725
B( 25-C , 26-H ) :   0.9560 B( 25-C , 27-H ) :   0.9582 B( 25-C , 28-C ) :   1.0552
B( 28-C , 29-H ) :   0.9735 B( 28-C , 30-H ) :   0.9754 B( 28-C , 31-H ) :   0.9772

Dispersion correction           -0.015092752
FINAL SINGLE POINT ENERGY     -1339.870507176776

DIPOLE MOMENT
-------------
                                X             Y             Z
Electronic contribution:     -5.72790     -17.00844     -11.14160
Nuclear contribution   :      5.84756      17.34976      11.57719
                        -----------------------------------------
Total Dipole Moment    :      0.11965       0.34132       0.43558
                        -----------------------------------------
Magnitude (a.u.)       :      0.56617
Magnitude (Debye)      :      1.43909

Rotational constants in cm-1:     0.019567     0.008466     0.007673
Rotational constants in MHz :   586.597660   253.813483   230.041760

                             ****ORCA TERMINATED NORMALLY****
TOTAL RUN TIME: 0 days 0 hours 0 minutes 34 seconds 53 msec
