                         Program Version 4.2.1 -  RELEASE  -
|  1> ! wB97X-D3 SP def2-SVP
|  2> %pal
|  3> nprocs 16
|  4> end
|  5>
|  6> * xyz 0 1
|  7> S 	 -32.4997 	 63.9149 	 107.75
|  8> C 	 -31.3782 	 65.0667 	 107.032
|  9> C 	 -30.858 	 64.5834 	 105.905
| 10> C 	 -31.5635 	 63.3806 	 105.516
| 11> C 	 -32.4212 	 62.7908 	 106.464
| 12> H 	 -31.3478 	 62.8452 	 104.552
| 13> C 	 -30.0205 	 65.3853 	 104.974
| 14> H 	 -29.8456 	 66.4328 	 105.441
| 15> H 	 -30.6223 	 65.6242 	 104.021
| 16> C 	 -28.6788 	 64.787 	 104.537
| 17> H 	 -28.1321 	 64.7293 	 105.46
| 18> H 	 -28.8284 	 63.8577 	 104.088
| 19> C 	 -27.8642 	 65.6796 	 103.534
| 20> H 	 -27.8214 	 66.6653 	 103.986
| 21> H 	 -26.8994 	 65.1949 	 103.534
| 22> H 	 -28.2865 	 65.7314 	 102.491
| 23> S 	 -34.617 	 61.4303 	 107.529
| 24> C 	 -34.8475 	 59.7801 	 106.917
| 25> C 	 -34.1804 	 59.4779 	 105.749
| 26> C 	 -33.1942 	 60.5316 	 105.533
| 27> C 	 -33.321 	 61.6296 	 106.371
| 28> H 	 -34.2589 	 58.5139 	 105.251
| 29> C 	 -32.1554 	 60.2288 	 104.446
| 30> H 	 -31.2415 	 60.4849 	 105.003
| 31> H 	 -32.2497 	 60.9464 	 103.619
| 32> C 	 -32.13 	 58.8173 	 103.8
| 33> H 	 -33.0323 	 58.6645 	 103.215
| 34> H 	 -32.0201 	 58.0774 	 104.612
| 35> C 	 -31.0133 	 58.499 	 102.871
| 36> H 	 -31.1439 	 57.5018 	 102.426
| 37> H 	 -29.962 	 58.3613 	 103.332
| 38> H 	 -31.0144 	 59.2351 	 102.083
| 39> H 	 -31.0902 	 66.0407 	 107.428
| 40> H 	 -35.6978 	 59.1762 	 107.217
| 41> *
| 42>
| 43>                          ****END OF INPUT****

CARTESIAN COORDINATES (ANGSTROEM)
---------------------------------
  S    -32.499700   63.914900  107.750000
  C    -31.378200   65.066700  107.032000
  C    -30.858000   64.583400  105.905000
  C    -31.563500   63.380600  105.516000
  C    -32.421200   62.790800  106.464000
  H    -31.347800   62.845200  104.552000
  C    -30.020500   65.385300  104.974000
  H    -29.845600   66.432800  105.441000
  H    -30.622300   65.624200  104.021000
  C    -28.678800   64.787000  104.537000
  H    -28.132100   64.729300  105.460000
  H    -28.828400   63.857700  104.088000
  C    -27.864200   65.679600  103.534000
  H    -27.821400   66.665300  103.986000
  H    -26.899400   65.194900  103.534000
  H    -28.286500   65.731400  102.491000
  S    -34.617000   61.430300  107.529000
  C    -34.847500   59.780100  106.917000
  C    -34.180400   59.477900  105.749000
  C    -33.194200   60.531600  105.533000
  C    -33.321000   61.629600  106.371000
  H    -34.258900   58.513900  105.251000
  C    -32.155400   60.228800  104.446000
  H    -31.241500   60.484900  105.003000
  H    -32.249700   60.946400  103.619000
  C    -32.130000   58.817300  103.800000
  H    -33.032300   58.664500  103.215000
  H    -32.020100   58.077400  104.612000
  C    -31.013300   58.499000  102.871000
  H    -31.143900   57.501800  102.426000
  H    -29.962000   58.361300  103.332000
  H    -31.014400   59.235100  102.083000
  H    -31.090200   66.040700  107.428000
  H    -35.697800   59.176200  107.217000

 Total Charge           Charge          ....    0
 Multiplicity           Mult            ....    1
 Number of Electrons    NEL             ....  134
 Basis Dimension        Dim             ....  322

ORBITAL ENERGIES
----------------

  NO   OCC          E(Eh)            E(eV)
   0   2.0000     -88.970631     -2421.0140
   1   2.0000     -88.961275     -2420.7594
   2   2.0000     -10.332945      -281.1737
   3   2.0000     -10.331921      -281.1459
   4   2.0000     -10.320171      -280.8261
   5   2.0000     -10.310536      -280.5640
   6   2.0000     -10.309772      -280.5432
   7   2.0000     -10.301119      -280.3077
   8   2.0000     -10.298441      -280.2348
   9   2.0000     -10.298412      -280.2340
  10   2.0000     -10.297345      -280.2050
  11   2.0000     -10.295047      -280.1425
  12   2.0000     -10.292943      -280.0852
  13   2.0000     -10.285907      -279.8938
  14   2.0000     -10.283561      -279.8299
  15   2.0000     -10.281698      -279.7792
  16   2.0000      -8.084929      -220.0021
  17   2.0000      -8.076781      -219.7804
  18   2.0000      -6.043544      -164.4532
  19   2.0000      -6.039744      -164.3498
  20   2.0000      -6.035409      -164.2318
  21   2.0000      -6.035360      -164.2305
  22   2.0000      -6.031094      -164.1144
  23   2.0000      -6.027459      -164.0155
  24   2.0000      -1.009449       -27.4685
  25   2.0000      -0.986737       -26.8505
  26   2.0000      -0.914881       -24.8952
  27   2.0000      -0.911448       -24.8018
  28   2.0000      -0.873399       -23.7664
  29   2.0000      -0.857707       -23.3394
  30   2.0000      -0.841468       -22.8975
  31   2.0000      -0.813673       -22.1412
  32   2.0000      -0.781418       -21.2635
  33   2.0000      -0.773647       -21.0520
  34   2.0000      -0.709066       -19.2947
  35   2.0000      -0.698883       -19.0176
  36   2.0000      -0.691322       -18.8118
  37   2.0000      -0.654975       -17.8228
  38   2.0000      -0.634345       -17.2614
  39   2.0000      -0.617624       -16.8064
  40   2.0000      -0.595995       -16.2178
  41   2.0000      -0.579830       -15.7780
  42   2.0000      -0.572166       -15.5694
  43   2.0000      -0.568505       -15.4698
  44   2.0000      -0.528392       -14.3783
  45   2.0000      -0.523231       -14.2378
  46   2.0000      -0.522532       -14.2188
  47   2.0000      -0.512005       -13.9324
  48   2.0000      -0.501700       -13.6520
  49   2.0000      -0.496699       -13.5159
  50   2.0000      -0.492976       -13.4146
  51   2.0000      -0.485805       -13.2194
  52   2.0000      -0.475638       -12.9428
  53   2.0000      -0.462254       -12.5786
  54   2.0000      -0.457651       -12.4533
  55   2.0000      -0.456968       -12.4347
  56   2.0000      -0.439229       -11.9520
  57   2.0000      -0.433013       -11.7829
  58   2.0000      -0.430688       -11.7196
  59   2.0000      -0.428373       -11.6566
  60   2.0000      -0.423179       -11.5153
  61   2.0000      -0.411171       -11.1885
  62   2.0000      -0.407286       -11.0828
  63   2.0000      -0.363081        -9.8799
  64   2.0000      -0.334026        -9.0893
  65   2.0000      -0.325331        -8.8527
  66   2.0000      -0.285342        -7.7646
  67   0.0000       0.021606         0.5879
  68   0.0000       0.089767         2.4427
  69   0.0000       0.092781         2.5247
  70   0.0000       0.116161         3.1609
  71   0.0000       0.132691         3.6107

MULLIKEN ATOMIC CHARGES
-----------------------
   0 S :    0.079965
   1 C :   -0.124363
   2 C :   -0.018239
   3 C :   -0.040004
   4 C :   -0.117499
   5 H :    0.016949
   6 C :   -0.033470
   7 H :    0.024245
   8 H :    0.047126
   9 C :   -0.062530
  10 H :    0.028370
  11 H :    0.021173
  12 C :   -0.050607
  13 H :    0.029914
  14 H :    0.040127
  15 H :    0.047878
  16 S :    0.108287
  17 C :   -0.076987
  18 C :   -0.035410
  19 C :   -0.104258
  20 C :   -0.090521
  21 H :    0.039471
  22 C :    0.032761
  23 H :    0.043639
  24 H :    0.049028
  25 C :   -0.093129
  26 H :    0.040173
  27 H :    0.038043
  28 C :   -0.043168
  29 H :    0.033322
  30 H :    0.041977
  31 H :    0.025452
  32 H :    0.047308
  33 H :    0.054975
Sum of atomic charges:    0.0000000

LOEWDIN ATOMIC CHARGES
----------------------
   0 S :    0.403442
   1 C :   -0.185151
   2 C :   -0.077819
   3 C :   -0.078345
   4 C :   -0.198833
   5 H :    0.029255
   6 C :   -0.043071
   7 H :    0.032686
   8 H :    0.038479
   9 C :   -0.034923
  10 H :    0.024725
  11 H :    0.013847
  12 C :   -0.062904
  13 H :    0.023024
  14 H :    0.028015
  15 H :    0.031198
  16 S :    0.393048
  17 C :   -0.168715
  18 C :   -0.068088
  19 C :   -0.044786
  20 C :   -0.205001
  21 H :    0.038933
  22 C :   -0.039225
  23 H :    0.038490
  24 H :    0.030543
  25 C :   -0.049486
  26 H :    0.027846
  27 H :    0.028512
  28 C :   -0.067779
  29 H :    0.030419
  30 H :    0.033908
  31 H :    0.019419
  32 H :    0.032757
  33 H :    0.025579

  Mayer bond orders larger than 0.100000
B(  0-S ,  1-C ) :   1.1312 B(  0-S ,  4-C ) :   1.1431 B(  1-C ,  2-C ) :   1.6210
B(  1-C , 32-H ) :   0.9631 B(  2-C ,  3-C ) :   1.2310 B(  2-C ,  6-C ) :   1.0396
B(  3-C ,  4-C ) :   1.5627 B(  3-C ,  5-H ) :   0.9741 B(  4-C , 20-C ) :   1.0788
B(  6-C ,  7-H ) :   0.9443 B(  6-C ,  8-H ) :   0.9423 B(  6-C ,  9-C ) :   1.0530
B(  9-C , 10-H ) :   0.9557 B(  9-C , 11-H ) :   0.9583 B(  9-C , 12-C ) :   1.0823
B( 12-C , 13-H ) :   0.9750 B( 12-C , 14-H ) :   0.9761 B( 12-C , 15-H ) :   0.9756
B( 16-S , 17-C ) :   1.1472 B( 16-S , 20-C ) :   1.1094 B( 17-C , 18-C ) :   1.6347
B( 17-C , 33-H ) :   0.9543 B( 18-C , 19-C ) :   1.2349 B( 18-C , 21-H ) :   0.9747
B( 19-C , 20-C ) :   1.6286 B( 19-C , 22-C ) :   1.0230 B( 22-C , 23-H ) :   0.9273
B( 22-C , 24-H ) :   0.9244 B( 22-C , 25-C ) :   1.0828 B( 25-C , 26-H ) :   0.9414
B( 25-C , 27-H ) :   0.9477 B( 25-C , 28-C ) :   1.0978 B( 28-C , 29-H ) :   0.9681
B( 28-C , 30-H ) :   0.9722 B( 28-C , 31-H ) :   0.9710

Dispersion correction           -0.012957775
FINAL SINGLE POINT ENERGY     -1339.863557634754

DIPOLE MOMENT
-------------
                                X             Y             Z
Electronic contribution:    -22.52234       2.93496      24.42507
Nuclear contribution   :     22.86463      -3.25332     -25.12731
                        -----------------------------------------
Total Dipole Moment    :      0.34229      -0.31835      -0.70224
                        -----------------------------------------
Magnitude (a.u.)       :      0.84360
Magnitude (Debye)      :      2.14425

Rotational constants in cm-1:     0.016262     0.008700     0.005764
Rotational constants in MHz :   487.519829   260.811182   172.811368

                             ****ORCA TERMINATED NORMALLY****
TOTAL RUN TIME: 0 days 0 hours 0 minutes 28 seconds 658 msec
