                         Program Version 4.2.1 -  RELEASE  -
|  1> ! wB97X-D3 SP def2-SVP
|  2> %pal
|  3> nprocs 16
|  4> end
|  5>
|  6> * xyz 0 1
|  7> S 	 -17.2388 	 40.4053 	 56.5465
|  8> C 	 -16.3101 	 41.7173 	 55.8227
|  9> C 	 -16.8981 	 42.957 	 55.991
| 10> C 	 -18.1641 	 42.8418 	 56.6829
| 11> C 	 -18.5934 	 41.525 	 56.9448
| 12> H 	 -18.7282 	 43.6784 	 57.125
| 13> C 	 -16.4463 	 44.2196 	 55.2962
| 14> H 	 -17.3101 	 44.5027 	 54.6667
| 15> H 	 -15.7 	 44.0987 	 54.577
| 16> C 	 -16.0532 	 45.4514 	 56.1318
| 17> H 	 -15.7562 	 46.2474 	 55.5015
| 18> H 	 -17.0334 	 45.873 	 56.5003
| 19> C 	 -14.9281 	 45.2326 	 57.2049
| 20> H 	 -14.0585 	 44.7591 	 56.7089
| 21> H 	 -14.6434 	 46.2109 	 57.6122
| 22> H 	 -15.3059 	 44.5912 	 58.0046
| 23> S 	 -19.8853 	 40.1312 	 58.8383
| 24> C 	 -21.6617 	 40.2217 	 58.8578
| 25> C 	 -22.2583 	 41.0082 	 57.8647
| 26> C 	 -21.2287 	 41.5088 	 57.0271
| 27> C 	 -19.9127 	 41.1239 	 57.3908
| 28> H 	 -23.3537 	 41.1745 	 57.8584
| 29> C 	 -21.5807 	 42.4119 	 55.9038
| 30> H 	 -20.6417 	 42.8156 	 55.5328
| 31> H 	 -22.0363 	 43.3289 	 56.2654
| 32> C 	 -22.51 	 41.7264 	 54.8499
| 33> H 	 -23.3747 	 41.2196 	 55.2171
| 34> H 	 -21.9703 	 40.9056 	 54.4159
| 35> C 	 -23.0172 	 42.6508 	 53.7118
| 36> H 	 -23.3892 	 42.0316 	 52.9098
| 37> H 	 -22.2861 	 43.3183 	 53.2663
| 38> H 	 -23.8029 	 43.3914 	 53.8966
| 39> H 	 -15.4254 	 41.5999 	 55.2504
| 40> H 	 -22.2969 	 39.9289 	 59.6103
| 41> *
| 42>
| 43>                          ****END OF INPUT****

CARTESIAN COORDINATES (ANGSTROEM)
---------------------------------
  S    -17.238800   40.405300   56.546500
  C    -16.310100   41.717300   55.822700
  C    -16.898100   42.957000   55.991000
  C    -18.164100   42.841800   56.682900
  C    -18.593400   41.525000   56.944800
  H    -18.728200   43.678400   57.125000
  C    -16.446300   44.219600   55.296200
  H    -17.310100   44.502700   54.666700
  H    -15.700000   44.098700   54.577000
  C    -16.053200   45.451400   56.131800
  H    -15.756200   46.247400   55.501500
  H    -17.033400   45.873000   56.500300
  C    -14.928100   45.232600   57.204900
  H    -14.058500   44.759100   56.708900
  H    -14.643400   46.210900   57.612200
  H    -15.305900   44.591200   58.004600
  S    -19.885300   40.131200   58.838300
  C    -21.661700   40.221700   58.857800
  C    -22.258300   41.008200   57.864700
  C    -21.228700   41.508800   57.027100
  C    -19.912700   41.123900   57.390800
  H    -23.353700   41.174500   57.858400
  C    -21.580700   42.411900   55.903800
  H    -20.641700   42.815600   55.532800
  H    -22.036300   43.328900   56.265400
  C    -22.510000   41.726400   54.849900
  H    -23.374700   41.219600   55.217100
  H    -21.970300   40.905600   54.415900
  C    -23.017200   42.650800   53.711800
  H    -23.389200   42.031600   52.909800
  H    -22.286100   43.318300   53.266300
  H    -23.802900   43.391400   53.896600
  H    -15.425400   41.599900   55.250400
  H    -22.296900   39.928900   59.610300

 Total Charge           Charge          ....    0
 Multiplicity           Mult            ....    1
 Number of Electrons    NEL             ....  134
 Basis Dimension        Dim             ....  322

ORBITAL ENERGIES
----------------

  NO   OCC          E(Eh)            E(eV)
   0   2.0000     -88.970853     -2421.0200
   1   2.0000     -88.965871     -2420.8844
   2   2.0000     -10.336430      -281.2686
   3   2.0000     -10.329898      -281.0908
   4   2.0000     -10.316023      -280.7132
   5   2.0000     -10.313492      -280.6444
   6   2.0000     -10.307462      -280.4803
   7   2.0000     -10.303893      -280.3832
   8   2.0000     -10.300120      -280.2805
   9   2.0000     -10.299681      -280.2686
  10   2.0000     -10.289485      -279.9911
  11   2.0000     -10.288562      -279.9660
  12   2.0000     -10.287430      -279.9352
  13   2.0000     -10.286874      -279.9201
  14   2.0000     -10.282571      -279.8030
  15   2.0000     -10.275506      -279.6107
  16   2.0000      -8.084924      -220.0020
  17   2.0000      -8.079682      -219.8593
  18   2.0000      -6.043378      -164.4487
  19   2.0000      -6.039655      -164.3474
  20   2.0000      -6.038388      -164.3129
  21   2.0000      -6.035644      -164.2382
  22   2.0000      -6.034386      -164.2040
  23   2.0000      -6.030210      -164.0904
  24   2.0000      -1.000352       -27.2209
  25   2.0000      -0.976921       -26.5834
  26   2.0000      -0.908289       -24.7158
  27   2.0000      -0.904210       -24.6048
  28   2.0000      -0.869406       -23.6578
  29   2.0000      -0.850759       -23.1503
  30   2.0000      -0.840455       -22.8699
  31   2.0000      -0.813896       -22.1472
  32   2.0000      -0.783777       -21.3277
  33   2.0000      -0.770327       -20.9617
  34   2.0000      -0.714390       -19.4395
  35   2.0000      -0.705022       -19.1846
  36   2.0000      -0.696276       -18.9466
  37   2.0000      -0.662367       -18.0239
  38   2.0000      -0.638507       -17.3746
  39   2.0000      -0.618505       -16.8304
  40   2.0000      -0.593575       -16.1520
  41   2.0000      -0.566572       -15.4172
  42   2.0000      -0.550438       -14.9782
  43   2.0000      -0.548875       -14.9357
  44   2.0000      -0.541385       -14.7318
  45   2.0000      -0.529862       -14.4183
  46   2.0000      -0.515440       -14.0258
  47   2.0000      -0.509481       -13.8637
  48   2.0000      -0.502355       -13.6698
  49   2.0000      -0.498599       -13.5676
  50   2.0000      -0.485647       -13.2151
  51   2.0000      -0.478738       -13.0271
  52   2.0000      -0.465439       -12.6652
  53   2.0000      -0.463547       -12.6138
  54   2.0000      -0.462258       -12.5787
  55   2.0000      -0.448534       -12.2052
  56   2.0000      -0.445970       -12.1355
  57   2.0000      -0.439316       -11.9544
  58   2.0000      -0.434786       -11.8311
  59   2.0000      -0.425883       -11.5889
  60   2.0000      -0.419595       -11.4177
  61   2.0000      -0.413647       -11.2559
  62   2.0000      -0.411851       -11.2070
  63   2.0000      -0.347979        -9.4690
  64   2.0000      -0.330502        -8.9934
  65   2.0000      -0.326580        -8.8867
  66   2.0000      -0.287038        -7.8107
  67   0.0000       0.025022         0.6809
  68   0.0000       0.061241         1.6665
  69   0.0000       0.099608         2.7105
  70   0.0000       0.113160         3.0792
  71   0.0000       0.129248         3.5170

MULLIKEN ATOMIC CHARGES
-----------------------
   0 S :    0.100947
   1 C :   -0.105488
   2 C :   -0.066079
   3 C :    0.010771
   4 C :   -0.156491
   5 H :    0.036189
   6 C :    0.058984
   7 H :    0.036531
   8 H :    0.000769
   9 C :   -0.088418
  10 H :    0.016802
  11 H :    0.022534
  12 C :   -0.048702
  13 H :    0.036503
  14 H :    0.038928
  15 H :    0.050739
  16 S :    0.110812
  17 C :   -0.043538
  18 C :   -0.070367
  19 C :   -0.044809
  20 C :   -0.149609
  21 H :    0.046036
  22 C :    0.106165
  23 H :    0.006565
  24 H :    0.022578
  25 C :   -0.057512
  26 H :    0.024480
  27 H :    0.028875
  28 C :   -0.054491
  29 H :    0.028717
  30 H :    0.019387
  31 H :    0.026090
  32 H :    0.035473
  33 H :    0.020631
Sum of atomic charges:    0.0000000

LOEWDIN ATOMIC CHARGES
----------------------
   0 S :    0.371621
   1 C :   -0.183365
   2 C :   -0.064432
   3 C :   -0.064553
   4 C :   -0.184693
   5 H :    0.035865
   6 C :   -0.032979
   7 H :    0.040621
   8 H :    0.018787
   9 C :   -0.045660
  10 H :    0.018093
  11 H :    0.023733
  12 C :   -0.063467
  13 H :    0.028911
  14 H :    0.028144
  15 H :    0.028995
  16 S :    0.402174
  17 C :   -0.160213
  18 C :   -0.066393
  19 C :   -0.046816
  20 C :   -0.203981
  21 H :    0.045032
  22 C :   -0.034645
  23 H :    0.028504
  24 H :    0.030466
  25 C :   -0.032488
  26 H :    0.022319
  27 H :    0.028063
  28 C :   -0.073595
  29 H :    0.026789
  30 H :    0.022654
  31 H :    0.024212
  32 H :    0.022703
  33 H :    0.009594

  Mayer bond orders larger than 0.100000
B(  0-S ,  1-C ) :   1.1240 B(  0-S ,  4-C ) :   1.1233 B(  1-C ,  2-C ) :   1.6335
B(  1-C , 32-H ) :   0.9680 B(  2-C ,  3-C ) :   1.2113 B(  2-C ,  6-C ) :   1.0231
B(  3-C ,  4-C ) :   1.5899 B(  3-C ,  5-H ) :   0.9842 B(  4-C , 20-C ) :   1.0563
B(  6-C ,  7-H ) :   0.9405 B(  6-C ,  8-H ) :   0.9439 B(  6-C ,  9-C ) :   1.0775
B(  9-C , 10-H ) :   0.9541 B(  9-C , 11-H ) :   0.9565 B(  9-C , 12-C ) :   1.0632
B( 12-C , 13-H ) :   0.9757 B( 12-C , 14-H ) :   0.9760 B( 12-C , 15-H ) :   0.9764
B( 16-S , 17-C ) :   1.1561 B( 16-S , 20-C ) :   1.1302 B( 17-C , 18-C ) :   1.6274
B( 17-C , 33-H ) :   0.9679 B( 18-C , 19-C ) :   1.2314 B( 18-C , 21-H ) :   0.9838
B( 19-C , 20-C ) :   1.5799 B( 19-C , 22-C ) :   1.0620 B( 22-C , 23-H ) :   0.9225
B( 22-C , 24-H ) :   0.9314 B( 22-C , 25-C ) :   1.0420 B( 25-C , 26-H ) :   0.9599
B( 25-C , 27-H ) :   0.9552 B( 25-C , 28-C ) :   1.0788 B( 28-C , 29-H ) :   0.9752
B( 28-C , 30-H ) :   0.9749 B( 28-C , 31-H ) :   0.9757

Dispersion correction           -0.013880564
FINAL SINGLE POINT ENERGY     -1339.860098183104

DIPOLE MOMENT
-------------
                                X             Y             Z
Electronic contribution:      3.16670     -22.17532      14.36286
Nuclear contribution   :     -3.48728      22.84621     -14.65749
                        -----------------------------------------
Total Dipole Moment    :     -0.32058       0.67089      -0.29463
                        -----------------------------------------
Magnitude (a.u.)       :      0.79979
Magnitude (Debye)      :      2.03292

Rotational constants in cm-1:     0.017342     0.008232     0.006607
Rotational constants in MHz :   519.908321   246.777779   198.070189

                             ****ORCA TERMINATED NORMALLY****
TOTAL RUN TIME: 0 days 0 hours 0 minutes 34 seconds 64 msec
