                         Program Version 4.2.1 -  RELEASE  -
|  1> ! wB97X-D3 SP def2-SVP
|  2> %pal
|  3> nprocs 16
|  4> end
|  5>
|  6> * xyz 0 1
|  7> S 	 -57.5839 	 53.3581 	 136.448
|  8> C 	 -55.9916 	 53.9231 	 135.969
|  9> C 	 -55.2837 	 52.9943 	 135.227
| 10> C 	 -55.8517 	 51.6719 	 135.35
| 11> C 	 -56.9888 	 51.6555 	 136.176
| 12> H 	 -55.5293 	 50.7452 	 134.948
| 13> C 	 -53.9686 	 53.1711 	 134.581
| 14> H 	 -53.7389 	 52.2471 	 134.064
| 15> H 	 -53.2942 	 53.2692 	 135.412
| 16> C 	 -53.8209 	 54.4704 	 133.62
| 17> H 	 -54.3726 	 55.2653 	 134.036
| 18> H 	 -52.7233 	 54.7134 	 133.566
| 19> C 	 -54.3155 	 54.3843 	 132.227
| 20> H 	 -55.2841 	 54.0383 	 132.145
| 21> H 	 -54.3652 	 55.4397 	 131.772
| 22> H 	 -53.6944 	 53.8622 	 131.521
| 23> S 	 -57.9359 	 49.1604 	 135.545
| 24> C 	 -58.6655 	 48.2766 	 136.848
| 25> C 	 -58.7721 	 48.9799 	 138.017
| 26> C 	 -58.182 	 50.2731 	 137.925
| 27> C 	 -57.6753 	 50.484 	 136.675
| 28> H 	 -59.1013 	 48.4746 	 138.956
| 29> C 	 -57.9642 	 51.1562 	 139.102
| 30> H 	 -58.7228 	 50.9831 	 139.881
| 31> H 	 -58.2033 	 52.1833 	 138.762
| 32> C 	 -56.5083 	 50.9907 	 139.706
| 33> H 	 -55.788 	 50.8094 	 138.886
| 34> H 	 -56.4597 	 50.0151 	 140.214
| 35> C 	 -56.1441 	 52.1656 	 140.644
| 36> H 	 -56.1426 	 53.0599 	 140.068
| 37> H 	 -55.0986 	 52.0893 	 140.884
| 38> H 	 -56.8719 	 52.4771 	 141.452
| 39> H 	 -55.6146 	 54.9872 	 136.16
| 40> H 	 -59.1355 	 47.269 	 136.827
| 41> *
| 42>
| 43>                          ****END OF INPUT****

CARTESIAN COORDINATES (ANGSTROEM)
---------------------------------
  S    -57.583900   53.358100  136.448000
  C    -55.991600   53.923100  135.969000
  C    -55.283700   52.994300  135.227000
  C    -55.851700   51.671900  135.350000
  C    -56.988800   51.655500  136.176000
  H    -55.529300   50.745200  134.948000
  C    -53.968600   53.171100  134.581000
  H    -53.738900   52.247100  134.064000
  H    -53.294200   53.269200  135.412000
  C    -53.820900   54.470400  133.620000
  H    -54.372600   55.265300  134.036000
  H    -52.723300   54.713400  133.566000
  C    -54.315500   54.384300  132.227000
  H    -55.284100   54.038300  132.145000
  H    -54.365200   55.439700  131.772000
  H    -53.694400   53.862200  131.521000
  S    -57.935900   49.160400  135.545000
  C    -58.665500   48.276600  136.848000
  C    -58.772100   48.979900  138.017000
  C    -58.182000   50.273100  137.925000
  C    -57.675300   50.484000  136.675000
  H    -59.101300   48.474600  138.956000
  C    -57.964200   51.156200  139.102000
  H    -58.722800   50.983100  139.881000
  H    -58.203300   52.183300  138.762000
  C    -56.508300   50.990700  139.706000
  H    -55.788000   50.809400  138.886000
  H    -56.459700   50.015100  140.214000
  C    -56.144100   52.165600  140.644000
  H    -56.142600   53.059900  140.068000
  H    -55.098600   52.089300  140.884000
  H    -56.871900   52.477100  141.452000
  H    -55.614600   54.987200  136.160000
  H    -59.135500   47.269000  136.827000

 Total Charge           Charge          ....    0
 Multiplicity           Mult            ....    1
 Number of Electrons    NEL             ....  134
 Basis Dimension        Dim             ....  322

ORBITAL ENERGIES
----------------

  NO   OCC          E(Eh)            E(eV)
   0   2.0000     -88.970078     -2420.9989
   1   2.0000     -88.966058     -2420.8895
   2   2.0000     -10.332235      -281.1544
   3   2.0000     -10.320546      -280.8363
   4   2.0000     -10.316795      -280.7343
   5   2.0000     -10.316716      -280.7321
   6   2.0000     -10.300925      -280.3024
   7   2.0000     -10.297484      -280.2088
   8   2.0000     -10.295170      -280.1458
   9   2.0000     -10.292749      -280.0799
  10   2.0000     -10.291741      -280.0525
  11   2.0000     -10.290591      -280.0212
  12   2.0000     -10.289178      -279.9828
  13   2.0000     -10.289043      -279.9791
  14   2.0000     -10.275364      -279.6069
  15   2.0000     -10.270665      -279.4790
  16   2.0000      -8.084726      -219.9966
  17   2.0000      -8.079261      -219.8479
  18   2.0000      -6.043227      -164.4446
  19   2.0000      -6.039407      -164.3406
  20   2.0000      -6.037935      -164.3006
  21   2.0000      -6.035349      -164.2302
  22   2.0000      -6.034369      -164.2035
  23   2.0000      -6.029562      -164.0727
  24   2.0000      -1.006509       -27.3885
  25   2.0000      -0.979475       -26.6529
  26   2.0000      -0.907578       -24.6965
  27   2.0000      -0.901884       -24.5415
  28   2.0000      -0.868123       -23.6228
  29   2.0000      -0.855096       -23.2683
  30   2.0000      -0.848673       -23.0936
  31   2.0000      -0.811611       -22.0851
  32   2.0000      -0.781382       -21.2625
  33   2.0000      -0.765455       -20.8291
  34   2.0000      -0.708482       -19.2788
  35   2.0000      -0.703047       -19.1309
  36   2.0000      -0.691892       -18.8273
  37   2.0000      -0.660709       -17.9788
  38   2.0000      -0.633537       -17.2394
  39   2.0000      -0.605237       -16.4693
  40   2.0000      -0.591811       -16.1040
  41   2.0000      -0.572533       -15.5794
  42   2.0000      -0.549292       -14.9470
  43   2.0000      -0.545043       -14.8314
  44   2.0000      -0.535384       -14.5686
  45   2.0000      -0.525944       -14.3117
  46   2.0000      -0.520481       -14.1630
  47   2.0000      -0.512773       -13.9533
  48   2.0000      -0.498084       -13.5536
  49   2.0000      -0.488856       -13.3025
  50   2.0000      -0.487459       -13.2644
  51   2.0000      -0.479363       -13.0441
  52   2.0000      -0.471536       -12.8311
  53   2.0000      -0.468017       -12.7354
  54   2.0000      -0.458891       -12.4871
  55   2.0000      -0.453034       -12.3277
  56   2.0000      -0.449305       -12.2262
  57   2.0000      -0.435725       -11.8567
  58   2.0000      -0.430967       -11.7272
  59   2.0000      -0.425792       -11.5864
  60   2.0000      -0.420395       -11.4395
  61   2.0000      -0.410068       -11.1585
  62   2.0000      -0.408716       -11.1217
  63   2.0000      -0.344226        -9.3669
  64   2.0000      -0.334046        -9.0899
  65   2.0000      -0.323994        -8.8163
  66   2.0000      -0.283527        -7.7152
  67   0.0000       0.018314         0.4984
  68   0.0000       0.074352         2.0232
  69   0.0000       0.091383         2.4867
  70   0.0000       0.114410         3.1132
  71   0.0000       0.131236         3.5711

MULLIKEN ATOMIC CHARGES
-----------------------
   0 S :    0.105233
   1 C :   -0.171225
   2 C :   -0.066053
   3 C :    0.015753
   4 C :   -0.143040
   5 H :    0.002981
   6 C :    0.074067
   7 H :    0.021110
   8 H :    0.041597
   9 C :   -0.066609
  10 H :    0.018203
  11 H :    0.035345
  12 C :   -0.035911
  13 H :    0.019719
  14 H :    0.030496
  15 H :    0.023961
  16 S :    0.122465
  17 C :   -0.093388
  18 C :   -0.056668
  19 C :   -0.046362
  20 C :   -0.171009
  21 H :    0.034075
  22 C :    0.064020
  23 H :    0.019996
  24 H :    0.024270
  25 C :   -0.073005
  26 H :    0.040138
  27 H :    0.024291
  28 C :   -0.018146
  29 H :    0.012694
  30 H :    0.029355
  31 H :    0.044529
  32 H :    0.074441
  33 H :    0.062677
Sum of atomic charges:    0.0000000

LOEWDIN ATOMIC CHARGES
----------------------
   0 S :    0.375765
   1 C :   -0.211929
   2 C :   -0.065245
   3 C :   -0.059514
   4 C :   -0.159484
   5 H :    0.021810
   6 C :   -0.030244
   7 H :    0.029222
   8 H :    0.038261
   9 C :   -0.035415
  10 H :    0.017821
  11 H :    0.030974
  12 C :   -0.064975
  13 H :    0.014862
  14 H :    0.037499
  15 H :    0.019672
  16 S :    0.410028
  17 C :   -0.195155
  18 C :   -0.076498
  19 C :   -0.055426
  20 C :   -0.201784
  21 H :    0.039964
  22 C :   -0.038906
  23 H :    0.029653
  24 H :    0.019583
  25 C :   -0.034733
  26 H :    0.030812
  27 H :    0.023187
  28 C :   -0.074185
  29 H :    0.022285
  30 H :    0.027175
  31 H :    0.036449
  32 H :    0.040142
  33 H :    0.038330

  Mayer bond orders larger than 0.100000
B(  0-S ,  1-C ) :   1.1222 B(  0-S ,  4-C ) :   1.1159 B(  1-C ,  2-C ) :   1.6217
B(  1-C , 32-H ) :   0.9555 B(  2-C ,  3-C ) :   1.2000 B(  2-C ,  6-C ) :   1.0258
B(  3-C ,  4-C ) :   1.5832 B(  3-C ,  5-H ) :   0.9970 B(  4-C , 20-C ) :   1.0907
B(  6-C ,  7-H ) :   0.9463 B(  6-C ,  8-H ) :   0.9350 B(  6-C ,  9-C ) :   1.0507
B(  9-C , 10-H ) :   0.9612 B(  9-C , 11-H ) :   0.9571 B(  9-C , 12-C ) :   1.0929
B( 12-C , 13-H ) :   0.9731 B( 12-C , 14-H ) :   0.9687 B( 12-C , 15-H ) :   0.9742
B( 16-S , 17-C ) :   1.1432 B( 16-S , 20-C ) :   1.1230 B( 17-C , 18-C ) :   1.6463
B( 17-C , 33-H ) :   0.9555 B( 18-C , 19-C ) :   1.2357 B( 18-C , 21-H ) :   0.9785
B( 19-C , 20-C ) :   1.5887 B( 19-C , 22-C ) :   1.0615 B( 22-C , 23-H ) :   0.9286
B( 22-C , 24-H ) :   0.9243 B( 22-C , 25-C ) :   1.0380 B( 25-C , 26-H ) :   0.9612
B( 25-C , 27-H ) :   0.9545 B( 25-C , 28-C ) :   1.0726 B( 28-C , 29-H ) :   0.9710
B( 28-C , 30-H ) :   0.9705 B( 28-C , 31-H ) :   0.9732

Dispersion correction           -0.014729088
FINAL SINGLE POINT ENERGY     -1339.856670942911

DIPOLE MOMENT
-------------
                                X             Y             Z
Electronic contribution:    -15.60776     -11.15688      -3.40021
Nuclear contribution   :     15.99518      11.14232       3.56063
                        -----------------------------------------
Total Dipole Moment    :      0.38743      -0.01456       0.16042
                        -----------------------------------------
Magnitude (a.u.)       :      0.41958
Magnitude (Debye)      :      1.06648

Rotational constants in cm-1:     0.020657     0.008388     0.006752
Rotational constants in MHz :   619.272179   251.457112   202.416780

                             ****ORCA TERMINATED NORMALLY****
TOTAL RUN TIME: 0 days 0 hours 0 minutes 36 seconds 555 msec
