                         Program Version 4.2.1 -  RELEASE  -
|  1> ! wB97X-D3 SP def2-SVP
|  2> %pal
|  3> nprocs 16
|  4> end
|  5>
|  6> * xyz 0 1
|  7> S 	 -55.0734 	 20.7421 	 89.1941
|  8> C 	 -53.4264 	 21.0655 	 88.6466
|  9> C 	 -53.235 	 22.3941 	 88.3438
| 10> C 	 -54.4671 	 23.1273 	 88.4445
| 11> C 	 -55.5974 	 22.4092 	 88.9998
| 12> H 	 -54.5681 	 24.1561 	 88.1097
| 13> C 	 -52.0066 	 22.9192 	 87.6073
| 14> H 	 -51.3017 	 22.6709 	 88.3179
| 15> H 	 -52.0322 	 23.9726 	 87.5811
| 16> C 	 -51.6313 	 22.3134 	 86.3343
| 17> H 	 -50.6846 	 22.7818 	 86.1625
| 18> H 	 -51.3175 	 21.2715 	 86.5692
| 19> C 	 -52.4982 	 22.4534 	 85.0427
| 20> H 	 -53.2619 	 21.6529 	 84.8537
| 21> H 	 -53.0739 	 23.3954 	 84.9787
| 22> H 	 -51.8758 	 22.4236 	 84.1851
| 23> S 	 -57.0643 	 24.7237 	 88.9947
| 24> C 	 -58.6783 	 24.7805 	 89.7164
| 25> C 	 -59.036 	 23.4909 	 90.098
| 26> C 	 -58.0167 	 22.4503 	 90.0124
| 27> C 	 -56.9371 	 22.9587 	 89.2546
| 28> H 	 -59.9479 	 23.3164 	 90.5861
| 29> C 	 -58.1869 	 21.1211 	 90.741
| 30> H 	 -58.8951 	 21.1286 	 91.6115
| 31> H 	 -57.3146 	 21.0057 	 91.3026
| 32> C 	 -58.4449 	 19.8746 	 89.8944
| 33> H 	 -57.771 	 19.7651 	 89.0166
| 34> H 	 -59.4669 	 19.9673 	 89.5193
| 35> C 	 -58.1999 	 18.5698 	 90.6849
| 36> H 	 -57.7381 	 17.7781 	 90.0482
| 37> H 	 -59.1326 	 18.1128 	 91.0657
| 38> H 	 -57.5971 	 18.6182 	 91.5396
| 39> H 	 -52.6676 	 20.2868 	 88.6258
| 40> H 	 -59.3263 	 25.628 	 89.8646
| 41> *
| 42>
| 43>                          ****END OF INPUT****

CARTESIAN COORDINATES (ANGSTROEM)
---------------------------------
  S    -55.073400   20.742100   89.194100
  C    -53.426400   21.065500   88.646600
  C    -53.235000   22.394100   88.343800
  C    -54.467100   23.127300   88.444500
  C    -55.597400   22.409200   88.999800
  H    -54.568100   24.156100   88.109700
  C    -52.006600   22.919200   87.607300
  H    -51.301700   22.670900   88.317900
  H    -52.032200   23.972600   87.581100
  C    -51.631300   22.313400   86.334300
  H    -50.684600   22.781800   86.162500
  H    -51.317500   21.271500   86.569200
  C    -52.498200   22.453400   85.042700
  H    -53.261900   21.652900   84.853700
  H    -53.073900   23.395400   84.978700
  H    -51.875800   22.423600   84.185100
  S    -57.064300   24.723700   88.994700
  C    -58.678300   24.780500   89.716400
  C    -59.036000   23.490900   90.098000
  C    -58.016700   22.450300   90.012400
  C    -56.937100   22.958700   89.254600
  H    -59.947900   23.316400   90.586100
  C    -58.186900   21.121100   90.741000
  H    -58.895100   21.128600   91.611500
  H    -57.314600   21.005700   91.302600
  C    -58.444900   19.874600   89.894400
  H    -57.771000   19.765100   89.016600
  H    -59.466900   19.967300   89.519300
  C    -58.199900   18.569800   90.684900
  H    -57.738100   17.778100   90.048200
  H    -59.132600   18.112800   91.065700
  H    -57.597100   18.618200   91.539600
  H    -52.667600   20.286800   88.625800
  H    -59.326300   25.628000   89.864600

 Total Charge           Charge          ....    0
 Multiplicity           Mult            ....    1
 Number of Electrons    NEL             ....  134
 Basis Dimension        Dim             ....  322

ORBITAL ENERGIES
----------------

  NO   OCC          E(Eh)            E(eV)
   0   2.0000     -88.969703     -2420.9887
   1   2.0000     -88.967872     -2420.9389
   2   2.0000     -10.338467      -281.3240
   3   2.0000     -10.338322      -281.3200
   4   2.0000     -10.321415      -280.8600
   5   2.0000     -10.313972      -280.6574
   6   2.0000     -10.313060      -280.6326
   7   2.0000     -10.298934      -280.2482
   8   2.0000     -10.296652      -280.1861
   9   2.0000     -10.294641      -280.1314
  10   2.0000     -10.292937      -280.0851
  11   2.0000     -10.288692      -279.9696
  12   2.0000     -10.286689      -279.9150
  13   2.0000     -10.280681      -279.7516
  14   2.0000     -10.279140      -279.7096
  15   2.0000     -10.275108      -279.5999
  16   2.0000      -8.082954      -219.9483
  17   2.0000      -8.081357      -219.9049
  18   2.0000      -6.041638      -164.4013
  19   2.0000      -6.040200      -164.3622
  20   2.0000      -6.037468      -164.2879
  21   2.0000      -6.036126      -164.2513
  22   2.0000      -6.033853      -164.1895
  23   2.0000      -6.031751      -164.1323
  24   2.0000      -0.996843       -27.1255
  25   2.0000      -0.976042       -26.5594
  26   2.0000      -0.919567       -25.0227
  27   2.0000      -0.907581       -24.6965
  28   2.0000      -0.864797       -23.5323
  29   2.0000      -0.848745       -23.0955
  30   2.0000      -0.840589       -22.8736
  31   2.0000      -0.805434       -21.9170
  32   2.0000      -0.790984       -21.5238
  33   2.0000      -0.776821       -21.1384
  34   2.0000      -0.708316       -19.2743
  35   2.0000      -0.706577       -19.2269
  36   2.0000      -0.695615       -18.9287
  37   2.0000      -0.665682       -18.1141
  38   2.0000      -0.632914       -17.2225
  39   2.0000      -0.605818       -16.4851
  40   2.0000      -0.596538       -16.2326
  41   2.0000      -0.577207       -15.7066
  42   2.0000      -0.560659       -15.2563
  43   2.0000      -0.555576       -15.1180
  44   2.0000      -0.540104       -14.6970
  45   2.0000      -0.523838       -14.2543
  46   2.0000      -0.514037       -13.9876
  47   2.0000      -0.507870       -13.8198
  48   2.0000      -0.505682       -13.7603
  49   2.0000      -0.492637       -13.4053
  50   2.0000      -0.490622       -13.3505
  51   2.0000      -0.480916       -13.0864
  52   2.0000      -0.471345       -12.8260
  53   2.0000      -0.466908       -12.7052
  54   2.0000      -0.461732       -12.5644
  55   2.0000      -0.449281       -12.2256
  56   2.0000      -0.444208       -12.0875
  57   2.0000      -0.437575       -11.9070
  58   2.0000      -0.426225       -11.5982
  59   2.0000      -0.420727       -11.4486
  60   2.0000      -0.419316       -11.4102
  61   2.0000      -0.412593       -11.2272
  62   2.0000      -0.405625       -11.0376
  63   2.0000      -0.360565        -9.8115
  64   2.0000      -0.331484        -9.0201
  65   2.0000      -0.327150        -8.9022
  66   2.0000      -0.276206        -7.5160
  67   0.0000       0.012319         0.3352
  68   0.0000       0.086020         2.3407
  69   0.0000       0.103440         2.8148
  70   0.0000       0.121729         3.3124
  71   0.0000       0.127198         3.4612

MULLIKEN ATOMIC CHARGES
-----------------------
   0 S :    0.097268
   1 C :   -0.152636
   2 C :   -0.066055
   3 C :   -0.026126
   4 C :   -0.124632
   5 H :    0.021138
   6 C :    0.109457
   7 H :    0.008351
   8 H :    0.003901
   9 C :   -0.041703
  10 H :    0.018295
  11 H :    0.017938
  12 C :   -0.037485
  13 H :    0.045646
  14 H :    0.031908
  15 H :    0.023538
  16 S :    0.072789
  17 C :   -0.074485
  18 C :   -0.010015
  19 C :   -0.074632
  20 C :   -0.089808
  21 H :   -0.003543
  22 C :    0.055145
  23 H :    0.030916
  24 H :    0.011801
  25 C :   -0.069052
  26 H :    0.043743
  27 H :    0.036093
  28 C :   -0.054644
  29 H :    0.036804
  30 H :    0.029384
  31 H :    0.019077
  32 H :    0.051416
  33 H :    0.060207
Sum of atomic charges:    0.0000000

LOEWDIN ATOMIC CHARGES
----------------------
   0 S :    0.412036
   1 C :   -0.197471
   2 C :   -0.060988
   3 C :   -0.078771
   4 C :   -0.192225
   5 H :    0.020306
   6 C :   -0.026828
   7 H :    0.030740
   8 H :    0.022882
   9 C :   -0.040502
  10 H :    0.027355
  11 H :    0.027526
  12 C :   -0.068645
  13 H :    0.034439
  14 H :    0.029619
  15 H :    0.021998
  16 S :    0.391378
  17 C :   -0.180398
  18 C :   -0.062538
  19 C :   -0.048432
  20 C :   -0.176196
  21 H :    0.018568
  22 C :   -0.040009
  23 H :    0.040531
  24 H :    0.021510
  25 C :   -0.043002
  26 H :    0.022958
  27 H :    0.027229
  28 C :   -0.070250
  29 H :    0.033014
  30 H :    0.027438
  31 H :    0.016364
  32 H :    0.026862
  33 H :    0.033503

  Mayer bond orders larger than 0.100000
B(  0-S ,  1-C ) :   1.1443 B(  0-S ,  4-C ) :   1.1503 B(  1-C ,  2-C ) :   1.5734
B(  1-C , 32-H ) :   0.9687 B(  2-C ,  3-C ) :   1.2951 B(  2-C ,  6-C ) :   1.0073
B(  3-C ,  4-C ) :   1.5040 B(  3-C ,  5-H ) :   0.9749 B(  4-C , 20-C ) :   1.1091
B(  6-C ,  7-H ) :   0.9163 B(  6-C ,  8-H ) :   0.9375 B(  6-C ,  9-C ) :   1.1164
B(  9-C , 10-H ) :   0.9453 B(  9-C , 11-H ) :   0.9440 B(  9-C , 12-C ) :   1.0562
B( 12-C , 13-H ) :   0.9766 B( 12-C , 14-H ) :   0.9772 B( 12-C , 15-H ) :   0.9755
B( 16-S , 17-C ) :   1.1301 B( 16-S , 20-C ) :   1.1302 B( 17-C , 18-C ) :   1.6269
B( 17-C , 33-H ) :   0.9700 B( 18-C , 19-C ) :   1.2393 B( 18-C , 21-H ) :   0.9890
B( 19-C , 20-C ) :   1.5657 B( 19-C , 22-C ) :   1.0351 B( 22-C , 23-H ) :   0.9368
B( 22-C , 24-H ) :   0.9254 B( 22-C , 25-C ) :   1.0602 B( 25-C , 26-H ) :   0.9635
B( 25-C , 27-H ) :   0.9578 B( 25-C , 28-C ) :   1.0571 B( 28-C , 29-H ) :   0.9799
B( 28-C , 30-H ) :   0.9759 B( 28-C , 31-H ) :   0.9781

Dispersion correction           -0.014125598
FINAL SINGLE POINT ENERGY     -1339.854782430916

DIPOLE MOMENT
-------------
                                X             Y             Z
Electronic contribution:     -5.92810      11.69426       5.74498
Nuclear contribution   :      6.09186     -11.77973      -5.67065
                        -----------------------------------------
Total Dipole Moment    :      0.16376      -0.08548       0.07433
                        -----------------------------------------
Magnitude (a.u.)       :      0.19912
Magnitude (Debye)      :      0.50611

Rotational constants in cm-1:     0.019496     0.008568     0.006404
Rotational constants in MHz :   584.469499   256.868081   191.975569

                             ****ORCA TERMINATED NORMALLY****
TOTAL RUN TIME: 0 days 0 hours 0 minutes 30 seconds 611 msec
