                         Program Version 4.2.1 -  RELEASE  -
|  1> ! wB97X-D3 SP def2-SVP
|  2> %pal
|  3> nprocs 16
|  4> end
|  5>
|  6> * xyz 0 1
|  7> S 	 -4.90215 	 39.7197 	 34.3234
|  8> C 	 -6.55608 	 39.9272 	 33.7619
|  9> C 	 -6.9053 	 41.2384 	 33.4094
| 10> C 	 -5.71526 	 42.016 	 33.4775
| 11> C 	 -4.53629 	 41.3469 	 33.8989
| 12> H 	 -5.57651 	 43.0658 	 33.1769
| 13> C 	 -8.2082 	 41.7666 	 32.9831
| 14> H 	 -8.67555 	 42.3442 	 33.7659
| 15> H 	 -8.83038 	 40.9209 	 32.6611
| 16> C 	 -8.24508 	 42.5327 	 31.6286
| 17> H 	 -7.37243 	 43.2135 	 31.648
| 18> H 	 -8.17473 	 41.8353 	 30.8169
| 19> C 	 -9.44822 	 43.324 	 31.3377
| 20> H 	 -10.3667 	 42.7436 	 31.4481
| 21> H 	 -9.50708 	 44.1934 	 32.0222
| 22> H 	 -9.59037 	 43.6644 	 30.2963
| 23> S 	 -2.15464 	 40.8254 	 34.9729
| 24> C 	 -0.98306 	 41.9254 	 35.3233
| 25> C 	 -1.24802 	 43.0668 	 34.5735
| 26> C 	 -2.5257 	 43.0868 	 33.9742
| 27> C 	 -3.21167 	 41.8907 	 34.1441
| 28> H 	 -0.557212 	 43.8269 	 34.6682
| 29> C 	 -3.03839 	 44.3221 	 33.3306
| 30> H 	 -3.88895 	 44.1575 	 32.6367
| 31> H 	 -2.22556 	 44.6585 	 32.771
| 32> C 	 -3.60878 	 45.3348 	 34.3455
| 33> H 	 -2.85358 	 45.7489 	 34.9849
| 34> H 	 -4.30204 	 44.824 	 35.019
| 35> C 	 -4.42839 	 46.5593 	 33.7612
| 36> H 	 -3.88444 	 47.0296 	 32.9706
| 37> H 	 -4.5373 	 47.3645 	 34.5672
| 38> H 	 -5.41375 	 46.3215 	 33.4236
| 39> H 	 -7.32577 	 39.1207 	 33.9156
| 40> H 	 -0.106192 	 41.7661 	 35.8924
| 41> *
| 42>
| 43>                          ****END OF INPUT****

CARTESIAN COORDINATES (ANGSTROEM)
---------------------------------
  S     -4.902150   39.719700   34.323400
  C     -6.556080   39.927200   33.761900
  C     -6.905300   41.238400   33.409400
  C     -5.715260   42.016000   33.477500
  C     -4.536290   41.346900   33.898900
  H     -5.576510   43.065800   33.176900
  C     -8.208200   41.766600   32.983100
  H     -8.675550   42.344200   33.765900
  H     -8.830380   40.920900   32.661100
  C     -8.245080   42.532700   31.628600
  H     -7.372430   43.213500   31.648000
  H     -8.174730   41.835300   30.816900
  C     -9.448220   43.324000   31.337700
  H    -10.366700   42.743600   31.448100
  H     -9.507080   44.193400   32.022200
  H     -9.590370   43.664400   30.296300
  S     -2.154640   40.825400   34.972900
  C     -0.983060   41.925400   35.323300
  C     -1.248020   43.066800   34.573500
  C     -2.525700   43.086800   33.974200
  C     -3.211670   41.890700   34.144100
  H     -0.557212   43.826900   34.668200
  C     -3.038390   44.322100   33.330600
  H     -3.888950   44.157500   32.636700
  H     -2.225560   44.658500   32.771000
  C     -3.608780   45.334800   34.345500
  H     -2.853580   45.748900   34.984900
  H     -4.302040   44.824000   35.019000
  C     -4.428390   46.559300   33.761200
  H     -3.884440   47.029600   32.970600
  H     -4.537300   47.364500   34.567200
  H     -5.413750   46.321500   33.423600
  H     -7.325770   39.120700   33.915600
  H     -0.106192   41.766100   35.892400

 Total Charge           Charge          ....    0
 Multiplicity           Mult            ....    1
 Number of Electrons    NEL             ....  134
 Basis Dimension        Dim             ....  322

ORBITAL ENERGIES
----------------

  NO   OCC          E(Eh)            E(eV)
   0   2.0000     -88.969353     -2420.9792
   1   2.0000     -88.959952     -2420.7234
   2   2.0000     -10.332541      -281.1627
   3   2.0000     -10.324687      -280.9490
   4   2.0000     -10.318979      -280.7937
   5   2.0000     -10.309419      -280.5336
   6   2.0000     -10.304407      -280.3972
   7   2.0000     -10.301406      -280.3155
   8   2.0000     -10.295928      -280.1665
   9   2.0000     -10.293248      -280.0935
  10   2.0000     -10.288620      -279.9676
  11   2.0000     -10.288222      -279.9568
  12   2.0000     -10.285637      -279.8864
  13   2.0000     -10.284703      -279.8610
  14   2.0000     -10.282555      -279.8025
  15   2.0000     -10.279184      -279.7108
  16   2.0000      -8.084210      -219.9825
  17   2.0000      -8.078015      -219.8140
  18   2.0000      -6.042707      -164.4304
  19   2.0000      -6.038741      -164.3225
  20   2.0000      -6.036228      -164.2541
  21   2.0000      -6.034937      -164.2190
  22   2.0000      -6.031856      -164.1351
  23   2.0000      -6.029075      -164.0595
  24   2.0000      -1.022485       -27.8232
  25   2.0000      -0.990897       -26.9637
  26   2.0000      -0.922123       -25.0922
  27   2.0000      -0.913100       -24.8467
  28   2.0000      -0.877606       -23.8809
  29   2.0000      -0.854701       -23.2576
  30   2.0000      -0.848101       -23.0780
  31   2.0000      -0.813922       -22.1479
  32   2.0000      -0.786486       -21.4014
  33   2.0000      -0.777710       -21.1626
  34   2.0000      -0.710152       -19.3242
  35   2.0000      -0.701078       -19.0773
  36   2.0000      -0.692924       -18.8554
  37   2.0000      -0.671265       -18.2661
  38   2.0000      -0.636104       -17.3093
  39   2.0000      -0.625398       -17.0179
  40   2.0000      -0.602216       -16.3871
  41   2.0000      -0.580678       -15.8011
  42   2.0000      -0.571242       -15.5443
  43   2.0000      -0.564253       -15.3541
  44   2.0000      -0.529836       -14.4176
  45   2.0000      -0.525044       -14.2872
  46   2.0000      -0.522475       -14.2173
  47   2.0000      -0.516662       -14.0591
  48   2.0000      -0.507722       -13.8158
  49   2.0000      -0.503702       -13.7064
  50   2.0000      -0.493054       -13.4167
  51   2.0000      -0.489056       -13.3079
  52   2.0000      -0.477152       -12.9840
  53   2.0000      -0.465952       -12.6792
  54   2.0000      -0.461974       -12.5710
  55   2.0000      -0.454936       -12.3794
  56   2.0000      -0.447525       -12.1778
  57   2.0000      -0.441992       -12.0272
  58   2.0000      -0.429994       -11.7007
  59   2.0000      -0.427914       -11.6441
  60   2.0000      -0.426004       -11.5922
  61   2.0000      -0.406075       -11.0499
  62   2.0000      -0.401133       -10.9154
  63   2.0000      -0.363758        -9.8984
  64   2.0000      -0.337684        -9.1888
  65   2.0000      -0.325795        -8.8653
  66   2.0000      -0.277218        -7.5435
  67   0.0000       0.019139         0.5208
  68   0.0000       0.089372         2.4319
  69   0.0000       0.100774         2.7422
  70   0.0000       0.114674         3.1204
  71   0.0000       0.125820         3.4237

MULLIKEN ATOMIC CHARGES
-----------------------
   0 S :    0.110049
   1 C :   -0.137402
   2 C :   -0.054292
   3 C :   -0.026195
   4 C :   -0.104759
   5 H :   -0.001985
   6 C :    0.075438
   7 H :    0.044143
   8 H :    0.022421
   9 C :   -0.080822
  10 H :    0.027794
  11 H :    0.027586
  12 C :   -0.055915
  13 H :    0.018722
  14 H :    0.031898
  15 H :    0.038192
  16 S :    0.088591
  17 C :   -0.066519
  18 C :   -0.030855
  19 C :   -0.066544
  20 C :   -0.101188
  21 H :   -0.014588
  22 C :    0.090935
  23 H :    0.020665
  24 H :    0.013892
  25 C :   -0.075209
  26 H :    0.021818
  27 H :    0.032967
  28 C :   -0.058141
  29 H :    0.026817
  30 H :    0.041131
  31 H :    0.029316
  32 H :    0.062954
  33 H :    0.049087
Sum of atomic charges:   -0.0000000

LOEWDIN ATOMIC CHARGES
----------------------
   0 S :    0.415515
   1 C :   -0.202700
   2 C :   -0.062693
   3 C :   -0.072429
   4 C :   -0.197632
   5 H :    0.025151
   6 C :   -0.032398
   7 H :    0.034252
   8 H :    0.037354
   9 C :   -0.040241
  10 H :    0.020972
  11 H :    0.023977
  12 C :   -0.071517
  13 H :    0.022938
  14 H :    0.025815
  15 H :    0.032610
  16 S :    0.459939
  17 C :   -0.206881
  18 C :   -0.069063
  19 C :   -0.059214
  20 C :   -0.204290
  21 H :    0.016244
  22 C :   -0.029344
  23 H :    0.030117
  24 H :    0.025391
  25 C :   -0.035617
  26 H :    0.019382
  27 H :    0.026980
  28 C :   -0.067553
  29 H :    0.018940
  30 H :    0.036693
  31 H :    0.017211
  32 H :    0.034545
  33 H :    0.027545

  Mayer bond orders larger than 0.100000
B(  0-S ,  1-C ) :   1.1452 B(  0-S ,  4-C ) :   1.1557 B(  1-C ,  2-C ) :   1.5967
B(  1-C , 32-H ) :   0.9562 B(  2-C ,  3-C ) :   1.2539 B(  2-C ,  6-C ) :   1.0394
B(  3-C ,  4-C ) :   1.5550 B(  3-C ,  5-H ) :   0.9801 B(  4-C , 20-C ) :   1.0878
B(  6-C ,  7-H ) :   0.9346 B(  6-C ,  8-H ) :   0.9377 B(  6-C ,  9-C ) :   1.0487
B(  9-C , 10-H ) :   0.9577 B(  9-C , 11-H ) :   0.9577 B(  9-C , 12-C ) :   1.0989
B( 12-C , 13-H ) :   0.9675 B( 12-C , 14-H ) :   0.9729 B( 12-C , 15-H ) :   0.9702
B( 16-S , 17-C ) :   1.2109 B( 16-S , 20-C ) :   1.1617 B( 17-C , 18-C ) :   1.5380
B( 17-C , 33-H ) :   0.9761 B( 18-C , 19-C ) :   1.2821 B( 18-C , 21-H ) :   1.0082
B( 19-C , 20-C ) :   1.5286 B( 19-C , 22-C ) :   1.0541 B( 22-C , 23-H ) :   0.9394
B( 22-C , 24-H ) :   0.9201 B( 22-C , 25-C ) :   1.0570 B( 25-C , 26-H ) :   0.9575
B( 25-C , 27-H ) :   0.9571 B( 25-C , 28-C ) :   1.0784 B( 28-C , 29-H ) :   0.9760
B( 28-C , 30-H ) :   0.9758 B( 28-C , 31-H ) :   0.9780

Dispersion correction           -0.013737217
FINAL SINGLE POINT ENERGY     -1339.863320005854

DIPOLE MOMENT
-------------
                                X             Y             Z
Electronic contribution:     18.78286     -25.43749      11.19606
Nuclear contribution   :    -18.98926      26.00810     -11.27762
                        -----------------------------------------
Total Dipole Moment    :     -0.20640       0.57060      -0.08156
                        -----------------------------------------
Magnitude (a.u.)       :      0.61224
Magnitude (Debye)      :      1.55619

Rotational constants in cm-1:     0.017375     0.009460     0.006346
Rotational constants in MHz :   520.897682   283.596397   190.236879

                             ****ORCA TERMINATED NORMALLY****
TOTAL RUN TIME: 0 days 0 hours 0 minutes 33 seconds 669 msec
