                         Program Version 4.2.1 -  RELEASE  -
|  1> ! wB97X-D3 SP def2-SVP
|  2> %pal
|  3> nprocs 16
|  4> end
|  5>
|  6> * xyz 0 1
|  7> S 	 -3.14139 	 -11.4318 	 79.0753
|  8> C 	 -4.73448 	 -11.405 	 78.5435
|  9> C 	 -5.46895 	 -12.5125 	 78.925
| 10> C 	 -4.64567 	 -13.435 	 79.6551
| 11> C 	 -3.38554 	 -12.9285 	 79.999
| 12> H 	 -5.01636 	 -14.3946 	 80.0375
| 13> C 	 -6.9657 	 -12.6994 	 78.8824
| 14> H 	 -7.20183 	 -13.8047 	 78.6308
| 15> H 	 -7.38868 	 -11.9996 	 78.1782
| 16> C 	 -7.55768 	 -12.3967 	 80.3324
| 17> H 	 -7.20941 	 -13.1478 	 81.069
| 18> H 	 -7.15121 	 -11.5011 	 80.7319
| 19> C 	 -9.08609 	 -12.2603 	 80.4617
| 20> H 	 -9.30367 	 -12.27 	 81.5226
| 21> H 	 -9.43918 	 -11.2968 	 80.0874
| 22> H 	 -9.5619 	 -13.175 	 80.0836
| 23> S 	 -2.11264 	 -15.2588 	 80.4688
| 24> C 	 -1.08044 	 -15.27 	 81.8112
| 25> C 	 -0.911829 	 -14.0629 	 82.473
| 26> C 	 -1.58506 	 -13.0145 	 81.816
| 27> C 	 -2.36717 	 -13.5562 	 80.7736
| 28> H 	 -0.188657 	 -13.9683 	 83.2654
| 29> C 	 -1.38513 	 -11.4946 	 82.055
| 30> H 	 -1.12481 	 -10.9634 	 81.1284
| 31> H 	 -0.481755 	 -11.4498 	 82.6985
| 32> C 	 -2.52646 	 -10.74 	 82.7958
| 33> H 	 -3.27415 	 -10.6264 	 82.0687
| 34> H 	 -2.17883 	 -9.69397 	 82.9731
| 35> C 	 -3.08541 	 -11.3652 	 84.1101
| 36> H 	 -3.29266 	 -12.3573 	 83.9678
| 37> H 	 -3.98556 	 -10.7985 	 84.5094
| 38> H 	 -2.33364 	 -11.2872 	 84.8792
| 39> H 	 -5.20603 	 -10.5172 	 78.1112
| 40> H 	 -0.564225 	 -16.218 	 82.2375
| 41> *
| 42>
| 43>                          ****END OF INPUT****

CARTESIAN COORDINATES (ANGSTROEM)
---------------------------------
  S     -3.141390  -11.431800   79.075300
  C     -4.734480  -11.405000   78.543500
  C     -5.468950  -12.512500   78.925000
  C     -4.645670  -13.435000   79.655100
  C     -3.385540  -12.928500   79.999000
  H     -5.016360  -14.394600   80.037500
  C     -6.965700  -12.699400   78.882400
  H     -7.201830  -13.804700   78.630800
  H     -7.388680  -11.999600   78.178200
  C     -7.557680  -12.396700   80.332400
  H     -7.209410  -13.147800   81.069000
  H     -7.151210  -11.501100   80.731900
  C     -9.086090  -12.260300   80.461700
  H     -9.303670  -12.270000   81.522600
  H     -9.439180  -11.296800   80.087400
  H     -9.561900  -13.175000   80.083600
  S     -2.112640  -15.258800   80.468800
  C     -1.080440  -15.270000   81.811200
  C     -0.911829  -14.062900   82.473000
  C     -1.585060  -13.014500   81.816000
  C     -2.367170  -13.556200   80.773600
  H     -0.188657  -13.968300   83.265400
  C     -1.385130  -11.494600   82.055000
  H     -1.124810  -10.963400   81.128400
  H     -0.481755  -11.449800   82.698500
  C     -2.526460  -10.740000   82.795800
  H     -3.274150  -10.626400   82.068700
  H     -2.178830   -9.693970   82.973100
  C     -3.085410  -11.365200   84.110100
  H     -3.292660  -12.357300   83.967800
  H     -3.985560  -10.798500   84.509400
  H     -2.333640  -11.287200   84.879200
  H     -5.206030  -10.517200   78.111200
  H     -0.564225  -16.218000   82.237500

 Total Charge           Charge          ....    0
 Multiplicity           Mult            ....    1
 Number of Electrons    NEL             ....  134
 Basis Dimension        Dim             ....  322

ORBITAL ENERGIES
----------------

  NO   OCC          E(Eh)            E(eV)
   0   2.0000     -88.973636     -2421.0957
   1   2.0000     -88.963886     -2420.8304
   2   2.0000     -10.326910      -281.0095
   3   2.0000     -10.322186      -280.8810
   4   2.0000     -10.319839      -280.8171
   5   2.0000     -10.307191      -280.4729
   6   2.0000     -10.306645      -280.4581
   7   2.0000     -10.301837      -280.3272
   8   2.0000     -10.299194      -280.2553
   9   2.0000     -10.297431      -280.2073
  10   2.0000     -10.293923      -280.1119
  11   2.0000     -10.293053      -280.0882
  12   2.0000     -10.285658      -279.8870
  13   2.0000     -10.282359      -279.7972
  14   2.0000     -10.278203      -279.6841
  15   2.0000     -10.272502      -279.5290
  16   2.0000      -8.089039      -220.1140
  17   2.0000      -8.079028      -219.8415
  18   2.0000      -6.047147      -164.5512
  19   2.0000      -6.043568      -164.4538
  20   2.0000      -6.040060      -164.3584
  21   2.0000      -6.037483      -164.2883
  22   2.0000      -6.033463      -164.1789
  23   2.0000      -6.029857      -164.0807
  24   2.0000      -1.011468       -27.5235
  25   2.0000      -0.988734       -26.9048
  26   2.0000      -0.904692       -24.6179
  27   2.0000      -0.901327       -24.5264
  28   2.0000      -0.871406       -23.7122
  29   2.0000      -0.852967       -23.2104
  30   2.0000      -0.847405       -23.0591
  31   2.0000      -0.808245       -21.9935
  32   2.0000      -0.784939       -21.3593
  33   2.0000      -0.766474       -20.8568
  34   2.0000      -0.709159       -19.2972
  35   2.0000      -0.694607       -18.9012
  36   2.0000      -0.684756       -18.6332
  37   2.0000      -0.663626       -18.0582
  38   2.0000      -0.635223       -17.2853
  39   2.0000      -0.615312       -16.7435
  40   2.0000      -0.591402       -16.0929
  41   2.0000      -0.565534       -15.3890
  42   2.0000      -0.555545       -15.1171
  43   2.0000      -0.547756       -14.9052
  44   2.0000      -0.542096       -14.7512
  45   2.0000      -0.516827       -14.0636
  46   2.0000      -0.511487       -13.9183
  47   2.0000      -0.509575       -13.8662
  48   2.0000      -0.504700       -13.7336
  49   2.0000      -0.496173       -13.5015
  50   2.0000      -0.482290       -13.1238
  51   2.0000      -0.479275       -13.0417
  52   2.0000      -0.472213       -12.8496
  53   2.0000      -0.466950       -12.7064
  54   2.0000      -0.460154       -12.5214
  55   2.0000      -0.452420       -12.3110
  56   2.0000      -0.445265       -12.1163
  57   2.0000      -0.437688       -11.9101
  58   2.0000      -0.429177       -11.6785
  59   2.0000      -0.426277       -11.5996
  60   2.0000      -0.426121       -11.5954
  61   2.0000      -0.418729       -11.3942
  62   2.0000      -0.410549       -11.1716
  63   2.0000      -0.344861        -9.3841
  64   2.0000      -0.340430        -9.2636
  65   2.0000      -0.324609        -8.8331
  66   2.0000      -0.282780        -7.6948
  67   0.0000       0.025129         0.6838
  68   0.0000       0.077722         2.1149
  69   0.0000       0.101212         2.7541
  70   0.0000       0.123909         3.3717
  71   0.0000       0.126393         3.4393

MULLIKEN ATOMIC CHARGES
-----------------------
   0 S :    0.104524
   1 C :   -0.118542
   2 C :   -0.092498
   3 C :   -0.003214
   4 C :   -0.148824
   5 H :    0.017104
   6 C :    0.066232
   7 H :    0.047486
   8 H :    0.019801
   9 C :   -0.108241
  10 H :    0.029736
  11 H :    0.018258
  12 C :   -0.023313
  13 H :    0.024575
  14 H :    0.038627
  15 H :    0.032626
  16 S :    0.153342
  17 C :   -0.120604
  18 C :   -0.036631
  19 C :   -0.035493
  20 C :   -0.168789
  21 H :    0.012453
  22 C :    0.044951
  23 H :    0.048022
  24 H :    0.018929
  25 C :   -0.059630
  26 H :    0.018013
  27 H :    0.028611
  28 C :   -0.028108
  29 H :    0.027641
  30 H :    0.043703
  31 H :    0.019481
  32 H :    0.050898
  33 H :    0.078873
Sum of atomic charges:   -0.0000000

LOEWDIN ATOMIC CHARGES
----------------------
   0 S :    0.425405
   1 C :   -0.227277
   2 C :   -0.068930
   3 C :   -0.068183
   4 C :   -0.190380
   5 H :    0.027841
   6 C :   -0.029808
   7 H :    0.041894
   8 H :    0.025605
   9 C :   -0.042316
  10 H :    0.025730
  11 H :    0.018075
  12 C :   -0.065943
  13 H :    0.027463
  14 H :    0.025378
  15 H :    0.026333
  16 S :    0.450462
  17 C :   -0.217935
  18 C :   -0.075970
  19 C :   -0.048637
  20 C :   -0.206927
  21 H :    0.030472
  22 C :   -0.032221
  23 H :    0.031727
  24 H :    0.030313
  25 C :   -0.038243
  26 H :    0.009725
  27 H :    0.027697
  28 C :   -0.057369
  29 H :    0.012728
  30 H :    0.037279
  31 H :    0.021135
  32 H :    0.030144
  33 H :    0.044734

  Mayer bond orders larger than 0.100000
B(  0-S ,  1-C ) :   1.1541 B(  0-S ,  4-C ) :   1.1401 B(  1-C ,  2-C ) :   1.6053
B(  1-C , 32-H ) :   0.9585 B(  2-C ,  3-C ) :   1.2489 B(  2-C ,  6-C ) :   1.0467
B(  3-C ,  4-C ) :   1.5559 B(  3-C ,  5-H ) :   0.9879 B(  4-C , 20-C ) :   1.0801
B(  6-C ,  7-H ) :   0.9367 B(  6-C ,  8-H ) :   0.9416 B(  6-C ,  9-C ) :   1.0447
B(  9-C , 10-H ) :   0.9563 B(  9-C , 11-H ) :   0.9578 B(  9-C , 12-C ) :   1.0914
B( 12-C , 13-H ) :   0.9717 B( 12-C , 14-H ) :   0.9764 B( 12-C , 15-H ) :   0.9732
B( 16-S , 17-C ) :   1.1762 B( 16-S , 20-C ) :   1.1610 B( 17-C , 18-C ) :   1.5943
B( 17-C , 33-H ) :   0.9505 B( 18-C , 19-C ) :   1.2805 B( 18-C , 21-H ) :   0.9868
B( 19-C , 20-C ) :   1.5269 B( 19-C , 22-C ) :   1.0149 B( 22-C , 23-H ) :   0.9452
B( 22-C , 24-H ) :   0.9354 B( 22-C , 25-C ) :   1.0635 B( 25-C , 26-H ) :   0.9561
B( 25-C , 27-H ) :   0.9550 B( 25-C , 28-C ) :   1.0707 B( 28-C , 29-H ) :   0.9755
B( 28-C , 30-H ) :   0.9745 B( 28-C , 31-H ) :   0.9769

Dispersion correction           -0.015003688
FINAL SINGLE POINT ENERGY     -1339.877194962814

DIPOLE MOMENT
-------------
                                X             Y             Z
Electronic contribution:     17.98861     -10.15346     -13.17876
Nuclear contribution   :    -18.20699      10.23331      13.58566
                        -----------------------------------------
Total Dipole Moment    :     -0.21839       0.07986       0.40690
                        -----------------------------------------
Magnitude (a.u.)       :      0.46865
Magnitude (Debye)      :      1.19122

Rotational constants in cm-1:     0.018505     0.008720     0.007925
Rotational constants in MHz :   554.758915   261.420139   237.581282

                             ****ORCA TERMINATED NORMALLY****
TOTAL RUN TIME: 0 days 0 hours 0 minutes 34 seconds 392 msec
