                         Program Version 4.2.1 -  RELEASE  -
|  1> ! wB97X-D3 SP def2-SVP
|  2> %pal
|  3> nprocs 16
|  4> end
|  5>
|  6> * xyz 0 1
|  7> S 	 51.5666 	 8.31941 	 93.0736
|  8> C 	 50.7436 	 9.85194 	 93.3115
|  9> C 	 50.1949 	 10.3521 	 92.1263
| 10> C 	 50.5194 	 9.51972 	 91.0062
| 11> C 	 51.1529 	 8.33294 	 91.364
| 12> H 	 50.3483 	 9.66368 	 89.916
| 13> C 	 49.6439 	 11.6695 	 91.79
| 14> H 	 48.6472 	 11.7591 	 92.3495
| 15> H 	 49.2727 	 11.7578 	 90.7583
| 16> C 	 50.4706 	 12.8891 	 92.2171
| 17> H 	 49.8376 	 13.8162 	 92.0896
| 18> H 	 50.7487 	 12.926 	 93.245
| 19> C 	 51.7412 	 13.0591 	 91.535
| 20> H 	 52.4254 	 12.2523 	 91.7033
| 21> H 	 51.5356 	 13.084 	 90.4227
| 22> H 	 52.1718 	 14.0257 	 91.8554
| 23> S 	 53.3656 	 6.86674 	 90.4628
| 24> C 	 53.1027 	 5.74559 	 89.1569
| 25> C 	 51.789 	 5.69636 	 88.733
| 26> C 	 50.9325 	 6.60034 	 89.4594
| 27> C 	 51.6569 	 7.31929 	 90.4361
| 28> H 	 51.4326 	 5.1275 	 87.8657
| 29> C 	 49.525 	 6.68118 	 88.9939
| 30> H 	 49.4437 	 6.90315 	 87.931
| 31> H 	 49.1847 	 7.59246 	 89.4203
| 32> C 	 48.5642 	 5.55097 	 89.2704
| 33> H 	 48.3655 	 5.48182 	 90.3295
| 34> H 	 48.9183 	 4.61487 	 88.9211
| 35> C 	 47.21 	 5.67265 	 88.5415
| 36> H 	 46.6816 	 6.59101 	 88.8875
| 37> H 	 46.5995 	 4.75656 	 88.6056
| 38> H 	 47.3864 	 5.70089 	 87.4164
| 39> H 	 50.6772 	 10.4123 	 94.2502
| 40> H 	 53.8685 	 5.19673 	 88.6195
| 41> *
| 42>
| 43>                          ****END OF INPUT****

CARTESIAN COORDINATES (ANGSTROEM)
---------------------------------
  S     51.566600    8.319410   93.073600
  C     50.743600    9.851940   93.311500
  C     50.194900   10.352100   92.126300
  C     50.519400    9.519720   91.006200
  C     51.152900    8.332940   91.364000
  H     50.348300    9.663680   89.916000
  C     49.643900   11.669500   91.790000
  H     48.647200   11.759100   92.349500
  H     49.272700   11.757800   90.758300
  C     50.470600   12.889100   92.217100
  H     49.837600   13.816200   92.089600
  H     50.748700   12.926000   93.245000
  C     51.741200   13.059100   91.535000
  H     52.425400   12.252300   91.703300
  H     51.535600   13.084000   90.422700
  H     52.171800   14.025700   91.855400
  S     53.365600    6.866740   90.462800
  C     53.102700    5.745590   89.156900
  C     51.789000    5.696360   88.733000
  C     50.932500    6.600340   89.459400
  C     51.656900    7.319290   90.436100
  H     51.432600    5.127500   87.865700
  C     49.525000    6.681180   88.993900
  H     49.443700    6.903150   87.931000
  H     49.184700    7.592460   89.420300
  C     48.564200    5.550970   89.270400
  H     48.365500    5.481820   90.329500
  H     48.918300    4.614870   88.921100
  C     47.210000    5.672650   88.541500
  H     46.681600    6.591010   88.887500
  H     46.599500    4.756560   88.605600
  H     47.386400    5.700890   87.416400
  H     50.677200   10.412300   94.250200
  H     53.868500    5.196730   88.619500

 Total Charge           Charge          ....    0
 Multiplicity           Mult            ....    1
 Number of Electrons    NEL             ....  134
 Basis Dimension        Dim             ....  322

ORBITAL ENERGIES
----------------

  NO   OCC          E(Eh)            E(eV)
   0   2.0000     -88.970594     -2421.0129
   1   2.0000     -88.970400     -2421.0077
   2   2.0000     -10.331616      -281.1376
   3   2.0000     -10.329141      -281.0702
   4   2.0000     -10.318787      -280.7885
   5   2.0000     -10.317330      -280.7488
   6   2.0000     -10.304109      -280.3891
   7   2.0000     -10.302387      -280.3422
   8   2.0000     -10.295971      -280.1676
   9   2.0000     -10.295262      -280.1483
  10   2.0000     -10.293001      -280.0868
  11   2.0000     -10.286768      -279.9172
  12   2.0000     -10.284151      -279.8460
  13   2.0000     -10.281508      -279.7741
  14   2.0000     -10.280568      -279.7485
  15   2.0000     -10.271231      -279.4944
  16   2.0000      -8.084775      -219.9979
  17   2.0000      -8.084744      -219.9971
  18   2.0000      -6.043315      -164.4470
  19   2.0000      -6.043281      -164.4460
  20   2.0000      -6.039373      -164.3397
  21   2.0000      -6.039342      -164.3389
  22   2.0000      -6.035526      -164.2350
  23   2.0000      -6.035468      -164.2334
  24   2.0000      -1.003320       -27.3017
  25   2.0000      -0.981942       -26.7200
  26   2.0000      -0.919843       -25.0302
  27   2.0000      -0.914317       -24.8798
  28   2.0000      -0.868333       -23.6286
  29   2.0000      -0.856150       -23.2970
  30   2.0000      -0.850547       -23.1446
  31   2.0000      -0.810598       -22.0575
  32   2.0000      -0.783155       -21.3107
  33   2.0000      -0.770354       -20.9624
  34   2.0000      -0.704867       -19.1804
  35   2.0000      -0.699852       -19.0439
  36   2.0000      -0.689011       -18.7489
  37   2.0000      -0.660014       -17.9599
  38   2.0000      -0.638934       -17.3863
  39   2.0000      -0.611627       -16.6432
  40   2.0000      -0.598072       -16.2744
  41   2.0000      -0.575831       -15.6692
  42   2.0000      -0.568851       -15.4792
  43   2.0000      -0.556467       -15.1422
  44   2.0000      -0.540742       -14.7143
  45   2.0000      -0.526880       -14.3371
  46   2.0000      -0.515072       -14.0158
  47   2.0000      -0.510599       -13.8941
  48   2.0000      -0.507718       -13.8157
  49   2.0000      -0.495776       -13.4907
  50   2.0000      -0.489517       -13.3204
  51   2.0000      -0.475648       -12.9430
  52   2.0000      -0.471850       -12.8397
  53   2.0000      -0.464080       -12.6283
  54   2.0000      -0.459317       -12.4986
  55   2.0000      -0.452937       -12.3250
  56   2.0000      -0.442249       -12.0342
  57   2.0000      -0.435956       -11.8630
  58   2.0000      -0.431270       -11.7354
  59   2.0000      -0.424876       -11.5615
  60   2.0000      -0.416417       -11.3313
  61   2.0000      -0.412478       -11.2241
  62   2.0000      -0.411603       -11.2003
  63   2.0000      -0.346091        -9.4176
  64   2.0000      -0.332028        -9.0349
  65   2.0000      -0.329346        -8.9620
  66   2.0000      -0.289983        -7.8908
  67   0.0000       0.028540         0.7766
  68   0.0000       0.065942         1.7944
  69   0.0000       0.107718         2.9312
  70   0.0000       0.117514         3.1977
  71   0.0000       0.127911         3.4806

MULLIKEN ATOMIC CHARGES
-----------------------
   0 S :    0.118956
   1 C :   -0.128828
   2 C :   -0.061601
   3 C :   -0.000422
   4 C :   -0.173211
   5 H :    0.037446
   6 C :    0.044252
   7 H :    0.037894
   8 H :    0.027374
   9 C :   -0.067924
  10 H :    0.027765
  11 H :    0.013357
  12 C :   -0.045543
  13 H :    0.040893
  14 H :    0.021348
  15 H :    0.036028
  16 S :    0.119890
  17 C :   -0.086226
  18 C :   -0.034477
  19 C :   -0.034158
  20 C :   -0.162727
  21 H :    0.027121
  22 C :    0.092754
  23 H :    0.018235
  24 H :   -0.015981
  25 C :   -0.028821
  26 H :    0.033894
  27 H :    0.011311
  28 C :   -0.097372
  29 H :    0.045911
  30 H :    0.042400
  31 H :    0.029216
  32 H :    0.053978
  33 H :    0.057267
Sum of atomic charges:   -0.0000000

LOEWDIN ATOMIC CHARGES
----------------------
   0 S :    0.406072
   1 C :   -0.202761
   2 C :   -0.066287
   3 C :   -0.066620
   4 C :   -0.194197
   5 H :    0.039664
   6 C :   -0.041834
   7 H :    0.043914
   8 H :    0.033355
   9 C :   -0.048738
  10 H :    0.029445
  11 H :    0.018917
  12 C :   -0.065341
  13 H :    0.023302
  14 H :    0.025255
  15 H :    0.030367
  16 S :    0.405715
  17 C :   -0.189076
  18 C :   -0.068921
  19 C :   -0.049328
  20 C :   -0.199941
  21 H :    0.034350
  22 C :   -0.038387
  23 H :    0.032997
  24 H :    0.023064
  25 C :   -0.033666
  26 H :    0.026589
  27 H :    0.017062
  28 C :   -0.072156
  29 H :    0.027468
  30 H :    0.029511
  31 H :    0.027231
  32 H :    0.032098
  33 H :    0.030878

  Mayer bond orders larger than 0.100000
B(  0-S ,  1-C ) :   1.1358 B(  0-S ,  4-C ) :   1.1513 B(  1-C ,  2-C ) :   1.5971
B(  1-C , 32-H ) :   0.9656 B(  2-C ,  3-C ) :   1.2329 B(  2-C ,  6-C ) :   1.0357
B(  3-C ,  4-C ) :   1.5810 B(  3-C ,  5-H ) :   0.9797 B(  4-C , 20-C ) :   1.0436
B(  6-C ,  7-H ) :   0.9182 B(  6-C ,  8-H ) :   0.9467 B(  6-C ,  9-C ) :   1.0784
B(  9-C , 10-H ) :   0.9499 B(  9-C , 11-H ) :   0.9517 B(  9-C , 12-C ) :   1.0885
B( 12-C , 13-H ) :   0.9731 B( 12-C , 14-H ) :   0.9710 B( 12-C , 15-H ) :   0.9698
B( 16-S , 17-C ) :   1.1478 B( 16-S , 20-C ) :   1.1365 B( 17-C , 18-C ) :   1.6172
B( 17-C , 33-H ) :   0.9640 B( 18-C , 19-C ) :   1.2405 B( 18-C , 21-H ) :   0.9837
B( 19-C , 20-C ) :   1.5842 B( 19-C , 22-C ) :   1.0520 B( 22-C , 23-H ) :   0.9329
B( 22-C , 24-H ) :   0.9084 B( 22-C , 25-C ) :   1.0714 B( 25-C , 26-H ) :   0.9510
B( 25-C , 27-H ) :   0.9547 B( 25-C , 28-C ) :   1.0840 B( 28-C , 29-H ) :   0.9763
B( 28-C , 30-H ) :   0.9741 B( 28-C , 31-H ) :   0.9717

Dispersion correction           -0.013959905
FINAL SINGLE POINT ENERGY     -1339.876340599033

DIPOLE MOMENT
-------------
                                X             Y             Z
Electronic contribution:     18.39801     -11.30179       9.73294
Nuclear contribution   :    -18.75587      11.54816     -10.13970
                        -----------------------------------------
Total Dipole Moment    :     -0.35786       0.24638      -0.40676
                        -----------------------------------------
Magnitude (a.u.)       :      0.59516
Magnitude (Debye)      :      1.51278

Rotational constants in cm-1:     0.018257     0.008236     0.006731
Rotational constants in MHz :   547.329576   246.905849   201.782550

                             ****ORCA TERMINATED NORMALLY****
TOTAL RUN TIME: 0 days 0 hours 0 minutes 29 seconds 200 msec
