                         Program Version 4.2.1 -  RELEASE  -
|  1> ! wB97X-D3 SP def2-SVP
|  2> %pal
|  3> nprocs 16
|  4> end
|  5>
|  6> * xyz 0 1
|  7> S 	 -22.8944 	 51.3127 	 65.9797
|  8> C 	 -22.1489 	 52.3125 	 64.8166
|  9> C 	 -21.3959 	 53.3192 	 65.4764
| 10> C 	 -21.6504 	 53.3044 	 66.8724
| 11> C 	 -22.2387 	 52.1344 	 67.3115
| 12> H 	 -21.3136 	 54.1107 	 67.6375
| 13> C 	 -20.7108 	 54.4882 	 64.7235
| 14> H 	 -20.8499 	 55.3588 	 65.3626
| 15> H 	 -21.0829 	 54.8185 	 63.6938
| 16> C 	 -19.1914 	 54.3495 	 64.5427
| 17> H 	 -18.7732 	 55.2324 	 64.1433
| 18> H 	 -18.7373 	 54.1739 	 65.5251
| 19> C 	 -18.7519 	 53.1177 	 63.738
| 20> H 	 -17.7646 	 53.4117 	 63.3942
| 21> H 	 -18.6976 	 52.1072 	 64.2158
| 22> H 	 -19.3962 	 53.1435 	 62.8816
| 23> S 	 -24.0973 	 50.9244 	 69.0784
| 24> C 	 -23.7534 	 51.0046 	 70.8137
| 25> C 	 -22.4992 	 51.5206 	 71.0216
| 26> C 	 -21.7893 	 51.8555 	 69.8375
| 27> C 	 -22.5704 	 51.7367 	 68.6767
| 28> H 	 -21.9782 	 51.5856 	 72.0022
| 29> C 	 -20.2622 	 52.1014 	 69.8542
| 30> H 	 -20.0349 	 52.8329 	 70.7161
| 31> H 	 -20.0402 	 52.6615 	 68.9212
| 32> C 	 -19.5526 	 50.8024 	 70.1135
| 33> H 	 -19.512 	 50.2374 	 69.1747
| 34> H 	 -20.1475 	 50.2622 	 70.8019
| 35> C 	 -18.1397 	 50.9186 	 70.7069
| 36> H 	 -18.1658 	 51.4799 	 71.6756
| 37> H 	 -17.4399 	 51.4361 	 69.9784
| 38> H 	 -17.7481 	 49.9448 	 70.9095
| 39> H 	 -22.1318 	 52.0262 	 63.8285
| 40> H 	 -24.2781 	 50.5831 	 71.6095
| 41> *
| 42>
| 43>                          ****END OF INPUT****

CARTESIAN COORDINATES (ANGSTROEM)
---------------------------------
  S    -22.894400   51.312700   65.979700
  C    -22.148900   52.312500   64.816600
  C    -21.395900   53.319200   65.476400
  C    -21.650400   53.304400   66.872400
  C    -22.238700   52.134400   67.311500
  H    -21.313600   54.110700   67.637500
  C    -20.710800   54.488200   64.723500
  H    -20.849900   55.358800   65.362600
  H    -21.082900   54.818500   63.693800
  C    -19.191400   54.349500   64.542700
  H    -18.773200   55.232400   64.143300
  H    -18.737300   54.173900   65.525100
  C    -18.751900   53.117700   63.738000
  H    -17.764600   53.411700   63.394200
  H    -18.697600   52.107200   64.215800
  H    -19.396200   53.143500   62.881600
  S    -24.097300   50.924400   69.078400
  C    -23.753400   51.004600   70.813700
  C    -22.499200   51.520600   71.021600
  C    -21.789300   51.855500   69.837500
  C    -22.570400   51.736700   68.676700
  H    -21.978200   51.585600   72.002200
  C    -20.262200   52.101400   69.854200
  H    -20.034900   52.832900   70.716100
  H    -20.040200   52.661500   68.921200
  C    -19.552600   50.802400   70.113500
  H    -19.512000   50.237400   69.174700
  H    -20.147500   50.262200   70.801900
  C    -18.139700   50.918600   70.706900
  H    -18.165800   51.479900   71.675600
  H    -17.439900   51.436100   69.978400
  H    -17.748100   49.944800   70.909500
  H    -22.131800   52.026200   63.828500
  H    -24.278100   50.583100   71.609500

 Total Charge           Charge          ....    0
 Multiplicity           Mult            ....    1
 Number of Electrons    NEL             ....  134
 Basis Dimension        Dim             ....  322

ORBITAL ENERGIES
----------------

  NO   OCC          E(Eh)            E(eV)
   0   2.0000     -88.968617     -2420.9591
   1   2.0000     -88.966456     -2420.9004
   2   2.0000     -10.331787      -281.1422
   3   2.0000     -10.328609      -281.0557
   4   2.0000     -10.317454      -280.7522
   5   2.0000     -10.311864      -280.6001
   6   2.0000     -10.310510      -280.5632
   7   2.0000     -10.303865      -280.3824
   8   2.0000     -10.302707      -280.3509
   9   2.0000     -10.298666      -280.2409
  10   2.0000     -10.297674      -280.2140
  11   2.0000     -10.295692      -280.1600
  12   2.0000     -10.283270      -279.8220
  13   2.0000     -10.281107      -279.7632
  14   2.0000     -10.280773      -279.7541
  15   2.0000     -10.274590      -279.5858
  16   2.0000      -8.083146      -219.9536
  17   2.0000      -8.082401      -219.9333
  18   2.0000      -6.041413      -164.3952
  19   2.0000      -6.041115      -164.3871
  20   2.0000      -6.037184      -164.2801
  21   2.0000      -6.037111      -164.2781
  22   2.0000      -6.034254      -164.2004
  23   2.0000      -6.032928      -164.1643
  24   2.0000      -1.014752       -27.6128
  25   2.0000      -0.986585       -26.8463
  26   2.0000      -0.910835       -24.7851
  27   2.0000      -0.909268       -24.7424
  28   2.0000      -0.871475       -23.7140
  29   2.0000      -0.853231       -23.2176
  30   2.0000      -0.843489       -22.9525
  31   2.0000      -0.814851       -22.1732
  32   2.0000      -0.782715       -21.2987
  33   2.0000      -0.771726       -20.9997
  34   2.0000      -0.706295       -19.2193
  35   2.0000      -0.696811       -18.9612
  36   2.0000      -0.691370       -18.8131
  37   2.0000      -0.656809       -17.8727
  38   2.0000      -0.646299       -17.5867
  39   2.0000      -0.618800       -16.8384
  40   2.0000      -0.595213       -16.1966
  41   2.0000      -0.572507       -15.5787
  42   2.0000      -0.562924       -15.3179
  43   2.0000      -0.546287       -14.8652
  44   2.0000      -0.545117       -14.8334
  45   2.0000      -0.526812       -14.3353
  46   2.0000      -0.523731       -14.2515
  47   2.0000      -0.512032       -13.9331
  48   2.0000      -0.506341       -13.7782
  49   2.0000      -0.501420       -13.6443
  50   2.0000      -0.489098       -13.3090
  51   2.0000      -0.478030       -13.0079
  52   2.0000      -0.469398       -12.7730
  53   2.0000      -0.463621       -12.6158
  54   2.0000      -0.459767       -12.5109
  55   2.0000      -0.450733       -12.2651
  56   2.0000      -0.449354       -12.2275
  57   2.0000      -0.436246       -11.8709
  58   2.0000      -0.430489       -11.7142
  59   2.0000      -0.421790       -11.4775
  60   2.0000      -0.419173       -11.4063
  61   2.0000      -0.413746       -11.2586
  62   2.0000      -0.404711       -11.0127
  63   2.0000      -0.356444        -9.6993
  64   2.0000      -0.334793        -9.1102
  65   2.0000      -0.329455        -8.9649
  66   2.0000      -0.285722        -7.7749
  67   0.0000       0.020975         0.5707
  68   0.0000       0.075331         2.0499
  69   0.0000       0.103904         2.8274
  70   0.0000       0.112755         3.0682
  71   0.0000       0.132922         3.6170

MULLIKEN ATOMIC CHARGES
-----------------------
   0 S :    0.109430
   1 C :   -0.087591
   2 C :   -0.078670
   3 C :   -0.013615
   4 C :   -0.151072
   5 H :    0.059743
   6 C :    0.026067
   7 H :    0.023419
   8 H :    0.042409
   9 C :   -0.074991
  10 H :    0.023271
  11 H :    0.020126
  12 C :   -0.047437
  13 H :    0.025178
  14 H :    0.060001
  15 H :    0.009768
  16 S :    0.100736
  17 C :   -0.058386
  18 C :   -0.040137
  19 C :   -0.089946
  20 C :   -0.125795
  21 H :    0.031593
  22 C :    0.047804
  23 H :    0.027762
  24 H :    0.025819
  25 C :   -0.042344
  26 H :    0.036108
  27 H :    0.017557
  28 C :   -0.056755
  29 H :    0.034232
  30 H :    0.041913
  31 H :    0.031940
  32 H :    0.033179
  33 H :    0.038684
Sum of atomic charges:   -0.0000000

LOEWDIN ATOMIC CHARGES
----------------------
   0 S :    0.452750
   1 C :   -0.195228
   2 C :   -0.060849
   3 C :   -0.075628
   4 C :   -0.213241
   5 H :    0.049181
   6 C :   -0.036989
   7 H :    0.030239
   8 H :    0.035681
   9 C :   -0.041751
  10 H :    0.018044
  11 H :    0.021913
  12 C :   -0.069215
  13 H :    0.027044
  14 H :    0.034585
  15 H :    0.015529
  16 S :    0.384247
  17 C :   -0.171227
  18 C :   -0.073638
  19 C :   -0.059512
  20 C :   -0.193205
  21 H :    0.037237
  22 C :   -0.035264
  23 H :    0.032756
  24 H :    0.028866
  25 C :   -0.041683
  26 H :    0.031690
  27 H :    0.019943
  28 C :   -0.066439
  29 H :    0.026817
  30 H :    0.031050
  31 H :    0.022097
  32 H :    0.011796
  33 H :    0.022405

  Mayer bond orders larger than 0.100000
B(  0-S ,  1-C ) :   1.1808 B(  0-S ,  4-C ) :   1.1822 B(  1-C ,  2-C ) :   1.5316
B(  1-C ,  4-C ) :   0.1066 B(  1-C , 32-H ) :   0.9862 B(  2-C ,  3-C ) :   1.2974
B(  2-C ,  6-C ) :   1.0096 B(  3-C ,  4-C ) :   1.5342 B(  3-C ,  5-H ) :   0.9632
B(  4-C , 20-C ) :   1.0573 B(  6-C ,  7-H ) :   0.9429 B(  6-C ,  8-H ) :   0.9546
B(  6-C ,  9-C ) :   1.0820 B(  9-C , 10-H ) :   0.9594 B(  9-C , 11-H ) :   0.9531
B(  9-C , 12-C ) :   1.0698 B( 12-C , 13-H ) :   0.9735 B( 12-C , 14-H ) :   0.9750
B( 12-C , 15-H ) :   0.9762 B( 16-S , 17-C ) :   1.1386 B( 16-S , 20-C ) :   1.1241
B( 17-C , 18-C ) :   1.6072 B( 17-C , 33-H ) :   0.9736 B( 18-C , 19-C ) :   1.2677
B( 18-C , 21-H ) :   0.9753 B( 19-C , 20-C ) :   1.5873 B( 19-C , 22-C ) :   1.0400
B( 22-C , 23-H ) :   0.9385 B( 22-C , 24-H ) :   0.9268 B( 22-C , 25-C ) :   1.0578
B( 25-C , 26-H ) :   0.9471 B( 25-C , 27-H ) :   0.9565 B( 25-C , 28-C ) :   1.0880
B( 28-C , 29-H ) :   0.9732 B( 28-C , 30-H ) :   0.9746 B( 28-C , 31-H ) :   0.9737

Dispersion correction           -0.014039697
FINAL SINGLE POINT ENERGY     -1339.866707910448

DIPOLE MOMENT
-------------
                                X             Y             Z
Electronic contribution:    -28.16589      -7.83806       1.80150
Nuclear contribution   :     28.75687       8.02871      -1.67540
                        -----------------------------------------
Total Dipole Moment    :      0.59098       0.19065       0.12610
                        -----------------------------------------
Magnitude (a.u.)       :      0.63364
Magnitude (Debye)      :      1.61058

Rotational constants in cm-1:     0.018369     0.008884     0.006619
Rotational constants in MHz :   550.679692   266.331657   198.437261

                             ****ORCA TERMINATED NORMALLY****
TOTAL RUN TIME: 0 days 0 hours 0 minutes 32 seconds 954 msec
