                         Program Version 4.2.1 -  RELEASE  -
|  1> ! wB97X-D3 SP def2-SVP
|  2> %pal
|  3> nprocs 16
|  4> end
|  5>
|  6> * xyz 0 1
|  7> S 	 37.4955 	 10.3329 	 77.4654
|  8> C 	 37.927 	 11.3346 	 76.1026
|  9> C 	 39.1302 	 11.9785 	 76.398
| 10> C 	 39.3772 	 12.0417 	 77.8197
| 11> C 	 38.4989 	 11.2673 	 78.5403
| 12> H 	 40.0105 	 12.5733 	 78.3861
| 13> C 	 40.0235 	 12.6899 	 75.4347
| 14> H 	 40.8202 	 13.2161 	 75.9009
| 15> H 	 39.2372 	 13.3515 	 75.0491
| 16> C 	 40.7324 	 11.9297 	 74.29
| 17> H 	 39.985 	 11.2291 	 73.8546
| 18> H 	 41.0448 	 12.582 	 73.4121
| 19> C 	 42.0253 	 11.1765 	 74.806
| 20> H 	 42.1641 	 10.4009 	 74.0087
| 21> H 	 42.7708 	 11.8722 	 74.9364
| 22> H 	 41.924 	 10.674 	 75.787
| 23> S 	 38.2305 	 12.9708 	 80.8262
| 24> C 	 38.2222 	 12.1881 	 82.3615
| 25> C 	 38.3579 	 10.8106 	 82.2724
| 26> C 	 38.4491 	 10.2947 	 80.9614
| 27> C 	 38.367 	 11.3311 	 80.0197
| 28> H 	 38.2479 	 10.178 	 83.0951
| 29> C 	 38.712 	 8.90691 	 80.5948
| 30> H 	 37.857 	 8.60939 	 79.9893
| 31> H 	 38.768 	 8.27786 	 81.4528
| 32> C 	 40.1024 	 8.62735 	 79.7987
| 33> H 	 40.0241 	 9.03535 	 78.7327
| 34> H 	 40.4479 	 7.55843 	 79.6447
| 35> C 	 41.2629 	 9.41447 	 80.4381
| 36> H 	 41.2174 	 10.4711 	 80.1167
| 37> H 	 42.2623 	 9.00721 	 80.1337
| 38> H 	 41.1806 	 9.3601 	 81.5471
| 39> H 	 37.6407 	 11.1057 	 75.0467
| 40> H 	 37.9677 	 12.6274 	 83.353
| 41> *
| 42>
| 43>                          ****END OF INPUT****

CARTESIAN COORDINATES (ANGSTROEM)
---------------------------------
  S     37.495500   10.332900   77.465400
  C     37.927000   11.334600   76.102600
  C     39.130200   11.978500   76.398000
  C     39.377200   12.041700   77.819700
  C     38.498900   11.267300   78.540300
  H     40.010500   12.573300   78.386100
  C     40.023500   12.689900   75.434700
  H     40.820200   13.216100   75.900900
  H     39.237200   13.351500   75.049100
  C     40.732400   11.929700   74.290000
  H     39.985000   11.229100   73.854600
  H     41.044800   12.582000   73.412100
  C     42.025300   11.176500   74.806000
  H     42.164100   10.400900   74.008700
  H     42.770800   11.872200   74.936400
  H     41.924000   10.674000   75.787000
  S     38.230500   12.970800   80.826200
  C     38.222200   12.188100   82.361500
  C     38.357900   10.810600   82.272400
  C     38.449100   10.294700   80.961400
  C     38.367000   11.331100   80.019700
  H     38.247900   10.178000   83.095100
  C     38.712000    8.906910   80.594800
  H     37.857000    8.609390   79.989300
  H     38.768000    8.277860   81.452800
  C     40.102400    8.627350   79.798700
  H     40.024100    9.035350   78.732700
  H     40.447900    7.558430   79.644700
  C     41.262900    9.414470   80.438100
  H     41.217400   10.471100   80.116700
  H     42.262300    9.007210   80.133700
  H     41.180600    9.360100   81.547100
  H     37.640700   11.105700   75.046700
  H     37.967700   12.627400   83.353000

 Total Charge           Charge          ....    0
 Multiplicity           Mult            ....    1
 Number of Electrons    NEL             ....  134
 Basis Dimension        Dim             ....  322

ORBITAL ENERGIES
----------------

  NO   OCC          E(Eh)            E(eV)
   0   2.0000     -88.973551     -2421.0934
   1   2.0000     -88.965227     -2420.8669
   2   2.0000     -10.333029      -281.1760
   3   2.0000     -10.328847      -281.0622
   4   2.0000     -10.321063      -280.8504
   5   2.0000     -10.316670      -280.7309
   6   2.0000     -10.307903      -280.4923
   7   2.0000     -10.301769      -280.3254
   8   2.0000     -10.298221      -280.2288
   9   2.0000     -10.296638      -280.1858
  10   2.0000     -10.293708      -280.1060
  11   2.0000     -10.288936      -279.9762
  12   2.0000     -10.288476      -279.9637
  13   2.0000     -10.285066      -279.8709
  14   2.0000     -10.280081      -279.7352
  15   2.0000     -10.277917      -279.6763
  16   2.0000      -8.086974      -220.0577
  17   2.0000      -8.079882      -219.8648
  18   2.0000      -6.045539      -164.5075
  19   2.0000      -6.041729      -164.4038
  20   2.0000      -6.038600      -164.3187
  21   2.0000      -6.037688      -164.2938
  22   2.0000      -6.034509      -164.2073
  23   2.0000      -6.030317      -164.0933
  24   2.0000      -1.005476       -27.3604
  25   2.0000      -0.984717       -26.7955
  26   2.0000      -0.910289       -24.7702
  27   2.0000      -0.904637       -24.6164
  28   2.0000      -0.865167       -23.5424
  29   2.0000      -0.849361       -23.1123
  30   2.0000      -0.845518       -23.0077
  31   2.0000      -0.813334       -22.1319
  32   2.0000      -0.783730       -21.3264
  33   2.0000      -0.769678       -20.9440
  34   2.0000      -0.704062       -19.1585
  35   2.0000      -0.701830       -19.0978
  36   2.0000      -0.680720       -18.5233
  37   2.0000      -0.664050       -18.0697
  38   2.0000      -0.646930       -17.6039
  39   2.0000      -0.603403       -16.4194
  40   2.0000      -0.591074       -16.0839
  41   2.0000      -0.580325       -15.7914
  42   2.0000      -0.553965       -15.0742
  43   2.0000      -0.550338       -14.9755
  44   2.0000      -0.545389       -14.8408
  45   2.0000      -0.534982       -14.5576
  46   2.0000      -0.520760       -14.1706
  47   2.0000      -0.508706       -13.8426
  48   2.0000      -0.497292       -13.5320
  49   2.0000      -0.493873       -13.4390
  50   2.0000      -0.489373       -13.3165
  51   2.0000      -0.481805       -13.1106
  52   2.0000      -0.472474       -12.8567
  53   2.0000      -0.466320       -12.6892
  54   2.0000      -0.460684       -12.5359
  55   2.0000      -0.444269       -12.0892
  56   2.0000      -0.436093       -11.8667
  57   2.0000      -0.431563       -11.7434
  58   2.0000      -0.429744       -11.6939
  59   2.0000      -0.427670       -11.6375
  60   2.0000      -0.421813       -11.4781
  61   2.0000      -0.416435       -11.3318
  62   2.0000      -0.403619       -10.9830
  63   2.0000      -0.344636        -9.3780
  64   2.0000      -0.335183        -9.1208
  65   2.0000      -0.323428        -8.8009
  66   2.0000      -0.288366        -7.8468
  67   0.0000       0.023312         0.6343
  68   0.0000       0.055394         1.5073
  69   0.0000       0.092756         2.5240
  70   0.0000       0.115823         3.1517
  71   0.0000       0.127832         3.4785

MULLIKEN ATOMIC CHARGES
-----------------------
   0 S :    0.106202
   1 C :   -0.123738
   2 C :   -0.091748
   3 C :    0.055503
   4 C :   -0.158967
   5 H :   -0.043445
   6 C :    0.068260
   7 H :    0.012420
   8 H :    0.048602
   9 C :   -0.104206
  10 H :    0.022896
  11 H :    0.045321
  12 C :   -0.053916
  13 H :    0.049728
  14 H :    0.023696
  15 H :    0.041966
  16 S :    0.123201
  17 C :   -0.094597
  18 C :   -0.018541
  19 C :   -0.040918
  20 C :   -0.168207
  21 H :   -0.007123
  22 C :    0.094672
  23 H :    0.042772
  24 H :    0.016474
  25 C :   -0.128696
  26 H :    0.049426
  27 H :    0.047686
  28 C :   -0.063163
  29 H :    0.040831
  30 H :    0.038087
  31 H :    0.030801
  32 H :    0.067291
  33 H :    0.071429
Sum of atomic charges:   -0.0000000

LOEWDIN ATOMIC CHARGES
----------------------
   0 S :    0.405551
   1 C :   -0.214012
   2 C :   -0.050340
   3 C :   -0.057990
   4 C :   -0.184929
   5 H :    0.006558
   6 C :   -0.042010
   7 H :    0.023641
   8 H :    0.045531
   9 C :   -0.043146
  10 H :    0.018395
  11 H :    0.032945
  12 C :   -0.063300
  13 H :    0.036969
  14 H :    0.011901
  15 H :    0.029539
  16 S :    0.398120
  17 C :   -0.199172
  18 C :   -0.067600
  19 C :   -0.055153
  20 C :   -0.171492
  21 H :    0.020305
  22 C :   -0.031723
  23 H :    0.036105
  24 H :    0.026968
  25 C :   -0.050533
  26 H :    0.027481
  27 H :    0.030365
  28 C :   -0.075384
  29 H :    0.026992
  30 H :    0.028180
  31 H :    0.023811
  32 H :    0.035534
  33 H :    0.041891

  Mayer bond orders larger than 0.100000
B(  0-S ,  1-C ) :   1.1253 B(  0-S ,  4-C ) :   1.1471 B(  1-C ,  2-C ) :   1.6083
B(  1-C , 32-H ) :   0.9599 B(  2-C ,  3-C ) :   1.1928 B(  2-C ,  6-C ) :   1.0162
B(  3-C ,  4-C ) :   1.5789 B(  3-C ,  5-H ) :   1.0200 B(  4-C , 20-C ) :   1.0385
B(  6-C ,  7-H ) :   0.9499 B(  6-C ,  8-H ) :   0.9325 B(  6-C ,  9-C ) :   1.0652
B(  9-C , 10-H ) :   0.9621 B(  9-C , 11-H ) :   0.9564 B(  9-C , 12-C ) :   1.0548
B( 12-C , 13-H ) :   0.9768 B( 12-C , 14-H ) :   0.9777 B( 12-C , 15-H ) :   0.9813
B( 16-S , 17-C ) :   1.1570 B( 16-S , 20-C ) :   1.1323 B( 17-C , 18-C ) :   1.6002
B( 17-C , 33-H ) :   0.9563 B( 18-C , 19-C ) :   1.2686 B( 18-C , 21-H ) :   0.9887
B( 19-C , 20-C ) :   1.5525 B( 19-C , 22-C ) :   1.0523 B( 22-C , 23-H ) :   0.9279
B( 22-C , 24-H ) :   0.9344 B( 22-C , 25-C ) :   1.0430 B( 25-C , 26-H ) :   0.9516
B( 25-C , 27-H ) :   0.9664 B( 25-C , 28-C ) :   1.0716 B( 28-C , 29-H ) :   0.9687
B( 28-C , 30-H ) :   0.9748 B( 28-C , 31-H ) :   0.9779

Dispersion correction           -0.016068808
FINAL SINGLE POINT ENERGY     -1339.844673727185

DIPOLE MOMENT
-------------
                                X             Y             Z
Electronic contribution:    -19.18593       7.83667      10.84968
Nuclear contribution   :     19.55306      -7.94952     -10.94168
                        -----------------------------------------
Total Dipole Moment    :      0.36713      -0.11285      -0.09201
                        -----------------------------------------
Magnitude (a.u.)       :      0.39494
Magnitude (Debye)      :      1.00387

Rotational constants in cm-1:     0.021641     0.008554     0.007826
Rotational constants in MHz :   648.789616   256.442144   234.608314

                             ****ORCA TERMINATED NORMALLY****
TOTAL RUN TIME: 0 days 0 hours 0 minutes 32 seconds 287 msec
