                         Program Version 4.2.1 -  RELEASE  -
|  1> ! wB97X-D3 SP def2-SVP
|  2> %pal
|  3> nprocs 16
|  4> end
|  5>
|  6> * xyz 0 1
|  7> S 	 12.9465 	 -7.00049 	 74.0745
|  8> C 	 12.6925 	 -5.37308 	 74.6596
|  9> C 	 12.0688 	 -4.58277 	 73.712
| 10> C 	 11.7692 	 -5.29823 	 72.4645
| 11> C 	 12.2711 	 -6.55742 	 72.4771
| 12> H 	 11.4334 	 -4.85848 	 71.4839
| 13> C 	 11.5362 	 -3.17717 	 73.9778
| 14> H 	 11.6364 	 -2.89468 	 75.0377
| 15> H 	 10.4581 	 -3.26429 	 73.7828
| 16> C 	 12.2004 	 -2.15518 	 73.031
| 17> H 	 13.274 	 -2.20655 	 73.2311
| 18> H 	 11.9854 	 -2.49386 	 72.0548
| 19> C 	 11.7673 	 -0.714973 	 73.2848
| 20> H 	 11.5856 	 -0.47635 	 74.3853
| 21> H 	 12.5117 	 0.0576997 	 72.9096
| 22> H 	 10.878 	 -0.614157 	 72.7022
| 23> S 	 13.5203 	 -8.57433 	 70.9048
| 24> C 	 12.5366 	 -9.27704 	 69.6851
| 25> C 	 11.2994 	 -8.72007 	 69.5876
| 26> C 	 11.0539 	 -7.74298 	 70.6419
| 27> C 	 12.1866 	 -7.50611 	 71.3982
| 28> H 	 10.623 	 -9.22594 	 68.9389
| 29> C 	 9.65915 	 -7.30602 	 71.071
| 30> H 	 8.96163 	 -7.56557 	 70.3254
| 31> H 	 9.49342 	 -6.21391 	 71.1261
| 32> C 	 9.11749 	 -8.03559 	 72.3504
| 33> H 	 9.84168 	 -8.11034 	 73.1281
| 34> H 	 8.87689 	 -9.03076 	 71.9337
| 35> C 	 7.77376 	 -7.59847 	 72.8637
| 36> H 	 7.56662 	 -8.28284 	 73.6966
| 37> H 	 6.99143 	 -7.78456 	 72.162
| 38> H 	 7.6545 	 -6.57891 	 73.249
| 39> H 	 12.9462 	 -4.99184 	 75.6597
| 40> H 	 12.8768 	 -10.067 	 69.0726
| 41> *
| 42>
| 43>                          ****END OF INPUT****

CARTESIAN COORDINATES (ANGSTROEM)
---------------------------------
  S     12.946500   -7.000490   74.074500
  C     12.692500   -5.373080   74.659600
  C     12.068800   -4.582770   73.712000
  C     11.769200   -5.298230   72.464500
  C     12.271100   -6.557420   72.477100
  H     11.433400   -4.858480   71.483900
  C     11.536200   -3.177170   73.977800
  H     11.636400   -2.894680   75.037700
  H     10.458100   -3.264290   73.782800
  C     12.200400   -2.155180   73.031000
  H     13.274000   -2.206550   73.231100
  H     11.985400   -2.493860   72.054800
  C     11.767300   -0.714973   73.284800
  H     11.585600   -0.476350   74.385300
  H     12.511700    0.057700   72.909600
  H     10.878000   -0.614157   72.702200
  S     13.520300   -8.574330   70.904800
  C     12.536600   -9.277040   69.685100
  C     11.299400   -8.720070   69.587600
  C     11.053900   -7.742980   70.641900
  C     12.186600   -7.506110   71.398200
  H     10.623000   -9.225940   68.938900
  C      9.659150   -7.306020   71.071000
  H      8.961630   -7.565570   70.325400
  H      9.493420   -6.213910   71.126100
  C      9.117490   -8.035590   72.350400
  H      9.841680   -8.110340   73.128100
  H      8.876890   -9.030760   71.933700
  C      7.773760   -7.598470   72.863700
  H      7.566620   -8.282840   73.696600
  H      6.991430   -7.784560   72.162000
  H      7.654500   -6.578910   73.249000
  H     12.946200   -4.991840   75.659700
  H     12.876800  -10.067000   69.072600

 Total Charge           Charge          ....    0
 Multiplicity           Mult            ....    1
 Number of Electrons    NEL             ....  134
 Basis Dimension        Dim             ....  322

ORBITAL ENERGIES
----------------

  NO   OCC          E(Eh)            E(eV)
   0   2.0000     -88.966218     -2420.8939
   1   2.0000     -88.964773     -2420.8545
   2   2.0000     -10.328853      -281.0624
   3   2.0000     -10.324276      -280.9378
   4   2.0000     -10.315668      -280.7036
   5   2.0000     -10.312294      -280.6118
   6   2.0000     -10.307056      -280.4692
   7   2.0000     -10.304368      -280.3961
   8   2.0000     -10.299313      -280.2585
   9   2.0000     -10.293908      -280.1115
  10   2.0000     -10.292785      -280.0809
  11   2.0000     -10.288410      -279.9619
  12   2.0000     -10.284178      -279.8467
  13   2.0000     -10.282502      -279.8011
  14   2.0000     -10.281491      -279.7736
  15   2.0000     -10.272681      -279.5338
  16   2.0000      -8.081227      -219.9014
  17   2.0000      -8.078955      -219.8395
  18   2.0000      -6.039672      -164.3478
  19   2.0000      -6.037663      -164.2932
  20   2.0000      -6.035732      -164.2406
  21   2.0000      -6.033615      -164.1830
  22   2.0000      -6.032006      -164.1392
  23   2.0000      -6.029470      -164.0702
  24   2.0000      -1.005681       -27.3660
  25   2.0000      -0.981805       -26.7163
  26   2.0000      -0.911235       -24.7960
  27   2.0000      -0.906513       -24.6675
  28   2.0000      -0.873901       -23.7800
  29   2.0000      -0.852604       -23.2005
  30   2.0000      -0.842926       -22.9372
  31   2.0000      -0.817502       -22.2454
  32   2.0000      -0.783174       -21.3113
  33   2.0000      -0.767906       -20.8958
  34   2.0000      -0.707887       -19.2626
  35   2.0000      -0.693499       -18.8711
  36   2.0000      -0.689607       -18.7652
  37   2.0000      -0.661826       -18.0092
  38   2.0000      -0.637773       -17.3547
  39   2.0000      -0.617804       -16.8113
  40   2.0000      -0.596300       -16.2262
  41   2.0000      -0.570768       -15.5314
  42   2.0000      -0.567780       -15.4501
  43   2.0000      -0.560168       -15.2430
  44   2.0000      -0.523784       -14.2529
  45   2.0000      -0.519651       -14.1404
  46   2.0000      -0.510562       -13.8931
  47   2.0000      -0.510164       -13.8823
  48   2.0000      -0.505554       -13.7568
  49   2.0000      -0.499651       -13.5962
  50   2.0000      -0.497646       -13.5416
  51   2.0000      -0.479733       -13.0542
  52   2.0000      -0.473325       -12.8798
  53   2.0000      -0.465278       -12.6609
  54   2.0000      -0.458178       -12.4677
  55   2.0000      -0.451524       -12.2866
  56   2.0000      -0.445486       -12.1223
  57   2.0000      -0.433949       -11.8084
  58   2.0000      -0.428745       -11.6667
  59   2.0000      -0.423719       -11.5300
  60   2.0000      -0.420514       -11.4428
  61   2.0000      -0.412086       -11.2134
  62   2.0000      -0.411048       -11.1852
  63   2.0000      -0.353949        -9.6314
  64   2.0000      -0.331765        -9.0278
  65   2.0000      -0.326623        -8.8879
  66   2.0000      -0.292316        -7.9543
  67   0.0000       0.026915         0.7324
  68   0.0000       0.078332         2.1315
  69   0.0000       0.108028         2.9396
  70   0.0000       0.119820         3.2605
  71   0.0000       0.131122         3.5680

MULLIKEN ATOMIC CHARGES
-----------------------
   0 S :    0.095466
   1 C :   -0.118279
   2 C :   -0.098810
   3 C :    0.000139
   4 C :   -0.145996
   5 H :    0.053435
   6 C :    0.047793
   7 H :    0.017689
   8 H :    0.035940
   9 C :   -0.071669
  10 H :    0.033622
  11 H :    0.020365
  12 C :   -0.057971
  13 H :    0.042627
  14 H :    0.046355
  15 H :    0.027239
  16 S :    0.115932
  17 C :   -0.085275
  18 C :   -0.009069
  19 C :   -0.042907
  20 C :   -0.153997
  21 H :    0.012749
  22 C :    0.087227
  23 H :   -0.006982
  24 H :    0.018894
  25 C :   -0.070602
  26 H :    0.036024
  27 H :    0.023904
  28 C :   -0.035593
  29 H :    0.031135
  30 H :    0.017819
  31 H :    0.034540
  32 H :    0.053279
  33 H :    0.044981
Sum of atomic charges:   -0.0000000

LOEWDIN ATOMIC CHARGES
----------------------
   0 S :    0.376608
   1 C :   -0.202317
   2 C :   -0.059270
   3 C :   -0.065741
   4 C :   -0.172316
   5 H :    0.045145
   6 C :   -0.030255
   7 H :    0.026042
   8 H :    0.032167
   9 C :   -0.039250
  10 H :    0.026503
  11 H :    0.016696
  12 C :   -0.073075
  13 H :    0.032041
  14 H :    0.033638
  15 H :    0.021217
  16 S :    0.402821
  17 C :   -0.179275
  18 C :   -0.071205
  19 C :   -0.047723
  20 C :   -0.197307
  21 H :    0.029425
  22 C :   -0.035035
  23 H :    0.020548
  24 H :    0.025719
  25 C :   -0.031307
  26 H :    0.017943
  27 H :    0.030628
  28 C :   -0.065167
  29 H :    0.033420
  30 H :    0.019079
  31 H :    0.022891
  32 H :    0.034321
  33 H :    0.022388

  Mayer bond orders larger than 0.100000
B(  0-S ,  1-C ) :   1.1086 B(  0-S ,  4-C ) :   1.1163 B(  1-C ,  2-C ) :   1.6653
B(  1-C , 32-H ) :   0.9637 B(  2-C ,  3-C ) :   1.1836 B(  2-C ,  6-C ) :   1.0241
B(  3-C ,  4-C ) :   1.6441 B(  3-C ,  5-H ) :   0.9728 B(  4-C , 20-C ) :   1.0731
B(  6-C ,  7-H ) :   0.9458 B(  6-C ,  8-H ) :   0.9425 B(  6-C ,  9-C ) :   1.0500
B(  9-C , 10-H ) :   0.9588 B(  9-C , 11-H ) :   0.9626 B(  9-C , 12-C ) :   1.0759
B( 12-C , 13-H ) :   0.9739 B( 12-C , 14-H ) :   0.9762 B( 12-C , 15-H ) :   0.9763
B( 16-S , 17-C ) :   1.1557 B( 16-S , 20-C ) :   1.1215 B( 17-C , 18-C ) :   1.6391
B( 17-C , 33-H ) :   0.9679 B( 18-C , 19-C ) :   1.2183 B( 18-C , 21-H ) :   0.9915
B( 19-C , 20-C ) :   1.5994 B( 19-C , 22-C ) :   1.0576 B( 22-C , 23-H ) :   0.9298
B( 22-C , 24-H ) :   0.9329 B( 22-C , 25-C ) :   1.0449 B( 25-C , 26-H ) :   0.9635
B( 25-C , 27-H ) :   0.9559 B( 25-C , 28-C ) :   1.0899 B( 28-C , 29-H ) :   0.9706
B( 28-C , 30-H ) :   0.9735 B( 28-C , 31-H ) :   0.9736

Dispersion correction           -0.014489331
FINAL SINGLE POINT ENERGY     -1339.881562933122

DIPOLE MOMENT
-------------
                                X             Y             Z
Electronic contribution:     19.68369     -19.28001      -3.12508
Nuclear contribution   :    -20.24382      19.50393       3.00386
                        -----------------------------------------
Total Dipole Moment    :     -0.56013       0.22391      -0.12122
                        -----------------------------------------
Magnitude (a.u.)       :      0.61529
Magnitude (Debye)      :      1.56395

Rotational constants in cm-1:     0.018458     0.008299     0.007285
Rotational constants in MHz :   553.342225   248.788792   218.412484

                             ****ORCA TERMINATED NORMALLY****
TOTAL RUN TIME: 0 days 0 hours 0 minutes 34 seconds 789 msec
