                         Program Version 4.2.1 -  RELEASE  -
|  1> ! wB97X-D3 SP def2-SVP
|  2> %pal
|  3> nprocs 16
|  4> end
|  5>
|  6> * xyz 0 1
|  7> S 	 -34.9987 	 57.8173 	 113.004
|  8> C 	 -33.3066 	 58.1115 	 113.174
|  9> C 	 -32.606 	 56.9054 	 113.202
| 10> C 	 -33.4941 	 55.8629 	 113.297
| 11> C 	 -34.7786 	 56.1009 	 113.068
| 12> H 	 -33.3027 	 54.7945 	 113.56
| 13> C 	 -31.1319 	 56.7511 	 113.447
| 14> H 	 -30.8537 	 55.7439 	 113.819
| 15> H 	 -30.837 	 57.3423 	 114.329
| 16> C 	 -30.3128 	 57.2367 	 112.158
| 17> H 	 -30.5045 	 58.3296 	 112.005
| 18> H 	 -29.2194 	 57.2539 	 112.43
| 19> C 	 -30.5767 	 56.4831 	 110.917
| 20> H 	 -31.5589 	 56.7929 	 110.541
| 21> H 	 -29.8461 	 56.7934 	 110.172
| 22> H 	 -30.5113 	 55.3724 	 110.99
| 23> S 	 -37.2386 	 55.0328 	 113.972
| 24> C 	 -37.8227 	 53.5396 	 113.308
| 25> C 	 -36.9141 	 53.0748 	 112.384
| 26> C 	 -35.8194 	 53.9491 	 112.12
| 27> C 	 -35.8554 	 55.1134 	 112.85
| 28> H 	 -37.1067 	 52.0959 	 111.92
| 29> C 	 -34.728 	 53.6129 	 111.079
| 30> H 	 -34.5424 	 52.5599 	 111.027
| 31> H 	 -33.8078 	 54.1367 	 111.412
| 32> C 	 -34.9322 	 54.2169 	 109.663
| 33> H 	 -34.3293 	 53.6941 	 108.934
| 34> H 	 -34.4322 	 55.1734 	 109.678
| 35> C 	 -36.3898 	 54.081 	 109.14
| 36> H 	 -36.5292 	 54.6685 	 108.134
| 37> H 	 -37.0875 	 54.5937 	 109.835
| 38> H 	 -36.6647 	 53.0026 	 108.887
| 39> H 	 -32.8898 	 59.0635 	 113.095
| 40> H 	 -38.6147 	 52.8742 	 113.651
| 41> *
| 42>
| 43>                          ****END OF INPUT****

CARTESIAN COORDINATES (ANGSTROEM)
---------------------------------
  S    -34.998700   57.817300  113.004000
  C    -33.306600   58.111500  113.174000
  C    -32.606000   56.905400  113.202000
  C    -33.494100   55.862900  113.297000
  C    -34.778600   56.100900  113.068000
  H    -33.302700   54.794500  113.560000
  C    -31.131900   56.751100  113.447000
  H    -30.853700   55.743900  113.819000
  H    -30.837000   57.342300  114.329000
  C    -30.312800   57.236700  112.158000
  H    -30.504500   58.329600  112.005000
  H    -29.219400   57.253900  112.430000
  C    -30.576700   56.483100  110.917000
  H    -31.558900   56.792900  110.541000
  H    -29.846100   56.793400  110.172000
  H    -30.511300   55.372400  110.990000
  S    -37.238600   55.032800  113.972000
  C    -37.822700   53.539600  113.308000
  C    -36.914100   53.074800  112.384000
  C    -35.819400   53.949100  112.120000
  C    -35.855400   55.113400  112.850000
  H    -37.106700   52.095900  111.920000
  C    -34.728000   53.612900  111.079000
  H    -34.542400   52.559900  111.027000
  H    -33.807800   54.136700  111.412000
  C    -34.932200   54.216900  109.663000
  H    -34.329300   53.694100  108.934000
  H    -34.432200   55.173400  109.678000
  C    -36.389800   54.081000  109.140000
  H    -36.529200   54.668500  108.134000
  H    -37.087500   54.593700  109.835000
  H    -36.664700   53.002600  108.887000
  H    -32.889800   59.063500  113.095000
  H    -38.614700   52.874200  113.651000

 Total Charge           Charge          ....    0
 Multiplicity           Mult            ....    1
 Number of Electrons    NEL             ....  134
 Basis Dimension        Dim             ....  322

ORBITAL ENERGIES
----------------

  NO   OCC          E(Eh)            E(eV)
   0   2.0000     -88.964830     -2420.8561
   1   2.0000     -88.964809     -2420.8555
   2   2.0000     -10.329305      -281.0747
   3   2.0000     -10.321524      -280.8629
   4   2.0000     -10.318654      -280.7848
   5   2.0000     -10.311693      -280.5954
   6   2.0000     -10.304939      -280.4116
   7   2.0000     -10.298035      -280.2238
   8   2.0000     -10.297380      -280.2060
   9   2.0000     -10.295398      -280.1520
  10   2.0000     -10.293449      -280.0990
  11   2.0000     -10.289288      -279.9858
  12   2.0000     -10.288382      -279.9611
  13   2.0000     -10.284500      -279.8555
  14   2.0000     -10.282373      -279.7976
  15   2.0000     -10.278330      -279.6876
  16   2.0000      -8.080463      -219.8806
  17   2.0000      -8.079288      -219.8486
  18   2.0000      -6.038714      -164.3218
  19   2.0000      -6.037834      -164.2978
  20   2.0000      -6.034765      -164.2143
  21   2.0000      -6.033749      -164.1867
  22   2.0000      -6.031507      -164.1257
  23   2.0000      -6.030086      -164.0870
  24   2.0000      -1.016157       -27.6510
  25   2.0000      -0.990692       -26.9581
  26   2.0000      -0.910182       -24.7673
  27   2.0000      -0.901148       -24.5215
  28   2.0000      -0.870856       -23.6972
  29   2.0000      -0.855393       -23.2764
  30   2.0000      -0.838285       -22.8109
  31   2.0000      -0.818448       -22.2711
  32   2.0000      -0.781560       -21.2673
  33   2.0000      -0.771305       -20.9883
  34   2.0000      -0.707574       -19.2541
  35   2.0000      -0.698048       -18.9949
  36   2.0000      -0.686027       -18.6677
  37   2.0000      -0.657579       -17.8936
  38   2.0000      -0.649736       -17.6802
  39   2.0000      -0.615289       -16.7429
  40   2.0000      -0.582985       -15.8638
  41   2.0000      -0.576725       -15.6935
  42   2.0000      -0.558586       -15.1999
  43   2.0000      -0.549609       -14.9556
  44   2.0000      -0.544816       -14.8252
  45   2.0000      -0.531875       -14.4731
  46   2.0000      -0.516867       -14.0647
  47   2.0000      -0.512087       -13.9346
  48   2.0000      -0.506423       -13.7805
  49   2.0000      -0.494538       -13.4571
  50   2.0000      -0.485404       -13.2085
  51   2.0000      -0.480174       -13.0662
  52   2.0000      -0.473674       -12.8893
  53   2.0000      -0.467928       -12.7330
  54   2.0000      -0.462922       -12.5967
  55   2.0000      -0.442201       -12.0329
  56   2.0000      -0.433596       -11.7987
  57   2.0000      -0.430344       -11.7103
  58   2.0000      -0.424016       -11.5381
  59   2.0000      -0.423075       -11.5125
  60   2.0000      -0.418507       -11.3881
  61   2.0000      -0.413184       -11.2433
  62   2.0000      -0.406889       -11.0720
  63   2.0000      -0.346973        -9.4416
  64   2.0000      -0.333381        -9.0718
  65   2.0000      -0.330152        -8.9839
  66   2.0000      -0.297287        -8.0896
  67   0.0000       0.030780         0.8376
  68   0.0000       0.064625         1.7585
  69   0.0000       0.116429         3.1682
  70   0.0000       0.123726         3.3667
  71   0.0000       0.131995         3.5918

MULLIKEN ATOMIC CHARGES
-----------------------
   0 S :    0.115031
   1 C :   -0.096511
   2 C :   -0.068602
   3 C :    0.000472
   4 C :   -0.173528
   5 H :    0.032125
   6 C :    0.047935
   7 H :    0.025265
   8 H :    0.036918
   9 C :   -0.116435
  10 H :    0.032154
  11 H :    0.030984
  12 C :   -0.035240
  13 H :    0.043046
  14 H :    0.033150
  15 H :    0.040929
  16 S :    0.097392
  17 C :   -0.082415
  18 C :   -0.058707
  19 C :   -0.068277
  20 C :   -0.120929
  21 H :    0.025207
  22 C :    0.090267
  23 H :    0.020532
  24 H :    0.018285
  25 C :   -0.054356
  26 H :    0.018731
  27 H :    0.031620
  28 C :   -0.110595
  29 H :    0.041193
  30 H :    0.062615
  31 H :    0.046638
  32 H :    0.030798
  33 H :    0.064306
Sum of atomic charges:   -0.0000000

LOEWDIN ATOMIC CHARGES
----------------------
   0 S :    0.427805
   1 C :   -0.185594
   2 C :   -0.071921
   3 C :   -0.073024
   4 C :   -0.206783
   5 H :    0.041588
   6 C :   -0.033234
   7 H :    0.030817
   8 H :    0.035309
   9 C :   -0.047695
  10 H :    0.027245
  11 H :    0.023984
  12 C :   -0.071673
  13 H :    0.029036
  14 H :    0.030039
  15 H :    0.029519
  16 S :    0.398504
  17 C :   -0.191121
  18 C :   -0.077990
  19 C :   -0.054725
  20 C :   -0.192634
  21 H :    0.034106
  22 C :   -0.030093
  23 H :    0.023536
  24 H :    0.033921
  25 C :   -0.043840
  26 H :    0.023076
  27 H :    0.024517
  28 C :   -0.082128
  29 H :    0.034294
  30 H :    0.029267
  31 H :    0.031926
  32 H :    0.014765
  33 H :    0.039202

  Mayer bond orders larger than 0.100000
B(  0-S ,  1-C ) :   1.1757 B(  0-S ,  4-C ) :   1.1554 B(  1-C ,  2-C ) :   1.5504
B(  1-C ,  4-C ) :   0.1074 B(  1-C , 32-H ) :   0.9788 B(  2-C ,  3-C ) :   1.2659
B(  2-C ,  6-C ) :   1.0136 B(  3-C ,  4-C ) :   1.6008 B(  3-C ,  5-H ) :   0.9776
B(  4-C , 20-C ) :   0.9960 B(  6-C ,  7-H ) :   0.9537 B(  6-C ,  8-H ) :   0.9458
B(  6-C ,  9-C ) :   1.0531 B(  9-C , 10-H ) :   0.9567 B(  9-C , 11-H ) :   0.9588
B(  9-C , 12-C ) :   1.0814 B( 12-C , 13-H ) :   0.9684 B( 12-C , 14-H ) :   0.9676
B( 12-C , 15-H ) :   0.9742 B( 16-S , 17-C ) :   1.1580 B( 16-S , 20-C ) :   1.1351
B( 17-C , 18-C ) :   1.6129 B( 17-C , 33-H ) :   0.9637 B( 18-C , 19-C ) :   1.2438
B( 18-C , 21-H ) :   0.9871 B( 19-C , 20-C ) :   1.6009 B( 19-C , 22-C ) :   1.0401
B( 22-C , 23-H ) :   0.9381 B( 22-C , 24-H ) :   0.9320 B( 22-C , 25-C ) :   1.0691
B( 25-C , 26-H ) :   0.9540 B( 25-C , 27-H ) :   0.9626 B( 25-C , 28-C ) :   1.0713
B( 28-C , 29-H ) :   0.9734 B( 28-C , 30-H ) :   0.9698 B( 28-C , 31-H ) :   0.9735

Dispersion correction           -0.015628737
FINAL SINGLE POINT ENERGY     -1339.870976694738

DIPOLE MOMENT
-------------
                                X             Y             Z
Electronic contribution:    -18.95551       6.18655      17.82709
Nuclear contribution   :     19.55522      -6.56083     -18.03730
                        -----------------------------------------
Total Dipole Moment    :      0.59970      -0.37429      -0.21020
                        -----------------------------------------
Magnitude (a.u.)       :      0.73751
Magnitude (Debye)      :      1.87460

Rotational constants in cm-1:     0.020340     0.009293     0.007439
Rotational constants in MHz :   609.765743   278.587875   223.009385

                             ****ORCA TERMINATED NORMALLY****
TOTAL RUN TIME: 0 days 0 hours 0 minutes 31 seconds 764 msec
