                         Program Version 4.2.1 -  RELEASE  -
|  1> ! wB97X-D3 SP def2-SVP
|  2> %pal
|  3> nprocs 16
|  4> end
|  5>
|  6> * xyz 0 1
|  7> S 	 -40.6013 	 26.2356 	 77.1912
|  8> C 	 -40.4447 	 27.6281 	 78.2747
|  9> C 	 -40.6722 	 27.2847 	 79.5817
| 10> C 	 -41.0484 	 25.9091 	 79.6529
| 11> C 	 -41.0647 	 25.1483 	 78.479
| 12> H 	 -41.3562 	 25.4436 	 80.5666
| 13> C 	 -40.8641 	 28.1624 	 80.8065
| 14> H 	 -40.2103 	 29.01 	 80.5237
| 15> H 	 -40.5053 	 27.605 	 81.6677
| 16> C 	 -42.3429 	 28.4388 	 81.1897
| 17> H 	 -42.6869 	 29.0907 	 80.3253
| 18> H 	 -42.9653 	 27.5424 	 81.2229
| 19> C 	 -42.5126 	 29.2507 	 82.4647
| 20> H 	 -42.0071 	 30.2034 	 82.4132
| 21> H 	 -43.5465 	 29.5192 	 82.6259
| 22> H 	 -42.116 	 28.6849 	 83.3295
| 23> S 	 -42.6747 	 23.4387 	 77.0901
| 24> C 	 -42.4017 	 21.7183 	 77.2158
| 25> C 	 -41.4987 	 21.4501 	 78.212
| 26> C 	 -40.918 	 22.6054 	 78.7943
| 27> C 	 -41.3727 	 23.7468 	 78.1788
| 28> H 	 -41.306 	 20.3954 	 78.4589
| 29> C 	 -39.776 	 22.6036 	 79.8203
| 30> H 	 -39.7943 	 21.6272 	 80.3
| 31> H 	 -39.914 	 23.3035 	 80.5983
| 32> C 	 -38.4102 	 22.8937 	 79.1191
| 33> H 	 -38.4 	 23.8721 	 78.6862
| 34> H 	 -38.4304 	 22.2684 	 78.2127
| 35> C 	 -37.1636 	 22.5433 	 79.9825
| 36> H 	 -37.0936 	 23.0177 	 81.0085
| 37> H 	 -36.2349 	 22.6885 	 79.4447
| 38> H 	 -37.1384 	 21.4875 	 80.0648
| 39> H 	 -40.1756 	 28.6403 	 77.893
| 40> H 	 -43.1047 	 21.0486 	 76.7133
| 41> *
| 42>
| 43>                          ****END OF INPUT****

CARTESIAN COORDINATES (ANGSTROEM)
---------------------------------
  S    -40.601300   26.235600   77.191200
  C    -40.444700   27.628100   78.274700
  C    -40.672200   27.284700   79.581700
  C    -41.048400   25.909100   79.652900
  C    -41.064700   25.148300   78.479000
  H    -41.356200   25.443600   80.566600
  C    -40.864100   28.162400   80.806500
  H    -40.210300   29.010000   80.523700
  H    -40.505300   27.605000   81.667700
  C    -42.342900   28.438800   81.189700
  H    -42.686900   29.090700   80.325300
  H    -42.965300   27.542400   81.222900
  C    -42.512600   29.250700   82.464700
  H    -42.007100   30.203400   82.413200
  H    -43.546500   29.519200   82.625900
  H    -42.116000   28.684900   83.329500
  S    -42.674700   23.438700   77.090100
  C    -42.401700   21.718300   77.215800
  C    -41.498700   21.450100   78.212000
  C    -40.918000   22.605400   78.794300
  C    -41.372700   23.746800   78.178800
  H    -41.306000   20.395400   78.458900
  C    -39.776000   22.603600   79.820300
  H    -39.794300   21.627200   80.300000
  H    -39.914000   23.303500   80.598300
  C    -38.410200   22.893700   79.119100
  H    -38.400000   23.872100   78.686200
  H    -38.430400   22.268400   78.212700
  C    -37.163600   22.543300   79.982500
  H    -37.093600   23.017700   81.008500
  H    -36.234900   22.688500   79.444700
  H    -37.138400   21.487500   80.064800
  H    -40.175600   28.640300   77.893000
  H    -43.104700   21.048600   76.713300

 Total Charge           Charge          ....    0
 Multiplicity           Mult            ....    1
 Number of Electrons    NEL             ....  134
 Basis Dimension        Dim             ....  322

ORBITAL ENERGIES
----------------

  NO   OCC          E(Eh)            E(eV)
   0   2.0000     -88.964163     -2420.8379
   1   2.0000     -88.962571     -2420.7946
   2   2.0000     -10.330275      -281.1011
   3   2.0000     -10.323682      -280.9217
   4   2.0000     -10.319097      -280.7969
   5   2.0000     -10.317707      -280.7591
   6   2.0000     -10.302816      -280.3539
   7   2.0000     -10.299671      -280.2683
   8   2.0000     -10.297200      -280.2011
   9   2.0000     -10.297030      -280.1964
  10   2.0000     -10.293526      -280.1011
  11   2.0000     -10.290919      -280.0302
  12   2.0000     -10.289418      -279.9893
  13   2.0000     -10.283524      -279.8289
  14   2.0000     -10.278811      -279.7007
  15   2.0000     -10.277530      -279.6658
  16   2.0000      -8.079775      -219.8619
  17   2.0000      -8.077078      -219.7885
  18   2.0000      -6.038101      -164.3051
  19   2.0000      -6.035655      -164.2385
  20   2.0000      -6.034201      -164.1990
  21   2.0000      -6.031475      -164.1248
  22   2.0000      -6.030619      -164.1015
  23   2.0000      -6.027913      -164.0278
  24   2.0000      -1.010024       -27.4842
  25   2.0000      -0.985856       -26.8265
  26   2.0000      -0.911718       -24.8091
  27   2.0000      -0.902916       -24.5696
  28   2.0000      -0.870727       -23.6937
  29   2.0000      -0.847712       -23.0674
  30   2.0000      -0.844232       -22.9727
  31   2.0000      -0.812198       -22.1010
  32   2.0000      -0.783490       -21.3199
  33   2.0000      -0.773807       -21.0564
  34   2.0000      -0.707055       -19.2399
  35   2.0000      -0.698017       -18.9940
  36   2.0000      -0.692469       -18.8430
  37   2.0000      -0.663423       -18.0527
  38   2.0000      -0.638213       -17.3667
  39   2.0000      -0.620609       -16.8876
  40   2.0000      -0.598395       -16.2832
  41   2.0000      -0.574240       -15.6259
  42   2.0000      -0.560640       -15.2558
  43   2.0000      -0.552922       -15.0458
  44   2.0000      -0.526242       -14.3198
  45   2.0000      -0.520838       -14.1727
  46   2.0000      -0.516548       -14.0560
  47   2.0000      -0.508349       -13.8329
  48   2.0000      -0.507582       -13.8120
  49   2.0000      -0.497649       -13.5417
  50   2.0000      -0.493732       -13.4351
  51   2.0000      -0.477770       -13.0008
  52   2.0000      -0.473613       -12.8877
  53   2.0000      -0.463573       -12.6145
  54   2.0000      -0.459394       -12.5008
  55   2.0000      -0.446495       -12.1498
  56   2.0000      -0.444462       -12.0944
  57   2.0000      -0.437213       -11.8972
  58   2.0000      -0.431887       -11.7522
  59   2.0000      -0.425231       -11.5711
  60   2.0000      -0.418568       -11.3898
  61   2.0000      -0.415656       -11.3106
  62   2.0000      -0.412369       -11.2211
  63   2.0000      -0.344561        -9.3760
  64   2.0000      -0.333220        -9.0674
  65   2.0000      -0.326724        -8.8906
  66   2.0000      -0.296981        -8.0813
  67   0.0000       0.031766         0.8644
  68   0.0000       0.070389         1.9154
  69   0.0000       0.114847         3.1251
  70   0.0000       0.119585         3.2541
  71   0.0000       0.132805         3.6138

MULLIKEN ATOMIC CHARGES
-----------------------
   0 S :    0.095815
   1 C :   -0.154679
   2 C :   -0.063284
   3 C :    0.026242
   4 C :   -0.165629
   5 H :   -0.003504
   6 C :    0.063257
   7 H :    0.036349
   8 H :    0.019059
   9 C :   -0.096833
  10 H :    0.033012
  11 H :    0.042779
  12 C :   -0.028344
  13 H :    0.025549
  14 H :    0.035302
  15 H :    0.033249
  16 S :    0.114168
  17 C :   -0.102000
  18 C :   -0.050286
  19 C :   -0.030355
  20 C :   -0.164190
  21 H :    0.027557
  22 C :    0.118308
  23 H :    0.010954
  24 H :    0.010311
  25 C :   -0.076692
  26 H :    0.035082
  27 H :    0.024125
  28 C :   -0.035158
  29 H :    0.047956
  30 H :    0.027766
  31 H :    0.015411
  32 H :    0.062449
  33 H :    0.066252
Sum of atomic charges:   -0.0000000

LOEWDIN ATOMIC CHARGES
----------------------
   0 S :    0.396393
   1 C :   -0.194522
   2 C :   -0.071488
   3 C :   -0.063185
   4 C :   -0.196355
   5 H :    0.020831
   6 C :   -0.031485
   7 H :    0.036198
   8 H :    0.027936
   9 C :   -0.042256
  10 H :    0.030646
  11 H :    0.027320
  12 C :   -0.066086
  13 H :    0.024484
  14 H :    0.027713
  15 H :    0.026216
  16 S :    0.420925
  17 C :   -0.186412
  18 C :   -0.073512
  19 C :   -0.054064
  20 C :   -0.211989
  21 H :    0.036809
  22 C :   -0.021250
  23 H :    0.027838
  24 H :    0.020543
  25 C :   -0.035191
  26 H :    0.021457
  27 H :    0.027073
  28 C :   -0.071047
  29 H :    0.032925
  30 H :    0.027527
  31 H :    0.020056
  32 H :    0.034864
  33 H :    0.031087

  Mayer bond orders larger than 0.100000
B(  0-S ,  1-C ) :   1.1436 B(  0-S ,  4-C ) :   1.1475 B(  1-C ,  2-C ) :   1.6011
B(  1-C ,  4-C ) :   0.1014 B(  1-C , 32-H ) :   0.9637 B(  2-C ,  3-C ) :   1.2404
B(  2-C ,  6-C ) :   1.0297 B(  3-C ,  4-C ) :   1.5841 B(  3-C ,  5-H ) :   0.9954
B(  4-C , 20-C ) :   1.0137 B(  6-C ,  7-H ) :   0.9432 B(  6-C ,  8-H ) :   0.9328
B(  6-C ,  9-C ) :   1.0548 B(  9-C , 10-H ) :   0.9534 B(  9-C , 11-H ) :   0.9561
B(  9-C , 12-C ) :   1.0900 B( 12-C , 13-H ) :   0.9727 B( 12-C , 14-H ) :   0.9724
B( 12-C , 15-H ) :   0.9729 B( 16-S , 17-C ) :   1.1576 B( 16-S , 20-C ) :   1.1727
B( 17-C , 18-C ) :   1.5926 B( 17-C , 20-C ) :   0.1028 B( 17-C , 33-H ) :   0.9685
B( 18-C , 19-C ) :   1.2467 B( 18-C , 21-H ) :   0.9901 B( 19-C , 20-C ) :   1.5763
B( 19-C , 22-C ) :   1.0540 B( 22-C , 23-H ) :   0.9337 B( 22-C , 24-H ) :   0.9267
B( 22-C , 25-C ) :   1.0549 B( 25-C , 26-H ) :   0.9582 B( 25-C , 27-H ) :   0.9543
B( 25-C , 28-C ) :   1.0772 B( 28-C , 29-H ) :   0.9761 B( 28-C , 30-H ) :   0.9721
B( 28-C , 31-H ) :   0.9732

Dispersion correction           -0.014235053
FINAL SINGLE POINT ENERGY     -1339.886927220967

DIPOLE MOMENT
-------------
                                X             Y             Z
Electronic contribution:     -9.52055      -6.00439     -22.08447
Nuclear contribution   :      9.54073       5.95145      22.65837
                        -----------------------------------------
Total Dipole Moment    :      0.02018      -0.05295       0.57389
                        -----------------------------------------
Magnitude (a.u.)       :      0.57668
Magnitude (Debye)      :      1.46581

Rotational constants in cm-1:     0.017964     0.008130     0.007032
Rotational constants in MHz :   538.554958   243.716450   210.826185

                             ****ORCA TERMINATED NORMALLY****
TOTAL RUN TIME: 0 days 0 hours 0 minutes 30 seconds 25 msec
