                         Program Version 4.2.1 -  RELEASE  -
|  1> ! wB97X-D3 SP def2-SVP
|  2> %pal
|  3> nprocs 16
|  4> end
|  5>
|  6> * xyz 0 1
|  7> S 	 -66.2453 	 53.9758 	 131.693
|  8> C 	 -66.2899 	 55.3926 	 132.751
|  9> C 	 -67.3169 	 55.2248 	 133.725
| 10> C 	 -67.9722 	 53.9598 	 133.512
| 11> C 	 -67.5366 	 53.162 	 132.505
| 12> H 	 -68.7576 	 53.6218 	 134.117
| 13> C 	 -67.5578 	 56.1192 	 134.938
| 14> H 	 -66.5615 	 56.3568 	 135.13
| 15> H 	 -67.8894 	 55.4959 	 135.738
| 16> C 	 -68.3446 	 57.4062 	 134.907
| 17> H 	 -67.7146 	 58.1646 	 134.454
| 18> H 	 -69.3309 	 57.2295 	 134.387
| 19> C 	 -68.8736 	 57.8087 	 136.295
| 20> H 	 -69.0655 	 58.8564 	 136.376
| 21> H 	 -69.7828 	 57.227 	 136.638
| 22> H 	 -68.1251 	 57.7361 	 137.077
| 23> S 	 -66.7496 	 50.6098 	 131.912
| 24> C 	 -68.0465 	 49.4913 	 131.33
| 25> C 	 -69.3089 	 49.9704 	 131.693
| 26> C 	 -69.3141 	 51.3304 	 132.174
| 27> C 	 -68.0108 	 51.8176 	 132.174
| 28> H 	 -70.2065 	 49.425 	 131.577
| 29> C 	 -70.6468 	 52.1628 	 132.207
| 30> H 	 -70.9512 	 52.017 	 131.152
| 31> H 	 -70.5853 	 53.2314 	 132.304
| 32> C 	 -71.7643 	 51.7649 	 133.171
| 33> H 	 -71.343 	 51.4017 	 134.124
| 34> H 	 -72.4304 	 51.0248 	 132.884
| 35> C 	 -72.7421 	 52.9796 	 133.427
| 36> H 	 -73.3841 	 52.5422 	 134.226
| 37> H 	 -73.4387 	 53.2892 	 132.613
| 38> H 	 -72.2613 	 53.8479 	 133.812
| 39> H 	 -65.6763 	 56.2244 	 132.642
| 40> H 	 -67.8374 	 48.4908 	 130.905
| 41> *
| 42>
| 43>                          ****END OF INPUT****

CARTESIAN COORDINATES (ANGSTROEM)
---------------------------------
  S    -66.245300   53.975800  131.693000
  C    -66.289900   55.392600  132.751000
  C    -67.316900   55.224800  133.725000
  C    -67.972200   53.959800  133.512000
  C    -67.536600   53.162000  132.505000
  H    -68.757600   53.621800  134.117000
  C    -67.557800   56.119200  134.938000
  H    -66.561500   56.356800  135.130000
  H    -67.889400   55.495900  135.738000
  C    -68.344600   57.406200  134.907000
  H    -67.714600   58.164600  134.454000
  H    -69.330900   57.229500  134.387000
  C    -68.873600   57.808700  136.295000
  H    -69.065500   58.856400  136.376000
  H    -69.782800   57.227000  136.638000
  H    -68.125100   57.736100  137.077000
  S    -66.749600   50.609800  131.912000
  C    -68.046500   49.491300  131.330000
  C    -69.308900   49.970400  131.693000
  C    -69.314100   51.330400  132.174000
  C    -68.010800   51.817600  132.174000
  H    -70.206500   49.425000  131.577000
  C    -70.646800   52.162800  132.207000
  H    -70.951200   52.017000  131.152000
  H    -70.585300   53.231400  132.304000
  C    -71.764300   51.764900  133.171000
  H    -71.343000   51.401700  134.124000
  H    -72.430400   51.024800  132.884000
  C    -72.742100   52.979600  133.427000
  H    -73.384100   52.542200  134.226000
  H    -73.438700   53.289200  132.613000
  H    -72.261300   53.847900  133.812000
  H    -65.676300   56.224400  132.642000
  H    -67.837400   48.490800  130.905000

 Total Charge           Charge          ....    0
 Multiplicity           Mult            ....    1
 Number of Electrons    NEL             ....  134
 Basis Dimension        Dim             ....  322

ORBITAL ENERGIES
----------------

  NO   OCC          E(Eh)            E(eV)
   0   2.0000     -88.967380     -2420.9255
   1   2.0000     -88.963878     -2420.8302
   2   2.0000     -10.330105      -281.0964
   3   2.0000     -10.326114      -280.9878
   4   2.0000     -10.322292      -280.8839
   5   2.0000     -10.314860      -280.6816
   6   2.0000     -10.309718      -280.5417
   7   2.0000     -10.306301      -280.4487
   8   2.0000     -10.298003      -280.2229
   9   2.0000     -10.297441      -280.2076
  10   2.0000     -10.291669      -280.0506
  11   2.0000     -10.289055      -279.9794
  12   2.0000     -10.284859      -279.8652
  13   2.0000     -10.283606      -279.8312
  14   2.0000     -10.283581      -279.8305
  15   2.0000     -10.281274      -279.7677
  16   2.0000      -8.081075      -219.8972
  17   2.0000      -8.078462      -219.8261
  18   2.0000      -6.039663      -164.3476
  19   2.0000      -6.037002      -164.2752
  20   2.0000      -6.036049      -164.2492
  21   2.0000      -6.032778      -164.1602
  22   2.0000      -6.031482      -164.1250
  23   2.0000      -6.029400      -164.0683
  24   2.0000      -1.002387       -27.2763
  25   2.0000      -0.976392       -26.5690
  26   2.0000      -0.914777       -24.8923
  27   2.0000      -0.905107       -24.6292
  28   2.0000      -0.866424       -23.5766
  29   2.0000      -0.850868       -23.1533
  30   2.0000      -0.844274       -22.9739
  31   2.0000      -0.812475       -22.1086
  32   2.0000      -0.783187       -21.3116
  33   2.0000      -0.772575       -21.0228
  34   2.0000      -0.707142       -19.2423
  35   2.0000      -0.703884       -19.1537
  36   2.0000      -0.695376       -18.9221
  37   2.0000      -0.662597       -18.0302
  38   2.0000      -0.644689       -17.5429
  39   2.0000      -0.618958       -16.8427
  40   2.0000      -0.597838       -16.2680
  41   2.0000      -0.578399       -15.7390
  42   2.0000      -0.567083       -15.4311
  43   2.0000      -0.560177       -15.2432
  44   2.0000      -0.528207       -14.3733
  45   2.0000      -0.522352       -14.2139
  46   2.0000      -0.516432       -14.0528
  47   2.0000      -0.510303       -13.8861
  48   2.0000      -0.498338       -13.5605
  49   2.0000      -0.495708       -13.4889
  50   2.0000      -0.491627       -13.3778
  51   2.0000      -0.482965       -13.1421
  52   2.0000      -0.468975       -12.7614
  53   2.0000      -0.465103       -12.6561
  54   2.0000      -0.457897       -12.4600
  55   2.0000      -0.451226       -12.2785
  56   2.0000      -0.447152       -12.1676
  57   2.0000      -0.440352       -11.9826
  58   2.0000      -0.433382       -11.7929
  59   2.0000      -0.424694       -11.5565
  60   2.0000      -0.419197       -11.4069
  61   2.0000      -0.415960       -11.3189
  62   2.0000      -0.410404       -11.1677
  63   2.0000      -0.345944        -9.4136
  64   2.0000      -0.331227        -9.0132
  65   2.0000      -0.326144        -8.8748
  66   2.0000      -0.288472        -7.8497
  67   0.0000       0.024942         0.6787
  68   0.0000       0.072603         1.9756
  69   0.0000       0.097152         2.6436
  70   0.0000       0.121154         3.2968
  71   0.0000       0.129873         3.5340

MULLIKEN ATOMIC CHARGES
-----------------------
   0 S :    0.107257
   1 C :   -0.109018
   2 C :   -0.093144
   3 C :    0.031229
   4 C :   -0.133719
   5 H :   -0.020652
   6 C :    0.091200
   7 H :    0.011347
   8 H :    0.014102
   9 C :   -0.046207
  10 H :    0.032588
  11 H :    0.041302
  12 C :   -0.069183
  13 H :    0.024898
  14 H :    0.048086
  15 H :    0.015902
  16 S :    0.101637
  17 C :   -0.106764
  18 C :   -0.010084
  19 C :   -0.002954
  20 C :   -0.158301
  21 H :    0.007951
  22 C :    0.040005
  23 H :    0.045212
  24 H :    0.025297
  25 C :   -0.060388
  26 H :    0.035812
  27 H :    0.017991
  28 C :   -0.098337
  29 H :    0.035474
  30 H :    0.050119
  31 H :    0.033497
  32 H :    0.026753
  33 H :    0.071096
Sum of atomic charges:   -0.0000000

LOEWDIN ATOMIC CHARGES
----------------------
   0 S :    0.409798
   1 C :   -0.186502
   2 C :   -0.051396
   3 C :   -0.064638
   4 C :   -0.207257
   5 H :    0.018386
   6 C :   -0.034478
   7 H :    0.029136
   8 H :    0.028975
   9 C :   -0.040032
  10 H :    0.025326
  11 H :    0.034536
  12 C :   -0.071846
  13 H :    0.024444
  14 H :    0.033948
  15 H :    0.019196
  16 S :    0.372912
  17 C :   -0.172227
  18 C :   -0.056865
  19 C :   -0.056032
  20 C :   -0.182321
  21 H :    0.024478
  22 C :   -0.033173
  23 H :    0.041740
  24 H :    0.028378
  25 C :   -0.037130
  26 H :    0.028929
  27 H :    0.014852
  28 C :   -0.068598
  29 H :    0.032837
  30 H :    0.031017
  31 H :    0.015880
  32 H :    0.013468
  33 H :    0.034262

  Mayer bond orders larger than 0.100000
B(  0-S ,  1-C ) :   1.1511 B(  0-S ,  4-C ) :   1.1489 B(  1-C ,  2-C ) :   1.5676
B(  1-C , 32-H ) :   0.9824 B(  2-C ,  3-C ) :   1.2630 B(  2-C ,  6-C ) :   1.0043
B(  3-C ,  4-C ) :   1.5640 B(  3-C ,  5-H ) :   1.0041 B(  4-C , 20-C ) :   1.0368
B(  6-C ,  7-H ) :   0.9285 B(  6-C ,  8-H ) :   0.9463 B(  6-C ,  9-C ) :   1.0680
B(  9-C , 10-H ) :   0.9545 B(  9-C , 11-H ) :   0.9605 B(  9-C , 12-C ) :   1.0763
B( 12-C , 13-H ) :   0.9720 B( 12-C , 14-H ) :   0.9767 B( 12-C , 15-H ) :   0.9730
B( 16-S , 17-C ) :   1.1157 B( 16-S , 20-C ) :   1.1398 B( 17-C , 18-C ) :   1.6339
B( 17-C , 33-H ) :   0.9682 B( 18-C , 19-C ) :   1.2126 B( 18-C , 21-H ) :   0.9903
B( 19-C , 20-C ) :   1.6185 B( 19-C , 22-C ) :   1.0198 B( 22-C , 23-H ) :   0.9392
B( 22-C , 24-H ) :   0.9546 B( 22-C , 25-C ) :   1.0439 B( 25-C , 26-H ) :   0.9621
B( 25-C , 27-H ) :   0.9540 B( 25-C , 28-C ) :   1.0818 B( 28-C , 29-H ) :   0.9765
B( 28-C , 30-H ) :   0.9774 B( 28-C , 31-H ) :   0.9768

Dispersion correction           -0.013315157
FINAL SINGLE POINT ENERGY     -1339.847726765586

DIPOLE MOMENT
-------------
                                X             Y             Z
Electronic contribution:     23.74071     -16.85812     -16.64389
Nuclear contribution   :    -24.37808      17.07713      17.02488
                        -----------------------------------------
Total Dipole Moment    :     -0.63737       0.21900       0.38099
                        -----------------------------------------
Magnitude (a.u.)       :      0.77418
Magnitude (Debye)      :      1.96781

Rotational constants in cm-1:     0.016521     0.008749     0.006075
Rotational constants in MHz :   495.292557   262.303247   182.124190

                             ****ORCA TERMINATED NORMALLY****
TOTAL RUN TIME: 0 days 0 hours 0 minutes 31 seconds 356 msec
