                         Program Version 4.2.1 -  RELEASE  -
|  1> ! wB97X-D3 SP def2-SVP
|  2> %pal
|  3> nprocs 16
|  4> end
|  5>
|  6> * xyz 0 1
|  7> S 	 -35.1664 	 47.7233 	 96.0152
|  8> C 	 -33.6693 	 46.8257 	 96.2716
|  9> C 	 -32.6904 	 47.2653 	 95.3705
| 10> C 	 -33.115 	 48.4129 	 94.5599
| 11> C 	 -34.4137 	 48.7651 	 94.7904
| 12> H 	 -32.348 	 48.8977 	 93.971
| 13> C 	 -31.1988 	 46.8026 	 95.3316
| 14> H 	 -30.8597 	 47.2551 	 94.4277
| 15> H 	 -31.273 	 45.688 	 95.1891
| 16> C 	 -30.5558 	 47.0903 	 96.6181
| 17> H 	 -31.0124 	 46.5325 	 97.4236
| 18> H 	 -29.4283 	 46.8536 	 96.5194
| 19> C 	 -30.5365 	 48.5435 	 97.0283
| 20> H 	 -29.9768 	 48.6313 	 97.953
| 21> H 	 -30.0257 	 49.1441 	 96.3123
| 22> H 	 -31.4939 	 48.9063 	 97.2209
| 23> S 	 -36.6887 	 49.4253 	 93.4268
| 24> C 	 -36.9997 	 51.0836 	 93.0188
| 25> C 	 -35.9955 	 51.9366 	 93.4135
| 26> C 	 -34.9551 	 51.1874 	 94.009
| 27> C 	 -35.1658 	 49.7844 	 94.1669
| 28> H 	 -36.1789 	 52.9889 	 93.3565
| 29> C 	 -33.7994 	 51.8706 	 94.6467
| 30> H 	 -33.6009 	 52.7863 	 94.0402
| 31> H 	 -32.8504 	 51.3398 	 94.2791
| 32> C 	 -33.7965 	 52.1262 	 96.1902
| 33> H 	 -33.727 	 51.1551 	 96.6216
| 34> H 	 -34.8009 	 52.4479 	 96.4219
| 35> C 	 -32.6422 	 53.0468 	 96.6786
| 36> H 	 -32.5696 	 52.8767 	 97.7521
| 37> H 	 -32.9502 	 54.0805 	 96.559
| 38> H 	 -31.7049 	 52.8302 	 96.2241
| 39> H 	 -33.5455 	 45.9733 	 96.9514
| 40> H 	 -37.8459 	 51.4364 	 92.4083
| 41> *
| 42>
| 43>                          ****END OF INPUT****

CARTESIAN COORDINATES (ANGSTROEM)
---------------------------------
  S    -35.166400   47.723300   96.015200
  C    -33.669300   46.825700   96.271600
  C    -32.690400   47.265300   95.370500
  C    -33.115000   48.412900   94.559900
  C    -34.413700   48.765100   94.790400
  H    -32.348000   48.897700   93.971000
  C    -31.198800   46.802600   95.331600
  H    -30.859700   47.255100   94.427700
  H    -31.273000   45.688000   95.189100
  C    -30.555800   47.090300   96.618100
  H    -31.012400   46.532500   97.423600
  H    -29.428300   46.853600   96.519400
  C    -30.536500   48.543500   97.028300
  H    -29.976800   48.631300   97.953000
  H    -30.025700   49.144100   96.312300
  H    -31.493900   48.906300   97.220900
  S    -36.688700   49.425300   93.426800
  C    -36.999700   51.083600   93.018800
  C    -35.995500   51.936600   93.413500
  C    -34.955100   51.187400   94.009000
  C    -35.165800   49.784400   94.166900
  H    -36.178900   52.988900   93.356500
  C    -33.799400   51.870600   94.646700
  H    -33.600900   52.786300   94.040200
  H    -32.850400   51.339800   94.279100
  C    -33.796500   52.126200   96.190200
  H    -33.727000   51.155100   96.621600
  H    -34.800900   52.447900   96.421900
  C    -32.642200   53.046800   96.678600
  H    -32.569600   52.876700   97.752100
  H    -32.950200   54.080500   96.559000
  H    -31.704900   52.830200   96.224100
  H    -33.545500   45.973300   96.951400
  H    -37.845900   51.436400   92.408300

 Total Charge           Charge          ....    0
 Multiplicity           Mult            ....    1
 Number of Electrons    NEL             ....  134
 Basis Dimension        Dim             ....  322

ORBITAL ENERGIES
----------------

  NO   OCC          E(Eh)            E(eV)
   0   2.0000     -88.967563     -2420.9305
   1   2.0000     -88.966128     -2420.8914
   2   2.0000     -10.331589      -281.1368
   3   2.0000     -10.323490      -280.9164
   4   2.0000     -10.318654      -280.7848
   5   2.0000     -10.316431      -280.7244
   6   2.0000     -10.303923      -280.3840
   7   2.0000     -10.302443      -280.3437
   8   2.0000     -10.297080      -280.1978
   9   2.0000     -10.293020      -280.0873
  10   2.0000     -10.291488      -280.0456
  11   2.0000     -10.288449      -279.9629
  12   2.0000     -10.287741      -279.9437
  13   2.0000     -10.282561      -279.8027
  14   2.0000     -10.276695      -279.6431
  15   2.0000     -10.264205      -279.3032
  16   2.0000      -8.081559      -219.9104
  17   2.0000      -8.081299      -219.9033
  18   2.0000      -6.040292      -164.3647
  19   2.0000      -6.039642      -164.3470
  20   2.0000      -6.036097      -164.2505
  21   2.0000      -6.035546      -164.2356
  22   2.0000      -6.032409      -164.1502
  23   2.0000      -6.032191      -164.1442
  24   2.0000      -1.008115       -27.4322
  25   2.0000      -0.981382       -26.7047
  26   2.0000      -0.921212       -25.0674
  27   2.0000      -0.900519       -24.5044
  28   2.0000      -0.874346       -23.7922
  29   2.0000      -0.850791       -23.1512
  30   2.0000      -0.843789       -22.9607
  31   2.0000      -0.816619       -22.2213
  32   2.0000      -0.785739       -21.3810
  33   2.0000      -0.765352       -20.8263
  34   2.0000      -0.712690       -19.3933
  35   2.0000      -0.701254       -19.0821
  36   2.0000      -0.691500       -18.8167
  37   2.0000      -0.661363       -17.9966
  38   2.0000      -0.635684       -17.2978
  39   2.0000      -0.617833       -16.8121
  40   2.0000      -0.589690       -16.0463
  41   2.0000      -0.579589       -15.7714
  42   2.0000      -0.559462       -15.2237
  43   2.0000      -0.552974       -15.0472
  44   2.0000      -0.547002       -14.8847
  45   2.0000      -0.524600       -14.2751
  46   2.0000      -0.520618       -14.1667
  47   2.0000      -0.513669       -13.9777
  48   2.0000      -0.507723       -13.8159
  49   2.0000      -0.500244       -13.6123
  50   2.0000      -0.491264       -13.3680
  51   2.0000      -0.474760       -12.9189
  52   2.0000      -0.468413       -12.7462
  53   2.0000      -0.465939       -12.6788
  54   2.0000      -0.457997       -12.4627
  55   2.0000      -0.447713       -12.1829
  56   2.0000      -0.444240       -12.0884
  57   2.0000      -0.440442       -11.9850
  58   2.0000      -0.435082       -11.8392
  59   2.0000      -0.428106       -11.6494
  60   2.0000      -0.418799       -11.3961
  61   2.0000      -0.402073       -10.9410
  62   2.0000      -0.399090       -10.8598
  63   2.0000      -0.350385        -9.5344
  64   2.0000      -0.331859        -9.0303
  65   2.0000      -0.327628        -8.9152
  66   2.0000      -0.288209        -7.8426
  67   0.0000       0.027322         0.7435
  68   0.0000       0.064386         1.7520
  69   0.0000       0.113590         3.0909
  70   0.0000       0.120761         3.2861
  71   0.0000       0.127078         3.4580

MULLIKEN ATOMIC CHARGES
-----------------------
   0 S :    0.110423
   1 C :   -0.138011
   2 C :   -0.166145
   3 C :    0.045305
   4 C :   -0.141811
   5 H :    0.017862
   6 C :    0.109423
   7 H :    0.010503
   8 H :    0.042742
   9 C :   -0.089726
  10 H :    0.030042
  11 H :    0.037916
  12 C :   -0.015045
  13 H :    0.024029
  14 H :    0.016103
  15 H :    0.031534
  16 S :    0.118222
  17 C :   -0.107203
  18 C :   -0.026153
  19 C :   -0.042840
  20 C :   -0.141132
  21 H :    0.021665
  22 C :    0.005173
  23 H :    0.007820
  24 H :    0.014097
  25 C :   -0.021691
  26 H :    0.024801
  27 H :    0.021206
  28 C :   -0.025453
  29 H :    0.033233
  30 H :    0.036296
  31 H :    0.032568
  32 H :    0.059622
  33 H :    0.064624
Sum of atomic charges:    0.0000000

LOEWDIN ATOMIC CHARGES
----------------------
   0 S :    0.391540
   1 C :   -0.206831
   2 C :   -0.056294
   3 C :   -0.060655
   4 C :   -0.185706
   5 H :    0.031122
   6 C :   -0.031343
   7 H :    0.023224
   8 H :    0.041276
   9 C :   -0.045706
  10 H :    0.024521
  11 H :    0.033449
  12 C :   -0.056149
  13 H :    0.027892
  14 H :    0.018909
  15 H :    0.015776
  16 S :    0.429482
  17 C :   -0.190870
  18 C :   -0.072886
  19 C :   -0.057544
  20 C :   -0.215812
  21 H :    0.035760
  22 C :   -0.053380
  23 H :    0.026401
  24 H :    0.030879
  25 C :   -0.030811
  26 H :    0.020670
  27 H :    0.023211
  28 C :   -0.056952
  29 H :    0.030149
  30 H :    0.027220
  31 H :    0.022291
  32 H :    0.032609
  33 H :    0.034556

  Mayer bond orders larger than 0.100000
B(  0-S ,  1-C ) :   1.1218 B(  0-S ,  4-C ) :   1.1322 B(  1-C ,  2-C ) :   1.6227
B(  1-C , 32-H ) :   0.9671 B(  2-C ,  3-C ) :   1.2314 B(  2-C ,  6-C ) :   0.9978
B(  3-C ,  4-C ) :   1.5775 B(  3-C ,  5-H ) :   0.9904 B(  4-C , 20-C ) :   1.0793
B(  6-C ,  7-H ) :   0.9423 B(  6-C ,  8-H ) :   0.9349 B(  6-C ,  9-C ) :   1.0853
B(  9-C , 10-H ) :   0.9503 B(  9-C , 11-H ) :   0.9534 B(  9-C , 12-C ) :   1.0865
B( 12-C , 13-H ) :   0.9691 B( 12-C , 14-H ) :   0.9741 B( 12-C , 15-H ) :   0.9702
B( 16-S , 17-C ) :   1.1831 B( 16-S , 20-C ) :   1.1495 B( 17-C , 18-C ) :   1.5725
B( 17-C , 20-C ) :   0.1056 B( 17-C , 33-H ) :   0.9600 B( 18-C , 19-C ) :   1.2777
B( 18-C , 21-H ) :   0.9993 B( 19-C , 20-C ) :   1.5243 B( 19-C , 22-C ) :   1.0704
B( 22-C , 23-H ) :   0.9311 B( 22-C , 24-H ) :   0.9231 B( 22-C , 25-C ) :   1.0400
B( 25-C , 26-H ) :   0.9548 B( 25-C , 27-H ) :   0.9564 B( 25-C , 28-C ) :   1.0731
B( 28-C , 29-H ) :   0.9751 B( 28-C , 30-H ) :   0.9777 B( 28-C , 31-H ) :   0.9770

Dispersion correction           -0.015490993
FINAL SINGLE POINT ENERGY     -1339.869844623424

DIPOLE MOMENT
-------------
                                X             Y             Z
Electronic contribution:    -25.14704     -10.02339     -11.27007
Nuclear contribution   :     25.66233      10.31771      11.39312
                        -----------------------------------------
Total Dipole Moment    :      0.51529       0.29432       0.12305
                        -----------------------------------------
Magnitude (a.u.)       :      0.60604
Magnitude (Debye)      :      1.54044

Rotational constants in cm-1:     0.018900     0.009916     0.007351
Rotational constants in MHz :   566.603508   297.270158   220.367983

                             ****ORCA TERMINATED NORMALLY****
TOTAL RUN TIME: 0 days 0 hours 0 minutes 33 seconds 459 msec
