                         Program Version 4.2.1 -  RELEASE  -
|  1> ! wB97X-D3 SP def2-SVP
|  2> %pal
|  3> nprocs 16
|  4> end
|  5>
|  6> * xyz 0 1
|  7> S 	 -96.5945 	 38.1301 	 124.406
|  8> C 	 -97.0168 	 38.4214 	 126.096
|  9> C 	 -96.9622 	 39.7519 	 126.393
| 10> C 	 -96.5255 	 40.5466 	 125.28
| 11> C 	 -96.3378 	 39.8538 	 124.102
| 12> H 	 -96.3146 	 41.604 	 125.314
| 13> C 	 -97.2699 	 40.3619 	 127.729
| 14> H 	 -97.3736 	 39.5775 	 128.505
| 15> H 	 -98.2572 	 40.8463 	 127.702
| 16> C 	 -96.1336 	 41.2085 	 128.326
| 17> H 	 -96.209 	 42.1799 	 127.951
| 18> H 	 -96.3443 	 41.4149 	 129.432
| 19> C 	 -94.73 	 40.6495 	 128.28
| 20> H 	 -94.6191 	 39.641 	 128.768
| 21> H 	 -94.2969 	 40.4112 	 127.289
| 22> H 	 -94.0569 	 41.2894 	 128.756
| 23> S 	 -94.2434 	 39.4956 	 122.363
| 24> C 	 -93.826 	 40.8372 	 121.293
| 25> C 	 -94.8332 	 41.8287 	 121.354
| 26> C 	 -95.8041 	 41.6226 	 122.372
| 27> C 	 -95.6923 	 40.4011 	 122.942
| 28> H 	 -94.752 	 42.7205 	 120.772
| 29> C 	 -96.877 	 42.6611 	 122.667
| 30> H 	 -96.5681 	 43.0483 	 123.628
| 31> H 	 -97.7986 	 42.0925 	 122.816
| 32> C 	 -97.2111 	 43.665 	 121.538
| 33> H 	 -98.1862 	 44.1273 	 121.87
| 34> H 	 -97.3964 	 43.2251 	 120.582
| 35> C 	 -96.1382 	 44.8027 	 121.569
| 36> H 	 -96.307 	 45.5143 	 122.364
| 37> H 	 -96.0625 	 45.4877 	 120.697
| 38> H 	 -95.1331 	 44.5007 	 121.765
| 39> H 	 -97.3689 	 37.7997 	 126.821
| 40> H 	 -92.9971 	 40.8471 	 120.556
| 41> *
| 42>
| 43>                          ****END OF INPUT****

CARTESIAN COORDINATES (ANGSTROEM)
---------------------------------
  S    -96.594500   38.130100  124.406000
  C    -97.016800   38.421400  126.096000
  C    -96.962200   39.751900  126.393000
  C    -96.525500   40.546600  125.280000
  C    -96.337800   39.853800  124.102000
  H    -96.314600   41.604000  125.314000
  C    -97.269900   40.361900  127.729000
  H    -97.373600   39.577500  128.505000
  H    -98.257200   40.846300  127.702000
  C    -96.133600   41.208500  128.326000
  H    -96.209000   42.179900  127.951000
  H    -96.344300   41.414900  129.432000
  C    -94.730000   40.649500  128.280000
  H    -94.619100   39.641000  128.768000
  H    -94.296900   40.411200  127.289000
  H    -94.056900   41.289400  128.756000
  S    -94.243400   39.495600  122.363000
  C    -93.826000   40.837200  121.293000
  C    -94.833200   41.828700  121.354000
  C    -95.804100   41.622600  122.372000
  C    -95.692300   40.401100  122.942000
  H    -94.752000   42.720500  120.772000
  C    -96.877000   42.661100  122.667000
  H    -96.568100   43.048300  123.628000
  H    -97.798600   42.092500  122.816000
  C    -97.211100   43.665000  121.538000
  H    -98.186200   44.127300  121.870000
  H    -97.396400   43.225100  120.582000
  C    -96.138200   44.802700  121.569000
  H    -96.307000   45.514300  122.364000
  H    -96.062500   45.487700  120.697000
  H    -95.133100   44.500700  121.765000
  H    -97.368900   37.799700  126.821000
  H    -92.997100   40.847100  120.556000

 Total Charge           Charge          ....    0
 Multiplicity           Mult            ....    1
 Number of Electrons    NEL             ....  134
 Basis Dimension        Dim             ....  322

ORBITAL ENERGIES
----------------

  NO   OCC          E(Eh)            E(eV)
   0   2.0000     -88.966577     -2420.9036
   1   2.0000     -88.964728     -2420.8533
   2   2.0000     -10.328737      -281.0592
   3   2.0000     -10.323971      -280.9295
   4   2.0000     -10.323654      -280.9209
   5   2.0000     -10.306784      -280.4618
   6   2.0000     -10.299975      -280.2766
   7   2.0000     -10.299354      -280.2597
   8   2.0000     -10.297228      -280.2018
   9   2.0000     -10.295800      -280.1630
  10   2.0000     -10.294414      -280.1252
  11   2.0000     -10.292809      -280.0816
  12   2.0000     -10.291848      -280.0554
  13   2.0000     -10.288133      -279.9543
  14   2.0000     -10.280083      -279.7353
  15   2.0000     -10.274906      -279.5944
  16   2.0000      -8.080558      -219.8832
  17   2.0000      -8.078411      -219.8247
  18   2.0000      -6.039294      -164.3376
  19   2.0000      -6.037041      -164.2762
  20   2.0000      -6.035202      -164.2262
  21   2.0000      -6.033133      -164.1699
  22   2.0000      -6.031079      -164.1140
  23   2.0000      -6.029028      -164.0582
  24   2.0000      -1.004956       -27.3462
  25   2.0000      -0.980086       -26.6695
  26   2.0000      -0.913099       -24.8467
  27   2.0000      -0.908879       -24.7319
  28   2.0000      -0.872251       -23.7352
  29   2.0000      -0.849565       -23.1178
  30   2.0000      -0.839188       -22.8355
  31   2.0000      -0.812848       -22.1187
  32   2.0000      -0.787691       -21.4342
  33   2.0000      -0.778306       -21.1788
  34   2.0000      -0.716716       -19.5028
  35   2.0000      -0.703814       -19.1518
  36   2.0000      -0.699512       -19.0347
  37   2.0000      -0.662556       -18.0291
  38   2.0000      -0.639109       -17.3910
  39   2.0000      -0.619850       -16.8670
  40   2.0000      -0.594768       -16.1845
  41   2.0000      -0.563926       -15.3452
  42   2.0000      -0.562566       -15.3082
  43   2.0000      -0.554645       -15.0927
  44   2.0000      -0.536579       -14.6011
  45   2.0000      -0.527908       -14.3651
  46   2.0000      -0.523766       -14.2524
  47   2.0000      -0.510645       -13.8953
  48   2.0000      -0.505532       -13.7562
  49   2.0000      -0.500831       -13.6283
  50   2.0000      -0.492151       -13.3921
  51   2.0000      -0.479357       -13.0440
  52   2.0000      -0.472657       -12.8616
  53   2.0000      -0.464289       -12.6339
  54   2.0000      -0.459739       -12.5101
  55   2.0000      -0.450925       -12.2703
  56   2.0000      -0.447330       -12.1725
  57   2.0000      -0.438707       -11.9378
  58   2.0000      -0.435126       -11.8404
  59   2.0000      -0.422016       -11.4837
  60   2.0000      -0.418765       -11.3952
  61   2.0000      -0.413993       -11.2653
  62   2.0000      -0.403886       -10.9903
  63   2.0000      -0.352120        -9.5817
  64   2.0000      -0.331428        -9.0186
  65   2.0000      -0.329255        -8.9595
  66   2.0000      -0.287608        -7.8262
  67   0.0000       0.026370         0.7176
  68   0.0000       0.069697         1.8966
  69   0.0000       0.110170         2.9979
  70   0.0000       0.124414         3.3855
  71   0.0000       0.137270         3.7353

MULLIKEN ATOMIC CHARGES
-----------------------
   0 S :    0.101093
   1 C :   -0.059955
   2 C :   -0.103505
   3 C :    0.010866
   4 C :   -0.135569
   5 H :    0.002617
   6 C :    0.077242
   7 H :    0.013940
   8 H :    0.047904
   9 C :   -0.091551
  10 H :    0.014682
  11 H :    0.032861
  12 C :   -0.037621
  13 H :    0.026806
  14 H :    0.042122
  15 H :    0.024828
  16 S :    0.094862
  17 C :   -0.103186
  18 C :   -0.039349
  19 C :   -0.062573
  20 C :   -0.130545
  21 H :    0.016702
  22 C :    0.050178
  23 H :    0.040590
  24 H :    0.042081
  25 C :   -0.043274
  26 H :    0.042441
  27 H :    0.042646
  28 C :   -0.066280
  29 H :    0.019621
  30 H :    0.033378
  31 H :    0.025609
  32 H :   -0.000299
  33 H :    0.070640
Sum of atomic charges:   -0.0000000

LOEWDIN ATOMIC CHARGES
----------------------
   0 S :    0.386765
   1 C :   -0.177065
   2 C :   -0.063044
   3 C :   -0.058126
   4 C :   -0.186641
   5 H :    0.026363
   6 C :   -0.034872
   7 H :    0.030319
   8 H :    0.037535
   9 C :   -0.045598
  10 H :    0.011611
  11 H :    0.035214
  12 C :   -0.068393
  13 H :    0.031596
  14 H :    0.030635
  15 H :    0.019924
  16 S :    0.376882
  17 C :   -0.184756
  18 C :   -0.071034
  19 C :   -0.056950
  20 C :   -0.181276
  21 H :    0.026498
  22 C :   -0.027319
  23 H :    0.031695
  24 H :    0.037449
  25 C :   -0.033302
  26 H :    0.037577
  27 H :    0.025449
  28 C :   -0.078518
  29 H :    0.026238
  30 H :    0.028281
  31 H :    0.017687
  32 H :    0.012207
  33 H :    0.036968

  Mayer bond orders larger than 0.100000
B(  0-S ,  1-C ) :   1.1151 B(  0-S ,  4-C ) :   1.1291 B(  1-C ,  2-C ) :   1.6469
B(  1-C , 32-H ) :   0.9679 B(  2-C ,  3-C ) :   1.2229 B(  2-C ,  6-C ) :   1.0303
B(  3-C ,  4-C ) :   1.5776 B(  3-C ,  5-H ) :   0.9905 B(  4-C , 20-C ) :   1.0609
B(  6-C ,  7-H ) :   0.9401 B(  6-C ,  8-H ) :   0.9398 B(  6-C ,  9-C ) :   1.0610
B(  9-C , 10-H ) :   0.9523 B(  9-C , 11-H ) :   0.9559 B(  9-C , 12-C ) :   1.0820
B( 12-C , 13-H ) :   0.9716 B( 12-C , 14-H ) :   0.9681 B( 12-C , 15-H ) :   0.9718
B( 16-S , 17-C ) :   1.1535 B( 16-S , 20-C ) :   1.1105 B( 17-C , 18-C ) :   1.6018
B( 17-C , 33-H ) :   0.9612 B( 18-C , 19-C ) :   1.2457 B( 18-C , 21-H ) :   0.9829
B( 19-C , 20-C ) :   1.6466 B( 19-C , 22-C ) :   1.0107 B( 22-C , 23-H ) :   0.9243
B( 22-C , 24-H ) :   0.9385 B( 22-C , 25-C ) :   1.0753 B( 25-C , 26-H ) :   0.9578
B( 25-C , 27-H ) :   0.9624 B( 25-C , 28-C ) :   1.0457 B( 28-C , 29-H ) :   0.9703
B( 28-C , 30-H ) :   0.9762 B( 28-C , 31-H ) :   0.9806

Dispersion correction           -0.014654292
FINAL SINGLE POINT ENERGY     -1339.866886622701

DIPOLE MOMENT
-------------
                                X             Y             Z
Electronic contribution:      3.07785     -22.60772     -11.02114
Nuclear contribution   :     -3.21854      23.39583      11.33423
                        -----------------------------------------
Total Dipole Moment    :     -0.14070       0.78810       0.31309
                        -----------------------------------------
Magnitude (a.u.)       :      0.85961
Magnitude (Debye)      :      2.18495

Rotational constants in cm-1:     0.018388     0.008826     0.007236
Rotational constants in MHz :   551.264895   264.597055   216.923309

                             ****ORCA TERMINATED NORMALLY****
TOTAL RUN TIME: 0 days 0 hours 0 minutes 32 seconds 678 msec
