                         Program Version 4.2.1 -  RELEASE  -
|  1> ! wB97X-D3 SP def2-SVP
|  2> %pal
|  3> nprocs 16
|  4> end
|  5>
|  6> * xyz 0 1
|  7> S 	 -105.801 	 52.2849 	 122.285
|  8> C 	 -107.283 	 51.5575 	 121.758
|  9> C 	 -107.043 	 50.3671 	 121.156
| 10> C 	 -105.653 	 50.1468 	 120.874
| 11> C 	 -104.886 	 51.1183 	 121.423
| 12> H 	 -105.128 	 49.2211 	 120.458
| 13> C 	 -108.121 	 49.3546 	 120.767
| 14> H 	 -108.91 	 49.1401 	 121.557
| 15> H 	 -107.558 	 48.4474 	 120.503
| 16> C 	 -108.773 	 49.9763 	 119.494
| 17> H 	 -109.255 	 50.9118 	 119.857
| 18> H 	 -107.988 	 50.2389 	 118.748
| 19> C 	 -109.72 	 49.0355 	 118.811
| 20> H 	 -110.57 	 48.9528 	 119.404
| 21> H 	 -110.121 	 49.5582 	 117.897
| 22> H 	 -109.307 	 48.0645 	 118.619
| 23> S 	 -102.452 	 50.5465 	 122.569
| 24> C 	 -101.027 	 50.9985 	 121.702
| 25> C 	 -101.338 	 51.7474 	 120.631
| 26> C 	 -102.754 	 51.8878 	 120.359
| 27> C 	 -103.457 	 51.1863 	 121.271
| 28> H 	 -100.525 	 52.2192 	 120.101
| 29> C 	 -103.305 	 52.6989 	 119.238
| 30> H 	 -102.751 	 53.6138 	 119.207
| 31> H 	 -104.272 	 52.9209 	 119.5
| 32> C 	 -103.282 	 51.9486 	 117.83
| 33> H 	 -103.994 	 52.4139 	 117.15
| 34> H 	 -103.598 	 50.9137 	 117.859
| 35> C 	 -101.959 	 52.0155 	 117.106
| 36> H 	 -101.822 	 53.0736 	 116.946
| 37> H 	 -102.011 	 51.7364 	 116.061
| 38> H 	 -101.064 	 51.8344 	 117.696
| 39> H 	 -108.216 	 51.9615 	 122.117
| 40> H 	 -100.003 	 51.0029 	 122.021
| 41> *
| 42>
| 43>                          ****END OF INPUT****

CARTESIAN COORDINATES (ANGSTROEM)
---------------------------------
  S    -105.801000   52.284900  122.285000
  C    -107.283000   51.557500  121.758000
  C    -107.043000   50.367100  121.156000
  C    -105.653000   50.146800  120.874000
  C    -104.886000   51.118300  121.423000
  H    -105.128000   49.221100  120.458000
  C    -108.121000   49.354600  120.767000
  H    -108.910000   49.140100  121.557000
  H    -107.558000   48.447400  120.503000
  C    -108.773000   49.976300  119.494000
  H    -109.255000   50.911800  119.857000
  H    -107.988000   50.238900  118.748000
  C    -109.720000   49.035500  118.811000
  H    -110.570000   48.952800  119.404000
  H    -110.121000   49.558200  117.897000
  H    -109.307000   48.064500  118.619000
  S    -102.452000   50.546500  122.569000
  C    -101.027000   50.998500  121.702000
  C    -101.338000   51.747400  120.631000
  C    -102.754000   51.887800  120.359000
  C    -103.457000   51.186300  121.271000
  H    -100.525000   52.219200  120.101000
  C    -103.305000   52.698900  119.238000
  H    -102.751000   53.613800  119.207000
  H    -104.272000   52.920900  119.500000
  C    -103.282000   51.948600  117.830000
  H    -103.994000   52.413900  117.150000
  H    -103.598000   50.913700  117.859000
  C    -101.959000   52.015500  117.106000
  H    -101.822000   53.073600  116.946000
  H    -102.011000   51.736400  116.061000
  H    -101.064000   51.834400  117.696000
  H    -108.216000   51.961500  122.117000
  H    -100.003000   51.002900  122.021000

 Total Charge           Charge          ....    0
 Multiplicity           Mult            ....    1
 Number of Electrons    NEL             ....  134
 Basis Dimension        Dim             ....  322

ORBITAL ENERGIES
----------------

  NO   OCC          E(Eh)            E(eV)
   0   2.0000     -88.962514     -2420.7931
   1   2.0000     -88.960596     -2420.7409
   2   2.0000     -10.317526      -280.7542
   3   2.0000     -10.315490      -280.6988
   4   2.0000     -10.307326      -280.4766
   5   2.0000     -10.306798      -280.4622
   6   2.0000     -10.299131      -280.2536
   7   2.0000     -10.297095      -280.1982
   8   2.0000     -10.295951      -280.1671
   9   2.0000     -10.294568      -280.1294
  10   2.0000     -10.287556      -279.9386
  11   2.0000     -10.285647      -279.8867
  12   2.0000     -10.285087      -279.8715
  13   2.0000     -10.284414      -279.8531
  14   2.0000     -10.270336      -279.4701
  15   2.0000     -10.270204      -279.4665
  16   2.0000      -8.078361      -219.8234
  17   2.0000      -8.075790      -219.7534
  18   2.0000      -6.036729      -164.2677
  19   2.0000      -6.034408      -164.2046
  20   2.0000      -6.032755      -164.1596
  21   2.0000      -6.030393      -164.0953
  22   2.0000      -6.029160      -164.0618
  23   2.0000      -6.026252      -163.9827
  24   2.0000      -1.015032       -27.6204
  25   2.0000      -0.990855       -26.9625
  26   2.0000      -0.913224       -24.8501
  27   2.0000      -0.907981       -24.7074
  28   2.0000      -0.874812       -23.8048
  29   2.0000      -0.851774       -23.1779
  30   2.0000      -0.850071       -23.1316
  31   2.0000      -0.818097       -22.2616
  32   2.0000      -0.784827       -21.3562
  33   2.0000      -0.771383       -20.9904
  34   2.0000      -0.708083       -19.2679
  35   2.0000      -0.697171       -18.9710
  36   2.0000      -0.691065       -18.8048
  37   2.0000      -0.657995       -17.9050
  38   2.0000      -0.647772       -17.6268
  39   2.0000      -0.613211       -16.6863
  40   2.0000      -0.593108       -16.1393
  41   2.0000      -0.569414       -15.4945
  42   2.0000      -0.561612       -15.2822
  43   2.0000      -0.553505       -15.0616
  44   2.0000      -0.543649       -14.7934
  45   2.0000      -0.522952       -14.2302
  46   2.0000      -0.518957       -14.1216
  47   2.0000      -0.515688       -14.0326
  48   2.0000      -0.504060       -13.7162
  49   2.0000      -0.499672       -13.5968
  50   2.0000      -0.494416       -13.4538
  51   2.0000      -0.478164       -13.0115
  52   2.0000      -0.468391       -12.7456
  53   2.0000      -0.466383       -12.6909
  54   2.0000      -0.465491       -12.6666
  55   2.0000      -0.449420       -12.2293
  56   2.0000      -0.441185       -12.0053
  57   2.0000      -0.434569       -11.8252
  58   2.0000      -0.429097       -11.6763
  59   2.0000      -0.426150       -11.5961
  60   2.0000      -0.422126       -11.4866
  61   2.0000      -0.416333       -11.3290
  62   2.0000      -0.407874       -11.0988
  63   2.0000      -0.333557        -9.0765
  64   2.0000      -0.326497        -8.8844
  65   2.0000      -0.322146        -8.7660
  66   2.0000      -0.314686        -8.5630
  67   0.0000       0.054734         1.4894
  68   0.0000       0.058244         1.5849
  69   0.0000       0.115920         3.1543
  70   0.0000       0.117356         3.1934
  71   0.0000       0.138102         3.7579

MULLIKEN ATOMIC CHARGES
-----------------------
   0 S :    0.122175
   1 C :   -0.145070
   2 C :   -0.063649
   3 C :    0.008935
   4 C :   -0.181809
   5 H :    0.048618
   6 C :    0.055765
   7 H :    0.050162
   8 H :    0.020431
   9 C :   -0.139815
  10 H :    0.032879
  11 H :    0.039673
  12 C :    0.025362
  13 H :    0.004122
  14 H :    0.032981
  15 H :    0.031551
  16 S :    0.105386
  17 C :   -0.060994
  18 C :   -0.057406
  19 C :   -0.020783
  20 C :   -0.207415
  21 H :    0.011182
  22 C :    0.153907
  23 H :    0.018426
  24 H :   -0.001529
  25 C :   -0.061497
  26 H :    0.022696
  27 H :    0.028065
  28 C :   -0.022712
  29 H :   -0.006645
  30 H :    0.033701
  31 H :    0.030725
  32 H :    0.046994
  33 H :    0.045586
Sum of atomic charges:    0.0000000

LOEWDIN ATOMIC CHARGES
----------------------
   0 S :    0.421748
   1 C :   -0.203276
   2 C :   -0.059870
   3 C :   -0.071299
   4 C :   -0.210157
   5 H :    0.050052
   6 C :   -0.032261
   7 H :    0.037070
   8 H :    0.027263
   9 C :   -0.043006
  10 H :    0.025647
  11 H :    0.028296
  12 C :   -0.064416
  13 H :    0.014239
  14 H :    0.034344
  15 H :    0.023352
  16 S :    0.398236
  17 C :   -0.190926
  18 C :   -0.074238
  19 C :   -0.047885
  20 C :   -0.198293
  21 H :    0.026228
  22 C :   -0.012743
  23 H :    0.031575
  24 H :    0.018972
  25 C :   -0.030719
  26 H :    0.024884
  27 H :    0.021075
  28 C :   -0.077565
  29 H :    0.022570
  30 H :    0.030954
  31 H :    0.024661
  32 H :    0.024057
  33 H :    0.031431

  Mayer bond orders larger than 0.100000
B(  0-S ,  1-C ) :   1.1345 B(  0-S ,  4-C ) :   1.1616 B(  1-C ,  2-C ) :   1.6128
B(  1-C , 32-H ) :   0.9734 B(  2-C ,  3-C ) :   1.2271 B(  2-C ,  6-C ) :   1.0177
B(  3-C ,  4-C ) :   1.6180 B(  3-C ,  5-H ) :   0.9760 B(  4-C , 20-C ) :   1.0079
B(  6-C ,  7-H ) :   0.9455 B(  6-C ,  8-H ) :   0.9388 B(  6-C ,  9-C ) :   1.0561
B(  9-C , 10-H ) :   0.9573 B(  9-C , 11-H ) :   0.9579 B(  9-C , 12-C ) :   1.0893
B( 12-C , 13-H ) :   0.9658 B( 12-C , 14-H ) :   0.9689 B( 12-C , 15-H ) :   0.9722
B( 16-S , 17-C ) :   1.1306 B( 16-S , 20-C ) :   1.1333 B( 17-C , 18-C ) :   1.6742
B( 17-C , 33-H ) :   0.9612 B( 18-C , 19-C ) :   1.1903 B( 18-C , 21-H ) :   0.9833
B( 19-C , 20-C ) :   1.6517 B( 19-C , 22-C ) :   1.0520 B( 22-C , 23-H ) :   0.9345
B( 22-C , 24-H ) :   0.9070 B( 22-C , 25-C ) :   1.0631 B( 25-C , 26-H ) :   0.9567
B( 25-C , 27-H ) :   0.9590 B( 25-C , 28-C ) :   1.0821 B( 28-C , 29-H ) :   0.9640
B( 28-C , 30-H ) :   0.9671 B( 28-C , 31-H ) :   0.9718

Dispersion correction           -0.014476752
FINAL SINGLE POINT ENERGY     -1339.865835765316

DIPOLE MOMENT
-------------
                                X             Y             Z
Electronic contribution:     10.89698       3.47707      24.55519
Nuclear contribution   :    -11.11789      -3.39188     -24.99862
                        -----------------------------------------
Total Dipole Moment    :     -0.22091       0.08519      -0.44343
                        -----------------------------------------
Magnitude (a.u.)       :      0.50268
Magnitude (Debye)      :      1.27771

Rotational constants in cm-1:     0.019527     0.008345     0.006772
Rotational constants in MHz :   585.399850   250.187784   203.023443

                             ****ORCA TERMINATED NORMALLY****
TOTAL RUN TIME: 0 days 0 hours 0 minutes 31 seconds 788 msec
