                         Program Version 4.2.1 -  RELEASE  -
|  1> ! wB97X-D3 SP def2-SVP
|  2> %pal
|  3> nprocs 16
|  4> end
|  5>
|  6> * xyz 0 1
|  7> S 	 2.67419 	 -8.09533 	 74.241
|  8> C 	 1.09293 	 -7.65491 	 73.8202
|  9> C 	 0.548031 	 -6.64768 	 74.6328
| 10> C 	 1.49881 	 -6.22616 	 75.5812
| 11> C 	 2.70307 	 -6.88102 	 75.4319
| 12> H 	 1.44277 	 -5.31738 	 76.1738
| 13> C 	 -0.791392 	 -5.99234 	 74.4071
| 14> H 	 -1.30817 	 -5.66371 	 75.2897
| 15> H 	 -1.47471 	 -6.70152 	 73.937
| 16> C 	 -0.694385 	 -4.69066 	 73.6131
| 17> H 	 -1.64662 	 -4.13524 	 73.6353
| 18> H 	 -0.0248789 	 -3.96662 	 74.0966
| 19> C 	 -0.329919 	 -4.82033 	 72.1281
| 20> H 	 0.0808755 	 -3.85661 	 71.7769
| 21> H 	 0.526594 	 -5.39159 	 72.0136
| 22> H 	 -1.16206 	 -5.2315 	 71.5818
| 23> S 	 5.3969 	 -6.27828 	 75.1785
| 24> C 	 6.25782 	 -5.7052 	 76.6166
| 25> C 	 5.46407 	 -5.84128 	 77.767
| 26> C 	 4.14675 	 -6.33323 	 77.5784
| 27> C 	 3.96944 	 -6.5921 	 76.1646
| 28> H 	 5.93091 	 -5.4952 	 78.7165
| 29> C 	 3.11708 	 -6.55963 	 78.6819
| 30> H 	 3.52399 	 -7.13984 	 79.5338
| 31> H 	 2.34896 	 -7.21907 	 78.3374
| 32> C 	 2.47649 	 -5.25611 	 79.3136
| 33> H 	 1.69793 	 -5.58727 	 79.9741
| 34> H 	 1.98072 	 -4.68282 	 78.5102
| 35> C 	 3.5327 	 -4.36744 	 79.9633
| 36> H 	 3.98905 	 -3.76538 	 79.1636
| 37> H 	 4.13089 	 -4.97672 	 80.6011
| 38> H 	 3.17169 	 -3.60913 	 80.6124
| 39> H 	 0.586578 	 -8.28435 	 73.0394
| 40> H 	 7.23949 	 -5.2318 	 76.5293
| 41> *
| 42>
| 43>                          ****END OF INPUT****

CARTESIAN COORDINATES (ANGSTROEM)
---------------------------------
  S      2.674190   -8.095330   74.241000
  C      1.092930   -7.654910   73.820200
  C      0.548031   -6.647680   74.632800
  C      1.498810   -6.226160   75.581200
  C      2.703070   -6.881020   75.431900
  H      1.442770   -5.317380   76.173800
  C     -0.791392   -5.992340   74.407100
  H     -1.308170   -5.663710   75.289700
  H     -1.474710   -6.701520   73.937000
  C     -0.694385   -4.690660   73.613100
  H     -1.646620   -4.135240   73.635300
  H     -0.024879   -3.966620   74.096600
  C     -0.329919   -4.820330   72.128100
  H      0.080875   -3.856610   71.776900
  H      0.526594   -5.391590   72.013600
  H     -1.162060   -5.231500   71.581800
  S      5.396900   -6.278280   75.178500
  C      6.257820   -5.705200   76.616600
  C      5.464070   -5.841280   77.767000
  C      4.146750   -6.333230   77.578400
  C      3.969440   -6.592100   76.164600
  H      5.930910   -5.495200   78.716500
  C      3.117080   -6.559630   78.681900
  H      3.523990   -7.139840   79.533800
  H      2.348960   -7.219070   78.337400
  C      2.476490   -5.256110   79.313600
  H      1.697930   -5.587270   79.974100
  H      1.980720   -4.682820   78.510200
  C      3.532700   -4.367440   79.963300
  H      3.989050   -3.765380   79.163600
  H      4.130890   -4.976720   80.601100
  H      3.171690   -3.609130   80.612400
  H      0.586578   -8.284350   73.039400
  H      7.239490   -5.231800   76.529300

 Total Charge           Charge          ....    0
 Multiplicity           Mult            ....    1
 Number of Electrons    NEL             ....  134
 Basis Dimension        Dim             ....  322

ORBITAL ENERGIES
----------------

  NO   OCC          E(Eh)            E(eV)
   0   2.0000     -88.968703     -2420.9615
   1   2.0000     -88.966566     -2420.9033
   2   2.0000     -10.333216      -281.1811
   3   2.0000     -10.323994      -280.9302
   4   2.0000     -10.319804      -280.8161
   5   2.0000     -10.313389      -280.6416
   6   2.0000     -10.311132      -280.5802
   7   2.0000     -10.301702      -280.3236
   8   2.0000     -10.298637      -280.2402
   9   2.0000     -10.295416      -280.1525
  10   2.0000     -10.290323      -280.0139
  11   2.0000     -10.289700      -279.9970
  12   2.0000     -10.289205      -279.9835
  13   2.0000     -10.283783      -279.8360
  14   2.0000     -10.273441      -279.5545
  15   2.0000     -10.265539      -279.3395
  16   2.0000      -8.083357      -219.9593
  17   2.0000      -8.082719      -219.9420
  18   2.0000      -6.041391      -164.3946
  19   2.0000      -6.041108      -164.3869
  20   2.0000      -6.037535      -164.2897
  21   2.0000      -6.037307      -164.2835
  22   2.0000      -6.034568      -164.2089
  23   2.0000      -6.033685      -164.1849
  24   2.0000      -1.011502       -27.5244
  25   2.0000      -0.979382       -26.6503
  26   2.0000      -0.912797       -24.8385
  27   2.0000      -0.904880       -24.6230
  28   2.0000      -0.859565       -23.3899
  29   2.0000      -0.854984       -23.2653
  30   2.0000      -0.846600       -23.0372
  31   2.0000      -0.810084       -22.0435
  32   2.0000      -0.788255       -21.4495
  33   2.0000      -0.771578       -20.9957
  34   2.0000      -0.704904       -19.1814
  35   2.0000      -0.696311       -18.9476
  36   2.0000      -0.683735       -18.6054
  37   2.0000      -0.655712       -17.8428
  38   2.0000      -0.639813       -17.4102
  39   2.0000      -0.622405       -16.9365
  40   2.0000      -0.597973       -16.2717
  41   2.0000      -0.565461       -15.3870
  42   2.0000      -0.557495       -15.1702
  43   2.0000      -0.549507       -14.9529
  44   2.0000      -0.540494       -14.7076
  45   2.0000      -0.538303       -14.6480
  46   2.0000      -0.517891       -14.0925
  47   2.0000      -0.508254       -13.8303
  48   2.0000      -0.499382       -13.5889
  49   2.0000      -0.491476       -13.3737
  50   2.0000      -0.485168       -13.2021
  51   2.0000      -0.482383       -13.1263
  52   2.0000      -0.471453       -12.8289
  53   2.0000      -0.460394       -12.5279
  54   2.0000      -0.458429       -12.4745
  55   2.0000      -0.447505       -12.1772
  56   2.0000      -0.439310       -11.9542
  57   2.0000      -0.437830       -11.9140
  58   2.0000      -0.431859       -11.7515
  59   2.0000      -0.423446       -11.5226
  60   2.0000      -0.421276       -11.4635
  61   2.0000      -0.420752       -11.4493
  62   2.0000      -0.417044       -11.3483
  63   2.0000      -0.346443        -9.4272
  64   2.0000      -0.333944        -9.0871
  65   2.0000      -0.330681        -8.9983
  66   2.0000      -0.284337        -7.7372
  67   0.0000       0.029681         0.8077
  68   0.0000       0.069887         1.9017
  69   0.0000       0.111718         3.0400
  70   0.0000       0.121574         3.3082
  71   0.0000       0.127864         3.4793

MULLIKEN ATOMIC CHARGES
-----------------------
   0 S :    0.129211
   1 C :   -0.152396
   2 C :   -0.076233
   3 C :    0.024707
   4 C :   -0.168084
   5 H :    0.017574
   6 C :    0.100691
   7 H :    0.017911
   8 H :    0.020270
   9 C :   -0.109786
  10 H :    0.025203
  11 H :    0.022300
  12 C :   -0.012056
  13 H :    0.025432
  14 H :    0.012541
  15 H :    0.034658
  16 S :    0.109095
  17 C :   -0.121314
  18 C :   -0.048770
  19 C :   -0.007581
  20 C :   -0.161035
  21 H :    0.035208
  22 C :    0.047633
  23 H :    0.034684
  24 H :    0.024102
  25 C :   -0.071748
  26 H :    0.029794
  27 H :    0.024111
  28 C :   -0.031613
  29 H :    0.049299
  30 H :    0.023689
  31 H :    0.018759
  32 H :    0.066529
  33 H :    0.067213
Sum of atomic charges:   -0.0000000

LOEWDIN ATOMIC CHARGES
----------------------
   0 S :    0.451832
   1 C :   -0.224980
   2 C :   -0.060876
   3 C :   -0.066270
   4 C :   -0.210614
   5 H :    0.033303
   6 C :   -0.031230
   7 H :    0.031343
   8 H :    0.030224
   9 C :   -0.042885
  10 H :    0.023833
  11 H :    0.022565
  12 C :   -0.063344
  13 H :    0.032709
  14 H :    0.014009
  15 H :    0.023864
  16 S :    0.397232
  17 C :   -0.193569
  18 C :   -0.071477
  19 C :   -0.056106
  20 C :   -0.193645
  21 H :    0.037685
  22 C :   -0.032084
  23 H :    0.034905
  24 H :    0.029164
  25 C :   -0.032913
  26 H :    0.020495
  27 H :    0.021077
  28 C :   -0.066865
  29 H :    0.035915
  30 H :    0.020230
  31 H :    0.022106
  32 H :    0.032946
  33 H :    0.031421

  Mayer bond orders larger than 0.100000
B(  0-S ,  1-C ) :   1.1688 B(  0-S ,  4-C ) :   1.1926 B(  1-C ,  2-C ) :   1.5610
B(  1-C , 32-H ) :   0.9632 B(  2-C ,  3-C ) :   1.2795 B(  2-C ,  6-C ) :   1.0399
B(  3-C ,  4-C ) :   1.5514 B(  3-C ,  5-H ) :   0.9899 B(  4-C , 20-C ) :   1.0035
B(  6-C ,  7-H ) :   0.9339 B(  6-C ,  8-H ) :   0.9414 B(  6-C ,  9-C ) :   1.0672
B(  9-C , 10-H ) :   0.9563 B(  9-C , 11-H ) :   0.9568 B(  9-C , 12-C ) :   1.0802
B( 12-C , 13-H ) :   0.9687 B( 12-C , 14-H ) :   0.9727 B( 12-C , 15-H ) :   0.9769
B( 16-S , 17-C ) :   1.1454 B( 16-S , 20-C ) :   1.1748 B( 17-C , 18-C ) :   1.5898
B( 17-C , 20-C ) :   0.1119 B( 17-C , 33-H ) :   0.9681 B( 18-C , 19-C ) :   1.2578
B( 18-C , 21-H ) :   0.9789 B( 19-C , 20-C ) :   1.5455 B( 19-C , 22-C ) :   1.0414
B( 22-C , 23-H ) :   0.9417 B( 22-C , 24-H ) :   0.9298 B( 22-C , 25-C ) :   1.0671
B( 25-C , 26-H ) :   0.9566 B( 25-C , 27-H ) :   0.9560 B( 25-C , 28-C ) :   1.0812
B( 28-C , 29-H ) :   0.9691 B( 28-C , 30-H ) :   0.9736 B( 28-C , 31-H ) :   0.9687

Dispersion correction           -0.014938559
FINAL SINGLE POINT ENERGY     -1339.880497669014

DIPOLE MOMENT
-------------
                                X             Y             Z
Electronic contribution:     16.90919     -14.67216      -8.71607
Nuclear contribution   :    -17.24104      15.05682       9.06951
                        -----------------------------------------
Total Dipole Moment    :     -0.33185       0.38465       0.35344
                        -----------------------------------------
Magnitude (a.u.)       :      0.61887
Magnitude (Debye)      :      1.57304

Rotational constants in cm-1:     0.019366     0.008692     0.007101
Rotational constants in MHz :   580.565494   260.585629   212.878368

                             ****ORCA TERMINATED NORMALLY****
TOTAL RUN TIME: 0 days 0 hours 0 minutes 34 seconds 997 msec
