                         Program Version 4.2.1 -  RELEASE  -
|  1> ! wB97X-D3 SP def2-SVP
|  2> %pal
|  3> nprocs 16
|  4> end
|  5>
|  6> * xyz 0 1
|  7> S 	 -5.68866 	 51.7406 	 49.415
|  8> C 	 -6.4643 	 51.4708 	 50.9406
|  9> C 	 -6.19205 	 52.4777 	 51.8816
| 10> C 	 -5.3727 	 53.4954 	 51.3007
| 11> C 	 -5.11394 	 53.262 	 49.9711
| 12> H 	 -5.05777 	 54.4545 	 51.7703
| 13> C 	 -6.92033 	 52.6328 	 53.2646
| 14> H 	 -6.84676 	 51.6935 	 53.8587
| 15> H 	 -7.97083 	 52.7315 	 53.1462
| 16> C 	 -6.37455 	 53.8027 	 54.1001
| 17> H 	 -5.2661 	 53.8927 	 53.9315
| 18> H 	 -6.83304 	 54.7925 	 53.8716
| 19> C 	 -6.75418 	 53.5911 	 55.5048
| 20> H 	 -6.31724 	 52.6948 	 55.8627
| 21> H 	 -6.27651 	 54.3217 	 56.1594
| 22> H 	 -7.78397 	 53.7676 	 55.6009
| 23> S 	 -2.61673 	 53.2948 	 48.7645
| 24> C 	 -2.15253 	 54.7022 	 47.7276
| 25> C 	 -3.06592 	 55.6928 	 47.8456
| 26> C 	 -4.16747 	 55.3611 	 48.693
| 27> C 	 -4.1589 	 54.0561 	 49.12
| 28> H 	 -2.85554 	 56.6106 	 47.3369
| 29> C 	 -5.23087 	 56.3186 	 49.0149
| 30> H 	 -4.89598 	 56.9156 	 49.8985
| 31> H 	 -6.09611 	 55.7983 	 49.3956
| 32> C 	 -5.75027 	 57.1497 	 47.8118
| 33> H 	 -6.08029 	 56.4931 	 46.9826
| 34> H 	 -4.99891 	 57.774 	 47.3026
| 35> C 	 -6.81418 	 58.1087 	 48.2213
| 36> H 	 -7.26366 	 58.584 	 47.3826
| 37> H 	 -6.44352 	 58.8778 	 48.958
| 38> H 	 -7.59908 	 57.5669 	 48.784
| 39> H 	 -7.09196 	 50.65 	 51.1028
| 40> H 	 -1.31888 	 54.8201 	 47.0526
| 41> *
| 42>
| 43>                          ****END OF INPUT****

CARTESIAN COORDINATES (ANGSTROEM)
---------------------------------
  S     -5.688660   51.740600   49.415000
  C     -6.464300   51.470800   50.940600
  C     -6.192050   52.477700   51.881600
  C     -5.372700   53.495400   51.300700
  C     -5.113940   53.262000   49.971100
  H     -5.057770   54.454500   51.770300
  C     -6.920330   52.632800   53.264600
  H     -6.846760   51.693500   53.858700
  H     -7.970830   52.731500   53.146200
  C     -6.374550   53.802700   54.100100
  H     -5.266100   53.892700   53.931500
  H     -6.833040   54.792500   53.871600
  C     -6.754180   53.591100   55.504800
  H     -6.317240   52.694800   55.862700
  H     -6.276510   54.321700   56.159400
  H     -7.783970   53.767600   55.600900
  S     -2.616730   53.294800   48.764500
  C     -2.152530   54.702200   47.727600
  C     -3.065920   55.692800   47.845600
  C     -4.167470   55.361100   48.693000
  C     -4.158900   54.056100   49.120000
  H     -2.855540   56.610600   47.336900
  C     -5.230870   56.318600   49.014900
  H     -4.895980   56.915600   49.898500
  H     -6.096110   55.798300   49.395600
  C     -5.750270   57.149700   47.811800
  H     -6.080290   56.493100   46.982600
  H     -4.998910   57.774000   47.302600
  C     -6.814180   58.108700   48.221300
  H     -7.263660   58.584000   47.382600
  H     -6.443520   58.877800   48.958000
  H     -7.599080   57.566900   48.784000
  H     -7.091960   50.650000   51.102800
  H     -1.318880   54.820100   47.052600

 Total Charge           Charge          ....    0
 Multiplicity           Mult            ....    1
 Number of Electrons    NEL             ....  134
 Basis Dimension        Dim             ....  322

ORBITAL ENERGIES
----------------

  NO   OCC          E(Eh)            E(eV)
   0   2.0000     -88.969229     -2420.9758
   1   2.0000     -88.959700     -2420.7165
   2   2.0000     -10.327052      -281.0134
   3   2.0000     -10.323477      -280.9161
   4   2.0000     -10.313877      -280.6549
   5   2.0000     -10.311114      -280.5797
   6   2.0000     -10.306909      -280.4653
   7   2.0000     -10.297209      -280.2013
   8   2.0000     -10.296304      -280.1767
   9   2.0000     -10.295363      -280.1511
  10   2.0000     -10.287989      -279.9504
  11   2.0000     -10.287642      -279.9410
  12   2.0000     -10.286638      -279.9137
  13   2.0000     -10.285537      -279.8837
  14   2.0000     -10.275712      -279.6163
  15   2.0000     -10.267891      -279.4035
  16   2.0000      -8.084632      -219.9940
  17   2.0000      -8.073605      -219.6940
  18   2.0000      -6.042883      -164.4352
  19   2.0000      -6.038989      -164.3292
  20   2.0000      -6.035683      -164.2393
  21   2.0000      -6.032314      -164.1476
  22   2.0000      -6.028359      -164.0400
  23   2.0000      -6.024067      -163.9232
  24   2.0000      -1.006341       -27.3839
  25   2.0000      -0.983035       -26.7497
  26   2.0000      -0.918392       -24.9907
  27   2.0000      -0.909718       -24.7547
  28   2.0000      -0.868664       -23.6376
  29   2.0000      -0.854425       -23.2501
  30   2.0000      -0.848350       -23.0848
  31   2.0000      -0.818336       -22.2681
  32   2.0000      -0.781190       -21.2573
  33   2.0000      -0.765180       -20.8216
  34   2.0000      -0.705137       -19.1877
  35   2.0000      -0.699158       -19.0250
  36   2.0000      -0.686647       -18.6846
  37   2.0000      -0.651577       -17.7303
  38   2.0000      -0.646708       -17.5978
  39   2.0000      -0.620283       -16.8788
  40   2.0000      -0.596880       -16.2419
  41   2.0000      -0.582783       -15.8583
  42   2.0000      -0.568551       -15.4711
  43   2.0000      -0.560525       -15.2526
  44   2.0000      -0.533898       -14.5281
  45   2.0000      -0.526788       -14.3346
  46   2.0000      -0.515970       -14.0403
  47   2.0000      -0.507598       -13.8124
  48   2.0000      -0.502340       -13.6694
  49   2.0000      -0.495549       -13.4846
  50   2.0000      -0.493996       -13.4423
  51   2.0000      -0.473887       -12.8951
  52   2.0000      -0.468845       -12.7579
  53   2.0000      -0.467496       -12.7212
  54   2.0000      -0.461378       -12.5547
  55   2.0000      -0.451663       -12.2904
  56   2.0000      -0.446623       -12.1532
  57   2.0000      -0.437190       -11.8965
  58   2.0000      -0.429461       -11.6862
  59   2.0000      -0.426102       -11.5948
  60   2.0000      -0.418638       -11.3917
  61   2.0000      -0.415298       -11.3008
  62   2.0000      -0.409361       -11.1393
  63   2.0000      -0.344316        -9.3693
  64   2.0000      -0.329045        -8.9538
  65   2.0000      -0.322543        -8.7768
  66   2.0000      -0.299701        -8.1553
  67   0.0000       0.038690         1.0528
  68   0.0000       0.065121         1.7720
  69   0.0000       0.115821         3.1517
  70   0.0000       0.124940         3.3998
  71   0.0000       0.130165         3.5420

MULLIKEN ATOMIC CHARGES
-----------------------
   0 S :    0.133455
   1 C :   -0.105876
   2 C :   -0.068407
   3 C :    0.019759
   4 C :   -0.179763
   5 H :    0.034275
   6 C :    0.063046
   7 H :    0.029982
   8 H :    0.030528
   9 C :   -0.134941
  10 H :    0.046944
  11 H :    0.033281
  12 C :    0.008561
  13 H :    0.021039
  14 H :    0.016604
  15 H :    0.026518
  16 S :    0.090147
  17 C :   -0.083144
  18 C :   -0.029354
  19 C :   -0.018682
  20 C :   -0.153378
  21 H :    0.010954
  22 C :    0.060642
  23 H :    0.041340
  24 H :    0.020084
  25 C :   -0.103319
  26 H :    0.038186
  27 H :    0.025591
  28 C :   -0.030652
  29 H :    0.030478
  30 H :    0.032241
  31 H :    0.020638
  32 H :    0.025525
  33 H :    0.047699
Sum of atomic charges:   -0.0000000

LOEWDIN ATOMIC CHARGES
----------------------
   0 S :    0.438630
   1 C :   -0.193095
   2 C :   -0.059248
   3 C :   -0.066699
   4 C :   -0.211497
   5 H :    0.040579
   6 C :   -0.028174
   7 H :    0.034027
   8 H :    0.028129
   9 C :   -0.051358
  10 H :    0.027764
  11 H :    0.028216
  12 C :   -0.057463
  13 H :    0.020158
  14 H :    0.027433
  15 H :    0.022418
  16 S :    0.369487
  17 C :   -0.164944
  18 C :   -0.068316
  19 C :   -0.064215
  20 C :   -0.194012
  21 H :    0.030470
  22 C :   -0.035941
  23 H :    0.038884
  24 H :    0.030108
  25 C :   -0.046552
  26 H :    0.030854
  27 H :    0.021137
  28 C :   -0.066420
  29 H :    0.021765
  30 H :    0.029997
  31 H :    0.023403
  32 H :    0.013965
  33 H :    0.030509

  Mayer bond orders larger than 0.100000
B(  0-S ,  1-C ) :   1.1620 B(  0-S ,  4-C ) :   1.1762 B(  1-C ,  2-C ) :   1.5916
B(  1-C ,  4-C ) :   0.1004 B(  1-C , 32-H ) :   0.9811 B(  2-C ,  3-C ) :   1.2650
B(  2-C ,  6-C ) :   0.9962 B(  3-C ,  4-C ) :   1.5639 B(  3-C ,  5-H ) :   0.9817
B(  4-C , 20-C ) :   0.9830 B(  6-C ,  7-H ) :   0.9475 B(  6-C ,  8-H ) :   0.9397
B(  6-C ,  9-C ) :   1.0681 B(  9-C , 10-H ) :   0.9552 B(  9-C , 11-H ) :   0.9482
B(  9-C , 12-C ) :   1.0982 B( 12-C , 13-H ) :   0.9721 B( 12-C , 14-H ) :   0.9646
B( 12-C , 15-H ) :   0.9712 B( 16-S , 17-C ) :   1.1214 B( 16-S , 20-C ) :   1.1300
B( 17-C , 18-C ) :   1.6671 B( 17-C , 33-H ) :   0.9636 B( 18-C , 19-C ) :   1.1930
B( 18-C , 21-H ) :   0.9941 B( 19-C , 20-C ) :   1.6434 B( 19-C , 22-C ) :   1.0657
B( 22-C , 23-H ) :   0.9222 B( 22-C , 24-H ) :   0.9277 B( 22-C , 25-C ) :   1.0570
B( 25-C , 26-H ) :   0.9548 B( 25-C , 27-H ) :   0.9486 B( 25-C , 28-C ) :   1.0991
B( 28-C , 29-H ) :   0.9707 B( 28-C , 30-H ) :   0.9714 B( 28-C , 31-H ) :   0.9706

Dispersion correction           -0.013451605
FINAL SINGLE POINT ENERGY     -1339.873697964802

DIPOLE MOMENT
-------------
                                X             Y             Z
Electronic contribution:     14.44952     -18.82250     -15.27801
Nuclear contribution   :    -14.83590      19.32287      15.63193
                        -----------------------------------------
Total Dipole Moment    :     -0.38638       0.50037       0.35392
                        -----------------------------------------
Magnitude (a.u.)       :      0.72451
Magnitude (Debye)      :      1.84156

Rotational constants in cm-1:     0.016709     0.008250     0.006668
Rotational constants in MHz :   500.932157   247.313836   199.895768

                             ****ORCA TERMINATED NORMALLY****
TOTAL RUN TIME: 0 days 0 hours 0 minutes 33 seconds 99 msec
