                         Program Version 4.2.1 -  RELEASE  -
|  1> ! wB97X-D3 SP def2-SVP
|  2> %pal
|  3> nprocs 16
|  4> end
|  5>
|  6> * xyz 0 1
|  7> S 	 -45.5978 	 54.9662 	 102.961
|  8> C 	 -47.1047 	 54.9605 	 103.743
|  9> C 	 -48.0995 	 55.0372 	 102.795
| 10> C 	 -47.6588 	 55.3233 	 101.471
| 11> C 	 -46.316 	 55.3554 	 101.364
| 12> H 	 -48.3166 	 55.3494 	 100.572
| 13> C 	 -49.561 	 54.656 	 103.078
| 14> H 	 -50.2706 	 55.5305 	 103.094
| 15> H 	 -49.5449 	 54.1901 	 104.039
| 16> C 	 -50.1839 	 53.7133 	 102.018
| 17> H 	 -50.1984 	 54.2301 	 101.018
| 18> H 	 -49.5881 	 52.7812 	 101.927
| 19> C 	 -51.6552 	 53.3396 	 102.359
| 20> H 	 -52.3715 	 54.2549 	 102.278
| 21> H 	 -51.8582 	 52.6433 	 101.575
| 22> H 	 -51.8194 	 52.8972 	 103.304
| 23> S 	 -43.9835 	 56.3924 	 100.349
| 24> C 	 -43.6574 	 56.4076 	 98.6616
| 25> C 	 -44.7551 	 55.9725 	 97.9452
| 26> C 	 -45.7373 	 55.3096 	 98.771
| 27> C 	 -45.5037 	 55.4951 	 100.155
| 28> H 	 -44.8021 	 56.1085 	 96.8988
| 29> C 	 -47.0216 	 54.8016 	 98.1836
| 30> H 	 -47.043 	 54.9991 	 97.0908
| 31> H 	 -47.8589 	 55.4253 	 98.4468
| 32> C 	 -47.3901 	 53.3329 	 98.6197
| 33> H 	 -48.2531 	 52.9812 	 98.0411
| 34> H 	 -47.6637 	 53.2222 	 99.6659
| 35> C 	 -46.3028 	 52.2973 	 98.322
| 36> H 	 -45.5032 	 52.2933 	 99.0632
| 37> H 	 -45.8525 	 52.4784 	 97.372
| 38> H 	 -46.6881 	 51.294 	 98.3272
| 39> H 	 -47.2685 	 54.5499 	 104.75
| 40> H 	 -42.8654 	 56.9377 	 98.1822
| 41> *
| 42>
| 43>                          ****END OF INPUT****

CARTESIAN COORDINATES (ANGSTROEM)
---------------------------------
  S    -45.597800   54.966200  102.961000
  C    -47.104700   54.960500  103.743000
  C    -48.099500   55.037200  102.795000
  C    -47.658800   55.323300  101.471000
  C    -46.316000   55.355400  101.364000
  H    -48.316600   55.349400  100.572000
  C    -49.561000   54.656000  103.078000
  H    -50.270600   55.530500  103.094000
  H    -49.544900   54.190100  104.039000
  C    -50.183900   53.713300  102.018000
  H    -50.198400   54.230100  101.018000
  H    -49.588100   52.781200  101.927000
  C    -51.655200   53.339600  102.359000
  H    -52.371500   54.254900  102.278000
  H    -51.858200   52.643300  101.575000
  H    -51.819400   52.897200  103.304000
  S    -43.983500   56.392400  100.349000
  C    -43.657400   56.407600   98.661600
  C    -44.755100   55.972500   97.945200
  C    -45.737300   55.309600   98.771000
  C    -45.503700   55.495100  100.155000
  H    -44.802100   56.108500   96.898800
  C    -47.021600   54.801600   98.183600
  H    -47.043000   54.999100   97.090800
  H    -47.858900   55.425300   98.446800
  C    -47.390100   53.332900   98.619700
  H    -48.253100   52.981200   98.041100
  H    -47.663700   53.222200   99.665900
  C    -46.302800   52.297300   98.322000
  H    -45.503200   52.293300   99.063200
  H    -45.852500   52.478400   97.372000
  H    -46.688100   51.294000   98.327200
  H    -47.268500   54.549900  104.750000
  H    -42.865400   56.937700   98.182200

 Total Charge           Charge          ....    0
 Multiplicity           Mult            ....    1
 Number of Electrons    NEL             ....  134
 Basis Dimension        Dim             ....  322

ORBITAL ENERGIES
----------------

  NO   OCC          E(Eh)            E(eV)
   0   2.0000     -88.965519     -2420.8748
   1   2.0000     -88.963894     -2420.8306
   2   2.0000     -10.333124      -281.1786
   3   2.0000     -10.332968      -281.1743
   4   2.0000     -10.313894      -280.6553
   5   2.0000     -10.312198      -280.6092
   6   2.0000     -10.309529      -280.5365
   7   2.0000     -10.299431      -280.2618
   8   2.0000     -10.296857      -280.1917
   9   2.0000     -10.296833      -280.1911
  10   2.0000     -10.293948      -280.1126
  11   2.0000     -10.293601      -280.1031
  12   2.0000     -10.293122      -280.0901
  13   2.0000     -10.287434      -279.9353
  14   2.0000     -10.283543      -279.8294
  15   2.0000     -10.265866      -279.3484
  16   2.0000      -8.080340      -219.8772
  17   2.0000      -8.079089      -219.8432
  18   2.0000      -6.038807      -164.3243
  19   2.0000      -6.037666      -164.2932
  20   2.0000      -6.034753      -164.2140
  21   2.0000      -6.033612      -164.1829
  22   2.0000      -6.031204      -164.1174
  23   2.0000      -6.029638      -164.0748
  24   2.0000      -1.009348       -27.4658
  25   2.0000      -0.987582       -26.8735
  26   2.0000      -0.906718       -24.6730
  27   2.0000      -0.906231       -24.6598
  28   2.0000      -0.873911       -23.7803
  29   2.0000      -0.850972       -23.1561
  30   2.0000      -0.845013       -22.9940
  31   2.0000      -0.819307       -22.2945
  32   2.0000      -0.782934       -21.3047
  33   2.0000      -0.768671       -20.9166
  34   2.0000      -0.711791       -19.3688
  35   2.0000      -0.696937       -18.9646
  36   2.0000      -0.684888       -18.6368
  37   2.0000      -0.664719       -18.0879
  38   2.0000      -0.640505       -17.4290
  39   2.0000      -0.624265       -16.9871
  40   2.0000      -0.594108       -16.1665
  41   2.0000      -0.572869       -15.5885
  42   2.0000      -0.561317       -15.2742
  43   2.0000      -0.550877       -14.9901
  44   2.0000      -0.546528       -14.8718
  45   2.0000      -0.528958       -14.3937
  46   2.0000      -0.513106       -13.9623
  47   2.0000      -0.510432       -13.8896
  48   2.0000      -0.502919       -13.6851
  49   2.0000      -0.498429       -13.5629
  50   2.0000      -0.488343       -13.2885
  51   2.0000      -0.482671       -13.1342
  52   2.0000      -0.473201       -12.8765
  53   2.0000      -0.470148       -12.7934
  54   2.0000      -0.462624       -12.5886
  55   2.0000      -0.447756       -12.1841
  56   2.0000      -0.438976       -11.9451
  57   2.0000      -0.435087       -11.8393
  58   2.0000      -0.430821       -11.7232
  59   2.0000      -0.426672       -11.6103
  60   2.0000      -0.423728       -11.5302
  61   2.0000      -0.413728       -11.2581
  62   2.0000      -0.410345       -11.1661
  63   2.0000      -0.359932        -9.7942
  64   2.0000      -0.328932        -8.9507
  65   2.0000      -0.327241        -8.9047
  66   2.0000      -0.287270        -7.8170
  67   0.0000       0.020939         0.5698
  68   0.0000       0.075787         2.0623
  69   0.0000       0.105656         2.8751
  70   0.0000       0.110604         3.0097
  71   0.0000       0.128731         3.5029

MULLIKEN ATOMIC CHARGES
-----------------------
   0 S :    0.100717
   1 C :   -0.108195
   2 C :   -0.110817
   3 C :    0.002801
   4 C :   -0.103396
   5 H :    0.019639
   6 C :    0.088360
   7 H :    0.038440
   8 H :    0.006135
   9 C :   -0.156007
  10 H :    0.042807
  11 H :    0.046681
  12 C :   -0.040180
  13 H :    0.042345
  14 H :    0.033530
  15 H :    0.030370
  16 S :    0.101684
  17 C :   -0.068254
  18 C :   -0.042489
  19 C :   -0.033130
  20 C :   -0.131730
  21 H :    0.010544
  22 C :    0.031141
  23 H :    0.017975
  24 H :    0.032947
  25 C :   -0.078488
  26 H :    0.025405
  27 H :    0.040609
  28 C :   -0.035930
  29 H :    0.035553
  30 H :    0.018949
  31 H :    0.024151
  32 H :    0.064965
  33 H :    0.052867
Sum of atomic charges:    0.0000000

LOEWDIN ATOMIC CHARGES
----------------------
   0 S :    0.403942
   1 C :   -0.218479
   2 C :   -0.067156
   3 C :   -0.068900
   4 C :   -0.176853
   5 H :    0.037836
   6 C :   -0.033476
   7 H :    0.034836
   8 H :    0.021479
   9 C :   -0.044739
  10 H :    0.027036
  11 H :    0.025972
  12 C :   -0.064428
  13 H :    0.034892
  14 H :    0.025870
  15 H :    0.016983
  16 S :    0.416129
  17 C :   -0.191912
  18 C :   -0.066138
  19 C :   -0.054144
  20 C :   -0.187857
  21 H :    0.025055
  22 C :   -0.038908
  23 H :    0.034738
  24 H :    0.027919
  25 C :   -0.040177
  26 H :    0.025108
  27 H :    0.024044
  28 C :   -0.063136
  29 H :    0.025967
  30 H :    0.019501
  31 H :    0.023436
  32 H :    0.037848
  33 H :    0.027711

  Mayer bond orders larger than 0.100000
B(  0-S ,  1-C ) :   1.1376 B(  0-S ,  4-C ) :   1.1479 B(  1-C ,  2-C ) :   1.6185
B(  1-C , 32-H ) :   0.9594 B(  2-C ,  3-C ) :   1.2404 B(  2-C ,  6-C ) :   1.0228
B(  3-C ,  4-C ) :   1.5871 B(  3-C ,  5-H ) :   0.9842 B(  4-C , 20-C ) :   1.0549
B(  6-C ,  7-H ) :   0.9355 B(  6-C ,  8-H ) :   0.9447 B(  6-C ,  9-C ) :   1.0674
B(  9-C , 10-H ) :   0.9474 B(  9-C , 11-H ) :   0.9575 B(  9-C , 12-C ) :   1.0789
B( 12-C , 13-H ) :   0.9726 B( 12-C , 14-H ) :   0.9753 B( 12-C , 15-H ) :   0.9776
B( 16-S , 17-C ) :   1.1681 B( 16-S , 20-C ) :   1.1482 B( 17-C , 18-C ) :   1.5930
B( 17-C , 33-H ) :   0.9679 B( 18-C , 19-C ) :   1.2609 B( 18-C , 21-H ) :   0.9933
B( 19-C , 20-C ) :   1.5450 B( 19-C , 22-C ) :   1.0482 B( 22-C , 23-H ) :   0.9339
B( 22-C , 24-H ) :   0.9344 B( 22-C , 25-C ) :   1.0628 B( 25-C , 26-H ) :   0.9580
B( 25-C , 27-H ) :   0.9530 B( 25-C , 28-C ) :   1.0833 B( 28-C , 29-H ) :   0.9725
B( 28-C , 30-H ) :   0.9775 B( 28-C , 31-H ) :   0.9747

Dispersion correction           -0.015229926
FINAL SINGLE POINT ENERGY     -1339.876592264811

DIPOLE MOMENT
-------------
                                X             Y             Z
Electronic contribution:     25.54173      15.02586       7.95252
Nuclear contribution   :    -26.21553     -15.26236      -8.35665
                        -----------------------------------------
Total Dipole Moment    :     -0.67380      -0.23649      -0.40412
                        -----------------------------------------
Magnitude (a.u.)       :      0.82052
Magnitude (Debye)      :      2.08559

Rotational constants in cm-1:     0.019879     0.009438     0.007133
Rotational constants in MHz :   595.952973   282.958804   213.827162

                             ****ORCA TERMINATED NORMALLY****
TOTAL RUN TIME: 0 days 0 hours 0 minutes 30 seconds 268 msec
