                         Program Version 4.2.1 -  RELEASE  -
|  1> ! wB97X-D3 SP def2-SVP
|  2> %pal
|  3> nprocs 16
|  4> end
|  5>
|  6> * xyz 0 1
|  7> S 	 1.74533 	 -26.6687 	 84.638
|  8> C 	 0.382682 	 -27.3352 	 83.8922
|  9> C 	 0.62406 	 -28.5737 	 83.2975
| 10> C 	 1.9013 	 -29.0921 	 83.599
| 11> C 	 2.57925 	 -28.2545 	 84.4996
| 12> H 	 2.21527 	 -30.0739 	 83.2817
| 13> C 	 -0.42817 	 -29.2579 	 82.4605
| 14> H 	 -0.15511 	 -29.2397 	 81.3975
| 15> H 	 -1.37393 	 -28.6974 	 82.5633
| 16> C 	 -0.740908 	 -30.7401 	 82.8329
| 17> H 	 -1.40276 	 -31.0745 	 82.087
| 18> H 	 0.209133 	 -31.2827 	 82.7086
| 19> C 	 -1.37809 	 -30.796 	 84.2897
| 20> H 	 -0.784581 	 -30.4051 	 85.1592
| 21> H 	 -2.39928 	 -30.3351 	 84.3241
| 22> H 	 -1.4072 	 -31.8141 	 84.5477
| 23> S 	 4.93813 	 -27.1456 	 85.3056
| 24> C 	 6.27328 	 -28.1546 	 85.7072
| 25> C 	 5.85917 	 -29.4444 	 85.7948
| 26> C 	 4.48799 	 -29.7109 	 85.424
| 27> C 	 3.81076 	 -28.5235 	 85.1764
| 28> H 	 6.55934 	 -30.1571 	 86.1029
| 29> C 	 3.92019 	 -31.1378 	 85.5632
| 30> H 	 4.7367 	 -31.8459 	 85.6004
| 31> H 	 3.391 	 -31.2525 	 84.6303
| 32> C 	 3.00845 	 -31.307 	 86.7642
| 33> H 	 2.5381 	 -32.2263 	 86.7838
| 34> H 	 2.17271 	 -30.6348 	 86.5338
| 35> C 	 3.51455 	 -31.0436 	 88.1828
| 36> H 	 2.70759 	 -31.1965 	 88.958
| 37> H 	 3.91465 	 -30.0993 	 88.3004
| 38> H 	 4.34798 	 -31.6937 	 88.3795
| 39> H 	 -0.620735 	 -26.8485 	 83.8444
| 40> H 	 7.30152 	 -27.8009 	 85.8226
| 41> *
| 42>
| 43>                          ****END OF INPUT****

CARTESIAN COORDINATES (ANGSTROEM)
---------------------------------
  S      1.745330  -26.668700   84.638000
  C      0.382682  -27.335200   83.892200
  C      0.624060  -28.573700   83.297500
  C      1.901300  -29.092100   83.599000
  C      2.579250  -28.254500   84.499600
  H      2.215270  -30.073900   83.281700
  C     -0.428170  -29.257900   82.460500
  H     -0.155110  -29.239700   81.397500
  H     -1.373930  -28.697400   82.563300
  C     -0.740908  -30.740100   82.832900
  H     -1.402760  -31.074500   82.087000
  H      0.209133  -31.282700   82.708600
  C     -1.378090  -30.796000   84.289700
  H     -0.784581  -30.405100   85.159200
  H     -2.399280  -30.335100   84.324100
  H     -1.407200  -31.814100   84.547700
  S      4.938130  -27.145600   85.305600
  C      6.273280  -28.154600   85.707200
  C      5.859170  -29.444400   85.794800
  C      4.487990  -29.710900   85.424000
  C      3.810760  -28.523500   85.176400
  H      6.559340  -30.157100   86.102900
  C      3.920190  -31.137800   85.563200
  H      4.736700  -31.845900   85.600400
  H      3.391000  -31.252500   84.630300
  C      3.008450  -31.307000   86.764200
  H      2.538100  -32.226300   86.783800
  H      2.172710  -30.634800   86.533800
  C      3.514550  -31.043600   88.182800
  H      2.707590  -31.196500   88.958000
  H      3.914650  -30.099300   88.300400
  H      4.347980  -31.693700   88.379500
  H     -0.620735  -26.848500   83.844400
  H      7.301520  -27.800900   85.822600

 Total Charge           Charge          ....    0
 Multiplicity           Mult            ....    1
 Number of Electrons    NEL             ....  134
 Basis Dimension        Dim             ....  322

ORBITAL ENERGIES
----------------

  NO   OCC          E(Eh)            E(eV)
   0   2.0000     -88.967537     -2420.9298
   1   2.0000     -88.961326     -2420.7607
   2   2.0000     -10.334111      -281.2055
   3   2.0000     -10.327969      -281.0383
   4   2.0000     -10.314957      -280.6843
   5   2.0000     -10.310092      -280.5519
   6   2.0000     -10.306323      -280.4493
   7   2.0000     -10.296751      -280.1888
   8   2.0000     -10.295999      -280.1684
   9   2.0000     -10.294240      -280.1205
  10   2.0000     -10.291176      -280.0371
  11   2.0000     -10.290693      -280.0240
  12   2.0000     -10.287013      -279.9239
  13   2.0000     -10.282459      -279.7999
  14   2.0000     -10.276883      -279.6482
  15   2.0000     -10.270476      -279.4739
  16   2.0000      -8.082670      -219.9406
  17   2.0000      -8.076595      -219.7753
  18   2.0000      -6.041068      -164.3858
  19   2.0000      -6.037356      -164.2848
  20   2.0000      -6.035229      -164.2269
  21   2.0000      -6.033303      -164.1745
  22   2.0000      -6.030992      -164.1116
  23   2.0000      -6.027231      -164.0093
  24   2.0000      -1.007741       -27.4220
  25   2.0000      -0.985420       -26.8146
  26   2.0000      -0.911527       -24.8039
  27   2.0000      -0.906243       -24.6601
  28   2.0000      -0.871965       -23.7274
  29   2.0000      -0.850864       -23.1532
  30   2.0000      -0.843060       -22.9408
  31   2.0000      -0.811848       -22.0915
  32   2.0000      -0.788257       -21.4496
  33   2.0000      -0.771410       -20.9911
  34   2.0000      -0.717408       -19.5217
  35   2.0000      -0.700475       -19.0609
  36   2.0000      -0.688520       -18.7356
  37   2.0000      -0.664030       -18.0692
  38   2.0000      -0.633394       -17.2355
  39   2.0000      -0.625628       -17.0242
  40   2.0000      -0.589461       -16.0401
  41   2.0000      -0.564108       -15.3501
  42   2.0000      -0.559087       -15.2135
  43   2.0000      -0.552529       -15.0351
  44   2.0000      -0.549925       -14.9642
  45   2.0000      -0.535204       -14.5636
  46   2.0000      -0.515179       -14.0187
  47   2.0000      -0.506014       -13.7693
  48   2.0000      -0.501867       -13.6565
  49   2.0000      -0.495030       -13.4704
  50   2.0000      -0.490100       -13.3363
  51   2.0000      -0.484022       -13.1709
  52   2.0000      -0.477470       -12.9926
  53   2.0000      -0.468731       -12.7548
  54   2.0000      -0.458646       -12.4804
  55   2.0000      -0.450511       -12.2590
  56   2.0000      -0.446199       -12.1417
  57   2.0000      -0.434730       -11.8296
  58   2.0000      -0.429332       -11.6827
  59   2.0000      -0.425248       -11.5716
  60   2.0000      -0.419145       -11.4055
  61   2.0000      -0.415900       -11.3172
  62   2.0000      -0.409426       -11.1410
  63   2.0000      -0.361748        -9.8437
  64   2.0000      -0.334595        -9.1048
  65   2.0000      -0.327433        -8.9099
  66   2.0000      -0.275155        -7.4873
  67   0.0000       0.017779         0.4838
  68   0.0000       0.073412         1.9976
  69   0.0000       0.101569         2.7638
  70   0.0000       0.121906         3.3172
  71   0.0000       0.129314         3.5188

MULLIKEN ATOMIC CHARGES
-----------------------
   0 S :    0.117695
   1 C :   -0.129774
   2 C :   -0.089496
   3 C :    0.018516
   4 C :   -0.129367
   5 H :    0.007787
   6 C :    0.038220
   7 H :    0.041032
   8 H :    0.012817
   9 C :   -0.060079
  10 H :    0.025481
  11 H :    0.028541
  12 C :   -0.072517
  13 H :    0.051895
  14 H :    0.044736
  15 H :    0.021877
  16 S :    0.075978
  17 C :   -0.085178
  18 C :   -0.021736
  19 C :   -0.095601
  20 C :   -0.111593
  21 H :   -0.006039
  22 C :    0.119003
  23 H :    0.013310
  24 H :    0.012439
  25 C :   -0.048595
  26 H :    0.008768
  27 H :    0.025387
  28 C :   -0.023507
  29 H :    0.044698
  30 H :    0.022669
  31 H :    0.014878
  32 H :    0.061630
  33 H :    0.066125
Sum of atomic charges:   -0.0000000

LOEWDIN ATOMIC CHARGES
----------------------
   0 S :    0.409448
   1 C :   -0.223561
   2 C :   -0.066912
   3 C :   -0.059405
   4 C :   -0.171868
   5 H :    0.027698
   6 C :   -0.035483
   7 H :    0.032165
   8 H :    0.027331
   9 C :   -0.032894
  10 H :    0.019805
  11 H :    0.021679
  12 C :   -0.072840
  13 H :    0.035432
  14 H :    0.032370
  15 H :    0.017568
  16 S :    0.393671
  17 C :   -0.189203
  18 C :   -0.073732
  19 C :   -0.051352
  20 C :   -0.187597
  21 H :    0.020379
  22 C :   -0.019869
  23 H :    0.024948
  24 H :    0.029066
  25 C :   -0.039168
  26 H :    0.014467
  27 H :    0.027514
  28 C :   -0.056976
  29 H :    0.037838
  30 H :    0.015172
  31 H :    0.020559
  32 H :    0.036625
  33 H :    0.037125

  Mayer bond orders larger than 0.100000
B(  0-S ,  1-C ) :   1.1460 B(  0-S ,  4-C ) :   1.1460 B(  1-C ,  2-C ) :   1.5979
B(  1-C , 32-H ) :   0.9571 B(  2-C ,  3-C ) :   1.2669 B(  2-C ,  6-C ) :   1.0292
B(  3-C ,  4-C ) :   1.5340 B(  3-C ,  5-H ) :   0.9903 B(  4-C , 20-C ) :   1.0873
B(  6-C ,  7-H ) :   0.9361 B(  6-C ,  8-H ) :   0.9435 B(  6-C ,  9-C ) :   1.0752
B(  9-C , 10-H ) :   0.9558 B(  9-C , 11-H ) :   0.9576 B(  9-C , 12-C ) :   1.0609
B( 12-C , 13-H ) :   0.9757 B( 12-C , 14-H ) :   0.9752 B( 12-C , 15-H ) :   0.9760
B( 16-S , 17-C ) :   1.1555 B( 16-S , 20-C ) :   1.1212 B( 17-C , 18-C ) :   1.6116
B( 17-C , 33-H ) :   0.9661 B( 18-C , 19-C ) :   1.2328 B( 18-C , 21-H ) :   1.0001
B( 19-C , 20-C ) :   1.5905 B( 19-C , 22-C ) :   1.0271 B( 22-C , 23-H ) :   0.9333
B( 22-C , 24-H ) :   0.9282 B( 22-C , 25-C ) :   1.0817 B( 25-C , 26-H ) :   0.9532
B( 25-C , 27-H ) :   0.9493 B( 25-C , 28-C ) :   1.0780 B( 28-C , 29-H ) :   0.9724
B( 28-C , 30-H ) :   0.9744 B( 28-C , 31-H ) :   0.9728

Dispersion correction           -0.015397327
FINAL SINGLE POINT ENERGY     -1339.870074021564

DIPOLE MOMENT
-------------
                                X             Y             Z
Electronic contribution:     13.94134      23.97879      -3.14472
Nuclear contribution   :    -14.07779     -24.67010       3.04643
                        -----------------------------------------
Total Dipole Moment    :     -0.13645      -0.69132      -0.09829
                        -----------------------------------------
Magnitude (a.u.)       :      0.71148
Magnitude (Debye)      :      1.80843

Rotational constants in cm-1:     0.019156     0.009875     0.007434
Rotational constants in MHz :   574.285652   296.042948   222.853613

                             ****ORCA TERMINATED NORMALLY****
TOTAL RUN TIME: 0 days 0 hours 0 minutes 33 seconds 799 msec
