                         Program Version 4.2.1 -  RELEASE  -
|  1> ! wB97X-D3 SP def2-SVP
|  2> %pal
|  3> nprocs 16
|  4> end
|  5>
|  6> * xyz 0 1
|  7> S 	 40.4031 	 22.7014 	 82.6051
|  8> C 	 39.1057 	 22.8367 	 83.7606
|  9> C 	 39.4574 	 23.6474 	 84.8093
| 10> C 	 40.7712 	 24.175 	 84.6799
| 11> C 	 41.4977 	 23.6403 	 83.6509
| 12> H 	 41.1787 	 24.9111 	 85.3464
| 13> C 	 38.5087 	 24.0087 	 85.907
| 14> H 	 38.4097 	 23.1247 	 86.4756
| 15> H 	 37.4764 	 24.1465 	 85.5344
| 16> C 	 38.8396 	 25.2797 	 86.796
| 17> H 	 39.9192 	 25.245 	 87.1623
| 18> H 	 38.9012 	 26.2462 	 86.144
| 19> C 	 37.8802 	 25.435 	 88.03
| 20> H 	 38.2846 	 26.2708 	 88.5284
| 21> H 	 36.8594 	 25.7929 	 87.7324
| 22> H 	 37.8979 	 24.5394 	 88.6457
| 23> S 	 43.1746 	 24.6421 	 81.7635
| 24> C 	 44.9329 	 24.5731 	 81.9176
| 25> C 	 45.24 	 24.2625 	 83.1703
| 26> C 	 44.1021 	 23.7766 	 83.9426
| 27> C 	 42.8673 	 23.9264 	 83.2947
| 28> H 	 46.2734 	 24.2462 	 83.5321
| 29> C 	 44.313 	 23.1241 	 85.3128
| 30> H 	 45.0396 	 22.3579 	 85.2438
| 31> H 	 43.3676 	 22.6844 	 85.5757
| 32> C 	 44.6311 	 24.0603 	 86.527
| 33> H 	 43.851 	 24.9121 	 86.5024
| 34> H 	 45.6118 	 24.5747 	 86.4414
| 35> C 	 44.5501 	 23.3649 	 87.8719
| 36> H 	 44.812 	 23.9916 	 88.7325
| 37> H 	 45.2575 	 22.5316 	 87.8479
| 38> H 	 43.637 	 23.0308 	 88.1711
| 39> H 	 38.1321 	 22.3669 	 83.637
| 40> H 	 45.6955 	 24.8858 	 81.2799
| 41> *
| 42>
| 43>                          ****END OF INPUT****

CARTESIAN COORDINATES (ANGSTROEM)
---------------------------------
  S     40.403100   22.701400   82.605100
  C     39.105700   22.836700   83.760600
  C     39.457400   23.647400   84.809300
  C     40.771200   24.175000   84.679900
  C     41.497700   23.640300   83.650900
  H     41.178700   24.911100   85.346400
  C     38.508700   24.008700   85.907000
  H     38.409700   23.124700   86.475600
  H     37.476400   24.146500   85.534400
  C     38.839600   25.279700   86.796000
  H     39.919200   25.245000   87.162300
  H     38.901200   26.246200   86.144000
  C     37.880200   25.435000   88.030000
  H     38.284600   26.270800   88.528400
  H     36.859400   25.792900   87.732400
  H     37.897900   24.539400   88.645700
  S     43.174600   24.642100   81.763500
  C     44.932900   24.573100   81.917600
  C     45.240000   24.262500   83.170300
  C     44.102100   23.776600   83.942600
  C     42.867300   23.926400   83.294700
  H     46.273400   24.246200   83.532100
  C     44.313000   23.124100   85.312800
  H     45.039600   22.357900   85.243800
  H     43.367600   22.684400   85.575700
  C     44.631100   24.060300   86.527000
  H     43.851000   24.912100   86.502400
  H     45.611800   24.574700   86.441400
  C     44.550100   23.364900   87.871900
  H     44.812000   23.991600   88.732500
  H     45.257500   22.531600   87.847900
  H     43.637000   23.030800   88.171100
  H     38.132100   22.366900   83.637000
  H     45.695500   24.885800   81.279900

 Total Charge           Charge          ....    0
 Multiplicity           Mult            ....    1
 Number of Electrons    NEL             ....  134
 Basis Dimension        Dim             ....  322

ORBITAL ENERGIES
----------------

  NO   OCC          E(Eh)            E(eV)
   0   2.0000     -88.965098     -2420.8634
   1   2.0000     -88.959558     -2420.7126
   2   2.0000     -10.330794      -281.1152
   3   2.0000     -10.326072      -280.9867
   4   2.0000     -10.313331      -280.6400
   5   2.0000     -10.308785      -280.5163
   6   2.0000     -10.308496      -280.5084
   7   2.0000     -10.305173      -280.4180
   8   2.0000     -10.298199      -280.2283
   9   2.0000     -10.294373      -280.1241
  10   2.0000     -10.293774      -280.1078
  11   2.0000     -10.292710      -280.0789
  12   2.0000     -10.289861      -280.0013
  13   2.0000     -10.285920      -279.8941
  14   2.0000     -10.285759      -279.8897
  15   2.0000     -10.270509      -279.4748
  16   2.0000      -8.079553      -219.8558
  17   2.0000      -8.074875      -219.7285
  18   2.0000      -6.038139      -164.3061
  19   2.0000      -6.034055      -164.1950
  20   2.0000      -6.033570      -164.1818
  21   2.0000      -6.030276      -164.0922
  22   2.0000      -6.029261      -164.0645
  23   2.0000      -6.025400      -163.9595
  24   2.0000      -1.008913       -27.4539
  25   2.0000      -0.987200       -26.8631
  26   2.0000      -0.905861       -24.6497
  27   2.0000      -0.902580       -24.5604
  28   2.0000      -0.876038       -23.8382
  29   2.0000      -0.848633       -23.0925
  30   2.0000      -0.844195       -22.9717
  31   2.0000      -0.826051       -22.4780
  32   2.0000      -0.781051       -21.2535
  33   2.0000      -0.769774       -20.9466
  34   2.0000      -0.716665       -19.5015
  35   2.0000      -0.695414       -18.9232
  36   2.0000      -0.690448       -18.7880
  37   2.0000      -0.656786       -17.8721
  38   2.0000      -0.643751       -17.5173
  39   2.0000      -0.625392       -17.0178
  40   2.0000      -0.593128       -16.1398
  41   2.0000      -0.571747       -15.5580
  42   2.0000      -0.564782       -15.3685
  43   2.0000      -0.558820       -15.2063
  44   2.0000      -0.531582       -14.4651
  45   2.0000      -0.519308       -14.1311
  46   2.0000      -0.517813       -14.0904
  47   2.0000      -0.512746       -13.9525
  48   2.0000      -0.507071       -13.7981
  49   2.0000      -0.503622       -13.7043
  50   2.0000      -0.492870       -13.4117
  51   2.0000      -0.482967       -13.1422
  52   2.0000      -0.477966       -13.0061
  53   2.0000      -0.467843       -12.7307
  54   2.0000      -0.458571       -12.4783
  55   2.0000      -0.453509       -12.3406
  56   2.0000      -0.445796       -12.1307
  57   2.0000      -0.437131       -11.8949
  58   2.0000      -0.423472       -11.5233
  59   2.0000      -0.421372       -11.4661
  60   2.0000      -0.418754       -11.3949
  61   2.0000      -0.413693       -11.2571
  62   2.0000      -0.411226       -11.1900
  63   2.0000      -0.349091        -9.4992
  64   2.0000      -0.329970        -8.9789
  65   2.0000      -0.323612        -8.8059
  66   2.0000      -0.297163        -8.0862
  67   0.0000       0.030896         0.8407
  68   0.0000       0.071104         1.9348
  69   0.0000       0.115444         3.1414
  70   0.0000       0.124403         3.3852
  71   0.0000       0.131366         3.5747

MULLIKEN ATOMIC CHARGES
-----------------------
   0 S :    0.115671
   1 C :   -0.133292
   2 C :   -0.062993
   3 C :    0.036127
   4 C :   -0.150772
   5 H :    0.007820
   6 C :    0.079992
   7 H :    0.024442
   8 H :    0.029191
   9 C :   -0.176519
  10 H :    0.041016
  11 H :    0.049308
  12 C :   -0.014992
  13 H :    0.024753
  14 H :    0.041920
  15 H :    0.046237
  16 S :    0.092697
  17 C :   -0.049325
  18 C :   -0.031557
  19 C :   -0.063570
  20 C :   -0.144520
  21 H :    0.025156
  22 C :    0.092368
  23 H :    0.019817
  24 H :    0.015075
  25 C :   -0.111700
  26 H :    0.030120
  27 H :    0.032734
  28 C :   -0.007130
  29 H :    0.027807
  30 H :    0.024479
  31 H :    0.007271
  32 H :    0.049517
  33 H :    0.032854
Sum of atomic charges:    0.0000000

LOEWDIN ATOMIC CHARGES
----------------------
   0 S :    0.399348
   1 C :   -0.193912
   2 C :   -0.067572
   3 C :   -0.053031
   4 C :   -0.188749
   5 H :    0.029368
   6 C :   -0.038640
   7 H :    0.028803
   8 H :    0.034904
   9 C :   -0.051973
  10 H :    0.023793
  11 H :    0.033559
  12 C :   -0.062032
  13 H :    0.023318
  14 H :    0.032128
  15 H :    0.028371
  16 S :    0.404974
  17 C :   -0.170962
  18 C :   -0.071072
  19 C :   -0.054141
  20 C :   -0.209394
  21 H :    0.034573
  22 C :   -0.028302
  23 H :    0.022647
  24 H :    0.028670
  25 C :   -0.043719
  26 H :    0.025968
  27 H :    0.022625
  28 C :   -0.062640
  29 H :    0.031286
  30 H :    0.026383
  31 H :    0.010185
  32 H :    0.031083
  33 H :    0.024150

  Mayer bond orders larger than 0.100000
B(  0-S ,  1-C ) :   1.1410 B(  0-S ,  4-C ) :   1.1415 B(  1-C ,  2-C ) :   1.6087
B(  1-C , 32-H ) :   0.9726 B(  2-C ,  3-C ) :   1.2555 B(  2-C ,  6-C ) :   1.0047
B(  3-C ,  4-C ) :   1.5615 B(  3-C ,  5-H ) :   0.9961 B(  4-C , 20-C ) :   1.0395
B(  6-C ,  7-H ) :   0.9309 B(  6-C ,  8-H ) :   0.9436 B(  6-C ,  9-C ) :   1.0599
B(  9-C , 10-H ) :   0.9508 B(  9-C , 11-H ) :   0.9579 B(  9-C , 12-C ) :   1.0727
B( 12-C , 13-H ) :   0.9726 B( 12-C , 14-H ) :   0.9747 B( 12-C , 15-H ) :   0.9759
B( 16-S , 17-C ) :   1.1280 B( 16-S , 20-C ) :   1.1402 B( 17-C , 18-C ) :   1.6521
B( 17-C , 33-H ) :   0.9703 B( 18-C , 19-C ) :   1.2202 B( 18-C , 21-H ) :   0.9845
B( 19-C , 20-C ) :   1.6059 B( 19-C , 22-C ) :   1.0546 B( 22-C , 23-H ) :   0.9362
B( 22-C , 24-H ) :   0.9331 B( 22-C , 25-C ) :   1.0526 B( 25-C , 26-H ) :   0.9550
B( 25-C , 27-H ) :   0.9558 B( 25-C , 28-C ) :   1.0871 B( 28-C , 29-H ) :   0.9704
B( 28-C , 30-H ) :   0.9716 B( 28-C , 31-H ) :   0.9739

Dispersion correction           -0.013717979
FINAL SINGLE POINT ENERGY     -1339.869887312435

DIPOLE MOMENT
-------------
                                X             Y             Z
Electronic contribution:      2.69231      -4.57781     -31.39818
Nuclear contribution   :     -2.72246       4.70279      32.17573
                        -----------------------------------------
Total Dipole Moment    :     -0.03015       0.12498       0.77755
                        -----------------------------------------
Magnitude (a.u.)       :      0.78811
Magnitude (Debye)      :      2.00321

Rotational constants in cm-1:     0.016111     0.009078     0.006575
Rotational constants in MHz :   483.001138   272.160997   197.111685

                             ****ORCA TERMINATED NORMALLY****
TOTAL RUN TIME: 0 days 0 hours 0 minutes 29 seconds 360 msec
