                         Program Version 4.2.1 -  RELEASE  -
|  1> ! wB97X-D3 SP def2-SVP
|  2> %pal
|  3> nprocs 16
|  4> end
|  5>
|  6> * xyz 0 1
|  7> S 	 -1.53777 	 25.0589 	 32.0256
|  8> C 	 -2.96842 	 26.0512 	 31.8869
|  9> C 	 -3.94327 	 25.606 	 32.7588
| 10> C 	 -3.49665 	 24.6223 	 33.6337
| 11> C 	 -2.19254 	 24.245 	 33.432
| 12> H 	 -4.03123 	 24.1827 	 34.3994
| 13> C 	 -5.38943 	 26.1065 	 32.8406
| 14> H 	 -5.53574 	 27.0559 	 32.192
| 15> H 	 -5.60115 	 26.2349 	 33.8955
| 16> C 	 -6.42379 	 25.0106 	 32.3183
| 17> H 	 -6.19975 	 24.8936 	 31.2258
| 18> H 	 -6.19954 	 24.0085 	 32.6936
| 19> C 	 -7.92249 	 25.2786 	 32.643
| 20> H 	 -8.2269 	 26.2521 	 32.0902
| 21> H 	 -8.56751 	 24.4341 	 32.4123
| 22> H 	 -7.98126 	 25.4446 	 33.7136
| 23> S 	 -1.05261 	 23.5748 	 35.892
| 24> C 	 -0.414715 	 21.9885 	 36.1459
| 25> C 	 -0.838367 	 21.1062 	 35.1509
| 26> C 	 -1.3062 	 21.8287 	 33.9784
| 27> C 	 -1.50767 	 23.215 	 34.24
| 28> H 	 -0.636309 	 20.0898 	 35.2594
| 29> C 	 -1.84738 	 21.1394 	 32.7438
| 30> H 	 -1.37549 	 20.1905 	 32.5409
| 31> H 	 -1.53787 	 21.7764 	 31.9357
| 32> C 	 -3.38361 	 21.0226 	 32.8208
| 33> H 	 -3.75226 	 20.7181 	 31.8485
| 34> H 	 -3.76982 	 21.9271 	 33.1144
| 35> C 	 -3.85401 	 20.1367 	 33.9734
| 36> H 	 -3.09133 	 19.3921 	 34.0417
| 37> H 	 -4.92469 	 19.8291 	 33.7715
| 38> H 	 -3.82843 	 20.6336 	 34.9152
| 39> H 	 -3.10103 	 26.7972 	 31.1006
| 40> H 	 0.169669 	 21.6326 	 36.972
| 41> *
| 42>
| 43>                          ****END OF INPUT****

CARTESIAN COORDINATES (ANGSTROEM)
---------------------------------
  S     -1.537770   25.058900   32.025600
  C     -2.968420   26.051200   31.886900
  C     -3.943270   25.606000   32.758800
  C     -3.496650   24.622300   33.633700
  C     -2.192540   24.245000   33.432000
  H     -4.031230   24.182700   34.399400
  C     -5.389430   26.106500   32.840600
  H     -5.535740   27.055900   32.192000
  H     -5.601150   26.234900   33.895500
  C     -6.423790   25.010600   32.318300
  H     -6.199750   24.893600   31.225800
  H     -6.199540   24.008500   32.693600
  C     -7.922490   25.278600   32.643000
  H     -8.226900   26.252100   32.090200
  H     -8.567510   24.434100   32.412300
  H     -7.981260   25.444600   33.713600
  S     -1.052610   23.574800   35.892000
  C     -0.414715   21.988500   36.145900
  C     -0.838367   21.106200   35.150900
  C     -1.306200   21.828700   33.978400
  C     -1.507670   23.215000   34.240000
  H     -0.636309   20.089800   35.259400
  C     -1.847380   21.139400   32.743800
  H     -1.375490   20.190500   32.540900
  H     -1.537870   21.776400   31.935700
  C     -3.383610   21.022600   32.820800
  H     -3.752260   20.718100   31.848500
  H     -3.769820   21.927100   33.114400
  C     -3.854010   20.136700   33.973400
  H     -3.091330   19.392100   34.041700
  H     -4.924690   19.829100   33.771500
  H     -3.828430   20.633600   34.915200
  H     -3.101030   26.797200   31.100600
  H      0.169669   21.632600   36.972000

 Total Charge           Charge          ....    0
 Multiplicity           Mult            ....    1
 Number of Electrons    NEL             ....  134
 Basis Dimension        Dim             ....  322

ORBITAL ENERGIES
----------------

  NO   OCC          E(Eh)            E(eV)
   0   2.0000     -88.968469     -2420.9551
   1   2.0000     -88.967994     -2420.9422
   2   2.0000     -10.329916      -281.0913
   3   2.0000     -10.328854      -281.0624
   4   2.0000     -10.316941      -280.7382
   5   2.0000     -10.316431      -280.7244
   6   2.0000     -10.308704      -280.5141
   7   2.0000     -10.304944      -280.4118
   8   2.0000     -10.299896      -280.2744
   9   2.0000     -10.294016      -280.1144
  10   2.0000     -10.293270      -280.0941
  11   2.0000     -10.289033      -279.9788
  12   2.0000     -10.285552      -279.8841
  13   2.0000     -10.284941      -279.8675
  14   2.0000     -10.272146      -279.5193
  15   2.0000     -10.271206      -279.4937
  16   2.0000      -8.082982      -219.9491
  17   2.0000      -8.082706      -219.9416
  18   2.0000      -6.041460      -164.3965
  19   2.0000      -6.041140      -164.3878
  20   2.0000      -6.037449      -164.2874
  21   2.0000      -6.037151      -164.2792
  22   2.0000      -6.033847      -164.1893
  23   2.0000      -6.033614      -164.1830
  24   2.0000      -1.007766       -27.4227
  25   2.0000      -0.985915       -26.8281
  26   2.0000      -0.912183       -24.8218
  27   2.0000      -0.901959       -24.5436
  28   2.0000      -0.867904       -23.6169
  29   2.0000      -0.851211       -23.1626
  30   2.0000      -0.844091       -22.9689
  31   2.0000      -0.815800       -22.1990
  32   2.0000      -0.780691       -21.2437
  33   2.0000      -0.768290       -20.9062
  34   2.0000      -0.707081       -19.2406
  35   2.0000      -0.694346       -18.8941
  36   2.0000      -0.688378       -18.7317
  37   2.0000      -0.662847       -18.0370
  38   2.0000      -0.649485       -17.6734
  39   2.0000      -0.621157       -16.9026
  40   2.0000      -0.593980       -16.1630
  41   2.0000      -0.570369       -15.5205
  42   2.0000      -0.558392       -15.1946
  43   2.0000      -0.554324       -15.0839
  44   2.0000      -0.546473       -14.8703
  45   2.0000      -0.523707       -14.2508
  46   2.0000      -0.521523       -14.1914
  47   2.0000      -0.512396       -13.9430
  48   2.0000      -0.504273       -13.7220
  49   2.0000      -0.498782       -13.5726
  50   2.0000      -0.482305       -13.1242
  51   2.0000      -0.479442       -13.0463
  52   2.0000      -0.475120       -12.9287
  53   2.0000      -0.468506       -12.7487
  54   2.0000      -0.461602       -12.5608
  55   2.0000      -0.454791       -12.3755
  56   2.0000      -0.441268       -12.0075
  57   2.0000      -0.434357       -11.8195
  58   2.0000      -0.428535       -11.6610
  59   2.0000      -0.425549       -11.5798
  60   2.0000      -0.421096       -11.4586
  61   2.0000      -0.416558       -11.3351
  62   2.0000      -0.408864       -11.1257
  63   2.0000      -0.336952        -9.1689
  64   2.0000      -0.332123        -9.0375
  65   2.0000      -0.325478        -8.8567
  66   2.0000      -0.299904        -8.1608
  67   0.0000       0.040559         1.1037
  68   0.0000       0.049804         1.3552
  69   0.0000       0.107431         2.9233
  70   0.0000       0.121882         3.3166
  71   0.0000       0.128073         3.4851

MULLIKEN ATOMIC CHARGES
-----------------------
   0 S :    0.119061
   1 C :   -0.135746
   2 C :   -0.053036
   3 C :    0.067892
   4 C :   -0.165318
   5 H :   -0.015862
   6 C :    0.055121
   7 H :    0.043033
   8 H :    0.028413
   9 C :   -0.122560
  10 H :    0.032746
  11 H :    0.026478
  12 C :   -0.048524
  13 H :    0.046077
  14 H :    0.047026
  15 H :    0.029346
  16 S :    0.127507
  17 C :   -0.092795
  18 C :   -0.023316
  19 C :   -0.062433
  20 C :   -0.187753
  21 H :    0.003680
  22 C :    0.085929
  23 H :    0.018724
  24 H :    0.015393
  25 C :   -0.009639
  26 H :    0.029107
  27 H :   -0.003436
  28 C :   -0.050100
  29 H :    0.010778
  30 H :    0.047208
  31 H :    0.031937
  32 H :    0.051331
  33 H :    0.053726
Sum of atomic charges:    0.0000000

LOEWDIN ATOMIC CHARGES
----------------------
   0 S :    0.412486
   1 C :   -0.198524
   2 C :   -0.066741
   3 C :   -0.053253
   4 C :   -0.193916
   5 H :    0.019204
   6 C :   -0.028527
   7 H :    0.039468
   8 H :    0.026872
   9 C :   -0.050565
  10 H :    0.025593
  11 H :    0.019041
  12 C :   -0.070174
  13 H :    0.035344
  14 H :    0.028559
  15 H :    0.022991
  16 S :    0.423828
  17 C :   -0.188627
  18 C :   -0.067539
  19 C :   -0.044192
  20 C :   -0.212220
  21 H :    0.020277
  22 C :   -0.031379
  23 H :    0.024771
  24 H :    0.028100
  25 C :   -0.026600
  26 H :    0.022199
  27 H :    0.012102
  28 C :   -0.060427
  29 H :    0.015310
  30 H :    0.036064
  31 H :    0.021054
  32 H :    0.030708
  33 H :    0.028716

  Mayer bond orders larger than 0.100000
B(  0-S ,  1-C ) :   1.1447 B(  0-S ,  4-C ) :   1.1566 B(  1-C ,  2-C ) :   1.5933
B(  1-C , 32-H ) :   0.9698 B(  2-C ,  3-C ) :   1.2523 B(  2-C ,  6-C ) :   1.0266
B(  3-C ,  4-C ) :   1.5625 B(  3-C ,  5-H ) :   1.0030 B(  4-C , 20-C ) :   1.0259
B(  6-C ,  7-H ) :   0.9451 B(  6-C ,  8-H ) :   0.9403 B(  6-C ,  9-C ) :   1.0459
B(  9-C , 10-H ) :   0.9562 B(  9-C , 11-H ) :   0.9609 B(  9-C , 12-C ) :   1.0714
B( 12-C , 13-H ) :   0.9753 B( 12-C , 14-H ) :   0.9749 B( 12-C , 15-H ) :   0.9742
B( 16-S , 17-C ) :   1.1749 B( 16-S , 20-C ) :   1.1534 B( 17-C , 18-C ) :   1.5898
B( 17-C , 20-C ) :   0.1027 B( 17-C , 33-H ) :   0.9696 B( 18-C , 19-C ) :   1.2537
B( 18-C , 21-H ) :   0.9938 B( 19-C , 20-C ) :   1.5551 B( 19-C , 22-C ) :   1.0529
B( 22-C , 23-H ) :   0.9361 B( 22-C , 24-H ) :   0.9206 B( 22-C , 25-C ) :   1.0784
B( 25-C , 26-H ) :   0.9575 B( 25-C , 27-H ) :   0.9520 B( 25-C , 28-C ) :   1.0672
B( 28-C , 29-H ) :   0.9785 B( 28-C , 30-H ) :   0.9719 B( 28-C , 31-H ) :   0.9729

Dispersion correction           -0.015866274
FINAL SINGLE POINT ENERGY     -1339.865646975742

DIPOLE MOMENT
-------------
                                X             Y             Z
Electronic contribution:     25.19380       8.48803       5.84283
Nuclear contribution   :    -25.68544      -8.77569      -5.89941
                        -----------------------------------------
Total Dipole Moment    :     -0.49163      -0.28766      -0.05658
                        -----------------------------------------
Magnitude (a.u.)       :      0.57241
Magnitude (Debye)      :      1.45495

Rotational constants in cm-1:     0.019077     0.008917     0.007678
Rotational constants in MHz :   571.899857   267.316741   230.171720

                             ****ORCA TERMINATED NORMALLY****
TOTAL RUN TIME: 0 days 0 hours 0 minutes 36 seconds 780 msec
