                         Program Version 4.2.1 -  RELEASE  -
|  1> ! wB97X-D3 SP def2-SVP
|  2> %pal
|  3> nprocs 16
|  4> end
|  5>
|  6> * xyz 0 1
|  7> S 	 -104.006 	 43.6102 	 125.969
|  8> C 	 -103.027 	 42.5469 	 126.84
|  9> C 	 -102.024 	 43.2529 	 127.463
| 10> C 	 -102.014 	 44.6684 	 127.195
| 11> C 	 -103.089 	 45.0407 	 126.467
| 12> H 	 -101.422 	 45.4266 	 127.663
| 13> C 	 -101.083 	 42.7417 	 128.571
| 14> H 	 -100.407 	 43.5428 	 128.813
| 15> H 	 -100.419 	 41.9971 	 128.17
| 16> C 	 -101.784 	 42.3902 	 129.848
| 17> H 	 -102.222 	 43.2274 	 130.365
| 18> H 	 -102.601 	 41.7726 	 129.507
| 19> C 	 -100.972 	 41.7201 	 130.876
| 20> H 	 -100.489 	 40.8391 	 130.594
| 21> H 	 -100.145 	 42.3839 	 131.31
| 22> H 	 -101.574 	 41.3477 	 131.664
| 23> S 	 -104.734 	 47.0764 	 127.341
| 24> C 	 -104.201 	 48.7176 	 127.105
| 25> C 	 -103.22 	 48.7758 	 126.106
| 26> C 	 -102.723 	 47.5155 	 125.694
| 27> C 	 -103.426 	 46.4453 	 126.296
| 28> H 	 -102.864 	 49.7484 	 125.755
| 29> C 	 -101.525 	 47.3766 	 124.857
| 30> H 	 -100.721 	 46.8259 	 125.314
| 31> H 	 -101.039 	 48.3435 	 124.729
| 32> C 	 -101.719 	 46.9135 	 123.39
| 33> H 	 -102.708 	 47.0271 	 122.978
| 34> H 	 -101.682 	 45.8503 	 123.438
| 35> C 	 -100.541 	 47.3174 	 122.411
| 36> H 	 -99.6544 	 47.6581 	 122.941
| 37> H 	 -100.782 	 48.1104 	 121.664
| 38> H 	 -100.403 	 46.4316 	 121.798
| 39> H 	 -103.14 	 41.5523 	 127.043
| 40> H 	 -104.608 	 49.5656 	 127.618
| 41> *
| 42>
| 43>                          ****END OF INPUT****

CARTESIAN COORDINATES (ANGSTROEM)
---------------------------------
  S    -104.006000   43.610200  125.969000
  C    -103.027000   42.546900  126.840000
  C    -102.024000   43.252900  127.463000
  C    -102.014000   44.668400  127.195000
  C    -103.089000   45.040700  126.467000
  H    -101.422000   45.426600  127.663000
  C    -101.083000   42.741700  128.571000
  H    -100.407000   43.542800  128.813000
  H    -100.419000   41.997100  128.170000
  C    -101.784000   42.390200  129.848000
  H    -102.222000   43.227400  130.365000
  H    -102.601000   41.772600  129.507000
  C    -100.972000   41.720100  130.876000
  H    -100.489000   40.839100  130.594000
  H    -100.145000   42.383900  131.310000
  H    -101.574000   41.347700  131.664000
  S    -104.734000   47.076400  127.341000
  C    -104.201000   48.717600  127.105000
  C    -103.220000   48.775800  126.106000
  C    -102.723000   47.515500  125.694000
  C    -103.426000   46.445300  126.296000
  H    -102.864000   49.748400  125.755000
  C    -101.525000   47.376600  124.857000
  H    -100.721000   46.825900  125.314000
  H    -101.039000   48.343500  124.729000
  C    -101.719000   46.913500  123.390000
  H    -102.708000   47.027100  122.978000
  H    -101.682000   45.850300  123.438000
  C    -100.541000   47.317400  122.411000
  H    -99.654400   47.658100  122.941000
  H    -100.782000   48.110400  121.664000
  H    -100.403000   46.431600  121.798000
  H    -103.140000   41.552300  127.043000
  H    -104.608000   49.565600  127.618000

 Total Charge           Charge          ....    0
 Multiplicity           Mult            ....    1
 Number of Electrons    NEL             ....  134
 Basis Dimension        Dim             ....  322

ORBITAL ENERGIES
----------------

  NO   OCC          E(Eh)            E(eV)
   0   2.0000     -88.965789     -2420.8822
   1   2.0000     -88.965690     -2420.8795
   2   2.0000     -10.329012      -281.0667
   3   2.0000     -10.325053      -280.9590
   4   2.0000     -10.319662      -280.8123
   5   2.0000     -10.305659      -280.4312
   6   2.0000     -10.304684      -280.4047
   7   2.0000     -10.297230      -280.2019
   8   2.0000     -10.296345      -280.1778
   9   2.0000     -10.287476      -279.9364
  10   2.0000     -10.286307      -279.9046
  11   2.0000     -10.282797      -279.8091
  12   2.0000     -10.281402      -279.7712
  13   2.0000     -10.280514      -279.7470
  14   2.0000     -10.276135      -279.6278
  15   2.0000     -10.269833      -279.4564
  16   2.0000      -8.081023      -219.8958
  17   2.0000      -8.080106      -219.8709
  18   2.0000      -6.039639      -164.3469
  19   2.0000      -6.038568      -164.3178
  20   2.0000      -6.035284      -164.2284
  21   2.0000      -6.034576      -164.2092
  22   2.0000      -6.031789      -164.1333
  23   2.0000      -6.031040      -164.1129
  24   2.0000      -1.008774       -27.4501
  25   2.0000      -0.984849       -26.7991
  26   2.0000      -0.917655       -24.9707
  27   2.0000      -0.906314       -24.6621
  28   2.0000      -0.875851       -23.8331
  29   2.0000      -0.852757       -23.2047
  30   2.0000      -0.848162       -23.0797
  31   2.0000      -0.813497       -22.1364
  32   2.0000      -0.781869       -21.2757
  33   2.0000      -0.771996       -21.0071
  34   2.0000      -0.711931       -19.3726
  35   2.0000      -0.703671       -19.1479
  36   2.0000      -0.694712       -18.9041
  37   2.0000      -0.662028       -18.0147
  38   2.0000      -0.649933       -17.6856
  39   2.0000      -0.616498       -16.7758
  40   2.0000      -0.600904       -16.3514
  41   2.0000      -0.577498       -15.7145
  42   2.0000      -0.562813       -15.3149
  43   2.0000      -0.550926       -14.9915
  44   2.0000      -0.529896       -14.4192
  45   2.0000      -0.525005       -14.2861
  46   2.0000      -0.521446       -14.1893
  47   2.0000      -0.516369       -14.0511
  48   2.0000      -0.513513       -13.9734
  49   2.0000      -0.497740       -13.5442
  50   2.0000      -0.493957       -13.4413
  51   2.0000      -0.481811       -13.1108
  52   2.0000      -0.476451       -12.9649
  53   2.0000      -0.464774       -12.6471
  54   2.0000      -0.460377       -12.5275
  55   2.0000      -0.446756       -12.1568
  56   2.0000      -0.444628       -12.0989
  57   2.0000      -0.441020       -12.0008
  58   2.0000      -0.433886       -11.8066
  59   2.0000      -0.422146       -11.4872
  60   2.0000      -0.417182       -11.3521
  61   2.0000      -0.406577       -11.0635
  62   2.0000      -0.400465       -10.8972
  63   2.0000      -0.345792        -9.4095
  64   2.0000      -0.329508        -8.9664
  65   2.0000      -0.323132        -8.7929
  66   2.0000      -0.298018        -8.1095
  67   0.0000       0.035575         0.9680
  68   0.0000       0.057282         1.5587
  69   0.0000       0.123411         3.3582
  70   0.0000       0.126565         3.4440
  71   0.0000       0.129556         3.5254

MULLIKEN ATOMIC CHARGES
-----------------------
   0 S :    0.120483
   1 C :   -0.061170
   2 C :   -0.121170
   3 C :    0.050636
   4 C :   -0.158057
   5 H :    0.017964
   6 C :    0.084277
   7 H :   -0.000630
   8 H :    0.023325
   9 C :   -0.047313
  10 H :    0.027200
  11 H :    0.010138
  12 C :   -0.013528
  13 H :    0.002376
  14 H :    0.034426
  15 H :    0.020061
  16 S :    0.108641
  17 C :   -0.099339
  18 C :   -0.035182
  19 C :   -0.016699
  20 C :   -0.173862
  21 H :    0.023498
  22 C :    0.076604
  23 H :    0.027004
  24 H :    0.005071
  25 C :   -0.062787
  26 H :    0.028486
  27 H :    0.021995
  28 C :   -0.074873
  29 H :    0.037903
  30 H :    0.039649
  31 H :    0.036770
  32 H :    0.011298
  33 H :    0.056808
Sum of atomic charges:   -0.0000000

LOEWDIN ATOMIC CHARGES
----------------------
   0 S :    0.420557
   1 C :   -0.205670
   2 C :   -0.058123
   3 C :   -0.054865
   4 C :   -0.198256
   5 H :    0.032596
   6 C :   -0.030444
   7 H :    0.023586
   8 H :    0.027328
   9 C :   -0.042684
  10 H :    0.029282
  11 H :    0.020429
  12 C :   -0.063905
  13 H :    0.013501
  14 H :    0.033126
  15 H :    0.025152
  16 S :    0.401669
  17 C :   -0.183342
  18 C :   -0.071038
  19 C :   -0.050415
  20 C :   -0.189056
  21 H :    0.032946
  22 C :   -0.036868
  23 H :    0.032609
  24 H :    0.028260
  25 C :   -0.038069
  26 H :    0.024752
  27 H :    0.021080
  28 C :   -0.069580
  29 H :    0.024374
  30 H :    0.029496
  31 H :    0.029561
  32 H :    0.014841
  33 H :    0.027169

  Mayer bond orders larger than 0.100000
B(  0-S ,  1-C ) :   1.1353 B(  0-S ,  4-C ) :   1.1392 B(  1-C ,  2-C ) :   1.6194
B(  1-C , 32-H ) :   0.9787 B(  2-C ,  3-C ) :   1.2398 B(  2-C ,  6-C ) :   1.0236
B(  3-C ,  4-C ) :   1.5975 B(  3-C ,  5-H ) :   0.9913 B(  4-C , 20-C ) :   1.0323
B(  6-C ,  7-H ) :   0.9376 B(  6-C ,  8-H ) :   0.9369 B(  6-C ,  9-C ) :   1.0660
B(  9-C , 10-H ) :   0.9491 B(  9-C , 11-H ) :   0.9535 B(  9-C , 12-C ) :   1.1016
B( 12-C , 13-H ) :   0.9685 B( 12-C , 14-H ) :   0.9700 B( 12-C , 15-H ) :   0.9663
B( 16-S , 17-C ) :   1.1761 B( 16-S , 20-C ) :   1.1403 B( 17-C , 18-C ) :   1.5777
B( 17-C , 20-C ) :   0.1058 B( 17-C , 33-H ) :   0.9708 B( 18-C , 19-C ) :   1.2683
B( 18-C , 21-H ) :   0.9868 B( 19-C , 20-C ) :   1.5548 B( 19-C , 22-C ) :   1.0654
B( 22-C , 23-H ) :   0.9232 B( 22-C , 24-H ) :   0.9347 B( 22-C , 25-C ) :   1.0457
B( 25-C , 26-H ) :   0.9616 B( 25-C , 27-H ) :   0.9629 B( 25-C , 28-C ) :   1.0598
B( 28-C , 29-H ) :   0.9788 B( 28-C , 30-H ) :   0.9790 B( 28-C , 31-H ) :   0.9798

Dispersion correction           -0.013884657
FINAL SINGLE POINT ENERGY     -1339.854131494563

DIPOLE MOMENT
-------------
                                X             Y             Z
Electronic contribution:    -20.46302       4.55152      -1.16914
Nuclear contribution   :     20.99045      -4.43975       1.41123
                        -----------------------------------------
Total Dipole Moment    :      0.52743       0.11177       0.24209
                        -----------------------------------------
Magnitude (a.u.)       :      0.59100
Magnitude (Debye)      :      1.50220

Rotational constants in cm-1:     0.018494     0.007747     0.006765
Rotational constants in MHz :   554.426167   232.261883   202.822598

                             ****ORCA TERMINATED NORMALLY****
TOTAL RUN TIME: 0 days 0 hours 0 minutes 32 seconds 640 msec
