                         Program Version 4.2.1 -  RELEASE  -
|  1> ! wB97X-D3 SP def2-SVP
|  2> %pal
|  3> nprocs 16
|  4> end
|  5>
|  6> * xyz 0 1
|  7> S 	 -47.8392 	 -1.05988 	 97.3288
|  8> C 	 -49.5485 	 -1.22876 	 97.1601
|  9> C 	 -50.2539 	 -0.162628 	 97.7139
| 10> C 	 -49.3648 	 0.814694 	 98.224
| 11> C 	 -48.023 	 0.457125 	 98.1324
| 12> H 	 -49.6777 	 1.75082 	 98.7389
| 13> C 	 -51.6979 	 -0.0777624 	 97.8483
| 14> H 	 -51.9404 	 0.24974 	 98.8643
| 15> H 	 -52.1031 	 -1.09294 	 97.758
| 16> C 	 -52.4258 	 0.73908 	 96.7257
| 17> H 	 -53.5435 	 0.697407 	 96.8416
| 18> H 	 -52.1647 	 1.76303 	 96.6665
| 19> C 	 -52.3092 	 0.0230377 	 95.3478
| 20> H 	 -52.9421 	 0.554894 	 94.6812
| 21> H 	 -51.3147 	 0.0359053 	 94.8552
| 22> H 	 -52.7057 	 -1.03089 	 95.3449
| 23> S 	 -45.8716 	 0.237602 	 99.813
| 24> C 	 -44.5385 	 1.31466 	 99.6079
| 25> C 	 -44.9187 	 2.42621 	 98.8436
| 26> C 	 -46.2968 	 2.40564 	 98.3654
| 27> C 	 -46.8435 	 1.19581 	 98.7155
| 28> H 	 -44.2239 	 3.21095 	 98.5429
| 29> C 	 -46.8725 	 3.49982 	 97.4995
| 30> H 	 -47.0147 	 4.38349 	 98.1047
| 31> H 	 -47.8899 	 3.17636 	 97.2988
| 32> C 	 -46.2454 	 3.88157 	 96.1532
| 33> H 	 -46.242 	 2.96985 	 95.5417
| 34> H 	 -45.2017 	 4.29626 	 96.2892
| 35> C 	 -47.053 	 4.96627 	 95.377
| 36> H 	 -48.0192 	 4.61166 	 95.3331
| 37> H 	 -46.6215 	 5.26292 	 94.4171
| 38> H 	 -47.1193 	 5.93728 	 95.9712
| 39> H 	 -49.929 	 -2.17662 	 96.9352
| 40> H 	 -43.523 	 1.19029 	 99.8707
| 41> *
| 42>
| 43>                          ****END OF INPUT****

CARTESIAN COORDINATES (ANGSTROEM)
---------------------------------
  S    -47.839200   -1.059880   97.328800
  C    -49.548500   -1.228760   97.160100
  C    -50.253900   -0.162628   97.713900
  C    -49.364800    0.814694   98.224000
  C    -48.023000    0.457125   98.132400
  H    -49.677700    1.750820   98.738900
  C    -51.697900   -0.077762   97.848300
  H    -51.940400    0.249740   98.864300
  H    -52.103100   -1.092940   97.758000
  C    -52.425800    0.739080   96.725700
  H    -53.543500    0.697407   96.841600
  H    -52.164700    1.763030   96.666500
  C    -52.309200    0.023038   95.347800
  H    -52.942100    0.554894   94.681200
  H    -51.314700    0.035905   94.855200
  H    -52.705700   -1.030890   95.344900
  S    -45.871600    0.237602   99.813000
  C    -44.538500    1.314660   99.607900
  C    -44.918700    2.426210   98.843600
  C    -46.296800    2.405640   98.365400
  C    -46.843500    1.195810   98.715500
  H    -44.223900    3.210950   98.542900
  C    -46.872500    3.499820   97.499500
  H    -47.014700    4.383490   98.104700
  H    -47.889900    3.176360   97.298800
  C    -46.245400    3.881570   96.153200
  H    -46.242000    2.969850   95.541700
  H    -45.201700    4.296260   96.289200
  C    -47.053000    4.966270   95.377000
  H    -48.019200    4.611660   95.333100
  H    -46.621500    5.262920   94.417100
  H    -47.119300    5.937280   95.971200
  H    -49.929000   -2.176620   96.935200
  H    -43.523000    1.190290   99.870700

 Total Charge           Charge          ....    0
 Multiplicity           Mult            ....    1
 Number of Electrons    NEL             ....  134
 Basis Dimension        Dim             ....  322

ORBITAL ENERGIES
----------------

  NO   OCC          E(Eh)            E(eV)
   0   2.0000     -88.966162     -2420.8924
   1   2.0000     -88.965803     -2420.8826
   2   2.0000     -10.328725      -281.0589
   3   2.0000     -10.327346      -281.0214
   4   2.0000     -10.313118      -280.6342
   5   2.0000     -10.307076      -280.4698
   6   2.0000     -10.305064      -280.4151
   7   2.0000     -10.296868      -280.1920
   8   2.0000     -10.294842      -280.1369
   9   2.0000     -10.294145      -280.1179
  10   2.0000     -10.294110      -280.1170
  11   2.0000     -10.292758      -280.0802
  12   2.0000     -10.291460      -280.0449
  13   2.0000     -10.290885      -280.0292
  14   2.0000     -10.280163      -279.7375
  15   2.0000     -10.278520      -279.6927
  16   2.0000      -8.081688      -219.9139
  17   2.0000      -8.080886      -219.8921
  18   2.0000      -6.039969      -164.3559
  19   2.0000      -6.039441      -164.3416
  20   2.0000      -6.036035      -164.2489
  21   2.0000      -6.035312      -164.2292
  22   2.0000      -6.032689      -164.1578
  23   2.0000      -6.031598      -164.1281
  24   2.0000      -1.007429       -27.4136
  25   2.0000      -0.986123       -26.8338
  26   2.0000      -0.912312       -24.8253
  27   2.0000      -0.908693       -24.7268
  28   2.0000      -0.860630       -23.4189
  29   2.0000      -0.853075       -23.2134
  30   2.0000      -0.847099       -23.0507
  31   2.0000      -0.811175       -22.0732
  32   2.0000      -0.783468       -21.3193
  33   2.0000      -0.772596       -21.0234
  34   2.0000      -0.705157       -19.1883
  35   2.0000      -0.698455       -19.0059
  36   2.0000      -0.692004       -18.8304
  37   2.0000      -0.657495       -17.8914
  38   2.0000      -0.643683       -17.5155
  39   2.0000      -0.620259       -16.8781
  40   2.0000      -0.596453       -16.2303
  41   2.0000      -0.568188       -15.4612
  42   2.0000      -0.565379       -15.3848
  43   2.0000      -0.550995       -14.9933
  44   2.0000      -0.541381       -14.7317
  45   2.0000      -0.527861       -14.3638
  46   2.0000      -0.515536       -14.0284
  47   2.0000      -0.511199       -13.9104
  48   2.0000      -0.499424       -13.5900
  49   2.0000      -0.493356       -13.4249
  50   2.0000      -0.488058       -13.2807
  51   2.0000      -0.474538       -12.9128
  52   2.0000      -0.468400       -12.7458
  53   2.0000      -0.465476       -12.6663
  54   2.0000      -0.455261       -12.3883
  55   2.0000      -0.452153       -12.3037
  56   2.0000      -0.444253       -12.0887
  57   2.0000      -0.435241       -11.8435
  58   2.0000      -0.434691       -11.8285
  59   2.0000      -0.430066       -11.7027
  60   2.0000      -0.424325       -11.5465
  61   2.0000      -0.416708       -11.3392
  62   2.0000      -0.415284       -11.3004
  63   2.0000      -0.337233        -9.1766
  64   2.0000      -0.334981        -9.1153
  65   2.0000      -0.323384        -8.7997
  66   2.0000      -0.297462        -8.0944
  67   0.0000       0.033242         0.9045
  68   0.0000       0.070117         1.9080
  69   0.0000       0.114094         3.1046
  70   0.0000       0.121061         3.2942
  71   0.0000       0.130950         3.5633

MULLIKEN ATOMIC CHARGES
-----------------------
   0 S :    0.124560
   1 C :   -0.107335
   2 C :   -0.082528
   3 C :    0.023108
   4 C :   -0.165096
   5 H :    0.026197
   6 C :    0.077072
   7 H :    0.032755
   8 H :    0.012306
   9 C :   -0.064259
  10 H :    0.036609
  11 H :    0.028597
  12 C :   -0.084702
  13 H :    0.020211
  14 H :    0.049348
  15 H :    0.034504
  16 S :    0.119165
  17 C :   -0.072100
  18 C :   -0.057891
  19 C :   -0.003995
  20 C :   -0.194797
  21 H :    0.020569
  22 C :    0.079349
  23 H :    0.029216
  24 H :    0.002182
  25 C :   -0.091325
  26 H :    0.044177
  27 H :    0.037952
  28 C :   -0.039545
  29 H :    0.015796
  30 H :    0.045498
  31 H :    0.028332
  32 H :    0.031692
  33 H :    0.044377
Sum of atomic charges:    0.0000000

LOEWDIN ATOMIC CHARGES
----------------------
   0 S :    0.433198
   1 C :   -0.198572
   2 C :   -0.065123
   3 C :   -0.069299
   4 C :   -0.207094
   5 H :    0.037042
   6 C :   -0.035161
   7 H :    0.032719
   8 H :    0.032412
   9 C :   -0.032608
  10 H :    0.032426
  11 H :    0.016827
  12 C :   -0.072947
  13 H :    0.019327
  14 H :    0.027003
  15 H :    0.028966
  16 S :    0.413600
  17 C :   -0.194790
  18 C :   -0.066791
  19 C :   -0.052177
  20 C :   -0.196546
  21 H :    0.028506
  22 C :   -0.037261
  23 H :    0.032962
  24 H :    0.028998
  25 C :   -0.038948
  26 H :    0.029245
  27 H :    0.025418
  28 C :   -0.061756
  29 H :    0.012276
  30 H :    0.029816
  31 H :    0.030251
  32 H :    0.013633
  33 H :    0.024445

  Mayer bond orders larger than 0.100000
B(  0-S ,  1-C ) :   1.1565 B(  0-S ,  4-C ) :   1.1817 B(  1-C ,  2-C ) :   1.5712
B(  1-C , 32-H ) :   0.9723 B(  2-C ,  3-C ) :   1.2674 B(  2-C ,  6-C ) :   1.0413
B(  3-C ,  4-C ) :   1.5543 B(  3-C ,  5-H ) :   0.9876 B(  4-C , 20-C ) :   0.9917
B(  6-C ,  7-H ) :   0.9395 B(  6-C ,  8-H ) :   0.9365 B(  6-C ,  9-C ) :   1.0626
B(  9-C , 10-H ) :   0.9595 B(  9-C , 11-H ) :   0.9615 B(  9-C , 12-C ) :   1.0691
B( 12-C , 13-H ) :   0.9743 B( 12-C , 14-H ) :   0.9743 B( 12-C , 15-H ) :   0.9748
B( 16-S , 17-C ) :   1.1372 B( 16-S , 20-C ) :   1.1543 B( 17-C , 18-C ) :   1.6287
B( 17-C , 33-H ) :   0.9726 B( 18-C , 19-C ) :   1.2189 B( 18-C , 21-H ) :   0.9846
B( 19-C , 20-C ) :   1.6134 B( 19-C , 22-C ) :   1.0495 B( 22-C , 23-H ) :   0.9254
B( 22-C , 24-H ) :   0.9219 B( 22-C , 25-C ) :   1.0649 B( 25-C , 26-H ) :   0.9559
B( 25-C , 27-H ) :   0.9536 B( 25-C , 28-C ) :   1.0790 B( 28-C , 29-H ) :   0.9759
B( 28-C , 30-H ) :   0.9747 B( 28-C , 31-H ) :   0.9743

Dispersion correction           -0.013992777
FINAL SINGLE POINT ENERGY     -1339.878472454915

DIPOLE MOMENT
-------------
                                X             Y             Z
Electronic contribution:     16.95021     -16.22950      16.28005
Nuclear contribution   :    -17.27484      16.59909     -16.52087
                        -----------------------------------------
Total Dipole Moment    :     -0.32463       0.36959      -0.24081
                        -----------------------------------------
Magnitude (a.u.)       :      0.54770
Magnitude (Debye)      :      1.39214

Rotational constants in cm-1:     0.017709     0.008880     0.006608
Rotational constants in MHz :   530.915832   266.224809   198.097284

                             ****ORCA TERMINATED NORMALLY****
TOTAL RUN TIME: 0 days 0 hours 0 minutes 29 seconds 133 msec
