                         Program Version 4.2.1 -  RELEASE  -
|  1> ! wB97X-D3 SP def2-SVP
|  2> %pal
|  3> nprocs 16
|  4> end
|  5>
|  6> * xyz 0 1
|  7> S 	 -16.5942 	 -10.2493 	 87.5287
|  8> C 	 -15.4921 	 -11.0252 	 86.4887
|  9> C 	 -14.789 	 -12.089 	 87.1333
| 10> C 	 -14.9278 	 -11.9256 	 88.5154
| 11> C 	 -15.9525 	 -11.054 	 88.8745
| 12> H 	 -14.2887 	 -12.3874 	 89.2239
| 13> C 	 -13.9072 	 -13.1414 	 86.5095
| 14> H 	 -12.9334 	 -13.092 	 86.9462
| 15> H 	 -13.7653 	 -12.8503 	 85.5225
| 16> C 	 -14.3574 	 -14.5865 	 86.5898
| 17> H 	 -14.3371 	 -14.9106 	 87.6411
| 18> H 	 -15.3859 	 -14.6743 	 86.3213
| 19> C 	 -13.6629 	 -15.535 	 85.6643
| 20> H 	 -12.5437 	 -15.5771 	 85.865
| 21> H 	 -14.0409 	 -16.5397 	 85.7527
| 22> H 	 -13.7436 	 -15.1666 	 84.6891
| 23> S 	 -16.3358 	 -12.0323 	 91.3605
| 24> C 	 -16.432 	 -10.926 	 92.7159
| 25> C 	 -16.3635 	 -9.59486 	 92.3225
| 26> C 	 -16.1891 	 -9.49693 	 90.8924
| 27> C 	 -16.1956 	 -10.7075 	 90.2525
| 28> H 	 -16.2576 	 -8.79218 	 93.0136
| 29> C 	 -15.942 	 -8.14714 	 90.21
| 30> H 	 -16.8113 	 -7.96428 	 89.5441
| 31> H 	 -15.0748 	 -8.17464 	 89.5259
| 32> C 	 -15.663 	 -6.90468 	 90.9808
| 33> H 	 -14.812 	 -6.97598 	 91.6762
| 34> H 	 -16.4252 	 -6.56718 	 91.6554
| 35> C 	 -15.3354 	 -5.72077 	 90.0205
| 36> H 	 -16.1725 	 -5.47467 	 89.2764
| 37> H 	 -14.4467 	 -5.91164 	 89.4534
| 38> H 	 -15.3567 	 -4.80349 	 90.6303
| 39> H 	 -15.4391 	 -10.8776 	 85.4167
| 40> H 	 -16.3279 	 -11.2928 	 93.7377
| 41> *
| 42>
| 43>                          ****END OF INPUT****

CARTESIAN COORDINATES (ANGSTROEM)
---------------------------------
  S    -16.594200  -10.249300   87.528700
  C    -15.492100  -11.025200   86.488700
  C    -14.789000  -12.089000   87.133300
  C    -14.927800  -11.925600   88.515400
  C    -15.952500  -11.054000   88.874500
  H    -14.288700  -12.387400   89.223900
  C    -13.907200  -13.141400   86.509500
  H    -12.933400  -13.092000   86.946200
  H    -13.765300  -12.850300   85.522500
  C    -14.357400  -14.586500   86.589800
  H    -14.337100  -14.910600   87.641100
  H    -15.385900  -14.674300   86.321300
  C    -13.662900  -15.535000   85.664300
  H    -12.543700  -15.577100   85.865000
  H    -14.040900  -16.539700   85.752700
  H    -13.743600  -15.166600   84.689100
  S    -16.335800  -12.032300   91.360500
  C    -16.432000  -10.926000   92.715900
  C    -16.363500   -9.594860   92.322500
  C    -16.189100   -9.496930   90.892400
  C    -16.195600  -10.707500   90.252500
  H    -16.257600   -8.792180   93.013600
  C    -15.942000   -8.147140   90.210000
  H    -16.811300   -7.964280   89.544100
  H    -15.074800   -8.174640   89.525900
  C    -15.663000   -6.904680   90.980800
  H    -14.812000   -6.975980   91.676200
  H    -16.425200   -6.567180   91.655400
  C    -15.335400   -5.720770   90.020500
  H    -16.172500   -5.474670   89.276400
  H    -14.446700   -5.911640   89.453400
  H    -15.356700   -4.803490   90.630300
  H    -15.439100  -10.877600   85.416700
  H    -16.327900  -11.292800   93.737700

 Total Charge           Charge          ....    0
 Multiplicity           Mult            ....    1
 Number of Electrons    NEL             ....  134
 Basis Dimension        Dim             ....  322

ORBITAL ENERGIES
----------------

  NO   OCC          E(Eh)            E(eV)
   0   2.0000     -88.972025     -2421.0519
   1   2.0000     -88.962677     -2420.7975
   2   2.0000     -10.319631      -280.8114
   3   2.0000     -10.317505      -280.7536
   4   2.0000     -10.316172      -280.7173
   5   2.0000     -10.313210      -280.6367
   6   2.0000     -10.300555      -280.2923
   7   2.0000     -10.300336      -280.2864
   8   2.0000     -10.293666      -280.1049
   9   2.0000     -10.290016      -280.0056
  10   2.0000     -10.285389      -279.8797
  11   2.0000     -10.284321      -279.8506
  12   2.0000     -10.283523      -279.8289
  13   2.0000     -10.283402      -279.8256
  14   2.0000     -10.279758      -279.7264
  15   2.0000     -10.275644      -279.6145
  16   2.0000      -8.087712      -220.0778
  17   2.0000      -8.077718      -219.8059
  18   2.0000      -6.045967      -164.5191
  19   2.0000      -6.041999      -164.4111
  20   2.0000      -6.038796      -164.3240
  21   2.0000      -6.036181      -164.2528
  22   2.0000      -6.032167      -164.1436
  23   2.0000      -6.028546      -164.0451
  24   2.0000      -1.014428       -27.6040
  25   2.0000      -0.987003       -26.8577
  26   2.0000      -0.919726       -25.0270
  27   2.0000      -0.910085       -24.7647
  28   2.0000      -0.870616       -23.6907
  29   2.0000      -0.860901       -23.4263
  30   2.0000      -0.846239       -23.0273
  31   2.0000      -0.811396       -22.0792
  32   2.0000      -0.784557       -21.3489
  33   2.0000      -0.769159       -20.9299
  34   2.0000      -0.705999       -19.2112
  35   2.0000      -0.703447       -19.1418
  36   2.0000      -0.690572       -18.7914
  37   2.0000      -0.662627       -18.0310
  38   2.0000      -0.641289       -17.4504
  39   2.0000      -0.620984       -16.8978
  40   2.0000      -0.603285       -16.4162
  41   2.0000      -0.574446       -15.6315
  42   2.0000      -0.568229       -15.4623
  43   2.0000      -0.562421       -15.3042
  44   2.0000      -0.531676       -14.4676
  45   2.0000      -0.528057       -14.3692
  46   2.0000      -0.516814       -14.0632
  47   2.0000      -0.506735       -13.7890
  48   2.0000      -0.504474       -13.7274
  49   2.0000      -0.502946       -13.6858
  50   2.0000      -0.489139       -13.3102
  51   2.0000      -0.473402       -12.8819
  52   2.0000      -0.472943       -12.8694
  53   2.0000      -0.468816       -12.7571
  54   2.0000      -0.460579       -12.5330
  55   2.0000      -0.450665       -12.2632
  56   2.0000      -0.448978       -12.2173
  57   2.0000      -0.438705       -11.9378
  58   2.0000      -0.434728       -11.8296
  59   2.0000      -0.430557       -11.7161
  60   2.0000      -0.417191       -11.3523
  61   2.0000      -0.415618       -11.3095
  62   2.0000      -0.414104       -11.2683
  63   2.0000      -0.344084        -9.3630
  64   2.0000      -0.333102        -9.0642
  65   2.0000      -0.326379        -8.8812
  66   2.0000      -0.286670        -7.8007
  67   0.0000       0.030428         0.8280
  68   0.0000       0.077838         2.1181
  69   0.0000       0.110126         2.9967
  70   0.0000       0.127912         3.4807
  71   0.0000       0.134237         3.6528

MULLIKEN ATOMIC CHARGES
-----------------------
   0 S :    0.147367
   1 C :   -0.132565
   2 C :   -0.098781
   3 C :    0.008160
   4 C :   -0.148581
   5 H :    0.005610
   6 C :    0.127296
   7 H :    0.019109
   8 H :   -0.018373
   9 C :   -0.063120
  10 H :    0.026466
  11 H :    0.017874
  12 C :   -0.029646
  13 H :    0.025594
  14 H :    0.039132
  15 H :    0.017493
  16 S :    0.104201
  17 C :   -0.098154
  18 C :   -0.019387
  19 C :   -0.024604
  20 C :   -0.148164
  21 H :    0.013399
  22 C :    0.047359
  23 H :    0.037683
  24 H :    0.033035
  25 C :   -0.083600
  26 H :    0.027869
  27 H :    0.019324
  28 C :   -0.068897
  29 H :    0.033692
  30 H :    0.040883
  31 H :    0.034371
  32 H :    0.045568
  33 H :    0.062387
Sum of atomic charges:    0.0000000

LOEWDIN ATOMIC CHARGES
----------------------
   0 S :    0.468639
   1 C :   -0.219336
   2 C :   -0.053301
   3 C :   -0.058378
   4 C :   -0.222496
   5 H :    0.022912
   6 C :   -0.026566
   7 H :    0.031187
   8 H :    0.018475
   9 C :   -0.040227
  10 H :    0.024604
  11 H :    0.022404
  12 C :   -0.058293
  13 H :    0.028048
  14 H :    0.028320
  15 H :    0.016973
  16 S :    0.416303
  17 C :   -0.186493
  18 C :   -0.065938
  19 C :   -0.058015
  20 C :   -0.203813
  21 H :    0.027706
  22 C :   -0.045370
  23 H :    0.033433
  24 H :    0.036004
  25 C :   -0.048534
  26 H :    0.025189
  27 H :    0.017045
  28 C :   -0.064235
  29 H :    0.030845
  30 H :    0.021015
  31 H :    0.029431
  32 H :    0.023809
  33 H :    0.028653

  Mayer bond orders larger than 0.100000
B(  0-S ,  1-C ) :   1.1806 B(  0-S ,  4-C ) :   1.1751 B(  1-C ,  2-C ) :   1.5436
B(  1-C ,  4-C ) :   0.1007 B(  1-C , 32-H ) :   0.9662 B(  2-C ,  3-C ) :   1.2923
B(  2-C ,  6-C ) :   1.0429 B(  3-C ,  4-C ) :   1.5180 B(  3-C ,  5-H ) :   0.9942
B(  4-C , 20-C ) :   1.0304 B(  6-C ,  7-H ) :   0.9290 B(  6-C ,  8-H ) :   0.9264
B(  6-C ,  9-C ) :   1.0638 B(  9-C , 10-H ) :   0.9511 B(  9-C , 11-H ) :   0.9514
B(  9-C , 12-C ) :   1.0942 B( 12-C , 13-H ) :   0.9726 B( 12-C , 14-H ) :   0.9729
B( 12-C , 15-H ) :   0.9724 B( 16-S , 17-C ) :   1.1625 B( 16-S , 20-C ) :   1.1416
B( 17-C , 18-C ) :   1.5905 B( 17-C , 33-H ) :   0.9640 B( 18-C , 19-C ) :   1.2525
B( 18-C , 21-H ) :   0.9900 B( 19-C , 20-C ) :   1.6080 B( 19-C , 22-C ) :   1.0176
B( 22-C , 23-H ) :   0.9300 B( 22-C , 24-H ) :   0.9372 B( 22-C , 25-C ) :   1.0850
B( 25-C , 26-H ) :   0.9484 B( 25-C , 27-H ) :   0.9440 B( 25-C , 28-C ) :   1.0851
B( 28-C , 29-H ) :   0.9743 B( 28-C , 30-H ) :   0.9763 B( 28-C , 31-H ) :   0.9724

Dispersion correction           -0.013554122
FINAL SINGLE POINT ENERGY     -1339.876651372697

DIPOLE MOMENT
-------------
                                X             Y             Z
Electronic contribution:    -11.76086      -3.15120       8.08582
Nuclear contribution   :     12.20235       3.27026      -8.20314
                        -----------------------------------------
Total Dipole Moment    :      0.44149       0.11906      -0.11732
                        -----------------------------------------
Magnitude (a.u.)       :      0.47207
Magnitude (Debye)      :      1.19991

Rotational constants in cm-1:     0.021906     0.007465     0.006023
Rotational constants in MHz :   656.731269   223.785327   180.573515

                             ****ORCA TERMINATED NORMALLY****
TOTAL RUN TIME: 0 days 0 hours 0 minutes 31 seconds 817 msec
