                         Program Version 4.2.1 -  RELEASE  -
|  1> ! wB97X-D3 SP def2-SVP
|  2> %pal
|  3> nprocs 16
|  4> end
|  5>
|  6> * xyz 0 1
|  7> S 	 -56.5453 	 49.2461 	 136.062
|  8> C 	 -54.9156 	 49.2722 	 135.397
|  9> C 	 -54.9499 	 49.5975 	 134.088
| 10> C 	 -56.2904 	 49.6239 	 133.51
| 11> C 	 -57.2719 	 49.4821 	 134.479
| 12> H 	 -56.5148 	 49.8544 	 132.465
| 13> C 	 -53.8271 	 49.8984 	 133.129
| 14> H 	 -54.1192 	 49.8736 	 132.121
| 15> H 	 -53.0625 	 49.0656 	 133.254
| 16> C 	 -53.1811 	 51.3199 	 133.426
| 17> H 	 -53.3163 	 51.4242 	 134.499
| 18> H 	 -52.1184 	 51.1059 	 133.209
| 19> C 	 -53.8318 	 52.4549 	 132.636
| 20> H 	 -53.595 	 53.4497 	 132.987
| 21> H 	 -53.6216 	 52.3496 	 131.566
| 22> H 	 -54.8952 	 52.3253 	 132.589
| 23> S 	 -59.1863 	 49.1546 	 132.549
| 24> C 	 -60.8808 	 48.7128 	 133.009
| 25> C 	 -61.0793 	 48.8769 	 134.372
| 26> C 	 -59.8442 	 49.1875 	 135.027
| 27> C 	 -58.7075 	 49.3582 	 134.209
| 28> H 	 -62.0417 	 48.7386 	 134.852
| 29> C 	 -59.8972 	 49.2669 	 136.594
| 30> H 	 -59.3756 	 50.1252 	 136.894
| 31> H 	 -59.4092 	 48.3564 	 136.916
| 32> C 	 -61.3211 	 49.461 	 137.198
| 33> H 	 -61.8102 	 48.5027 	 137.11
| 34> H 	 -61.9216 	 50.1551 	 136.848
| 35> C 	 -61.2687 	 49.662 	 138.732
| 36> H 	 -62.2143 	 49.3715 	 139.096
| 37> H 	 -61.0938 	 50.7429 	 139.012
| 38> H 	 -60.458 	 49.0607 	 139.082
| 39> H 	 -53.9623 	 49.4388 	 135.909
| 40> H 	 -61.6686 	 48.5438 	 132.324
| 41> *
| 42>
| 43>                          ****END OF INPUT****

CARTESIAN COORDINATES (ANGSTROEM)
---------------------------------
  S    -56.545300   49.246100  136.062000
  C    -54.915600   49.272200  135.397000
  C    -54.949900   49.597500  134.088000
  C    -56.290400   49.623900  133.510000
  C    -57.271900   49.482100  134.479000
  H    -56.514800   49.854400  132.465000
  C    -53.827100   49.898400  133.129000
  H    -54.119200   49.873600  132.121000
  H    -53.062500   49.065600  133.254000
  C    -53.181100   51.319900  133.426000
  H    -53.316300   51.424200  134.499000
  H    -52.118400   51.105900  133.209000
  C    -53.831800   52.454900  132.636000
  H    -53.595000   53.449700  132.987000
  H    -53.621600   52.349600  131.566000
  H    -54.895200   52.325300  132.589000
  S    -59.186300   49.154600  132.549000
  C    -60.880800   48.712800  133.009000
  C    -61.079300   48.876900  134.372000
  C    -59.844200   49.187500  135.027000
  C    -58.707500   49.358200  134.209000
  H    -62.041700   48.738600  134.852000
  C    -59.897200   49.266900  136.594000
  H    -59.375600   50.125200  136.894000
  H    -59.409200   48.356400  136.916000
  C    -61.321100   49.461000  137.198000
  H    -61.810200   48.502700  137.110000
  H    -61.921600   50.155100  136.848000
  C    -61.268700   49.662000  138.732000
  H    -62.214300   49.371500  139.096000
  H    -61.093800   50.742900  139.012000
  H    -60.458000   49.060700  139.082000
  H    -53.962300   49.438800  135.909000
  H    -61.668600   48.543800  132.324000

 Total Charge           Charge          ....    0
 Multiplicity           Mult            ....    1
 Number of Electrons    NEL             ....  134
 Basis Dimension        Dim             ....  322

ORBITAL ENERGIES
----------------

  NO   OCC          E(Eh)            E(eV)
   0   2.0000     -88.969036     -2420.9705
   1   2.0000     -88.966532     -2420.9024
   2   2.0000     -10.336341      -281.2661
   3   2.0000     -10.331960      -281.1469
   4   2.0000     -10.322260      -280.8830
   5   2.0000     -10.310198      -280.5547
   6   2.0000     -10.308385      -280.5054
   7   2.0000     -10.298252      -280.2297
   8   2.0000     -10.297359      -280.2054
   9   2.0000     -10.293710      -280.1061
  10   2.0000     -10.291680      -280.0508
  11   2.0000     -10.291212      -280.0381
  12   2.0000     -10.290118      -280.0083
  13   2.0000     -10.277542      -279.6661
  14   2.0000     -10.276800      -279.6460
  15   2.0000     -10.275762      -279.6177
  16   2.0000      -8.082743      -219.9426
  17   2.0000      -8.080338      -219.8772
  18   2.0000      -6.041675      -164.4023
  19   2.0000      -6.039078      -164.3317
  20   2.0000      -6.037388      -164.2857
  21   2.0000      -6.035010      -164.2210
  22   2.0000      -6.033123      -164.1696
  23   2.0000      -6.030891      -164.1089
  24   2.0000      -1.003847       -27.3161
  25   2.0000      -0.980447       -26.6793
  26   2.0000      -0.909947       -24.7609
  27   2.0000      -0.908206       -24.7136
  28   2.0000      -0.871890       -23.7253
  29   2.0000      -0.851168       -23.1615
  30   2.0000      -0.840034       -22.8585
  31   2.0000      -0.815557       -22.1924
  32   2.0000      -0.781508       -21.2659
  33   2.0000      -0.769612       -20.9422
  34   2.0000      -0.713947       -19.4275
  35   2.0000      -0.705853       -19.2072
  36   2.0000      -0.699914       -19.0456
  37   2.0000      -0.661125       -17.9901
  38   2.0000      -0.631445       -17.1825
  39   2.0000      -0.608543       -16.5593
  40   2.0000      -0.596064       -16.2197
  41   2.0000      -0.579226       -15.7615
  42   2.0000      -0.577535       -15.7155
  43   2.0000      -0.548283       -14.9195
  44   2.0000      -0.537423       -14.6240
  45   2.0000      -0.533318       -14.5123
  46   2.0000      -0.521496       -14.1906
  47   2.0000      -0.515707       -14.0331
  48   2.0000      -0.507220       -13.8022
  49   2.0000      -0.495673       -13.4880
  50   2.0000      -0.487227       -13.2581
  51   2.0000      -0.483342       -13.1524
  52   2.0000      -0.467227       -12.7139
  53   2.0000      -0.464800       -12.6478
  54   2.0000      -0.459057       -12.4916
  55   2.0000      -0.455367       -12.3912
  56   2.0000      -0.448380       -12.2010
  57   2.0000      -0.441379       -12.0105
  58   2.0000      -0.432602       -11.7717
  59   2.0000      -0.428110       -11.6495
  60   2.0000      -0.413451       -11.2506
  61   2.0000      -0.407115       -11.0782
  62   2.0000      -0.405912       -11.0454
  63   2.0000      -0.364911        -9.9297
  64   2.0000      -0.331350        -9.0165
  65   2.0000      -0.327392        -8.9088
  66   2.0000      -0.283136        -7.7045
  67   0.0000       0.015930         0.4335
  68   0.0000       0.083454         2.2709
  69   0.0000       0.103595         2.8190
  70   0.0000       0.118767         3.2318
  71   0.0000       0.132859         3.6153

MULLIKEN ATOMIC CHARGES
-----------------------
   0 S :    0.091010
   1 C :   -0.097518
   2 C :   -0.099954
   3 C :   -0.037979
   4 C :   -0.091716
   5 H :    0.030160
   6 C :    0.025360
   7 H :    0.007913
   8 H :    0.043234
   9 C :   -0.065580
  10 H :    0.026419
  11 H :    0.036926
  12 C :   -0.021729
  13 H :    0.044299
  14 H :    0.023049
  15 H :    0.021015
  16 S :    0.070064
  17 C :   -0.061094
  18 C :   -0.029650
  19 C :   -0.110563
  20 C :   -0.095652
  21 H :    0.030576
  22 C :    0.064707
  23 H :    0.026539
  24 H :    0.050391
  25 C :   -0.078410
  26 H :    0.025806
  27 H :    0.005466
  28 C :   -0.021183
  29 H :    0.023151
  30 H :    0.039587
  31 H :    0.027377
  32 H :    0.052891
  33 H :    0.045088
Sum of atomic charges:    0.0000000

LOEWDIN ATOMIC CHARGES
----------------------
   0 S :    0.401885
   1 C :   -0.212285
   2 C :   -0.057892
   3 C :   -0.082016
   4 C :   -0.176841
   5 H :    0.027073
   6 C :   -0.029499
   7 H :    0.017621
   8 H :    0.038776
   9 C :   -0.036150
  10 H :    0.020639
  11 H :    0.026654
  12 C :   -0.065602
  13 H :    0.027982
  14 H :    0.028005
  15 H :    0.025021
  16 S :    0.391545
  17 C :   -0.155835
  18 C :   -0.068943
  19 C :   -0.055460
  20 C :   -0.201134
  21 H :    0.036975
  22 C :   -0.028533
  23 H :    0.019651
  24 H :    0.033448
  25 C :   -0.028276
  26 H :    0.023240
  27 H :    0.001695
  28 C :   -0.050605
  29 H :    0.019474
  30 H :    0.029362
  31 H :    0.022122
  32 H :    0.036507
  33 H :    0.021396

  Mayer bond orders larger than 0.100000
B(  0-S ,  1-C ) :   1.0977 B(  0-S ,  4-C ) :   1.1378 B(  1-C ,  2-C ) :   1.6698
B(  1-C , 32-H ) :   0.9503 B(  2-C ,  3-C ) :   1.2269 B(  2-C ,  6-C ) :   1.0307
B(  3-C ,  4-C ) :   1.5656 B(  3-C ,  5-H ) :   0.9785 B(  4-C , 20-C ) :   1.0917
B(  6-C ,  7-H ) :   0.9485 B(  6-C ,  8-H ) :   0.9460 B(  6-C ,  9-C ) :   1.0392
B(  9-C , 10-H ) :   0.9647 B(  9-C , 11-H ) :   0.9592 B(  9-C , 12-C ) :   1.0712
B( 12-C , 13-H ) :   0.9748 B( 12-C , 14-H ) :   0.9716 B( 12-C , 15-H ) :   0.9731
B( 16-S , 17-C ) :   1.1485 B( 16-S , 20-C ) :   1.1267 B( 17-C , 18-C ) :   1.5908
B( 17-C , 33-H ) :   0.9664 B( 18-C , 19-C ) :   1.2722 B( 18-C , 21-H ) :   0.9824
B( 19-C , 20-C ) :   1.5749 B( 19-C , 22-C ) :   1.0040 B( 22-C , 23-H ) :   0.9460
B( 22-C , 24-H ) :   0.9279 B( 22-C , 25-C ) :   1.0886 B( 25-C , 26-H ) :   0.9453
B( 25-C , 27-H ) :   0.9607 B( 25-C , 28-C ) :   1.0816 B( 28-C , 29-H ) :   0.9751
B( 28-C , 30-H ) :   0.9761 B( 28-C , 31-H ) :   0.9753

Dispersion correction           -0.013604056
FINAL SINGLE POINT ENERGY     -1339.851336233629

DIPOLE MOMENT
-------------
                                X             Y             Z
Electronic contribution:     -3.41060      -8.57773      -7.02846
Nuclear contribution   :      3.25446       8.74245       7.05634
                        -----------------------------------------
Total Dipole Moment    :     -0.15614       0.16473       0.02788
                        -----------------------------------------
Magnitude (a.u.)       :      0.22868
Magnitude (Debye)      :      0.58125

Rotational constants in cm-1:     0.022318     0.007438     0.006081
Rotational constants in MHz :   669.084417   222.994770   182.305060

                             ****ORCA TERMINATED NORMALLY****
TOTAL RUN TIME: 0 days 0 hours 0 minutes 33 seconds 306 msec
