                         Program Version 4.2.1 -  RELEASE  -
|  1> ! wB97X-D3 SP def2-SVP
|  2> %pal
|  3> nprocs 16
|  4> end
|  5>
|  6> * xyz 0 1
|  7> S 	 -67.9866 	 51.4502 	 128.208
|  8> C 	 -69.117 	 52.4389 	 129.188
|  9> C 	 -69.0106 	 53.7922 	 128.928
| 10> C 	 -68.0118 	 54.0089 	 127.886
| 11> C 	 -67.3503 	 52.9032 	 127.37
| 12> H 	 -67.6212 	 54.863 	 127.436
| 13> C 	 -69.6812 	 55.0437 	 129.551
| 14> H 	 -69.1471 	 55.8633 	 129.176
| 15> H 	 -69.4144 	 55.1116 	 130.643
| 16> C 	 -71.1817 	 55.1157 	 129.302
| 17> H 	 -71.7669 	 54.4147 	 129.936
| 18> H 	 -71.5274 	 56.0713 	 129.641
| 19> C 	 -71.7087 	 55.0218 	 127.892
| 20> H 	 -71.2905 	 55.8678 	 127.336
| 21> H 	 -71.5338 	 54.1727 	 127.253
| 22> H 	 -72.8224 	 55.1344 	 127.849
| 23> S 	 -65.0311 	 51.7994 	 126.182
| 24> C 	 -64.7612 	 52.1243 	 124.441
| 25> C 	 -65.6464 	 53.0587 	 123.98
| 26> C 	 -66.5527 	 53.5163 	 124.987
| 27> C 	 -66.4775 	 52.8525 	 126.2
| 28> H 	 -65.4957 	 53.5301 	 123.022
| 29> C 	 -67.5626 	 54.5613 	 124.538
| 30> H 	 -67.3022 	 54.9611 	 123.452
| 31> H 	 -67.4163 	 55.4085 	 125.198
| 32> C 	 -69.0237 	 54.0604 	 124.579
| 33> H 	 -69.3394 	 53.5788 	 125.542
| 34> H 	 -69.1083 	 53.2244 	 123.828
| 35> C 	 -70.1303 	 55.074 	 124.025
| 36> H 	 -69.7783 	 55.4499 	 123.066
| 37> H 	 -70.1463 	 55.9801 	 124.583
| 38> H 	 -71.1317 	 54.6259 	 124.028
| 39> H 	 -69.8565 	 52.0352 	 129.931
| 40> H 	 -63.9901 	 51.7338 	 123.831
| 41> *
| 42>
| 43>                          ****END OF INPUT****

CARTESIAN COORDINATES (ANGSTROEM)
---------------------------------
  S    -67.986600   51.450200  128.208000
  C    -69.117000   52.438900  129.188000
  C    -69.010600   53.792200  128.928000
  C    -68.011800   54.008900  127.886000
  C    -67.350300   52.903200  127.370000
  H    -67.621200   54.863000  127.436000
  C    -69.681200   55.043700  129.551000
  H    -69.147100   55.863300  129.176000
  H    -69.414400   55.111600  130.643000
  C    -71.181700   55.115700  129.302000
  H    -71.766900   54.414700  129.936000
  H    -71.527400   56.071300  129.641000
  C    -71.708700   55.021800  127.892000
  H    -71.290500   55.867800  127.336000
  H    -71.533800   54.172700  127.253000
  H    -72.822400   55.134400  127.849000
  S    -65.031100   51.799400  126.182000
  C    -64.761200   52.124300  124.441000
  C    -65.646400   53.058700  123.980000
  C    -66.552700   53.516300  124.987000
  C    -66.477500   52.852500  126.200000
  H    -65.495700   53.530100  123.022000
  C    -67.562600   54.561300  124.538000
  H    -67.302200   54.961100  123.452000
  H    -67.416300   55.408500  125.198000
  C    -69.023700   54.060400  124.579000
  H    -69.339400   53.578800  125.542000
  H    -69.108300   53.224400  123.828000
  C    -70.130300   55.074000  124.025000
  H    -69.778300   55.449900  123.066000
  H    -70.146300   55.980100  124.583000
  H    -71.131700   54.625900  124.028000
  H    -69.856500   52.035200  129.931000
  H    -63.990100   51.733800  123.831000

 Total Charge           Charge          ....    0
 Multiplicity           Mult            ....    1
 Number of Electrons    NEL             ....  134
 Basis Dimension        Dim             ....  322

ORBITAL ENERGIES
----------------

  NO   OCC          E(Eh)            E(eV)
   0   2.0000     -88.967385     -2420.9256
   1   2.0000     -88.966803     -2420.9098
   2   2.0000     -10.334204      -281.2080
   3   2.0000     -10.333594      -281.1914
   4   2.0000     -10.325259      -280.9646
   5   2.0000     -10.320327      -280.8304
   6   2.0000     -10.310241      -280.5559
   7   2.0000     -10.306237      -280.4470
   8   2.0000     -10.304211      -280.3918
   9   2.0000     -10.299682      -280.2686
  10   2.0000     -10.293344      -280.0961
  11   2.0000     -10.292971      -280.0860
  12   2.0000     -10.292427      -280.0712
  13   2.0000     -10.289865      -280.0015
  14   2.0000     -10.278244      -279.6852
  15   2.0000     -10.277693      -279.6703
  16   2.0000      -8.080868      -219.8916
  17   2.0000      -8.080047      -219.8693
  18   2.0000      -6.039591      -164.3456
  19   2.0000      -6.038820      -164.3247
  20   2.0000      -6.035601      -164.2371
  21   2.0000      -6.034718      -164.2130
  22   2.0000      -6.031411      -164.1230
  23   2.0000      -6.030630      -164.1018
  24   2.0000      -0.999345       -27.1936
  25   2.0000      -0.976307       -26.5667
  26   2.0000      -0.912324       -24.8256
  27   2.0000      -0.898456       -24.4482
  28   2.0000      -0.870562       -23.6892
  29   2.0000      -0.845414       -23.0049
  30   2.0000      -0.841235       -22.8912
  31   2.0000      -0.815637       -22.1946
  32   2.0000      -0.786390       -21.3988
  33   2.0000      -0.772238       -21.0137
  34   2.0000      -0.709617       -19.3096
  35   2.0000      -0.704570       -19.1723
  36   2.0000      -0.687875       -18.7180
  37   2.0000      -0.665803       -18.1174
  38   2.0000      -0.642122       -17.4730
  39   2.0000      -0.607888       -16.5415
  40   2.0000      -0.590510       -16.0686
  41   2.0000      -0.575459       -15.6590
  42   2.0000      -0.556300       -15.1377
  43   2.0000      -0.553076       -15.0500
  44   2.0000      -0.542159       -14.7529
  45   2.0000      -0.523545       -14.2464
  46   2.0000      -0.511856       -13.9283
  47   2.0000      -0.508304       -13.8316
  48   2.0000      -0.505150       -13.7458
  49   2.0000      -0.496891       -13.5211
  50   2.0000      -0.489560       -13.3216
  51   2.0000      -0.479837       -13.0570
  52   2.0000      -0.474881       -12.9222
  53   2.0000      -0.461408       -12.5556
  54   2.0000      -0.459484       -12.5032
  55   2.0000      -0.449097       -12.2206
  56   2.0000      -0.440246       -11.9797
  57   2.0000      -0.437923       -11.9165
  58   2.0000      -0.429801       -11.6955
  59   2.0000      -0.422346       -11.4926
  60   2.0000      -0.415223       -11.2988
  61   2.0000      -0.411969       -11.2103
  62   2.0000      -0.405353       -11.0302
  63   2.0000      -0.351758        -9.5718
  64   2.0000      -0.332652        -9.0519
  65   2.0000      -0.330386        -8.9902
  66   2.0000      -0.291701        -7.9376
  67   0.0000       0.021038         0.5725
  68   0.0000       0.067795         1.8448
  69   0.0000       0.101786         2.7697
  70   0.0000       0.118715         3.2304
  71   0.0000       0.126121         3.4319

MULLIKEN ATOMIC CHARGES
-----------------------
   0 S :    0.097694
   1 C :   -0.149660
   2 C :   -0.066633
   3 C :    0.008882
   4 C :   -0.140478
   5 H :   -0.021350
   6 C :    0.115949
   7 H :    0.002618
   8 H :    0.046317
   9 C :   -0.051822
  10 H :    0.029296
  11 H :    0.018403
  12 C :   -0.070955
  13 H :    0.022293
  14 H :    0.040502
  15 H :    0.034756
  16 S :    0.094237
  17 C :   -0.071235
  18 C :   -0.026764
  19 C :   -0.032804
  20 C :   -0.147667
  21 H :    0.022897
  22 C :    0.029547
  23 H :    0.037933
  24 H :    0.032125
  25 C :   -0.124931
  26 H :    0.067125
  27 H :    0.034457
  28 C :   -0.026195
  29 H :    0.016986
  30 H :    0.014279
  31 H :    0.049194
  32 H :    0.068890
  33 H :    0.046113
Sum of atomic charges:    0.0000000

LOEWDIN ATOMIC CHARGES
----------------------
   0 S :    0.369697
   1 C :   -0.187972
   2 C :   -0.060785
   3 C :   -0.059451
   4 C :   -0.180842
   5 H :    0.018432
   6 C :   -0.024720
   7 H :    0.022877
   8 H :    0.044339
   9 C :   -0.044177
  10 H :    0.025779
  11 H :    0.025036
  12 C :   -0.071668
  13 H :    0.024315
  14 H :    0.021573
  15 H :    0.033916
  16 S :    0.372930
  17 C :   -0.157228
  18 C :   -0.071483
  19 C :   -0.052136
  20 C :   -0.190384
  21 H :    0.033250
  22 C :   -0.037898
  23 H :    0.041232
  24 H :    0.023543
  25 C :   -0.048296
  26 H :    0.031324
  27 H :    0.029109
  28 C :   -0.065650
  29 H :    0.022674
  30 H :    0.014566
  31 H :    0.031220
  32 H :    0.041733
  33 H :    0.025145

  Mayer bond orders larger than 0.100000
B(  0-S ,  1-C ) :   1.1317 B(  0-S ,  4-C ) :   1.1118 B(  1-C ,  2-C ) :   1.6388
B(  1-C , 32-H ) :   0.9601 B(  2-C ,  3-C ) :   1.1901 B(  2-C ,  6-C ) :   1.0039
B(  3-C ,  4-C ) :   1.6160 B(  3-C ,  5-H ) :   1.0037 B(  4-C , 20-C ) :   1.0644
B(  6-C ,  7-H ) :   0.9377 B(  6-C ,  8-H ) :   0.9381 B(  6-C ,  9-C ) :   1.0761
B(  9-C , 10-H ) :   0.9563 B(  9-C , 11-H ) :   0.9505 B(  9-C , 12-C ) :   1.0782
B( 12-C , 13-H ) :   0.9742 B( 12-C , 14-H ) :   0.9727 B( 12-C , 15-H ) :   0.9701
B( 16-S , 17-C ) :   1.1410 B( 16-S , 20-C ) :   1.1113 B( 17-C , 18-C ) :   1.6289
B( 17-C , 33-H ) :   0.9689 B( 18-C , 19-C ) :   1.2505 B( 18-C , 21-H ) :   0.9839
B( 19-C , 20-C ) :   1.5979 B( 19-C , 22-C ) :   1.0291 B( 22-C , 23-H ) :   0.9396
B( 22-C , 24-H ) :   0.9311 B( 22-C , 25-C ) :   1.0521 B( 25-C , 26-H ) :   0.9561
B( 25-C , 27-H ) :   0.9550 B( 25-C , 28-C ) :   1.0718 B( 28-C , 29-H ) :   0.9714
B( 28-C , 30-H ) :   0.9757 B( 28-C , 31-H ) :   0.9765

Dispersion correction           -0.015948192
FINAL SINGLE POINT ENERGY     -1339.864679562890

DIPOLE MOMENT
-------------
                                X             Y             Z
Electronic contribution:     24.23044     -20.35365       5.42025
Nuclear contribution   :    -24.59877      21.06010      -5.62932
                        -----------------------------------------
Total Dipole Moment    :     -0.36833       0.70645      -0.20907
                        -----------------------------------------
Magnitude (a.u.)       :      0.82368
Magnitude (Debye)      :      2.09363

Rotational constants in cm-1:     0.019823     0.009723     0.007158
Rotational constants in MHz :   594.275174   291.479163   214.581472

                             ****ORCA TERMINATED NORMALLY****
TOTAL RUN TIME: 0 days 0 hours 0 minutes 36 seconds 808 msec
