                         Program Version 4.2.1 -  RELEASE  -
|  1> ! wB97X-D3 SP def2-SVP
|  2> %pal
|  3> nprocs 16
|  4> end
|  5>
|  6> * xyz 0 1
|  7> S 	 -3.24445 	 -15.4185 	 84.2675
|  8> C 	 -2.36656 	 -15.914 	 82.8532
|  9> C 	 -1.23397 	 -15.1817 	 82.6909
| 10> C 	 -1.02269 	 -14.2762 	 83.7592
| 11> C 	 -1.96584 	 -14.3227 	 84.7278
| 12> H 	 -0.265183 	 -13.5849 	 83.8822
| 13> C 	 -0.213709 	 -15.4339 	 81.6458
| 14> H 	 -0.589544 	 -14.6951 	 80.8874
| 15> H 	 -0.337687 	 -16.4622 	 81.3086
| 16> C 	 1.26431 	 -15.1752 	 82.0651
| 17> H 	 1.94204 	 -15.4262 	 81.2694
| 18> H 	 1.48987 	 -14.1446 	 82.3081
| 19> C 	 1.71029 	 -16.0197 	 83.3112
| 20> H 	 1.58078 	 -17.1438 	 83.2191
| 21> H 	 2.81742 	 -15.7454 	 83.3671
| 22> H 	 1.30838 	 -15.6497 	 84.2546
| 23> S 	 -2.7235 	 -14.3394 	 87.4214
| 24> C 	 -2.37817 	 -12.9434 	 88.3947
| 25> C 	 -1.68888 	 -12.001 	 87.6634
| 26> C 	 -1.64927 	 -12.2605 	 86.2567
| 27> C 	 -2.07584 	 -13.5536 	 85.9453
| 28> H 	 -1.29128 	 -11.1213 	 88.1099
| 29> C 	 -1.01629 	 -11.2702 	 85.2681
| 30> H 	 -1.82112 	 -10.5044 	 85.2427
| 31> H 	 -1.0329 	 -11.6724 	 84.2491
| 32> C 	 0.253628 	 -10.568 	 85.6518
| 33> H 	 0.110587 	 -10.1758 	 86.6893
| 34> H 	 0.577497 	 -9.7746 	 84.9867
| 35> C 	 1.44002 	 -11.5427 	 85.6805
| 36> H 	 1.29582 	 -12.2638 	 86.5136
| 37> H 	 2.41096 	 -11.0556 	 85.8342
| 38> H 	 1.63189 	 -12.0383 	 84.719
| 39> H 	 -2.71192 	 -16.6775 	 82.1562
| 40> H 	 -2.50493 	 -12.9491 	 89.4719
| 41> *
| 42>
| 43>                          ****END OF INPUT****

CARTESIAN COORDINATES (ANGSTROEM)
---------------------------------
  S     -3.244450  -15.418500   84.267500
  C     -2.366560  -15.914000   82.853200
  C     -1.233970  -15.181700   82.690900
  C     -1.022690  -14.276200   83.759200
  C     -1.965840  -14.322700   84.727800
  H     -0.265183  -13.584900   83.882200
  C     -0.213709  -15.433900   81.645800
  H     -0.589544  -14.695100   80.887400
  H     -0.337687  -16.462200   81.308600
  C      1.264310  -15.175200   82.065100
  H      1.942040  -15.426200   81.269400
  H      1.489870  -14.144600   82.308100
  C      1.710290  -16.019700   83.311200
  H      1.580780  -17.143800   83.219100
  H      2.817420  -15.745400   83.367100
  H      1.308380  -15.649700   84.254600
  S     -2.723500  -14.339400   87.421400
  C     -2.378170  -12.943400   88.394700
  C     -1.688880  -12.001000   87.663400
  C     -1.649270  -12.260500   86.256700
  C     -2.075840  -13.553600   85.945300
  H     -1.291280  -11.121300   88.109900
  C     -1.016290  -11.270200   85.268100
  H     -1.821120  -10.504400   85.242700
  H     -1.032900  -11.672400   84.249100
  C      0.253628  -10.568000   85.651800
  H      0.110587  -10.175800   86.689300
  H      0.577497   -9.774600   84.986700
  C      1.440020  -11.542700   85.680500
  H      1.295820  -12.263800   86.513600
  H      2.410960  -11.055600   85.834200
  H      1.631890  -12.038300   84.719000
  H     -2.711920  -16.677500   82.156200
  H     -2.504930  -12.949100   89.471900

 Total Charge           Charge          ....    0
 Multiplicity           Mult            ....    1
 Number of Electrons    NEL             ....  134
 Basis Dimension        Dim             ....  322

ORBITAL ENERGIES
----------------

  NO   OCC          E(Eh)            E(eV)
   0   2.0000     -88.964701     -2420.8526
   1   2.0000     -88.959690     -2420.7162
   2   2.0000     -10.329104      -281.0692
   3   2.0000     -10.323397      -280.9139
   4   2.0000     -10.319727      -280.8140
   5   2.0000     -10.308146      -280.4989
   6   2.0000     -10.306448      -280.4527
   7   2.0000     -10.295733      -280.1611
   8   2.0000     -10.294091      -280.1165
   9   2.0000     -10.294021      -280.1146
  10   2.0000     -10.293583      -280.1026
  11   2.0000     -10.292834      -280.0823
  12   2.0000     -10.291793      -280.0539
  13   2.0000     -10.286423      -279.9078
  14   2.0000     -10.281968      -279.7866
  15   2.0000     -10.280817      -279.7553
  16   2.0000      -8.079142      -219.8446
  17   2.0000      -8.075086      -219.7343
  18   2.0000      -6.037684      -164.2937
  19   2.0000      -6.033715      -164.1857
  20   2.0000      -6.033574      -164.1819
  21   2.0000      -6.029849      -164.0805
  22   2.0000      -6.029571      -164.0730
  23   2.0000      -6.025765      -163.9694
  24   2.0000      -1.009864       -27.4798
  25   2.0000      -0.986337       -26.8396
  26   2.0000      -0.915097       -24.9011
  27   2.0000      -0.911171       -24.7942
  28   2.0000      -0.871601       -23.7175
  29   2.0000      -0.850323       -23.1385
  30   2.0000      -0.841138       -22.8885
  31   2.0000      -0.819280       -22.2937
  32   2.0000      -0.785367       -21.3709
  33   2.0000      -0.770631       -20.9699
  34   2.0000      -0.711951       -19.3732
  35   2.0000      -0.698721       -19.0132
  36   2.0000      -0.693851       -18.8806
  37   2.0000      -0.657754       -17.8984
  38   2.0000      -0.643777       -17.5181
  39   2.0000      -0.626633       -17.0515
  40   2.0000      -0.602488       -16.3945
  41   2.0000      -0.565232       -15.3807
  42   2.0000      -0.557799       -15.1785
  43   2.0000      -0.552003       -15.0208
  44   2.0000      -0.544567       -14.8184
  45   2.0000      -0.536657       -14.6032
  46   2.0000      -0.521303       -14.1854
  47   2.0000      -0.514825       -14.0091
  48   2.0000      -0.503215       -13.6932
  49   2.0000      -0.496303       -13.5051
  50   2.0000      -0.490553       -13.3486
  51   2.0000      -0.481137       -13.0924
  52   2.0000      -0.471481       -12.8297
  53   2.0000      -0.466103       -12.6833
  54   2.0000      -0.463492       -12.6123
  55   2.0000      -0.448779       -12.2119
  56   2.0000      -0.442475       -12.0404
  57   2.0000      -0.435339       -11.8462
  58   2.0000      -0.433388       -11.7931
  59   2.0000      -0.423562       -11.5257
  60   2.0000      -0.421314       -11.4645
  61   2.0000      -0.415218       -11.2986
  62   2.0000      -0.412317       -11.2197
  63   2.0000      -0.354084        -9.6351
  64   2.0000      -0.330226        -8.9859
  65   2.0000      -0.326477        -8.8839
  66   2.0000      -0.286007        -7.7827
  67   0.0000       0.026434         0.7193
  68   0.0000       0.080820         2.1992
  69   0.0000       0.109002         2.9661
  70   0.0000       0.123072         3.3490
  71   0.0000       0.124611         3.3908

MULLIKEN ATOMIC CHARGES
-----------------------
   0 S :    0.099893
   1 C :   -0.138486
   2 C :   -0.080650
   3 C :    0.041578
   4 C :   -0.125939
   5 H :   -0.051844
   6 C :    0.082222
   7 H :    0.052208
   8 H :    0.026919
   9 C :   -0.071434
  10 H :    0.030609
  11 H :    0.025780
  12 C :   -0.099223
  13 H :    0.053695
  14 H :    0.036339
  15 H :    0.047374
  16 S :    0.098039
  17 C :   -0.081080
  18 C :   -0.039360
  19 C :   -0.054476
  20 C :   -0.138724
  21 H :    0.009774
  22 C :    0.056727
  23 H :    0.039945
  24 H :    0.025274
  25 C :   -0.052684
  26 H :    0.033219
  27 H :    0.037008
  28 C :   -0.080321
  29 H :    0.049088
  30 H :    0.028230
  31 H :    0.029769
  32 H :    0.045555
  33 H :    0.064976
Sum of atomic charges:    0.0000000

LOEWDIN ATOMIC CHARGES
----------------------
   0 S :    0.401890
   1 C :   -0.203640
   2 C :   -0.067044
   3 C :   -0.060337
   4 C :   -0.183733
   5 H :    0.013392
   6 C :   -0.035255
   7 H :    0.045544
   8 H :    0.031388
   9 C :   -0.041016
  10 H :    0.024812
  11 H :    0.021769
  12 C :   -0.073913
  13 H :    0.032167
  14 H :    0.033650
  15 H :    0.023836
  16 S :    0.391997
  17 C :   -0.181900
  18 C :   -0.073021
  19 C :   -0.051320
  20 C :   -0.188752
  21 H :    0.024197
  22 C :   -0.037863
  23 H :    0.042092
  24 H :    0.030263
  25 C :   -0.041611
  26 H :    0.028500
  27 H :    0.028740
  28 C :   -0.074155
  29 H :    0.030608
  30 H :    0.025212
  31 H :    0.021694
  32 H :    0.029877
  33 H :    0.031931

  Mayer bond orders larger than 0.100000
B(  0-S ,  1-C ) :   1.1245 B(  0-S ,  4-C ) :   1.1506 B(  1-C ,  2-C ) :   1.6257
B(  1-C , 32-H ) :   0.9692 B(  2-C ,  3-C ) :   1.2207 B(  2-C ,  6-C ) :   1.0004
B(  3-C ,  4-C ) :   1.5844 B(  3-C ,  5-H ) :   1.0090 B(  4-C , 20-C ) :   1.0594
B(  6-C ,  7-H ) :   0.9257 B(  6-C ,  8-H ) :   0.9488 B(  6-C ,  9-C ) :   1.0827
B(  9-C , 10-H ) :   0.9581 B(  9-C , 11-H ) :   0.9481 B(  9-C , 12-C ) :   1.0702
B( 12-C , 13-H ) :   0.9764 B( 12-C , 14-H ) :   0.9737 B( 12-C , 15-H ) :   0.9729
B( 16-S , 17-C ) :   1.1575 B( 16-S , 20-C ) :   1.1300 B( 17-C , 18-C ) :   1.6037
B( 17-C , 33-H ) :   0.9671 B( 18-C , 19-C ) :   1.2398 B( 18-C , 21-H ) :   0.9910
B( 19-C , 20-C ) :   1.5833 B( 19-C , 22-C ) :   1.0244 B( 22-C , 23-H ) :   0.9200
B( 22-C , 24-H ) :   0.9407 B( 22-C , 25-C ) :   1.0824 B( 25-C , 26-H ) :   0.9463
B( 25-C , 27-H ) :   0.9527 B( 25-C , 28-C ) :   1.0821 B( 28-C , 29-H ) :   0.9752
B( 28-C , 30-H ) :   0.9726 B( 28-C , 31-H ) :   0.9691

Dispersion correction           -0.015535145
FINAL SINGLE POINT ENERGY     -1339.885314612187

DIPOLE MOMENT
-------------
                                X             Y             Z
Electronic contribution:    -25.20917      -8.42349      10.18579
Nuclear contribution   :     25.87763       8.86988     -10.42621
                        -----------------------------------------
Total Dipole Moment    :      0.66846       0.44638      -0.24042
                        -----------------------------------------
Magnitude (a.u.)       :      0.83899
Magnitude (Debye)      :      2.13255

Rotational constants in cm-1:     0.017573     0.010722     0.007694
Rotational constants in MHz :   526.812751   321.442907   230.668807

                             ****ORCA TERMINATED NORMALLY****
TOTAL RUN TIME: 0 days 0 hours 0 minutes 36 seconds 73 msec
