                         Program Version 4.2.1 -  RELEASE  -
|  1> ! wB97X-D3 SP def2-SVP
|  2> %pal
|  3> nprocs 16
|  4> end
|  5>
|  6> * xyz 0 1
|  7> S 	 -5.02151 	 -18.0089 	 79.3459
|  8> C 	 -4.03477 	 -18.029 	 80.768
|  9> C 	 -3.41251 	 -16.8436 	 80.9933
| 10> C 	 -3.70228 	 -15.9332 	 79.9369
| 11> C 	 -4.64939 	 -16.3458 	 79.0337
| 12> H 	 -3.22749 	 -14.9741 	 79.7683
| 13> C 	 -2.33996 	 -16.5267 	 81.9326
| 14> H 	 -1.78294 	 -15.7226 	 81.5038
| 15> H 	 -1.66305 	 -17.358 	 81.9592
| 16> C 	 -2.87387 	 -16.164 	 83.3986
| 17> H 	 -3.28588 	 -15.1618 	 83.5274
| 18> H 	 -3.66693 	 -16.9237 	 83.6895
| 19> C 	 -1.74353 	 -16.1704 	 84.5255
| 20> H 	 -0.959225 	 -16.826 	 84.2261
| 21> H 	 -1.27303 	 -15.1778 	 84.5529
| 22> H 	 -2.08122 	 -16.4234 	 85.5214
| 23> S 	 -5.30141 	 -16.3691 	 76.4699
| 24> C 	 -5.98936 	 -14.9148 	 75.6557
| 25> C 	 -6.06061 	 -13.9116 	 76.6103
| 26> C 	 -5.65448 	 -14.2422 	 77.8787
| 27> C 	 -5.22275 	 -15.5555 	 78.0184
| 28> H 	 -6.42675 	 -12.9428 	 76.3286
| 29> C 	 -5.64137 	 -13.1879 	 79.0076
| 30> H 	 -5.65482 	 -13.7193 	 79.9222
| 31> H 	 -6.61325 	 -12.785 	 79.145
| 32> C 	 -4.66603 	 -12.0061 	 78.9559
| 33> H 	 -5.18185 	 -11.1427 	 79.4602
| 34> H 	 -4.42581 	 -11.6451 	 77.9374
| 35> C 	 -3.38093 	 -12.1525 	 79.7523
| 36> H 	 -2.99109 	 -11.1959 	 79.9971
| 37> H 	 -2.70782 	 -12.6576 	 79.1035
| 38> H 	 -3.40038 	 -12.8088 	 80.622
| 39> H 	 -3.71189 	 -18.9459 	 81.2472
| 40> H 	 -6.15444 	 -14.7977 	 74.594
| 41> *
| 42>
| 43>                          ****END OF INPUT****

CARTESIAN COORDINATES (ANGSTROEM)
---------------------------------
  S     -5.021510  -18.008900   79.345900
  C     -4.034770  -18.029000   80.768000
  C     -3.412510  -16.843600   80.993300
  C     -3.702280  -15.933200   79.936900
  C     -4.649390  -16.345800   79.033700
  H     -3.227490  -14.974100   79.768300
  C     -2.339960  -16.526700   81.932600
  H     -1.782940  -15.722600   81.503800
  H     -1.663050  -17.358000   81.959200
  C     -2.873870  -16.164000   83.398600
  H     -3.285880  -15.161800   83.527400
  H     -3.666930  -16.923700   83.689500
  C     -1.743530  -16.170400   84.525500
  H     -0.959225  -16.826000   84.226100
  H     -1.273030  -15.177800   84.552900
  H     -2.081220  -16.423400   85.521400
  S     -5.301410  -16.369100   76.469900
  C     -5.989360  -14.914800   75.655700
  C     -6.060610  -13.911600   76.610300
  C     -5.654480  -14.242200   77.878700
  C     -5.222750  -15.555500   78.018400
  H     -6.426750  -12.942800   76.328600
  C     -5.641370  -13.187900   79.007600
  H     -5.654820  -13.719300   79.922200
  H     -6.613250  -12.785000   79.145000
  C     -4.666030  -12.006100   78.955900
  H     -5.181850  -11.142700   79.460200
  H     -4.425810  -11.645100   77.937400
  C     -3.380930  -12.152500   79.752300
  H     -2.991090  -11.195900   79.997100
  H     -2.707820  -12.657600   79.103500
  H     -3.400380  -12.808800   80.622000
  H     -3.711890  -18.945900   81.247200
  H     -6.154440  -14.797700   74.594000

 Total Charge           Charge          ....    0
 Multiplicity           Mult            ....    1
 Number of Electrons    NEL             ....  134
 Basis Dimension        Dim             ....  322

ORBITAL ENERGIES
----------------

  NO   OCC          E(Eh)            E(eV)
   0   2.0000     -88.964974     -2420.8600
   1   2.0000     -88.963432     -2420.8181
   2   2.0000     -10.325528      -280.9719
   3   2.0000     -10.321956      -280.8747
   4   2.0000     -10.321819      -280.8710
   5   2.0000     -10.309233      -280.5285
   6   2.0000     -10.301385      -280.3149
   7   2.0000     -10.299012      -280.2504
   8   2.0000     -10.293635      -280.1041
   9   2.0000     -10.292275      -280.0670
  10   2.0000     -10.291448      -280.0445
  11   2.0000     -10.289923      -280.0030
  12   2.0000     -10.287268      -279.9308
  13   2.0000     -10.284963      -279.8681
  14   2.0000     -10.277665      -279.6695
  15   2.0000     -10.271015      -279.4885
  16   2.0000      -8.080435      -219.8798
  17   2.0000      -8.077649      -219.8040
  18   2.0000      -6.038959      -164.3284
  19   2.0000      -6.036234      -164.2543
  20   2.0000      -6.034828      -164.2160
  21   2.0000      -6.032091      -164.1415
  22   2.0000      -6.031137      -164.1156
  23   2.0000      -6.028477      -164.0432
  24   2.0000      -1.014428       -27.6040
  25   2.0000      -0.988080       -26.8870
  26   2.0000      -0.912194       -24.8221
  27   2.0000      -0.906577       -24.6692
  28   2.0000      -0.874029       -23.7835
  29   2.0000      -0.853341       -23.2206
  30   2.0000      -0.847478       -23.0611
  31   2.0000      -0.816231       -22.2108
  32   2.0000      -0.785568       -21.3764
  33   2.0000      -0.776837       -21.1388
  34   2.0000      -0.710961       -19.3462
  35   2.0000      -0.704173       -19.1615
  36   2.0000      -0.698833       -19.0162
  37   2.0000      -0.666491       -18.1362
  38   2.0000      -0.643665       -17.5150
  39   2.0000      -0.620376       -16.8813
  40   2.0000      -0.600640       -16.3443
  41   2.0000      -0.569588       -15.4993
  42   2.0000      -0.558298       -15.1921
  43   2.0000      -0.552700       -15.0397
  44   2.0000      -0.531465       -14.4619
  45   2.0000      -0.530191       -14.4272
  46   2.0000      -0.525575       -14.3016
  47   2.0000      -0.513798       -13.9811
  48   2.0000      -0.507742       -13.8164
  49   2.0000      -0.504445       -13.7266
  50   2.0000      -0.500096       -13.6083
  51   2.0000      -0.484825       -13.1928
  52   2.0000      -0.474156       -12.9024
  53   2.0000      -0.466982       -12.7072
  54   2.0000      -0.460878       -12.5411
  55   2.0000      -0.445303       -12.1173
  56   2.0000      -0.440131       -11.9766
  57   2.0000      -0.436933       -11.8896
  58   2.0000      -0.431062       -11.7298
  59   2.0000      -0.424632       -11.5548
  60   2.0000      -0.422431       -11.4949
  61   2.0000      -0.420556       -11.4439
  62   2.0000      -0.401778       -10.9329
  63   2.0000      -0.351887        -9.5753
  64   2.0000      -0.333001        -9.0614
  65   2.0000      -0.329926        -8.9777
  66   2.0000      -0.288490        -7.8502
  67   0.0000       0.021866         0.5950
  68   0.0000       0.075067         2.0427
  69   0.0000       0.104495         2.8434
  70   0.0000       0.126936         3.4541
  71   0.0000       0.132847         3.6150

MULLIKEN ATOMIC CHARGES
-----------------------
   0 S :    0.119469
   1 C :   -0.117587
   2 C :   -0.066076
   3 C :    0.002620
   4 C :   -0.130982
   5 H :   -0.014579
   6 C :    0.092813
   7 H :    0.017381
   8 H :    0.022215
   9 C :   -0.114758
  10 H :    0.040866
  11 H :    0.046775
  12 C :   -0.046646
  13 H :    0.017574
  14 H :    0.030417
  15 H :    0.040295
  16 S :    0.079994
  17 C :   -0.090200
  18 C :   -0.034231
  19 C :   -0.016762
  20 C :   -0.155226
  21 H :    0.009700
  22 C :    0.106891
  23 H :    0.004308
  24 H :    0.008427
  25 C :   -0.088189
  26 H :    0.028892
  27 H :    0.036543
  28 C :   -0.023712
  29 H :    0.027736
  30 H :    0.028377
  31 H :    0.027729
  32 H :    0.047855
  33 H :    0.062073
Sum of atomic charges:   -0.0000000

LOEWDIN ATOMIC CHARGES
----------------------
   0 S :    0.419469
   1 C :   -0.199762
   2 C :   -0.067570
   3 C :   -0.060056
   4 C :   -0.209597
   5 H :    0.027991
   6 C :   -0.026290
   7 H :    0.028995
   8 H :    0.029824
   9 C :   -0.037058
  10 H :    0.025287
  11 H :    0.029965
  12 C :   -0.068821
  13 H :    0.016603
  14 H :    0.026077
  15 H :    0.025586
  16 S :    0.388068
  17 C :   -0.169182
  18 C :   -0.067534
  19 C :   -0.060642
  20 C :   -0.187748
  21 H :    0.029785
  22 C :   -0.033619
  23 H :    0.028665
  24 H :    0.031649
  25 C :   -0.040568
  26 H :    0.029129
  27 H :    0.028572
  28 C :   -0.063974
  29 H :    0.023473
  30 H :    0.020104
  31 H :    0.022741
  32 H :    0.028866
  33 H :    0.031573

  Mayer bond orders larger than 0.100000
B(  0-S ,  1-C ) :   1.1426 B(  0-S ,  4-C ) :   1.1425 B(  1-C ,  2-C ) :   1.5991
B(  1-C , 32-H ) :   0.9639 B(  2-C ,  3-C ) :   1.2515 B(  2-C ,  6-C ) :   1.0337
B(  3-C ,  4-C ) :   1.5610 B(  3-C ,  5-H ) :   0.9929 B(  4-C , 20-C ) :   1.0687
B(  6-C ,  7-H ) :   0.9401 B(  6-C ,  8-H ) :   0.9386 B(  6-C ,  9-C ) :   1.0376
B(  9-C , 10-H ) :   0.9642 B(  9-C , 11-H ) :   0.9682 B(  9-C , 12-C ) :   1.0601
B( 12-C , 13-H ) :   0.9792 B( 12-C , 14-H ) :   0.9799 B( 12-C , 15-H ) :   0.9788
B( 16-S , 17-C ) :   1.1470 B( 16-S , 20-C ) :   1.1471 B( 17-C , 18-C ) :   1.5739
B( 17-C , 20-C ) :   0.1188 B( 17-C , 33-H ) :   0.9724 B( 18-C , 19-C ) :   1.2805
B( 18-C , 21-H ) :   0.9917 B( 19-C , 20-C ) :   1.5598 B( 19-C , 22-C ) :   1.0362
B( 22-C , 23-H ) :   0.9286 B( 22-C , 24-H ) :   0.9276 B( 22-C , 25-C ) :   1.0531
B( 25-C , 26-H ) :   0.9613 B( 25-C , 27-H ) :   0.9588 B( 25-C , 28-C ) :   1.0838
B( 28-C , 29-H ) :   0.9693 B( 28-C , 30-H ) :   0.9694 B( 28-C , 31-H ) :   0.9720

Dispersion correction           -0.014467415
FINAL SINGLE POINT ENERGY     -1339.863209969192

DIPOLE MOMENT
-------------
                                X             Y             Z
Electronic contribution:    -13.35167     -18.20275     -23.10632
Nuclear contribution   :     13.70601      18.81310      23.39549
                        -----------------------------------------
Total Dipole Moment    :      0.35435       0.61035       0.28918
                        -----------------------------------------
Magnitude (a.u.)       :      0.76270
Magnitude (Debye)      :      1.93863

Rotational constants in cm-1:     0.019612     0.008918     0.006451
Rotational constants in MHz :   587.949036   267.344645   193.394793

                             ****ORCA TERMINATED NORMALLY****
TOTAL RUN TIME: 0 days 0 hours 0 minutes 32 seconds 404 msec
