                         Program Version 4.2.1 -  RELEASE  -
|  1> ! wB97X-D3 SP def2-SVP
|  2> %pal
|  3> nprocs 16
|  4> end
|  5>
|  6> * xyz 0 1
|  7> S 	 -10.3278 	 58.7363 	 60.8609
|  8> C 	 -9.33726 	 57.3099 	 60.7532
|  9> C 	 -10.1348 	 56.1558 	 60.9099
| 10> C 	 -11.4771 	 56.4703 	 61.1906
| 11> C 	 -11.6649 	 57.8137 	 61.5061
| 12> H 	 -12.2915 	 55.7837 	 61.471
| 13> C 	 -9.68401 	 54.7393 	 60.6152
| 14> H 	 -8.94336 	 54.8682 	 59.8111
| 15> H 	 -10.4809 	 54.2189 	 60.1365
| 16> C 	 -9.10192 	 53.9224 	 61.8147
| 17> H 	 -8.92773 	 52.9284 	 61.3967
| 18> H 	 -8.15143 	 54.3272 	 62.0514
| 19> C 	 -9.98435 	 53.8477 	 63.0005
| 20> H 	 -10.4699 	 54.7806 	 63.3424
| 21> H 	 -10.7718 	 53.1161 	 62.7524
| 22> H 	 -9.4812 	 53.4817 	 63.8602
| 23> S 	 -12.7518 	 59.4696 	 63.48
| 24> C 	 -14.5005 	 59.3565 	 63.7997
| 25> C 	 -15.1533 	 58.7554 	 62.7572
| 26> C 	 -14.2836 	 58.2976 	 61.7178
| 27> C 	 -12.923 	 58.4508 	 62.0079
| 28> H 	 -16.2492 	 58.638 	 62.7647
| 29> C 	 -14.9135 	 57.501 	 60.5037
| 30> H 	 -15.233 	 56.4867 	 60.7661
| 31> H 	 -14.0267 	 57.4593 	 59.8791
| 32> C 	 -16.0266 	 58.2643 	 59.7445
| 33> H 	 -16.8504 	 58.2168 	 60.3787
| 34> H 	 -16.2918 	 57.7265 	 58.8643
| 35> C 	 -15.7785 	 59.726 	 59.3161
| 36> H 	 -16.7355 	 60.2465 	 59.353
| 37> H 	 -15.3787 	 59.9308 	 58.2796
| 38> H 	 -15.1271 	 60.1953 	 60.0403
| 39> H 	 -8.31061 	 57.2586 	 60.402
| 40> H 	 -15.0936 	 59.8973 	 64.554
| 41> *
| 42>
| 43>                          ****END OF INPUT****

CARTESIAN COORDINATES (ANGSTROEM)
---------------------------------
  S    -10.327800   58.736300   60.860900
  C     -9.337260   57.309900   60.753200
  C    -10.134800   56.155800   60.909900
  C    -11.477100   56.470300   61.190600
  C    -11.664900   57.813700   61.506100
  H    -12.291500   55.783700   61.471000
  C     -9.684010   54.739300   60.615200
  H     -8.943360   54.868200   59.811100
  H    -10.480900   54.218900   60.136500
  C     -9.101920   53.922400   61.814700
  H     -8.927730   52.928400   61.396700
  H     -8.151430   54.327200   62.051400
  C     -9.984350   53.847700   63.000500
  H    -10.469900   54.780600   63.342400
  H    -10.771800   53.116100   62.752400
  H     -9.481200   53.481700   63.860200
  S    -12.751800   59.469600   63.480000
  C    -14.500500   59.356500   63.799700
  C    -15.153300   58.755400   62.757200
  C    -14.283600   58.297600   61.717800
  C    -12.923000   58.450800   62.007900
  H    -16.249200   58.638000   62.764700
  C    -14.913500   57.501000   60.503700
  H    -15.233000   56.486700   60.766100
  H    -14.026700   57.459300   59.879100
  C    -16.026600   58.264300   59.744500
  H    -16.850400   58.216800   60.378700
  H    -16.291800   57.726500   58.864300
  C    -15.778500   59.726000   59.316100
  H    -16.735500   60.246500   59.353000
  H    -15.378700   59.930800   58.279600
  H    -15.127100   60.195300   60.040300
  H     -8.310610   57.258600   60.402000
  H    -15.093600   59.897300   64.554000

 Total Charge           Charge          ....    0
 Multiplicity           Mult            ....    1
 Number of Electrons    NEL             ....  134
 Basis Dimension        Dim             ....  322

ORBITAL ENERGIES
----------------

  NO   OCC          E(Eh)            E(eV)
   0   2.0000     -88.968489     -2420.9557
   1   2.0000     -88.965225     -2420.8669
   2   2.0000     -10.336946      -281.2826
   3   2.0000     -10.333512      -281.1891
   4   2.0000     -10.321211      -280.8544
   5   2.0000     -10.315843      -280.7084
   6   2.0000     -10.310128      -280.5528
   7   2.0000     -10.301034      -280.3054
   8   2.0000     -10.295177      -280.1460
   9   2.0000     -10.295030      -280.1420
  10   2.0000     -10.294996      -280.1411
  11   2.0000     -10.289774      -279.9990
  12   2.0000     -10.282018      -279.7879
  13   2.0000     -10.280445      -279.7451
  14   2.0000     -10.276525      -279.6385
  15   2.0000     -10.270710      -279.4802
  16   2.0000      -8.083179      -219.9545
  17   2.0000      -8.078813      -219.8357
  18   2.0000      -6.041594      -164.4001
  19   2.0000      -6.037784      -164.2964
  20   2.0000      -6.037501      -164.2888
  21   2.0000      -6.033946      -164.1920
  22   2.0000      -6.033518      -164.1804
  23   2.0000      -6.029381      -164.0678
  24   2.0000      -1.002657       -27.2837
  25   2.0000      -0.980568       -26.6826
  26   2.0000      -0.911771       -24.8105
  27   2.0000      -0.901751       -24.5379
  28   2.0000      -0.865511       -23.5518
  29   2.0000      -0.850562       -23.1450
  30   2.0000      -0.839748       -22.8507
  31   2.0000      -0.815369       -22.1873
  32   2.0000      -0.782785       -21.3007
  33   2.0000      -0.772124       -21.0106
  34   2.0000      -0.704375       -19.1670
  35   2.0000      -0.701402       -19.0861
  36   2.0000      -0.692379       -18.8406
  37   2.0000      -0.654327       -17.8051
  38   2.0000      -0.639180       -17.3930
  39   2.0000      -0.611278       -16.6337
  40   2.0000      -0.586108       -15.9488
  41   2.0000      -0.576434       -15.6856
  42   2.0000      -0.553474       -15.0608
  43   2.0000      -0.550293       -14.9742
  44   2.0000      -0.543043       -14.7769
  45   2.0000      -0.539444       -14.6790
  46   2.0000      -0.514873       -14.0104
  47   2.0000      -0.510153       -13.8820
  48   2.0000      -0.505580       -13.7575
  49   2.0000      -0.496775       -13.5179
  50   2.0000      -0.483021       -13.1437
  51   2.0000      -0.476776       -12.9737
  52   2.0000      -0.466565       -12.6959
  53   2.0000      -0.463657       -12.6168
  54   2.0000      -0.456039       -12.4094
  55   2.0000      -0.446263       -12.1434
  56   2.0000      -0.442002       -12.0275
  57   2.0000      -0.438410       -11.9297
  58   2.0000      -0.433701       -11.8016
  59   2.0000      -0.424080       -11.5398
  60   2.0000      -0.418073       -11.3764
  61   2.0000      -0.415902       -11.3173
  62   2.0000      -0.405067       -11.0224
  63   2.0000      -0.343492        -9.3469
  64   2.0000      -0.330484        -8.9929
  65   2.0000      -0.329934        -8.9780
  66   2.0000      -0.294614        -8.0169
  67   0.0000       0.023834         0.6486
  68   0.0000       0.061684         1.6785
  69   0.0000       0.104274         2.8374
  70   0.0000       0.115016         3.1298
  71   0.0000       0.129924         3.5354

MULLIKEN ATOMIC CHARGES
-----------------------
   0 S :    0.120085
   1 C :   -0.106060
   2 C :   -0.123265
   3 C :    0.027678
   4 C :   -0.157487
   5 H :    0.031549
   6 C :    0.055673
   7 H :    0.021003
   8 H :    0.016391
   9 C :   -0.022182
  10 H :    0.027359
  11 H :    0.015305
  12 C :   -0.048761
  13 H :    0.049784
  14 H :    0.023276
  15 H :    0.024703
  16 S :    0.093595
  17 C :   -0.086677
  18 C :   -0.054735
  19 C :   -0.060743
  20 C :   -0.168840
  21 H :    0.032851
  22 C :    0.070677
  23 H :    0.046495
  24 H :    0.023528
  25 C :   -0.048236
  26 H :    0.009059
  27 H :    0.025746
  28 C :   -0.070149
  29 H :    0.028807
  30 H :    0.045234
  31 H :    0.042521
  32 H :    0.049944
  33 H :    0.065871
Sum of atomic charges:    0.0000000

LOEWDIN ATOMIC CHARGES
----------------------
   0 S :    0.417825
   1 C :   -0.204567
   2 C :   -0.065675
   3 C :   -0.064960
   4 C :   -0.197673
   5 H :    0.037321
   6 C :   -0.029545
   7 H :    0.032062
   8 H :    0.025325
   9 C :   -0.033709
  10 H :    0.027305
  11 H :    0.016513
  12 C :   -0.068481
  13 H :    0.031756
  14 H :    0.027770
  15 H :    0.023229
  16 S :    0.374428
  17 C :   -0.177863
  18 C :   -0.079263
  19 C :   -0.057501
  20 C :   -0.187277
  21 H :    0.036062
  22 C :   -0.026790
  23 H :    0.032667
  24 H :    0.027079
  25 C :   -0.037335
  26 H :    0.012033
  27 H :    0.025326
  28 C :   -0.069650
  29 H :    0.028441
  30 H :    0.032320
  31 H :    0.025478
  32 H :    0.029619
  33 H :    0.037728

  Mayer bond orders larger than 0.100000
B(  0-S ,  1-C ) :   1.1495 B(  0-S ,  4-C ) :   1.1743 B(  1-C ,  2-C ) :   1.5777
B(  1-C ,  4-C ) :   0.1099 B(  1-C , 32-H ) :   0.9678 B(  2-C ,  3-C ) :   1.2706
B(  2-C ,  6-C ) :   1.0143 B(  3-C ,  4-C ) :   1.5478 B(  3-C ,  5-H ) :   0.9889
B(  4-C , 20-C ) :   1.0171 B(  6-C ,  7-H ) :   0.9414 B(  6-C ,  8-H ) :   0.9456
B(  6-C ,  9-C ) :   1.0661 B(  9-C , 10-H ) :   0.9541 B(  9-C , 11-H ) :   0.9554
B(  9-C , 12-C ) :   1.0870 B( 12-C , 13-H ) :   0.9705 B( 12-C , 14-H ) :   0.9739
B( 12-C , 15-H ) :   0.9702 B( 16-S , 17-C ) :   1.1388 B( 16-S , 20-C ) :   1.1253
B( 17-C , 18-C ) :   1.6405 B( 17-C , 33-H ) :   0.9591 B( 18-C , 19-C ) :   1.2192
B( 18-C , 21-H ) :   0.9845 B( 19-C , 20-C ) :   1.6148 B( 19-C , 22-C ) :   1.0113
B( 22-C , 23-H ) :   0.9474 B( 22-C , 24-H ) :   0.9375 B( 22-C , 25-C ) :   1.0701
B( 25-C , 26-H ) :   0.9591 B( 25-C , 27-H ) :   0.9542 B( 25-C , 28-C ) :   1.0713
B( 28-C , 29-H ) :   0.9744 B( 28-C , 30-H ) :   0.9780 B( 28-C , 31-H ) :   0.9750

Dispersion correction           -0.014550663
FINAL SINGLE POINT ENERGY     -1339.864820023140

DIPOLE MOMENT
-------------
                                X             Y             Z
Electronic contribution:      7.18994      16.32684       7.59498
Nuclear contribution   :     -7.54306     -16.89614      -7.83072
                        -----------------------------------------
Total Dipole Moment    :     -0.35312      -0.56930      -0.23574
                        -----------------------------------------
Magnitude (a.u.)       :      0.71019
Magnitude (Debye)      :      1.80516

Rotational constants in cm-1:     0.020188     0.007657     0.007278
Rotational constants in MHz :   605.212710   229.562204   218.201014

                             ****ORCA TERMINATED NORMALLY****
TOTAL RUN TIME: 0 days 0 hours 0 minutes 33 seconds 448 msec
