                         Program Version 4.2.1 -  RELEASE  -
|  1> ! wB97X-D3 SP def2-SVP
|  2> %pal
|  3> nprocs 16
|  4> end
|  5>
|  6> * xyz 0 1
|  7> S 	 51.4146 	 -1.73238 	 82.0923
|  8> C 	 50.5206 	 -1.64523 	 83.5889
|  9> C 	 51.3214 	 -1.22426 	 84.6629
| 10> C 	 52.6918 	 -1.17167 	 84.2448
| 11> C 	 52.8906 	 -1.56003 	 82.9155
| 12> H 	 53.5443 	 -1.02354 	 84.8566
| 13> C 	 50.8814 	 -1.15502 	 86.1206
| 14> H 	 49.8514 	 -1.52249 	 86.2753
| 15> H 	 50.7963 	 -0.0354314 	 86.3174
| 16> C 	 51.8664 	 -1.88885 	 87.0587
| 17> H 	 51.8495 	 -2.93341 	 86.8897
| 18> H 	 52.8847 	 -1.68503 	 86.8461
| 19> C 	 51.4309 	 -1.61581 	 88.5072
| 20> H 	 51.7528 	 -0.670697 	 88.8885
| 21> H 	 50.3481 	 -1.68052 	 88.7104
| 22> H 	 51.8905 	 -2.38778 	 89.0151
| 23> S 	 54.4611 	 -3.46853 	 81.7369
| 24> C 	 56.1714 	 -3.18847 	 81.76
| 25> C 	 56.502 	 -1.88116 	 81.9253
| 26> C 	 55.4233 	 -1.09351 	 82.4677
| 27> C 	 54.1979 	 -1.81047 	 82.3659
| 28> H 	 57.5379 	 -1.60802 	 81.7325
| 29> C 	 55.7163 	 0.383525 	 82.8526
| 30> H 	 56.7866 	 0.630445 	 82.6794
| 31> H 	 55.4944 	 0.580059 	 83.8989
| 32> C 	 55.0071 	 1.54435 	 82.01
| 33> H 	 53.9753 	 1.49128 	 81.9768
| 34> H 	 55.2008 	 1.36732 	 80.9536
| 35> C 	 55.452 	 2.98706 	 82.2768
| 36> H 	 55.1042 	 3.60352 	 81.4621
| 37> H 	 56.5859 	 3.0035 	 82.2904
| 38> H 	 55.1971 	 3.39076 	 83.25
| 39> H 	 49.4848 	 -1.77522 	 83.6102
| 40> H 	 56.8219 	 -3.8963 	 81.2095
| 41> *
| 42>
| 43>                          ****END OF INPUT****

CARTESIAN COORDINATES (ANGSTROEM)
---------------------------------
  S     51.414600   -1.732380   82.092300
  C     50.520600   -1.645230   83.588900
  C     51.321400   -1.224260   84.662900
  C     52.691800   -1.171670   84.244800
  C     52.890600   -1.560030   82.915500
  H     53.544300   -1.023540   84.856600
  C     50.881400   -1.155020   86.120600
  H     49.851400   -1.522490   86.275300
  H     50.796300   -0.035431   86.317400
  C     51.866400   -1.888850   87.058700
  H     51.849500   -2.933410   86.889700
  H     52.884700   -1.685030   86.846100
  C     51.430900   -1.615810   88.507200
  H     51.752800   -0.670697   88.888500
  H     50.348100   -1.680520   88.710400
  H     51.890500   -2.387780   89.015100
  S     54.461100   -3.468530   81.736900
  C     56.171400   -3.188470   81.760000
  C     56.502000   -1.881160   81.925300
  C     55.423300   -1.093510   82.467700
  C     54.197900   -1.810470   82.365900
  H     57.537900   -1.608020   81.732500
  C     55.716300    0.383525   82.852600
  H     56.786600    0.630445   82.679400
  H     55.494400    0.580059   83.898900
  C     55.007100    1.544350   82.010000
  H     53.975300    1.491280   81.976800
  H     55.200800    1.367320   80.953600
  C     55.452000    2.987060   82.276800
  H     55.104200    3.603520   81.462100
  H     56.585900    3.003500   82.290400
  H     55.197100    3.390760   83.250000
  H     49.484800   -1.775220   83.610200
  H     56.821900   -3.896300   81.209500

 Total Charge           Charge          ....    0
 Multiplicity           Mult            ....    1
 Number of Electrons    NEL             ....  134
 Basis Dimension        Dim             ....  322

ORBITAL ENERGIES
----------------

  NO   OCC          E(Eh)            E(eV)
   0   2.0000     -88.965589     -2420.8767
   1   2.0000     -88.964429     -2420.8452
   2   2.0000     -10.333183      -281.1802
   3   2.0000     -10.322658      -280.8938
   4   2.0000     -10.315546      -280.7003
   5   2.0000     -10.313252      -280.6379
   6   2.0000     -10.307804      -280.4896
   7   2.0000     -10.303561      -280.3742
   8   2.0000     -10.302789      -280.3531
   9   2.0000     -10.299351      -280.2596
  10   2.0000     -10.294567      -280.1294
  11   2.0000     -10.289251      -279.9847
  12   2.0000     -10.282234      -279.7938
  13   2.0000     -10.281173      -279.7649
  14   2.0000     -10.279662      -279.7238
  15   2.0000     -10.270806      -279.4828
  16   2.0000      -8.081264      -219.9024
  17   2.0000      -8.079185      -219.8458
  18   2.0000      -6.039616      -164.3463
  19   2.0000      -6.037625      -164.2921
  20   2.0000      -6.035684      -164.2393
  21   2.0000      -6.033858      -164.1896
  22   2.0000      -6.032113      -164.1421
  23   2.0000      -6.029827      -164.0799
  24   2.0000      -1.006462       -27.3872
  25   2.0000      -0.982170       -26.7262
  26   2.0000      -0.912315       -24.8254
  27   2.0000      -0.897685       -24.4273
  28   2.0000      -0.870263       -23.6811
  29   2.0000      -0.852006       -23.1843
  30   2.0000      -0.847482       -23.0611
  31   2.0000      -0.809756       -22.0346
  32   2.0000      -0.781419       -21.2635
  33   2.0000      -0.769734       -20.9455
  34   2.0000      -0.715258       -19.4632
  35   2.0000      -0.704095       -19.1594
  36   2.0000      -0.689993       -18.7757
  37   2.0000      -0.657956       -17.9039
  38   2.0000      -0.641176       -17.4473
  39   2.0000      -0.620043       -16.8722
  40   2.0000      -0.595412       -16.2020
  41   2.0000      -0.564759       -15.3679
  42   2.0000      -0.559458       -15.2236
  43   2.0000      -0.555219       -15.1083
  44   2.0000      -0.530919       -14.4470
  45   2.0000      -0.525266       -14.2932
  46   2.0000      -0.511401       -13.9159
  47   2.0000      -0.505991       -13.7687
  48   2.0000      -0.502092       -13.6626
  49   2.0000      -0.496765       -13.5177
  50   2.0000      -0.494812       -13.4645
  51   2.0000      -0.482083       -13.1181
  52   2.0000      -0.471550       -12.8315
  53   2.0000      -0.463766       -12.6197
  54   2.0000      -0.459831       -12.5126
  55   2.0000      -0.451827       -12.2949
  56   2.0000      -0.446332       -12.1453
  57   2.0000      -0.441432       -12.0120
  58   2.0000      -0.429700       -11.6927
  59   2.0000      -0.429576       -11.6893
  60   2.0000      -0.426579       -11.6078
  61   2.0000      -0.413041       -11.2394
  62   2.0000      -0.407194       -11.0803
  63   2.0000      -0.344328        -9.3696
  64   2.0000      -0.329923        -8.9777
  65   2.0000      -0.328279        -8.9329
  66   2.0000      -0.287766        -7.8305
  67   0.0000       0.026188         0.7126
  68   0.0000       0.068164         1.8548
  69   0.0000       0.114874         3.1259
  70   0.0000       0.122365         3.3297
  71   0.0000       0.127831         3.4785

MULLIKEN ATOMIC CHARGES
-----------------------
   0 S :    0.119760
   1 C :   -0.119734
   2 C :   -0.049545
   3 C :    0.017457
   4 C :   -0.147260
   5 H :   -0.001263
   6 C :    0.037059
   7 H :    0.025624
   8 H :    0.047357
   9 C :   -0.069459
  10 H :    0.025244
  11 H :    0.021796
  12 C :   -0.006950
  13 H :    0.028438
  14 H :    0.030294
  15 H :    0.013491
  16 S :    0.101398
  17 C :   -0.105429
  18 C :   -0.040076
  19 C :   -0.023630
  20 C :   -0.158550
  21 H :    0.027792
  22 C :    0.060010
  23 H :    0.024492
  24 H :    0.034815
  25 C :   -0.058914
  26 H :    0.016487
  27 H :    0.016188
  28 C :   -0.060565
  29 H :    0.043353
  30 H :    0.023349
  31 H :    0.033263
  32 H :    0.025351
  33 H :    0.068359
Sum of atomic charges:   -0.0000000

LOEWDIN ATOMIC CHARGES
----------------------
   0 S :    0.425907
   1 C :   -0.196210
   2 C :   -0.057031
   3 C :   -0.060465
   4 C :   -0.217679
   5 H :    0.021722
   6 C :   -0.033929
   7 H :    0.030888
   8 H :    0.040528
   9 C :   -0.031482
  10 H :    0.024380
  11 H :    0.020215
  12 C :   -0.054371
  13 H :    0.021672
  14 H :    0.028998
  15 H :    0.017466
  16 S :    0.396785
  17 C :   -0.197856
  18 C :   -0.069893
  19 C :   -0.050184
  20 C :   -0.182785
  21 H :    0.035016
  22 C :   -0.028208
  23 H :    0.033464
  24 H :    0.028369
  25 C :   -0.040326
  26 H :    0.012725
  27 H :    0.025005
  28 C :   -0.064791
  29 H :    0.030147
  30 H :    0.027112
  31 H :    0.020875
  32 H :    0.012064
  33 H :    0.031875

  Mayer bond orders larger than 0.100000
B(  0-S ,  1-C ) :   1.1420 B(  0-S ,  4-C ) :   1.1683 B(  1-C ,  2-C ) :   1.5839
B(  1-C , 32-H ) :   0.9791 B(  2-C ,  3-C ) :   1.2494 B(  2-C ,  6-C ) :   1.0169
B(  3-C ,  4-C ) :   1.5547 B(  3-C ,  5-H ) :   0.9962 B(  4-C , 20-C ) :   1.0503
B(  6-C ,  7-H ) :   0.9497 B(  6-C ,  8-H ) :   0.9365 B(  6-C ,  9-C ) :   1.0586
B(  9-C , 10-H ) :   0.9577 B(  9-C , 11-H ) :   0.9535 B(  9-C , 12-C ) :   1.0769
B( 12-C , 13-H ) :   0.9779 B( 12-C , 14-H ) :   0.9745 B( 12-C , 15-H ) :   0.9735
B( 16-S , 17-C ) :   1.1563 B( 16-S , 20-C ) :   1.1376 B( 17-C , 18-C ) :   1.6429
B( 17-C , 20-C ) :   0.1009 B( 17-C , 33-H ) :   0.9531 B( 18-C , 19-C ) :   1.2226
B( 18-C , 21-H ) :   0.9831 B( 19-C , 20-C ) :   1.5821 B( 19-C , 22-C ) :   1.0393
B( 22-C , 23-H ) :   0.9446 B( 22-C , 24-H ) :   0.9369 B( 22-C , 25-C ) :   1.0469
B( 25-C , 26-H ) :   0.9560 B( 25-C , 27-H ) :   0.9538 B( 25-C , 28-C ) :   1.0851
B( 28-C , 29-H ) :   0.9734 B( 28-C , 30-H ) :   0.9738 B( 28-C , 31-H ) :   0.9770

Dispersion correction           -0.013691602
FINAL SINGLE POINT ENERGY     -1339.858224160509

DIPOLE MOMENT
-------------
                                X             Y             Z
Electronic contribution:     -3.22447     -17.34516     -19.04019
Nuclear contribution   :      3.42231      17.62376      19.43912
                        -----------------------------------------
Total Dipole Moment    :      0.19784       0.27860       0.39893
                        -----------------------------------------
Magnitude (a.u.)       :      0.52526
Magnitude (Debye)      :      1.33511

Rotational constants in cm-1:     0.015600     0.008474     0.007324
Rotational constants in MHz :   467.680244   254.054561   219.562701

                             ****ORCA TERMINATED NORMALLY****
TOTAL RUN TIME: 0 days 0 hours 0 minutes 29 seconds 620 msec
