                         Program Version 4.2.1 -  RELEASE  -
|  1> ! wB97X-D3 SP def2-SVP
|  2> %pal
|  3> nprocs 16
|  4> end
|  5>
|  6> * xyz 0 1
|  7> S 	 0.79707 	 -2.78487 	 78.267
|  8> C 	 0.0993456 	 -4.22078 	 77.6846
|  9> C 	 -1.04851 	 -4.55099 	 78.4823
| 10> C 	 -1.27332 	 -3.65198 	 79.5148
| 11> C 	 -0.391491 	 -2.57759 	 79.4832
| 12> H 	 -2.15947 	 -3.74922 	 80.1408
| 13> C 	 -1.8804 	 -5.86661 	 78.3636
| 14> H 	 -2.20846 	 -6.07195 	 77.3398
| 15> H 	 -2.84637 	 -5.6635 	 78.8492
| 16> C 	 -1.11331 	 -7.02662 	 79.0703
| 17> H 	 -1.67018 	 -8.00803 	 79.1973
| 18> H 	 -0.250406 	 -7.32637 	 78.4276
| 19> C 	 -0.653284 	 -6.63425 	 80.4398
| 20> H 	 -0.268648 	 -7.52895 	 80.8789
| 21> H 	 0.0525409 	 -5.82543 	 80.5404
| 22> H 	 -1.3367 	 -6.39961 	 81.2546
| 23> S 	 1.24736 	 -1.32558 	 81.3006
| 24> C 	 0.503048 	 -0.0744312 	 82.3307
| 25> C 	 -0.745283 	 0.252479 	 81.8523
| 26> C 	 -1.24858 	 -0.574031 	 80.7906
| 27> C 	 -0.26525 	 -1.47207 	 80.3853
| 28> H 	 -1.38004 	 0.989909 	 82.2717
| 29> C 	 -2.54677 	 -0.311696 	 80.0499
| 30> H 	 -2.60725 	 -1.01725 	 79.2108
| 31> H 	 -2.52458 	 0.664084 	 79.5422
| 32> C 	 -3.84839 	 -0.314204 	 80.7875
| 33> H 	 -4.52922 	 0.156951 	 80.1573
| 34> H 	 -3.73001 	 0.343112 	 81.7065
| 35> C 	 -4.27169 	 -1.69156 	 81.3406
| 36> H 	 -4.45248 	 -2.40906 	 80.5483
| 37> H 	 -5.22894 	 -1.5611 	 81.8727
| 38> H 	 -3.67246 	 -2.16789 	 82.1775
| 39> H 	 0.585488 	 -4.95654 	 77.0016
| 40> H 	 1.00166 	 0.475679 	 83.137
| 41> *
| 42>
| 43>                          ****END OF INPUT****

CARTESIAN COORDINATES (ANGSTROEM)
---------------------------------
  S      0.797070   -2.784870   78.267000
  C      0.099346   -4.220780   77.684600
  C     -1.048510   -4.550990   78.482300
  C     -1.273320   -3.651980   79.514800
  C     -0.391491   -2.577590   79.483200
  H     -2.159470   -3.749220   80.140800
  C     -1.880400   -5.866610   78.363600
  H     -2.208460   -6.071950   77.339800
  H     -2.846370   -5.663500   78.849200
  C     -1.113310   -7.026620   79.070300
  H     -1.670180   -8.008030   79.197300
  H     -0.250406   -7.326370   78.427600
  C     -0.653284   -6.634250   80.439800
  H     -0.268648   -7.528950   80.878900
  H      0.052541   -5.825430   80.540400
  H     -1.336700   -6.399610   81.254600
  S      1.247360   -1.325580   81.300600
  C      0.503048   -0.074431   82.330700
  C     -0.745283    0.252479   81.852300
  C     -1.248580   -0.574031   80.790600
  C     -0.265250   -1.472070   80.385300
  H     -1.380040    0.989909   82.271700
  C     -2.546770   -0.311696   80.049900
  H     -2.607250   -1.017250   79.210800
  H     -2.524580    0.664084   79.542200
  C     -3.848390   -0.314204   80.787500
  H     -4.529220    0.156951   80.157300
  H     -3.730010    0.343112   81.706500
  C     -4.271690   -1.691560   81.340600
  H     -4.452480   -2.409060   80.548300
  H     -5.228940   -1.561100   81.872700
  H     -3.672460   -2.167890   82.177500
  H      0.585488   -4.956540   77.001600
  H      1.001660    0.475679   83.137000

 Total Charge           Charge          ....    0
 Multiplicity           Mult            ....    1
 Number of Electrons    NEL             ....  134
 Basis Dimension        Dim             ....  322

ORBITAL ENERGIES
----------------

  NO   OCC          E(Eh)            E(eV)
   0   2.0000     -88.968201     -2420.9478
   1   2.0000     -88.966370     -2420.8980
   2   2.0000     -10.324788      -280.9518
   3   2.0000     -10.322761      -280.8966
   4   2.0000     -10.322034      -280.8768
   5   2.0000     -10.314660      -280.6762
   6   2.0000     -10.302362      -280.3415
   7   2.0000     -10.300296      -280.2853
   8   2.0000     -10.295337      -280.1504
   9   2.0000     -10.295215      -280.1471
  10   2.0000     -10.292132      -280.0631
  11   2.0000     -10.290217      -280.0110
  12   2.0000     -10.289503      -279.9916
  13   2.0000     -10.287890      -279.9477
  14   2.0000     -10.283234      -279.8210
  15   2.0000     -10.264765      -279.3185
  16   2.0000      -8.084108      -219.9798
  17   2.0000      -8.080309      -219.8764
  18   2.0000      -6.042258      -164.4182
  19   2.0000      -6.038963      -164.3285
  20   2.0000      -6.038193      -164.3076
  21   2.0000      -6.035456      -164.2331
  22   2.0000      -6.034980      -164.2202
  23   2.0000      -6.030895      -164.1090
  24   2.0000      -1.011071       -27.5126
  25   2.0000      -0.981887       -26.7185
  26   2.0000      -0.912491       -24.8302
  27   2.0000      -0.907918       -24.7057
  28   2.0000      -0.867270       -23.5996
  29   2.0000      -0.852328       -23.1930
  30   2.0000      -0.844800       -22.9882
  31   2.0000      -0.809838       -22.0368
  32   2.0000      -0.786061       -21.3898
  33   2.0000      -0.771831       -21.0026
  34   2.0000      -0.703932       -19.1550
  35   2.0000      -0.700048       -19.0493
  36   2.0000      -0.693274       -18.8650
  37   2.0000      -0.658706       -17.9243
  38   2.0000      -0.636840       -17.3293
  39   2.0000      -0.618560       -16.8319
  40   2.0000      -0.599790       -16.3211
  41   2.0000      -0.566034       -15.4026
  42   2.0000      -0.551394       -15.0042
  43   2.0000      -0.548831       -14.9344
  44   2.0000      -0.545492       -14.8436
  45   2.0000      -0.535332       -14.5671
  46   2.0000      -0.520452       -14.1622
  47   2.0000      -0.506048       -13.7703
  48   2.0000      -0.498852       -13.5745
  49   2.0000      -0.492236       -13.3944
  50   2.0000      -0.489779       -13.3276
  51   2.0000      -0.479150       -13.0383
  52   2.0000      -0.470397       -12.8001
  53   2.0000      -0.463000       -12.5989
  54   2.0000      -0.458998       -12.4900
  55   2.0000      -0.448814       -12.2128
  56   2.0000      -0.442843       -12.0504
  57   2.0000      -0.435566       -11.8524
  58   2.0000      -0.429832       -11.6963
  59   2.0000      -0.425456       -11.5772
  60   2.0000      -0.419901       -11.4261
  61   2.0000      -0.412267       -11.2184
  62   2.0000      -0.404784       -11.0147
  63   2.0000      -0.344154        -9.3649
  64   2.0000      -0.333712        -9.0808
  65   2.0000      -0.329022        -8.9531
  66   2.0000      -0.289517        -7.8782
  67   0.0000       0.029440         0.8011
  68   0.0000       0.064812         1.7636
  69   0.0000       0.109842         2.9890
  70   0.0000       0.122587         3.3358
  71   0.0000       0.127169         3.4604

MULLIKEN ATOMIC CHARGES
-----------------------
   0 S :    0.130406
   1 C :   -0.125766
   2 C :   -0.156818
   3 C :    0.052313
   4 C :   -0.183512
   5 H :    0.009224
   6 C :    0.078174
   7 H :    0.030519
   8 H :    0.017597
   9 C :   -0.071741
  10 H :    0.038781
  11 H :    0.035566
  12 C :   -0.048139
  13 H :    0.012491
  14 H :    0.049866
  15 H :    0.016337
  16 S :    0.104427
  17 C :   -0.094374
  18 C :   -0.008830
  19 C :   -0.012730
  20 C :   -0.148135
  21 H :    0.002238
  22 C :    0.041218
  23 H :    0.025539
  24 H :    0.036694
  25 C :   -0.048073
  26 H :    0.019398
  27 H :    0.026333
  28 C :   -0.080152
  29 H :    0.034771
  30 H :    0.028728
  31 H :    0.053617
  32 H :    0.068079
  33 H :    0.065954
Sum of atomic charges:    0.0000000

LOEWDIN ATOMIC CHARGES
----------------------
   0 S :    0.458896
   1 C :   -0.234854
   2 C :   -0.062283
   3 C :   -0.063932
   4 C :   -0.213189
   5 H :    0.034456
   6 C :   -0.033938
   7 H :    0.028342
   8 H :    0.027638
   9 C :   -0.043431
  10 H :    0.031712
  11 H :    0.028685
  12 C :   -0.077766
  13 H :    0.025082
  14 H :    0.026793
  15 H :    0.026721
  16 S :    0.380903
  17 C :   -0.177441
  18 C :   -0.062976
  19 C :   -0.052931
  20 C :   -0.192682
  21 H :    0.022697
  22 C :   -0.036529
  23 H :    0.031406
  24 H :    0.038429
  25 C :   -0.038684
  26 H :    0.019664
  27 H :    0.028434
  28 C :   -0.078258
  29 H :    0.019850
  30 H :    0.028937
  31 H :    0.037188
  32 H :    0.037578
  33 H :    0.035486

  Mayer bond orders larger than 0.100000
B(  0-S ,  1-C ) :   1.1803 B(  0-S ,  4-C ) :   1.1984 B(  1-C ,  2-C ) :   1.5270
B(  1-C ,  4-C ) :   0.1136 B(  1-C , 32-H ) :   0.9648 B(  2-C ,  3-C ) :   1.3330
B(  2-C ,  6-C ) :   1.0156 B(  3-C ,  4-C ) :   1.4842 B(  3-C ,  5-H ) :   0.9931
B(  4-C , 20-C ) :   1.0309 B(  6-C ,  7-H ) :   0.9495 B(  6-C ,  8-H ) :   0.9448
B(  6-C ,  9-C ) :   1.0538 B(  9-C , 10-H ) :   0.9593 B(  9-C , 11-H ) :   0.9551
B(  9-C , 12-C ) :   1.0796 B( 12-C , 13-H ) :   0.9661 B( 12-C , 14-H ) :   0.9680
B( 12-C , 15-H ) :   0.9704 B( 16-S , 17-C ) :   1.1284 B( 16-S , 20-C ) :   1.1343
B( 17-C , 18-C ) :   1.6227 B( 17-C , 33-H ) :   0.9667 B( 18-C , 19-C ) :   1.2273
B( 18-C , 21-H ) :   0.9873 B( 19-C , 20-C ) :   1.6002 B( 19-C , 22-C ) :   1.0432
B( 22-C , 23-H ) :   0.9321 B( 22-C , 24-H ) :   0.9364 B( 22-C , 25-C ) :   1.0826
B( 25-C , 26-H ) :   0.9514 B( 25-C , 27-H ) :   0.9533 B( 25-C , 28-C ) :   1.0741
B( 28-C , 29-H ) :   0.9724 B( 28-C , 30-H ) :   0.9702 B( 28-C , 31-H ) :   0.9720

Dispersion correction           -0.015589031
FINAL SINGLE POINT ENERGY     -1339.874672445920

DIPOLE MOMENT
-------------
                                X             Y             Z
Electronic contribution:     21.22212      11.96575      -4.01781
Nuclear contribution   :    -21.78489     -12.04869       4.18262
                        -----------------------------------------
Total Dipole Moment    :     -0.56276      -0.08294       0.16481
                        -----------------------------------------
Magnitude (a.u.)       :      0.59224
Magnitude (Debye)      :      1.50534

Rotational constants in cm-1:     0.018619     0.009636     0.007842
Rotational constants in MHz :   558.175915   288.887834   235.083734

                             ****ORCA TERMINATED NORMALLY****
TOTAL RUN TIME: 0 days 0 hours 0 minutes 35 seconds 740 msec
