                         Program Version 4.2.1 -  RELEASE  -
|  1> ! wB97X-D3 SP def2-SVP
|  2> %pal
|  3> nprocs 16
|  4> end
|  5>
|  6> * xyz 0 1
|  7> S 	 45.7208 	 22.6779 	 90.4643
|  8> C 	 46.2138 	 21.8467 	 91.9595
|  9> C 	 46.4603 	 20.5083 	 91.5565
| 10> C 	 46.3118 	 20.181 	 90.1887
| 11> C 	 45.8521 	 21.2629 	 89.4544
| 12> H 	 46.5426 	 19.2185 	 89.8078
| 13> C 	 46.8326 	 19.4184 	 92.5953
| 14> H 	 46.3939 	 18.5366 	 92.2579
| 15> H 	 46.4678 	 19.7014 	 93.587
| 16> C 	 48.3399 	 19.0996 	 92.5303
| 17> H 	 48.425 	 18.0808 	 92.8085
| 18> H 	 48.6774 	 19.2726 	 91.5363
| 19> C 	 49.1086 	 20.0344 	 93.4824
| 20> H 	 49.1289 	 21.1032 	 93.1841
| 21> H 	 48.6665 	 19.9673 	 94.4514
| 22> H 	 50.1337 	 19.652 	 93.485
| 23> S 	 44.4032 	 19.7615 	 87.528
| 24> C 	 44.2143 	 20.4484 	 85.9493
| 25> C 	 44.9866 	 21.5888 	 85.7669
| 26> C 	 45.7092 	 21.9582 	 86.9322
| 27> C 	 45.4914 	 21.1362 	 88.0349
| 28> H 	 45.1361 	 22.1425 	 84.847
| 29> C 	 46.6431 	 23.1719 	 86.9099
| 30> H 	 46.638 	 23.4549 	 88.0076
| 31> H 	 46.283 	 23.976 	 86.3498
| 32> C 	 48.1187 	 22.9385 	 86.4574
| 33> H 	 48.7746 	 23.7621 	 86.6388
| 34> H 	 48.1123 	 22.8576 	 85.3493
| 35> C 	 48.7847 	 21.624 	 86.9616
| 36> H 	 48.2892 	 20.6336 	 86.764
| 37> H 	 48.7197 	 21.6442 	 88.0458
| 38> H 	 49.8298 	 21.613 	 86.6097
| 39> H 	 46.3957 	 22.3152 	 92.9718
| 40> H 	 43.5931 	 20.0843 	 85.2548
| 41> *
| 42>
| 43>                          ****END OF INPUT****

CARTESIAN COORDINATES (ANGSTROEM)
---------------------------------
  S     45.720800   22.677900   90.464300
  C     46.213800   21.846700   91.959500
  C     46.460300   20.508300   91.556500
  C     46.311800   20.181000   90.188700
  C     45.852100   21.262900   89.454400
  H     46.542600   19.218500   89.807800
  C     46.832600   19.418400   92.595300
  H     46.393900   18.536600   92.257900
  H     46.467800   19.701400   93.587000
  C     48.339900   19.099600   92.530300
  H     48.425000   18.080800   92.808500
  H     48.677400   19.272600   91.536300
  C     49.108600   20.034400   93.482400
  H     49.128900   21.103200   93.184100
  H     48.666500   19.967300   94.451400
  H     50.133700   19.652000   93.485000
  S     44.403200   19.761500   87.528000
  C     44.214300   20.448400   85.949300
  C     44.986600   21.588800   85.766900
  C     45.709200   21.958200   86.932200
  C     45.491400   21.136200   88.034900
  H     45.136100   22.142500   84.847000
  C     46.643100   23.171900   86.909900
  H     46.638000   23.454900   88.007600
  H     46.283000   23.976000   86.349800
  C     48.118700   22.938500   86.457400
  H     48.774600   23.762100   86.638800
  H     48.112300   22.857600   85.349300
  C     48.784700   21.624000   86.961600
  H     48.289200   20.633600   86.764000
  H     48.719700   21.644200   88.045800
  H     49.829800   21.613000   86.609700
  H     46.395700   22.315200   92.971800
  H     43.593100   20.084300   85.254800

 Total Charge           Charge          ....    0
 Multiplicity           Mult            ....    1
 Number of Electrons    NEL             ....  134
 Basis Dimension        Dim             ....  322

ORBITAL ENERGIES
----------------

  NO   OCC          E(Eh)            E(eV)
   0   2.0000     -88.970182     -2421.0017
   1   2.0000     -88.970087     -2420.9992
   2   2.0000     -10.335858      -281.2530
   3   2.0000     -10.334450      -281.2147
   4   2.0000     -10.324601      -280.9467
   5   2.0000     -10.314884      -280.6823
   6   2.0000     -10.305150      -280.4174
   7   2.0000     -10.304119      -280.3893
   8   2.0000     -10.294483      -280.1271
   9   2.0000     -10.291737      -280.0524
  10   2.0000     -10.291490      -280.0457
  11   2.0000     -10.287860      -279.9469
  12   2.0000     -10.283215      -279.8205
  13   2.0000     -10.278425      -279.6902
  14   2.0000     -10.275255      -279.6039
  15   2.0000     -10.274736      -279.5898
  16   2.0000      -8.083863      -219.9731
  17   2.0000      -8.083657      -219.9675
  18   2.0000      -6.042417      -164.4225
  19   2.0000      -6.042321      -164.4199
  20   2.0000      -6.038515      -164.3163
  21   2.0000      -6.038134      -164.3060
  22   2.0000      -6.034624      -164.2105
  23   2.0000      -6.034502      -164.2072
  24   2.0000      -1.002560       -27.2810
  25   2.0000      -0.981453       -26.7067
  26   2.0000      -0.911689       -24.8083
  27   2.0000      -0.901327       -24.5264
  28   2.0000      -0.866227       -23.5712
  29   2.0000      -0.848467       -23.0880
  30   2.0000      -0.842815       -22.9342
  31   2.0000      -0.809860       -22.0374
  32   2.0000      -0.781522       -21.2663
  33   2.0000      -0.772674       -21.0255
  34   2.0000      -0.709456       -19.3053
  35   2.0000      -0.697638       -18.9837
  36   2.0000      -0.691530       -18.8175
  37   2.0000      -0.669085       -18.2067
  38   2.0000      -0.638627       -17.3779
  39   2.0000      -0.615562       -16.7503
  40   2.0000      -0.593651       -16.1541
  41   2.0000      -0.573377       -15.6024
  42   2.0000      -0.552512       -15.0346
  43   2.0000      -0.547838       -14.9074
  44   2.0000      -0.545077       -14.8323
  45   2.0000      -0.537883       -14.6365
  46   2.0000      -0.521872       -14.2009
  47   2.0000      -0.509882       -13.8746
  48   2.0000      -0.507201       -13.8017
  49   2.0000      -0.501649       -13.6506
  50   2.0000      -0.485412       -13.2087
  51   2.0000      -0.481512       -13.1026
  52   2.0000      -0.468501       -12.7486
  53   2.0000      -0.459968       -12.5164
  54   2.0000      -0.452807       -12.3215
  55   2.0000      -0.452395       -12.3103
  56   2.0000      -0.446404       -12.1473
  57   2.0000      -0.438586       -11.9345
  58   2.0000      -0.432119       -11.7586
  59   2.0000      -0.425181       -11.5697
  60   2.0000      -0.419883       -11.4256
  61   2.0000      -0.406435       -11.0597
  62   2.0000      -0.399735       -10.8773
  63   2.0000      -0.348031        -9.4704
  64   2.0000      -0.334703        -9.1077
  65   2.0000      -0.328570        -8.9408
  66   2.0000      -0.289616        -7.8809
  67   0.0000       0.022151         0.6028
  68   0.0000       0.063427         1.7259
  69   0.0000       0.104326         2.8389
  70   0.0000       0.119972         3.2646
  71   0.0000       0.124298         3.3823

MULLIKEN ATOMIC CHARGES
-----------------------
   0 S :    0.108282
   1 C :   -0.154679
   2 C :   -0.116196
   3 C :    0.018577
   4 C :   -0.104985
   5 H :    0.004236
   6 C :    0.087691
   7 H :    0.002702
   8 H :    0.023436
   9 C :   -0.048762
  10 H :    0.021917
  11 H :    0.025706
  12 C :   -0.053826
  13 H :    0.040250
  14 H :    0.019453
  15 H :    0.035611
  16 S :    0.105147
  17 C :   -0.033405
  18 C :   -0.018109
  19 C :   -0.066542
  20 C :   -0.168083
  21 H :    0.019467
  22 C :    0.088966
  23 H :    0.025088
  24 H :    0.015886
  25 C :   -0.068439
  26 H :    0.032724
  27 H :    0.020638
  28 C :   -0.078051
  29 H :    0.049249
  30 H :    0.027637
  31 H :    0.040829
  32 H :    0.083299
  33 H :    0.014287
Sum of atomic charges:   -0.0000000

LOEWDIN ATOMIC CHARGES
----------------------
   0 S :    0.410425
   1 C :   -0.218498
   2 C :   -0.053533
   3 C :   -0.071697
   4 C :   -0.189039
   5 H :    0.026663
   6 C :   -0.021988
   7 H :    0.019160
   8 H :    0.026475
   9 C :   -0.029063
  10 H :    0.018247
  11 H :    0.021386
  12 C :   -0.063455
  13 H :    0.028795
  14 H :    0.016881
  15 H :    0.026974
  16 S :    0.393412
  17 C :   -0.160743
  18 C :   -0.068268
  19 C :   -0.051673
  20 C :   -0.179044
  21 H :    0.033120
  22 C :   -0.030251
  23 H :    0.026771
  24 H :    0.021806
  25 C :   -0.037733
  26 H :    0.023891
  27 H :    0.020984
  28 C :   -0.076289
  29 H :    0.032521
  30 H :    0.022427
  31 H :    0.028445
  32 H :    0.048479
  33 H :    0.004412

  Mayer bond orders larger than 0.100000
B(  0-S ,  1-C ) :   1.1228 B(  0-S ,  4-C ) :   1.1664 B(  1-C ,  2-C ) :   1.5680
B(  1-C ,  4-C ) :   0.1007 B(  1-C , 32-H ) :   0.9660 B(  2-C ,  3-C ) :   1.2764
B(  2-C ,  6-C ) :   1.0298 B(  3-C ,  4-C ) :   1.5004 B(  3-C ,  5-H ) :   1.0006
B(  4-C , 20-C ) :   1.0677 B(  6-C ,  7-H ) :   0.9373 B(  6-C ,  8-H ) :   0.9522
B(  6-C ,  9-C ) :   1.0618 B(  9-C , 10-H ) :   0.9583 B(  9-C , 11-H ) :   0.9565
B(  9-C , 12-C ) :   1.0792 B( 12-C , 13-H ) :   0.9756 B( 12-C , 14-H ) :   0.9783
B( 12-C , 15-H ) :   0.9748 B( 16-S , 17-C ) :   1.1664 B( 16-S , 20-C ) :   1.1172
B( 17-C , 18-C ) :   1.5727 B( 17-C , 20-C ) :   0.1008 B( 17-C , 33-H ) :   0.9824
B( 18-C , 19-C ) :   1.2636 B( 18-C , 21-H ) :   0.9897 B( 19-C , 20-C ) :   1.5782
B( 19-C , 22-C ) :   1.0385 B( 22-C , 23-H ) :   0.9260 B( 22-C , 24-H ) :   0.9391
B( 22-C , 25-C ) :   1.0662 B( 25-C , 26-H ) :   0.9580 B( 25-C , 27-H ) :   0.9555
B( 25-C , 28-C ) :   1.0773 B( 28-C , 29-H ) :   0.9699 B( 28-C , 30-H ) :   0.9774
B( 28-C , 31-H ) :   0.9739

Dispersion correction           -0.015386857
FINAL SINGLE POINT ENERGY     -1339.866408918189

DIPOLE MOMENT
-------------
                                X             Y             Z
Electronic contribution:    -21.01856       1.81302      -6.49068
Nuclear contribution   :     21.32997      -1.92829       6.43994
                        -----------------------------------------
Total Dipole Moment    :      0.31142      -0.11528      -0.05074
                        -----------------------------------------
Magnitude (a.u.)       :      0.33592
Magnitude (Debye)      :      0.85384

Rotational constants in cm-1:     0.021281     0.008243     0.007462
Rotational constants in MHz :   637.991183   247.120367   223.705417

                             ****ORCA TERMINATED NORMALLY****
TOTAL RUN TIME: 0 days 0 hours 0 minutes 29 seconds 87 msec
