                         Program Version 4.2.1 -  RELEASE  -
|  1> ! wB97X-D3 SP def2-SVP
|  2> %pal
|  3> nprocs 16
|  4> end
|  5>
|  6> * xyz 0 1
|  7> S 	 5.69664 	 -12.4177 	 55.1714
|  8> C 	 4.16734 	 -12.8114 	 55.9291
|  9> C 	 4.16006 	 -14.0647 	 56.5835
| 10> C 	 5.39335 	 -14.7544 	 56.3704
| 11> C 	 6.35597 	 -14.0293 	 55.6516
| 12> H 	 5.56799 	 -15.7002 	 56.8377
| 13> C 	 2.90951 	 -14.6582 	 57.3103
| 14> H 	 2.65838 	 -15.5361 	 56.6652
| 15> H 	 2.10092 	 -13.9911 	 57.157
| 16> C 	 2.90828 	 -15.2443 	 58.7206
| 17> H 	 1.96664 	 -15.6773 	 58.9102
| 18> H 	 3.5107 	 -16.107 	 58.649
| 19> C 	 3.49738 	 -14.5034 	 59.873
| 20> H 	 4.51923 	 -14.1236 	 59.6452
| 21> H 	 2.79221 	 -13.7574 	 60.2176
| 22> H 	 3.67101 	 -15.085 	 60.8036
| 23> S 	 8.01352 	 -14.5692 	 53.532
| 24> C 	 9.72956 	 -15.0197 	 53.8926
| 25> C 	 9.84815 	 -15.3071 	 55.24
| 26> C 	 8.65774 	 -15.0392 	 56.042
| 27> C 	 7.60884 	 -14.5354 	 55.248
| 28> H 	 10.7996 	 -15.568 	 55.7114
| 29> C 	 8.63588 	 -15.3354 	 57.5703
| 30> H 	 7.78764 	 -14.7913 	 58.0675
| 31> H 	 9.5825 	 -14.9386 	 58.097
| 32> C 	 8.54551 	 -16.8497 	 57.9265
| 33> H 	 7.62337 	 -17.2933 	 57.5022
| 34> H 	 8.47996 	 -17.0466 	 59.0243
| 35> C 	 9.79328 	 -17.7549 	 57.5532
| 36> H 	 10.6262 	 -17.6308 	 58.2303
| 37> H 	 10.1793 	 -17.4695 	 56.5299
| 38> H 	 9.52867 	 -18.8439 	 57.4406
| 39> H 	 3.2946 	 -12.1817 	 55.8586
| 40> H 	 10.6395 	 -15.1244 	 53.1612
| 41> *
| 42>
| 43>                          ****END OF INPUT****

CARTESIAN COORDINATES (ANGSTROEM)
---------------------------------
  S      5.696640  -12.417700   55.171400
  C      4.167340  -12.811400   55.929100
  C      4.160060  -14.064700   56.583500
  C      5.393350  -14.754400   56.370400
  C      6.355970  -14.029300   55.651600
  H      5.567990  -15.700200   56.837700
  C      2.909510  -14.658200   57.310300
  H      2.658380  -15.536100   56.665200
  H      2.100920  -13.991100   57.157000
  C      2.908280  -15.244300   58.720600
  H      1.966640  -15.677300   58.910200
  H      3.510700  -16.107000   58.649000
  C      3.497380  -14.503400   59.873000
  H      4.519230  -14.123600   59.645200
  H      2.792210  -13.757400   60.217600
  H      3.671010  -15.085000   60.803600
  S      8.013520  -14.569200   53.532000
  C      9.729560  -15.019700   53.892600
  C      9.848150  -15.307100   55.240000
  C      8.657740  -15.039200   56.042000
  C      7.608840  -14.535400   55.248000
  H     10.799600  -15.568000   55.711400
  C      8.635880  -15.335400   57.570300
  H      7.787640  -14.791300   58.067500
  H      9.582500  -14.938600   58.097000
  C      8.545510  -16.849700   57.926500
  H      7.623370  -17.293300   57.502200
  H      8.479960  -17.046600   59.024300
  C      9.793280  -17.754900   57.553200
  H     10.626200  -17.630800   58.230300
  H     10.179300  -17.469500   56.529900
  H      9.528670  -18.843900   57.440600
  H      3.294600  -12.181700   55.858600
  H     10.639500  -15.124400   53.161200

 Total Charge           Charge          ....    0
 Multiplicity           Mult            ....    1
 Number of Electrons    NEL             ....  134
 Basis Dimension        Dim             ....  322

ORBITAL ENERGIES
----------------

  NO   OCC          E(Eh)            E(eV)
   0   2.0000     -88.971951     -2421.0499
   1   2.0000     -88.967504     -2420.9289
   2   2.0000     -10.332662      -281.1660
   3   2.0000     -10.331509      -281.1347
   4   2.0000     -10.328823      -281.0616
   5   2.0000     -10.318887      -280.7912
   6   2.0000     -10.312243      -280.6104
   7   2.0000     -10.309783      -280.5435
   8   2.0000     -10.308695      -280.5138
   9   2.0000     -10.299598      -280.2663
  10   2.0000     -10.298527      -280.2372
  11   2.0000     -10.297988      -280.2225
  12   2.0000     -10.297584      -280.2115
  13   2.0000     -10.285782      -279.8904
  14   2.0000     -10.280142      -279.7369
  15   2.0000     -10.278293      -279.6866
  16   2.0000      -8.085429      -220.0157
  17   2.0000      -8.081027      -219.8959
  18   2.0000      -6.043991      -164.4654
  19   2.0000      -6.040106      -164.3596
  20   2.0000      -6.039827      -164.3521
  21   2.0000      -6.036217      -164.2538
  22   2.0000      -6.035750      -164.2411
  23   2.0000      -6.031471      -164.1247
  24   2.0000      -0.998719       -27.1765
  25   2.0000      -0.972542       -26.4642
  26   2.0000      -0.912395       -24.8275
  27   2.0000      -0.895078       -24.3563
  28   2.0000      -0.872234       -23.7347
  29   2.0000      -0.850712       -23.1491
  30   2.0000      -0.836362       -22.7586
  31   2.0000      -0.811873       -22.0922
  32   2.0000      -0.785641       -21.3784
  33   2.0000      -0.769242       -20.9321
  34   2.0000      -0.711629       -19.3644
  35   2.0000      -0.698071       -18.9955
  36   2.0000      -0.685485       -18.6530
  37   2.0000      -0.657213       -17.8837
  38   2.0000      -0.637407       -17.3447
  39   2.0000      -0.621570       -16.9138
  40   2.0000      -0.585793       -15.9402
  41   2.0000      -0.564025       -15.3479
  42   2.0000      -0.551012       -14.9938
  43   2.0000      -0.548379       -14.9222
  44   2.0000      -0.543568       -14.7912
  45   2.0000      -0.534994       -14.5579
  46   2.0000      -0.515863       -14.0374
  47   2.0000      -0.504536       -13.7291
  48   2.0000      -0.498562       -13.5666
  49   2.0000      -0.498156       -13.5555
  50   2.0000      -0.489539       -13.3210
  51   2.0000      -0.475865       -12.9489
  52   2.0000      -0.470677       -12.8078
  53   2.0000      -0.465415       -12.6646
  54   2.0000      -0.461987       -12.5713
  55   2.0000      -0.446601       -12.1526
  56   2.0000      -0.438571       -11.9341
  57   2.0000      -0.434792       -11.8313
  58   2.0000      -0.432813       -11.7774
  59   2.0000      -0.425687       -11.5835
  60   2.0000      -0.422648       -11.5008
  61   2.0000      -0.411639       -11.2013
  62   2.0000      -0.407333       -11.0841
  63   2.0000      -0.345742        -9.4081
  64   2.0000      -0.329887        -8.9767
  65   2.0000      -0.329512        -8.9665
  66   2.0000      -0.290505        -7.9050
  67   0.0000       0.020670         0.5625
  68   0.0000       0.065504         1.7825
  69   0.0000       0.106220         2.8904
  70   0.0000       0.114192         3.1073
  71   0.0000       0.120986         3.2922

MULLIKEN ATOMIC CHARGES
-----------------------
   0 S :    0.125646
   1 C :   -0.128415
   2 C :   -0.094904
   3 C :    0.042852
   4 C :   -0.164602
   5 H :    0.004312
   6 C :    0.064611
   7 H :    0.041633
   8 H :    0.005693
   9 C :   -0.016945
  10 H :    0.013859
  11 H :    0.001068
  12 C :   -0.052721
  13 H :    0.043045
  14 H :    0.028119
  15 H :    0.028571
  16 S :    0.107518
  17 C :   -0.134213
  18 C :   -0.033735
  19 C :   -0.017553
  20 C :   -0.165454
  21 H :    0.034291
  22 C :    0.020537
  23 H :    0.047003
  24 H :    0.043580
  25 C :   -0.080057
  26 H :    0.035017
  27 H :    0.039727
  28 C :   -0.098430
  29 H :    0.035542
  30 H :    0.030464
  31 H :    0.047809
  32 H :    0.048311
  33 H :    0.097821
Sum of atomic charges:   -0.0000000

LOEWDIN ATOMIC CHARGES
----------------------
   0 S :    0.393820
   1 C :   -0.193677
   2 C :   -0.062570
   3 C :   -0.049076
   4 C :   -0.186693
   5 H :    0.027040
   6 C :   -0.027170
   7 H :    0.044557
   8 H :    0.019891
   9 C :   -0.046070
  10 H :    0.024918
  11 H :    0.019191
  12 C :   -0.070561
  13 H :    0.032618
  14 H :    0.022277
  15 H :    0.030348
  16 S :    0.379145
  17 C :   -0.192456
  18 C :   -0.075158
  19 C :   -0.050609
  20 C :   -0.197739
  21 H :    0.032203
  22 C :   -0.040724
  23 H :    0.037045
  24 H :    0.038643
  25 C :   -0.046890
  26 H :    0.022687
  27 H :    0.029517
  28 C :   -0.079621
  29 H :    0.019849
  30 H :    0.026638
  31 H :    0.034934
  32 H :    0.025165
  33 H :    0.058525

  Mayer bond orders larger than 0.100000
B(  0-S ,  1-C ) :   1.1495 B(  0-S ,  4-C ) :   1.1292 B(  1-C ,  2-C ) :   1.5929
B(  1-C , 32-H ) :   0.9630 B(  2-C ,  3-C ) :   1.2622 B(  2-C ,  6-C ) :   1.0115
B(  3-C ,  4-C ) :   1.5414 B(  3-C ,  5-H ) :   0.9939 B(  4-C , 20-C ) :   1.1014
B(  6-C ,  7-H ) :   0.9382 B(  6-C ,  8-H ) :   0.9442 B(  6-C ,  9-C ) :   1.0731
B(  9-C , 10-H ) :   0.9447 B(  9-C , 11-H ) :   0.9468 B(  9-C , 12-C ) :   1.0894
B( 12-C , 13-H ) :   0.9688 B( 12-C , 14-H ) :   0.9761 B( 12-C , 15-H ) :   0.9709
B( 16-S , 17-C ) :   1.1197 B( 16-S , 20-C ) :   1.1306 B( 17-C , 18-C ) :   1.6380
B( 17-C , 33-H ) :   0.9522 B( 18-C , 19-C ) :   1.2270 B( 18-C , 21-H ) :   0.9710
B( 19-C , 20-C ) :   1.5928 B( 19-C , 22-C ) :   1.0393 B( 22-C , 23-H ) :   0.9346
B( 22-C , 24-H ) :   0.9437 B( 22-C , 25-C ) :   1.0580 B( 25-C , 26-H ) :   0.9574
B( 25-C , 27-H ) :   0.9591 B( 25-C , 28-C ) :   1.0613 B( 28-C , 29-H ) :   0.9785
B( 28-C , 30-H ) :   0.9716 B( 28-C , 31-H ) :   0.9744

Dispersion correction           -0.014545988
FINAL SINGLE POINT ENERGY     -1339.862883713217

DIPOLE MOMENT
-------------
                                X             Y             Z
Electronic contribution:      3.86939      15.68305     -25.18723
Nuclear contribution   :     -3.98305     -16.11215      25.75367
                        -----------------------------------------
Total Dipole Moment    :     -0.11367      -0.42911       0.56644
                        -----------------------------------------
Magnitude (a.u.)       :      0.71966
Magnitude (Debye)      :      1.82922

Rotational constants in cm-1:     0.017665     0.009299     0.006593
Rotational constants in MHz :   529.587353   278.780624   197.647091

                             ****ORCA TERMINATED NORMALLY****
TOTAL RUN TIME: 0 days 0 hours 0 minutes 31 seconds 118 msec
