                         Program Version 4.2.1 -  RELEASE  -
|  1> ! wB97X-D3 SP def2-SVP
|  2> %pal
|  3> nprocs 16
|  4> end
|  5>
|  6> * xyz 0 1
|  7> S 	 -69.3717 	 38.1546 	 131.766
|  8> C 	 -69.2549 	 39.1272 	 130.297
|  9> C 	 -68.6847 	 40.3639 	 130.469
| 10> C 	 -68.2937 	 40.5265 	 131.819
| 11> C 	 -68.5748 	 39.4387 	 132.622
| 12> H 	 -67.8503 	 41.4219 	 132.139
| 13> C 	 -68.6705 	 41.4942 	 129.431
| 14> H 	 -67.986 	 41.2809 	 128.581
| 15> H 	 -68.2331 	 42.3685 	 129.891
| 16> C 	 -69.9817 	 41.897 	 128.906
| 17> H 	 -69.9997 	 42.6953 	 128.113
| 18> H 	 -70.41 	 40.9536 	 128.393
| 19> C 	 -71.0014 	 42.239 	 129.948
| 20> H 	 -70.7357 	 42.9528 	 130.654
| 21> H 	 -71.9091 	 42.5797 	 129.488
| 22> H 	 -71.3325 	 41.4003 	 130.513
| 23> S 	 -69.9083 	 39.5025 	 134.952
| 24> C 	 -69.0198 	 39.287 	 136.444
| 25> C 	 -67.6254 	 39.2916 	 136.259
| 26> C 	 -67.2123 	 39.391 	 134.857
| 27> C 	 -68.3672 	 39.402 	 134.052
| 28> H 	 -66.8991 	 39.3178 	 137.043
| 29> C 	 -65.7721 	 39.5582 	 134.454
| 30> H 	 -65.4263 	 40.0034 	 135.376
| 31> H 	 -65.6985 	 40.3006 	 133.619
| 32> C 	 -64.952 	 38.3173 	 134.146
| 33> H 	 -65.0692 	 37.5513 	 134.943
| 34> H 	 -63.8956 	 38.6633 	 134.102
| 35> C 	 -65.3595 	 37.6398 	 132.789
| 36> H 	 -66.4419 	 37.3923 	 132.795
| 37> H 	 -64.7812 	 36.8151 	 132.545
| 38> H 	 -65.156 	 38.3383 	 132.032
| 39> H 	 -69.5669 	 38.812 	 129.317
| 40> H 	 -69.484 	 39.3271 	 137.457
| 41> *
| 42>
| 43>                          ****END OF INPUT****

CARTESIAN COORDINATES (ANGSTROEM)
---------------------------------
  S    -69.371700   38.154600  131.766000
  C    -69.254900   39.127200  130.297000
  C    -68.684700   40.363900  130.469000
  C    -68.293700   40.526500  131.819000
  C    -68.574800   39.438700  132.622000
  H    -67.850300   41.421900  132.139000
  C    -68.670500   41.494200  129.431000
  H    -67.986000   41.280900  128.581000
  H    -68.233100   42.368500  129.891000
  C    -69.981700   41.897000  128.906000
  H    -69.999700   42.695300  128.113000
  H    -70.410000   40.953600  128.393000
  C    -71.001400   42.239000  129.948000
  H    -70.735700   42.952800  130.654000
  H    -71.909100   42.579700  129.488000
  H    -71.332500   41.400300  130.513000
  S    -69.908300   39.502500  134.952000
  C    -69.019800   39.287000  136.444000
  C    -67.625400   39.291600  136.259000
  C    -67.212300   39.391000  134.857000
  C    -68.367200   39.402000  134.052000
  H    -66.899100   39.317800  137.043000
  C    -65.772100   39.558200  134.454000
  H    -65.426300   40.003400  135.376000
  H    -65.698500   40.300600  133.619000
  C    -64.952000   38.317300  134.146000
  H    -65.069200   37.551300  134.943000
  H    -63.895600   38.663300  134.102000
  C    -65.359500   37.639800  132.789000
  H    -66.441900   37.392300  132.795000
  H    -64.781200   36.815100  132.545000
  H    -65.156000   38.338300  132.032000
  H    -69.566900   38.812000  129.317000
  H    -69.484000   39.327100  137.457000

 Total Charge           Charge          ....    0
 Multiplicity           Mult            ....    1
 Number of Electrons    NEL             ....  134
 Basis Dimension        Dim             ....  322

ORBITAL ENERGIES
----------------

  NO   OCC          E(Eh)            E(eV)
   0   2.0000     -88.972293     -2421.0592
   1   2.0000     -88.966324     -2420.8968
   2   2.0000     -10.325595      -280.9737
   3   2.0000     -10.324570      -280.9458
   4   2.0000     -10.322163      -280.8803
   5   2.0000     -10.311797      -280.5983
   6   2.0000     -10.307564      -280.4831
   7   2.0000     -10.298326      -280.2317
   8   2.0000     -10.297424      -280.2072
   9   2.0000     -10.294196      -280.1193
  10   2.0000     -10.292597      -280.0758
  11   2.0000     -10.290355      -280.0148
  12   2.0000     -10.290162      -280.0095
  13   2.0000     -10.288325      -279.9596
  14   2.0000     -10.264380      -279.3080
  15   2.0000     -10.259101      -279.1643
  16   2.0000      -8.086468      -220.0440
  17   2.0000      -8.080522      -219.8822
  18   2.0000      -6.044918      -164.4906
  19   2.0000      -6.041117      -164.3872
  20   2.0000      -6.039059      -164.3312
  21   2.0000      -6.037251      -164.2819
  22   2.0000      -6.035224      -164.2268
  23   2.0000      -6.031166      -164.1164
  24   2.0000      -1.005255       -27.3544
  25   2.0000      -0.977374       -26.5957
  26   2.0000      -0.921080       -25.0639
  27   2.0000      -0.907877       -24.7046
  28   2.0000      -0.865180       -23.5427
  29   2.0000      -0.851117       -23.1601
  30   2.0000      -0.845316       -23.0022
  31   2.0000      -0.807870       -21.9832
  32   2.0000      -0.790216       -21.5029
  33   2.0000      -0.775243       -21.0954
  34   2.0000      -0.706435       -19.2231
  35   2.0000      -0.698834       -19.0162
  36   2.0000      -0.684712       -18.6320
  37   2.0000      -0.662844       -18.0369
  38   2.0000      -0.639907       -17.4128
  39   2.0000      -0.614987       -16.7346
  40   2.0000      -0.592802       -16.1310
  41   2.0000      -0.572844       -15.5879
  42   2.0000      -0.557546       -15.1716
  43   2.0000      -0.551059       -14.9951
  44   2.0000      -0.546232       -14.8637
  45   2.0000      -0.535871       -14.5818
  46   2.0000      -0.511034       -13.9059
  47   2.0000      -0.509630       -13.8677
  48   2.0000      -0.499661       -13.5965
  49   2.0000      -0.493541       -13.4299
  50   2.0000      -0.485675       -13.2159
  51   2.0000      -0.474984       -12.9250
  52   2.0000      -0.470072       -12.7913
  53   2.0000      -0.464516       -12.6401
  54   2.0000      -0.456988       -12.4353
  55   2.0000      -0.448713       -12.2101
  56   2.0000      -0.444471       -12.0947
  57   2.0000      -0.442239       -12.0339
  58   2.0000      -0.438178       -11.9234
  59   2.0000      -0.425879       -11.5887
  60   2.0000      -0.420586       -11.4447
  61   2.0000      -0.414131       -11.2691
  62   2.0000      -0.405539       -11.0353
  63   2.0000      -0.340478        -9.2649
  64   2.0000      -0.329976        -8.9791
  65   2.0000      -0.327550        -8.9131
  66   2.0000      -0.295722        -8.0470
  67   0.0000       0.036252         0.9865
  68   0.0000       0.057211         1.5568
  69   0.0000       0.102076         2.7776
  70   0.0000       0.113031         3.0757
  71   0.0000       0.128831         3.5057

MULLIKEN ATOMIC CHARGES
-----------------------
   0 S :    0.135916
   1 C :   -0.128780
   2 C :   -0.090893
   3 C :    0.061865
   4 C :   -0.167474
   5 H :   -0.012531
   6 C :    0.111947
   7 H :    0.040651
   8 H :    0.006880
   9 C :   -0.117987
  10 H :    0.041594
  11 H :    0.024607
  12 C :    0.000237
  13 H :    0.009252
  14 H :    0.016845
  15 H :    0.026340
  16 S :    0.111034
  17 C :   -0.096579
  18 C :   -0.033835
  19 C :   -0.032848
  20 C :   -0.201331
  21 H :    0.008561
  22 C :    0.074955
  23 H :    0.016050
  24 H :    0.037362
  25 C :   -0.080880
  26 H :    0.032284
  27 H :    0.037559
  28 C :   -0.011215
  29 H :    0.042009
  30 H :    0.018985
  31 H :    0.011377
  32 H :    0.035861
  33 H :    0.072180
Sum of atomic charges:    0.0000000

LOEWDIN ATOMIC CHARGES
----------------------
   0 S :    0.416933
   1 C :   -0.187758
   2 C :   -0.060703
   3 C :   -0.051197
   4 C :   -0.208985
   5 H :    0.021870
   6 C :   -0.034288
   7 H :    0.038427
   8 H :    0.024848
   9 C :   -0.049891
  10 H :    0.030766
  11 H :    0.028470
  12 C :   -0.062197
  13 H :    0.013846
  14 H :    0.026178
  15 H :    0.025574
  16 S :    0.394764
  17 C :   -0.195342
  18 C :   -0.068793
  19 C :   -0.049963
  20 C :   -0.191252
  21 H :    0.024012
  22 C :   -0.035074
  23 H :    0.033182
  24 H :    0.037218
  25 C :   -0.037181
  26 H :    0.025301
  27 H :    0.027784
  28 C :   -0.057178
  29 H :    0.028953
  30 H :    0.015690
  31 H :    0.017845
  32 H :    0.021323
  33 H :    0.036818

  Mayer bond orders larger than 0.100000
B(  0-S ,  1-C ) :   1.1375 B(  0-S ,  4-C ) :   1.1514 B(  1-C ,  2-C ) :   1.6215
B(  1-C , 32-H ) :   0.9647 B(  2-C ,  3-C ) :   1.2568 B(  2-C ,  6-C ) :   1.0044
B(  3-C ,  4-C ) :   1.5687 B(  3-C ,  5-H ) :   1.0012 B(  4-C , 20-C ) :   1.0237
B(  6-C ,  7-H ) :   0.9323 B(  6-C ,  8-H ) :   0.9393 B(  6-C ,  9-C ) :   1.0839
B(  9-C , 10-H ) :   0.9566 B(  9-C , 11-H ) :   0.9489 B(  9-C , 12-C ) :   1.0836
B( 12-C , 13-H ) :   0.9749 B( 12-C , 14-H ) :   0.9681 B( 12-C , 15-H ) :   0.9658
B( 16-S , 17-C ) :   1.1438 B( 16-S , 20-C ) :   1.1492 B( 17-C , 18-C ) :   1.6202
B( 17-C , 33-H ) :   0.9613 B( 18-C , 19-C ) :   1.2320 B( 18-C , 21-H ) :   0.9817
B( 19-C , 20-C ) :   1.6003 B( 19-C , 22-C ) :   1.0245 B( 22-C , 23-H ) :   0.9223
B( 22-C , 24-H ) :   0.9371 B( 22-C , 25-C ) :   1.0784 B( 25-C , 26-H ) :   0.9551
B( 25-C , 27-H ) :   0.9538 B( 25-C , 28-C ) :   1.0750 B( 28-C , 29-H ) :   0.9719
B( 28-C , 30-H ) :   0.9742 B( 28-C , 31-H ) :   0.9740

Dispersion correction           -0.015640202
FINAL SINGLE POINT ENERGY     -1339.875709372492

DIPOLE MOMENT
-------------
                                X             Y             Z
Electronic contribution:    -10.15813      -8.22428      11.77890
Nuclear contribution   :     10.50355       8.64416     -11.91906
                        -----------------------------------------
Total Dipole Moment    :      0.34542       0.41988      -0.14016
                        -----------------------------------------
Magnitude (a.u.)       :      0.56148
Magnitude (Debye)      :      1.42718

Rotational constants in cm-1:     0.020732     0.008986     0.007582
Rotational constants in MHz :   621.517109   269.391431   227.298193

                             ****ORCA TERMINATED NORMALLY****
TOTAL RUN TIME: 0 days 0 hours 0 minutes 37 seconds 957 msec
