                         Program Version 4.2.1 -  RELEASE  -
|  1> ! wB97X-D3 SP def2-SVP
|  2> %pal
|  3> nprocs 16
|  4> end
|  5>
|  6> * xyz 0 1
|  7> S 	 24.9692 	 30.6317 	 56.9607
|  8> C 	 23.7951 	 29.6786 	 57.7032
|  9> C 	 23.3891 	 30.2092 	 58.8864
| 10> C 	 23.8503 	 31.5421 	 59.1782
| 11> C 	 24.6458 	 31.9504 	 58.1244
| 12> H 	 23.6006 	 32.284 	 59.8877
| 13> C 	 22.4161 	 29.4311 	 59.8675
| 14> H 	 22.9833 	 29.1569 	 60.7973
| 15> H 	 22.181 	 28.4247 	 59.3888
| 16> C 	 21.0338 	 30.0572 	 60.1511
| 17> H 	 20.5754 	 29.3307 	 60.8303
| 18> H 	 21.0263 	 30.9851 	 60.6717
| 19> C 	 20.1698 	 30.1844 	 58.9073
| 20> H 	 20.2022 	 31.238 	 58.5602
| 21> H 	 20.565 	 29.6849 	 58.0665
| 22> H 	 19.1026 	 30.0704 	 59.1547
| 23> S 	 25.835 	 34.196 	 59.186
| 24> C 	 26.4362 	 35.3519 	 58.0577
| 25> C 	 25.9734 	 35.135 	 56.8102
| 26> C 	 25.1413 	 33.9897 	 56.6475
| 27> C 	 25.0747 	 33.2972 	 57.8576
| 28> H 	 26.3701 	 35.8591 	 56.0313
| 29> C 	 24.3048 	 33.8111 	 55.4215
| 30> H 	 24.1484 	 32.7295 	 55.3317
| 31> H 	 24.8016 	 34.1438 	 54.5241
| 32> C 	 22.8805 	 34.5013 	 55.4934
| 33> H 	 22.2578 	 34.2769 	 54.6282
| 34> H 	 23.1555 	 35.5908 	 55.5793
| 35> C 	 22.0471 	 34.2507 	 56.7648
| 36> H 	 21.8027 	 33.2063 	 56.8749
| 37> H 	 21.051 	 34.636 	 56.5597
| 38> H 	 22.5429 	 34.6451 	 57.5875
| 39> H 	 23.5349 	 28.7402 	 57.2766
| 40> H 	 26.9534 	 36.2027 	 58.3676
| 41> *
| 42>
| 43>                          ****END OF INPUT****

CARTESIAN COORDINATES (ANGSTROEM)
---------------------------------
  S     24.969200   30.631700   56.960700
  C     23.795100   29.678600   57.703200
  C     23.389100   30.209200   58.886400
  C     23.850300   31.542100   59.178200
  C     24.645800   31.950400   58.124400
  H     23.600600   32.284000   59.887700
  C     22.416100   29.431100   59.867500
  H     22.983300   29.156900   60.797300
  H     22.181000   28.424700   59.388800
  C     21.033800   30.057200   60.151100
  H     20.575400   29.330700   60.830300
  H     21.026300   30.985100   60.671700
  C     20.169800   30.184400   58.907300
  H     20.202200   31.238000   58.560200
  H     20.565000   29.684900   58.066500
  H     19.102600   30.070400   59.154700
  S     25.835000   34.196000   59.186000
  C     26.436200   35.351900   58.057700
  C     25.973400   35.135000   56.810200
  C     25.141300   33.989700   56.647500
  C     25.074700   33.297200   57.857600
  H     26.370100   35.859100   56.031300
  C     24.304800   33.811100   55.421500
  H     24.148400   32.729500   55.331700
  H     24.801600   34.143800   54.524100
  C     22.880500   34.501300   55.493400
  H     22.257800   34.276900   54.628200
  H     23.155500   35.590800   55.579300
  C     22.047100   34.250700   56.764800
  H     21.802700   33.206300   56.874900
  H     21.051000   34.636000   56.559700
  H     22.542900   34.645100   57.587500
  H     23.534900   28.740200   57.276600
  H     26.953400   36.202700   58.367600

 Total Charge           Charge          ....    0
 Multiplicity           Mult            ....    1
 Number of Electrons    NEL             ....  134
 Basis Dimension        Dim             ....  322

ORBITAL ENERGIES
----------------

  NO   OCC          E(Eh)            E(eV)
   0   2.0000     -88.964450     -2420.8458
   1   2.0000     -88.964254     -2420.8404
   2   2.0000     -10.327862      -281.0354
   3   2.0000     -10.326461      -280.9973
   4   2.0000     -10.308591      -280.5110
   5   2.0000     -10.306486      -280.4537
   6   2.0000     -10.304420      -280.3975
   7   2.0000     -10.304372      -280.3962
   8   2.0000     -10.301330      -280.3134
   9   2.0000     -10.294290      -280.1219
  10   2.0000     -10.293398      -280.0976
  11   2.0000     -10.289411      -279.9891
  12   2.0000     -10.288814      -279.9729
  13   2.0000     -10.282103      -279.7903
  14   2.0000     -10.271846      -279.5111
  15   2.0000     -10.264505      -279.3114
  16   2.0000      -8.079703      -219.8599
  17   2.0000      -8.079692      -219.8596
  18   2.0000      -6.038125      -164.3057
  19   2.0000      -6.038106      -164.3052
  20   2.0000      -6.034267      -164.2007
  21   2.0000      -6.034145      -164.1974
  22   2.0000      -6.030426      -164.0962
  23   2.0000      -6.030421      -164.0961
  24   2.0000      -1.011074       -27.5127
  25   2.0000      -0.989736       -26.9321
  26   2.0000      -0.905164       -24.6308
  27   2.0000      -0.902492       -24.5581
  28   2.0000      -0.876921       -23.8622
  29   2.0000      -0.851985       -23.1837
  30   2.0000      -0.845131       -22.9972
  31   2.0000      -0.813429       -22.1345
  32   2.0000      -0.785082       -21.3632
  33   2.0000      -0.770210       -20.9585
  34   2.0000      -0.708967       -19.2920
  35   2.0000      -0.693956       -18.8835
  36   2.0000      -0.686331       -18.6760
  37   2.0000      -0.665968       -18.1219
  38   2.0000      -0.644838       -17.5469
  39   2.0000      -0.611473       -16.6390
  40   2.0000      -0.593469       -16.1491
  41   2.0000      -0.566969       -15.4280
  42   2.0000      -0.558653       -15.2017
  43   2.0000      -0.554347       -15.0846
  44   2.0000      -0.541342       -14.7307
  45   2.0000      -0.537672       -14.6308
  46   2.0000      -0.522103       -14.2072
  47   2.0000      -0.505917       -13.7667
  48   2.0000      -0.501866       -13.6565
  49   2.0000      -0.496645       -13.5144
  50   2.0000      -0.494450       -13.4547
  51   2.0000      -0.481270       -13.0960
  52   2.0000      -0.471864       -12.8401
  53   2.0000      -0.464803       -12.6479
  54   2.0000      -0.449667       -12.2361
  55   2.0000      -0.446039       -12.1373
  56   2.0000      -0.440901       -11.9975
  57   2.0000      -0.439357       -11.9555
  58   2.0000      -0.431088       -11.7305
  59   2.0000      -0.425647       -11.5824
  60   2.0000      -0.422694       -11.5021
  61   2.0000      -0.405628       -11.0377
  62   2.0000      -0.402046       -10.9402
  63   2.0000      -0.355454        -9.6724
  64   2.0000      -0.331705        -9.0261
  65   2.0000      -0.328028        -8.9261
  66   2.0000      -0.286281        -7.7901
  67   0.0000       0.021178         0.5763
  68   0.0000       0.079945         2.1754
  69   0.0000       0.105523         2.8714
  70   0.0000       0.113710         3.0942
  71   0.0000       0.132806         3.6138

MULLIKEN ATOMIC CHARGES
-----------------------
   0 S :    0.117427
   1 C :   -0.120373
   2 C :   -0.058558
   3 C :    0.036204
   4 C :   -0.122199
   5 H :    0.008169
   6 C :    0.006559
   7 H :    0.049450
   8 H :    0.024062
   9 C :   -0.059649
  10 H :    0.029445
  11 H :    0.026363
  12 C :   -0.041769
  13 H :    0.024977
  14 H :    0.021941
  15 H :    0.040123
  16 S :    0.096499
  17 C :   -0.067441
  18 C :   -0.059450
  19 C :   -0.060895
  20 C :   -0.183251
  21 H :    0.041331
  22 C :    0.104790
  23 H :    0.015853
  24 H :    0.022198
  25 C :   -0.104547
  26 H :    0.038229
  27 H :    0.030939
  28 C :   -0.019083
  29 H :    0.023566
  30 H :    0.024485
  31 H :    0.040223
  32 H :    0.039299
  33 H :    0.035082
Sum of atomic charges:   -0.0000000

LOEWDIN ATOMIC CHARGES
----------------------
   0 S :    0.421245
   1 C :   -0.212995
   2 C :   -0.064335
   3 C :   -0.056632
   4 C :   -0.170195
   5 H :    0.027976
   6 C :   -0.035160
   7 H :    0.035384
   8 H :    0.031342
   9 C :   -0.045599
  10 H :    0.026541
  11 H :    0.017952
  12 C :   -0.069424
  13 H :    0.031062
  14 H :    0.018496
  15 H :    0.031885
  16 S :    0.399103
  17 C :   -0.181959
  18 C :   -0.078736
  19 C :   -0.058074
  20 C :   -0.190531
  21 H :    0.044080
  22 C :   -0.034505
  23 H :    0.018261
  24 H :    0.028934
  25 C :   -0.034380
  26 H :    0.024313
  27 H :    0.027389
  28 C :   -0.059970
  29 H :    0.022421
  30 H :    0.029289
  31 H :    0.016708
  32 H :    0.022380
  33 H :    0.017734

  Mayer bond orders larger than 0.100000
B(  0-S ,  1-C ) :   1.1391 B(  0-S ,  4-C ) :   1.1418 B(  1-C ,  2-C ) :   1.6290
B(  1-C , 32-H ) :   0.9734 B(  2-C ,  3-C ) :   1.1985 B(  2-C ,  6-C ) :   1.0076
B(  3-C ,  4-C ) :   1.5743 B(  3-C ,  5-H ) :   1.0028 B(  4-C , 20-C ) :   1.0738
B(  6-C ,  7-H ) :   0.9462 B(  6-C ,  8-H ) :   0.9497 B(  6-C ,  9-C ) :   1.0705
B(  9-C , 10-H ) :   0.9600 B(  9-C , 11-H ) :   0.9599 B(  9-C , 12-C ) :   1.0661
B( 12-C , 13-H ) :   0.9714 B( 12-C , 14-H ) :   0.9791 B( 12-C , 15-H ) :   0.9737
B( 16-S , 17-C ) :   1.1439 B( 16-S , 20-C ) :   1.1332 B( 17-C , 18-C ) :   1.6377
B( 17-C , 33-H ) :   0.9724 B( 18-C , 19-C ) :   1.2167 B( 18-C , 21-H ) :   0.9796
B( 19-C , 20-C ) :   1.5678 B( 19-C , 22-C ) :   1.0616 B( 22-C , 23-H ) :   0.9180
B( 22-C , 24-H ) :   0.9341 B( 22-C , 25-C ) :   1.0544 B( 25-C , 26-H ) :   0.9597
B( 25-C , 27-H ) :   0.9575 B( 25-C , 28-C ) :   1.0901 B( 28-C , 29-H ) :   0.9728
B( 28-C , 30-H ) :   0.9688 B( 28-C , 31-H ) :   0.9717

Dispersion correction           -0.016203535
FINAL SINGLE POINT ENERGY     -1339.864927261604

DIPOLE MOMENT
-------------
                                X             Y             Z
Electronic contribution:     23.70266       1.76257       1.88521
Nuclear contribution   :    -24.10195      -1.62732      -1.98058
                        -----------------------------------------
Total Dipole Moment    :     -0.39928       0.13525      -0.09537
                        -----------------------------------------
Magnitude (a.u.)       :      0.43222
Magnitude (Debye)      :      1.09861

Rotational constants in cm-1:     0.020848     0.009015     0.008375
Rotational constants in MHz :   625.014264   270.262263   251.084880

                             ****ORCA TERMINATED NORMALLY****
TOTAL RUN TIME: 0 days 0 hours 0 minutes 37 seconds 667 msec
