                         Program Version 4.2.1 -  RELEASE  -
|  1> ! wB97X-D3 SP def2-SVP
|  2> %pal
|  3> nprocs 16
|  4> end
|  5>
|  6> * xyz 0 1
|  7> S 	 -24.4569 	 56.432 	 109.881
|  8> C 	 -23.2068 	 57.3937 	 109.119
|  9> C 	 -23.6571 	 58.4206 	 108.327
| 10> C 	 -25.0711 	 58.5437 	 108.393
| 11> C 	 -25.6666 	 57.5716 	 109.172
| 12> H 	 -25.5698 	 59.2366 	 107.814
| 13> C 	 -22.8765 	 59.4308 	 107.517
| 14> H 	 -21.8323 	 59.5197 	 107.86
| 15> H 	 -23.3693 	 60.3838 	 107.473
| 16> C 	 -23.0483 	 59.0284 	 106.023
| 17> H 	 -24.1122 	 59.0396 	 105.748
| 18> H 	 -22.6572 	 59.8012 	 105.363
| 19> C 	 -22.4899 	 57.6547 	 105.667
| 20> H 	 -21.4586 	 57.5019 	 105.857
| 21> H 	 -22.9728 	 56.8957 	 106.278
| 22> H 	 -22.485 	 57.4262 	 104.627
| 23> S 	 -27.542 	 55.5976 	 108.495
| 24> C 	 -29.2879 	 56.0567 	 108.785
| 25> C 	 -29.3366 	 57.1434 	 109.649
| 26> C 	 -28.0794 	 57.7894 	 109.874
| 27> C 	 -27.0396 	 57.1587 	 109.203
| 28> H 	 -30.2504 	 57.4728 	 110.028
| 29> C 	 -27.999 	 59.0555 	 110.711
| 30> H 	 -26.9188 	 59.2107 	 110.857
| 31> H 	 -28.2825 	 58.7374 	 111.693
| 32> C 	 -28.6171 	 60.3535 	 110.225
| 33> H 	 -28.3179 	 61.1635 	 110.842
| 34> H 	 -29.702 	 60.2049 	 110.471
| 35> C 	 -28.6295 	 60.557 	 108.696
| 36> H 	 -27.6096 	 60.9318 	 108.399
| 37> H 	 -29.2794 	 61.3922 	 108.458
| 38> H 	 -28.8614 	 59.7001 	 108.083
| 39> H 	 -22.1342 	 57.1197 	 109.179
| 40> H 	 -30.0632 	 55.4308 	 108.427
| 41> *
| 42>
| 43>                          ****END OF INPUT****

CARTESIAN COORDINATES (ANGSTROEM)
---------------------------------
  S    -24.456900   56.432000  109.881000
  C    -23.206800   57.393700  109.119000
  C    -23.657100   58.420600  108.327000
  C    -25.071100   58.543700  108.393000
  C    -25.666600   57.571600  109.172000
  H    -25.569800   59.236600  107.814000
  C    -22.876500   59.430800  107.517000
  H    -21.832300   59.519700  107.860000
  H    -23.369300   60.383800  107.473000
  C    -23.048300   59.028400  106.023000
  H    -24.112200   59.039600  105.748000
  H    -22.657200   59.801200  105.363000
  C    -22.489900   57.654700  105.667000
  H    -21.458600   57.501900  105.857000
  H    -22.972800   56.895700  106.278000
  H    -22.485000   57.426200  104.627000
  S    -27.542000   55.597600  108.495000
  C    -29.287900   56.056700  108.785000
  C    -29.336600   57.143400  109.649000
  C    -28.079400   57.789400  109.874000
  C    -27.039600   57.158700  109.203000
  H    -30.250400   57.472800  110.028000
  C    -27.999000   59.055500  110.711000
  H    -26.918800   59.210700  110.857000
  H    -28.282500   58.737400  111.693000
  C    -28.617100   60.353500  110.225000
  H    -28.317900   61.163500  110.842000
  H    -29.702000   60.204900  110.471000
  C    -28.629500   60.557000  108.696000
  H    -27.609600   60.931800  108.399000
  H    -29.279400   61.392200  108.458000
  H    -28.861400   59.700100  108.083000
  H    -22.134200   57.119700  109.179000
  H    -30.063200   55.430800  108.427000

 Total Charge           Charge          ....    0
 Multiplicity           Mult            ....    1
 Number of Electrons    NEL             ....  134
 Basis Dimension        Dim             ....  322

ORBITAL ENERGIES
----------------

  NO   OCC          E(Eh)            E(eV)
   0   2.0000     -88.966201     -2420.8934
   1   2.0000     -88.963218     -2420.8122
   2   2.0000     -10.328868      -281.0628
   3   2.0000     -10.324749      -280.9507
   4   2.0000     -10.322780      -280.8971
   5   2.0000     -10.314189      -280.6634
   6   2.0000     -10.301610      -280.3210
   7   2.0000     -10.297686      -280.2143
   8   2.0000     -10.295346      -280.1506
   9   2.0000     -10.292943      -280.0852
  10   2.0000     -10.290420      -280.0166
  11   2.0000     -10.288142      -279.9546
  12   2.0000     -10.287579      -279.9393
  13   2.0000     -10.285464      -279.8817
  14   2.0000     -10.280242      -279.7396
  15   2.0000     -10.264003      -279.2977
  16   2.0000      -8.080226      -219.8741
  17   2.0000      -8.076454      -219.7715
  18   2.0000      -6.038779      -164.3235
  19   2.0000      -6.035105      -164.2236
  20   2.0000      -6.034988      -164.2204
  21   2.0000      -6.031435      -164.1237
  22   2.0000      -6.030847      -164.1077
  23   2.0000      -6.026884      -163.9999
  24   2.0000      -1.000181       -27.2163
  25   2.0000      -0.975625       -26.5481
  26   2.0000      -0.912657       -24.8347
  27   2.0000      -0.905935       -24.6517
  28   2.0000      -0.866106       -23.5679
  29   2.0000      -0.848456       -23.0877
  30   2.0000      -0.842219       -22.9180
  31   2.0000      -0.811553       -22.0835
  32   2.0000      -0.786761       -21.4089
  33   2.0000      -0.775470       -21.1016
  34   2.0000      -0.711937       -19.3728
  35   2.0000      -0.698094       -18.9961
  36   2.0000      -0.694797       -18.9064
  37   2.0000      -0.662670       -18.0322
  38   2.0000      -0.640350       -17.4248
  39   2.0000      -0.624903       -17.0045
  40   2.0000      -0.591747       -16.1023
  41   2.0000      -0.568057       -15.4576
  42   2.0000      -0.554801       -15.0969
  43   2.0000      -0.550925       -14.9914
  44   2.0000      -0.543541       -14.7905
  45   2.0000      -0.539989       -14.6939
  46   2.0000      -0.518635       -14.1128
  47   2.0000      -0.509776       -13.8717
  48   2.0000      -0.497587       -13.5400
  49   2.0000      -0.493676       -13.4336
  50   2.0000      -0.490285       -13.3413
  51   2.0000      -0.477282       -12.9875
  52   2.0000      -0.466275       -12.6880
  53   2.0000      -0.464568       -12.6415
  54   2.0000      -0.454902       -12.3785
  55   2.0000      -0.449661       -12.2359
  56   2.0000      -0.445748       -12.1294
  57   2.0000      -0.440896       -11.9974
  58   2.0000      -0.435912       -11.8618
  59   2.0000      -0.423353       -11.5200
  60   2.0000      -0.422558       -11.4984
  61   2.0000      -0.415326       -11.3016
  62   2.0000      -0.394004       -10.7214
  63   2.0000      -0.342783        -9.3276
  64   2.0000      -0.328340        -8.9346
  65   2.0000      -0.324986        -8.8433
  66   2.0000      -0.294749        -8.0205
  67   0.0000       0.033490         0.9113
  68   0.0000       0.051646         1.4054
  69   0.0000       0.104599         2.8463
  70   0.0000       0.114991         3.1291
  71   0.0000       0.125956         3.4274

MULLIKEN ATOMIC CHARGES
-----------------------
   0 S :    0.098455
   1 C :   -0.135930
   2 C :   -0.099293
   3 C :    0.080241
   4 C :   -0.172879
   5 H :   -0.022801
   6 C :    0.103249
   7 H :    0.037949
   8 H :    0.022948
   9 C :   -0.105226
  10 H :    0.031394
  11 H :    0.024961
  12 C :   -0.024977
  13 H :    0.004866
  14 H :    0.044113
  15 H :    0.022835
  16 S :    0.088751
  17 C :   -0.096843
  18 C :    0.018541
  19 C :   -0.077796
  20 C :   -0.146383
  21 H :   -0.003530
  22 C :    0.096185
  23 H :    0.021107
  24 H :    0.024910
  25 C :   -0.060378
  26 H :    0.031959
  27 H :    0.020031
  28 C :   -0.046779
  29 H :    0.027230
  30 H :    0.032228
  31 H :    0.055268
  32 H :    0.053355
  33 H :    0.052241
Sum of atomic charges:    0.0000000

LOEWDIN ATOMIC CHARGES
----------------------
   0 S :    0.378383
   1 C :   -0.198707
   2 C :   -0.064888
   3 C :   -0.036094
   4 C :   -0.170500
   5 H :    0.017927
   6 C :   -0.023219
   7 H :    0.033089
   8 H :    0.032450
   9 C :   -0.039681
  10 H :    0.025924
  11 H :    0.020403
  12 C :   -0.070012
  13 H :    0.018008
  14 H :    0.029099
  15 H :    0.024081
  16 S :    0.352101
  17 C :   -0.148619
  18 C :   -0.057166
  19 C :   -0.053251
  20 C :   -0.193590
  21 H :    0.020738
  22 C :   -0.036823
  23 H :    0.030608
  24 H :    0.031951
  25 C :   -0.040034
  26 H :    0.025001
  27 H :    0.024772
  28 C :   -0.064529
  29 H :    0.024838
  30 H :    0.026767
  31 H :    0.029410
  32 H :    0.030752
  33 H :    0.020812

  Mayer bond orders larger than 0.100000
B(  0-S ,  1-C ) :   1.1282 B(  0-S ,  4-C ) :   1.1257 B(  1-C ,  2-C ) :   1.6392
B(  1-C , 32-H ) :   0.9574 B(  2-C ,  3-C ) :   1.2252 B(  2-C ,  6-C ) :   1.0316
B(  3-C ,  4-C ) :   1.5922 B(  3-C ,  5-H ) :   1.0012 B(  4-C , 20-C ) :   1.0492
B(  6-C ,  7-H ) :   0.9496 B(  6-C ,  8-H ) :   0.9372 B(  6-C ,  9-C ) :   1.0535
B(  9-C , 10-H ) :   0.9573 B(  9-C , 11-H ) :   0.9569 B(  9-C , 12-C ) :   1.0740
B( 12-C , 13-H ) :   0.9719 B( 12-C , 14-H ) :   0.9714 B( 12-C , 15-H ) :   0.9713
B( 16-S , 17-C ) :   1.1261 B( 16-S , 20-C ) :   1.1204 B( 17-C , 18-C ) :   1.6117
B( 17-C , 33-H ) :   0.9781 B( 18-C , 19-C ) :   1.2129 B( 18-C , 21-H ) :   1.0015
B( 19-C , 20-C ) :   1.6112 B( 19-C , 22-C ) :   1.0434 B( 22-C , 23-H ) :   0.9198
B( 22-C , 24-H ) :   0.9323 B( 22-C , 25-C ) :   1.0587 B( 25-C , 26-H ) :   0.9570
B( 25-C , 27-H ) :   0.9539 B( 25-C , 28-C ) :   1.0818 B( 28-C , 29-H ) :   0.9737
B( 28-C , 30-H ) :   0.9728 B( 28-C , 31-H ) :   0.9668

Dispersion correction           -0.015640250
FINAL SINGLE POINT ENERGY     -1339.866056410447

DIPOLE MOMENT
-------------
                                X             Y             Z
Electronic contribution:     -2.76322     -19.66838       9.57356
Nuclear contribution   :      2.65743      20.25755      -9.73515
                        -----------------------------------------
Total Dipole Moment    :     -0.10579       0.58917      -0.16159
                        -----------------------------------------
Magnitude (a.u.)       :      0.62002
Magnitude (Debye)      :      1.57597

Rotational constants in cm-1:     0.019650     0.009032     0.007743
Rotational constants in MHz :   589.100896   270.787534   232.122042

                             ****ORCA TERMINATED NORMALLY****
TOTAL RUN TIME: 0 days 0 hours 0 minutes 29 seconds 681 msec
