                         Program Version 4.2.1 -  RELEASE  -
|  1> ! wB97X-D3 SP def2-SVP
|  2> %pal
|  3> nprocs 16
|  4> end
|  5>
|  6> * xyz 0 1
|  7> S 	 -36.0909 	 69.5162 	 145.282
|  8> C 	 -34.8918 	 70.7795 	 145.261
|  9> C 	 -33.614 	 70.2936 	 145.284
| 10> C 	 -33.6457 	 68.8746 	 145.483
| 11> C 	 -34.8946 	 68.3087 	 145.589
| 12> H 	 -32.7526 	 68.182 	 145.504
| 13> C 	 -32.2938 	 71.0729 	 145.005
| 14> H 	 -32.5884 	 72.1201 	 144.916
| 15> H 	 -31.8831 	 70.8395 	 144.094
| 16> C 	 -31.0739 	 70.726 	 145.897
| 17> H 	 -30.8877 	 69.6546 	 145.847
| 18> H 	 -30.0851 	 71.135 	 145.593
| 19> C 	 -31.1958 	 71.1883 	 147.384
| 20> H 	 -30.4934 	 70.6839 	 148.026
| 21> H 	 -31.1595 	 72.2405 	 147.54
| 22> H 	 -32.2076 	 70.9612 	 147.73
| 23> S 	 -36.3029 	 66.2427 	 144.568
| 24> C 	 -36.2069 	 64.5868 	 145.328
| 25> C 	 -35.2532 	 64.5795 	 146.336
| 26> C 	 -34.7619 	 65.9373 	 146.628
| 27> C 	 -35.236 	 66.899 	 145.717
| 28> H 	 -34.9023 	 63.6434 	 146.791
| 29> C 	 -33.7814 	 66.1688 	 147.753
| 30> H 	 -33.1258 	 67.0091 	 147.552
| 31> H 	 -33.1717 	 65.3249 	 147.901
| 32> C 	 -34.4463 	 66.3594 	 149.121
| 33> H 	 -35.295 	 65.5988 	 149.353
| 34> H 	 -34.9741 	 67.3478 	 148.961
| 35> C 	 -33.5349 	 66.399 	 150.253
| 36> H 	 -34.1677 	 66.5959 	 151.174
| 37> H 	 -32.805 	 67.2189 	 150.164
| 38> H 	 -33.1142 	 65.4537 	 150.47
| 39> H 	 -35.0655 	 71.8408 	 144.921
| 40> H 	 -36.6768 	 63.7456 	 144.922
| 41> *
| 42>
| 43>                          ****END OF INPUT****

CARTESIAN COORDINATES (ANGSTROEM)
---------------------------------
  S    -36.090900   69.516200  145.282000
  C    -34.891800   70.779500  145.261000
  C    -33.614000   70.293600  145.284000
  C    -33.645700   68.874600  145.483000
  C    -34.894600   68.308700  145.589000
  H    -32.752600   68.182000  145.504000
  C    -32.293800   71.072900  145.005000
  H    -32.588400   72.120100  144.916000
  H    -31.883100   70.839500  144.094000
  C    -31.073900   70.726000  145.897000
  H    -30.887700   69.654600  145.847000
  H    -30.085100   71.135000  145.593000
  C    -31.195800   71.188300  147.384000
  H    -30.493400   70.683900  148.026000
  H    -31.159500   72.240500  147.540000
  H    -32.207600   70.961200  147.730000
  S    -36.302900   66.242700  144.568000
  C    -36.206900   64.586800  145.328000
  C    -35.253200   64.579500  146.336000
  C    -34.761900   65.937300  146.628000
  C    -35.236000   66.899000  145.717000
  H    -34.902300   63.643400  146.791000
  C    -33.781400   66.168800  147.753000
  H    -33.125800   67.009100  147.552000
  H    -33.171700   65.324900  147.901000
  C    -34.446300   66.359400  149.121000
  H    -35.295000   65.598800  149.353000
  H    -34.974100   67.347800  148.961000
  C    -33.534900   66.399000  150.253000
  H    -34.167700   66.595900  151.174000
  H    -32.805000   67.218900  150.164000
  H    -33.114200   65.453700  150.470000
  H    -35.065500   71.840800  144.921000
  H    -36.676800   63.745600  144.922000

 Total Charge           Charge          ....    0
 Multiplicity           Mult            ....    1
 Number of Electrons    NEL             ....  134
 Basis Dimension        Dim             ....  322

ORBITAL ENERGIES
----------------

  NO   OCC          E(Eh)            E(eV)
   0   2.0000     -88.967611     -2420.9318
   1   2.0000     -88.966466     -2420.9006
   2   2.0000     -10.328629      -281.0563
   3   2.0000     -10.327776      -281.0331
   4   2.0000     -10.321558      -280.8639
   5   2.0000     -10.317685      -280.7585
   6   2.0000     -10.308277      -280.5025
   7   2.0000     -10.306169      -280.4451
   8   2.0000     -10.304895      -280.4104
   9   2.0000     -10.297676      -280.2140
  10   2.0000     -10.295670      -280.1594
  11   2.0000     -10.294723      -280.1337
  12   2.0000     -10.285534      -279.8836
  13   2.0000     -10.283216      -279.8205
  14   2.0000     -10.274277      -279.5773
  15   2.0000     -10.270825      -279.4834
  16   2.0000      -8.082913      -219.9473
  17   2.0000      -8.081079      -219.8973
  18   2.0000      -6.041484      -164.3971
  19   2.0000      -6.039707      -164.3488
  20   2.0000      -6.037346      -164.2845
  21   2.0000      -6.035608      -164.2373
  22   2.0000      -6.033559      -164.1815
  23   2.0000      -6.031702      -164.1310
  24   2.0000      -1.010990       -27.5104
  25   2.0000      -0.982652       -26.7393
  26   2.0000      -0.914436       -24.8831
  27   2.0000      -0.908113       -24.7110
  28   2.0000      -0.871872       -23.7248
  29   2.0000      -0.851878       -23.1808
  30   2.0000      -0.842957       -22.9380
  31   2.0000      -0.817843       -22.2547
  32   2.0000      -0.788762       -21.4633
  33   2.0000      -0.772065       -21.0090
  34   2.0000      -0.709953       -19.3188
  35   2.0000      -0.694376       -18.8949
  36   2.0000      -0.682709       -18.5775
  37   2.0000      -0.665371       -18.1057
  38   2.0000      -0.638905       -17.3855
  39   2.0000      -0.619664       -16.8619
  40   2.0000      -0.597126       -16.2486
  41   2.0000      -0.570501       -15.5241
  42   2.0000      -0.566602       -15.4180
  43   2.0000      -0.548584       -14.9277
  44   2.0000      -0.537920       -14.6375
  45   2.0000      -0.525160       -14.2903
  46   2.0000      -0.523084       -14.2338
  47   2.0000      -0.515758       -14.0345
  48   2.0000      -0.506668       -13.7871
  49   2.0000      -0.498490       -13.5646
  50   2.0000      -0.492519       -13.4021
  51   2.0000      -0.483416       -13.1544
  52   2.0000      -0.467778       -12.7289
  53   2.0000      -0.465047       -12.6546
  54   2.0000      -0.457035       -12.4365
  55   2.0000      -0.453362       -12.3366
  56   2.0000      -0.442945       -12.0531
  57   2.0000      -0.440065       -11.9748
  58   2.0000      -0.429797       -11.6954
  59   2.0000      -0.424380       -11.5480
  60   2.0000      -0.421864       -11.4795
  61   2.0000      -0.411581       -11.1997
  62   2.0000      -0.402614       -10.9557
  63   2.0000      -0.351370        -9.5613
  64   2.0000      -0.332097        -9.0368
  65   2.0000      -0.328212        -8.9311
  66   2.0000      -0.293656        -7.9908
  67   0.0000       0.029752         0.8096
  68   0.0000       0.071882         1.9560
  69   0.0000       0.097211         2.6452
  70   0.0000       0.124030         3.3750
  71   0.0000       0.130205         3.5430

MULLIKEN ATOMIC CHARGES
-----------------------
   0 S :    0.116069
   1 C :   -0.137835
   2 C :   -0.094870
   3 C :    0.000928
   4 C :   -0.157714
   5 H :    0.038381
   6 C :    0.133468
   7 H :    0.016175
   8 H :    0.020004
   9 C :   -0.109251
  10 H :    0.027406
  11 H :    0.033058
  12 C :   -0.038221
  13 H :    0.030776
  14 H :    0.023315
  15 H :    0.023067
  16 S :    0.095147
  17 C :   -0.081519
  18 C :   -0.024542
  19 C :   -0.059504
  20 C :   -0.135405
  21 H :    0.037356
  22 C :    0.118453
  23 H :    0.010511
  24 H :   -0.006117
  25 C :   -0.150016
  26 H :    0.039899
  27 H :    0.035682
  28 C :   -0.004492
  29 H :    0.035165
  30 H :    0.034872
  31 H :    0.021049
  32 H :    0.065937
  33 H :    0.042767
Sum of atomic charges:    0.0000000

LOEWDIN ATOMIC CHARGES
----------------------
   0 S :    0.418883
   1 C :   -0.210315
   2 C :   -0.064106
   3 C :   -0.070610
   4 C :   -0.203971
   5 H :    0.037813
   6 C :   -0.020411
   7 H :    0.030239
   8 H :    0.026187
   9 C :   -0.040623
  10 H :    0.022848
  11 H :    0.029109
  12 C :   -0.067742
  13 H :    0.022887
  14 H :    0.020103
  15 H :    0.024286
  16 S :    0.397255
  17 C :   -0.158013
  18 C :   -0.058694
  19 C :   -0.052341
  20 C :   -0.215003
  21 H :    0.038333
  22 C :   -0.033330
  23 H :    0.027128
  24 H :    0.019087
  25 C :   -0.054298
  26 H :    0.031593
  27 H :    0.029142
  28 C :   -0.067820
  29 H :    0.038246
  30 H :    0.027836
  31 H :    0.018065
  32 H :    0.040884
  33 H :    0.017352

  Mayer bond orders larger than 0.100000
B(  0-S ,  1-C ) :   1.1415 B(  0-S ,  4-C ) :   1.1491 B(  1-C ,  2-C ) :   1.6369
B(  1-C , 32-H ) :   0.9508 B(  2-C ,  3-C ) :   1.2374 B(  2-C ,  6-C ) :   1.0120
B(  3-C ,  4-C ) :   1.5951 B(  3-C ,  5-H ) :   0.9759 B(  4-C , 20-C ) :   1.0302
B(  6-C ,  7-H ) :   0.9438 B(  6-C ,  8-H ) :   0.9359 B(  6-C ,  9-C ) :   1.0572
B(  9-C , 10-H ) :   0.9545 B(  9-C , 11-H ) :   0.9584 B(  9-C , 12-C ) :   1.0710
B( 12-C , 13-H ) :   0.9764 B( 12-C , 14-H ) :   0.9767 B( 12-C , 15-H ) :   0.9771
B( 16-S , 17-C ) :   1.1292 B( 16-S , 20-C ) :   1.1493 B( 17-C , 18-C ) :   1.6292
B( 17-C , 33-H ) :   0.9766 B( 18-C , 19-C ) :   1.2206 B( 18-C , 21-H ) :   0.9827
B( 19-C , 20-C ) :   1.5948 B( 19-C , 22-C ) :   1.0627 B( 22-C , 23-H ) :   0.9266
B( 22-C , 24-H ) :   0.9263 B( 22-C , 25-C ) :   1.0534 B( 25-C , 26-H ) :   0.9553
B( 25-C , 27-H ) :   0.9516 B( 25-C , 28-C ) :   1.1020 B( 28-C , 29-H ) :   0.9660
B( 28-C , 30-H ) :   0.9676 B( 28-C , 31-H ) :   0.9679

Dispersion correction           -0.014118114
FINAL SINGLE POINT ENERGY     -1339.868038050800

DIPOLE MOMENT
-------------
                                X             Y             Z
Electronic contribution:    -22.48081      -5.38514     -19.33163
Nuclear contribution   :     23.13769       5.25717      19.43225
                        -----------------------------------------
Total Dipole Moment    :      0.65688      -0.12797       0.10063
                        -----------------------------------------
Magnitude (a.u.)       :      0.67675
Magnitude (Debye)      :      1.72017

Rotational constants in cm-1:     0.016675     0.009659     0.007013
Rotational constants in MHz :   499.906827   289.556361   210.234851

                             ****ORCA TERMINATED NORMALLY****
TOTAL RUN TIME: 0 days 0 hours 0 minutes 35 seconds 635 msec
