                         Program Version 4.2.1 -  RELEASE  -
|  1> ! wB97X-D3 SP def2-SVP
|  2> %pal
|  3> nprocs 16
|  4> end
|  5>
|  6> * xyz 0 1
|  7> S 	 -71.4949 	 50.3167 	 139.033
|  8> C 	 -70.3596 	 51.7 	 139
|  9> C 	 -71.1346 	 52.8271 	 138.949
| 10> C 	 -72.534 	 52.6587 	 138.885
| 11> C 	 -72.9048 	 51.3236 	 138.878
| 12> H 	 -73.2242 	 53.449 	 139.105
| 13> C 	 -70.5582 	 54.2286 	 139.093
| 14> H 	 -69.4945 	 54.1035 	 139.379
| 15> H 	 -71.0648 	 54.6599 	 139.894
| 16> C 	 -70.9511 	 55.1804 	 137.831
| 17> H 	 -70.1881 	 55.1939 	 137.085
| 18> H 	 -71.8932 	 54.9386 	 137.358
| 19> C 	 -71.0518 	 56.649 	 138.147
| 20> H 	 -70.0731 	 57.0762 	 138.465
| 21> H 	 -71.3816 	 57.2649 	 137.282
| 22> H 	 -71.572 	 56.8299 	 139.049
| 23> S 	 -74.4695 	 48.9638 	 138.623
| 24> C 	 -76.1626 	 48.9425 	 138.878
| 25> C 	 -76.5527 	 50.2512 	 138.946
| 26> C 	 -75.5535 	 51.2764 	 139.025
| 27> C 	 -74.2636 	 50.7283 	 138.979
| 28> H 	 -77.6628 	 50.4751 	 138.897
| 29> C 	 -76.0486 	 52.6953 	 139.143
| 30> H 	 -77.118 	 52.7361 	 138.692
| 31> H 	 -75.4711 	 53.2742 	 138.41
| 32> C 	 -76.076 	 53.2689 	 140.551
| 33> H 	 -76.0615 	 54.342 	 140.563
| 34> H 	 -75.2529 	 52.9733 	 141.13
| 35> C 	 -77.2681 	 52.9001 	 141.318
| 36> H 	 -77.3163 	 53.3474 	 142.302
| 37> H 	 -77.3285 	 51.7697 	 141.378
| 38> H 	 -78.1334 	 53.2925 	 140.783
| 39> H 	 -69.3169 	 51.5886 	 139.15
| 40> H 	 -76.8646 	 48.1695 	 138.821
| 41> *
| 42>
| 43>                          ****END OF INPUT****

CARTESIAN COORDINATES (ANGSTROEM)
---------------------------------
  S    -71.494900   50.316700  139.033000
  C    -70.359600   51.700000  139.000000
  C    -71.134600   52.827100  138.949000
  C    -72.534000   52.658700  138.885000
  C    -72.904800   51.323600  138.878000
  H    -73.224200   53.449000  139.105000
  C    -70.558200   54.228600  139.093000
  H    -69.494500   54.103500  139.379000
  H    -71.064800   54.659900  139.894000
  C    -70.951100   55.180400  137.831000
  H    -70.188100   55.193900  137.085000
  H    -71.893200   54.938600  137.358000
  C    -71.051800   56.649000  138.147000
  H    -70.073100   57.076200  138.465000
  H    -71.381600   57.264900  137.282000
  H    -71.572000   56.829900  139.049000
  S    -74.469500   48.963800  138.623000
  C    -76.162600   48.942500  138.878000
  C    -76.552700   50.251200  138.946000
  C    -75.553500   51.276400  139.025000
  C    -74.263600   50.728300  138.979000
  H    -77.662800   50.475100  138.897000
  C    -76.048600   52.695300  139.143000
  H    -77.118000   52.736100  138.692000
  H    -75.471100   53.274200  138.410000
  C    -76.076000   53.268900  140.551000
  H    -76.061500   54.342000  140.563000
  H    -75.252900   52.973300  141.130000
  C    -77.268100   52.900100  141.318000
  H    -77.316300   53.347400  142.302000
  H    -77.328500   51.769700  141.378000
  H    -78.133400   53.292500  140.783000
  H    -69.316900   51.588600  139.150000
  H    -76.864600   48.169500  138.821000

 Total Charge           Charge          ....    0
 Multiplicity           Mult            ....    1
 Number of Electrons    NEL             ....  134
 Basis Dimension        Dim             ....  322

ORBITAL ENERGIES
----------------

  NO   OCC          E(Eh)            E(eV)
   0   2.0000     -88.965581     -2420.8765
   1   2.0000     -88.963709     -2420.8256
   2   2.0000     -10.341004      -281.3930
   3   2.0000     -10.338814      -281.3334
   4   2.0000     -10.315178      -280.6903
   5   2.0000     -10.314002      -280.6583
   6   2.0000     -10.309037      -280.5232
   7   2.0000     -10.302568      -280.3471
   8   2.0000     -10.300381      -280.2876
   9   2.0000     -10.296461      -280.1810
  10   2.0000     -10.294847      -280.1370
  11   2.0000     -10.292463      -280.0721
  12   2.0000     -10.287480      -279.9366
  13   2.0000     -10.277207      -279.6570
  14   2.0000     -10.276077      -279.6263
  15   2.0000     -10.274947      -279.5955
  16   2.0000      -8.079960      -219.8669
  17   2.0000      -8.078211      -219.8193
  18   2.0000      -6.038624      -164.3193
  19   2.0000      -6.036898      -164.2723
  20   2.0000      -6.034539      -164.2082
  21   2.0000      -6.032690      -164.1578
  22   2.0000      -6.030506      -164.0984
  23   2.0000      -6.028838      -164.0530
  24   2.0000      -1.007018       -27.4023
  25   2.0000      -0.987816       -26.8798
  26   2.0000      -0.921866       -25.0852
  27   2.0000      -0.907244       -24.6874
  28   2.0000      -0.872853       -23.7515
  29   2.0000      -0.858407       -23.3584
  30   2.0000      -0.844907       -22.9911
  31   2.0000      -0.819006       -22.2863
  32   2.0000      -0.781808       -21.2741
  33   2.0000      -0.772576       -21.0229
  34   2.0000      -0.713641       -19.4192
  35   2.0000      -0.702539       -19.1170
  36   2.0000      -0.693952       -18.8834
  37   2.0000      -0.660163       -17.9639
  38   2.0000      -0.643236       -17.5033
  39   2.0000      -0.625141       -17.0110
  40   2.0000      -0.599404       -16.3106
  41   2.0000      -0.567058       -15.4304
  42   2.0000      -0.564100       -15.3499
  43   2.0000      -0.557527       -15.1711
  44   2.0000      -0.555769       -15.1232
  45   2.0000      -0.529841       -14.4177
  46   2.0000      -0.522152       -14.2085
  47   2.0000      -0.519193       -14.1280
  48   2.0000      -0.509157       -13.8549
  49   2.0000      -0.505748       -13.7621
  50   2.0000      -0.486139       -13.2285
  51   2.0000      -0.481905       -13.1133
  52   2.0000      -0.476124       -12.9560
  53   2.0000      -0.461858       -12.5678
  54   2.0000      -0.458828       -12.4853
  55   2.0000      -0.453701       -12.3458
  56   2.0000      -0.445109       -12.1120
  57   2.0000      -0.434637       -11.8271
  58   2.0000      -0.430992       -11.7279
  59   2.0000      -0.419826       -11.4240
  60   2.0000      -0.418375       -11.3846
  61   2.0000      -0.414154       -11.2697
  62   2.0000      -0.405957       -11.0466
  63   2.0000      -0.363421        -9.8892
  64   2.0000      -0.330883        -9.0038
  65   2.0000      -0.326758        -8.8915
  66   2.0000      -0.287657        -7.8276
  67   0.0000       0.014102         0.3837
  68   0.0000       0.090236         2.4554
  69   0.0000       0.095948         2.6109
  70   0.0000       0.112639         3.0651
  71   0.0000       0.135842         3.6965

MULLIKEN ATOMIC CHARGES
-----------------------
   0 S :    0.078981
   1 C :   -0.116991
   2 C :   -0.091545
   3 C :   -0.005338
   4 C :   -0.090833
   5 H :    0.012495
   6 C :    0.097265
   7 H :    0.029353
   8 H :    0.010430
   9 C :   -0.059320
  10 H :    0.028364
  11 H :    0.037410
  12 C :   -0.071481
  13 H :    0.017594
  14 H :    0.048978
  15 H :    0.011481
  16 S :    0.086353
  17 C :   -0.037789
  18 C :   -0.081102
  19 C :   -0.063935
  20 C :   -0.102102
  21 H :    0.034136
  22 C :    0.011267
  23 H :    0.034196
  24 H :    0.035648
  25 C :   -0.001462
  26 H :    0.016952
  27 H :    0.020460
  28 C :   -0.061664
  29 H :    0.033932
  30 H :    0.042623
  31 H :    0.015088
  32 H :    0.042777
  33 H :    0.037779
Sum of atomic charges:    0.0000000

LOEWDIN ATOMIC CHARGES
----------------------
   0 S :    0.391126
   1 C :   -0.182880
   2 C :   -0.059719
   3 C :   -0.077308
   4 C :   -0.177155
   5 H :    0.029494
   6 C :   -0.018401
   7 H :    0.034450
   8 H :    0.020735
   9 C :   -0.035351
  10 H :    0.023405
  11 H :    0.025342
  12 C :   -0.073318
  13 H :    0.024617
  14 H :    0.033696
  15 H :    0.012268
  16 S :    0.397238
  17 C :   -0.188932
  18 C :   -0.084276
  19 C :   -0.059999
  20 C :   -0.175103
  21 H :    0.035605
  22 C :   -0.034664
  23 H :    0.041679
  24 H :    0.030260
  25 C :   -0.043715
  26 H :    0.023153
  27 H :    0.021016
  28 C :   -0.062538
  29 H :    0.025703
  30 H :    0.031403
  31 H :    0.019881
  32 H :    0.025106
  33 H :    0.027182

  Mayer bond orders larger than 0.100000
B(  0-S ,  1-C ) :   1.1074 B(  0-S ,  4-C ) :   1.1692 B(  1-C ,  2-C ) :   1.6078
B(  1-C , 32-H ) :   0.9819 B(  2-C ,  3-C ) :   1.2544 B(  2-C ,  6-C ) :   1.0305
B(  3-C ,  4-C ) :   1.5554 B(  3-C ,  5-H ) :   0.9876 B(  4-C , 20-C ) :   1.0662
B(  6-C ,  7-H ) :   0.9462 B(  6-C ,  8-H ) :   0.9427 B(  6-C ,  9-C ) :   1.0270
B(  9-C , 10-H ) :   0.9594 B(  9-C , 11-H ) :   0.9655 B(  9-C , 12-C ) :   1.0800
B( 12-C , 13-H ) :   0.9720 B( 12-C , 14-H ) :   0.9731 B( 12-C , 15-H ) :   0.9739
B( 16-S , 17-C ) :   1.1501 B( 16-S , 20-C ) :   1.1341 B( 17-C , 18-C ) :   1.6031
B( 17-C , 20-C ) :   0.1008 B( 17-C , 33-H ) :   0.9731 B( 18-C , 19-C ) :   1.2744
B( 18-C , 21-H ) :   0.9708 B( 19-C , 20-C ) :   1.5665 B( 19-C , 22-C ) :   1.0376
B( 22-C , 23-H ) :   0.9394 B( 22-C , 24-H ) :   0.9300 B( 22-C , 25-C ) :   1.0576
B( 25-C , 26-H ) :   0.9490 B( 25-C , 27-H ) :   0.9510 B( 25-C , 28-C ) :   1.0984
B( 28-C , 29-H ) :   0.9691 B( 28-C , 30-H ) :   0.9719 B( 28-C , 31-H ) :   0.9718

Dispersion correction           -0.013842474
FINAL SINGLE POINT ENERGY     -1339.854683627243

DIPOLE MOMENT
-------------
                                X             Y             Z
Electronic contribution:      5.62371     -29.88490      -4.27419
Nuclear contribution   :     -5.89451      30.61753       4.43996
                        -----------------------------------------
Total Dipole Moment    :     -0.27080       0.73263       0.16577
                        -----------------------------------------
Magnitude (a.u.)       :      0.79848
Magnitude (Debye)      :      2.02957

Rotational constants in cm-1:     0.017831     0.008921     0.006430
Rotational constants in MHz :   534.566470   267.455708   192.776432

                             ****ORCA TERMINATED NORMALLY****
TOTAL RUN TIME: 0 days 0 hours 0 minutes 34 seconds 643 msec
