                         Program Version 4.2.1 -  RELEASE  -
|  1> ! wB97X-D3 SP def2-SVP
|  2> %pal
|  3> nprocs 16
|  4> end
|  5>
|  6> * xyz 0 1
|  7> S 	 13.029 	 -6.11289 	 74.9118
|  8> C 	 12.4788 	 -4.45888 	 75.2409
|  9> C 	 11.8143 	 -3.91653 	 74.1797
| 10> C 	 11.8542 	 -4.7415 	 73.0028
| 11> C 	 12.4622 	 -5.96813 	 73.2653
| 12> H 	 11.4264 	 -4.54206 	 72.0296
| 13> C 	 11.427 	 -2.46659 	 73.9603
| 14> H 	 10.4012 	 -2.23522 	 74.2508
| 15> H 	 11.3666 	 -2.27461 	 72.8629
| 16> C 	 12.4545 	 -1.41622 	 74.3079
| 17> H 	 12.6208 	 -1.44046 	 75.2933
| 18> H 	 13.3532 	 -1.67279 	 73.7626
| 19> C 	 12.0063 	 0.00550231 	 74.1861
| 20> H 	 11.1068 	 0.218292 	 74.7895
| 21> H 	 12.6896 	 0.756904 	 74.4711
| 22> H 	 11.8436 	 0.173152 	 73.1304
| 23> S 	 14.2936 	 -7.7066 	 71.991
| 24> C 	 13.7349 	 -8.86264 	 70.8696
| 25> C 	 12.4001 	 -8.69408 	 70.5846
| 26> C 	 11.741 	 -7.73402 	 71.4603
| 27> C 	 12.6782 	 -7.02223 	 72.2169
| 28> H 	 11.8198 	 -9.33558 	 69.8891
| 29> C 	 10.2588 	 -7.42507 	 71.4341
| 30> H 	 10.1793 	 -6.56113 	 70.7193
| 31> H 	 9.79599 	 -7.24659 	 72.3779
| 32> C 	 9.38369 	 -8.43229 	 70.8438
| 33> H 	 9.60635 	 -9.49467 	 71.2314
| 34> H 	 9.5998 	 -8.44014 	 69.8044
| 35> C 	 7.88045 	 -8.09145 	 70.8211
| 36> H 	 7.64648 	 -7.11903 	 70.3094
| 37> H 	 7.44709 	 -7.97495 	 71.7884
| 38> H 	 7.27625 	 -8.93144 	 70.4404
| 39> H 	 12.7432 	 -4.0529 	 76.1939
| 40> H 	 14.2366 	 -9.69761 	 70.3903
| 41> *
| 42>
| 43>                          ****END OF INPUT****

CARTESIAN COORDINATES (ANGSTROEM)
---------------------------------
  S     13.029000   -6.112890   74.911800
  C     12.478800   -4.458880   75.240900
  C     11.814300   -3.916530   74.179700
  C     11.854200   -4.741500   73.002800
  C     12.462200   -5.968130   73.265300
  H     11.426400   -4.542060   72.029600
  C     11.427000   -2.466590   73.960300
  H     10.401200   -2.235220   74.250800
  H     11.366600   -2.274610   72.862900
  C     12.454500   -1.416220   74.307900
  H     12.620800   -1.440460   75.293300
  H     13.353200   -1.672790   73.762600
  C     12.006300    0.005502   74.186100
  H     11.106800    0.218292   74.789500
  H     12.689600    0.756904   74.471100
  H     11.843600    0.173152   73.130400
  S     14.293600   -7.706600   71.991000
  C     13.734900   -8.862640   70.869600
  C     12.400100   -8.694080   70.584600
  C     11.741000   -7.734020   71.460300
  C     12.678200   -7.022230   72.216900
  H     11.819800   -9.335580   69.889100
  C     10.258800   -7.425070   71.434100
  H     10.179300   -6.561130   70.719300
  H      9.795990   -7.246590   72.377900
  C      9.383690   -8.432290   70.843800
  H      9.606350   -9.494670   71.231400
  H      9.599800   -8.440140   69.804400
  C      7.880450   -8.091450   70.821100
  H      7.646480   -7.119030   70.309400
  H      7.447090   -7.974950   71.788400
  H      7.276250   -8.931440   70.440400
  H     12.743200   -4.052900   76.193900
  H     14.236600   -9.697610   70.390300

 Total Charge           Charge          ....    0
 Multiplicity           Mult            ....    1
 Number of Electrons    NEL             ....  134
 Basis Dimension        Dim             ....  322

ORBITAL ENERGIES
----------------

  NO   OCC          E(Eh)            E(eV)
   0   2.0000     -88.966931     -2420.9133
   1   2.0000     -88.966373     -2420.8981
   2   2.0000     -10.331303      -281.1291
   3   2.0000     -10.327385      -281.0224
   4   2.0000     -10.315639      -280.7028
   5   2.0000     -10.314677      -280.6766
   6   2.0000     -10.306436      -280.4524
   7   2.0000     -10.302647      -280.3493
   8   2.0000     -10.295588      -280.1572
   9   2.0000     -10.294803      -280.1358
  10   2.0000     -10.289824      -280.0003
  11   2.0000     -10.288223      -279.9568
  12   2.0000     -10.284443      -279.8539
  13   2.0000     -10.282098      -279.7901
  14   2.0000     -10.272098      -279.5180
  15   2.0000     -10.269894      -279.4580
  16   2.0000      -8.081495      -219.9087
  17   2.0000      -8.081345      -219.9046
  18   2.0000      -6.039965      -164.3558
  19   2.0000      -6.039850      -164.3527
  20   2.0000      -6.036077      -164.2500
  21   2.0000      -6.035756      -164.2413
  22   2.0000      -6.032258      -164.1461
  23   2.0000      -6.032156      -164.1433
  24   2.0000      -1.002892       -27.2901
  25   2.0000      -0.984317       -26.7846
  26   2.0000      -0.921735       -25.0817
  27   2.0000      -0.918860       -25.0035
  28   2.0000      -0.867138       -23.5960
  29   2.0000      -0.854386       -23.2490
  30   2.0000      -0.844979       -22.9931
  31   2.0000      -0.812117       -22.0988
  32   2.0000      -0.785010       -21.3612
  33   2.0000      -0.775780       -21.1100
  34   2.0000      -0.707796       -19.2601
  35   2.0000      -0.699338       -19.0300
  36   2.0000      -0.690736       -18.7959
  37   2.0000      -0.652146       -17.7458
  38   2.0000      -0.640951       -17.4412
  39   2.0000      -0.615831       -16.7576
  40   2.0000      -0.601931       -16.3794
  41   2.0000      -0.583537       -15.8788
  42   2.0000      -0.581456       -15.8222
  43   2.0000      -0.564645       -15.3648
  44   2.0000      -0.522065       -14.2061
  45   2.0000      -0.519402       -14.1336
  46   2.0000      -0.518090       -14.0980
  47   2.0000      -0.515543       -14.0286
  48   2.0000      -0.507239       -13.8027
  49   2.0000      -0.493040       -13.4163
  50   2.0000      -0.490888       -13.3577
  51   2.0000      -0.481863       -13.1122
  52   2.0000      -0.476325       -12.9615
  53   2.0000      -0.465500       -12.6669
  54   2.0000      -0.459229       -12.4963
  55   2.0000      -0.455518       -12.3953
  56   2.0000      -0.443183       -12.0596
  57   2.0000      -0.435592       -11.8531
  58   2.0000      -0.428755       -11.6670
  59   2.0000      -0.428445       -11.6586
  60   2.0000      -0.418124       -11.3777
  61   2.0000      -0.412561       -11.2263
  62   2.0000      -0.402580       -10.9548
  63   2.0000      -0.339490        -9.2380
  64   2.0000      -0.334215        -9.0944
  65   2.0000      -0.328459        -8.9378
  66   2.0000      -0.297505        -8.0955
  67   0.0000       0.031793         0.8651
  68   0.0000       0.073455         1.9988
  69   0.0000       0.112559         3.0629
  70   0.0000       0.124595         3.3904
  71   0.0000       0.129785         3.5316

MULLIKEN ATOMIC CHARGES
-----------------------
   0 S :    0.110323
   1 C :   -0.150808
   2 C :    0.000420
   3 C :    0.008804
   4 C :   -0.147456
   5 H :    0.020438
   6 C :    0.029118
   7 H :    0.027303
   8 H :    0.013933
   9 C :   -0.018194
  10 H :   -0.007140
  11 H :    0.033953
  12 C :   -0.042106
  13 H :    0.031794
  14 H :    0.024592
  15 H :    0.016414
  16 S :    0.118074
  17 C :   -0.071928
  18 C :   -0.056971
  19 C :   -0.052524
  20 C :   -0.172337
  21 H :    0.031249
  22 C :    0.090894
  23 H :    0.041792
  24 H :    0.032011
  25 C :   -0.131406
  26 H :    0.044044
  27 H :    0.019795
  28 C :   -0.039838
  29 H :    0.036895
  30 H :    0.015322
  31 H :    0.038323
  32 H :    0.048015
  33 H :    0.057204
Sum of atomic charges:   -0.0000000

LOEWDIN ATOMIC CHARGES
----------------------
   0 S :    0.396360
   1 C :   -0.177094
   2 C :   -0.063148
   3 C :   -0.055101
   4 C :   -0.192502
   5 H :    0.033453
   6 C :   -0.033214
   7 H :    0.028158
   8 H :    0.031748
   9 C :   -0.036165
  10 H :    0.003809
  11 H :    0.029199
  12 C :   -0.057159
  13 H :    0.030165
  14 H :    0.022329
  15 H :    0.019881
  16 S :    0.417986
  17 C :   -0.203114
  18 C :   -0.081400
  19 C :   -0.049956
  20 C :   -0.202098
  21 H :    0.034037
  22 C :   -0.037276
  23 H :    0.043468
  24 H :    0.030449
  25 C :   -0.053631
  26 H :    0.031029
  27 H :    0.016958
  28 C :   -0.067619
  29 H :    0.031794
  30 H :    0.016451
  31 H :    0.033072
  32 H :    0.021885
  33 H :    0.037245

  Mayer bond orders larger than 0.100000
B(  0-S ,  1-C ) :   1.1307 B(  0-S ,  4-C ) :   1.1591 B(  1-C ,  2-C ) :   1.6071
B(  1-C , 32-H ) :   0.9784 B(  2-C ,  3-C ) :   1.2255 B(  2-C ,  6-C ) :   1.0173
B(  3-C ,  4-C ) :   1.5853 B(  3-C ,  5-H ) :   0.9926 B(  4-C , 20-C ) :   1.0281
B(  6-C ,  7-H ) :   0.9301 B(  6-C ,  8-H ) :   0.9548 B(  6-C ,  9-C ) :   1.0641
B(  9-C , 10-H ) :   0.9467 B(  9-C , 11-H ) :   0.9557 B(  9-C , 12-C ) :   1.0869
B( 12-C , 13-H ) :   0.9718 B( 12-C , 14-H ) :   0.9714 B( 12-C , 15-H ) :   0.9757
B( 16-S , 17-C ) :   1.1634 B( 16-S , 20-C ) :   1.1356 B( 17-C , 18-C ) :   1.6079
B( 17-C , 33-H ) :   0.9614 B( 18-C , 19-C ) :   1.2529 B( 18-C , 21-H ) :   0.9734
B( 19-C , 20-C ) :   1.5987 B( 19-C , 22-C ) :   1.0403 B( 22-C , 23-H ) :   0.9244
B( 22-C , 24-H ) :   0.9371 B( 22-C , 25-C ) :   1.0848 B( 25-C , 26-H ) :   0.9534
B( 25-C , 27-H ) :   0.9388 B( 25-C , 28-C ) :   1.0870 B( 28-C , 29-H ) :   0.9706
B( 28-C , 30-H ) :   0.9725 B( 28-C , 31-H ) :   0.9712

Dispersion correction           -0.013310265
FINAL SINGLE POINT ENERGY     -1339.856730424470

DIPOLE MOMENT
-------------
                                X             Y             Z
Electronic contribution:     20.55858     -15.65224       6.14948
Nuclear contribution   :    -21.01618      15.89810      -6.36479
                        -----------------------------------------
Total Dipole Moment    :     -0.45760       0.24585      -0.21531
                        -----------------------------------------
Magnitude (a.u.)       :      0.56232
Magnitude (Debye)      :      1.42929

Rotational constants in cm-1:     0.018570     0.007420     0.006036
Rotational constants in MHz :   556.718880   222.436347   180.969120

                             ****ORCA TERMINATED NORMALLY****
TOTAL RUN TIME: 0 days 0 hours 0 minutes 32 seconds 987 msec
