                         Program Version 4.2.1 -  RELEASE  -
|  1> ! wB97X-D3 SP def2-SVP
|  2> %pal
|  3> nprocs 16
|  4> end
|  5>
|  6> * xyz 0 1
|  7> S 	 6.86742 	 -4.68567 	 89.8776
|  8> C 	 7.74862 	 -3.84741 	 91.1058
|  9> C 	 8.36263 	 -2.75442 	 90.6352
| 10> C 	 8.12368 	 -2.60325 	 89.2312
| 11> C 	 7.43931 	 -3.67253 	 88.6642
| 12> H 	 8.61566 	 -1.75024 	 88.7128
| 13> C 	 9.27071 	 -1.81512 	 91.4498
| 14> H 	 8.9242 	 -0.792565 	 91.1978
| 15> H 	 10.1877 	 -1.88824 	 90.8383
| 16> C 	 9.51981 	 -1.99293 	 92.9337
| 17> H 	 8.61474 	 -2.12597 	 93.5032
| 18> H 	 10.0529 	 -2.918 	 93.0704
| 19> C 	 10.3297 	 -0.761659 	 93.4857
| 20> H 	 11.1546 	 -0.726523 	 92.7717
| 21> H 	 9.95183 	 0.237795 	 93.5187
| 22> H 	 10.6224 	 -0.909793 	 94.532
| 23> S 	 7.87668 	 -5.49504 	 86.6352
| 24> C 	 7.02544 	 -5.45168 	 85.1075
| 25> C 	 6.38218 	 -4.1932 	 84.9864
| 26> C 	 6.59548 	 -3.3282 	 86.2017
| 27> C 	 7.1556 	 -4.04814 	 87.3038
| 28> H 	 5.77671 	 -4.01887 	 84.0912
| 29> C 	 6.06412 	 -1.88842 	 86.3758
| 30> H 	 6.36463 	 -1.34001 	 85.4211
| 31> H 	 6.68644 	 -1.30585 	 87.1368
| 32> C 	 4.53082 	 -1.75958 	 86.4629
| 33> H 	 4.16027 	 -2.21409 	 87.3958
| 34> H 	 4.06139 	 -2.19528 	 85.631
| 35> C 	 4.15648 	 -0.299601 	 86.5508
| 36> H 	 3.04959 	 -0.245741 	 86.3945
| 37> H 	 4.62674 	 0.398761 	 85.8533
| 38> H 	 4.4386 	 0.139497 	 87.5192
| 39> H 	 7.71768 	 -4.14713 	 92.1521
| 40> H 	 7.25645 	 -5.98303 	 84.2157
| 41> *
| 42>
| 43>                          ****END OF INPUT****

CARTESIAN COORDINATES (ANGSTROEM)
---------------------------------
  S      6.867420   -4.685670   89.877600
  C      7.748620   -3.847410   91.105800
  C      8.362630   -2.754420   90.635200
  C      8.123680   -2.603250   89.231200
  C      7.439310   -3.672530   88.664200
  H      8.615660   -1.750240   88.712800
  C      9.270710   -1.815120   91.449800
  H      8.924200   -0.792565   91.197800
  H     10.187700   -1.888240   90.838300
  C      9.519810   -1.992930   92.933700
  H      8.614740   -2.125970   93.503200
  H     10.052900   -2.918000   93.070400
  C     10.329700   -0.761659   93.485700
  H     11.154600   -0.726523   92.771700
  H      9.951830    0.237795   93.518700
  H     10.622400   -0.909793   94.532000
  S      7.876680   -5.495040   86.635200
  C      7.025440   -5.451680   85.107500
  C      6.382180   -4.193200   84.986400
  C      6.595480   -3.328200   86.201700
  C      7.155600   -4.048140   87.303800
  H      5.776710   -4.018870   84.091200
  C      6.064120   -1.888420   86.375800
  H      6.364630   -1.340010   85.421100
  H      6.686440   -1.305850   87.136800
  C      4.530820   -1.759580   86.462900
  H      4.160270   -2.214090   87.395800
  H      4.061390   -2.195280   85.631000
  C      4.156480   -0.299601   86.550800
  H      3.049590   -0.245741   86.394500
  H      4.626740    0.398761   85.853300
  H      4.438600    0.139497   87.519200
  H      7.717680   -4.147130   92.152100
  H      7.256450   -5.983030   84.215700

 Total Charge           Charge          ....    0
 Multiplicity           Mult            ....    1
 Number of Electrons    NEL             ....  134
 Basis Dimension        Dim             ....  322

ORBITAL ENERGIES
----------------

  NO   OCC          E(Eh)            E(eV)
   0   2.0000     -88.962381     -2420.7895
   1   2.0000     -88.961835     -2420.7746
   2   2.0000     -10.330550      -281.1086
   3   2.0000     -10.327975      -281.0385
   4   2.0000     -10.318896      -280.7914
   5   2.0000     -10.317091      -280.7423
   6   2.0000     -10.307348      -280.4772
   7   2.0000     -10.304513      -280.4001
   8   2.0000     -10.300854      -280.3005
   9   2.0000     -10.299040      -280.2511
  10   2.0000     -10.298238      -280.2293
  11   2.0000     -10.297517      -280.2097
  12   2.0000     -10.293978      -280.1134
  13   2.0000     -10.283606      -279.8311
  14   2.0000     -10.282384      -279.7979
  15   2.0000     -10.277044      -279.6526
  16   2.0000      -8.078620      -219.8304
  17   2.0000      -8.076978      -219.7858
  18   2.0000      -6.037057      -164.2767
  19   2.0000      -6.035567      -164.2361
  20   2.0000      -6.032752      -164.1595
  21   2.0000      -6.031374      -164.1220
  22   2.0000      -6.029399      -164.0683
  23   2.0000      -6.027733      -164.0229
  24   2.0000      -1.015125       -27.6229
  25   2.0000      -0.979798       -26.6617
  26   2.0000      -0.915136       -24.9021
  27   2.0000      -0.905416       -24.6376
  28   2.0000      -0.873339       -23.7648
  29   2.0000      -0.849882       -23.1265
  30   2.0000      -0.838562       -22.8184
  31   2.0000      -0.812970       -22.1220
  32   2.0000      -0.783751       -21.3269
  33   2.0000      -0.763551       -20.7773
  34   2.0000      -0.719200       -19.5704
  35   2.0000      -0.704155       -19.1610
  36   2.0000      -0.694046       -18.8859
  37   2.0000      -0.654555       -17.8113
  38   2.0000      -0.637084       -17.3359
  39   2.0000      -0.617566       -16.8048
  40   2.0000      -0.586638       -15.9632
  41   2.0000      -0.574478       -15.6323
  42   2.0000      -0.566306       -15.4100
  43   2.0000      -0.562010       -15.2931
  44   2.0000      -0.535307       -14.5664
  45   2.0000      -0.525353       -14.2956
  46   2.0000      -0.518183       -14.1005
  47   2.0000      -0.515721       -14.0335
  48   2.0000      -0.503661       -13.7053
  49   2.0000      -0.497522       -13.5383
  50   2.0000      -0.485039       -13.1986
  51   2.0000      -0.478001       -13.0071
  52   2.0000      -0.474569       -12.9137
  53   2.0000      -0.459663       -12.5081
  54   2.0000      -0.454407       -12.3650
  55   2.0000      -0.449005       -12.2181
  56   2.0000      -0.446131       -12.1398
  57   2.0000      -0.441866       -12.0238
  58   2.0000      -0.432240       -11.7619
  59   2.0000      -0.427917       -11.6442
  60   2.0000      -0.418757       -11.3950
  61   2.0000      -0.413741       -11.2585
  62   2.0000      -0.405888       -11.0448
  63   2.0000      -0.344435        -9.3725
  64   2.0000      -0.329899        -8.9770
  65   2.0000      -0.317523        -8.6402
  66   2.0000      -0.296612        -8.0712
  67   0.0000       0.030524         0.8306
  68   0.0000       0.069735         1.8976
  69   0.0000       0.102545         2.7904
  70   0.0000       0.126188         3.4338
  71   0.0000       0.132736         3.6119

MULLIKEN ATOMIC CHARGES
-----------------------
   0 S :    0.125461
   1 C :   -0.151412
   2 C :   -0.081893
   3 C :    0.020852
   4 C :   -0.164624
   5 H :    0.020056
   6 C :    0.022875
   7 H :    0.029557
   8 H :    0.037544
   9 C :   -0.032254
  10 H :    0.030903
  11 H :    0.033659
  12 C :   -0.053757
  13 H :    0.028047
  14 H :    0.033256
  15 H :    0.036078
  16 S :    0.106033
  17 C :   -0.082697
  18 C :   -0.068679
  19 C :   -0.019121
  20 C :   -0.138101
  21 H :    0.037260
  22 C :   -0.013439
  23 H :    0.029249
  24 H :    0.035111
  25 C :   -0.015930
  26 H :    0.040723
  27 H :    0.020788
  28 C :   -0.067271
  29 H :    0.039504
  30 H :    0.022227
  31 H :    0.029622
  32 H :    0.045459
  33 H :    0.064914
Sum of atomic charges:   -0.0000000

LOEWDIN ATOMIC CHARGES
----------------------
   0 S :    0.448994
   1 C :   -0.211674
   2 C :   -0.067873
   3 C :   -0.069959
   4 C :   -0.217346
   5 H :    0.033443
   6 C :   -0.037711
   7 H :    0.033854
   8 H :    0.038233
   9 C :   -0.036246
  10 H :    0.021360
  11 H :    0.027665
  12 C :   -0.063641
  13 H :    0.027219
  14 H :    0.023654
  15 H :    0.029111
  16 S :    0.410921
  17 C :   -0.195947
  18 C :   -0.073010
  19 C :   -0.048475
  20 C :   -0.211908
  21 H :    0.033565
  22 C :   -0.047398
  23 H :    0.035936
  24 H :    0.036310
  25 C :   -0.034286
  26 H :    0.032566
  27 H :    0.018411
  28 C :   -0.070641
  29 H :    0.030923
  30 H :    0.020172
  31 H :    0.025612
  32 H :    0.027308
  33 H :    0.030856

  Mayer bond orders larger than 0.100000
B(  0-S ,  1-C ) :   1.1298 B(  0-S ,  4-C ) :   1.1931 B(  1-C ,  2-C ) :   1.6384
B(  1-C , 32-H ) :   0.9630 B(  2-C ,  3-C ) :   1.2667 B(  2-C ,  6-C ) :   0.9874
B(  3-C ,  4-C ) :   1.5400 B(  3-C ,  5-H ) :   0.9927 B(  4-C , 20-C ) :   1.0314
B(  6-C ,  7-H ) :   0.9421 B(  6-C ,  8-H ) :   0.9339 B(  6-C ,  9-C ) :   1.0735
B(  9-C , 10-H ) :   0.9547 B(  9-C , 11-H ) :   0.9481 B(  9-C , 12-C ) :   1.0685
B( 12-C , 13-H ) :   0.9769 B( 12-C , 14-H ) :   0.9802 B( 12-C , 15-H ) :   0.9742
B( 16-S , 17-C ) :   1.1591 B( 16-S , 20-C ) :   1.1500 B( 17-C , 18-C ) :   1.6031
B( 17-C , 20-C ) :   0.1036 B( 17-C , 33-H ) :   0.9664 B( 18-C , 19-C ) :   1.2316
B( 18-C , 21-H ) :   0.9852 B( 19-C , 20-C ) :   1.5559 B( 19-C , 22-C ) :   1.0531
B( 22-C , 23-H ) :   0.9324 B( 22-C , 24-H ) :   0.9419 B( 22-C , 25-C ) :   1.0636
B( 25-C , 26-H ) :   0.9530 B( 25-C , 27-H ) :   0.9549 B( 25-C , 28-C ) :   1.0814
B( 28-C , 29-H ) :   0.9742 B( 28-C , 30-H ) :   0.9743 B( 28-C , 31-H ) :   0.9751

Dispersion correction           -0.013349612
FINAL SINGLE POINT ENERGY     -1339.855284730208

DIPOLE MOMENT
-------------
                                X             Y             Z
Electronic contribution:      0.10254     -24.89538      -9.33515
Nuclear contribution   :      0.02883      25.57229       9.39359
                        -----------------------------------------
Total Dipole Moment    :      0.13137       0.67691       0.05844
                        -----------------------------------------
Magnitude (a.u.)       :      0.69201
Magnitude (Debye)      :      1.75895

Rotational constants in cm-1:     0.019872     0.007298     0.005973
Rotational constants in MHz :   595.745880   218.793281   179.060945

                             ****ORCA TERMINATED NORMALLY****
TOTAL RUN TIME: 0 days 0 hours 0 minutes 33 seconds 0 msec
