                         Program Version 4.2.1 -  RELEASE  -
|  1> ! wB97X-D3 SP def2-SVP
|  2> %pal
|  3> nprocs 16
|  4> end
|  5>
|  6> * xyz 0 1
|  7> S 	 0.728514 	 34.7677 	 36.0236
|  8> C 	 0.839205 	 33.0943 	 35.3996
|  9> C 	 -0.410426 	 32.7902 	 34.8156
| 10> C 	 -1.43126 	 33.6779 	 35.3222
| 11> C 	 -0.973625 	 34.8402 	 35.9569
| 12> H 	 -2.4916 	 33.6284 	 35.0258
| 13> C 	 -0.802246 	 31.5472 	 34.0994
| 14> H 	 -0.846387 	 30.817 	 34.871
| 15> H 	 0.142755 	 31.3194 	 33.556
| 16> C 	 -2.07077 	 31.6077 	 33.18
| 17> H 	 -2.98985 	 31.6035 	 33.6886
| 18> H 	 -1.98864 	 32.4362 	 32.4907
| 19> C 	 -2.0901 	 30.2613 	 32.3739
| 20> H 	 -2.45651 	 29.4159 	 33.0068
| 21> H 	 -2.63599 	 30.2436 	 31.4355
| 22> H 	 -1.06051 	 29.8681 	 32.1307
| 23> S 	 -2.15211 	 37.2451 	 35.0827
| 24> C 	 -3.35383 	 37.9676 	 36.2368
| 25> C 	 -3.33484 	 37.4005 	 37.5075
| 26> C 	 -2.42784 	 36.2314 	 37.5111
| 27> C 	 -1.78701 	 35.9717 	 36.303
| 28> H 	 -4.05282 	 37.6645 	 38.3286
| 29> C 	 -2.33772 	 35.2814 	 38.73
| 30> H 	 -2.20966 	 34.2579 	 38.2583
| 31> H 	 -3.17147 	 35.1628 	 39.381
| 32> C 	 -0.979444 	 35.339 	 39.538
| 33> H 	 -0.863459 	 36.27 	 40.0602
| 34> H 	 -0.132287 	 35.2981 	 38.8731
| 35> C 	 -0.896147 	 34.2223 	 40.6005
| 36> H 	 -0.73324 	 33.3044 	 40.0567
| 37> H 	 -1.79371 	 34.2231 	 41.3056
| 38> H 	 -0.0165735 	 34.3428 	 41.1771
| 39> H 	 1.68023 	 32.398 	 35.2101
| 40> H 	 -3.99925 	 38.87 	 36.0901
| 41> *
| 42>
| 43>                          ****END OF INPUT****

CARTESIAN COORDINATES (ANGSTROEM)
---------------------------------
  S      0.728514   34.767700   36.023600
  C      0.839205   33.094300   35.399600
  C     -0.410426   32.790200   34.815600
  C     -1.431260   33.677900   35.322200
  C     -0.973625   34.840200   35.956900
  H     -2.491600   33.628400   35.025800
  C     -0.802246   31.547200   34.099400
  H     -0.846387   30.817000   34.871000
  H      0.142755   31.319400   33.556000
  C     -2.070770   31.607700   33.180000
  H     -2.989850   31.603500   33.688600
  H     -1.988640   32.436200   32.490700
  C     -2.090100   30.261300   32.373900
  H     -2.456510   29.415900   33.006800
  H     -2.635990   30.243600   31.435500
  H     -1.060510   29.868100   32.130700
  S     -2.152110   37.245100   35.082700
  C     -3.353830   37.967600   36.236800
  C     -3.334840   37.400500   37.507500
  C     -2.427840   36.231400   37.511100
  C     -1.787010   35.971700   36.303000
  H     -4.052820   37.664500   38.328600
  C     -2.337720   35.281400   38.730000
  H     -2.209660   34.257900   38.258300
  H     -3.171470   35.162800   39.381000
  C     -0.979444   35.339000   39.538000
  H     -0.863459   36.270000   40.060200
  H     -0.132287   35.298100   38.873100
  C     -0.896147   34.222300   40.600500
  H     -0.733240   33.304400   40.056700
  H     -1.793710   34.223100   41.305600
  H     -0.016574   34.342800   41.177100
  H      1.680230   32.398000   35.210100
  H     -3.999250   38.870000   36.090100

 Total Charge           Charge          ....    0
 Multiplicity           Mult            ....    1
 Number of Electrons    NEL             ....  134
 Basis Dimension        Dim             ....  322

ORBITAL ENERGIES
----------------

  NO   OCC          E(Eh)            E(eV)
   0   2.0000     -88.970255     -2421.0037
   1   2.0000     -88.969756     -2420.9901
   2   2.0000     -10.329294      -281.0744
   3   2.0000     -10.329117      -281.0696
   4   2.0000     -10.326728      -281.0046
   5   2.0000     -10.321823      -280.8711
   6   2.0000     -10.313091      -280.6335
   7   2.0000     -10.305337      -280.4225
   8   2.0000     -10.303465      -280.3715
   9   2.0000     -10.295324      -280.1500
  10   2.0000     -10.295275      -280.1487
  11   2.0000     -10.293768      -280.1077
  12   2.0000     -10.292501      -280.0732
  13   2.0000     -10.285941      -279.8947
  14   2.0000     -10.277896      -279.6758
  15   2.0000     -10.273802      -279.5644
  16   2.0000      -8.084107      -219.9797
  17   2.0000      -8.082455      -219.9348
  18   2.0000      -6.042733      -164.4311
  19   2.0000      -6.041267      -164.3912
  20   2.0000      -6.038577      -164.3180
  21   2.0000      -6.037414      -164.2864
  22   2.0000      -6.034910      -164.2182
  23   2.0000      -6.032832      -164.1617
  24   2.0000      -1.001836       -27.2614
  25   2.0000      -0.972026       -26.4502
  26   2.0000      -0.913651       -24.8617
  27   2.0000      -0.894835       -24.3497
  28   2.0000      -0.868276       -23.6270
  29   2.0000      -0.843957       -22.9652
  30   2.0000      -0.841186       -22.8898
  31   2.0000      -0.809959       -22.0401
  32   2.0000      -0.777714       -21.1627
  33   2.0000      -0.764068       -20.7914
  34   2.0000      -0.717730       -19.5304
  35   2.0000      -0.698674       -19.0119
  36   2.0000      -0.687461       -18.7068
  37   2.0000      -0.655446       -17.8356
  38   2.0000      -0.632032       -17.1985
  39   2.0000      -0.611735       -16.6462
  40   2.0000      -0.588519       -16.0144
  41   2.0000      -0.576199       -15.6792
  42   2.0000      -0.564993       -15.3742
  43   2.0000      -0.558589       -15.2000
  44   2.0000      -0.527277       -14.3479
  45   2.0000      -0.518021       -14.0961
  46   2.0000      -0.508910       -13.8481
  47   2.0000      -0.503433       -13.6991
  48   2.0000      -0.501348       -13.6424
  49   2.0000      -0.498746       -13.5716
  50   2.0000      -0.493450       -13.4275
  51   2.0000      -0.470707       -12.8086
  52   2.0000      -0.462860       -12.5951
  53   2.0000      -0.459483       -12.5032
  54   2.0000      -0.453210       -12.3325
  55   2.0000      -0.446429       -12.1479
  56   2.0000      -0.443655       -12.0725
  57   2.0000      -0.438762       -11.9393
  58   2.0000      -0.433296       -11.7906
  59   2.0000      -0.431548       -11.7430
  60   2.0000      -0.418540       -11.3891
  61   2.0000      -0.414284       -11.2732
  62   2.0000      -0.406655       -11.0656
  63   2.0000      -0.334332        -9.0976
  64   2.0000      -0.324352        -8.8261
  65   2.0000      -0.316672        -8.6171
  66   2.0000      -0.310808        -8.4575
  67   0.0000       0.036906         1.0043
  68   0.0000       0.046419         1.2631
  69   0.0000       0.102747         2.7959
  70   0.0000       0.109102         2.9688
  71   0.0000       0.123411         3.3582

MULLIKEN ATOMIC CHARGES
-----------------------
   0 S :    0.129525
   1 C :   -0.130161
   2 C :   -0.113471
   3 C :    0.021045
   4 C :   -0.177007
   5 H :    0.025622
   6 C :    0.027526
   7 H :    0.042877
   8 H :    0.028987
   9 C :   -0.033280
  10 H :    0.041190
  11 H :    0.043512
  12 C :   -0.087178
  13 H :    0.032226
  14 H :    0.041368
  15 H :    0.025015
  16 S :    0.108961
  17 C :   -0.107274
  18 C :   -0.039211
  19 C :   -0.007123
  20 C :   -0.159139
  21 H :    0.049823
  22 C :    0.032462
  23 H :    0.034061
  24 H :    0.018446
  25 C :   -0.065334
  26 H :    0.017239
  27 H :    0.017676
  28 C :   -0.047810
  29 H :    0.030511
  30 H :    0.042421
  31 H :    0.023703
  32 H :    0.059221
  33 H :    0.073573
Sum of atomic charges:    0.0000000

LOEWDIN ATOMIC CHARGES
----------------------
   0 S :    0.429028
   1 C :   -0.210066
   2 C :   -0.061904
   3 C :   -0.066467
   4 C :   -0.220170
   5 H :    0.032960
   6 C :   -0.036065
   7 H :    0.034836
   8 H :    0.036494
   9 C :   -0.026426
  10 H :    0.023078
  11 H :    0.028896
  12 C :   -0.074585
  13 H :    0.028387
  14 H :    0.023783
  15 H :    0.026211
  16 S :    0.360625
  17 C :   -0.170451
  18 C :   -0.077399
  19 C :   -0.037691
  20 C :   -0.196634
  21 H :    0.045230
  22 C :   -0.037091
  23 H :    0.040872
  24 H :    0.021232
  25 C :   -0.035344
  26 H :    0.014013
  27 H :    0.013522
  28 C :   -0.064933
  29 H :    0.023856
  30 H :    0.031894
  31 H :    0.020986
  32 H :    0.038908
  33 H :    0.040412

  Mayer bond orders larger than 0.100000
B(  0-S ,  1-C ) :   1.1392 B(  0-S ,  4-C ) :   1.1587 B(  1-C ,  2-C ) :   1.5771
B(  1-C ,  4-C ) :   0.1085 B(  1-C , 32-H ) :   0.9672 B(  2-C ,  3-C ) :   1.2548
B(  2-C ,  6-C ) :   1.0250 B(  3-C ,  4-C ) :   1.5600 B(  3-C ,  5-H ) :   0.9793
B(  4-C , 20-C ) :   1.0479 B(  6-C ,  7-H ) :   0.9393 B(  6-C ,  8-H ) :   0.9385
B(  6-C ,  9-C ) :   1.0632 B(  9-C , 10-H ) :   0.9507 B(  9-C , 11-H ) :   0.9641
B(  9-C , 12-C ) :   1.0695 B( 12-C , 13-H ) :   0.9766 B( 12-C , 14-H ) :   0.9771
B( 12-C , 15-H ) :   0.9773 B( 16-S , 17-C ) :   1.1292 B( 16-S , 20-C ) :   1.0927
B( 17-C , 18-C ) :   1.6647 B( 17-C , 33-H ) :   0.9554 B( 18-C , 19-C ) :   1.2007
B( 18-C , 21-H ) :   0.9774 B( 19-C , 20-C ) :   1.6515 B( 19-C , 22-C ) :   1.0295
B( 22-C , 23-H ) :   0.9345 B( 22-C , 24-H ) :   0.9552 B( 22-C , 25-C ) :   1.0445
B( 25-C , 26-H ) :   0.9575 B( 25-C , 27-H ) :   0.9535 B( 25-C , 28-C ) :   1.0851
B( 28-C , 29-H ) :   0.9764 B( 28-C , 30-H ) :   0.9744 B( 28-C , 31-H ) :   0.9723

Dispersion correction           -0.014284257
FINAL SINGLE POINT ENERGY     -1339.846742252223

DIPOLE MOMENT
-------------
                                X             Y             Z
Electronic contribution:      4.51624      21.12156      -5.08320
Nuclear contribution   :     -4.86933     -21.64580       5.11205
                        -----------------------------------------
Total Dipole Moment    :     -0.35309      -0.52425       0.02885
                        -----------------------------------------
Magnitude (a.u.)       :      0.63272
Magnitude (Debye)      :      1.60826

Rotational constants in cm-1:     0.017267     0.008400     0.006986
Rotational constants in MHz :   517.659231   251.835862   209.440258

                             ****ORCA TERMINATED NORMALLY****
TOTAL RUN TIME: 0 days 0 hours 0 minutes 32 seconds 136 msec
