                         Program Version 4.2.1 -  RELEASE  -
|  1> ! wB97X-D3 SP def2-SVP
|  2> %pal
|  3> nprocs 16
|  4> end
|  5>
|  6> * xyz 0 1
|  7> S 	 -43.369 	 28.3279 	 76.1029
|  8> C 	 -43.2367 	 29.7099 	 75.0087
|  9> C 	 -42.9561 	 30.8302 	 75.7414
| 10> C 	 -42.852 	 30.5974 	 77.1253
| 11> C 	 -42.885 	 29.305 	 77.5116
| 12> H 	 -42.5943 	 31.4118 	 77.8222
| 13> C 	 -42.8322 	 32.2732 	 75.3111
| 14> H 	 -42.2637 	 32.3448 	 74.434
| 15> H 	 -42.2837 	 32.86 	 76.0403
| 16> C 	 -44.181 	 32.8935 	 75.0479
| 17> H 	 -44.8151 	 32.2979 	 74.4441
| 18> H 	 -44.6945 	 33.1142 	 75.9557
| 19> C 	 -44.0161 	 34.2138 	 74.3223
| 20> H 	 -43.4948 	 34.9693 	 74.9406
| 21> H 	 -43.5727 	 34.1582 	 73.3586
| 22> H 	 -45.0188 	 34.6074 	 74.0993
| 23> S 	 -41.0401 	 28.6219 	 79.4095
| 24> C 	 -41.5531 	 27.6901 	 80.8209
| 25> C 	 -42.8734 	 27.738 	 80.9957
| 26> C 	 -43.6027 	 28.3197 	 79.896
| 27> C 	 -42.7455 	 28.7547 	 78.8792
| 28> H 	 -43.3271 	 27.2227 	 81.8546
| 29> C 	 -45.1186 	 28.3981 	 79.8857
| 30> H 	 -45.628 	 27.4181 	 80.0755
| 31> H 	 -45.3314 	 28.7959 	 78.8548
| 32> C 	 -45.7544 	 29.2708 	 81.0611
| 33> H 	 -45.5264 	 30.2869 	 80.791
| 34> H 	 -45.1964 	 29.0122 	 81.9293
| 35> C 	 -47.238 	 29.0866 	 81.509
| 36> H 	 -47.4972 	 28.0865 	 81.828
| 37> H 	 -47.9673 	 29.171 	 80.7528
| 38> H 	 -47.5322 	 29.861 	 82.2464
| 39> H 	 -43.4988 	 29.7071 	 73.9863
| 40> H 	 -40.8145 	 27.3296 	 81.5602
| 41> *
| 42>
| 43>                          ****END OF INPUT****

CARTESIAN COORDINATES (ANGSTROEM)
---------------------------------
  S    -43.369000   28.327900   76.102900
  C    -43.236700   29.709900   75.008700
  C    -42.956100   30.830200   75.741400
  C    -42.852000   30.597400   77.125300
  C    -42.885000   29.305000   77.511600
  H    -42.594300   31.411800   77.822200
  C    -42.832200   32.273200   75.311100
  H    -42.263700   32.344800   74.434000
  H    -42.283700   32.860000   76.040300
  C    -44.181000   32.893500   75.047900
  H    -44.815100   32.297900   74.444100
  H    -44.694500   33.114200   75.955700
  C    -44.016100   34.213800   74.322300
  H    -43.494800   34.969300   74.940600
  H    -43.572700   34.158200   73.358600
  H    -45.018800   34.607400   74.099300
  S    -41.040100   28.621900   79.409500
  C    -41.553100   27.690100   80.820900
  C    -42.873400   27.738000   80.995700
  C    -43.602700   28.319700   79.896000
  C    -42.745500   28.754700   78.879200
  H    -43.327100   27.222700   81.854600
  C    -45.118600   28.398100   79.885700
  H    -45.628000   27.418100   80.075500
  H    -45.331400   28.795900   78.854800
  C    -45.754400   29.270800   81.061100
  H    -45.526400   30.286900   80.791000
  H    -45.196400   29.012200   81.929300
  C    -47.238000   29.086600   81.509000
  H    -47.497200   28.086500   81.828000
  H    -47.967300   29.171000   80.752800
  H    -47.532200   29.861000   82.246400
  H    -43.498800   29.707100   73.986300
  H    -40.814500   27.329600   81.560200

 Total Charge           Charge          ....    0
 Multiplicity           Mult            ....    1
 Number of Electrons    NEL             ....  134
 Basis Dimension        Dim             ....  322

ORBITAL ENERGIES
----------------

  NO   OCC          E(Eh)            E(eV)
   0   2.0000     -88.963971     -2420.8327
   1   2.0000     -88.960588     -2420.7407
   2   2.0000     -10.333660      -281.1932
   3   2.0000     -10.330436      -281.1055
   4   2.0000     -10.317045      -280.7411
   5   2.0000     -10.313326      -280.6399
   6   2.0000     -10.310795      -280.5710
   7   2.0000     -10.300507      -280.2910
   8   2.0000     -10.294478      -280.1270
   9   2.0000     -10.292628      -280.0766
  10   2.0000     -10.288534      -279.9652
  11   2.0000     -10.288449      -279.9629
  12   2.0000     -10.283220      -279.8206
  13   2.0000     -10.279407      -279.7169
  14   2.0000     -10.277311      -279.6599
  15   2.0000     -10.274447      -279.5819
  16   2.0000      -8.077908      -219.8111
  17   2.0000      -8.075046      -219.7332
  18   2.0000      -6.036598      -164.2642
  19   2.0000      -6.033617      -164.1831
  20   2.0000      -6.032499      -164.1526
  21   2.0000      -6.029755      -164.0780
  22   2.0000      -6.028531      -164.0447
  23   2.0000      -6.025581      -163.9644
  24   2.0000      -1.003879       -27.3169
  25   2.0000      -0.984533       -26.7905
  26   2.0000      -0.919262       -25.0144
  27   2.0000      -0.897883       -24.4326
  28   2.0000      -0.871290       -23.7090
  29   2.0000      -0.849293       -23.1104
  30   2.0000      -0.845734       -23.0136
  31   2.0000      -0.817788       -22.2531
  32   2.0000      -0.782032       -21.2802
  33   2.0000      -0.771606       -20.9965
  34   2.0000      -0.709201       -19.2983
  35   2.0000      -0.704370       -19.1669
  36   2.0000      -0.695896       -18.9363
  37   2.0000      -0.658417       -17.9164
  38   2.0000      -0.642328       -17.4786
  39   2.0000      -0.623423       -16.9642
  40   2.0000      -0.593107       -16.1393
  41   2.0000      -0.578698       -15.7472
  42   2.0000      -0.565981       -15.4011
  43   2.0000      -0.558880       -15.2079
  44   2.0000      -0.526079       -14.3153
  45   2.0000      -0.520216       -14.1558
  46   2.0000      -0.516323       -14.0499
  47   2.0000      -0.514800       -14.0084
  48   2.0000      -0.506331       -13.7780
  49   2.0000      -0.503516       -13.7014
  50   2.0000      -0.492780       -13.4092
  51   2.0000      -0.474041       -12.8993
  52   2.0000      -0.470312       -12.7978
  53   2.0000      -0.466190       -12.6857
  54   2.0000      -0.456474       -12.4213
  55   2.0000      -0.452989       -12.3265
  56   2.0000      -0.442519       -12.0416
  57   2.0000      -0.436885       -11.8883
  58   2.0000      -0.429207       -11.6793
  59   2.0000      -0.428046       -11.6477
  60   2.0000      -0.420495       -11.4422
  61   2.0000      -0.416743       -11.3401
  62   2.0000      -0.411400       -11.1948
  63   2.0000      -0.336765        -9.1638
  64   2.0000      -0.333291        -9.0693
  65   2.0000      -0.320563        -8.7230
  66   2.0000      -0.310573        -8.4511
  67   0.0000       0.042559         1.1581
  68   0.0000       0.052200         1.4204
  69   0.0000       0.106516         2.8985
  70   0.0000       0.117191         3.1889
  71   0.0000       0.128927         3.5083

MULLIKEN ATOMIC CHARGES
-----------------------
   0 S :    0.102818
   1 C :   -0.110810
   2 C :   -0.075557
   3 C :    0.030827
   4 C :   -0.147626
   5 H :    0.019784
   6 C :    0.101729
   7 H :    0.003180
   8 H :    0.015874
   9 C :   -0.039228
  10 H :    0.016437
  11 H :    0.019020
  12 C :   -0.051722
  13 H :    0.031777
  14 H :    0.023610
  15 H :    0.024656
  16 S :    0.086954
  17 C :   -0.093708
  18 C :   -0.037518
  19 C :   -0.002161
  20 C :   -0.198593
  21 H :    0.032139
  22 C :    0.048775
  23 H :    0.032962
  24 H :    0.041351
  25 C :   -0.077508
  26 H :    0.031081
  27 H :    0.024717
  28 C :   -0.033598
  29 H :    0.021369
  30 H :    0.011664
  31 H :    0.045471
  32 H :    0.033181
  33 H :    0.068654
Sum of atomic charges:    0.0000000

LOEWDIN ATOMIC CHARGES
----------------------
   0 S :    0.387195
   1 C :   -0.181620
   2 C :   -0.063395
   3 C :   -0.065197
   4 C :   -0.192653
   5 H :    0.036357
   6 C :   -0.023903
   7 H :    0.022371
   8 H :    0.029919
   9 C :   -0.030866
  10 H :    0.019070
  11 H :    0.022796
  12 C :   -0.064357
  13 H :    0.025773
  14 H :    0.017333
  15 H :    0.026949
  16 S :    0.375552
  17 C :   -0.172517
  18 C :   -0.079303
  19 C :   -0.051595
  20 C :   -0.183061
  21 H :    0.037459
  22 C :   -0.036071
  23 H :    0.033935
  24 H :    0.034920
  25 C :   -0.035026
  26 H :    0.022806
  27 H :    0.019707
  28 C :   -0.069448
  29 H :    0.023951
  30 H :    0.017431
  31 H :    0.037071
  32 H :    0.022593
  33 H :    0.035823

  Mayer bond orders larger than 0.100000
B(  0-S ,  1-C ) :   1.1308 B(  0-S ,  4-C ) :   1.1275 B(  1-C ,  2-C ) :   1.6151
B(  1-C , 32-H ) :   0.9766 B(  2-C ,  3-C ) :   1.2495 B(  2-C ,  6-C ) :   1.0214
B(  3-C ,  4-C ) :   1.6026 B(  3-C ,  5-H ) :   0.9879 B(  4-C , 20-C ) :   1.0010
B(  6-C ,  7-H ) :   0.9354 B(  6-C ,  8-H ) :   0.9377 B(  6-C ,  9-C ) :   1.0727
B(  9-C , 10-H ) :   0.9572 B(  9-C , 11-H ) :   0.9490 B(  9-C , 12-C ) :   1.0952
B( 12-C , 13-H ) :   0.9729 B( 12-C , 14-H ) :   0.9744 B( 12-C , 15-H ) :   0.9716
B( 16-S , 17-C ) :   1.1330 B( 16-S , 20-C ) :   1.1337 B( 17-C , 18-C ) :   1.6648
B( 17-C , 33-H ) :   0.9607 B( 18-C , 19-C ) :   1.1892 B( 18-C , 21-H ) :   0.9818
B( 19-C , 20-C ) :   1.6313 B( 19-C , 22-C ) :   1.0543 B( 22-C , 23-H ) :   0.9387
B( 22-C , 24-H ) :   0.9350 B( 22-C , 25-C ) :   1.0393 B( 25-C , 26-H ) :   0.9584
B( 25-C , 27-H ) :   0.9623 B( 25-C , 28-C ) :   1.0779 B( 28-C , 29-H ) :   0.9705
B( 28-C , 30-H ) :   0.9745 B( 28-C , 31-H ) :   0.9740

Dispersion correction           -0.013385100
FINAL SINGLE POINT ENERGY     -1339.869281746230

DIPOLE MOMENT
-------------
                                X             Y             Z
Electronic contribution:     18.67290     -17.99298      -0.83140
Nuclear contribution   :    -19.07835      18.41702       1.01148
                        -----------------------------------------
Total Dipole Moment    :     -0.40544       0.42404       0.18008
                        -----------------------------------------
Magnitude (a.u.)       :      0.61370
Magnitude (Debye)      :      1.55990

Rotational constants in cm-1:     0.017710     0.007504     0.006266
Rotational constants in MHz :   530.939803   224.967469   187.851935

                             ****ORCA TERMINATED NORMALLY****
TOTAL RUN TIME: 0 days 0 hours 0 minutes 28 seconds 918 msec
