                         Program Version 4.2.1 -  RELEASE  -
|  1> ! wB97X-D3 SP def2-SVP
|  2> %pal
|  3> nprocs 16
|  4> end
|  5>
|  6> * xyz 0 1
|  7> S 	 -18.5899 	 -2.02548 	 92.4116
|  8> C 	 -20.1476 	 -1.37932 	 92.8022
|  9> C 	 -20.9326 	 -1.12293 	 91.717
| 10> C 	 -20.4283 	 -1.87446 	 90.6265
| 11> C 	 -19.1608 	 -2.45079 	 90.7906
| 12> H 	 -20.8831 	 -1.8123 	 89.6332
| 13> C 	 -22.2314 	 -0.31692 	 91.6746
| 14> H 	 -22.8728 	 -0.794403 	 90.875
| 15> H 	 -21.9274 	 0.660529 	 91.3946
| 16> C 	 -23.1376 	 -0.254603 	 92.9277
| 17> H 	 -22.757 	 0.344582 	 93.761
| 18> H 	 -24.0497 	 0.188452 	 92.6438
| 19> C 	 -23.7675 	 -1.54631 	 93.454
| 20> H 	 -22.9491 	 -2.14131 	 93.8723
| 21> H 	 -24.4835 	 -1.30343 	 94.2343
| 22> H 	 -24.241 	 -2.19629 	 92.69
| 23> S 	 -16.6284 	 -3.13597 	 89.7411
| 24> C 	 -16.5752 	 -4.07429 	 88.2166
| 25> C 	 -17.819 	 -4.43139 	 87.8169
| 26> C 	 -18.8704 	 -4.03209 	 88.7357
| 27> C 	 -18.4397 	 -3.18437 	 89.7449
| 28> H 	 -17.9566 	 -5.03366 	 86.8857
| 29> C 	 -20.222 	 -4.41905 	 88.317
| 30> H 	 -20.8509 	 -4.39164 	 89.08
| 31> H 	 -20.2545 	 -5.53198 	 88.2277
| 32> C 	 -20.7582 	 -3.56666 	 87.0925
| 33> H 	 -20.0637 	 -3.76282 	 86.1985
| 34> H 	 -20.7116 	 -2.49588 	 87.3156
| 35> C 	 -22.2425 	 -3.90558 	 86.6957
| 36> H 	 -22.8964 	 -3.68659 	 87.4956
| 37> H 	 -22.4436 	 -4.96506 	 86.4519
| 38> H 	 -22.6328 	 -3.28478 	 85.8639
| 39> H 	 -20.3385 	 -1.08691 	 93.8392
| 40> H 	 -15.6148 	 -4.30427 	 87.7112
| 41> *
| 42>
| 43>                          ****END OF INPUT****

CARTESIAN COORDINATES (ANGSTROEM)
---------------------------------
  S    -18.589900   -2.025480   92.411600
  C    -20.147600   -1.379320   92.802200
  C    -20.932600   -1.122930   91.717000
  C    -20.428300   -1.874460   90.626500
  C    -19.160800   -2.450790   90.790600
  H    -20.883100   -1.812300   89.633200
  C    -22.231400   -0.316920   91.674600
  H    -22.872800   -0.794403   90.875000
  H    -21.927400    0.660529   91.394600
  C    -23.137600   -0.254603   92.927700
  H    -22.757000    0.344582   93.761000
  H    -24.049700    0.188452   92.643800
  C    -23.767500   -1.546310   93.454000
  H    -22.949100   -2.141310   93.872300
  H    -24.483500   -1.303430   94.234300
  H    -24.241000   -2.196290   92.690000
  S    -16.628400   -3.135970   89.741100
  C    -16.575200   -4.074290   88.216600
  C    -17.819000   -4.431390   87.816900
  C    -18.870400   -4.032090   88.735700
  C    -18.439700   -3.184370   89.744900
  H    -17.956600   -5.033660   86.885700
  C    -20.222000   -4.419050   88.317000
  H    -20.850900   -4.391640   89.080000
  H    -20.254500   -5.531980   88.227700
  C    -20.758200   -3.566660   87.092500
  H    -20.063700   -3.762820   86.198500
  H    -20.711600   -2.495880   87.315600
  C    -22.242500   -3.905580   86.695700
  H    -22.896400   -3.686590   87.495600
  H    -22.443600   -4.965060   86.451900
  H    -22.632800   -3.284780   85.863900
  H    -20.338500   -1.086910   93.839200
  H    -15.614800   -4.304270   87.711200

 Total Charge           Charge          ....    0
 Multiplicity           Mult            ....    1
 Number of Electrons    NEL             ....  134
 Basis Dimension        Dim             ....  322

ORBITAL ENERGIES
----------------

  NO   OCC          E(Eh)            E(eV)
   0   2.0000     -88.967812     -2420.9372
   1   2.0000     -88.959957     -2420.7235
   2   2.0000     -10.335246      -281.2364
   3   2.0000     -10.334606      -281.2189
   4   2.0000     -10.320587      -280.8374
   5   2.0000     -10.313229      -280.6372
   6   2.0000     -10.303846      -280.3819
   7   2.0000     -10.302226      -280.3378
   8   2.0000     -10.301750      -280.3249
   9   2.0000     -10.301097      -280.3071
  10   2.0000     -10.295445      -280.1533
  11   2.0000     -10.294776      -280.1351
  12   2.0000     -10.287161      -279.9279
  13   2.0000     -10.283149      -279.8187
  14   2.0000     -10.282219      -279.7934
  15   2.0000     -10.279832      -279.7285
  16   2.0000      -8.082541      -219.9371
  17   2.0000      -8.073677      -219.6959
  18   2.0000      -6.041065      -164.3857
  19   2.0000      -6.037208      -164.2808
  20   2.0000      -6.033132      -164.1699
  21   2.0000      -6.032493      -164.1525
  22   2.0000      -6.028502      -164.0439
  23   2.0000      -6.024016      -163.9218
  24   2.0000      -1.003577       -27.3087
  25   2.0000      -0.980941       -26.6928
  26   2.0000      -0.911978       -24.8162
  27   2.0000      -0.903978       -24.5985
  28   2.0000      -0.868922       -23.6446
  29   2.0000      -0.853647       -23.2289
  30   2.0000      -0.843337       -22.9484
  31   2.0000      -0.812237       -22.1021
  32   2.0000      -0.786109       -21.3911
  33   2.0000      -0.773581       -21.0502
  34   2.0000      -0.709532       -19.3073
  35   2.0000      -0.703574       -19.1452
  36   2.0000      -0.696218       -18.9451
  37   2.0000      -0.660387       -17.9700
  38   2.0000      -0.635970       -17.3056
  39   2.0000      -0.615548       -16.7499
  40   2.0000      -0.596387       -16.2285
  41   2.0000      -0.575527       -15.6609
  42   2.0000      -0.561057       -15.2671
  43   2.0000      -0.553251       -15.0547
  44   2.0000      -0.541818       -14.7436
  45   2.0000      -0.525887       -14.3101
  46   2.0000      -0.513928       -13.9847
  47   2.0000      -0.508144       -13.8273
  48   2.0000      -0.506521       -13.7831
  49   2.0000      -0.492611       -13.4046
  50   2.0000      -0.492310       -13.3964
  51   2.0000      -0.476774       -12.9737
  52   2.0000      -0.469713       -12.7815
  53   2.0000      -0.464172       -12.6308
  54   2.0000      -0.454490       -12.3673
  55   2.0000      -0.452411       -12.3107
  56   2.0000      -0.447133       -12.1671
  57   2.0000      -0.439830       -11.9684
  58   2.0000      -0.436890       -11.8884
  59   2.0000      -0.430996       -11.7280
  60   2.0000      -0.420052       -11.4302
  61   2.0000      -0.413499       -11.2519
  62   2.0000      -0.406899       -11.0723
  63   2.0000      -0.359268        -9.7762
  64   2.0000      -0.333372        -9.0715
  65   2.0000      -0.325393        -8.8544
  66   2.0000      -0.282638        -7.6910
  67   0.0000       0.022249         0.6054
  68   0.0000       0.074319         2.0223
  69   0.0000       0.100490         2.7345
  70   0.0000       0.122758         3.3404
  71   0.0000       0.126096         3.4313

MULLIKEN ATOMIC CHARGES
-----------------------
   0 S :    0.118802
   1 C :   -0.151431
   2 C :   -0.063923
   3 C :   -0.027012
   4 C :   -0.107149
   5 H :    0.005585
   6 C :    0.093168
   7 H :    0.033122
   8 H :    0.041613
   9 C :   -0.086850
  10 H :    0.035193
  11 H :    0.019538
  12 C :   -0.065441
  13 H :    0.027459
  14 H :    0.039970
  15 H :    0.035554
  16 S :    0.062593
  17 C :   -0.097352
  18 C :   -0.038317
  19 C :   -0.077190
  20 C :   -0.124162
  21 H :    0.041326
  22 C :    0.128257
  23 H :   -0.036924
  24 H :    0.025947
  25 C :   -0.096721
  26 H :    0.043670
  27 H :    0.044500
  28 C :   -0.043650
  29 H :    0.017217
  30 H :    0.034986
  31 H :    0.039392
  32 H :    0.055896
  33 H :    0.072334
Sum of atomic charges:    0.0000000

LOEWDIN ATOMIC CHARGES
----------------------
   0 S :    0.404337
   1 C :   -0.196709
   2 C :   -0.068744
   3 C :   -0.064884
   4 C :   -0.188445
   5 H :    0.029071
   6 C :   -0.022881
   7 H :    0.038876
   8 H :    0.034190
   9 C :   -0.048053
  10 H :    0.025370
  11 H :    0.024151
  12 C :   -0.064982
  13 H :    0.020929
  14 H :    0.028144
  15 H :    0.027807
  16 S :    0.342493
  17 C :   -0.168971
  18 C :   -0.074369
  19 C :   -0.057939
  20 C :   -0.167345
  21 H :    0.041663
  22 C :   -0.035591
  23 H :    0.006024
  24 H :    0.043003
  25 C :   -0.031292
  26 H :    0.030916
  27 H :    0.025791
  28 C :   -0.072168
  29 H :    0.016904
  30 H :    0.027628
  31 H :    0.030880
  32 H :    0.026583
  33 H :    0.037611

  Mayer bond orders larger than 0.100000
B(  0-S ,  1-C ) :   1.1529 B(  0-S ,  4-C ) :   1.1357 B(  1-C ,  2-C ) :   1.5911
B(  1-C , 32-H ) :   0.9627 B(  2-C ,  3-C ) :   1.2703 B(  2-C ,  6-C ) :   1.0012
B(  3-C ,  4-C ) :   1.5500 B(  3-C ,  5-H ) :   0.9864 B(  4-C , 20-C ) :   1.0895
B(  6-C ,  7-H ) :   0.9461 B(  6-C ,  8-H ) :   0.9281 B(  6-C ,  9-C ) :   1.0891
B(  9-C , 10-H ) :   0.9508 B(  9-C , 11-H ) :   0.9548 B(  9-C , 12-C ) :   1.0738
B( 12-C , 13-H ) :   0.9755 B( 12-C , 14-H ) :   0.9749 B( 12-C , 15-H ) :   0.9738
B( 16-S , 17-C ) :   1.1222 B( 16-S , 20-C ) :   1.0960 B( 17-C , 18-C ) :   1.6599
B( 17-C , 33-H ) :   0.9627 B( 18-C , 19-C ) :   1.1824 B( 18-C , 21-H ) :   0.9816
B( 19-C , 20-C ) :   1.6264 B( 19-C , 22-C ) :   1.0791 B( 22-C , 23-H ) :   0.9093
B( 22-C , 24-H ) :   0.9183 B( 22-C , 25-C ) :   1.0320 B( 25-C , 26-H ) :   0.9582
B( 25-C , 27-H ) :   0.9554 B( 25-C , 28-C ) :   1.0735 B( 28-C , 29-H ) :   0.9746
B( 28-C , 30-H ) :   0.9769 B( 28-C , 31-H ) :   0.9756

Dispersion correction           -0.014168277
FINAL SINGLE POINT ENERGY     -1339.860019331956

DIPOLE MOMENT
-------------
                                X             Y             Z
Electronic contribution:     30.13656      -0.98198       6.49065
Nuclear contribution   :    -30.92931       1.09045      -6.78426
                        -----------------------------------------
Total Dipole Moment    :     -0.79275       0.10847      -0.29362
                        -----------------------------------------
Magnitude (a.u.)       :      0.85231
Magnitude (Debye)      :      2.16641

Rotational constants in cm-1:     0.018301     0.008677     0.006198
Rotational constants in MHz :   548.646630   260.132162   185.817352

                             ****ORCA TERMINATED NORMALLY****
TOTAL RUN TIME: 0 days 0 hours 0 minutes 29 seconds 582 msec
