                         Program Version 4.2.1 -  RELEASE  -
|  1> ! wB97X-D3 SP def2-SVP
|  2> %pal
|  3> nprocs 16
|  4> end
|  5>
|  6> * xyz 0 1
|  7> S 	 2.69608 	 -31.5665 	 61.3311
|  8> C 	 1.0247 	 -31.8966 	 61.4596
|  9> C 	 0.254143 	 -31.3067 	 60.4428
| 10> C 	 1.01038 	 -30.3658 	 59.7249
| 11> C 	 2.32218 	 -30.2644 	 60.2392
| 12> H 	 0.675645 	 -29.7003 	 58.9695
| 13> C 	 -1.18944 	 -31.5889 	 60.0275
| 14> H 	 -1.64732 	 -32.1269 	 60.8603
| 15> H 	 -1.18596 	 -32.0884 	 59.0641
| 16> C 	 -2.00172 	 -30.3296 	 59.8827
| 17> H 	 -1.56473 	 -29.7464 	 59.1154
| 18> H 	 -2.95118 	 -30.5941 	 59.5553
| 19> C 	 -2.13432 	 -29.5438 	 61.2154
| 20> H 	 -2.49463 	 -30.1658 	 62.0375
| 21> H 	 -1.215 	 -29.0836 	 61.4532
| 22> H 	 -2.88828 	 -28.7416 	 61.148
| 23> S 	 4.81458 	 -30.0019 	 59.2163
| 24> C 	 5.48573 	 -28.5336 	 58.6096
| 25> C 	 4.48097 	 -27.5685 	 58.6702
| 26> C 	 3.24734 	 -28.036 	 59.2894
| 27> C 	 3.31573 	 -29.3547 	 59.7053
| 28> H 	 4.79468 	 -26.5269 	 58.3524
| 29> C 	 2.11033 	 -27.05 	 59.6322
| 30> H 	 1.1303 	 -27.4667 	 59.8125
| 31> H 	 1.94081 	 -26.3059 	 58.8235
| 32> C 	 2.41811 	 -26.2527 	 60.8163
| 33> H 	 1.5274 	 -25.6672 	 61.0204
| 34> H 	 3.26206 	 -25.5705 	 60.6819
| 35> C 	 2.66406 	 -27.1052 	 62.1154
| 36> H 	 1.86167 	 -27.8226 	 62.2457
| 37> H 	 2.67517 	 -26.4413 	 63.0218
| 38> H 	 3.67701 	 -27.6512 	 62.052
| 39> H 	 0.575921 	 -32.5745 	 62.1628
| 40> H 	 6.46384 	 -28.3873 	 58.1763
| 41> *
| 42>
| 43>                          ****END OF INPUT****

CARTESIAN COORDINATES (ANGSTROEM)
---------------------------------
  S      2.696080  -31.566500   61.331100
  C      1.024700  -31.896600   61.459600
  C      0.254143  -31.306700   60.442800
  C      1.010380  -30.365800   59.724900
  C      2.322180  -30.264400   60.239200
  H      0.675645  -29.700300   58.969500
  C     -1.189440  -31.588900   60.027500
  H     -1.647320  -32.126900   60.860300
  H     -1.185960  -32.088400   59.064100
  C     -2.001720  -30.329600   59.882700
  H     -1.564730  -29.746400   59.115400
  H     -2.951180  -30.594100   59.555300
  C     -2.134320  -29.543800   61.215400
  H     -2.494630  -30.165800   62.037500
  H     -1.215000  -29.083600   61.453200
  H     -2.888280  -28.741600   61.148000
  S      4.814580  -30.001900   59.216300
  C      5.485730  -28.533600   58.609600
  C      4.480970  -27.568500   58.670200
  C      3.247340  -28.036000   59.289400
  C      3.315730  -29.354700   59.705300
  H      4.794680  -26.526900   58.352400
  C      2.110330  -27.050000   59.632200
  H      1.130300  -27.466700   59.812500
  H      1.940810  -26.305900   58.823500
  C      2.418110  -26.252700   60.816300
  H      1.527400  -25.667200   61.020400
  H      3.262060  -25.570500   60.681900
  C      2.664060  -27.105200   62.115400
  H      1.861670  -27.822600   62.245700
  H      2.675170  -26.441300   63.021800
  H      3.677010  -27.651200   62.052000
  H      0.575921  -32.574500   62.162800
  H      6.463840  -28.387300   58.176300

 Total Charge           Charge          ....    0
 Multiplicity           Mult            ....    1
 Number of Electrons    NEL             ....  134
 Basis Dimension        Dim             ....  322

ORBITAL ENERGIES
----------------

  NO   OCC          E(Eh)            E(eV)
   0   2.0000     -88.974076     -2421.1077
   1   2.0000     -88.960424     -2420.7362
   2   2.0000     -10.330470      -281.1064
   3   2.0000     -10.323628      -280.9202
   4   2.0000     -10.316174      -280.7174
   5   2.0000     -10.312365      -280.6137
   6   2.0000     -10.305813      -280.4354
   7   2.0000     -10.301789      -280.3259
   8   2.0000     -10.300468      -280.2900
   9   2.0000     -10.292256      -280.0665
  10   2.0000     -10.291743      -280.0526
  11   2.0000     -10.287534      -279.9380
  12   2.0000     -10.277589      -279.6674
  13   2.0000     -10.277492      -279.6648
  14   2.0000     -10.277252      -279.6582
  15   2.0000     -10.275682      -279.6155
  16   2.0000      -8.089267      -220.1201
  17   2.0000      -8.076602      -219.7755
  18   2.0000      -6.047525      -164.5615
  19   2.0000      -6.043957      -164.4644
  20   2.0000      -6.040020      -164.3573
  21   2.0000      -6.035040      -164.2218
  22   2.0000      -6.030690      -164.1034
  23   2.0000      -6.027564      -164.0183
  24   2.0000      -1.013982       -27.5919
  25   2.0000      -0.990284       -26.9470
  26   2.0000      -0.920524       -25.0487
  27   2.0000      -0.913720       -24.8636
  28   2.0000      -0.870996       -23.7010
  29   2.0000      -0.852887       -23.2082
  30   2.0000      -0.833752       -22.6875
  31   2.0000      -0.810319       -22.0499
  32   2.0000      -0.783439       -21.3185
  33   2.0000      -0.774732       -21.0815
  34   2.0000      -0.711919       -19.3723
  35   2.0000      -0.697424       -18.9779
  36   2.0000      -0.685606       -18.6563
  37   2.0000      -0.655203       -17.8290
  38   2.0000      -0.638644       -17.3784
  39   2.0000      -0.627899       -17.0860
  40   2.0000      -0.602408       -16.3924
  41   2.0000      -0.569011       -15.4836
  42   2.0000      -0.562906       -15.3174
  43   2.0000      -0.547172       -14.8893
  44   2.0000      -0.545037       -14.8312
  45   2.0000      -0.537939       -14.6381
  46   2.0000      -0.516025       -14.0418
  47   2.0000      -0.512431       -13.9440
  48   2.0000      -0.502078       -13.6622
  49   2.0000      -0.496122       -13.5002
  50   2.0000      -0.491290       -13.3687
  51   2.0000      -0.475950       -12.9512
  52   2.0000      -0.470295       -12.7974
  53   2.0000      -0.468475       -12.7479
  54   2.0000      -0.463106       -12.6018
  55   2.0000      -0.450313       -12.2536
  56   2.0000      -0.439739       -11.9659
  57   2.0000      -0.436249       -11.8709
  58   2.0000      -0.431421       -11.7395
  59   2.0000      -0.426979       -11.6187
  60   2.0000      -0.422305       -11.4915
  61   2.0000      -0.415358       -11.3025
  62   2.0000      -0.401545       -10.9266
  63   2.0000      -0.353094        -9.6082
  64   2.0000      -0.334904        -9.1132
  65   2.0000      -0.325517        -8.8578
  66   2.0000      -0.285277        -7.7628
  67   0.0000       0.024527         0.6674
  68   0.0000       0.073173         1.9911
  69   0.0000       0.105450         2.8694
  70   0.0000       0.119897         3.2626
  71   0.0000       0.135607         3.6901

MULLIKEN ATOMIC CHARGES
-----------------------
   0 S :    0.143415
   1 C :   -0.106128
   2 C :   -0.110366
   3 C :    0.025461
   4 C :   -0.156817
   5 H :    0.010472
   6 C :    0.099524
   7 H :    0.013560
   8 H :    0.048552
   9 C :   -0.050343
  10 H :    0.015632
  11 H :    0.009964
  12 C :   -0.049191
  13 H :    0.028253
  14 H :    0.034710
  15 H :    0.029595
  16 S :    0.093355
  17 C :   -0.100427
  18 C :   -0.067904
  19 C :   -0.053829
  20 C :   -0.127899
  21 H :    0.042850
  22 C :    0.083560
  23 H :    0.008739
  24 H :    0.024954
  25 C :   -0.075525
  26 H :    0.023312
  27 H :    0.028058
  28 C :   -0.096397
  29 H :    0.033126
  30 H :    0.038301
  31 H :    0.060948
  32 H :    0.036611
  33 H :    0.061875
Sum of atomic charges:    0.0000000

LOEWDIN ATOMIC CHARGES
----------------------
   0 S :    0.439877
   1 C :   -0.212246
   2 C :   -0.061461
   3 C :   -0.050912
   4 C :   -0.195994
   5 H :    0.025986
   6 C :   -0.023509
   7 H :    0.028170
   8 H :    0.038191
   9 C :   -0.033121
  10 H :    0.015209
  11 H :    0.015544
  12 C :   -0.059239
  13 H :    0.025771
  14 H :    0.018832
  15 H :    0.027648
  16 S :    0.427272
  17 C :   -0.202035
  18 C :   -0.078950
  19 C :   -0.064624
  20 C :   -0.211465
  21 H :    0.041000
  22 C :   -0.037423
  23 H :    0.024471
  24 H :    0.035691
  25 C :   -0.042912
  26 H :    0.023372
  27 H :    0.020334
  28 C :   -0.073767
  29 H :    0.019940
  30 H :    0.027638
  31 H :    0.035688
  32 H :    0.023386
  33 H :    0.033640

  Mayer bond orders larger than 0.100000
B(  0-S ,  1-C ) :   1.1544 B(  0-S ,  4-C ) :   1.1714 B(  1-C ,  2-C ) :   1.5818
B(  1-C ,  4-C ) :   0.1061 B(  1-C , 32-H ) :   0.9679 B(  2-C ,  3-C ) :   1.2634
B(  2-C ,  6-C ) :   1.0182 B(  3-C ,  4-C ) :   1.5251 B(  3-C ,  5-H ) :   0.9990
B(  4-C , 20-C ) :   1.0531 B(  6-C ,  7-H ) :   0.9385 B(  6-C ,  8-H ) :   0.9375
B(  6-C ,  9-C ) :   1.0871 B(  9-C , 10-H ) :   0.9514 B(  9-C , 11-H ) :   0.9512
B(  9-C , 12-C ) :   1.0739 B( 12-C , 13-H ) :   0.9751 B( 12-C , 14-H ) :   0.9747
B( 12-C , 15-H ) :   0.9750 B( 16-S , 17-C ) :   1.1618 B( 16-S , 20-C ) :   1.1589
B( 17-C , 18-C ) :   1.5937 B( 17-C , 33-H ) :   0.9729 B( 18-C , 19-C ) :   1.2425
B( 18-C , 21-H ) :   0.9820 B( 19-C , 20-C ) :   1.5821 B( 19-C , 22-C ) :   1.0431
B( 22-C , 23-H ) :   0.9363 B( 22-C , 24-H ) :   0.9284 B( 22-C , 25-C ) :   1.0951
B( 25-C , 26-H ) :   0.9520 B( 25-C , 27-H ) :   0.9536 B( 25-C , 28-C ) :   1.0737
B( 28-C , 29-H ) :   0.9745 B( 28-C , 30-H ) :   0.9755 B( 28-C , 31-H ) :   0.9710

Dispersion correction           -0.016061747
FINAL SINGLE POINT ENERGY     -1339.875153041120

DIPOLE MOMENT
-------------
                                X             Y             Z
Electronic contribution:     21.68994     -14.72125      -4.92587
Nuclear contribution   :    -22.23100      15.01900       4.77164
                        -----------------------------------------
Total Dipole Moment    :     -0.54106       0.29774      -0.15424
                        -----------------------------------------
Magnitude (a.u.)       :      0.63654
Magnitude (Debye)      :      1.61796

Rotational constants in cm-1:     0.020084     0.009963     0.008038
Rotational constants in MHz :   602.098027   298.669596   240.961954

                             ****ORCA TERMINATED NORMALLY****
TOTAL RUN TIME: 0 days 0 hours 0 minutes 37 seconds 474 msec
