                         Program Version 4.2.1 -  RELEASE  -
|  1> ! wB97X-D3 SP def2-SVP
|  2> %pal
|  3> nprocs 16
|  4> end
|  5>
|  6> * xyz 0 1
|  7> S 	 -33.3845 	 44.1066 	 98.7306
|  8> C 	 -34.8662 	 43.2188 	 98.4672
|  9> C 	 -35.7679 	 43.9402 	 97.7086
| 10> C 	 -35.2611 	 45.2482 	 97.441
| 11> C 	 -34.0262 	 45.4934 	 97.9836
| 12> H 	 -35.824 	 45.8962 	 96.8828
| 13> C 	 -37.0946 	 43.4071 	 97.1933
| 14> H 	 -37.105 	 42.3303 	 97.365
| 15> H 	 -37.1296 	 43.7535 	 96.1643
| 16> C 	 -38.3089 	 44.0808 	 97.8545
| 17> H 	 -38.1365 	 44.1278 	 98.9483
| 18> H 	 -38.3264 	 45.0998 	 97.5008
| 19> C 	 -39.6498 	 43.4497 	 97.5204
| 20> H 	 -40.5075 	 43.8913 	 98.093
| 21> H 	 -39.9036 	 43.7053 	 96.4808
| 22> H 	 -39.65 	 42.3118 	 97.6054
| 23> S 	 -32.4577 	 47.0182 	 99.6995
| 24> C 	 -32.1793 	 48.6764 	 99.2462
| 25> C 	 -32.6064 	 48.9899 	 97.9876
| 26> C 	 -33.316 	 47.8826 	 97.3684
| 27> C 	 -33.3077 	 46.7331 	 98.1605
| 28> H 	 -32.5591 	 49.9954 	 97.558
| 29> C 	 -34.1848 	 48.1733 	 96.2004
| 30> H 	 -34.1576 	 49.1896 	 95.9083
| 31> H 	 -35.2504 	 48.0083 	 96.4378
| 32> C 	 -33.9307 	 47.3223 	 94.9829
| 33> H 	 -34.8945 	 47.304 	 94.5387
| 34> H 	 -33.7395 	 46.3235 	 95.3753
| 35> C 	 -32.8768 	 47.9711 	 94.0524
| 36> H 	 -31.8934 	 47.8875 	 94.4607
| 37> H 	 -33.0614 	 49.0457 	 93.9412
| 38> H 	 -32.8182 	 47.5064 	 93.0683
| 39> H 	 -35.0591 	 42.1957 	 98.7979
| 40> H 	 -31.5977 	 49.3422 	 99.916
| 41> *
| 42>
| 43>                          ****END OF INPUT****

CARTESIAN COORDINATES (ANGSTROEM)
---------------------------------
  S    -33.384500   44.106600   98.730600
  C    -34.866200   43.218800   98.467200
  C    -35.767900   43.940200   97.708600
  C    -35.261100   45.248200   97.441000
  C    -34.026200   45.493400   97.983600
  H    -35.824000   45.896200   96.882800
  C    -37.094600   43.407100   97.193300
  H    -37.105000   42.330300   97.365000
  H    -37.129600   43.753500   96.164300
  C    -38.308900   44.080800   97.854500
  H    -38.136500   44.127800   98.948300
  H    -38.326400   45.099800   97.500800
  C    -39.649800   43.449700   97.520400
  H    -40.507500   43.891300   98.093000
  H    -39.903600   43.705300   96.480800
  H    -39.650000   42.311800   97.605400
  S    -32.457700   47.018200   99.699500
  C    -32.179300   48.676400   99.246200
  C    -32.606400   48.989900   97.987600
  C    -33.316000   47.882600   97.368400
  C    -33.307700   46.733100   98.160500
  H    -32.559100   49.995400   97.558000
  C    -34.184800   48.173300   96.200400
  H    -34.157600   49.189600   95.908300
  H    -35.250400   48.008300   96.437800
  C    -33.930700   47.322300   94.982900
  H    -34.894500   47.304000   94.538700
  H    -33.739500   46.323500   95.375300
  C    -32.876800   47.971100   94.052400
  H    -31.893400   47.887500   94.460700
  H    -33.061400   49.045700   93.941200
  H    -32.818200   47.506400   93.068300
  H    -35.059100   42.195700   98.797900
  H    -31.597700   49.342200   99.916000

 Total Charge           Charge          ....    0
 Multiplicity           Mult            ....    1
 Number of Electrons    NEL             ....  134
 Basis Dimension        Dim             ....  322

ORBITAL ENERGIES
----------------

  NO   OCC          E(Eh)            E(eV)
   0   2.0000     -88.966901     -2420.9124
   1   2.0000     -88.965239     -2420.8672
   2   2.0000     -10.327806      -281.0339
   3   2.0000     -10.326123      -280.9881
   4   2.0000     -10.319204      -280.7998
   5   2.0000     -10.311318      -280.5852
   6   2.0000     -10.301678      -280.3229
   7   2.0000     -10.299085      -280.2524
   8   2.0000     -10.295395      -280.1520
   9   2.0000     -10.294873      -280.1377
  10   2.0000     -10.288429      -279.9624
  11   2.0000     -10.286830      -279.9189
  12   2.0000     -10.286791      -279.9178
  13   2.0000     -10.283246      -279.8214
  14   2.0000     -10.277229      -279.6576
  15   2.0000     -10.275042      -279.5981
  16   2.0000      -8.081366      -219.9052
  17   2.0000      -8.081131      -219.8988
  18   2.0000      -6.039954      -164.3555
  19   2.0000      -6.039560      -164.3448
  20   2.0000      -6.035992      -164.2477
  21   2.0000      -6.035519      -164.2348
  22   2.0000      -6.031966      -164.1381
  23   2.0000      -6.031875      -164.1357
  24   2.0000      -1.012874       -27.5617
  25   2.0000      -0.984885       -26.8001
  26   2.0000      -0.917920       -24.9779
  27   2.0000      -0.915932       -24.9238
  28   2.0000      -0.871016       -23.7016
  29   2.0000      -0.852272       -23.1915
  30   2.0000      -0.844585       -22.9823
  31   2.0000      -0.814507       -22.1639
  32   2.0000      -0.786290       -21.3960
  33   2.0000      -0.773576       -21.0501
  34   2.0000      -0.714104       -19.4318
  35   2.0000      -0.697063       -18.9681
  36   2.0000      -0.686303       -18.6752
  37   2.0000      -0.664713       -18.0878
  38   2.0000      -0.638986       -17.3877
  39   2.0000      -0.629908       -17.1407
  40   2.0000      -0.603373       -16.4186
  41   2.0000      -0.576478       -15.6868
  42   2.0000      -0.559907       -15.2359
  43   2.0000      -0.551438       -15.0054
  44   2.0000      -0.544682       -14.8215
  45   2.0000      -0.524481       -14.2718
  46   2.0000      -0.518244       -14.1021
  47   2.0000      -0.506459       -13.7814
  48   2.0000      -0.504564       -13.7299
  49   2.0000      -0.498430       -13.5630
  50   2.0000      -0.490443       -13.3456
  51   2.0000      -0.481164       -13.0931
  52   2.0000      -0.476046       -12.9539
  53   2.0000      -0.466934       -12.7059
  54   2.0000      -0.459758       -12.5107
  55   2.0000      -0.457368       -12.4456
  56   2.0000      -0.444795       -12.1035
  57   2.0000      -0.436186       -11.8692
  58   2.0000      -0.431077       -11.7302
  59   2.0000      -0.428790       -11.6680
  60   2.0000      -0.424465       -11.5503
  61   2.0000      -0.417127       -11.3506
  62   2.0000      -0.413016       -11.2387
  63   2.0000      -0.354987        -9.6597
  64   2.0000      -0.332288        -9.0420
  65   2.0000      -0.328784        -8.9467
  66   2.0000      -0.284866        -7.7516
  67   0.0000       0.024101         0.6558
  68   0.0000       0.077115         2.0984
  69   0.0000       0.104560         2.8452
  70   0.0000       0.113754         3.0954
  71   0.0000       0.136139         3.7045

MULLIKEN ATOMIC CHARGES
-----------------------
   0 S :    0.104407
   1 C :   -0.136679
   2 C :   -0.106282
   3 C :    0.048332
   4 C :   -0.115491
   5 H :   -0.051647
   6 C :    0.100061
   7 H :    0.022971
   8 H :    0.028936
   9 C :   -0.096958
  10 H :    0.038808
  11 H :    0.022497
  12 C :   -0.060790
  13 H :    0.045736
  14 H :    0.024507
  15 H :    0.042931
  16 S :    0.106752
  17 C :   -0.104329
  18 C :   -0.020478
  19 C :   -0.037310
  20 C :   -0.113250
  21 H :    0.026482
  22 C :    0.023466
  23 H :   -0.003824
  24 H :    0.037499
  25 C :   -0.050529
  26 H :    0.006976
  27 H :    0.043792
  28 C :   -0.028425
  29 H :    0.028044
  30 H :    0.022394
  31 H :    0.036721
  32 H :    0.045385
  33 H :    0.069294
Sum of atomic charges:    0.0000000

LOEWDIN ATOMIC CHARGES
----------------------
   0 S :    0.424712
   1 C :   -0.205157
   2 C :   -0.056255
   3 C :   -0.060551
   4 C :   -0.197916
   5 H :    0.009822
   6 C :   -0.024359
   7 H :    0.029868
   8 H :    0.034437
   9 C :   -0.046925
  10 H :    0.025892
  11 H :    0.021164
  12 C :   -0.075366
  13 H :    0.033590
  14 H :    0.024305
  15 H :    0.030586
  16 S :    0.393711
  17 C :   -0.186043
  18 C :   -0.071612
  19 C :   -0.052109
  20 C :   -0.192411
  21 H :    0.035549
  22 C :   -0.033172
  23 H :    0.020530
  24 H :    0.033990
  25 C :   -0.036591
  26 H :    0.016958
  27 H :    0.027288
  28 C :   -0.061996
  29 H :    0.024433
  30 H :    0.024552
  31 H :    0.026758
  32 H :    0.028397
  33 H :    0.033921

  Mayer bond orders larger than 0.100000
B(  0-S ,  1-C ) :   1.1335 B(  0-S ,  4-C ) :   1.1624 B(  1-C ,  2-C ) :   1.6112
B(  1-C , 32-H ) :   0.9649 B(  2-C ,  3-C ) :   1.2618 B(  2-C ,  6-C ) :   1.0314
B(  3-C ,  4-C ) :   1.5254 B(  3-C ,  5-H ) :   1.0073 B(  4-C , 20-C ) :   1.0621
B(  6-C ,  7-H ) :   0.9415 B(  6-C ,  8-H ) :   0.9328 B(  6-C ,  9-C ) :   1.0597
B(  9-C , 10-H ) :   0.9593 B(  9-C , 11-H ) :   0.9528 B(  9-C , 12-C ) :   1.0872
B( 12-C , 13-H ) :   0.9727 B( 12-C , 14-H ) :   0.9719 B( 12-C , 15-H ) :   0.9748
B( 16-S , 17-C ) :   1.1504 B( 16-S , 20-C ) :   1.1216 B( 17-C , 18-C ) :   1.6205
B( 17-C , 33-H ) :   0.9606 B( 18-C , 19-C ) :   1.2280 B( 18-C , 21-H ) :   0.9883
B( 19-C , 20-C ) :   1.6010 B( 19-C , 22-C ) :   1.0582 B( 22-C , 23-H ) :   0.9314
B( 22-C , 24-H ) :   0.9372 B( 22-C , 25-C ) :   1.0608 B( 25-C , 26-H ) :   0.9543
B( 25-C , 27-H ) :   0.9588 B( 25-C , 28-C ) :   1.0705 B( 28-C , 29-H ) :   0.9766
B( 28-C , 30-H ) :   0.9742 B( 28-C , 31-H ) :   0.9761

Dispersion correction           -0.014235174
FINAL SINGLE POINT ENERGY     -1339.884637774924

DIPOLE MOMENT
-------------
                                X             Y             Z
Electronic contribution:     20.74399      -1.08620      18.73756
Nuclear contribution   :    -21.30524       1.36269     -19.09281
                        -----------------------------------------
Total Dipole Moment    :     -0.56125       0.27649      -0.35525
                        -----------------------------------------
Magnitude (a.u.)       :      0.71948
Magnitude (Debye)      :      1.82878

Rotational constants in cm-1:     0.018721     0.008472     0.006892
Rotational constants in MHz :   561.255729   253.993666   206.629515

                             ****ORCA TERMINATED NORMALLY****
TOTAL RUN TIME: 0 days 0 hours 0 minutes 30 seconds 834 msec
