                         Program Version 4.2.1 -  RELEASE  -
|  1> ! wB97X-D3 SP def2-SVP
|  2> %pal
|  3> nprocs 16
|  4> end
|  5>
|  6> * xyz 0 1
|  7> S 	 10.4513 	 -13.2134 	 79.582
|  8> C 	 10.5684 	 -14.3952 	 80.84
|  9> C 	 10.7615 	 -15.6969 	 80.3398
| 10> C 	 10.4682 	 -15.7253 	 78.9363
| 11> C 	 10.3906 	 -14.4947 	 78.337
| 12> H 	 10.4621 	 -16.5895 	 78.2316
| 13> C 	 11.2469 	 -16.9151 	 81.1136
| 14> H 	 11.528 	 -17.7114 	 80.4379
| 15> H 	 10.4581 	 -17.2794 	 81.7603
| 16> C 	 12.3662 	 -16.5472 	 82.1264
| 17> H 	 13.0631 	 -15.9931 	 81.5813
| 18> H 	 12.0158 	 -15.7577 	 82.8347
| 19> C 	 12.9938 	 -17.8086 	 82.8513
| 20> H 	 13.3876 	 -18.5082 	 82.1709
| 21> H 	 13.8649 	 -17.4722 	 83.3951
| 22> H 	 12.3604 	 -18.2675 	 83.6002
| 23> S 	 11.6643 	 -14.0985 	 75.9391
| 24> C 	 10.7664 	 -13.8589 	 74.4924
| 25> C 	 9.38309 	 -13.7089 	 74.7657
| 26> C 	 9.00416 	 -13.9501 	 76.1434
| 27> C 	 10.1723 	 -14.258 	 76.8738
| 28> H 	 8.74326 	 -13.5033 	 73.9134
| 29> C 	 7.63641 	 -13.7483 	 76.6881
| 30> H 	 7.22264 	 -12.6767 	 76.5947
| 31> H 	 7.65741 	 -13.7434 	 77.7305
| 32> C 	 6.73902 	 -14.9052 	 76.2642
| 33> H 	 7.25659 	 -15.7373 	 76.6377
| 34> H 	 6.58243 	 -14.9265 	 75.1479
| 35> C 	 5.38617 	 -14.8692 	 76.9421
| 36> H 	 4.87778 	 -15.7925 	 76.7369
| 37> H 	 4.85777 	 -14.0576 	 76.5158
| 38> H 	 5.42217 	 -14.8269 	 78.0645
| 39> H 	 10.6355 	 -14.1326 	 81.8755
| 40> H 	 11.1826 	 -13.4985 	 73.5872
| 41> *
| 42>
| 43>                          ****END OF INPUT****

CARTESIAN COORDINATES (ANGSTROEM)
---------------------------------
  S     10.451300  -13.213400   79.582000
  C     10.568400  -14.395200   80.840000
  C     10.761500  -15.696900   80.339800
  C     10.468200  -15.725300   78.936300
  C     10.390600  -14.494700   78.337000
  H     10.462100  -16.589500   78.231600
  C     11.246900  -16.915100   81.113600
  H     11.528000  -17.711400   80.437900
  H     10.458100  -17.279400   81.760300
  C     12.366200  -16.547200   82.126400
  H     13.063100  -15.993100   81.581300
  H     12.015800  -15.757700   82.834700
  C     12.993800  -17.808600   82.851300
  H     13.387600  -18.508200   82.170900
  H     13.864900  -17.472200   83.395100
  H     12.360400  -18.267500   83.600200
  S     11.664300  -14.098500   75.939100
  C     10.766400  -13.858900   74.492400
  C      9.383090  -13.708900   74.765700
  C      9.004160  -13.950100   76.143400
  C     10.172300  -14.258000   76.873800
  H      8.743260  -13.503300   73.913400
  C      7.636410  -13.748300   76.688100
  H      7.222640  -12.676700   76.594700
  H      7.657410  -13.743400   77.730500
  C      6.739020  -14.905200   76.264200
  H      7.256590  -15.737300   76.637700
  H      6.582430  -14.926500   75.147900
  C      5.386170  -14.869200   76.942100
  H      4.877780  -15.792500   76.736900
  H      4.857770  -14.057600   76.515800
  H      5.422170  -14.826900   78.064500
  H     10.635500  -14.132600   81.875500
  H     11.182600  -13.498500   73.587200

 Total Charge           Charge          ....    0
 Multiplicity           Mult            ....    1
 Number of Electrons    NEL             ....  134
 Basis Dimension        Dim             ....  322

ORBITAL ENERGIES
----------------

  NO   OCC          E(Eh)            E(eV)
   0   2.0000     -88.966442     -2420.9000
   1   2.0000     -88.966014     -2420.8883
   2   2.0000     -10.329904      -281.0910
   3   2.0000     -10.327966      -281.0382
   4   2.0000     -10.314543      -280.6730
   5   2.0000     -10.313768      -280.6519
   6   2.0000     -10.309019      -280.5227
   7   2.0000     -10.304835      -280.4088
   8   2.0000     -10.297270      -280.2030
   9   2.0000     -10.295387      -280.1517
  10   2.0000     -10.291532      -280.0468
  11   2.0000     -10.288585      -279.9666
  12   2.0000     -10.287458      -279.9360
  13   2.0000     -10.281479      -279.7733
  14   2.0000     -10.278133      -279.6822
  15   2.0000     -10.271787      -279.5095
  16   2.0000      -8.081235      -219.9016
  17   2.0000      -8.080208      -219.8736
  18   2.0000      -6.039594      -164.3457
  19   2.0000      -6.038730      -164.3222
  20   2.0000      -6.035729      -164.2405
  21   2.0000      -6.034740      -164.2136
  22   2.0000      -6.032159      -164.1434
  23   2.0000      -6.031060      -164.1135
  24   2.0000      -0.999308       -27.1925
  25   2.0000      -0.979929       -26.6652
  26   2.0000      -0.916206       -24.9312
  27   2.0000      -0.905010       -24.6266
  28   2.0000      -0.860417       -23.4131
  29   2.0000      -0.851915       -23.1818
  30   2.0000      -0.845617       -23.0104
  31   2.0000      -0.809953       -22.0400
  32   2.0000      -0.783524       -21.3208
  33   2.0000      -0.769312       -20.9341
  34   2.0000      -0.712291       -19.3824
  35   2.0000      -0.696871       -18.9628
  36   2.0000      -0.688968       -18.7478
  37   2.0000      -0.654655       -17.8141
  38   2.0000      -0.643540       -17.5116
  39   2.0000      -0.613011       -16.6809
  40   2.0000      -0.597289       -16.2530
  41   2.0000      -0.572476       -15.5779
  42   2.0000      -0.566004       -15.4017
  43   2.0000      -0.558775       -15.2050
  44   2.0000      -0.524404       -14.2698
  45   2.0000      -0.516780       -14.0623
  46   2.0000      -0.515952       -14.0398
  47   2.0000      -0.509288       -13.8584
  48   2.0000      -0.506265       -13.7762
  49   2.0000      -0.502518       -13.6742
  50   2.0000      -0.491002       -13.3608
  51   2.0000      -0.475492       -12.9388
  52   2.0000      -0.468161       -12.7393
  53   2.0000      -0.463005       -12.5990
  54   2.0000      -0.457928       -12.4609
  55   2.0000      -0.448663       -12.2087
  56   2.0000      -0.440396       -11.9838
  57   2.0000      -0.432203       -11.7608
  58   2.0000      -0.431468       -11.7408
  59   2.0000      -0.428986       -11.6733
  60   2.0000      -0.425001       -11.5649
  61   2.0000      -0.421175       -11.4608
  62   2.0000      -0.415365       -11.3027
  63   2.0000      -0.335593        -9.1319
  64   2.0000      -0.328018        -8.9258
  65   2.0000      -0.313045        -8.5184
  66   2.0000      -0.308779        -8.4023
  67   0.0000       0.042727         1.1627
  68   0.0000       0.051241         1.3943
  69   0.0000       0.106622         2.9013
  70   0.0000       0.119484         3.2513
  71   0.0000       0.129656         3.5281

MULLIKEN ATOMIC CHARGES
-----------------------
   0 S :    0.117951
   1 C :   -0.126360
   2 C :   -0.091227
   3 C :    0.029731
   4 C :   -0.173583
   5 H :    0.029597
   6 C :    0.106136
   7 H :    0.023737
   8 H :    0.032917
   9 C :   -0.114570
  10 H :    0.018207
  11 H :    0.029475
  12 C :   -0.016515
  13 H :    0.025736
  14 H :    0.024736
  15 H :    0.037371
  16 S :    0.120419
  17 C :   -0.080324
  18 C :   -0.062857
  19 C :    0.007134
  20 C :   -0.213790
  21 H :    0.022997
  22 C :    0.083786
  23 H :    0.042957
  24 H :   -0.011860
  25 C :   -0.088950
  26 H :    0.020634
  27 H :    0.042985
  28 C :   -0.019918
  29 H :    0.027293
  30 H :    0.023749
  31 H :    0.035989
  32 H :    0.046003
  33 H :    0.050413
Sum of atomic charges:   -0.0000000

LOEWDIN ATOMIC CHARGES
----------------------
   0 S :    0.397342
   1 C :   -0.199932
   2 C :   -0.061292
   3 C :   -0.063259
   4 C :   -0.200683
   5 H :    0.040436
   6 C :   -0.029749
   7 H :    0.028804
   8 H :    0.032999
   9 C :   -0.036148
  10 H :    0.014096
  11 H :    0.026039
  12 C :   -0.060051
  13 H :    0.020637
  14 H :    0.028532
  15 H :    0.026263
  16 S :    0.421584
  17 C :   -0.199525
  18 C :   -0.066510
  19 C :   -0.044369
  20 C :   -0.199395
  21 H :    0.029339
  22 C :   -0.040494
  23 H :    0.042761
  24 H :    0.019917
  25 C :   -0.033335
  26 H :    0.020808
  27 H :    0.030081
  28 C :   -0.062391
  29 H :    0.023985
  30 H :    0.019299
  31 H :    0.030601
  32 H :    0.021300
  33 H :    0.022310

  Mayer bond orders larger than 0.100000
B(  0-S ,  1-C ) :   1.1565 B(  0-S ,  4-C ) :   1.1258 B(  1-C ,  2-C ) :   1.5896
B(  1-C , 32-H ) :   0.9708 B(  2-C ,  3-C ) :   1.2323 B(  2-C ,  6-C ) :   1.0241
B(  3-C ,  4-C ) :   1.6239 B(  3-C ,  5-H ) :   0.9789 B(  4-C , 20-C ) :   1.0004
B(  6-C ,  7-H ) :   0.9490 B(  6-C ,  8-H ) :   0.9309 B(  6-C ,  9-C ) :   1.0551
B(  9-C , 10-H ) :   0.9635 B(  9-C , 11-H ) :   0.9528 B(  9-C , 12-C ) :   1.0764
B( 12-C , 13-H ) :   0.9759 B( 12-C , 14-H ) :   0.9731 B( 12-C , 15-H ) :   0.9774
B( 16-S , 17-C ) :   1.1663 B( 16-S , 20-C ) :   1.1688 B( 17-C , 18-C ) :   1.6037
B( 17-C , 20-C ) :   0.1019 B( 17-C , 33-H ) :   0.9677 B( 18-C , 19-C ) :   1.2321
B( 18-C , 21-H ) :   0.9869 B( 19-C , 20-C ) :   1.5745 B( 19-C , 22-C ) :   1.0592
B( 22-C , 23-H ) :   0.9338 B( 22-C , 24-H ) :   0.9138 B( 22-C , 25-C ) :   1.0522
B( 25-C , 26-H ) :   0.9500 B( 25-C , 27-H ) :   0.9599 B( 25-C , 28-C ) :   1.0967
B( 28-C , 29-H ) :   0.9721 B( 28-C , 30-H ) :   0.9730 B( 28-C , 31-H ) :   0.9712

Dispersion correction           -0.013791620
FINAL SINGLE POINT ENERGY     -1339.864879266054

DIPOLE MOMENT
-------------
                                X             Y             Z
Electronic contribution:     10.07338      14.02526     -11.71400
Nuclear contribution   :    -10.24143     -14.27512      11.87780
                        -----------------------------------------
Total Dipole Moment    :     -0.16806      -0.24986       0.16379
                        -----------------------------------------
Magnitude (a.u.)       :      0.34278
Magnitude (Debye)      :      0.87129

Rotational constants in cm-1:     0.020215     0.007210     0.006175
Rotational constants in MHz :   606.039977   216.152592   185.122486

                             ****ORCA TERMINATED NORMALLY****
TOTAL RUN TIME: 0 days 0 hours 0 minutes 28 seconds 732 msec
