                         Program Version 4.2.1 -  RELEASE  -
|  1> ! wB97X-D3 SP def2-SVP
|  2> %pal
|  3> nprocs 16
|  4> end
|  5>
|  6> * xyz 0 1
|  7> S 	 -40.7901 	 52.3217 	 114.445
|  8> C 	 -42.3213 	 52.9618 	 114.938
|  9> C 	 -43.161 	 53.0871 	 113.824
| 10> C 	 -42.6313 	 52.4901 	 112.656
| 11> C 	 -41.3182 	 52.1054 	 112.788
| 12> H 	 -43.0236 	 52.3762 	 111.635
| 13> C 	 -44.4689 	 53.8298 	 113.699
| 14> H 	 -44.6026 	 54.3259 	 114.704
| 15> H 	 -45.2501 	 53.0585 	 113.655
| 16> C 	 -44.6165 	 54.8543 	 112.451
| 17> H 	 -44.0912 	 54.6032 	 111.511
| 18> H 	 -45.6574 	 55.0274 	 112.122
| 19> C 	 -44.0778 	 56.2136 	 112.894
| 20> H 	 -42.9613 	 56.1553 	 112.86
| 21> H 	 -44.46 	 57.0878 	 112.343
| 22> H 	 -44.2354 	 56.3163 	 113.966
| 23> S 	 -40.0335 	 49.752 	 111.918
| 24> C 	 -38.9816 	 49.7936 	 110.477
| 25> C 	 -39.0693 	 50.9978 	 109.82
| 26> C 	 -40.006 	 51.9088 	 110.456
| 27> C 	 -40.509 	 51.4596 	 111.685
| 28> H 	 -38.5022 	 51.2136 	 108.977
| 29> C 	 -40.2211 	 53.2863 	 109.92
| 30> H 	 -39.3654 	 53.5037 	 109.322
| 31> H 	 -40.2446 	 53.9794 	 110.737
| 32> C 	 -41.3481 	 53.5301 	 108.89
| 33> H 	 -42.2515 	 53.299 	 109.427
| 34> H 	 -41.1217 	 52.8854 	 108.017
| 35> C 	 -41.3759 	 54.9215 	 108.264
| 36> H 	 -40.5639 	 55.1129 	 107.6
| 37> H 	 -41.3567 	 55.7549 	 109.05
| 38> H 	 -42.2692 	 54.9133 	 107.699
| 39> H 	 -42.5103 	 53.4168 	 115.818
| 40> H 	 -38.3329 	 49.0404 	 110.008
| 41> *
| 42>
| 43>                          ****END OF INPUT****

CARTESIAN COORDINATES (ANGSTROEM)
---------------------------------
  S    -40.790100   52.321700  114.445000
  C    -42.321300   52.961800  114.938000
  C    -43.161000   53.087100  113.824000
  C    -42.631300   52.490100  112.656000
  C    -41.318200   52.105400  112.788000
  H    -43.023600   52.376200  111.635000
  C    -44.468900   53.829800  113.699000
  H    -44.602600   54.325900  114.704000
  H    -45.250100   53.058500  113.655000
  C    -44.616500   54.854300  112.451000
  H    -44.091200   54.603200  111.511000
  H    -45.657400   55.027400  112.122000
  C    -44.077800   56.213600  112.894000
  H    -42.961300   56.155300  112.860000
  H    -44.460000   57.087800  112.343000
  H    -44.235400   56.316300  113.966000
  S    -40.033500   49.752000  111.918000
  C    -38.981600   49.793600  110.477000
  C    -39.069300   50.997800  109.820000
  C    -40.006000   51.908800  110.456000
  C    -40.509000   51.459600  111.685000
  H    -38.502200   51.213600  108.977000
  C    -40.221100   53.286300  109.920000
  H    -39.365400   53.503700  109.322000
  H    -40.244600   53.979400  110.737000
  C    -41.348100   53.530100  108.890000
  H    -42.251500   53.299000  109.427000
  H    -41.121700   52.885400  108.017000
  C    -41.375900   54.921500  108.264000
  H    -40.563900   55.112900  107.600000
  H    -41.356700   55.754900  109.050000
  H    -42.269200   54.913300  107.699000
  H    -42.510300   53.416800  115.818000
  H    -38.332900   49.040400  110.008000

 Total Charge           Charge          ....    0
 Multiplicity           Mult            ....    1
 Number of Electrons    NEL             ....  134
 Basis Dimension        Dim             ....  322

ORBITAL ENERGIES
----------------

  NO   OCC          E(Eh)            E(eV)
   0   2.0000     -88.969451     -2420.9818
   1   2.0000     -88.965349     -2420.8702
   2   2.0000     -10.334434      -281.2142
   3   2.0000     -10.333412      -281.1864
   4   2.0000     -10.321120      -280.8520
   5   2.0000     -10.311660      -280.5945
   6   2.0000     -10.306673      -280.4588
   7   2.0000     -10.305362      -280.4232
   8   2.0000     -10.304744      -280.4063
   9   2.0000     -10.298910      -280.2476
  10   2.0000     -10.293034      -280.0877
  11   2.0000     -10.291308      -280.0407
  12   2.0000     -10.288227      -279.9569
  13   2.0000     -10.281179      -279.7651
  14   2.0000     -10.280113      -279.7361
  15   2.0000     -10.278497      -279.6921
  16   2.0000      -8.084122      -219.9801
  17   2.0000      -8.078765      -219.8344
  18   2.0000      -6.042611      -164.4278
  19   2.0000      -6.038570      -164.3178
  20   2.0000      -6.037550      -164.2901
  21   2.0000      -6.034956      -164.2195
  22   2.0000      -6.033392      -164.1769
  23   2.0000      -6.029358      -164.0672
  24   2.0000      -1.003924       -27.3181
  25   2.0000      -0.980434       -26.6790
  26   2.0000      -0.910414       -24.7736
  27   2.0000      -0.904613       -24.6158
  28   2.0000      -0.867805       -23.6142
  29   2.0000      -0.852194       -23.1894
  30   2.0000      -0.849275       -23.1099
  31   2.0000      -0.820405       -22.3243
  32   2.0000      -0.777943       -21.1689
  33   2.0000      -0.768254       -20.9052
  34   2.0000      -0.707910       -19.2632
  35   2.0000      -0.700724       -19.0677
  36   2.0000      -0.689609       -18.7652
  37   2.0000      -0.663000       -18.0412
  38   2.0000      -0.647659       -17.6237
  39   2.0000      -0.617555       -16.8045
  40   2.0000      -0.589008       -16.0277
  41   2.0000      -0.577600       -15.7173
  42   2.0000      -0.569910       -15.5081
  43   2.0000      -0.555664       -15.1204
  44   2.0000      -0.528696       -14.3866
  45   2.0000      -0.526523       -14.3274
  46   2.0000      -0.521821       -14.1995
  47   2.0000      -0.518701       -14.1146
  48   2.0000      -0.506024       -13.7696
  49   2.0000      -0.500855       -13.6289
  50   2.0000      -0.490405       -13.3446
  51   2.0000      -0.475710       -12.9447
  52   2.0000      -0.471284       -12.8243
  53   2.0000      -0.463741       -12.6190
  54   2.0000      -0.453599       -12.3431
  55   2.0000      -0.449199       -12.2233
  56   2.0000      -0.445778       -12.1302
  57   2.0000      -0.436917       -11.8891
  58   2.0000      -0.429137       -11.6774
  59   2.0000      -0.426015       -11.5925
  60   2.0000      -0.419704       -11.4207
  61   2.0000      -0.417632       -11.3643
  62   2.0000      -0.414609       -11.2821
  63   2.0000      -0.343461        -9.3460
  64   2.0000      -0.326930        -8.8962
  65   2.0000      -0.325399        -8.8546
  66   2.0000      -0.302317        -8.2265
  67   0.0000       0.033858         0.9213
  68   0.0000       0.061409         1.6710
  69   0.0000       0.113972         3.1013
  70   0.0000       0.117564         3.1991
  71   0.0000       0.120567         3.2808

MULLIKEN ATOMIC CHARGES
-----------------------
   0 S :    0.123855
   1 C :   -0.060771
   2 C :   -0.101555
   3 C :    0.032521
   4 C :   -0.166090
   5 H :    0.026002
   6 C :    0.043989
   7 H :    0.028184
   8 H :    0.047110
   9 C :   -0.081241
  10 H :    0.042883
  11 H :    0.034809
  12 C :   -0.064913
  13 H :    0.035527
  14 H :    0.046977
  15 H :    0.018202
  16 S :    0.099813
  17 C :   -0.082822
  18 C :   -0.014845
  19 C :   -0.028294
  20 C :   -0.173175
  21 H :   -0.002844
  22 C :    0.072666
  23 H :   -0.007425
  24 H :    0.026073
  25 C :   -0.078334
  26 H :    0.022425
  27 H :    0.030663
  28 C :   -0.034533
  29 H :    0.027039
  30 H :    0.037822
  31 H :    0.032797
  32 H :    0.006321
  33 H :    0.061160
Sum of atomic charges:   -0.0000000

LOEWDIN ATOMIC CHARGES
----------------------
   0 S :    0.420889
   1 C :   -0.189720
   2 C :   -0.064285
   3 C :   -0.063112
   4 C :   -0.198964
   5 H :    0.037085
   6 C :   -0.030473
   7 H :    0.033526
   8 H :    0.035998
   9 C :   -0.042779
  10 H :    0.027246
  11 H :    0.026628
  12 C :   -0.072723
  13 H :    0.030192
  14 H :    0.027248
  15 H :    0.020133
  16 S :    0.377510
  17 C :   -0.177520
  18 C :   -0.065181
  19 C :   -0.049866
  20 C :   -0.188543
  21 H :    0.021080
  22 C :   -0.036252
  23 H :    0.023586
  24 H :    0.026967
  25 C :   -0.034142
  26 H :    0.014872
  27 H :    0.030158
  28 C :   -0.061772
  29 H :    0.020272
  30 H :    0.031072
  31 H :    0.025314
  32 H :    0.006102
  33 H :    0.039455

  Mayer bond orders larger than 0.100000
B(  0-S ,  1-C ) :   1.1460 B(  0-S ,  4-C ) :   1.1605 B(  1-C ,  2-C ) :   1.5935
B(  1-C , 32-H ) :   0.9776 B(  2-C ,  3-C ) :   1.2315 B(  2-C ,  6-C ) :   1.0219
B(  3-C ,  4-C ) :   1.5880 B(  3-C ,  5-H ) :   0.9854 B(  4-C , 20-C ) :   1.0077
B(  6-C ,  7-H ) :   0.9505 B(  6-C ,  8-H ) :   0.9370 B(  6-C ,  9-C ) :   1.0422
B(  9-C , 10-H ) :   0.9624 B(  9-C , 11-H ) :   0.9619 B(  9-C , 12-C ) :   1.0616
B( 12-C , 13-H ) :   0.9782 B( 12-C , 14-H ) :   0.9758 B( 12-C , 15-H ) :   0.9780
B( 16-S , 17-C ) :   1.1363 B( 16-S , 20-C ) :   1.1211 B( 17-C , 18-C ) :   1.6441
B( 17-C , 33-H ) :   0.9592 B( 18-C , 19-C ) :   1.2247 B( 18-C , 21-H ) :   0.9933
B( 19-C , 20-C ) :   1.6165 B( 19-C , 22-C ) :   1.0586 B( 22-C , 23-H ) :   0.9285
B( 22-C , 24-H ) :   0.9325 B( 22-C , 25-C ) :   1.0636 B( 25-C , 26-H ) :   0.9556
B( 25-C , 27-H ) :   0.9530 B( 25-C , 28-C ) :   1.0855 B( 28-C , 29-H ) :   0.9739
B( 28-C , 30-H ) :   0.9732 B( 28-C , 31-H ) :   0.9734

Dispersion correction           -0.014720794
FINAL SINGLE POINT ENERGY     -1339.857233571548

DIPOLE MOMENT
-------------
                                X             Y             Z
Electronic contribution:     14.01552     -24.21630      14.81604
Nuclear contribution   :    -14.25708      24.75414     -15.33641
                        -----------------------------------------
Total Dipole Moment    :     -0.24156       0.53784      -0.52036
                        -----------------------------------------
Magnitude (a.u.)       :      0.78639
Magnitude (Debye)      :      1.99884

Rotational constants in cm-1:     0.016495     0.010271     0.006936
Rotational constants in MHz :   494.499870   307.910843   207.923222

                             ****ORCA TERMINATED NORMALLY****
TOTAL RUN TIME: 0 days 0 hours 0 minutes 31 seconds 695 msec
