                         Program Version 4.2.1 -  RELEASE  -
|  1> ! wB97X-D3 SP def2-SVP
|  2> %pal
|  3> nprocs 16
|  4> end
|  5>
|  6> * xyz 0 1
|  7> S 	 -32.1394 	 29.9553 	 42.2479
|  8> C 	 -32.4147 	 29.5038 	 43.9542
|  9> C 	 -33.6116 	 29.9439 	 44.4335
| 10> C 	 -34.1784 	 30.9239 	 43.5278
| 11> C 	 -33.5942 	 30.946 	 42.3122
| 12> H 	 -35.1701 	 31.3844 	 43.6632
| 13> C 	 -34.1291 	 29.6411 	 45.8387
| 14> H 	 -33.641 	 28.745 	 46.1021
| 15> H 	 -35.179 	 29.3313 	 45.8218
| 16> C 	 -33.9087 	 30.6758 	 46.9629
| 17> H 	 -34.4545 	 31.6318 	 46.8379
| 18> H 	 -34.3157 	 30.3218 	 47.8894
| 19> C 	 -32.3628 	 30.9238 	 47.3305
| 20> H 	 -31.8351 	 30.0908 	 47.891
| 21> H 	 -31.6284 	 31.1596 	 46.4793
| 22> H 	 -32.3219 	 31.7779 	 48.0193
| 23> S 	 -33.1455 	 32.9707 	 40.5433
| 24> C 	 -34.3452 	 33.6525 	 39.4779
| 25> C 	 -35.519 	 32.8449 	 39.592
| 26> C 	 -35.3334 	 31.6907 	 40.4691
| 27> C 	 -34.1134 	 31.7513 	 41.1949
| 28> H 	 -36.3529 	 32.925 	 38.9251
| 29> C 	 -36.3191 	 30.6182 	 40.6883
| 30> H 	 -37.2747 	 30.8009 	 40.206
| 31> H 	 -36.624 	 30.6631 	 41.6948
| 32> C 	 -35.9526 	 29.1725 	 40.5047
| 33> H 	 -35.2816 	 28.8793 	 41.3459
| 34> H 	 -35.367 	 29.1405 	 39.5713
| 35> C 	 -37.1659 	 28.2219 	 40.3326
| 36> H 	 -36.8998 	 27.1896 	 40.0347
| 37> H 	 -37.7864 	 28.4045 	 39.4587
| 38> H 	 -37.9432 	 28.2915 	 41.0967
| 39> H 	 -31.8129 	 28.8928 	 44.568
| 40> H 	 -34.1606 	 34.5061 	 38.7867
| 41> *
| 42>
| 43>                          ****END OF INPUT****

CARTESIAN COORDINATES (ANGSTROEM)
---------------------------------
  S    -32.139400   29.955300   42.247900
  C    -32.414700   29.503800   43.954200
  C    -33.611600   29.943900   44.433500
  C    -34.178400   30.923900   43.527800
  C    -33.594200   30.946000   42.312200
  H    -35.170100   31.384400   43.663200
  C    -34.129100   29.641100   45.838700
  H    -33.641000   28.745000   46.102100
  H    -35.179000   29.331300   45.821800
  C    -33.908700   30.675800   46.962900
  H    -34.454500   31.631800   46.837900
  H    -34.315700   30.321800   47.889400
  C    -32.362800   30.923800   47.330500
  H    -31.835100   30.090800   47.891000
  H    -31.628400   31.159600   46.479300
  H    -32.321900   31.777900   48.019300
  S    -33.145500   32.970700   40.543300
  C    -34.345200   33.652500   39.477900
  C    -35.519000   32.844900   39.592000
  C    -35.333400   31.690700   40.469100
  C    -34.113400   31.751300   41.194900
  H    -36.352900   32.925000   38.925100
  C    -36.319100   30.618200   40.688300
  H    -37.274700   30.800900   40.206000
  H    -36.624000   30.663100   41.694800
  C    -35.952600   29.172500   40.504700
  H    -35.281600   28.879300   41.345900
  H    -35.367000   29.140500   39.571300
  C    -37.165900   28.221900   40.332600
  H    -36.899800   27.189600   40.034700
  H    -37.786400   28.404500   39.458700
  H    -37.943200   28.291500   41.096700
  H    -31.812900   28.892800   44.568000
  H    -34.160600   34.506100   38.786700

 Total Charge           Charge          ....    0
 Multiplicity           Mult            ....    1
 Number of Electrons    NEL             ....  134
 Basis Dimension        Dim             ....  322

ORBITAL ENERGIES
----------------

  NO   OCC          E(Eh)            E(eV)
   0   2.0000     -88.969701     -2420.9887
   1   2.0000     -88.964764     -2420.8543
   2   2.0000     -10.330271      -281.1010
   3   2.0000     -10.326679      -281.0032
   4   2.0000     -10.323681      -280.9217
   5   2.0000     -10.314112      -280.6613
   6   2.0000     -10.306768      -280.4614
   7   2.0000     -10.302336      -280.3408
   8   2.0000     -10.301997      -280.3316
   9   2.0000     -10.297843      -280.2186
  10   2.0000     -10.294775      -280.1351
  11   2.0000     -10.293827      -280.1093
  12   2.0000     -10.291079      -280.0345
  13   2.0000     -10.285330      -279.8781
  14   2.0000     -10.279631      -279.7230
  15   2.0000     -10.277212      -279.6571
  16   2.0000      -8.083594      -219.9658
  17   2.0000      -8.080432      -219.8797
  18   2.0000      -6.042265      -164.4184
  19   2.0000      -6.038728      -164.3221
  20   2.0000      -6.038384      -164.3128
  21   2.0000      -6.034456      -164.2059
  22   2.0000      -6.034047      -164.1948
  23   2.0000      -6.031699      -164.1309
  24   2.0000      -1.007947       -27.4276
  25   2.0000      -0.984174       -26.7807
  26   2.0000      -0.912662       -24.8348
  27   2.0000      -0.905907       -24.6510
  28   2.0000      -0.865502       -23.5515
  29   2.0000      -0.846994       -23.0479
  30   2.0000      -0.840926       -22.8827
  31   2.0000      -0.815357       -22.1870
  32   2.0000      -0.782616       -21.2961
  33   2.0000      -0.773704       -21.0536
  34   2.0000      -0.710315       -19.3287
  35   2.0000      -0.701474       -19.0881
  36   2.0000      -0.690825       -18.7983
  37   2.0000      -0.664301       -18.0766
  38   2.0000      -0.639857       -17.4114
  39   2.0000      -0.618586       -16.8326
  40   2.0000      -0.598121       -16.2757
  41   2.0000      -0.565896       -15.3988
  42   2.0000      -0.558896       -15.2083
  43   2.0000      -0.543664       -14.7939
  44   2.0000      -0.537418       -14.6239
  45   2.0000      -0.523364       -14.2415
  46   2.0000      -0.520945       -14.1756
  47   2.0000      -0.513223       -13.9655
  48   2.0000      -0.504476       -13.7275
  49   2.0000      -0.495435       -13.4815
  50   2.0000      -0.485423       -13.2090
  51   2.0000      -0.477272       -12.9872
  52   2.0000      -0.467471       -12.7205
  53   2.0000      -0.461770       -12.5654
  54   2.0000      -0.460219       -12.5232
  55   2.0000      -0.446916       -12.1612
  56   2.0000      -0.444918       -12.1068
  57   2.0000      -0.438130       -11.9221
  58   2.0000      -0.429874       -11.6975
  59   2.0000      -0.427425       -11.6308
  60   2.0000      -0.416828       -11.3425
  61   2.0000      -0.416405       -11.3310
  62   2.0000      -0.407688       -11.0938
  63   2.0000      -0.340481        -9.2650
  64   2.0000      -0.333010        -9.0617
  65   2.0000      -0.324025        -8.8172
  66   2.0000      -0.300951        -8.1893
  67   0.0000       0.034319         0.9339
  68   0.0000       0.064950         1.7674
  69   0.0000       0.106915         2.9093
  70   0.0000       0.120734         3.2854
  71   0.0000       0.126473         3.4415

MULLIKEN ATOMIC CHARGES
-----------------------
   0 S :    0.119276
   1 C :   -0.091745
   2 C :   -0.110660
   3 C :    0.038629
   4 C :   -0.154901
   5 H :    0.030094
   6 C :    0.102121
   7 H :   -0.001117
   8 H :    0.030005
   9 C :   -0.041851
  10 H :    0.040013
  11 H :    0.024584
  12 C :   -0.128710
  13 H :    0.037949
  14 H :    0.056119
  15 H :    0.035969
  16 S :    0.121510
  17 C :   -0.122724
  18 C :   -0.017813
  19 C :   -0.053668
  20 C :   -0.167774
  21 H :    0.018923
  22 C :    0.094732
  23 H :   -0.004075
  24 H :    0.002955
  25 C :   -0.071974
  26 H :    0.053425
  27 H :    0.029528
  28 C :   -0.053906
  29 H :    0.036690
  30 H :    0.011030
  31 H :    0.027575
  32 H :    0.025428
  33 H :    0.084362
Sum of atomic charges:   -0.0000000

LOEWDIN ATOMIC CHARGES
----------------------
   0 S :    0.381954
   1 C :   -0.172223
   2 C :   -0.059502
   3 C :   -0.059150
   4 C :   -0.192161
   5 H :    0.036947
   6 C :   -0.030883
   7 H :    0.024659
   8 H :    0.034816
   9 C :   -0.035510
  10 H :    0.028653
  11 H :    0.025026
  12 C :   -0.086498
  13 H :    0.027917
  14 H :    0.032948
  15 H :    0.025826
  16 S :    0.450542
  17 C :   -0.203665
  18 C :   -0.070172
  19 C :   -0.052734
  20 C :   -0.226708
  21 H :    0.026719
  22 C :   -0.046482
  23 H :    0.027874
  24 H :    0.027446
  25 C :   -0.038339
  26 H :    0.030896
  27 H :    0.026368
  28 C :   -0.077746
  29 H :    0.033506
  30 H :    0.024917
  31 H :    0.023418
  32 H :    0.019102
  33 H :    0.042239

  Mayer bond orders larger than 0.100000
B(  0-S ,  1-C ) :   1.1129 B(  0-S ,  4-C ) :   1.1197 B(  1-C ,  2-C ) :   1.6658
B(  1-C , 32-H ) :   0.9645 B(  2-C ,  3-C ) :   1.1888 B(  2-C ,  6-C ) :   1.0357
B(  3-C ,  4-C ) :   1.6446 B(  3-C ,  5-H ) :   0.9800 B(  4-C , 20-C ) :   1.0205
B(  6-C ,  7-H ) :   0.9318 B(  6-C ,  8-H ) :   0.9346 B(  6-C ,  9-C ) :   1.0706
B(  9-C , 10-H ) :   0.9615 B(  9-C , 11-H ) :   0.9514 B(  9-C , 12-C ) :   1.0539
B( 12-C , 13-H ) :   0.9775 B( 12-C , 14-H ) :   0.9780 B( 12-C , 15-H ) :   0.9769
B( 16-S , 17-C ) :   1.1920 B( 16-S , 20-C ) :   1.1821 B( 17-C , 18-C ) :   1.5258
B( 17-C , 20-C ) :   0.1104 B( 17-C , 33-H ) :   0.9677 B( 18-C , 19-C ) :   1.3048
B( 18-C , 21-H ) :   0.9875 B( 19-C , 20-C ) :   1.5111 B( 19-C , 22-C ) :   1.0695
B( 22-C , 23-H ) :   0.9275 B( 22-C , 24-H ) :   0.9114 B( 22-C , 25-C ) :   1.0530
B( 25-C , 26-H ) :   0.9508 B( 25-C , 27-H ) :   0.9595 B( 25-C , 28-C ) :   1.0828
B( 28-C , 29-H ) :   0.9729 B( 28-C , 30-H ) :   0.9667 B( 28-C , 31-H ) :   0.9758

Dispersion correction           -0.014837536
FINAL SINGLE POINT ENERGY     -1339.863141215043

DIPOLE MOMENT
-------------
                                X             Y             Z
Electronic contribution:     13.74871      11.08309     -14.85755
Nuclear contribution   :    -14.28945     -11.27286      15.17266
                        -----------------------------------------
Total Dipole Moment    :     -0.54075      -0.18977       0.31511
                        -----------------------------------------
Magnitude (a.u.)       :      0.65400
Magnitude (Debye)      :      1.66233

Rotational constants in cm-1:     0.018556     0.008541     0.007120
Rotational constants in MHz :   556.295332   256.057396   213.439656

                             ****ORCA TERMINATED NORMALLY****
TOTAL RUN TIME: 0 days 0 hours 0 minutes 33 seconds 752 msec
