                         Program Version 4.2.1 -  RELEASE  -
|  1> ! wB97X-D3 SP def2-SVP
|  2> %pal
|  3> nprocs 16
|  4> end
|  5>
|  6> * xyz 0 1
|  7> S 	 -57.3294 	 54.0001 	 135.822
|  8> C 	 -55.6602 	 54.3244 	 136.294
|  9> C 	 -54.9197 	 53.171 	 136.297
| 10> C 	 -55.6757 	 51.9692 	 136.109
| 11> C 	 -57.0153 	 52.2561 	 135.858
| 12> H 	 -55.2229 	 50.9968 	 136.269
| 13> C 	 -53.346 	 53.1752 	 136.424
| 14> H 	 -52.9385 	 52.1402 	 136.346
| 15> H 	 -53.0894 	 53.4902 	 137.435
| 16> C 	 -52.6492 	 54.093 	 135.322
| 17> H 	 -52.8763 	 55.1135 	 135.523
| 18> H 	 -51.5551 	 53.8904 	 135.399
| 19> C 	 -53.007 	 53.6156 	 133.87
| 20> H 	 -52.7581 	 52.6071 	 133.678
| 21> H 	 -54.0552 	 53.7363 	 133.658
| 22> H 	 -52.4107 	 54.2128 	 133.14
| 23> S 	 -58.8959 	 51.3503 	 134.178
| 24> C 	 -60.0841 	 50.1172 	 134.676
| 25> C 	 -59.9232 	 49.768 	 136.002
| 26> C 	 -58.78 	 50.4232 	 136.574
| 27> C 	 -58.1191 	 51.2991 	 135.721
| 28> H 	 -60.6208 	 49.0632 	 136.437
| 29> C 	 -58.3131 	 49.9899 	 137.954
| 30> H 	 -59.1366 	 49.5167 	 138.48
| 31> H 	 -58.0729 	 50.8759 	 138.581
| 32> C 	 -57.0303 	 49.1102 	 137.967
| 33> H 	 -56.3272 	 49.2828 	 137.194
| 34> H 	 -57.4801 	 48.0904 	 137.708
| 35> C 	 -56.2762 	 49.0007 	 139.362
| 36> H 	 -56.9792 	 48.8416 	 140.138
| 37> H 	 -55.875 	 49.955 	 139.644
| 38> H 	 -55.491 	 48.2214 	 139.297
| 39> H 	 -55.2462 	 55.3328 	 136.428
| 40> H 	 -60.8918 	 49.743 	 134.052
| 41> *
| 42>
| 43>                          ****END OF INPUT****

CARTESIAN COORDINATES (ANGSTROEM)
---------------------------------
  S    -57.329400   54.000100  135.822000
  C    -55.660200   54.324400  136.294000
  C    -54.919700   53.171000  136.297000
  C    -55.675700   51.969200  136.109000
  C    -57.015300   52.256100  135.858000
  H    -55.222900   50.996800  136.269000
  C    -53.346000   53.175200  136.424000
  H    -52.938500   52.140200  136.346000
  H    -53.089400   53.490200  137.435000
  C    -52.649200   54.093000  135.322000
  H    -52.876300   55.113500  135.523000
  H    -51.555100   53.890400  135.399000
  C    -53.007000   53.615600  133.870000
  H    -52.758100   52.607100  133.678000
  H    -54.055200   53.736300  133.658000
  H    -52.410700   54.212800  133.140000
  S    -58.895900   51.350300  134.178000
  C    -60.084100   50.117200  134.676000
  C    -59.923200   49.768000  136.002000
  C    -58.780000   50.423200  136.574000
  C    -58.119100   51.299100  135.721000
  H    -60.620800   49.063200  136.437000
  C    -58.313100   49.989900  137.954000
  H    -59.136600   49.516700  138.480000
  H    -58.072900   50.875900  138.581000
  C    -57.030300   49.110200  137.967000
  H    -56.327200   49.282800  137.194000
  H    -57.480100   48.090400  137.708000
  C    -56.276200   49.000700  139.362000
  H    -56.979200   48.841600  140.138000
  H    -55.875000   49.955000  139.644000
  H    -55.491000   48.221400  139.297000
  H    -55.246200   55.332800  136.428000
  H    -60.891800   49.743000  134.052000

 Total Charge           Charge          ....    0
 Multiplicity           Mult            ....    1
 Number of Electrons    NEL             ....  134
 Basis Dimension        Dim             ....  322

ORBITAL ENERGIES
----------------

  NO   OCC          E(Eh)            E(eV)
   0   2.0000     -88.969218     -2420.9755
   1   2.0000     -88.963461     -2420.8188
   2   2.0000     -10.335192      -281.2349
   3   2.0000     -10.325084      -280.9598
   4   2.0000     -10.318528      -280.7814
   5   2.0000     -10.315776      -280.7065
   6   2.0000     -10.305460      -280.4258
   7   2.0000     -10.302522      -280.3459
   8   2.0000     -10.300958      -280.3033
   9   2.0000     -10.298906      -280.2475
  10   2.0000     -10.295672      -280.1595
  11   2.0000     -10.294443      -280.1260
  12   2.0000     -10.291861      -280.0558
  13   2.0000     -10.290512      -280.0191
  14   2.0000     -10.279127      -279.7093
  15   2.0000     -10.273804      -279.5644
  16   2.0000      -8.083205      -219.9552
  17   2.0000      -8.078268      -219.8208
  18   2.0000      -6.041777      -164.4051
  19   2.0000      -6.037865      -164.2987
  20   2.0000      -6.036733      -164.2679
  21   2.0000      -6.033873      -164.1900
  22   2.0000      -6.032735      -164.1591
  23   2.0000      -6.029085      -164.0597
  24   2.0000      -1.004053       -27.3217
  25   2.0000      -0.980606       -26.6836
  26   2.0000      -0.899986       -24.4899
  27   2.0000      -0.897445       -24.4207
  28   2.0000      -0.866358       -23.5748
  29   2.0000      -0.844732       -22.9863
  30   2.0000      -0.842084       -22.9143
  31   2.0000      -0.812909       -22.1204
  32   2.0000      -0.778914       -21.1953
  33   2.0000      -0.768634       -20.9156
  34   2.0000      -0.706553       -19.2263
  35   2.0000      -0.700265       -19.0552
  36   2.0000      -0.692482       -18.8434
  37   2.0000      -0.663973       -18.0676
  38   2.0000      -0.637791       -17.3552
  39   2.0000      -0.614362       -16.7176
  40   2.0000      -0.590901       -16.0792
  41   2.0000      -0.572219       -15.5709
  42   2.0000      -0.554148       -15.0791
  43   2.0000      -0.543418       -14.7871
  44   2.0000      -0.540512       -14.7081
  45   2.0000      -0.523318       -14.2402
  46   2.0000      -0.514803       -14.0085
  47   2.0000      -0.507764       -13.8170
  48   2.0000      -0.502380       -13.6705
  49   2.0000      -0.495440       -13.4816
  50   2.0000      -0.486540       -13.2394
  51   2.0000      -0.478473       -13.0199
  52   2.0000      -0.473921       -12.8961
  53   2.0000      -0.462293       -12.5796
  54   2.0000      -0.458343       -12.4721
  55   2.0000      -0.448214       -12.1965
  56   2.0000      -0.445688       -12.1278
  57   2.0000      -0.437173       -11.8961
  58   2.0000      -0.432182       -11.7603
  59   2.0000      -0.426276       -11.5996
  60   2.0000      -0.419187       -11.4067
  61   2.0000      -0.411886       -11.2080
  62   2.0000      -0.407170       -11.0797
  63   2.0000      -0.342085        -9.3086
  64   2.0000      -0.333000        -9.0614
  65   2.0000      -0.326189        -8.8761
  66   2.0000      -0.298147        -8.1130
  67   0.0000       0.035749         0.9728
  68   0.0000       0.056930         1.5491
  69   0.0000       0.110481         3.0064
  70   0.0000       0.120626         3.2824
  71   0.0000       0.130166         3.5420

MULLIKEN ATOMIC CHARGES
-----------------------
   0 S :    0.123085
   1 C :   -0.141849
   2 C :   -0.100520
   3 C :    0.053165
   4 C :   -0.143176
   5 H :    0.016770
   6 C :    0.048493
   7 H :    0.022471
   8 H :    0.038245
   9 C :   -0.086683
  10 H :    0.033563
  11 H :    0.039821
  12 C :   -0.046192
  13 H :    0.020319
  14 H :    0.044298
  15 H :    0.034820
  16 S :    0.097911
  17 C :   -0.099224
  18 C :   -0.038204
  19 C :   -0.018286
  20 C :   -0.177538
  21 H :    0.025426
  22 C :    0.067368
  23 H :    0.019135
  24 H :    0.027475
  25 C :   -0.087382
  26 H :    0.020587
  27 H :    0.026224
  28 C :   -0.028749
  29 H :    0.020344
  30 H :    0.025262
  31 H :    0.047392
  32 H :    0.057207
  33 H :    0.058422
Sum of atomic charges:    0.0000000

LOEWDIN ATOMIC CHARGES
----------------------
   0 S :    0.398028
   1 C :   -0.197585
   2 C :   -0.065600
   3 C :   -0.058033
   4 C :   -0.189124
   5 H :    0.033210
   6 C :   -0.031305
   7 H :    0.028154
   8 H :    0.028704
   9 C :   -0.034084
  10 H :    0.015928
  11 H :    0.029933
  12 C :   -0.062302
  13 H :    0.018560
  14 H :    0.024396
  15 H :    0.030029
  16 S :    0.404763
  17 C :   -0.175833
  18 C :   -0.071091
  19 C :   -0.054518
  20 C :   -0.208666
  21 H :    0.035749
  22 C :   -0.035362
  23 H :    0.027755
  24 H :    0.030719
  25 C :   -0.037931
  26 H :    0.012084
  27 H :    0.028727
  28 C :   -0.060873
  29 H :    0.019622
  30 H :    0.021458
  31 H :    0.032531
  32 H :    0.032267
  33 H :    0.029691

  Mayer bond orders larger than 0.100000
B(  0-S ,  1-C ) :   1.1273 B(  0-S ,  4-C ) :   1.1555 B(  1-C ,  2-C ) :   1.6255
B(  1-C , 32-H ) :   0.9682 B(  2-C ,  3-C ) :   1.2484 B(  2-C ,  6-C ) :   0.9993
B(  3-C ,  4-C ) :   1.5750 B(  3-C ,  5-H ) :   0.9911 B(  4-C , 20-C ) :   1.0125
B(  6-C ,  7-H ) :   0.9510 B(  6-C ,  8-H ) :   0.9461 B(  6-C ,  9-C ) :   1.0640
B(  9-C , 10-H ) :   0.9612 B(  9-C , 11-H ) :   0.9601 B(  9-C , 12-C ) :   1.0676
B( 12-C , 13-H ) :   0.9772 B( 12-C , 14-H ) :   0.9761 B( 12-C , 15-H ) :   0.9758
B( 16-S , 17-C ) :   1.1516 B( 16-S , 20-C ) :   1.1506 B( 17-C , 18-C ) :   1.6203
B( 17-C , 20-C ) :   0.1000 B( 17-C , 33-H ) :   0.9658 B( 18-C , 19-C ) :   1.2328
B( 18-C , 21-H ) :   0.9921 B( 19-C , 20-C ) :   1.5998 B( 19-C , 22-C ) :   1.0529
B( 22-C , 23-H ) :   0.9372 B( 22-C , 24-H ) :   0.9341 B( 22-C , 25-C ) :   1.0429
B( 25-C , 26-H ) :   0.9658 B( 25-C , 27-H ) :   0.9544 B( 25-C , 28-C ) :   1.0711
B( 28-C , 29-H ) :   0.9754 B( 28-C , 30-H ) :   0.9749 B( 28-C , 31-H ) :   0.9760

Dispersion correction           -0.014867324
FINAL SINGLE POINT ENERGY     -1339.880433416015

DIPOLE MOMENT
-------------
                                X             Y             Z
Electronic contribution:    -20.43451       7.56783     -10.38686
Nuclear contribution   :     20.78383      -7.83690      10.72023
                        -----------------------------------------
Total Dipole Moment    :      0.34931      -0.26907       0.33337
                        -----------------------------------------
Magnitude (a.u.)       :      0.55277
Magnitude (Debye)      :      1.40503

Rotational constants in cm-1:     0.018783     0.008932     0.007040
Rotational constants in MHz :   563.100818   267.780394   211.041624

                             ****ORCA TERMINATED NORMALLY****
TOTAL RUN TIME: 0 days 0 hours 0 minutes 35 seconds 85 msec
