                         Program Version 4.2.1 -  RELEASE  -
|  1> ! wB97X-D3 SP def2-SVP
|  2> %pal
|  3> nprocs 16
|  4> end
|  5>
|  6> * xyz 0 1
|  7> S 	 20.0264 	 -7.83155 	 79.5417
|  8> C 	 19.2443 	 -8.17992 	 78.0682
|  9> C 	 17.8998 	 -8.50908 	 78.2664
| 10> C 	 17.4806 	 -8.3632 	 79.6034
| 11> C 	 18.5295 	 -8.12966 	 80.4851
| 12> H 	 16.486 	 -8.49531 	 79.9466
| 13> C 	 16.8991 	 -8.97268 	 77.247
| 14> H 	 16.8445 	 -8.3274 	 76.3598
| 15> H 	 15.8789 	 -8.90768 	 77.5802
| 16> C 	 17.2324 	 -10.3604 	 76.8555
| 17> H 	 18.2575 	 -10.3333 	 76.5218
| 18> H 	 17.1751 	 -10.9992 	 77.732
| 19> C 	 16.2903 	 -10.8625 	 75.7049
| 20> H 	 16.5864 	 -11.9514 	 75.6417
| 21> H 	 15.2117 	 -10.7055 	 75.8663
| 22> H 	 16.4455 	 -10.3284 	 74.7392
| 23> S 	 18.3427 	 -6.34993 	 82.5217
| 24> C 	 18.2969 	 -6.97699 	 84.2147
| 25> C 	 18.6488 	 -8.31812 	 84.2715
| 26> C 	 18.6865 	 -8.92141 	 82.94
| 27> C 	 18.42 	 -7.96483 	 81.9083
| 28> H 	 18.8001 	 -8.85282 	 85.2126
| 29> C 	 18.9028 	 -10.4352 	 82.703
| 30> H 	 19.0447 	 -10.8118 	 83.6998
| 31> H 	 19.803 	 -10.5488 	 82.102
| 32> C 	 17.6759 	 -11.0309 	 82.0366
| 33> H 	 17.7354 	 -10.6318 	 81.0036
| 34> H 	 16.8201 	 -10.5096 	 82.3794
| 35> C 	 17.609 	 -12.5642 	 82.0046
| 36> H 	 18.5248 	 -12.9969 	 81.5832
| 37> H 	 16.7941 	 -12.913 	 81.4788
| 38> H 	 17.4911 	 -12.9648 	 83.0342
| 39> H 	 19.8109 	 -8.31554 	 77.1263
| 40> H 	 18.2186 	 -6.33182 	 85.078
| 41> *
| 42>
| 43>                          ****END OF INPUT****

CARTESIAN COORDINATES (ANGSTROEM)
---------------------------------
  S     20.026400   -7.831550   79.541700
  C     19.244300   -8.179920   78.068200
  C     17.899800   -8.509080   78.266400
  C     17.480600   -8.363200   79.603400
  C     18.529500   -8.129660   80.485100
  H     16.486000   -8.495310   79.946600
  C     16.899100   -8.972680   77.247000
  H     16.844500   -8.327400   76.359800
  H     15.878900   -8.907680   77.580200
  C     17.232400  -10.360400   76.855500
  H     18.257500  -10.333300   76.521800
  H     17.175100  -10.999200   77.732000
  C     16.290300  -10.862500   75.704900
  H     16.586400  -11.951400   75.641700
  H     15.211700  -10.705500   75.866300
  H     16.445500  -10.328400   74.739200
  S     18.342700   -6.349930   82.521700
  C     18.296900   -6.976990   84.214700
  C     18.648800   -8.318120   84.271500
  C     18.686500   -8.921410   82.940000
  C     18.420000   -7.964830   81.908300
  H     18.800100   -8.852820   85.212600
  C     18.902800  -10.435200   82.703000
  H     19.044700  -10.811800   83.699800
  H     19.803000  -10.548800   82.102000
  C     17.675900  -11.030900   82.036600
  H     17.735400  -10.631800   81.003600
  H     16.820100  -10.509600   82.379400
  C     17.609000  -12.564200   82.004600
  H     18.524800  -12.996900   81.583200
  H     16.794100  -12.913000   81.478800
  H     17.491100  -12.964800   83.034200
  H     19.810900   -8.315540   77.126300
  H     18.218600   -6.331820   85.078000

 Total Charge           Charge          ....    0
 Multiplicity           Mult            ....    1
 Number of Electrons    NEL             ....  134
 Basis Dimension        Dim             ....  322

ORBITAL ENERGIES
----------------

  NO   OCC          E(Eh)            E(eV)
   0   2.0000     -88.968029     -2420.9432
   1   2.0000     -88.965977     -2420.8873
   2   2.0000     -10.327680      -281.0305
   3   2.0000     -10.323181      -280.9080
   4   2.0000     -10.322311      -280.8844
   5   2.0000     -10.315795      -280.7071
   6   2.0000     -10.310293      -280.5573
   7   2.0000     -10.301745      -280.3247
   8   2.0000     -10.297723      -280.2153
   9   2.0000     -10.290745      -280.0254
  10   2.0000     -10.288107      -279.9536
  11   2.0000     -10.287120      -279.9268
  12   2.0000     -10.282774      -279.8085
  13   2.0000     -10.282329      -279.7964
  14   2.0000     -10.276931      -279.6495
  15   2.0000     -10.273626      -279.5596
  16   2.0000      -8.082597      -219.9386
  17   2.0000      -8.080134      -219.8716
  18   2.0000      -6.040999      -164.3839
  19   2.0000      -6.038710      -164.3216
  20   2.0000      -6.037010      -164.2754
  21   2.0000      -6.034800      -164.2152
  22   2.0000      -6.033609      -164.1828
  23   2.0000      -6.030777      -164.1058
  24   2.0000      -1.003482       -27.3061
  25   2.0000      -0.978634       -26.6300
  26   2.0000      -0.918264       -24.9872
  27   2.0000      -0.906433       -24.6653
  28   2.0000      -0.870114       -23.6770
  29   2.0000      -0.849728       -23.1223
  30   2.0000      -0.842045       -22.9132
  31   2.0000      -0.811551       -22.0834
  32   2.0000      -0.779576       -21.2133
  33   2.0000      -0.763941       -20.7879
  34   2.0000      -0.708986       -19.2925
  35   2.0000      -0.700851       -19.0711
  36   2.0000      -0.689520       -18.7628
  37   2.0000      -0.658965       -17.9313
  38   2.0000      -0.648513       -17.6469
  39   2.0000      -0.619199       -16.8493
  40   2.0000      -0.590115       -16.0578
  41   2.0000      -0.572792       -15.5864
  42   2.0000      -0.562536       -15.3074
  43   2.0000      -0.555908       -15.1270
  44   2.0000      -0.530073       -14.4240
  45   2.0000      -0.524913       -14.2836
  46   2.0000      -0.513757       -13.9800
  47   2.0000      -0.510358       -13.8875
  48   2.0000      -0.504514       -13.7285
  49   2.0000      -0.497164       -13.5285
  50   2.0000      -0.494058       -13.4440
  51   2.0000      -0.478215       -13.0129
  52   2.0000      -0.468264       -12.7421
  53   2.0000      -0.462193       -12.5769
  54   2.0000      -0.460842       -12.5402
  55   2.0000      -0.450343       -12.2544
  56   2.0000      -0.447399       -12.1743
  57   2.0000      -0.441070       -12.0021
  58   2.0000      -0.435678       -11.8554
  59   2.0000      -0.421626       -11.4730
  60   2.0000      -0.419797       -11.4233
  61   2.0000      -0.411387       -11.1944
  62   2.0000      -0.409320       -11.1382
  63   2.0000      -0.340045        -9.2531
  64   2.0000      -0.331316        -9.0156
  65   2.0000      -0.312555        -8.5050
  66   2.0000      -0.303241        -8.2516
  67   0.0000       0.039076         1.0633
  68   0.0000       0.044474         1.2102
  69   0.0000       0.106088         2.8868
  70   0.0000       0.123217         3.3529
  71   0.0000       0.131197         3.5701

MULLIKEN ATOMIC CHARGES
-----------------------
   0 S :    0.127216
   1 C :   -0.138059
   2 C :   -0.087915
   3 C :    0.062679
   4 C :   -0.184420
   5 H :    0.005772
   6 C :    0.078453
   7 H :    0.020297
   8 H :    0.005100
   9 C :   -0.076305
  10 H :    0.022448
  11 H :    0.031439
  12 C :   -0.066625
  13 H :    0.049972
  14 H :    0.035460
  15 H :    0.036244
  16 S :    0.112630
  17 C :   -0.094926
  18 C :   -0.029114
  19 C :   -0.089821
  20 C :   -0.181136
  21 H :    0.031835
  22 C :    0.137286
  23 H :    0.002541
  24 H :    0.036627
  25 C :   -0.110158
  26 H :    0.038441
  27 H :    0.019911
  28 C :    0.006033
  29 H :    0.030156
  30 H :    0.017010
  31 H :    0.026860
  32 H :    0.066424
  33 H :    0.057644
Sum of atomic charges:    0.0000000

LOEWDIN ATOMIC CHARGES
----------------------
   0 S :    0.415493
   1 C :   -0.217843
   2 C :   -0.064337
   3 C :   -0.045768
   4 C :   -0.196338
   5 H :    0.028416
   6 C :   -0.037270
   7 H :    0.029163
   8 H :    0.023597
   9 C :   -0.036494
  10 H :    0.022231
  11 H :    0.024545
  12 C :   -0.075150
  13 H :    0.035452
  14 H :    0.024840
  15 H :    0.027735
  16 S :    0.401340
  17 C :   -0.168389
  18 C :   -0.071037
  19 C :   -0.040079
  20 C :   -0.224191
  21 H :    0.036047
  22 C :   -0.022970
  23 H :    0.021476
  24 H :    0.033113
  25 C :   -0.047079
  26 H :    0.029978
  27 H :    0.017980
  28 C :   -0.057640
  29 H :    0.028861
  30 H :    0.015414
  31 H :    0.027092
  32 H :    0.035261
  33 H :    0.026549

  Mayer bond orders larger than 0.100000
B(  0-S ,  1-C ) :   1.1652 B(  0-S ,  4-C ) :   1.1514 B(  1-C ,  2-C ) :   1.5678
B(  1-C ,  4-C ) :   0.1063 B(  1-C , 32-H ) :   0.9614 B(  2-C ,  3-C ) :   1.2833
B(  2-C ,  6-C ) :   1.0236 B(  3-C ,  4-C ) :   1.5392 B(  3-C ,  5-H ) :   0.9976
B(  4-C , 20-C ) :   1.0564 B(  6-C ,  7-H ) :   0.9363 B(  6-C ,  8-H ) :   0.9402
B(  6-C ,  9-C ) :   1.0674 B(  9-C , 10-H ) :   0.9578 B(  9-C , 11-H ) :   0.9528
B(  9-C , 12-C ) :   1.0685 B( 12-C , 13-H ) :   0.9757 B( 12-C , 14-H ) :   0.9752
B( 12-C , 15-H ) :   0.9746 B( 16-S , 17-C ) :   1.1479 B( 16-S , 20-C ) :   1.1548
B( 17-C , 18-C ) :   1.6106 B( 17-C , 20-C ) :   0.1026 B( 17-C , 33-H ) :   0.9679
B( 18-C , 19-C ) :   1.2532 B( 18-C , 21-H ) :   0.9829 B( 19-C , 20-C ) :   1.5602
B( 19-C , 22-C ) :   1.0365 B( 22-C , 23-H ) :   0.9342 B( 22-C , 24-H ) :   0.9223
B( 22-C , 25-C ) :   1.0678 B( 25-C , 26-H ) :   0.9430 B( 25-C , 27-H ) :   0.9583
B( 25-C , 28-C ) :   1.0848 B( 28-C , 29-H ) :   0.9715 B( 28-C , 30-H ) :   0.9729
B( 28-C , 31-H ) :   0.9747

Dispersion correction           -0.014887651
FINAL SINGLE POINT ENERGY     -1339.874213264442

DIPOLE MOMENT
-------------
                                X             Y             Z
Electronic contribution:     11.83877      24.92105      12.05876
Nuclear contribution   :    -12.05020     -25.39553     -12.13514
                        -----------------------------------------
Total Dipole Moment    :     -0.21143      -0.47448      -0.07638
                        -----------------------------------------
Magnitude (a.u.)       :      0.52504
Magnitude (Debye)      :      1.33454

Rotational constants in cm-1:     0.019639     0.008769     0.006948
Rotational constants in MHz :   588.760189   262.884082   208.281635

                             ****ORCA TERMINATED NORMALLY****
TOTAL RUN TIME: 0 days 0 hours 0 minutes 29 seconds 843 msec
