                         Program Version 4.2.1 -  RELEASE  -
|  1> ! wB97X-D3 SP def2-SVP
|  2> %pal
|  3> nprocs 16
|  4> end
|  5>
|  6> * xyz 0 1
|  7> S 	 30.8411 	 31.9276 	 54.0525
|  8> C 	 31.3579 	 30.4476 	 53.2847
|  9> C 	 31.2925 	 29.3918 	 54.1348
| 10> C 	 30.5788 	 29.7185 	 55.3288
| 11> C 	 30.4368 	 31.0607 	 55.4723
| 12> H 	 30.4542 	 29.1435 	 56.236
| 13> C 	 31.6019 	 28.0141 	 53.7744
| 14> H 	 31.378 	 27.8572 	 52.6664
| 15> H 	 30.9396 	 27.3541 	 54.3705
| 16> C 	 33.1059 	 27.6392 	 54.0386
| 17> H 	 33.6887 	 28.278 	 53.4995
| 18> H 	 33.2951 	 27.7207 	 55.0788
| 19> C 	 33.4111 	 26.2024 	 53.7352
| 20> H 	 33.0383 	 25.8501 	 52.7697
| 21> H 	 34.4707 	 26.0117 	 53.7265
| 22> H 	 32.8965 	 25.6179 	 54.4736
| 23> S 	 28.6701 	 31.9242 	 57.3014
| 24> C 	 29.3243 	 32.8097 	 58.6239
| 25> C 	 30.6901 	 33.0684 	 58.5776
| 26> C 	 31.2072 	 32.4594 	 57.3986
| 27> C 	 30.2592 	 31.7569 	 56.7067
| 28> H 	 31.1646 	 33.7046 	 59.3274
| 29> C 	 32.7013 	 32.5433 	 57.0495
| 30> H 	 32.8525 	 33.5682 	 56.8604
| 31> H 	 32.756 	 32.0192 	 56.1036
| 32> C 	 33.5908 	 31.9457 	 58.1482
| 33> H 	 33.1862 	 30.9831 	 58.4388
| 34> H 	 33.4224 	 32.4835 	 59.0593
| 35> C 	 35.1045 	 31.7209 	 57.8424
| 36> H 	 35.7028 	 31.1232 	 58.4401
| 37> H 	 35.558 	 32.6612 	 57.8518
| 38> H 	 35.3236 	 31.3275 	 56.831
| 39> H 	 31.7646 	 30.3875 	 52.2738
| 40> H 	 28.7166 	 33.2315 	 59.4138
| 41> *
| 42>
| 43>                          ****END OF INPUT****

CARTESIAN COORDINATES (ANGSTROEM)
---------------------------------
  S     30.841100   31.927600   54.052500
  C     31.357900   30.447600   53.284700
  C     31.292500   29.391800   54.134800
  C     30.578800   29.718500   55.328800
  C     30.436800   31.060700   55.472300
  H     30.454200   29.143500   56.236000
  C     31.601900   28.014100   53.774400
  H     31.378000   27.857200   52.666400
  H     30.939600   27.354100   54.370500
  C     33.105900   27.639200   54.038600
  H     33.688700   28.278000   53.499500
  H     33.295100   27.720700   55.078800
  C     33.411100   26.202400   53.735200
  H     33.038300   25.850100   52.769700
  H     34.470700   26.011700   53.726500
  H     32.896500   25.617900   54.473600
  S     28.670100   31.924200   57.301400
  C     29.324300   32.809700   58.623900
  C     30.690100   33.068400   58.577600
  C     31.207200   32.459400   57.398600
  C     30.259200   31.756900   56.706700
  H     31.164600   33.704600   59.327400
  C     32.701300   32.543300   57.049500
  H     32.852500   33.568200   56.860400
  H     32.756000   32.019200   56.103600
  C     33.590800   31.945700   58.148200
  H     33.186200   30.983100   58.438800
  H     33.422400   32.483500   59.059300
  C     35.104500   31.720900   57.842400
  H     35.702800   31.123200   58.440100
  H     35.558000   32.661200   57.851800
  H     35.323600   31.327500   56.831000
  H     31.764600   30.387500   52.273800
  H     28.716600   33.231500   59.413800

 Total Charge           Charge          ....    0
 Multiplicity           Mult            ....    1
 Number of Electrons    NEL             ....  134
 Basis Dimension        Dim             ....  322

ORBITAL ENERGIES
----------------

  NO   OCC          E(Eh)            E(eV)
   0   2.0000     -88.967124     -2420.9185
   1   2.0000     -88.963412     -2420.8175
   2   2.0000     -10.315284      -280.6931
   3   2.0000     -10.311642      -280.5941
   4   2.0000     -10.311376      -280.5868
   5   2.0000     -10.308475      -280.5079
   6   2.0000     -10.297220      -280.2016
   7   2.0000     -10.293166      -280.0913
   8   2.0000     -10.292847      -280.0826
   9   2.0000     -10.292712      -280.0789
  10   2.0000     -10.286635      -279.9136
  11   2.0000     -10.284550      -279.8568
  12   2.0000     -10.283780      -279.8359
  13   2.0000     -10.274553      -279.5848
  14   2.0000     -10.271104      -279.4909
  15   2.0000     -10.268747      -279.4268
  16   2.0000      -8.083160      -219.9540
  17   2.0000      -8.078826      -219.8360
  18   2.0000      -6.041340      -164.3932
  19   2.0000      -6.037667      -164.2933
  20   2.0000      -6.037206      -164.2807
  21   2.0000      -6.034022      -164.1941
  22   2.0000      -6.033223      -164.1723
  23   2.0000      -6.029693      -164.0763
  24   2.0000      -1.018496       -27.7147
  25   2.0000      -0.992347       -27.0031
  26   2.0000      -0.917199       -24.9582
  27   2.0000      -0.905611       -24.6429
  28   2.0000      -0.874803       -23.8046
  29   2.0000      -0.855378       -23.2760
  30   2.0000      -0.850210       -23.1354
  31   2.0000      -0.816627       -22.2216
  32   2.0000      -0.786647       -21.4058
  33   2.0000      -0.768937       -20.9238
  34   2.0000      -0.711763       -19.3681
  35   2.0000      -0.704779       -19.1780
  36   2.0000      -0.695564       -18.9273
  37   2.0000      -0.662909       -18.0387
  38   2.0000      -0.644855       -17.5474
  39   2.0000      -0.614478       -16.7208
  40   2.0000      -0.591634       -16.0992
  41   2.0000      -0.578849       -15.7513
  42   2.0000      -0.564434       -15.3590
  43   2.0000      -0.554972       -15.1015
  44   2.0000      -0.528126       -14.3710
  45   2.0000      -0.523327       -14.2405
  46   2.0000      -0.520951       -14.1758
  47   2.0000      -0.513642       -13.9769
  48   2.0000      -0.509086       -13.8529
  49   2.0000      -0.497713       -13.5435
  50   2.0000      -0.493487       -13.4285
  51   2.0000      -0.478718       -13.0266
  52   2.0000      -0.471652       -12.8343
  53   2.0000      -0.462616       -12.5884
  54   2.0000      -0.461572       -12.5600
  55   2.0000      -0.451097       -12.2750
  56   2.0000      -0.447907       -12.1882
  57   2.0000      -0.440940       -11.9986
  58   2.0000      -0.432029       -11.7561
  59   2.0000      -0.429011       -11.6740
  60   2.0000      -0.423843       -11.5333
  61   2.0000      -0.419563       -11.4169
  62   2.0000      -0.410379       -11.1670
  63   2.0000      -0.338186        -9.2025
  64   2.0000      -0.336192        -9.1482
  65   2.0000      -0.320890        -8.7319
  66   2.0000      -0.301796        -8.2123
  67   0.0000       0.047514         1.2929
  68   0.0000       0.064738         1.7616
  69   0.0000       0.114166         3.1066
  70   0.0000       0.121101         3.2953
  71   0.0000       0.126922         3.4537

MULLIKEN ATOMIC CHARGES
-----------------------
   0 S :    0.119946
   1 C :   -0.123311
   2 C :   -0.070325
   3 C :    0.065209
   4 C :   -0.192003
   5 H :    0.013903
   6 C :    0.002103
   7 H :    0.037902
   8 H :    0.025584
   9 C :   -0.024538
  10 H :    0.003578
  11 H :    0.018295
  12 C :   -0.015321
  13 H :    0.016238
  14 H :    0.032606
  15 H :    0.020404
  16 S :    0.141589
  17 C :   -0.093098
  18 C :   -0.049896
  19 C :   -0.068347
  20 C :   -0.195879
  21 H :    0.028628
  22 C :    0.159061
  23 H :    0.021345
  24 H :    0.019772
  25 C :   -0.076006
  26 H :    0.020949
  27 H :    0.017526
  28 C :    0.000108
  29 H :    0.016120
  30 H :    0.010812
  31 H :    0.023789
  32 H :    0.047339
  33 H :    0.045921
Sum of atomic charges:    0.0000000

LOEWDIN ATOMIC CHARGES
----------------------
   0 S :    0.425024
   1 C :   -0.198840
   2 C :   -0.069868
   3 C :   -0.060760
   4 C :   -0.208026
   5 H :    0.033127
   6 C :   -0.033054
   7 H :    0.036838
   8 H :    0.031288
   9 C :   -0.025109
  10 H :    0.008066
  11 H :    0.022747
  12 C :   -0.059835
  13 H :    0.020789
  14 H :    0.025447
  15 H :    0.022827
  16 S :    0.442651
  17 C :   -0.191381
  18 C :   -0.072431
  19 C :   -0.049751
  20 C :   -0.229536
  21 H :    0.036873
  22 C :   -0.020742
  23 H :    0.025811
  24 H :    0.024347
  25 C :   -0.036786
  26 H :    0.024617
  27 H :    0.019643
  28 C :   -0.061991
  29 H :    0.017638
  30 H :    0.018123
  31 H :    0.030735
  32 H :    0.029236
  33 H :    0.022285

  Mayer bond orders larger than 0.100000
B(  0-S ,  1-C ) :   1.1254 B(  0-S ,  4-C ) :   1.1614 B(  1-C ,  2-C ) :   1.6295
B(  1-C , 32-H ) :   0.9665 B(  2-C ,  3-C ) :   1.2327 B(  2-C ,  6-C ) :   1.0335
B(  3-C ,  4-C ) :   1.6095 B(  3-C ,  5-H ) :   0.9783 B(  4-C , 20-C ) :   0.9929
B(  6-C ,  7-H ) :   0.9458 B(  6-C ,  8-H ) :   0.9426 B(  6-C ,  9-C ) :   1.0562
B(  9-C , 10-H ) :   0.9578 B(  9-C , 11-H ) :   0.9549 B(  9-C , 12-C ) :   1.0906
B( 12-C , 13-H ) :   0.9720 B( 12-C , 14-H ) :   0.9732 B( 12-C , 15-H ) :   0.9742
B( 16-S , 17-C ) :   1.1720 B( 16-S , 20-C ) :   1.1557 B( 17-C , 18-C ) :   1.6142
B( 17-C , 33-H ) :   0.9646 B( 18-C , 19-C ) :   1.2266 B( 18-C , 21-H ) :   0.9926
B( 19-C , 20-C ) :   1.6270 B( 19-C , 22-C ) :   1.0277 B( 22-C , 23-H ) :   0.9260
B( 22-C , 24-H ) :   0.9229 B( 22-C , 25-C ) :   1.0583 B( 25-C , 26-H ) :   0.9577
B( 25-C , 27-H ) :   0.9561 B( 25-C , 28-C ) :   1.0736 B( 28-C , 29-H ) :   0.9775
B( 28-C , 30-H ) :   0.9736 B( 28-C , 31-H ) :   0.9749

Dispersion correction           -0.014342382
FINAL SINGLE POINT ENERGY     -1339.866239251764

DIPOLE MOMENT
-------------
                                X             Y             Z
Electronic contribution:    -24.71367      15.88943      -0.66482
Nuclear contribution   :     25.21127     -16.08613       0.81341
                        -----------------------------------------
Total Dipole Moment    :      0.49760      -0.19670       0.14858
                        -----------------------------------------
Magnitude (a.u.)       :      0.55532
Magnitude (Debye)      :      1.41150

Rotational constants in cm-1:     0.017892     0.008902     0.007165
Rotational constants in MHz :   536.395092   266.883808   214.808866

                             ****ORCA TERMINATED NORMALLY****
TOTAL RUN TIME: 0 days 0 hours 0 minutes 33 seconds 808 msec
