                         Program Version 4.2.1 -  RELEASE  -
|  1> ! wB97X-D3 SP def2-SVP
|  2> %pal
|  3> nprocs 16
|  4> end
|  5>
|  6> * xyz 0 1
|  7> S 	 -30.1316 	 56.885 	 107.094
|  8> C 	 -29.9791 	 57.5071 	 105.471
|  9> C 	 -30.908 	 58.5123 	 105.282
| 10> C 	 -31.6603 	 58.8477 	 106.461
| 11> C 	 -31.4985 	 57.9475 	 107.467
| 12> H 	 -32.4362 	 59.5408 	 106.553
| 13> C 	 -30.8845 	 59.3925 	 104.074
| 14> H 	 -31.9686 	 59.5524 	 103.742
| 15> H 	 -30.5051 	 58.8169 	 103.307
| 16> C 	 -30.3313 	 60.7914 	 104.18
| 17> H 	 -30.7198 	 61.1498 	 105.093
| 18> H 	 -29.2311 	 60.7566 	 104.265
| 19> C 	 -30.7859 	 61.6694 	 103.01
| 20> H 	 -31.8618 	 61.7971 	 102.985
| 21> H 	 -30.2767 	 62.6683 	 103.051
| 22> H 	 -30.526 	 61.3126 	 102.1
| 23> S 	 -31.7378 	 58.9665 	 109.904
| 24> C 	 -33.049 	 58.6138 	 110.992
| 25> C 	 -34.071 	 57.9945 	 110.316
| 26> C 	 -33.6661 	 57.657 	 108.981
| 27> C 	 -32.3013 	 57.9657 	 108.713
| 28> H 	 -35.0748 	 57.882 	 110.696
| 29> C 	 -34.7375 	 57.1802 	 108.005
| 30> H 	 -35.2831 	 56.3147 	 108.346
| 31> H 	 -34.2038 	 56.8603 	 107.125
| 32> C 	 -35.7124 	 58.2766 	 107.618
| 33> H 	 -35.1381 	 59.1137 	 107.169
| 34> H 	 -36.1056 	 58.6935 	 108.554
| 35> C 	 -36.8982 	 57.9131 	 106.672
| 36> H 	 -36.5555 	 57.373 	 105.778
| 37> H 	 -37.3359 	 58.8439 	 106.394
| 38> H 	 -37.7298 	 57.3817 	 107.123
| 39> H 	 -29.1247 	 57.3298 	 104.819
| 40> H 	 -33.1801 	 58.9237 	 111.986
| 41> *
| 42>
| 43>                          ****END OF INPUT****

CARTESIAN COORDINATES (ANGSTROEM)
---------------------------------
  S    -30.131600   56.885000  107.094000
  C    -29.979100   57.507100  105.471000
  C    -30.908000   58.512300  105.282000
  C    -31.660300   58.847700  106.461000
  C    -31.498500   57.947500  107.467000
  H    -32.436200   59.540800  106.553000
  C    -30.884500   59.392500  104.074000
  H    -31.968600   59.552400  103.742000
  H    -30.505100   58.816900  103.307000
  C    -30.331300   60.791400  104.180000
  H    -30.719800   61.149800  105.093000
  H    -29.231100   60.756600  104.265000
  C    -30.785900   61.669400  103.010000
  H    -31.861800   61.797100  102.985000
  H    -30.276700   62.668300  103.051000
  H    -30.526000   61.312600  102.100000
  S    -31.737800   58.966500  109.904000
  C    -33.049000   58.613800  110.992000
  C    -34.071000   57.994500  110.316000
  C    -33.666100   57.657000  108.981000
  C    -32.301300   57.965700  108.713000
  H    -35.074800   57.882000  110.696000
  C    -34.737500   57.180200  108.005000
  H    -35.283100   56.314700  108.346000
  H    -34.203800   56.860300  107.125000
  C    -35.712400   58.276600  107.618000
  H    -35.138100   59.113700  107.169000
  H    -36.105600   58.693500  108.554000
  C    -36.898200   57.913100  106.672000
  H    -36.555500   57.373000  105.778000
  H    -37.335900   58.843900  106.394000
  H    -37.729800   57.381700  107.123000
  H    -29.124700   57.329800  104.819000
  H    -33.180100   58.923700  111.986000

 Total Charge           Charge          ....    0
 Multiplicity           Mult            ....    1
 Number of Electrons    NEL             ....  134
 Basis Dimension        Dim             ....  322

ORBITAL ENERGIES
----------------

  NO   OCC          E(Eh)            E(eV)
   0   2.0000     -88.965499     -2420.8743
   1   2.0000     -88.964975     -2420.8601
   2   2.0000     -10.331164      -281.1253
   3   2.0000     -10.324567      -280.9457
   4   2.0000     -10.316412      -280.7239
   5   2.0000     -10.311284      -280.5843
   6   2.0000     -10.305358      -280.4230
   7   2.0000     -10.299683      -280.2686
   8   2.0000     -10.291695      -280.0513
   9   2.0000     -10.290057      -280.0067
  10   2.0000     -10.288811      -279.9728
  11   2.0000     -10.283662      -279.8327
  12   2.0000     -10.283613      -279.8313
  13   2.0000     -10.283358      -279.8244
  14   2.0000     -10.278649      -279.6963
  15   2.0000     -10.273802      -279.5644
  16   2.0000      -8.082068      -219.9242
  17   2.0000      -8.079474      -219.8537
  18   2.0000      -6.040419      -164.3682
  19   2.0000      -6.038054      -164.3038
  20   2.0000      -6.036303      -164.2562
  21   2.0000      -6.033959      -164.1924
  22   2.0000      -6.032863      -164.1626
  23   2.0000      -6.030203      -164.0902
  24   2.0000      -1.014570       -27.6078
  25   2.0000      -0.990232       -26.9456
  26   2.0000      -0.916687       -24.9443
  27   2.0000      -0.907770       -24.7017
  28   2.0000      -0.876403       -23.8481
  29   2.0000      -0.849239       -23.1090
  30   2.0000      -0.846157       -23.0251
  31   2.0000      -0.822602       -22.3841
  32   2.0000      -0.781700       -21.2712
  33   2.0000      -0.771090       -20.9824
  34   2.0000      -0.711571       -19.3628
  35   2.0000      -0.699896       -19.0451
  36   2.0000      -0.694267       -18.8920
  37   2.0000      -0.662253       -18.0208
  38   2.0000      -0.649341       -17.6695
  39   2.0000      -0.623378       -16.9630
  40   2.0000      -0.596916       -16.2429
  41   2.0000      -0.574439       -15.6313
  42   2.0000      -0.567339       -15.4381
  43   2.0000      -0.559355       -15.2208
  44   2.0000      -0.527592       -14.3565
  45   2.0000      -0.523214       -14.2374
  46   2.0000      -0.518233       -14.1018
  47   2.0000      -0.515854       -14.0371
  48   2.0000      -0.512580       -13.9480
  49   2.0000      -0.506127       -13.7724
  50   2.0000      -0.497862       -13.5475
  51   2.0000      -0.476354       -12.9623
  52   2.0000      -0.468849       -12.7580
  53   2.0000      -0.467933       -12.7331
  54   2.0000      -0.461221       -12.5505
  55   2.0000      -0.451654       -12.2901
  56   2.0000      -0.449155       -12.2221
  57   2.0000      -0.435986       -11.8638
  58   2.0000      -0.432796       -11.7770
  59   2.0000      -0.425194       -11.5701
  60   2.0000      -0.424069       -11.5395
  61   2.0000      -0.414170       -11.2701
  62   2.0000      -0.412740       -11.2312
  63   2.0000      -0.339442        -9.2367
  64   2.0000      -0.332350        -9.0437
  65   2.0000      -0.317358        -8.6358
  66   2.0000      -0.309023        -8.4089
  67   0.0000       0.040398         1.0993
  68   0.0000       0.056568         1.5393
  69   0.0000       0.110124         2.9966
  70   0.0000       0.120863         3.2889
  71   0.0000       0.126994         3.4557

MULLIKEN ATOMIC CHARGES
-----------------------
   0 S :    0.109334
   1 C :   -0.112543
   2 C :   -0.089562
   3 C :    0.064636
   4 C :   -0.168627
   5 H :   -0.003286
   6 C :    0.048348
   7 H :    0.017362
   8 H :   -0.006338
   9 C :   -0.017974
  10 H :    0.012340
  11 H :    0.028959
  12 C :   -0.022705
  13 H :    0.029503
  14 H :    0.036354
  15 H :    0.003952
  16 S :    0.130167
  17 C :   -0.065236
  18 C :   -0.034622
  19 C :   -0.066270
  20 C :   -0.164139
  21 H :    0.023022
  22 C :    0.106993
  23 H :    0.021396
  24 H :    0.015089
  25 C :   -0.112359
  26 H :    0.026667
  27 H :    0.017537
  28 C :   -0.018267
  29 H :    0.037915
  30 H :    0.023693
  31 H :    0.031284
  32 H :    0.061457
  33 H :    0.035920
Sum of atomic charges:    0.0000000

LOEWDIN ATOMIC CHARGES
----------------------
   0 S :    0.398714
   1 C :   -0.196021
   2 C :   -0.065346
   3 C :   -0.053159
   4 C :   -0.192551
   5 H :    0.022111
   6 C :   -0.036683
   7 H :    0.034875
   8 H :    0.014400
   9 C :   -0.031915
  10 H :    0.018827
  11 H :    0.026604
  12 C :   -0.056176
  13 H :    0.025482
  14 H :    0.034860
  15 H :    0.008617
  16 S :    0.465190
  17 C :   -0.185659
  18 C :   -0.068195
  19 C :   -0.050505
  20 C :   -0.238067
  21 H :    0.032024
  22 C :   -0.035221
  23 H :    0.026951
  24 H :    0.026699
  25 C :   -0.041315
  26 H :    0.024995
  27 H :    0.020070
  28 C :   -0.063260
  29 H :    0.028202
  30 H :    0.025238
  31 H :    0.024573
  32 H :    0.035244
  33 H :    0.020400

  Mayer bond orders larger than 0.100000
B(  0-S ,  1-C ) :   1.1373 B(  0-S ,  4-C ) :   1.1441 B(  1-C ,  2-C ) :   1.6129
B(  1-C , 32-H ) :   0.9666 B(  2-C ,  3-C ) :   1.2154 B(  2-C ,  6-C ) :   1.0500
B(  3-C ,  4-C ) :   1.5983 B(  3-C ,  5-H ) :   1.0016 B(  4-C , 20-C ) :   0.9908
B(  6-C ,  7-H ) :   0.9333 B(  6-C ,  8-H ) :   0.9335 B(  6-C ,  9-C ) :   1.0570
B(  9-C , 10-H ) :   0.9515 B(  9-C , 11-H ) :   0.9520 B(  9-C , 12-C ) :   1.0844
B( 12-C , 13-H ) :   0.9728 B( 12-C , 14-H ) :   0.9719 B( 12-C , 15-H ) :   0.9755
B( 16-S , 17-C ) :   1.1751 B( 16-S , 20-C ) :   1.1954 B( 17-C , 18-C ) :   1.5671
B( 17-C , 20-C ) :   0.1016 B( 17-C , 33-H ) :   0.9755 B( 18-C , 19-C ) :   1.2829
B( 18-C , 21-H ) :   0.9913 B( 19-C , 20-C ) :   1.5419 B( 19-C , 22-C ) :   1.0565
B( 22-C , 23-H ) :   0.9366 B( 22-C , 24-H ) :   0.9252 B( 22-C , 25-C ) :   1.0652
B( 25-C , 26-H ) :   0.9533 B( 25-C , 27-H ) :   0.9545 B( 25-C , 28-C ) :   1.0800
B( 28-C , 29-H ) :   0.9754 B( 28-C , 30-H ) :   0.9726 B( 28-C , 31-H ) :   0.9746

Dispersion correction           -0.014025846
FINAL SINGLE POINT ENERGY     -1339.861488913112

DIPOLE MOMENT
-------------
                                X             Y             Z
Electronic contribution:     15.84398     -10.89079      20.28771
Nuclear contribution   :    -16.30727      11.32892     -20.65690
                        -----------------------------------------
Total Dipole Moment    :     -0.46329       0.43813      -0.36919
                        -----------------------------------------
Magnitude (a.u.)       :      0.73681
Magnitude (Debye)      :      1.87283

Rotational constants in cm-1:     0.016666     0.008407     0.006949
Rotational constants in MHz :   499.625565   252.049221   208.318799

                             ****ORCA TERMINATED NORMALLY****
TOTAL RUN TIME: 0 days 0 hours 0 minutes 29 seconds 397 msec
