                         Program Version 4.2.1 -  RELEASE  -
|  1> ! wB97X-D3 SP def2-SVP
|  2> %pal
|  3> nprocs 16
|  4> end
|  5>
|  6> * xyz 0 1
|  7> S 	 46.1241 	 21.5939 	 90.6814
|  8> C 	 46.5719 	 21.9798 	 92.2986
|  9> C 	 47.8656 	 21.5133 	 92.6355
| 10> C 	 48.5108 	 20.9219 	 91.5096
| 11> C 	 47.744 	 20.9439 	 90.3759
| 12> H 	 49.4925 	 20.4771 	 91.5569
| 13> C 	 48.5486 	 21.6495 	 93.9765
| 14> H 	 49.0229 	 20.6897 	 94.2137
| 15> H 	 47.6285 	 21.8833 	 94.5819
| 16> C 	 49.5749 	 22.8222 	 94.0897
| 17> H 	 50.1605 	 22.8727 	 95.0249
| 18> H 	 50.3114 	 22.5284 	 93.3047
| 19> C 	 48.9694 	 24.1715 	 93.6553
| 20> H 	 48.3399 	 24.0595 	 92.7261
| 21> H 	 48.2918 	 24.6492 	 94.3624
| 22> H 	 49.6522 	 24.9587 	 93.4652
| 23> S 	 47.2214 	 18.7993 	 88.6476
| 24> C 	 48.1204 	 18.5938 	 87.161
| 25> C 	 48.7514 	 19.7466 	 86.8287
| 26> C 	 48.7875 	 20.6669 	 87.943
| 27> C 	 48.0265 	 20.2728 	 89.0717
| 28> H 	 49.1323 	 19.9072 	 85.8281
| 29> C 	 49.4629 	 22.0439 	 87.8373
| 30> H 	 50.2522 	 21.9764 	 87.0612
| 31> H 	 49.9317 	 22.0442 	 88.8029
| 32> C 	 48.5437 	 23.2193 	 87.6484
| 33> H 	 47.7712 	 23.1174 	 88.4371
| 34> H 	 47.9738 	 23.1567 	 86.7097
| 35> C 	 49.1364 	 24.6032 	 87.9894
| 36> H 	 49.867 	 24.6638 	 88.8363
| 37> H 	 48.2972 	 25.3439 	 88.1539
| 38> H 	 49.5533 	 24.9736 	 87.0561
| 39> H 	 45.9588 	 22.4942 	 92.9714
| 40> H 	 47.7181 	 17.9823 	 86.3635
| 41> *
| 42>
| 43>                          ****END OF INPUT****

CARTESIAN COORDINATES (ANGSTROEM)
---------------------------------
  S     46.124100   21.593900   90.681400
  C     46.571900   21.979800   92.298600
  C     47.865600   21.513300   92.635500
  C     48.510800   20.921900   91.509600
  C     47.744000   20.943900   90.375900
  H     49.492500   20.477100   91.556900
  C     48.548600   21.649500   93.976500
  H     49.022900   20.689700   94.213700
  H     47.628500   21.883300   94.581900
  C     49.574900   22.822200   94.089700
  H     50.160500   22.872700   95.024900
  H     50.311400   22.528400   93.304700
  C     48.969400   24.171500   93.655300
  H     48.339900   24.059500   92.726100
  H     48.291800   24.649200   94.362400
  H     49.652200   24.958700   93.465200
  S     47.221400   18.799300   88.647600
  C     48.120400   18.593800   87.161000
  C     48.751400   19.746600   86.828700
  C     48.787500   20.666900   87.943000
  C     48.026500   20.272800   89.071700
  H     49.132300   19.907200   85.828100
  C     49.462900   22.043900   87.837300
  H     50.252200   21.976400   87.061200
  H     49.931700   22.044200   88.802900
  C     48.543700   23.219300   87.648400
  H     47.771200   23.117400   88.437100
  H     47.973800   23.156700   86.709700
  C     49.136400   24.603200   87.989400
  H     49.867000   24.663800   88.836300
  H     48.297200   25.343900   88.153900
  H     49.553300   24.973600   87.056100
  H     45.958800   22.494200   92.971400
  H     47.718100   17.982300   86.363500

 Total Charge           Charge          ....    0
 Multiplicity           Mult            ....    1
 Number of Electrons    NEL             ....  134
 Basis Dimension        Dim             ....  322

ORBITAL ENERGIES
----------------

  NO   OCC          E(Eh)            E(eV)
   0   2.0000     -88.973665     -2421.0965
   1   2.0000     -88.961333     -2420.7609
   2   2.0000     -10.335867      -281.2532
   3   2.0000     -10.329407      -281.0775
   4   2.0000     -10.316935      -280.7381
   5   2.0000     -10.310601      -280.5657
   6   2.0000     -10.305500      -280.4269
   7   2.0000     -10.305230      -280.4196
   8   2.0000     -10.300515      -280.2913
   9   2.0000     -10.297716      -280.2151
  10   2.0000     -10.297294      -280.2036
  11   2.0000     -10.294051      -280.1154
  12   2.0000     -10.285179      -279.8740
  13   2.0000     -10.282588      -279.8034
  14   2.0000     -10.282080      -279.7896
  15   2.0000     -10.276331      -279.6332
  16   2.0000      -8.088042      -220.0868
  17   2.0000      -8.076534      -219.7737
  18   2.0000      -6.046409      -164.5312
  19   2.0000      -6.042585      -164.4271
  20   2.0000      -6.038977      -164.3289
  21   2.0000      -6.035022      -164.2213
  22   2.0000      -6.030981      -164.1113
  23   2.0000      -6.027267      -164.0103
  24   2.0000      -1.006883       -27.3987
  25   2.0000      -0.987104       -26.8605
  26   2.0000      -0.910546       -24.7772
  27   2.0000      -0.904646       -24.6167
  28   2.0000      -0.868488       -23.6328
  29   2.0000      -0.851432       -23.1686
  30   2.0000      -0.841709       -22.9041
  31   2.0000      -0.819439       -22.2981
  32   2.0000      -0.781156       -21.2563
  33   2.0000      -0.766867       -20.8675
  34   2.0000      -0.709644       -19.3104
  35   2.0000      -0.698128       -18.9970
  36   2.0000      -0.688297       -18.7295
  37   2.0000      -0.657003       -17.8780
  38   2.0000      -0.646389       -17.5891
  39   2.0000      -0.621635       -16.9155
  40   2.0000      -0.586800       -15.9676
  41   2.0000      -0.569691       -15.5021
  42   2.0000      -0.562119       -15.2960
  43   2.0000      -0.550353       -14.9759
  44   2.0000      -0.546519       -14.8715
  45   2.0000      -0.522911       -14.2291
  46   2.0000      -0.513239       -13.9659
  47   2.0000      -0.506608       -13.7855
  48   2.0000      -0.502021       -13.6607
  49   2.0000      -0.496524       -13.5111
  50   2.0000      -0.488862       -13.3026
  51   2.0000      -0.481849       -13.1118
  52   2.0000      -0.470842       -12.8123
  53   2.0000      -0.462899       -12.5961
  54   2.0000      -0.458538       -12.4774
  55   2.0000      -0.449558       -12.2331
  56   2.0000      -0.444815       -12.1040
  57   2.0000      -0.443402       -12.0656
  58   2.0000      -0.433349       -11.7920
  59   2.0000      -0.431053       -11.7296
  60   2.0000      -0.413720       -11.2579
  61   2.0000      -0.409294       -11.1375
  62   2.0000      -0.396510       -10.7896
  63   2.0000      -0.346419        -9.4265
  64   2.0000      -0.330910        -9.0045
  65   2.0000      -0.321147        -8.7388
  66   2.0000      -0.304504        -8.2860
  67   0.0000       0.036544         0.9944
  68   0.0000       0.049913         1.3582
  69   0.0000       0.112264         3.0549
  70   0.0000       0.117890         3.2079
  71   0.0000       0.123533         3.3615

MULLIKEN ATOMIC CHARGES
-----------------------
   0 S :    0.131659
   1 C :   -0.093829
   2 C :   -0.138849
   3 C :    0.067204
   4 C :   -0.177474
   5 H :    0.016965
   6 C :    0.059934
   7 H :    0.043021
   8 H :    0.028297
   9 C :   -0.056433
  10 H :    0.047156
  11 H :    0.025597
  12 C :   -0.072682
  13 H :    0.050031
  14 H :    0.022026
  15 H :    0.025181
  16 S :    0.097333
  17 C :   -0.077087
  18 C :   -0.047935
  19 C :   -0.083767
  20 C :   -0.154173
  21 H :    0.026723
  22 C :    0.101469
  23 H :    0.019221
  24 H :    0.015304
  25 C :   -0.070953
  26 H :    0.019975
  27 H :    0.030338
  28 C :   -0.061439
  29 H :    0.051220
  30 H :    0.037267
  31 H :    0.024860
  32 H :    0.028165
  33 H :    0.065677
Sum of atomic charges:    0.0000000

LOEWDIN ATOMIC CHARGES
----------------------
   0 S :    0.422036
   1 C :   -0.196228
   2 C :   -0.063581
   3 C :   -0.052059
   4 C :   -0.190706
   5 H :    0.035128
   6 C :   -0.034450
   7 H :    0.035258
   8 H :    0.034484
   9 C :   -0.042543
  10 H :    0.029213
  11 H :    0.026759
  12 C :   -0.076771
  13 H :    0.035827
  14 H :    0.022263
  15 H :    0.020800
  16 S :    0.413735
  17 C :   -0.197005
  18 C :   -0.069258
  19 C :   -0.053081
  20 C :   -0.215560
  21 H :    0.034342
  22 C :   -0.035910
  23 H :    0.025893
  24 H :    0.030584
  25 C :   -0.050059
  26 H :    0.022379
  27 H :    0.027247
  28 C :   -0.071939
  29 H :    0.032702
  30 H :    0.033169
  31 H :    0.020870
  32 H :    0.014947
  33 H :    0.031516

  Mayer bond orders larger than 0.100000
B(  0-S ,  1-C ) :   1.1581 B(  0-S ,  4-C ) :   1.1529 B(  1-C ,  2-C ) :   1.5859
B(  1-C , 32-H ) :   0.9705 B(  2-C ,  3-C ) :   1.2453 B(  2-C ,  6-C ) :   1.0161
B(  3-C ,  4-C ) :   1.5905 B(  3-C ,  5-H ) :   0.9924 B(  4-C , 20-C ) :   0.9959
B(  6-C ,  7-H ) :   0.9438 B(  6-C ,  8-H ) :   0.9418 B(  6-C ,  9-C ) :   1.0527
B(  9-C , 10-H ) :   0.9611 B(  9-C , 11-H ) :   0.9552 B(  9-C , 12-C ) :   1.0671
B( 12-C , 13-H ) :   0.9709 B( 12-C , 14-H ) :   0.9754 B( 12-C , 15-H ) :   0.9742
B( 16-S , 17-C ) :   1.1637 B( 16-S , 20-C ) :   1.1578 B( 17-C , 18-C ) :   1.6066
B( 17-C , 33-H ) :   0.9532 B( 18-C , 19-C ) :   1.2701 B( 18-C , 21-H ) :   0.9884
B( 19-C , 20-C ) :   1.5715 B( 19-C , 22-C ) :   1.0285 B( 22-C , 23-H ) :   0.9368
B( 22-C , 24-H ) :   0.9223 B( 22-C , 25-C ) :   1.0744 B( 25-C , 26-H ) :   0.9545
B( 25-C , 27-H ) :   0.9535 B( 25-C , 28-C ) :   1.0699 B( 28-C , 29-H ) :   0.9743
B( 28-C , 30-H ) :   0.9754 B( 28-C , 31-H ) :   0.9767

Dispersion correction           -0.015093156
FINAL SINGLE POINT ENERGY     -1339.869038622518

DIPOLE MOMENT
-------------
                                X             Y             Z
Electronic contribution:    -13.58722     -21.63510      -7.17816
Nuclear contribution   :     13.82317      22.04383       7.25776
                        -----------------------------------------
Total Dipole Moment    :      0.23595       0.40873       0.07960
                        -----------------------------------------
Magnitude (a.u.)       :      0.47861
Magnitude (Debye)      :      1.21653

Rotational constants in cm-1:     0.019409     0.009078     0.007401
Rotational constants in MHz :   581.873968   272.160713   221.873195

                             ****ORCA TERMINATED NORMALLY****
TOTAL RUN TIME: 0 days 0 hours 0 minutes 30 seconds 948 msec
