                         Program Version 4.2.1 -  RELEASE  -
|  1> ! wB97X-D3 SP def2-SVP
|  2> %pal
|  3> nprocs 16
|  4> end
|  5>
|  6> * xyz 0 1
|  7> S 	 -41.8712 	 51.0099 	 105.524
|  8> C 	 -42.3134 	 51.9398 	 104.116
|  9> C 	 -41.9384 	 53.2582 	 104.218
| 10> C 	 -41.3688 	 53.5648 	 105.46
| 11> C 	 -41.3438 	 52.4686 	 106.352
| 12> H 	 -41.03 	 54.6104 	 105.653
| 13> C 	 -42.0451 	 54.3471 	 103.19
| 14> H 	 -42.5745 	 55.2326 	 103.632
| 15> H 	 -42.6713 	 53.9565 	 102.387
| 16> C 	 -40.6684 	 54.7746 	 102.599
| 17> H 	 -40.0007 	 54.9964 	 103.431
| 18> H 	 -40.1106 	 54.0153 	 102.042
| 19> C 	 -40.837 	 55.9857 	 101.66
| 20> H 	 -39.924 	 56.3633 	 101.204
| 21> H 	 -41.4673 	 55.8135 	 100.782
| 22> H 	 -41.3654 	 56.7952 	 102.173
| 23> S 	 -41.298 	 52.1044 	 109.126
| 24> C 	 -39.7671 	 52.2805 	 109.945
| 25> C 	 -38.7235 	 52.4954 	 109.089
| 26> C 	 -39.1134 	 52.7483 	 107.684
| 27> C 	 -40.5092 	 52.4357 	 107.546
| 28> H 	 -37.7794 	 52.5758 	 109.553
| 29> C 	 -38.0932 	 53.041 	 106.59
| 30> H 	 -38.4746 	 53.8975 	 105.999
| 31> H 	 -37.9879 	 52.3237 	 105.779
| 32> C 	 -36.5434 	 53.2683 	 106.929
| 33> H 	 -36.1504 	 52.4419 	 107.461
| 34> H 	 -36.4425 	 54.1788 	 107.503
| 35> C 	 -35.5321 	 53.5114 	 105.787
| 36> H 	 -35.5759 	 52.5227 	 105.331
| 37> H 	 -34.5168 	 53.5887 	 106.167
| 38> H 	 -35.8542 	 54.2958 	 105.072
| 39> H 	 -42.6695 	 51.5079 	 103.229
| 40> H 	 -39.6803 	 52.3201 	 111.034
| 41> *
| 42>
| 43>                          ****END OF INPUT****

CARTESIAN COORDINATES (ANGSTROEM)
---------------------------------
  S    -41.871200   51.009900  105.524000
  C    -42.313400   51.939800  104.116000
  C    -41.938400   53.258200  104.218000
  C    -41.368800   53.564800  105.460000
  C    -41.343800   52.468600  106.352000
  H    -41.030000   54.610400  105.653000
  C    -42.045100   54.347100  103.190000
  H    -42.574500   55.232600  103.632000
  H    -42.671300   53.956500  102.387000
  C    -40.668400   54.774600  102.599000
  H    -40.000700   54.996400  103.431000
  H    -40.110600   54.015300  102.042000
  C    -40.837000   55.985700  101.660000
  H    -39.924000   56.363300  101.204000
  H    -41.467300   55.813500  100.782000
  H    -41.365400   56.795200  102.173000
  S    -41.298000   52.104400  109.126000
  C    -39.767100   52.280500  109.945000
  C    -38.723500   52.495400  109.089000
  C    -39.113400   52.748300  107.684000
  C    -40.509200   52.435700  107.546000
  H    -37.779400   52.575800  109.553000
  C    -38.093200   53.041000  106.590000
  H    -38.474600   53.897500  105.999000
  H    -37.987900   52.323700  105.779000
  C    -36.543400   53.268300  106.929000
  H    -36.150400   52.441900  107.461000
  H    -36.442500   54.178800  107.503000
  C    -35.532100   53.511400  105.787000
  H    -35.575900   52.522700  105.331000
  H    -34.516800   53.588700  106.167000
  H    -35.854200   54.295800  105.072000
  H    -42.669500   51.507900  103.229000
  H    -39.680300   52.320100  111.034000

 Total Charge           Charge          ....    0
 Multiplicity           Mult            ....    1
 Number of Electrons    NEL             ....  134
 Basis Dimension        Dim             ....  322

ORBITAL ENERGIES
----------------

  NO   OCC          E(Eh)            E(eV)
   0   2.0000     -88.968975     -2420.9689
   1   2.0000     -88.963942     -2420.8319
   2   2.0000     -10.333667      -281.1934
   3   2.0000     -10.329615      -281.0831
   4   2.0000     -10.321251      -280.8555
   5   2.0000     -10.315350      -280.6949
   6   2.0000     -10.310172      -280.5541
   7   2.0000     -10.301372      -280.3146
   8   2.0000     -10.297976      -280.2222
   9   2.0000     -10.295945      -280.1669
  10   2.0000     -10.294071      -280.1159
  11   2.0000     -10.293426      -280.0984
  12   2.0000     -10.292731      -280.0794
  13   2.0000     -10.287815      -279.9457
  14   2.0000     -10.283730      -279.8345
  15   2.0000     -10.280342      -279.7423
  16   2.0000      -8.083482      -219.9627
  17   2.0000      -8.078177      -219.8184
  18   2.0000      -6.041945      -164.4097
  19   2.0000      -6.038033      -164.3032
  20   2.0000      -6.036677      -164.2663
  21   2.0000      -6.034296      -164.2015
  22   2.0000      -6.032796      -164.1607
  23   2.0000      -6.028950      -164.0561
  24   2.0000      -1.001102       -27.2414
  25   2.0000      -0.976805       -26.5802
  26   2.0000      -0.911125       -24.7930
  27   2.0000      -0.901350       -24.5270
  28   2.0000      -0.867514       -23.6063
  29   2.0000      -0.852422       -23.1956
  30   2.0000      -0.847011       -23.0483
  31   2.0000      -0.810853       -22.0644
  32   2.0000      -0.782498       -21.2929
  33   2.0000      -0.769460       -20.9381
  34   2.0000      -0.709909       -19.3176
  35   2.0000      -0.702123       -19.1057
  36   2.0000      -0.695306       -18.9202
  37   2.0000      -0.646971       -17.6050
  38   2.0000      -0.636772       -17.3274
  39   2.0000      -0.625416       -17.0184
  40   2.0000      -0.598791       -16.2939
  41   2.0000      -0.570529       -15.5249
  42   2.0000      -0.568987       -15.4829
  43   2.0000      -0.555204       -15.1079
  44   2.0000      -0.528205       -14.3732
  45   2.0000      -0.523984       -14.2583
  46   2.0000      -0.517218       -14.0742
  47   2.0000      -0.506478       -13.7820
  48   2.0000      -0.502524       -13.6744
  49   2.0000      -0.494645       -13.4600
  50   2.0000      -0.489299       -13.3145
  51   2.0000      -0.474902       -12.9227
  52   2.0000      -0.471882       -12.8406
  53   2.0000      -0.467782       -12.7290
  54   2.0000      -0.459419       -12.5014
  55   2.0000      -0.453580       -12.3425
  56   2.0000      -0.444634       -12.0991
  57   2.0000      -0.443800       -12.0764
  58   2.0000      -0.430736       -11.7209
  59   2.0000      -0.429427       -11.6853
  60   2.0000      -0.425186       -11.5699
  61   2.0000      -0.417142       -11.3510
  62   2.0000      -0.403038       -10.9672
  63   2.0000      -0.335673        -9.1341
  64   2.0000      -0.334206        -9.0942
  65   2.0000      -0.326248        -8.8777
  66   2.0000      -0.293877        -7.9968
  67   0.0000       0.031582         0.8594
  68   0.0000       0.058331         1.5873
  69   0.0000       0.117058         3.1853
  70   0.0000       0.118013         3.2113
  71   0.0000       0.124736         3.3942

MULLIKEN ATOMIC CHARGES
-----------------------
   0 S :    0.118842
   1 C :   -0.102418
   2 C :   -0.082166
   3 C :   -0.004772
   4 C :   -0.120624
   5 H :    0.032902
   6 C :    0.048275
   7 H :    0.045838
   8 H :    0.016910
   9 C :   -0.068871
  10 H :    0.023650
  11 H :    0.032999
  12 C :   -0.045304
  13 H :    0.033496
  14 H :    0.025083
  15 H :    0.023643
  16 S :    0.103038
  17 C :   -0.095564
  18 C :   -0.032089
  19 C :    0.016009
  20 C :   -0.182469
  21 H :    0.009964
  22 C :    0.044084
  23 H :    0.023782
  24 H :    0.030171
  25 C :   -0.100919
  26 H :    0.031343
  27 H :    0.028089
  28 C :   -0.055799
  29 H :    0.023455
  30 H :    0.043558
  31 H :    0.048593
  32 H :    0.023718
  33 H :    0.063555
Sum of atomic charges:   -0.0000000

LOEWDIN ATOMIC CHARGES
----------------------
   0 S :    0.417886
   1 C :   -0.190361
   2 C :   -0.072283
   3 C :   -0.057464
   4 C :   -0.205297
   5 H :    0.038277
   6 C :   -0.030089
   7 H :    0.038780
   8 H :    0.028193
   9 C :   -0.038251
  10 H :    0.020517
  11 H :    0.027734
  12 C :   -0.071215
  13 H :    0.025733
  14 H :    0.025568
  15 H :    0.023574
  16 S :    0.387205
  17 C :   -0.186305
  18 C :   -0.071331
  19 C :   -0.037325
  20 C :   -0.192174
  21 H :    0.025278
  22 C :   -0.041976
  23 H :    0.034851
  24 H :    0.033564
  25 C :   -0.038759
  26 H :    0.018485
  27 H :    0.017054
  28 C :   -0.064455
  29 H :    0.024105
  30 H :    0.031654
  31 H :    0.029112
  32 H :    0.016816
  33 H :    0.032897

  Mayer bond orders larger than 0.100000
B(  0-S ,  1-C ) :   1.1488 B(  0-S ,  4-C ) :   1.1663 B(  1-C ,  2-C ) :   1.5915
B(  1-C , 32-H ) :   0.9716 B(  2-C ,  3-C ) :   1.2817 B(  2-C ,  6-C ) :   1.0272
B(  3-C ,  4-C ) :   1.5252 B(  3-C ,  5-H ) :   0.9889 B(  4-C , 20-C ) :   1.0331
B(  6-C ,  7-H ) :   0.9446 B(  6-C ,  8-H ) :   0.9387 B(  6-C ,  9-C ) :   1.0502
B(  9-C , 10-H ) :   0.9582 B(  9-C , 11-H ) :   0.9554 B(  9-C , 12-C ) :   1.0790
B( 12-C , 13-H ) :   0.9745 B( 12-C , 14-H ) :   0.9741 B( 12-C , 15-H ) :   0.9743
B( 16-S , 17-C ) :   1.1453 B( 16-S , 20-C ) :   1.1380 B( 17-C , 18-C ) :   1.6467
B( 17-C , 33-H ) :   0.9607 B( 18-C , 19-C ) :   1.2113 B( 18-C , 21-H ) :   0.9888
B( 19-C , 20-C ) :   1.5875 B( 19-C , 22-C ) :   1.0370 B( 22-C , 23-H ) :   0.9250
B( 22-C , 24-H ) :   0.9391 B( 22-C , 25-C ) :   1.0585 B( 25-C , 26-H ) :   0.9563
B( 25-C , 27-H ) :   0.9593 B( 25-C , 28-C ) :   1.0794 B( 28-C , 29-H ) :   0.9776
B( 28-C , 30-H ) :   0.9715 B( 28-C , 31-H ) :   0.9765

Dispersion correction           -0.013860748
FINAL SINGLE POINT ENERGY     -1339.864472647641

DIPOLE MOMENT
-------------
                                X             Y             Z
Electronic contribution:    -19.04627     -17.73275      20.08809
Nuclear contribution   :     19.63615      18.15283     -20.53062
                        -----------------------------------------
Total Dipole Moment    :      0.58988       0.42009      -0.44253
                        -----------------------------------------
Magnitude (a.u.)       :      0.84868
Magnitude (Debye)      :      2.15717

Rotational constants in cm-1:     0.015205     0.009192     0.006498
Rotational constants in MHz :   455.836267   275.581302   194.812775

                             ****ORCA TERMINATED NORMALLY****
TOTAL RUN TIME: 0 days 0 hours 0 minutes 29 seconds 424 msec
