                         Program Version 4.2.1 -  RELEASE  -
|  1> ! wB97X-D3 SP def2-SVP
|  2> %pal
|  3> nprocs 16
|  4> end
|  5>
|  6> * xyz 0 1
|  7> S 	 32.2548 	 22.0158 	 48.2373
|  8> C 	 31.6497 	 23.2606 	 49.1857
|  9> C 	 32.2449 	 23.2702 	 50.4602
| 10> C 	 33.2335 	 22.3056 	 50.6111
| 11> C 	 33.3724 	 21.5094 	 49.5084
| 12> H 	 33.7269 	 22.0139 	 51.5365
| 13> C 	 31.9352 	 24.2641 	 51.6781
| 14> H 	 31.2408 	 25.0353 	 51.3277
| 15> H 	 32.8341 	 24.8467 	 51.8427
| 16> C 	 31.4498 	 23.5145 	 52.9524
| 17> H 	 30.5644 	 23.0154 	 52.7178
| 18> H 	 32.0533 	 22.7073 	 53.3188
| 19> C 	 31.0993 	 24.3731 	 54.1555
| 20> H 	 31.58 	 25.3728 	 54.1628
| 21> H 	 30.0079 	 24.6045 	 54.2367
| 22> H 	 31.2381 	 23.8567 	 55.0984
| 23> S 	 33.0178 	 18.8548 	 49.0716
| 24> C 	 34.0937 	 17.7031 	 49.7968
| 25> C 	 35.2148 	 18.3693 	 50.2553
| 26> C 	 35.2374 	 19.766 	 50.0177
| 27> C 	 34.0345 	 20.1999 	 49.4979
| 28> H 	 35.9616 	 17.8335 	 50.8196
| 29> C 	 36.4461 	 20.6434 	 50.4039
| 30> H 	 36.4719 	 20.511 	 51.5022
| 31> H 	 36.2098 	 21.701 	 50.212
| 32> C 	 37.8406 	 20.3853 	 49.6423
| 33> H 	 37.7393 	 20.3577 	 48.556
| 34> H 	 38.3291 	 19.4618 	 49.7802
| 35> C 	 38.8783 	 21.4567 	 49.9366
| 36> H 	 39.7426 	 21.4041 	 49.267
| 37> H 	 39.2329 	 21.1702 	 50.8974
| 38> H 	 38.4609 	 22.477 	 49.9564
| 39> H 	 30.9973 	 24.0286 	 48.754
| 40> H 	 33.9035 	 16.6571 	 50.1181
| 41> *
| 42>
| 43>                          ****END OF INPUT****

CARTESIAN COORDINATES (ANGSTROEM)
---------------------------------
  S     32.254800   22.015800   48.237300
  C     31.649700   23.260600   49.185700
  C     32.244900   23.270200   50.460200
  C     33.233500   22.305600   50.611100
  C     33.372400   21.509400   49.508400
  H     33.726900   22.013900   51.536500
  C     31.935200   24.264100   51.678100
  H     31.240800   25.035300   51.327700
  H     32.834100   24.846700   51.842700
  C     31.449800   23.514500   52.952400
  H     30.564400   23.015400   52.717800
  H     32.053300   22.707300   53.318800
  C     31.099300   24.373100   54.155500
  H     31.580000   25.372800   54.162800
  H     30.007900   24.604500   54.236700
  H     31.238100   23.856700   55.098400
  S     33.017800   18.854800   49.071600
  C     34.093700   17.703100   49.796800
  C     35.214800   18.369300   50.255300
  C     35.237400   19.766000   50.017700
  C     34.034500   20.199900   49.497900
  H     35.961600   17.833500   50.819600
  C     36.446100   20.643400   50.403900
  H     36.471900   20.511000   51.502200
  H     36.209800   21.701000   50.212000
  C     37.840600   20.385300   49.642300
  H     37.739300   20.357700   48.556000
  H     38.329100   19.461800   49.780200
  C     38.878300   21.456700   49.936600
  H     39.742600   21.404100   49.267000
  H     39.232900   21.170200   50.897400
  H     38.460900   22.477000   49.956400
  H     30.997300   24.028600   48.754000
  H     33.903500   16.657100   50.118100

 Total Charge           Charge          ....    0
 Multiplicity           Mult            ....    1
 Number of Electrons    NEL             ....  134
 Basis Dimension        Dim             ....  322

ORBITAL ENERGIES
----------------

  NO   OCC          E(Eh)            E(eV)
   0   2.0000     -88.967642     -2420.9326
   1   2.0000     -88.963195     -2420.8116
   2   2.0000     -10.328444      -281.0513
   3   2.0000     -10.325085      -280.9598
   4   2.0000     -10.315645      -280.7030
   5   2.0000     -10.313933      -280.6564
   6   2.0000     -10.303732      -280.3788
   7   2.0000     -10.303546      -280.3737
   8   2.0000     -10.301636      -280.3218
   9   2.0000     -10.300214      -280.2831
  10   2.0000     -10.289836      -280.0007
  11   2.0000     -10.289570      -279.9934
  12   2.0000     -10.285695      -279.8880
  13   2.0000     -10.280823      -279.7554
  14   2.0000     -10.278992      -279.7056
  15   2.0000     -10.274365      -279.5797
  16   2.0000      -8.083436      -219.9615
  17   2.0000      -8.078444      -219.8256
  18   2.0000      -6.041710      -164.4033
  19   2.0000      -6.037723      -164.2948
  20   2.0000      -6.037056      -164.2766
  21   2.0000      -6.034456      -164.2059
  22   2.0000      -6.032763      -164.1598
  23   2.0000      -6.029153      -164.0616
  24   2.0000      -1.013250       -27.5719
  25   2.0000      -0.989861       -26.9355
  26   2.0000      -0.903594       -24.5880
  27   2.0000      -0.900216       -24.4961
  28   2.0000      -0.871270       -23.7085
  29   2.0000      -0.857688       -23.3389
  30   2.0000      -0.851221       -23.1629
  31   2.0000      -0.812497       -22.1092
  32   2.0000      -0.778426       -21.1820
  33   2.0000      -0.767523       -20.8854
  34   2.0000      -0.706901       -19.2357
  35   2.0000      -0.701515       -19.0892
  36   2.0000      -0.693488       -18.8708
  37   2.0000      -0.661093       -17.9893
  38   2.0000      -0.644427       -17.5357
  39   2.0000      -0.622911       -16.9503
  40   2.0000      -0.591488       -16.0952
  41   2.0000      -0.562029       -15.2936
  42   2.0000      -0.559499       -15.2247
  43   2.0000      -0.554649       -15.0928
  44   2.0000      -0.529062       -14.3965
  45   2.0000      -0.525572       -14.3016
  46   2.0000      -0.520288       -14.1578
  47   2.0000      -0.510480       -13.8909
  48   2.0000      -0.503568       -13.7028
  49   2.0000      -0.498432       -13.5630
  50   2.0000      -0.496285       -13.5046
  51   2.0000      -0.476274       -12.9601
  52   2.0000      -0.469878       -12.7860
  53   2.0000      -0.462562       -12.5869
  54   2.0000      -0.458983       -12.4896
  55   2.0000      -0.449165       -12.2224
  56   2.0000      -0.446981       -12.1630
  57   2.0000      -0.442405       -12.0385
  58   2.0000      -0.434123       -11.8131
  59   2.0000      -0.423654       -11.5282
  60   2.0000      -0.419758       -11.4222
  61   2.0000      -0.411387       -11.1944
  62   2.0000      -0.409730       -11.1493
  63   2.0000      -0.356796        -9.7089
  64   2.0000      -0.333221        -9.0674
  65   2.0000      -0.328184        -8.9303
  66   2.0000      -0.285479        -7.7683
  67   0.0000       0.031956         0.8696
  68   0.0000       0.067933         1.8486
  69   0.0000       0.115918         3.1543
  70   0.0000       0.125278         3.4090
  71   0.0000       0.139251         3.7892

MULLIKEN ATOMIC CHARGES
-----------------------
   0 S :    0.116015
   1 C :   -0.131051
   2 C :   -0.102550
   3 C :    0.030766
   4 C :   -0.155057
   5 H :    0.022788
   6 C :    0.083617
   7 H :    0.017530
   8 H :    0.031754
   9 C :   -0.043738
  10 H :    0.016162
  11 H :    0.025784
  12 C :   -0.072731
  13 H :    0.034886
  14 H :    0.027824
  15 H :    0.029198
  16 S :    0.104418
  17 C :   -0.101608
  18 C :   -0.051542
  19 C :   -0.048971
  20 C :   -0.135440
  21 H :    0.014023
  22 C :    0.054886
  23 H :    0.040951
  24 H :    0.028677
  25 C :   -0.051526
  26 H :    0.026871
  27 H :    0.012429
  28 C :   -0.050962
  29 H :    0.035775
  30 H :    0.018151
  31 H :    0.038235
  32 H :    0.061210
  33 H :    0.073223
Sum of atomic charges:    0.0000000

LOEWDIN ATOMIC CHARGES
----------------------
   0 S :    0.431430
   1 C :   -0.224797
   2 C :   -0.064474
   3 C :   -0.062592
   4 C :   -0.190838
   5 H :    0.036364
   6 C :   -0.021791
   7 H :    0.028532
   8 H :    0.027599
   9 C :   -0.044937
  10 H :    0.023335
  11 H :    0.024292
  12 C :   -0.074053
  13 H :    0.026919
  14 H :    0.028192
  15 H :    0.026252
  16 S :    0.414904
  17 C :   -0.205752
  18 C :   -0.071776
  19 C :   -0.066991
  20 C :   -0.196989
  21 H :    0.027781
  22 C :   -0.027742
  23 H :    0.034647
  24 H :    0.031788
  25 C :   -0.038794
  26 H :    0.025937
  27 H :    0.016280
  28 C :   -0.062988
  29 H :    0.028639
  30 H :    0.019432
  31 H :    0.026219
  32 H :    0.032869
  33 H :    0.043103

  Mayer bond orders larger than 0.100000
B(  0-S ,  1-C ) :   1.1680 B(  0-S ,  4-C ) :   1.1650 B(  1-C ,  2-C ) :   1.5723
B(  1-C , 32-H ) :   0.9673 B(  2-C ,  3-C ) :   1.2918 B(  2-C ,  6-C ) :   1.0094
B(  3-C ,  4-C ) :   1.5495 B(  3-C ,  5-H ) :   0.9890 B(  4-C , 20-C ) :   1.0204
B(  6-C ,  7-H ) :   0.9479 B(  6-C ,  8-H ) :   0.9451 B(  6-C ,  9-C ) :   1.0508
B(  9-C , 10-H ) :   0.9536 B(  9-C , 11-H ) :   0.9635 B(  9-C , 12-C ) :   1.0776
B( 12-C , 13-H ) :   0.9773 B( 12-C , 14-H ) :   0.9780 B( 12-C , 15-H ) :   0.9757
B( 16-S , 17-C ) :   1.1500 B( 16-S , 20-C ) :   1.1472 B( 17-C , 18-C ) :   1.6118
B( 17-C , 33-H ) :   0.9619 B( 18-C , 19-C ) :   1.2473 B( 18-C , 21-H ) :   0.9907
B( 19-C , 20-C ) :   1.5959 B( 19-C , 22-C ) :   1.0341 B( 22-C , 23-H ) :   0.9391
B( 22-C , 24-H ) :   0.9409 B( 22-C , 25-C ) :   1.0386 B( 25-C , 26-H ) :   0.9593
B( 25-C , 27-H ) :   0.9572 B( 25-C , 28-C ) :   1.0871 B( 28-C , 29-H ) :   0.9736
B( 28-C , 30-H ) :   0.9790 B( 28-C , 31-H ) :   0.9757

Dispersion correction           -0.013305080
FINAL SINGLE POINT ENERGY     -1339.864036239142

DIPOLE MOMENT
-------------
                                X             Y             Z
Electronic contribution:    -12.37835     -13.23082     -19.67466
Nuclear contribution   :     12.58568      13.38437      20.31749
                        -----------------------------------------
Total Dipole Moment    :      0.20733       0.15355       0.64283
                        -----------------------------------------
Magnitude (a.u.)       :      0.69267
Magnitude (Debye)      :      1.76062

Rotational constants in cm-1:     0.016111     0.007926     0.006778
Rotational constants in MHz :   482.987098   237.601533   203.192888

                             ****ORCA TERMINATED NORMALLY****
TOTAL RUN TIME: 0 days 0 hours 0 minutes 31 seconds 690 msec
