                         Program Version 4.2.1 -  RELEASE  -
|  1> ! wB97X-D3 SP def2-SVP
|  2> %pal
|  3> nprocs 16
|  4> end
|  5>
|  6> * xyz 0 1
|  7> S 	 4.04598 	 5.04189 	 83.7066
|  8> C 	 5.43512 	 4.22613 	 83.2111
|  9> C 	 6.48449 	 5.03819 	 82.8242
| 10> C 	 6.13604 	 6.41208 	 83.0255
| 11> C 	 4.86936 	 6.58271 	 83.5453
| 12> H 	 6.71188 	 7.26987 	 82.8375
| 13> C 	 7.92857 	 4.5333 	 82.5791
| 14> H 	 8.1635 	 3.7021 	 83.1269
| 15> H 	 8.54129 	 5.30346 	 82.8797
| 16> C 	 8.18515 	 4.16051 	 81.0486
| 17> H 	 7.63854 	 3.21355 	 80.7865
| 18> H 	 7.80381 	 4.95239 	 80.479
| 19> C 	 9.66821 	 3.99888 	 80.6792
| 20> H 	 9.77886 	 3.58423 	 79.6869
| 21> H 	 10.2201 	 4.9325 	 80.7833
| 22> H 	 10.1377 	 3.37433 	 81.4083
| 23> S 	 4.09231 	 8.95032 	 82.3465
| 24> C 	 3.10218 	 10.127 	 83.1161
| 25> C 	 2.64059 	 9.67463 	 84.2751
| 26> C 	 3.18621 	 8.36804 	 84.6001
| 27> C 	 4.14032 	 7.89587 	 83.7086
| 28> H 	 1.90374 	 10.2853 	 84.8113
| 29> C 	 3.04104 	 7.7931 	 86.0166
| 30> H 	 3.48098 	 6.76771 	 85.9995
| 31> H 	 1.96535 	 7.70137 	 86.1731
| 32> C 	 3.75014 	 8.58405 	 87.1316
| 33> H 	 3.61686 	 7.87397 	 87.9595
| 34> H 	 3.15341 	 9.43438 	 87.4127
| 35> C 	 5.2423 	 8.80533 	 86.8742
| 36> H 	 5.77713 	 7.86632 	 86.6433
| 37> H 	 5.70594 	 9.34995 	 87.7335
| 38> H 	 5.38171 	 9.44506 	 86.0025
| 39> H 	 5.39374 	 3.11768 	 83.2472
| 40> H 	 2.80325 	 11.1463 	 82.7536
| 41> *
| 42>
| 43>                          ****END OF INPUT****

CARTESIAN COORDINATES (ANGSTROEM)
---------------------------------
  S      4.045980    5.041890   83.706600
  C      5.435120    4.226130   83.211100
  C      6.484490    5.038190   82.824200
  C      6.136040    6.412080   83.025500
  C      4.869360    6.582710   83.545300
  H      6.711880    7.269870   82.837500
  C      7.928570    4.533300   82.579100
  H      8.163500    3.702100   83.126900
  H      8.541290    5.303460   82.879700
  C      8.185150    4.160510   81.048600
  H      7.638540    3.213550   80.786500
  H      7.803810    4.952390   80.479000
  C      9.668210    3.998880   80.679200
  H      9.778860    3.584230   79.686900
  H     10.220100    4.932500   80.783300
  H     10.137700    3.374330   81.408300
  S      4.092310    8.950320   82.346500
  C      3.102180   10.127000   83.116100
  C      2.640590    9.674630   84.275100
  C      3.186210    8.368040   84.600100
  C      4.140320    7.895870   83.708600
  H      1.903740   10.285300   84.811300
  C      3.041040    7.793100   86.016600
  H      3.480980    6.767710   85.999500
  H      1.965350    7.701370   86.173100
  C      3.750140    8.584050   87.131600
  H      3.616860    7.873970   87.959500
  H      3.153410    9.434380   87.412700
  C      5.242300    8.805330   86.874200
  H      5.777130    7.866320   86.643300
  H      5.705940    9.349950   87.733500
  H      5.381710    9.445060   86.002500
  H      5.393740    3.117680   83.247200
  H      2.803250   11.146300   82.753600

 Total Charge           Charge          ....    0
 Multiplicity           Mult            ....    1
 Number of Electrons    NEL             ....  134
 Basis Dimension        Dim             ....  322

ORBITAL ENERGIES
----------------

  NO   OCC          E(Eh)            E(eV)
   0   2.0000     -88.967981     -2420.9418
   1   2.0000     -88.958375     -2420.6804
   2   2.0000     -10.332965      -281.1743
   3   2.0000     -10.326454      -280.9971
   4   2.0000     -10.313967      -280.6573
   5   2.0000     -10.312095      -280.6064
   6   2.0000     -10.304388      -280.3966
   7   2.0000     -10.299981      -280.2767
   8   2.0000     -10.294667      -280.1321
   9   2.0000     -10.289382      -279.9883
  10   2.0000     -10.286969      -279.9226
  11   2.0000     -10.285955      -279.8951
  12   2.0000     -10.285770      -279.8900
  13   2.0000     -10.282098      -279.7901
  14   2.0000     -10.276003      -279.6243
  15   2.0000     -10.273967      -279.5689
  16   2.0000      -8.083727      -219.9694
  17   2.0000      -8.074360      -219.7145
  18   2.0000      -6.042059      -164.4128
  19   2.0000      -6.038030      -164.3032
  20   2.0000      -6.034672      -164.2118
  21   2.0000      -6.032903      -164.1636
  22   2.0000      -6.028584      -164.0461
  23   2.0000      -6.025089      -163.9510
  24   2.0000      -1.011831       -27.5333
  25   2.0000      -0.993781       -27.0422
  26   2.0000      -0.905575       -24.6420
  27   2.0000      -0.902798       -24.5664
  28   2.0000      -0.871728       -23.7209
  29   2.0000      -0.854726       -23.2583
  30   2.0000      -0.836668       -22.7669
  31   2.0000      -0.820894       -22.3377
  32   2.0000      -0.781942       -21.2777
  33   2.0000      -0.768898       -20.9228
  34   2.0000      -0.701809       -19.0972
  35   2.0000      -0.699298       -19.0289
  36   2.0000      -0.686008       -18.6672
  37   2.0000      -0.661639       -18.0041
  38   2.0000      -0.644088       -17.5265
  39   2.0000      -0.620091       -16.8735
  40   2.0000      -0.587284       -15.9808
  41   2.0000      -0.570652       -15.5282
  42   2.0000      -0.564327       -15.3561
  43   2.0000      -0.549286       -14.9468
  44   2.0000      -0.536466       -14.5980
  45   2.0000      -0.527414       -14.3517
  46   2.0000      -0.514303       -13.9949
  47   2.0000      -0.509863       -13.8741
  48   2.0000      -0.500728       -13.6255
  49   2.0000      -0.496339       -13.5061
  50   2.0000      -0.491534       -13.3753
  51   2.0000      -0.478683       -13.0256
  52   2.0000      -0.474276       -12.9057
  53   2.0000      -0.468810       -12.7570
  54   2.0000      -0.456928       -12.4336
  55   2.0000      -0.450527       -12.2595
  56   2.0000      -0.442340       -12.0367
  57   2.0000      -0.433579       -11.7983
  58   2.0000      -0.431728       -11.7479
  59   2.0000      -0.427967       -11.6456
  60   2.0000      -0.424007       -11.5378
  61   2.0000      -0.418453       -11.3867
  62   2.0000      -0.397852       -10.8261
  63   2.0000      -0.351445        -9.5633
  64   2.0000      -0.335785        -9.1372
  65   2.0000      -0.323542        -8.8040
  66   2.0000      -0.296794        -8.0762
  67   0.0000       0.034403         0.9362
  68   0.0000       0.080384         2.1874
  69   0.0000       0.112894         3.0720
  70   0.0000       0.116766         3.1774
  71   0.0000       0.137200         3.7334

MULLIKEN ATOMIC CHARGES
-----------------------
   0 S :    0.131515
   1 C :   -0.146648
   2 C :   -0.063186
   3 C :    0.014942
   4 C :   -0.137361
   5 H :   -0.002465
   6 C :    0.123935
   7 H :    0.007649
   8 H :    0.000297
   9 C :   -0.096025
  10 H :    0.037649
  11 H :    0.023447
  12 C :   -0.026540
  13 H :    0.041244
  14 H :    0.026121
  15 H :    0.014643
  16 S :    0.099940
  17 C :   -0.094305
  18 C :   -0.039165
  19 C :   -0.081483
  20 C :   -0.131828
  21 H :    0.024826
  22 C :    0.022996
  23 H :    0.019279
  24 H :    0.028906
  25 C :   -0.044030
  26 H :    0.026653
  27 H :    0.022578
  28 C :   -0.056784
  29 H :    0.039436
  30 H :    0.041550
  31 H :    0.041987
  32 H :    0.062846
  33 H :    0.067383
Sum of atomic charges:   -0.0000000

LOEWDIN ATOMIC CHARGES
----------------------
   0 S :    0.439806
   1 C :   -0.211482
   2 C :   -0.062928
   3 C :   -0.055362
   4 C :   -0.194763
   5 H :    0.024691
   6 C :   -0.008152
   7 H :    0.017872
   8 H :    0.019105
   9 C :   -0.032774
  10 H :    0.028207
  11 H :    0.014587
  12 C :   -0.064940
  13 H :    0.027778
  14 H :    0.024789
  15 H :    0.018736
  16 S :    0.419769
  17 C :   -0.198535
  18 C :   -0.081232
  19 C :   -0.067780
  20 C :   -0.210242
  21 H :    0.036799
  22 C :   -0.037514
  23 H :    0.022273
  24 H :    0.029025
  25 C :   -0.040948
  26 H :    0.027737
  27 H :    0.018786
  28 C :   -0.068086
  29 H :    0.031140
  30 H :    0.031345
  31 H :    0.026423
  32 H :    0.031609
  33 H :    0.044258

  Mayer bond orders larger than 0.100000
B(  0-S ,  1-C ) :   1.1801 B(  0-S ,  4-C ) :   1.1508 B(  1-C ,  2-C ) :   1.5846
B(  1-C , 32-H ) :   0.9630 B(  2-C ,  3-C ) :   1.2396 B(  2-C ,  6-C ) :   1.0192
B(  3-C ,  4-C ) :   1.5700 B(  3-C ,  5-H ) :   1.0088 B(  4-C , 20-C ) :   1.0256
B(  6-C ,  7-H ) :   0.9468 B(  6-C ,  8-H ) :   0.9448 B(  6-C ,  9-C ) :   1.0501
B(  9-C , 10-H ) :   0.9600 B(  9-C , 11-H ) :   0.9630 B(  9-C , 12-C ) :   1.0846
B( 12-C , 13-H ) :   0.9744 B( 12-C , 14-H ) :   0.9744 B( 12-C , 15-H ) :   0.9732
B( 16-S , 17-C ) :   1.1522 B( 16-S , 20-C ) :   1.1381 B( 17-C , 18-C ) :   1.6406
B( 17-C , 33-H ) :   0.9572 B( 18-C , 19-C ) :   1.2108 B( 18-C , 21-H ) :   0.9940
B( 19-C , 20-C ) :   1.5897 B( 19-C , 22-C ) :   1.0548 B( 22-C , 23-H ) :   0.9393
B( 22-C , 24-H ) :   0.9342 B( 22-C , 25-C ) :   1.0708 B( 25-C , 26-H ) :   0.9542
B( 25-C , 27-H ) :   0.9546 B( 25-C , 28-C ) :   1.0714 B( 28-C , 29-H ) :   0.9731
B( 28-C , 30-H ) :   0.9733 B( 28-C , 31-H ) :   0.9722

Dispersion correction           -0.014613888
FINAL SINGLE POINT ENERGY     -1339.878286572070

DIPOLE MOMENT
-------------
                                X             Y             Z
Electronic contribution:    -16.60911       4.31810      -5.64114
Nuclear contribution   :     16.81248      -4.34398       5.85668
                        -----------------------------------------
Total Dipole Moment    :      0.20337      -0.02589       0.21554
                        -----------------------------------------
Magnitude (a.u.)       :      0.29747
Magnitude (Debye)      :      0.75610

Rotational constants in cm-1:     0.023667     0.007145     0.006576
Rotational constants in MHz :   709.513351   214.192094   197.143638

                             ****ORCA TERMINATED NORMALLY****
TOTAL RUN TIME: 0 days 0 hours 0 minutes 34 seconds 375 msec
