                         Program Version 4.2.1 -  RELEASE  -
|  1> ! wB97X-D3 SP def2-SVP
|  2> %pal
|  3> nprocs 16
|  4> end
|  5>
|  6> * xyz 0 1
|  7> S 	 -18.654 	 -7.86884 	 87.7658
|  8> C 	 -17.6423 	 -8.15355 	 86.4535
|  9> C 	 -16.8397 	 -9.28883 	 86.5383
| 10> C 	 -17.0599 	 -9.94303 	 87.7808
| 11> C 	 -18.0562 	 -9.28517 	 88.5108
| 12> H 	 -16.4814 	 -10.7767 	 88.1069
| 13> C 	 -15.8273 	 -9.7976 	 85.4972
| 14> H 	 -15.3715 	 -10.7254 	 85.9058
| 15> H 	 -14.9766 	 -9.11701 	 85.3719
| 16> C 	 -16.3976 	 -10.2403 	 84.1547
| 17> H 	 -17.452 	 -10.6448 	 84.3124
| 18> H 	 -16.4786 	 -9.30801 	 83.4846
| 19> C 	 -15.4711 	 -11.1885 	 83.3924
| 20> H 	 -15.8134 	 -11.7165 	 82.5547
| 21> H 	 -14.5184 	 -10.7322 	 83.0468
| 22> H 	 -15.2347 	 -11.9767 	 84.0384
| 23> S 	 -18.895 	 -11.3788 	 90.1643
| 24> C 	 -19.4224 	 -10.9756 	 91.8105
| 25> C 	 -19.2425 	 -9.65401 	 92.0662
| 26> C 	 -18.7368 	 -8.89814 	 90.9745
| 27> C 	 -18.4451 	 -9.66828 	 89.8653
| 28> H 	 -19.5818 	 -9.25921 	 93.0111
| 29> C 	 -18.6881 	 -7.40834 	 91.1082
| 30> H 	 -19.4763 	 -6.99419 	 91.7379
| 31> H 	 -18.8765 	 -6.90797 	 90.2166
| 32> C 	 -17.301 	 -6.78518 	 91.4231
| 33> H 	 -16.6661 	 -7.0895 	 90.6521
| 34> H 	 -16.8731 	 -7.15883 	 92.4019
| 35> C 	 -17.2635 	 -5.26632 	 91.5081
| 36> H 	 -16.226 	 -4.92278 	 91.4965
| 37> H 	 -17.9243 	 -4.80153 	 92.237
| 38> H 	 -17.7568 	 -4.75785 	 90.6873
| 39> H 	 -17.7438 	 -7.6608 	 85.5334
| 40> H 	 -19.8113 	 -11.6005 	 92.6717
| 41> *
| 42>
| 43>                          ****END OF INPUT****

CARTESIAN COORDINATES (ANGSTROEM)
---------------------------------
  S    -18.654000   -7.868840   87.765800
  C    -17.642300   -8.153550   86.453500
  C    -16.839700   -9.288830   86.538300
  C    -17.059900   -9.943030   87.780800
  C    -18.056200   -9.285170   88.510800
  H    -16.481400  -10.776700   88.106900
  C    -15.827300   -9.797600   85.497200
  H    -15.371500  -10.725400   85.905800
  H    -14.976600   -9.117010   85.371900
  C    -16.397600  -10.240300   84.154700
  H    -17.452000  -10.644800   84.312400
  H    -16.478600   -9.308010   83.484600
  C    -15.471100  -11.188500   83.392400
  H    -15.813400  -11.716500   82.554700
  H    -14.518400  -10.732200   83.046800
  H    -15.234700  -11.976700   84.038400
  S    -18.895000  -11.378800   90.164300
  C    -19.422400  -10.975600   91.810500
  C    -19.242500   -9.654010   92.066200
  C    -18.736800   -8.898140   90.974500
  C    -18.445100   -9.668280   89.865300
  H    -19.581800   -9.259210   93.011100
  C    -18.688100   -7.408340   91.108200
  H    -19.476300   -6.994190   91.737900
  H    -18.876500   -6.907970   90.216600
  C    -17.301000   -6.785180   91.423100
  H    -16.666100   -7.089500   90.652100
  H    -16.873100   -7.158830   92.401900
  C    -17.263500   -5.266320   91.508100
  H    -16.226000   -4.922780   91.496500
  H    -17.924300   -4.801530   92.237000
  H    -17.756800   -4.757850   90.687300
  H    -17.743800   -7.660800   85.533400
  H    -19.811300  -11.600500   92.671700

 Total Charge           Charge          ....    0
 Multiplicity           Mult            ....    1
 Number of Electrons    NEL             ....  134
 Basis Dimension        Dim             ....  322

ORBITAL ENERGIES
----------------

  NO   OCC          E(Eh)            E(eV)
   0   2.0000     -88.975186     -2421.1379
   1   2.0000     -88.965909     -2420.8855
   2   2.0000     -10.327973      -281.0384
   3   2.0000     -10.327758      -281.0326
   4   2.0000     -10.318057      -280.7686
   5   2.0000     -10.305067      -280.4151
   6   2.0000     -10.301614      -280.3212
   7   2.0000     -10.298750      -280.2432
   8   2.0000     -10.298121      -280.2261
   9   2.0000     -10.296948      -280.1942
  10   2.0000     -10.293943      -280.1124
  11   2.0000     -10.286227      -279.9025
  12   2.0000     -10.282777      -279.8086
  13   2.0000     -10.282193      -279.7927
  14   2.0000     -10.273515      -279.5565
  15   2.0000     -10.272846      -279.5384
  16   2.0000      -8.091178      -220.1721
  17   2.0000      -8.079311      -219.8492
  18   2.0000      -6.049405      -164.6127
  19   2.0000      -6.045461      -164.5053
  20   2.0000      -6.042216      -164.4171
  21   2.0000      -6.038082      -164.3046
  22   2.0000      -6.034070      -164.1954
  23   2.0000      -6.029798      -164.0792
  24   2.0000      -1.014079       -27.5945
  25   2.0000      -0.985070       -26.8051
  26   2.0000      -0.912489       -24.8301
  27   2.0000      -0.907277       -24.6883
  28   2.0000      -0.869685       -23.6653
  29   2.0000      -0.860566       -23.4172
  30   2.0000      -0.847699       -23.0671
  31   2.0000      -0.812861       -22.1191
  32   2.0000      -0.786688       -21.4069
  33   2.0000      -0.772688       -21.0259
  34   2.0000      -0.707731       -19.2583
  35   2.0000      -0.700320       -19.0567
  36   2.0000      -0.691959       -18.8292
  37   2.0000      -0.661890       -18.0110
  38   2.0000      -0.645593       -17.5675
  39   2.0000      -0.615646       -16.7526
  40   2.0000      -0.598233       -16.2787
  41   2.0000      -0.570375       -15.5207
  42   2.0000      -0.566206       -15.4072
  43   2.0000      -0.557928       -15.1820
  44   2.0000      -0.532006       -14.4766
  45   2.0000      -0.526014       -14.3136
  46   2.0000      -0.513456       -13.9719
  47   2.0000      -0.507416       -13.8075
  48   2.0000      -0.504632       -13.7317
  49   2.0000      -0.496171       -13.5015
  50   2.0000      -0.492132       -13.3916
  51   2.0000      -0.481760       -13.1094
  52   2.0000      -0.474569       -12.9137
  53   2.0000      -0.463932       -12.6242
  54   2.0000      -0.461883       -12.5685
  55   2.0000      -0.449775       -12.2390
  56   2.0000      -0.443615       -12.0714
  57   2.0000      -0.436979       -11.8908
  58   2.0000      -0.434257       -11.8167
  59   2.0000      -0.430356       -11.7106
  60   2.0000      -0.422434       -11.4950
  61   2.0000      -0.409610       -11.1461
  62   2.0000      -0.405905       -11.0452
  63   2.0000      -0.352084        -9.5807
  64   2.0000      -0.338494        -9.2109
  65   2.0000      -0.329891        -8.9768
  66   2.0000      -0.286724        -7.8022
  67   0.0000       0.028155         0.7661
  68   0.0000       0.075321         2.0496
  69   0.0000       0.108022         2.9394
  70   0.0000       0.117335         3.1928
  71   0.0000       0.134375         3.6565

MULLIKEN ATOMIC CHARGES
-----------------------
   0 S :    0.148351
   1 C :   -0.098168
   2 C :   -0.088214
   3 C :    0.013376
   4 C :   -0.146634
   5 H :    0.010816
   6 C :    0.069279
   7 H :    0.009669
   8 H :    0.043933
   9 C :   -0.119776
  10 H :    0.053813
  11 H :    0.038826
  12 C :   -0.017861
  13 H :    0.021219
  14 H :    0.032192
  15 H :    0.008770
  16 S :    0.098528
  17 C :   -0.103650
  18 C :   -0.041863
  19 C :   -0.022854
  20 C :   -0.130112
  21 H :    0.012342
  22 C :    0.076185
  23 H :    0.019012
  24 H :   -0.015548
  25 C :   -0.059051
  26 H :    0.022075
  27 H :    0.032161
  28 C :   -0.035328
  29 H :    0.045004
  30 H :    0.019733
  31 H :    0.004173
  32 H :    0.025953
  33 H :    0.073647
Sum of atomic charges:   -0.0000000

LOEWDIN ATOMIC CHARGES
----------------------
   0 S :    0.479311
   1 C :   -0.215226
   2 C :   -0.058999
   3 C :   -0.055160
   4 C :   -0.209148
   5 H :    0.028930
   6 C :   -0.034968
   7 H :    0.029002
   8 H :    0.034387
   9 C :   -0.050308
  10 H :    0.034726
  11 H :    0.028106
  12 C :   -0.067291
  13 H :    0.022225
  14 H :    0.031600
  15 H :    0.016603
  16 S :    0.378448
  17 C :   -0.193473
  18 C :   -0.070594
  19 C :   -0.062852
  20 C :   -0.178902
  21 H :    0.030329
  22 C :   -0.036731
  23 H :    0.030550
  24 H :    0.006804
  25 C :   -0.030798
  26 H :    0.018036
  27 H :    0.026154
  28 C :   -0.074990
  29 H :    0.032674
  30 H :    0.025471
  31 H :    0.021237
  32 H :    0.015468
  33 H :    0.049378

  Mayer bond orders larger than 0.100000
B(  0-S ,  1-C ) :   1.1693 B(  0-S ,  4-C ) :   1.1870 B(  1-C ,  2-C ) :   1.5765
B(  1-C , 32-H ) :   0.9701 B(  2-C ,  3-C ) :   1.2941 B(  2-C ,  6-C ) :   1.0173
B(  3-C ,  4-C ) :   1.5034 B(  3-C ,  5-H ) :   0.9990 B(  4-C , 20-C ) :   1.0453
B(  6-C ,  7-H ) :   0.9467 B(  6-C ,  8-H ) :   0.9365 B(  6-C ,  9-C ) :   1.0491
B(  9-C , 10-H ) :   0.9604 B(  9-C , 11-H ) :   0.9528 B(  9-C , 12-C ) :   1.0783
B( 12-C , 13-H ) :   0.9731 B( 12-C , 14-H ) :   0.9731 B( 12-C , 15-H ) :   0.9724
B( 16-S , 17-C ) :   1.1260 B( 16-S , 20-C ) :   1.1188 B( 17-C , 18-C ) :   1.6566
B( 17-C , 33-H ) :   0.9528 B( 18-C , 19-C ) :   1.2245 B( 18-C , 21-H ) :   0.9887
B( 19-C , 20-C ) :   1.6027 B( 19-C , 22-C ) :   1.0550 B( 22-C , 23-H ) :   0.9353
B( 22-C , 24-H ) :   0.9225 B( 22-C , 25-C ) :   1.0497 B( 25-C , 26-H ) :   0.9555
B( 25-C , 27-H ) :   0.9564 B( 25-C , 28-C ) :   1.0889 B( 28-C , 29-H ) :   0.9733
B( 28-C , 30-H ) :   0.9700 B( 28-C , 31-H ) :   0.9649

Dispersion correction           -0.013883971
FINAL SINGLE POINT ENERGY     -1339.866481527269

DIPOLE MOMENT
-------------
                                X             Y             Z
Electronic contribution:    -13.24956      -8.05654       8.37759
Nuclear contribution   :     13.42555       8.26214      -8.52889
                        -----------------------------------------
Total Dipole Moment    :      0.17599       0.20560      -0.15130
                        -----------------------------------------
Magnitude (a.u.)       :      0.31006
Magnitude (Debye)      :      0.78811

Rotational constants in cm-1:     0.020676     0.007724     0.006133
Rotational constants in MHz :   619.836360   231.544759   183.854327

                             ****ORCA TERMINATED NORMALLY****
TOTAL RUN TIME: 0 days 0 hours 0 minutes 33 seconds 474 msec
