                         Program Version 4.2.1 -  RELEASE  -
|  1> ! wB97X-D3 SP def2-SVP
|  2> %pal
|  3> nprocs 16
|  4> end
|  5>
|  6> * xyz 0 1
|  7> S 	 34.0934 	 21.6909 	 49.2036
|  8> C 	 33.7719 	 23.007 	 50.3023
|  9> C 	 33.755 	 22.6045 	 51.6116
| 10> C 	 33.9691 	 21.2028 	 51.6858
| 11> C 	 34.2667 	 20.5387 	 50.4848
| 12> H 	 33.83 	 20.7495 	 52.6475
| 13> C 	 33.3391 	 23.4861 	 52.8099
| 14> H 	 33.6549 	 24.5355 	 52.5544
| 15> H 	 34.0763 	 23.2177 	 53.5262
| 16> C 	 31.9246 	 23.4919 	 53.3661
| 17> H 	 31.2723 	 23.8496 	 52.6236
| 18> H 	 31.5177 	 22.4715 	 53.3913
| 19> C 	 31.7395 	 24.1749 	 54.6836
| 20> H 	 32.3234 	 23.7825 	 55.4781
| 21> H 	 31.9706 	 25.252 	 54.5362
| 22> H 	 30.6497 	 24.1269 	 54.9164
| 23> S 	 33.9824 	 18.5679 	 48.6111
| 24> C 	 35.0342 	 17.2103 	 48.676
| 25> C 	 35.7895 	 17.1389 	 49.8268
| 26> C 	 35.4869 	 18.2309 	 50.6875
| 27> C 	 34.5318 	 19.1027 	 50.1715
| 28> H 	 36.5128 	 16.3393 	 49.9086
| 29> C 	 36.4486 	 18.4855 	 51.9492
| 30> H 	 36.9291 	 17.5293 	 52.2176
| 31> H 	 35.8963 	 18.8712 	 52.8148
| 32> C 	 37.6342 	 19.5445 	 51.6502
| 33> H 	 37.2362 	 20.4503 	 51.2589
| 34> H 	 38.2532 	 19.2108 	 50.8014
| 35> C 	 38.4493 	 19.6946 	 52.953
| 36> H 	 39.344 	 20.4005 	 52.8889
| 37> H 	 38.8463 	 18.7512 	 53.2028
| 38> H 	 37.8728 	 20.0331 	 53.7601
| 39> H 	 33.5846 	 23.9749 	 49.9558
| 40> H 	 35.1785 	 16.3819 	 47.9249
| 41> *
| 42>
| 43>                          ****END OF INPUT****

CARTESIAN COORDINATES (ANGSTROEM)
---------------------------------
  S     34.093400   21.690900   49.203600
  C     33.771900   23.007000   50.302300
  C     33.755000   22.604500   51.611600
  C     33.969100   21.202800   51.685800
  C     34.266700   20.538700   50.484800
  H     33.830000   20.749500   52.647500
  C     33.339100   23.486100   52.809900
  H     33.654900   24.535500   52.554400
  H     34.076300   23.217700   53.526200
  C     31.924600   23.491900   53.366100
  H     31.272300   23.849600   52.623600
  H     31.517700   22.471500   53.391300
  C     31.739500   24.174900   54.683600
  H     32.323400   23.782500   55.478100
  H     31.970600   25.252000   54.536200
  H     30.649700   24.126900   54.916400
  S     33.982400   18.567900   48.611100
  C     35.034200   17.210300   48.676000
  C     35.789500   17.138900   49.826800
  C     35.486900   18.230900   50.687500
  C     34.531800   19.102700   50.171500
  H     36.512800   16.339300   49.908600
  C     36.448600   18.485500   51.949200
  H     36.929100   17.529300   52.217600
  H     35.896300   18.871200   52.814800
  C     37.634200   19.544500   51.650200
  H     37.236200   20.450300   51.258900
  H     38.253200   19.210800   50.801400
  C     38.449300   19.694600   52.953000
  H     39.344000   20.400500   52.888900
  H     38.846300   18.751200   53.202800
  H     37.872800   20.033100   53.760100
  H     33.584600   23.974900   49.955800
  H     35.178500   16.381900   47.924900

 Total Charge           Charge          ....    0
 Multiplicity           Mult            ....    1
 Number of Electrons    NEL             ....  134
 Basis Dimension        Dim             ....  322

ORBITAL ENERGIES
----------------

  NO   OCC          E(Eh)            E(eV)
   0   2.0000     -88.970341     -2421.0061
   1   2.0000     -88.964917     -2420.8585
   2   2.0000     -10.334811      -281.2245
   3   2.0000     -10.330297      -281.1017
   4   2.0000     -10.318835      -280.7898
   5   2.0000     -10.310705      -280.5685
   6   2.0000     -10.306968      -280.4669
   7   2.0000     -10.303121      -280.3622
   8   2.0000     -10.298460      -280.2353
   9   2.0000     -10.293924      -280.1119
  10   2.0000     -10.293619      -280.1036
  11   2.0000     -10.291267      -280.0396
  12   2.0000     -10.286054      -279.8977
  13   2.0000     -10.281691      -279.7790
  14   2.0000     -10.281408      -279.7713
  15   2.0000     -10.274343      -279.5791
  16   2.0000      -8.085636      -220.0213
  17   2.0000      -8.080067      -219.8698
  18   2.0000      -6.044049      -164.4669
  19   2.0000      -6.040011      -164.3571
  20   2.0000      -6.038580      -164.3181
  21   2.0000      -6.036508      -164.2617
  22   2.0000      -6.034393      -164.2042
  23   2.0000      -6.030917      -164.1096
  24   2.0000      -1.010002       -27.4836
  25   2.0000      -0.987918       -26.8826
  26   2.0000      -0.913864       -24.8675
  27   2.0000      -0.893541       -24.3145
  28   2.0000      -0.872155       -23.7325
  29   2.0000      -0.848844       -23.0982
  30   2.0000      -0.846850       -23.0440
  31   2.0000      -0.813095       -22.1254
  32   2.0000      -0.782296       -21.2874
  33   2.0000      -0.768679       -20.9168
  34   2.0000      -0.709156       -19.2971
  35   2.0000      -0.704976       -19.1834
  36   2.0000      -0.692228       -18.8365
  37   2.0000      -0.660911       -17.9843
  38   2.0000      -0.638530       -17.3753
  39   2.0000      -0.626458       -17.0468
  40   2.0000      -0.588426       -16.0119
  41   2.0000      -0.570512       -15.5244
  42   2.0000      -0.560747       -15.2587
  43   2.0000      -0.555679       -15.1208
  44   2.0000      -0.532112       -14.4795
  45   2.0000      -0.521699       -14.1961
  46   2.0000      -0.511793       -13.9266
  47   2.0000      -0.503715       -13.7068
  48   2.0000      -0.499236       -13.5849
  49   2.0000      -0.496692       -13.5157
  50   2.0000      -0.492654       -13.4058
  51   2.0000      -0.483855       -13.1664
  52   2.0000      -0.470203       -12.7949
  53   2.0000      -0.468903       -12.7595
  54   2.0000      -0.457741       -12.4558
  55   2.0000      -0.454783       -12.3753
  56   2.0000      -0.444699       -12.1009
  57   2.0000      -0.443226       -12.0608
  58   2.0000      -0.433933       -11.8079
  59   2.0000      -0.423886       -11.5345
  60   2.0000      -0.418510       -11.3882
  61   2.0000      -0.416247       -11.3267
  62   2.0000      -0.408271       -11.1096
  63   2.0000      -0.352640        -9.5958
  64   2.0000      -0.335828        -9.1383
  65   2.0000      -0.331530        -9.0214
  66   2.0000      -0.287733        -7.8296
  67   0.0000       0.026577         0.7232
  68   0.0000       0.075055         2.0423
  69   0.0000       0.111568         3.0359
  70   0.0000       0.123223         3.3531
  71   0.0000       0.142013         3.8644

MULLIKEN ATOMIC CHARGES
-----------------------
   0 S :    0.099982
   1 C :   -0.111096
   2 C :   -0.093448
   3 C :    0.016906
   4 C :   -0.128543
   5 H :   -0.000982
   6 C :    0.062015
   7 H :    0.018583
   8 H :    0.011636
   9 C :   -0.026394
  10 H :    0.008924
  11 H :    0.016025
  12 C :   -0.038649
  13 H :    0.034699
  14 H :    0.032474
  15 H :    0.041747
  16 S :    0.113538
  17 C :   -0.111888
  18 C :   -0.040878
  19 C :   -0.023716
  20 C :   -0.126770
  21 H :    0.021491
  22 C :    0.023911
  23 H :    0.026912
  24 H :    0.032329
  25 C :   -0.060545
  26 H :    0.032538
  27 H :    0.027061
  28 C :   -0.026357
  29 H :    0.040583
  30 H :    0.014708
  31 H :    0.020166
  32 H :    0.023155
  33 H :    0.069884
Sum of atomic charges:   -0.0000000

LOEWDIN ATOMIC CHARGES
----------------------
   0 S :    0.413753
   1 C :   -0.187672
   2 C :   -0.066263
   3 C :   -0.069637
   4 C :   -0.196925
   5 H :    0.024312
   6 C :   -0.032225
   7 H :    0.033444
   8 H :    0.024346
   9 C :   -0.047842
  10 H :    0.021011
  11 H :    0.025992
  12 C :   -0.059040
  13 H :    0.020867
  14 H :    0.029165
  15 H :    0.036160
  16 S :    0.426959
  17 C :   -0.202095
  18 C :   -0.076163
  19 C :   -0.050251
  20 C :   -0.208243
  21 H :    0.034038
  22 C :   -0.022387
  23 H :    0.027876
  24 H :    0.026559
  25 C :   -0.033278
  26 H :    0.019281
  27 H :    0.025038
  28 C :   -0.062243
  29 H :    0.034317
  30 H :    0.017592
  31 H :    0.016801
  32 H :    0.014341
  33 H :    0.042413

  Mayer bond orders larger than 0.100000
B(  0-S ,  1-C ) :   1.1507 B(  0-S ,  4-C ) :   1.1612 B(  1-C ,  2-C ) :   1.5861
B(  1-C , 32-H ) :   0.9776 B(  2-C ,  3-C ) :   1.2883 B(  2-C ,  6-C ) :   1.0148
B(  3-C ,  4-C ) :   1.5356 B(  3-C ,  5-H ) :   0.9987 B(  4-C , 20-C ) :   1.0372
B(  6-C ,  7-H ) :   0.9378 B(  6-C ,  8-H ) :   0.9354 B(  6-C ,  9-C ) :   1.0596
B(  9-C , 10-H ) :   0.9447 B(  9-C , 11-H ) :   0.9490 B(  9-C , 12-C ) :   1.0871
B( 12-C , 13-H ) :   0.9765 B( 12-C , 14-H ) :   0.9740 B( 12-C , 15-H ) :   0.9705
B( 16-S , 17-C ) :   1.1674 B( 16-S , 20-C ) :   1.1394 B( 17-C , 18-C ) :   1.6143
B( 17-C , 33-H ) :   0.9548 B( 18-C , 19-C ) :   1.2600 B( 18-C , 21-H ) :   0.9923
B( 19-C , 20-C ) :   1.5833 B( 19-C , 22-C ) :   1.0257 B( 22-C , 23-H ) :   0.9471
B( 22-C , 24-H ) :   0.9491 B( 22-C , 25-C ) :   1.0415 B( 25-C , 26-H ) :   0.9615
B( 25-C , 27-H ) :   0.9583 B( 25-C , 28-C ) :   1.0705 B( 28-C , 29-H ) :   0.9733
B( 28-C , 30-H ) :   0.9747 B( 28-C , 31-H ) :   0.9769

Dispersion correction           -0.013817482
FINAL SINGLE POINT ENERGY     -1339.872798594802

DIPOLE MOMENT
-------------
                                X             Y             Z
Electronic contribution:     -6.20918     -10.33998     -26.14405
Nuclear contribution   :      6.40192      10.39306      26.58874
                        -----------------------------------------
Total Dipole Moment    :      0.19274       0.05308       0.44468
                        -----------------------------------------
Magnitude (a.u.)       :      0.48755
Magnitude (Debye)      :      1.23926

Rotational constants in cm-1:     0.018631     0.008031     0.006443
Rotational constants in MHz :   558.543596   240.752472   193.142083

                             ****ORCA TERMINATED NORMALLY****
TOTAL RUN TIME: 0 days 0 hours 0 minutes 34 seconds 261 msec
