                         Program Version 4.2.1 -  RELEASE  -
|  1> ! wB97X-D3 SP def2-SVP
|  2> %pal
|  3> nprocs 16
|  4> end
|  5>
|  6> * xyz 0 1
|  7> S 	 46.5379 	 11.5299 	 50.442
|  8> C 	 45.3327 	 10.7792 	 49.2694
|  9> C 	 44.289 	 11.6425 	 48.9846
| 10> C 	 44.3524 	 12.8307 	 49.7111
| 11> C 	 45.4433 	 12.9248 	 50.5671
| 12> H 	 43.552 	 13.5654 	 49.7458
| 13> C 	 43.1116 	 11.3585 	 48.0784
| 14> H 	 43.2813 	 10.4676 	 47.518
| 15> H 	 42.9885 	 12.2249 	 47.3937
| 16> C 	 41.8115 	 11.0729 	 48.8673
| 17> H 	 41.9674 	 10.1974 	 49.521
| 18> H 	 41.5682 	 11.8314 	 49.5717
| 19> C 	 40.5716 	 10.9094 	 47.9667
| 20> H 	 39.6294 	 11.0238 	 48.5942
| 21> H 	 40.5695 	 11.745 	 47.268
| 22> H 	 40.6009 	 9.96163 	 47.4313
| 23> S 	 47.2417 	 14.9044 	 51.248
| 24> C 	 46.8589 	 16.0354 	 52.4933
| 25> C 	 45.5557 	 15.8324 	 52.9824
| 26> C 	 44.9541 	 14.7039 	 52.4208
| 27> C 	 45.7325 	 14.0338 	 51.5074
| 28> H 	 45.2375 	 16.3314 	 53.8664
| 29> C 	 43.5466 	 14.3543 	 52.8395
| 30> H 	 43.6972 	 14.2588 	 53.9272
| 31> H 	 43.3869 	 13.3764 	 52.4885
| 32> C 	 42.3852 	 15.1938 	 52.2509
| 33> H 	 42.3595 	 15.377 	 51.1322
| 34> H 	 42.4016 	 16.203 	 52.8383
| 35> C 	 41.071 	 14.4906 	 52.5657
| 36> H 	 40.9248 	 14.3097 	 53.6476
| 37> H 	 41.0124 	 13.5759 	 52.0353
| 38> H 	 40.1755 	 15.0497 	 52.2019
| 39> H 	 45.5113 	 9.8369 	 48.7864
| 40> H 	 47.5305 	 16.7121 	 52.9507
| 41> *
| 42>
| 43>                          ****END OF INPUT****

CARTESIAN COORDINATES (ANGSTROEM)
---------------------------------
  S     46.537900   11.529900   50.442000
  C     45.332700   10.779200   49.269400
  C     44.289000   11.642500   48.984600
  C     44.352400   12.830700   49.711100
  C     45.443300   12.924800   50.567100
  H     43.552000   13.565400   49.745800
  C     43.111600   11.358500   48.078400
  H     43.281300   10.467600   47.518000
  H     42.988500   12.224900   47.393700
  C     41.811500   11.072900   48.867300
  H     41.967400   10.197400   49.521000
  H     41.568200   11.831400   49.571700
  C     40.571600   10.909400   47.966700
  H     39.629400   11.023800   48.594200
  H     40.569500   11.745000   47.268000
  H     40.600900    9.961630   47.431300
  S     47.241700   14.904400   51.248000
  C     46.858900   16.035400   52.493300
  C     45.555700   15.832400   52.982400
  C     44.954100   14.703900   52.420800
  C     45.732500   14.033800   51.507400
  H     45.237500   16.331400   53.866400
  C     43.546600   14.354300   52.839500
  H     43.697200   14.258800   53.927200
  H     43.386900   13.376400   52.488500
  C     42.385200   15.193800   52.250900
  H     42.359500   15.377000   51.132200
  H     42.401600   16.203000   52.838300
  C     41.071000   14.490600   52.565700
  H     40.924800   14.309700   53.647600
  H     41.012400   13.575900   52.035300
  H     40.175500   15.049700   52.201900
  H     45.511300    9.836900   48.786400
  H     47.530500   16.712100   52.950700

 Total Charge           Charge          ....    0
 Multiplicity           Mult            ....    1
 Number of Electrons    NEL             ....  134
 Basis Dimension        Dim             ....  322

ORBITAL ENERGIES
----------------

  NO   OCC          E(Eh)            E(eV)
   0   2.0000     -88.968994     -2420.9694
   1   2.0000     -88.964415     -2420.8448
   2   2.0000     -10.334820      -281.2247
   3   2.0000     -10.323543      -280.9179
   4   2.0000     -10.320446      -280.8336
   5   2.0000     -10.314883      -280.6822
   6   2.0000     -10.303786      -280.3803
   7   2.0000     -10.301150      -280.3085
   8   2.0000     -10.296061      -280.1701
   9   2.0000     -10.296008      -280.1686
  10   2.0000     -10.293602      -280.1032
  11   2.0000     -10.287774      -279.9446
  12   2.0000     -10.287532      -279.9380
  13   2.0000     -10.287336      -279.9326
  14   2.0000     -10.285871      -279.8928
  15   2.0000     -10.279344      -279.7152
  16   2.0000      -8.081905      -219.9198
  17   2.0000      -8.079419      -219.8522
  18   2.0000      -6.040466      -164.3694
  19   2.0000      -6.037789      -164.2966
  20   2.0000      -6.036825      -164.2704
  21   2.0000      -6.033845      -164.1893
  22   2.0000      -6.032574      -164.1547
  23   2.0000      -6.030358      -164.0944
  24   2.0000      -1.003849       -27.3161
  25   2.0000      -0.980914       -26.6920
  26   2.0000      -0.912339       -24.8260
  27   2.0000      -0.910227       -24.7685
  28   2.0000      -0.865280       -23.5455
  29   2.0000      -0.856304       -23.3012
  30   2.0000      -0.844940       -22.9920
  31   2.0000      -0.811579       -22.0842
  32   2.0000      -0.782003       -21.2794
  33   2.0000      -0.770788       -20.9742
  34   2.0000      -0.704815       -19.1790
  35   2.0000      -0.699358       -19.0305
  36   2.0000      -0.695361       -18.9217
  37   2.0000      -0.665069       -18.0974
  38   2.0000      -0.641623       -17.4595
  39   2.0000      -0.623607       -16.9692
  40   2.0000      -0.594035       -16.1645
  41   2.0000      -0.569173       -15.4880
  42   2.0000      -0.567081       -15.4311
  43   2.0000      -0.561277       -15.2731
  44   2.0000      -0.528788       -14.3890
  45   2.0000      -0.522635       -14.2216
  46   2.0000      -0.520078       -14.1521
  47   2.0000      -0.511903       -13.9296
  48   2.0000      -0.509057       -13.8521
  49   2.0000      -0.496644       -13.5144
  50   2.0000      -0.489374       -13.3166
  51   2.0000      -0.479506       -13.0480
  52   2.0000      -0.470674       -12.8077
  53   2.0000      -0.468223       -12.7410
  54   2.0000      -0.455161       -12.3856
  55   2.0000      -0.446802       -12.1581
  56   2.0000      -0.445344       -12.1184
  57   2.0000      -0.440059       -11.9746
  58   2.0000      -0.435068       -11.8388
  59   2.0000      -0.426605       -11.6085
  60   2.0000      -0.423371       -11.5205
  61   2.0000      -0.420607       -11.4453
  62   2.0000      -0.409425       -11.1410
  63   2.0000      -0.338268        -9.2047
  64   2.0000      -0.336181        -9.1480
  65   2.0000      -0.330469        -8.9925
  66   2.0000      -0.294885        -8.0242
  67   0.0000       0.028097         0.7645
  68   0.0000       0.065890         1.7930
  69   0.0000       0.101671         2.7666
  70   0.0000       0.117434         3.1956
  71   0.0000       0.125900         3.4259

MULLIKEN ATOMIC CHARGES
-----------------------
   0 S :    0.096399
   1 C :   -0.127984
   2 C :   -0.062296
   3 C :    0.039825
   4 C :   -0.156613
   5 H :    0.001966
   6 C :    0.086267
   7 H :    0.010386
   8 H :    0.038488
   9 C :   -0.095607
  10 H :    0.031018
  11 H :    0.014815
  12 C :   -0.047526
  13 H :    0.045073
  14 H :    0.025899
  15 H :    0.041055
  16 S :    0.107818
  17 C :   -0.081079
  18 C :   -0.030276
  19 C :   -0.058607
  20 C :   -0.143705
  21 H :    0.011914
  22 C :    0.078260
  23 H :    0.041803
  24 H :   -0.002173
  25 C :   -0.095357
  26 H :    0.056956
  27 H :    0.044186
  28 C :   -0.054791
  29 H :    0.036983
  30 H :    0.023304
  31 H :    0.035207
  32 H :    0.041538
  33 H :    0.046853
Sum of atomic charges:    0.0000000

LOEWDIN ATOMIC CHARGES
----------------------
   0 S :    0.360459
   1 C :   -0.166729
   2 C :   -0.061314
   3 C :   -0.061001
   4 C :   -0.178093
   5 H :    0.030388
   6 C :   -0.024983
   7 H :    0.025599
   8 H :    0.035609
   9 C :   -0.043038
  10 H :    0.027532
  11 H :    0.014193
  12 C :   -0.065717
  13 H :    0.035738
  14 H :    0.022732
  15 H :    0.024494
  16 S :    0.415759
  17 C :   -0.181262
  18 C :   -0.071670
  19 C :   -0.060680
  20 C :   -0.203803
  21 H :    0.027143
  22 C :   -0.033872
  23 H :    0.041852
  24 H :    0.019215
  25 C :   -0.043792
  26 H :    0.034860
  27 H :    0.032975
  28 C :   -0.070969
  29 H :    0.028113
  30 H :    0.016385
  31 H :    0.029239
  32 H :    0.022826
  33 H :    0.021812

  Mayer bond orders larger than 0.100000
B(  0-S ,  1-C ) :   1.1108 B(  0-S ,  4-C ) :   1.1512 B(  1-C ,  2-C ) :   1.6256
B(  1-C ,  4-C ) :   0.1050 B(  1-C , 32-H ) :   0.9696 B(  2-C ,  3-C ) :   1.2319
B(  2-C ,  6-C ) :   1.0331 B(  3-C ,  4-C ) :   1.5815 B(  3-C ,  5-H ) :   0.9927
B(  4-C , 20-C ) :   1.0031 B(  6-C ,  7-H ) :   0.9377 B(  6-C ,  8-H ) :   0.9368
B(  6-C ,  9-C ) :   1.0588 B(  9-C , 10-H ) :   0.9517 B(  9-C , 11-H ) :   0.9599
B(  9-C , 12-C ) :   1.0789 B( 12-C , 13-H ) :   0.9751 B( 12-C , 14-H ) :   0.9740
B( 12-C , 15-H ) :   0.9774 B( 16-S , 17-C ) :   1.1806 B( 16-S , 20-C ) :   1.1407
B( 17-C , 18-C ) :   1.5746 B( 17-C , 20-C ) :   0.1052 B( 17-C , 33-H ) :   0.9709
B( 18-C , 19-C ) :   1.2672 B( 18-C , 21-H ) :   0.9915 B( 19-C , 20-C ) :   1.6051
B( 19-C , 22-C ) :   1.0345 B( 22-C , 23-H ) :   0.9330 B( 22-C , 24-H ) :   0.9322
B( 22-C , 25-C ) :   1.0468 B( 25-C , 26-H ) :   0.9544 B( 25-C , 27-H ) :   0.9509
B( 25-C , 28-C ) :   1.0852 B( 28-C , 29-H ) :   0.9718 B( 28-C , 30-H ) :   0.9736
B( 28-C , 31-H ) :   0.9727

Dispersion correction           -0.014522537
FINAL SINGLE POINT ENERGY     -1339.878121334523

DIPOLE MOMENT
-------------
                                X             Y             Z
Electronic contribution:     33.37924       2.53322       2.71368
Nuclear contribution   :    -34.11373      -2.52535      -2.66587
                        -----------------------------------------
Total Dipole Moment    :     -0.73450       0.00788       0.04781
                        -----------------------------------------
Magnitude (a.u.)       :      0.73609
Magnitude (Debye)      :      1.87100

Rotational constants in cm-1:     0.017233     0.009627     0.006642
Rotational constants in MHz :   516.637057   288.605352   199.128984

                             ****ORCA TERMINATED NORMALLY****
TOTAL RUN TIME: 0 days 0 hours 0 minutes 35 seconds 806 msec
