                         Program Version 4.2.1 -  RELEASE  -
|  1> ! wB97X-D3 SP def2-SVP
|  2> %pal
|  3> nprocs 16
|  4> end
|  5>
|  6> * xyz 0 1
|  7> S 	 -32.3865 	 66.7622 	 140.779
|  8> C 	 -31.829 	 68.3769 	 140.745
|  9> C 	 -32.2582 	 69.192 	 141.787
| 10> C 	 -33.1292 	 68.4409 	 142.692
| 11> C 	 -33.348 	 67.1649 	 142.2
| 12> H 	 -33.4901 	 68.7766 	 143.601
| 13> C 	 -31.9933 	 70.7189 	 142.006
| 14> H 	 -30.9791 	 71.0115 	 141.934
| 15> H 	 -32.347 	 70.9245 	 143.021
| 16> C 	 -32.8361 	 71.7611 	 141.174
| 17> H 	 -33.8517 	 71.6901 	 141.393
| 18> H 	 -32.4985 	 72.7621 	 141.499
| 19> C 	 -32.596 	 71.7345 	 139.654
| 20> H 	 -31.5701 	 71.765 	 139.388
| 21> H 	 -33.1198 	 70.8331 	 139.378
| 22> H 	 -33.1754 	 72.4722 	 139.146
| 23> S 	 -35.1302 	 65.1642 	 141.627
| 24> C 	 -35.9114 	 64.2867 	 142.975
| 25> C 	 -35.5434 	 64.7841 	 144.221
| 26> C 	 -34.5022 	 65.7575 	 144.142
| 27> C 	 -34.2381 	 66.1583 	 142.789
| 28> H 	 -35.9947 	 64.3115 	 145.089
| 29> C 	 -33.8528 	 66.2694 	 145.377
| 30> H 	 -34.3672 	 65.6738 	 146.168
| 31> H 	 -34.2402 	 67.2839 	 145.614
| 32> C 	 -32.3254 	 65.8973 	 145.563
| 33> H 	 -31.8334 	 66.6485 	 144.965
| 34> H 	 -32.0948 	 64.8571 	 145.278
| 35> C 	 -31.8444 	 66.0785 	 147.015
| 36> H 	 -31.2407 	 66.9179 	 147.106
| 37> H 	 -31.0887 	 65.3464 	 147.194
| 38> H 	 -32.6591 	 66.1641 	 147.743
| 39> H 	 -31.1687 	 68.7156 	 139.963
| 40> H 	 -36.5512 	 63.382 	 142.868
| 41> *
| 42>
| 43>                          ****END OF INPUT****

CARTESIAN COORDINATES (ANGSTROEM)
---------------------------------
  S    -32.386500   66.762200  140.779000
  C    -31.829000   68.376900  140.745000
  C    -32.258200   69.192000  141.787000
  C    -33.129200   68.440900  142.692000
  C    -33.348000   67.164900  142.200000
  H    -33.490100   68.776600  143.601000
  C    -31.993300   70.718900  142.006000
  H    -30.979100   71.011500  141.934000
  H    -32.347000   70.924500  143.021000
  C    -32.836100   71.761100  141.174000
  H    -33.851700   71.690100  141.393000
  H    -32.498500   72.762100  141.499000
  C    -32.596000   71.734500  139.654000
  H    -31.570100   71.765000  139.388000
  H    -33.119800   70.833100  139.378000
  H    -33.175400   72.472200  139.146000
  S    -35.130200   65.164200  141.627000
  C    -35.911400   64.286700  142.975000
  C    -35.543400   64.784100  144.221000
  C    -34.502200   65.757500  144.142000
  C    -34.238100   66.158300  142.789000
  H    -35.994700   64.311500  145.089000
  C    -33.852800   66.269400  145.377000
  H    -34.367200   65.673800  146.168000
  H    -34.240200   67.283900  145.614000
  C    -32.325400   65.897300  145.563000
  H    -31.833400   66.648500  144.965000
  H    -32.094800   64.857100  145.278000
  C    -31.844400   66.078500  147.015000
  H    -31.240700   66.917900  147.106000
  H    -31.088700   65.346400  147.194000
  H    -32.659100   66.164100  147.743000
  H    -31.168700   68.715600  139.963000
  H    -36.551200   63.382000  142.868000

 Total Charge           Charge          ....    0
 Multiplicity           Mult            ....    1
 Number of Electrons    NEL             ....  134
 Basis Dimension        Dim             ....  322

ORBITAL ENERGIES
----------------

  NO   OCC          E(Eh)            E(eV)
   0   2.0000     -88.970060     -2420.9984
   1   2.0000     -88.966379     -2420.8983
   2   2.0000     -10.330175      -281.0983
   3   2.0000     -10.329401      -281.0773
   4   2.0000     -10.320430      -280.8332
   5   2.0000     -10.311123      -280.5799
   6   2.0000     -10.307733      -280.4877
   7   2.0000     -10.305485      -280.4265
   8   2.0000     -10.296021      -280.1690
   9   2.0000     -10.295332      -280.1502
  10   2.0000     -10.295091      -280.1437
  11   2.0000     -10.294170      -280.1186
  12   2.0000     -10.288029      -279.9515
  13   2.0000     -10.283754      -279.8352
  14   2.0000     -10.268039      -279.4075
  15   2.0000     -10.267315      -279.3879
  16   2.0000      -8.085289      -220.0119
  17   2.0000      -8.080019      -219.8685
  18   2.0000      -6.043653      -164.4562
  19   2.0000      -6.039905      -164.3542
  20   2.0000      -6.038487      -164.3156
  21   2.0000      -6.035995      -164.2478
  22   2.0000      -6.034709      -164.2128
  23   2.0000      -6.030867      -164.1082
  24   2.0000      -1.001876       -27.2624
  25   2.0000      -0.975949       -26.5569
  26   2.0000      -0.904652       -24.6168
  27   2.0000      -0.901824       -24.5399
  28   2.0000      -0.865124       -23.5412
  29   2.0000      -0.855214       -23.2716
  30   2.0000      -0.848135       -23.0789
  31   2.0000      -0.810913       -22.0661
  32   2.0000      -0.784264       -21.3409
  33   2.0000      -0.767084       -20.8734
  34   2.0000      -0.707197       -19.2438
  35   2.0000      -0.697264       -18.9735
  36   2.0000      -0.685815       -18.6620
  37   2.0000      -0.662197       -18.0193
  38   2.0000      -0.641985       -17.4693
  39   2.0000      -0.619821       -16.8662
  40   2.0000      -0.587776       -15.9942
  41   2.0000      -0.566404       -15.4126
  42   2.0000      -0.560676       -15.2568
  43   2.0000      -0.551443       -15.0055
  44   2.0000      -0.534771       -14.5518
  45   2.0000      -0.531591       -14.4653
  46   2.0000      -0.520756       -14.1705
  47   2.0000      -0.508069       -13.8253
  48   2.0000      -0.502902       -13.6847
  49   2.0000      -0.491966       -13.3871
  50   2.0000      -0.491368       -13.3708
  51   2.0000      -0.485952       -13.2234
  52   2.0000      -0.470845       -12.8123
  53   2.0000      -0.459164       -12.4945
  54   2.0000      -0.452922       -12.3246
  55   2.0000      -0.451531       -12.2868
  56   2.0000      -0.442306       -12.0358
  57   2.0000      -0.439936       -11.9713
  58   2.0000      -0.435875       -11.8608
  59   2.0000      -0.428099       -11.6492
  60   2.0000      -0.422034       -11.4841
  61   2.0000      -0.407306       -11.0834
  62   2.0000      -0.403341       -10.9755
  63   2.0000      -0.349178        -9.5016
  64   2.0000      -0.332839        -9.0570
  65   2.0000      -0.328845        -8.9483
  66   2.0000      -0.281557        -7.6615
  67   0.0000       0.024320         0.6618
  68   0.0000       0.072795         1.9809
  69   0.0000       0.101908         2.7731
  70   0.0000       0.112397         3.0585
  71   0.0000       0.138349         3.7647

MULLIKEN ATOMIC CHARGES
-----------------------
   0 S :    0.129492
   1 C :   -0.120245
   2 C :   -0.087020
   3 C :    0.045766
   4 C :   -0.138624
   5 H :   -0.018395
   6 C :    0.079604
   7 H :    0.025985
   8 H :    0.018218
   9 C :   -0.072469
  10 H :    0.016803
  11 H :    0.022761
  12 C :   -0.027109
  13 H :    0.028609
  14 H :    0.028877
  15 H :    0.024136
  16 S :    0.093288
  17 C :   -0.115306
  18 C :   -0.030814
  19 C :   -0.050915
  20 C :   -0.143168
  21 H :    0.025978
  22 C :    0.017249
  23 H :    0.006258
  24 H :    0.049127
  25 C :   -0.063625
  26 H :    0.040804
  27 H :    0.046615
  28 C :   -0.005631
  29 H :    0.004226
  30 H :    0.020387
  31 H :    0.035959
  32 H :    0.043496
  33 H :    0.069681
Sum of atomic charges:   -0.0000000

LOEWDIN ATOMIC CHARGES
----------------------
   0 S :    0.419605
   1 C :   -0.208544
   2 C :   -0.059623
   3 C :   -0.047643
   4 C :   -0.189143
   5 H :    0.018531
   6 C :   -0.024484
   7 H :    0.023588
   8 H :    0.032464
   9 C :   -0.028562
  10 H :    0.013884
  11 H :    0.022486
  12 C :   -0.063300
  13 H :    0.018528
  14 H :    0.027172
  15 H :    0.023822
  16 S :    0.382160
  17 C :   -0.185397
  18 C :   -0.071616
  19 C :   -0.060566
  20 C :   -0.192390
  21 H :    0.035268
  22 C :   -0.045697
  23 H :    0.029766
  24 H :    0.035449
  25 C :   -0.029845
  26 H :    0.025451
  27 H :    0.032541
  28 C :   -0.065998
  29 H :    0.017879
  30 H :    0.027614
  31 H :    0.026566
  32 H :    0.023337
  33 H :    0.036696

  Mayer bond orders larger than 0.100000
B(  0-S ,  1-C ) :   1.1427 B(  0-S ,  4-C ) :   1.1502 B(  1-C ,  2-C ) :   1.6213
B(  1-C , 32-H ) :   0.9672 B(  2-C ,  3-C ) :   1.2256 B(  2-C ,  6-C ) :   1.0141
B(  3-C ,  4-C ) :   1.5761 B(  3-C ,  5-H ) :   1.0066 B(  4-C , 20-C ) :   1.0615
B(  6-C ,  7-H ) :   0.9474 B(  6-C ,  8-H ) :   0.9407 B(  6-C ,  9-C ) :   1.0706
B(  9-C , 10-H ) :   0.9601 B(  9-C , 11-H ) :   0.9561 B(  9-C , 12-C ) :   1.0816
B( 12-C , 13-H ) :   0.9776 B( 12-C , 14-H ) :   0.9731 B( 12-C , 15-H ) :   0.9715
B( 16-S , 17-C ) :   1.1440 B( 16-S , 20-C ) :   1.1410 B( 17-C , 18-C ) :   1.6191
B( 17-C , 20-C ) :   0.1054 B( 17-C , 33-H ) :   0.9599 B( 18-C , 19-C ) :   1.2606
B( 18-C , 21-H ) :   0.9816 B( 19-C , 20-C ) :   1.5451 B( 19-C , 22-C ) :   1.0505
B( 22-C , 23-H ) :   0.9311 B( 22-C , 24-H ) :   0.9295 B( 22-C , 25-C ) :   1.0468
B( 25-C , 26-H ) :   0.9605 B( 25-C , 27-H ) :   0.9652 B( 25-C , 28-C ) :   1.0752
B( 28-C , 29-H ) :   0.9715 B( 28-C , 30-H ) :   0.9743 B( 28-C , 31-H ) :   0.9769

Dispersion correction           -0.014155281
FINAL SINGLE POINT ENERGY     -1339.856324633475

DIPOLE MOMENT
-------------
                                X             Y             Z
Electronic contribution:     -8.06837     -17.73991     -13.48237
Nuclear contribution   :      8.21355      18.05539      13.96912
                        -----------------------------------------
Total Dipole Moment    :      0.14518       0.31548       0.48675
                        -----------------------------------------
Magnitude (a.u.)       :      0.59793
Magnitude (Debye)      :      1.51983

Rotational constants in cm-1:     0.018783     0.008271     0.006653
Rotational constants in MHz :   563.097618   247.966046   199.437300

                             ****ORCA TERMINATED NORMALLY****
TOTAL RUN TIME: 0 days 0 hours 0 minutes 34 seconds 567 msec
