                         Program Version 4.2.1 -  RELEASE  -
|  1> ! wB97X-D3 SP def2-SVP
|  2> %pal
|  3> nprocs 16
|  4> end
|  5>
|  6> * xyz 0 1
|  7> S 	 -56.5309 	 38.606 	 92.9838
|  8> C 	 -58.2623 	 38.5925 	 93.3029
|  9> C 	 -58.8969 	 38.8631 	 92.0981
| 10> C 	 -58.0733 	 38.9436 	 90.9746
| 11> C 	 -56.7453 	 38.8783 	 91.2413
| 12> H 	 -58.4176 	 39.0421 	 89.9588
| 13> C 	 -60.4176 	 39.0523 	 92.0541
| 14> H 	 -60.5208 	 39.4205 	 91.0923
| 15> H 	 -60.6826 	 39.9124 	 92.7415
| 16> C 	 -61.3216 	 37.8735 	 92.3988
| 17> H 	 -61.0728 	 37.5587 	 93.4154
| 18> H 	 -62.3908 	 38.1481 	 92.4057
| 19> C 	 -61.0486 	 36.7572 	 91.3997
| 20> H 	 -61.167 	 37.0612 	 90.3619
| 21> H 	 -60.0295 	 36.3991 	 91.4613
| 22> H 	 -61.7485 	 35.9307 	 91.5754
| 23> S 	 -54.3853 	 40.0246 	 90.7165
| 24> C 	 -53.2961 	 39.4448 	 89.5494
| 25> C 	 -53.8753 	 38.4919 	 88.7389
| 26> C 	 -55.1733 	 38.128 	 89.2367
| 27> C 	 -55.6167 	 38.8901 	 90.34
| 28> H 	 -53.279 	 37.9981 	 87.9222
| 29> C 	 -55.8855 	 36.9035 	 88.601
| 30> H 	 -55.5278 	 36.8277 	 87.6311
| 31> H 	 -56.8443 	 37.1946 	 88.6045
| 32> C 	 -55.7771 	 35.4895 	 89.2959
| 33> H 	 -56.2704 	 34.6513 	 88.7703
| 34> H 	 -56.1976 	 35.6832 	 90.2619
| 35> C 	 -54.327 	 35.0635 	 89.4893
| 36> H 	 -53.8403 	 35.1506 	 88.5082
| 37> H 	 -54.2253 	 34.0295 	 89.7321
| 38> H 	 -53.8794 	 35.5491 	 90.3011
| 39> H 	 -58.708 	 38.3603 	 94.2574
| 40> H 	 -52.3074 	 39.7115 	 89.4169
| 41> *
| 42>
| 43>                          ****END OF INPUT****

CARTESIAN COORDINATES (ANGSTROEM)
---------------------------------
  S    -56.530900   38.606000   92.983800
  C    -58.262300   38.592500   93.302900
  C    -58.896900   38.863100   92.098100
  C    -58.073300   38.943600   90.974600
  C    -56.745300   38.878300   91.241300
  H    -58.417600   39.042100   89.958800
  C    -60.417600   39.052300   92.054100
  H    -60.520800   39.420500   91.092300
  H    -60.682600   39.912400   92.741500
  C    -61.321600   37.873500   92.398800
  H    -61.072800   37.558700   93.415400
  H    -62.390800   38.148100   92.405700
  C    -61.048600   36.757200   91.399700
  H    -61.167000   37.061200   90.361900
  H    -60.029500   36.399100   91.461300
  H    -61.748500   35.930700   91.575400
  S    -54.385300   40.024600   90.716500
  C    -53.296100   39.444800   89.549400
  C    -53.875300   38.491900   88.738900
  C    -55.173300   38.128000   89.236700
  C    -55.616700   38.890100   90.340000
  H    -53.279000   37.998100   87.922200
  C    -55.885500   36.903500   88.601000
  H    -55.527800   36.827700   87.631100
  H    -56.844300   37.194600   88.604500
  C    -55.777100   35.489500   89.295900
  H    -56.270400   34.651300   88.770300
  H    -56.197600   35.683200   90.261900
  C    -54.327000   35.063500   89.489300
  H    -53.840300   35.150600   88.508200
  H    -54.225300   34.029500   89.732100
  H    -53.879400   35.549100   90.301100
  H    -58.708000   38.360300   94.257400
  H    -52.307400   39.711500   89.416900

 Total Charge           Charge          ....    0
 Multiplicity           Mult            ....    1
 Number of Electrons    NEL             ....  134
 Basis Dimension        Dim             ....  322

ORBITAL ENERGIES
----------------

  NO   OCC          E(Eh)            E(eV)
   0   2.0000     -88.965466     -2420.8734
   1   2.0000     -88.964563     -2420.8488
   2   2.0000     -10.331398      -281.1316
   3   2.0000     -10.326561      -281.0000
   4   2.0000     -10.317327      -280.7487
   5   2.0000     -10.309219      -280.5281
   6   2.0000     -10.308271      -280.5023
   7   2.0000     -10.299537      -280.2646
   8   2.0000     -10.296577      -280.1841
   9   2.0000     -10.292256      -280.0665
  10   2.0000     -10.289243      -279.9845
  11   2.0000     -10.286322      -279.9051
  12   2.0000     -10.283046      -279.8159
  13   2.0000     -10.277261      -279.6585
  14   2.0000     -10.273426      -279.5541
  15   2.0000     -10.263984      -279.2972
  16   2.0000      -8.080859      -219.8914
  17   2.0000      -8.079660      -219.8587
  18   2.0000      -6.039218      -164.3355
  19   2.0000      -6.038193      -164.3076
  20   2.0000      -6.034921      -164.2185
  21   2.0000      -6.034093      -164.1960
  22   2.0000      -6.031886      -164.1360
  23   2.0000      -6.030537      -164.0993
  24   2.0000      -1.013150       -27.5692
  25   2.0000      -0.990331       -26.9483
  26   2.0000      -0.913717       -24.8635
  27   2.0000      -0.904991       -24.6261
  28   2.0000      -0.873757       -23.7761
  29   2.0000      -0.850881       -23.1537
  30   2.0000      -0.845449       -23.0058
  31   2.0000      -0.819682       -22.3047
  32   2.0000      -0.784592       -21.3498
  33   2.0000      -0.771959       -21.0061
  34   2.0000      -0.711286       -19.3551
  35   2.0000      -0.706462       -19.2238
  36   2.0000      -0.691084       -18.8053
  37   2.0000      -0.663288       -18.0490
  38   2.0000      -0.645290       -17.5592
  39   2.0000      -0.618234       -16.8230
  40   2.0000      -0.586883       -15.9699
  41   2.0000      -0.574379       -15.6297
  42   2.0000      -0.567459       -15.4413
  43   2.0000      -0.550680       -14.9848
  44   2.0000      -0.548516       -14.9259
  45   2.0000      -0.539334       -14.6760
  46   2.0000      -0.522387       -14.2149
  47   2.0000      -0.516560       -14.0563
  48   2.0000      -0.509987       -13.8775
  49   2.0000      -0.498718       -13.5708
  50   2.0000      -0.489635       -13.3236
  51   2.0000      -0.483857       -13.1664
  52   2.0000      -0.469304       -12.7704
  53   2.0000      -0.465574       -12.6689
  54   2.0000      -0.460060       -12.5189
  55   2.0000      -0.444016       -12.0823
  56   2.0000      -0.443092       -12.0572
  57   2.0000      -0.438142       -11.9225
  58   2.0000      -0.433704       -11.8017
  59   2.0000      -0.424095       -11.5402
  60   2.0000      -0.415346       -11.3021
  61   2.0000      -0.413081       -11.2405
  62   2.0000      -0.407612       -11.0917
  63   2.0000      -0.347224        -9.4484
  64   2.0000      -0.332813        -9.0563
  65   2.0000      -0.330202        -8.9852
  66   2.0000      -0.294768        -8.0210
  67   0.0000       0.029437         0.8010
  68   0.0000       0.063981         1.7410
  69   0.0000       0.117219         3.1897
  70   0.0000       0.124172         3.3789
  71   0.0000       0.129114         3.5134

MULLIKEN ATOMIC CHARGES
-----------------------
   0 S :    0.106796
   1 C :   -0.128882
   2 C :   -0.116007
   3 C :    0.046242
   4 C :   -0.140087
   5 H :    0.011198
   6 C :    0.080239
   7 H :   -0.010840
   8 H :    0.042318
   9 C :   -0.040037
  10 H :    0.022108
  11 H :    0.037442
  12 C :   -0.058392
  13 H :    0.021401
  14 H :    0.042228
  15 H :    0.032961
  16 S :    0.120797
  17 C :   -0.060122
  18 C :   -0.060018
  19 C :   -0.087433
  20 C :   -0.174292
  21 H :    0.043287
  22 C :    0.167109
  23 H :   -0.002539
  24 H :   -0.015757
  25 C :   -0.068806
  26 H :    0.040800
  27 H :    0.026920
  28 C :   -0.030461
  29 H :    0.019960
  30 H :    0.014993
  31 H :    0.033510
  32 H :    0.056052
  33 H :    0.027312
Sum of atomic charges:    0.0000000

LOEWDIN ATOMIC CHARGES
----------------------
   0 S :    0.395306
   1 C :   -0.187515
   2 C :   -0.067594
   3 C :   -0.064776
   4 C :   -0.189674
   5 H :    0.033866
   6 C :   -0.030546
   7 H :    0.013754
   8 H :    0.038473
   9 C :   -0.037863
  10 H :    0.021836
  11 H :    0.028764
  12 C :   -0.066198
  13 H :    0.022398
  14 H :    0.026604
  15 H :    0.025689
  16 S :    0.450896
  17 C :   -0.191569
  18 C :   -0.078864
  19 C :   -0.048226
  20 C :   -0.221912
  21 H :    0.042956
  22 C :   -0.013823
  23 H :    0.017448
  24 H :    0.011032
  25 C :   -0.031139
  26 H :    0.029378
  27 H :    0.021639
  28 C :   -0.063261
  29 H :    0.023730
  30 H :    0.021353
  31 H :    0.021056
  32 H :    0.030331
  33 H :    0.016449

  Mayer bond orders larger than 0.100000
B(  0-S ,  1-C ) :   1.1459 B(  0-S ,  4-C ) :   1.1484 B(  1-C ,  2-C ) :   1.5694
B(  1-C ,  4-C ) :   0.1081 B(  1-C , 32-H ) :   0.9793 B(  2-C ,  3-C ) :   1.2602
B(  2-C ,  6-C ) :   1.0003 B(  3-C ,  4-C ) :   1.5716 B(  3-C ,  5-H ) :   0.9982
B(  4-C , 20-C ) :   1.0371 B(  6-C ,  7-H ) :   0.9409 B(  6-C ,  8-H ) :   0.9411
B(  6-C ,  9-C ) :   1.0725 B(  9-C , 10-H ) :   0.9534 B(  9-C , 11-H ) :   0.9550
B(  9-C , 12-C ) :   1.0735 B( 12-C , 13-H ) :   0.9765 B( 12-C , 14-H ) :   0.9737
B( 12-C , 15-H ) :   0.9742 B( 16-S , 17-C ) :   1.1839 B( 16-S , 20-C ) :   1.1610
B( 17-C , 18-C ) :   1.5830 B( 17-C , 20-C ) :   0.1005 B( 17-C , 33-H ) :   0.9741
B( 18-C , 19-C ) :   1.2719 B( 18-C , 21-H ) :   0.9808 B( 19-C , 20-C ) :   1.5559
B( 19-C , 22-C ) :   1.0260 B( 22-C , 23-H ) :   0.9310 B( 22-C , 24-H ) :   0.9267
B( 22-C , 25-C ) :   1.0677 B( 25-C , 26-H ) :   0.9604 B( 25-C , 27-H ) :   0.9568
B( 25-C , 28-C ) :   1.0855 B( 28-C , 29-H ) :   0.9752 B( 28-C , 30-H ) :   0.9717
B( 28-C , 31-H ) :   0.9739

Dispersion correction           -0.015013470
FINAL SINGLE POINT ENERGY     -1339.864709292720

DIPOLE MOMENT
-------------
                                X             Y             Z
Electronic contribution:     15.50993      18.24992       7.54728
Nuclear contribution   :    -15.82488     -18.61662      -7.79173
                        -----------------------------------------
Total Dipole Moment    :     -0.31495      -0.36670      -0.24445
                        -----------------------------------------
Magnitude (a.u.)       :      0.54168
Magnitude (Debye)      :      1.37684

Rotational constants in cm-1:     0.021008     0.008656     0.007104
Rotational constants in MHz :   629.794110   259.500508   212.963357

                             ****ORCA TERMINATED NORMALLY****
TOTAL RUN TIME: 0 days 0 hours 0 minutes 31 seconds 246 msec
