                         Program Version 4.2.1 -  RELEASE  -
|  1> ! wB97X-D3 SP def2-SVP
|  2> %pal
|  3> nprocs 16
|  4> end
|  5>
|  6> * xyz 0 1
|  7> S 	 54.4973 	 4.36538 	 86.1389
|  8> C 	 55.572 	 4.65068 	 84.7267
|  9> C 	 55.3845 	 3.59764 	 83.8453
| 10> C 	 54.4207 	 2.62594 	 84.2559
| 11> C 	 53.9179 	 2.81762 	 85.524
| 12> H 	 54.1823 	 1.68415 	 83.7212
| 13> C 	 55.9924 	 3.55715 	 82.4908
| 14> H 	 56.0064 	 4.58911 	 82.0203
| 15> H 	 55.3848 	 2.96304 	 81.905
| 16> C 	 57.4072 	 3.02201 	 82.4212
| 17> H 	 57.9647 	 3.7944 	 82.9164
| 18> H 	 57.5702 	 1.99048 	 82.7316
| 19> C 	 58.0449 	 3.06031 	 81.0208
| 20> H 	 57.7519 	 4.00414 	 80.54
| 21> H 	 59.0622 	 2.79005 	 81.15
| 22> H 	 57.5795 	 2.1714 	 80.4813
| 23> S 	 51.4453 	 2.46923 	 86.7301
| 24> C 	 51.0579 	 0.854047 	 87.3697
| 25> C 	 52.0304 	 -0.0636016 	 87.0949
| 26> C 	 53.2159 	 0.593234 	 86.5674
| 27> C 	 53.0268 	 1.94512 	 86.2758
| 28> H 	 51.9488 	 -1.12133 	 87.3678
| 29> C 	 54.4683 	 -0.207934 	 86.3867
| 30> H 	 54.6054 	 -0.851019 	 87.2169
| 31> H 	 55.2954 	 0.420236 	 86.4744
| 32> C 	 54.715 	 -1.08128 	 85.1838
| 33> H 	 54.7238 	 -0.549297 	 84.2445
| 34> H 	 53.8421 	 -1.76087 	 85.0576
| 35> C 	 55.9978 	 -1.96585 	 85.3537
| 36> H 	 56.8935 	 -1.32146 	 85.2878
| 37> H 	 56.0318 	 -2.72007 	 84.545
| 38> H 	 56.0124 	 -2.48932 	 86.2412
| 39> H 	 56.255 	 5.47202 	 84.5757
| 40> H 	 50.1019 	 0.557225 	 87.6689
| 41> *
| 42>
| 43>                          ****END OF INPUT****

CARTESIAN COORDINATES (ANGSTROEM)
---------------------------------
  S     54.497300    4.365380   86.138900
  C     55.572000    4.650680   84.726700
  C     55.384500    3.597640   83.845300
  C     54.420700    2.625940   84.255900
  C     53.917900    2.817620   85.524000
  H     54.182300    1.684150   83.721200
  C     55.992400    3.557150   82.490800
  H     56.006400    4.589110   82.020300
  H     55.384800    2.963040   81.905000
  C     57.407200    3.022010   82.421200
  H     57.964700    3.794400   82.916400
  H     57.570200    1.990480   82.731600
  C     58.044900    3.060310   81.020800
  H     57.751900    4.004140   80.540000
  H     59.062200    2.790050   81.150000
  H     57.579500    2.171400   80.481300
  S     51.445300    2.469230   86.730100
  C     51.057900    0.854047   87.369700
  C     52.030400   -0.063602   87.094900
  C     53.215900    0.593234   86.567400
  C     53.026800    1.945120   86.275800
  H     51.948800   -1.121330   87.367800
  C     54.468300   -0.207934   86.386700
  H     54.605400   -0.851019   87.216900
  H     55.295400    0.420236   86.474400
  C     54.715000   -1.081280   85.183800
  H     54.723800   -0.549297   84.244500
  H     53.842100   -1.760870   85.057600
  C     55.997800   -1.965850   85.353700
  H     56.893500   -1.321460   85.287800
  H     56.031800   -2.720070   84.545000
  H     56.012400   -2.489320   86.241200
  H     56.255000    5.472020   84.575700
  H     50.101900    0.557225   87.668900

 Total Charge           Charge          ....    0
 Multiplicity           Mult            ....    1
 Number of Electrons    NEL             ....  134
 Basis Dimension        Dim             ....  322

ORBITAL ENERGIES
----------------

  NO   OCC          E(Eh)            E(eV)
   0   2.0000     -88.967234     -2420.9215
   1   2.0000     -88.964548     -2420.8484
   2   2.0000     -10.331969      -281.1472
   3   2.0000     -10.327898      -281.0364
   4   2.0000     -10.319227      -280.8004
   5   2.0000     -10.315943      -280.7111
   6   2.0000     -10.305445      -280.4254
   7   2.0000     -10.299999      -280.2772
   8   2.0000     -10.297644      -280.2131
   9   2.0000     -10.297027      -280.1964
  10   2.0000     -10.288104      -279.9535
  11   2.0000     -10.285855      -279.8923
  12   2.0000     -10.281129      -279.7637
  13   2.0000     -10.280576      -279.7487
  14   2.0000     -10.279851      -279.7290
  15   2.0000     -10.277680      -279.6699
  16   2.0000      -8.081980      -219.9219
  17   2.0000      -8.078348      -219.8230
  18   2.0000      -6.040503      -164.3705
  19   2.0000      -6.036969      -164.2743
  20   2.0000      -6.036534      -164.2624
  21   2.0000      -6.032868      -164.1627
  22   2.0000      -6.032664      -164.1571
  23   2.0000      -6.029135      -164.0611
  24   2.0000      -1.005358       -27.3572
  25   2.0000      -0.982286       -26.7294
  26   2.0000      -0.918373       -24.9902
  27   2.0000      -0.912657       -24.8347
  28   2.0000      -0.873181       -23.7605
  29   2.0000      -0.849795       -23.1241
  30   2.0000      -0.846887       -23.0450
  31   2.0000      -0.819321       -22.2949
  32   2.0000      -0.783159       -21.3108
  33   2.0000      -0.772226       -21.0133
  34   2.0000      -0.710847       -19.3431
  35   2.0000      -0.700364       -19.0579
  36   2.0000      -0.692009       -18.8305
  37   2.0000      -0.664177       -18.0732
  38   2.0000      -0.642257       -17.4767
  39   2.0000      -0.619151       -16.8480
  40   2.0000      -0.602652       -16.3990
  41   2.0000      -0.578501       -15.7418
  42   2.0000      -0.571634       -15.5549
  43   2.0000      -0.564930       -15.3725
  44   2.0000      -0.533088       -14.5061
  45   2.0000      -0.523219       -14.2375
  46   2.0000      -0.518027       -14.0962
  47   2.0000      -0.516293       -14.0490
  48   2.0000      -0.507444       -13.8083
  49   2.0000      -0.502316       -13.6687
  50   2.0000      -0.497009       -13.5243
  51   2.0000      -0.482476       -13.1288
  52   2.0000      -0.467976       -12.7343
  53   2.0000      -0.466284       -12.6882
  54   2.0000      -0.460987       -12.5441
  55   2.0000      -0.452646       -12.3171
  56   2.0000      -0.444553       -12.0969
  57   2.0000      -0.443240       -12.0612
  58   2.0000      -0.429391       -11.6843
  59   2.0000      -0.423718       -11.5299
  60   2.0000      -0.420916       -11.4537
  61   2.0000      -0.413321       -11.2470
  62   2.0000      -0.405057       -11.0222
  63   2.0000      -0.346486        -9.4284
  64   2.0000      -0.329723        -8.9722
  65   2.0000      -0.327822        -8.9205
  66   2.0000      -0.299804        -8.1581
  67   0.0000       0.030837         0.8391
  68   0.0000       0.064152         1.7457
  69   0.0000       0.109967         2.9924
  70   0.0000       0.122353         3.3294
  71   0.0000       0.123123         3.3504

MULLIKEN ATOMIC CHARGES
-----------------------
   0 S :    0.097374
   1 C :   -0.114614
   2 C :   -0.076718
   3 C :    0.038715
   4 C :   -0.167708
   5 H :    0.024324
   6 C :    0.072505
   7 H :    0.032467
   8 H :   -0.009026
   9 C :   -0.082112
  10 H :    0.016237
  11 H :    0.033581
  12 C :   -0.046658
  13 H :    0.037088
  14 H :    0.037755
  15 H :    0.027456
  16 S :    0.110430
  17 C :   -0.061777
  18 C :   -0.032100
  19 C :   -0.041470
  20 C :   -0.136634
  21 H :    0.033623
  22 C :    0.101524
  23 H :   -0.000880
  24 H :    0.004806
  25 C :   -0.071628
  26 H :    0.016830
  27 H :    0.016412
  28 C :   -0.038188
  29 H :    0.038829
  30 H :    0.035598
  31 H :    0.017411
  32 H :    0.049536
  33 H :    0.037008
Sum of atomic charges:    0.0000000

LOEWDIN ATOMIC CHARGES
----------------------
   0 S :    0.381933
   1 C :   -0.179691
   2 C :   -0.063081
   3 C :   -0.064054
   4 C :   -0.188016
   5 H :    0.036806
   6 C :   -0.032071
   7 H :    0.038633
   8 H :    0.014900
   9 C :   -0.039563
  10 H :    0.018784
  11 H :    0.025332
  12 C :   -0.062999
  13 H :    0.024658
  14 H :    0.022978
  15 H :    0.027221
  16 S :    0.405689
  17 C :   -0.164669
  18 C :   -0.063042
  19 C :   -0.048119
  20 C :   -0.210917
  21 H :    0.038138
  22 C :   -0.037322
  23 H :    0.027955
  24 H :    0.024842
  25 C :   -0.035626
  26 H :    0.015672
  27 H :    0.021345
  28 C :   -0.055837
  29 H :    0.029222
  30 H :    0.030716
  31 H :    0.012410
  32 H :    0.030570
  33 H :    0.017203

  Mayer bond orders larger than 0.100000
B(  0-S ,  1-C ) :   1.1230 B(  0-S ,  4-C ) :   1.1486 B(  1-C ,  2-C ) :   1.6035
B(  1-C ,  4-C ) :   0.1003 B(  1-C , 32-H ) :   0.9747 B(  2-C ,  3-C ) :   1.2413
B(  2-C ,  6-C ) :   1.0314 B(  3-C ,  4-C ) :   1.5843 B(  3-C ,  5-H ) :   0.9833
B(  4-C , 20-C ) :   1.0259 B(  6-C ,  7-H ) :   0.9395 B(  6-C ,  8-H ) :   0.9332
B(  6-C ,  9-C ) :   1.0743 B(  9-C , 10-H ) :   0.9569 B(  9-C , 11-H ) :   0.9581
B(  9-C , 12-C ) :   1.0814 B( 12-C , 13-H ) :   0.9719 B( 12-C , 14-H ) :   0.9747
B( 12-C , 15-H ) :   0.9774 B( 16-S , 17-C ) :   1.1419 B( 16-S , 20-C ) :   1.1390
B( 17-C , 18-C ) :   1.6354 B( 17-C , 33-H ) :   0.9697 B( 18-C , 19-C ) :   1.2239
B( 18-C , 21-H ) :   0.9850 B( 19-C , 20-C ) :   1.6031 B( 19-C , 22-C ) :   1.0552
B( 22-C , 23-H ) :   0.9270 B( 22-C , 24-H ) :   0.9209 B( 22-C , 25-C ) :   1.0665
B( 25-C , 26-H ) :   0.9509 B( 25-C , 27-H ) :   0.9523 B( 25-C , 28-C ) :   1.0781
B( 28-C , 29-H ) :   0.9775 B( 28-C , 30-H ) :   0.9746 B( 28-C , 31-H ) :   0.9762

Dispersion correction           -0.013973609
FINAL SINGLE POINT ENERGY     -1339.868059359075

DIPOLE MOMENT
-------------
                                X             Y             Z
Electronic contribution:    -22.11834      16.13297      18.48722
Nuclear contribution   :     22.45167     -16.73567     -18.86745
                        -----------------------------------------
Total Dipole Moment    :      0.33333      -0.60269      -0.38023
                        -----------------------------------------
Magnitude (a.u.)       :      0.78672
Magnitude (Debye)      :      1.99968

Rotational constants in cm-1:     0.017806     0.008856     0.006433
Rotational constants in MHz :   533.818337   265.509670   192.862430

                             ****ORCA TERMINATED NORMALLY****
TOTAL RUN TIME: 0 days 0 hours 0 minutes 29 seconds 771 msec
