                         Program Version 4.2.1 -  RELEASE  -
|  1> ! wB97X-D3 SP def2-SVP
|  2> %pal
|  3> nprocs 16
|  4> end
|  5>
|  6> * xyz 0 1
|  7> S 	 35.9574 	 2.55395 	 72.4639
|  8> C 	 35.491 	 3.35156 	 71.0301
|  9> C 	 34.1225 	 3.56938 	 70.9861
| 10> C 	 33.4711 	 2.88048 	 72.0512
| 11> C 	 34.3278 	 2.28229 	 72.9178
| 12> H 	 32.4256 	 2.91788 	 72.2736
| 13> C 	 33.3713 	 4.17378 	 69.8071
| 14> H 	 32.4015 	 4.59089 	 70.13
| 15> H 	 33.2471 	 3.28534 	 69.2154
| 16> C 	 34.2092 	 5.0417 	 68.8876
| 17> H 	 35.1215 	 4.57516 	 68.5079
| 18> H 	 33.7097 	 5.30247 	 68.0031
| 19> C 	 34.6017 	 6.37487 	 69.5362
| 20> H 	 35.1734 	 6.90116 	 68.8188
| 21> H 	 33.7053 	 7.06581 	 69.7156
| 22> H 	 35.2187 	 6.06172 	 70.3073
| 23> S 	 34.6007 	 -0.0659603 	 74.204
| 24> C 	 33.9926 	 -0.235146 	 75.8398
| 25> C 	 33.3998 	 0.896484 	 76.3224
| 26> C 	 33.4249 	 1.97753 	 75.3656
| 27> C 	 33.9736 	 1.58086 	 74.1188
| 28> H 	 33.0747 	 0.898454 	 77.3302
| 29> C 	 32.9997 	 3.37075 	 75.5918
| 30> H 	 33.043 	 3.96081 	 74.7035
| 31> H 	 33.8906 	 3.67708 	 76.1952
| 32> C 	 31.5576 	 3.6279 	 76.1312
| 33> H 	 31.4474 	 4.70852 	 76.1731
| 34> H 	 31.4907 	 3.27365 	 77.184
| 35> C 	 30.3678 	 3.10092 	 75.2518
| 36> H 	 29.363 	 3.54806 	 75.5148
| 37> H 	 30.2761 	 2.05529 	 75.5418
| 38> H 	 30.6117 	 3.29193 	 74.187
| 39> H 	 36.2094 	 3.67065 	 70.3235
| 40> H 	 34.0605 	 -1.0713 	 76.5116
| 41> *
| 42>
| 43>                          ****END OF INPUT****

CARTESIAN COORDINATES (ANGSTROEM)
---------------------------------
  S     35.957400    2.553950   72.463900
  C     35.491000    3.351560   71.030100
  C     34.122500    3.569380   70.986100
  C     33.471100    2.880480   72.051200
  C     34.327800    2.282290   72.917800
  H     32.425600    2.917880   72.273600
  C     33.371300    4.173780   69.807100
  H     32.401500    4.590890   70.130000
  H     33.247100    3.285340   69.215400
  C     34.209200    5.041700   68.887600
  H     35.121500    4.575160   68.507900
  H     33.709700    5.302470   68.003100
  C     34.601700    6.374870   69.536200
  H     35.173400    6.901160   68.818800
  H     33.705300    7.065810   69.715600
  H     35.218700    6.061720   70.307300
  S     34.600700   -0.065960   74.204000
  C     33.992600   -0.235146   75.839800
  C     33.399800    0.896484   76.322400
  C     33.424900    1.977530   75.365600
  C     33.973600    1.580860   74.118800
  H     33.074700    0.898454   77.330200
  C     32.999700    3.370750   75.591800
  H     33.043000    3.960810   74.703500
  H     33.890600    3.677080   76.195200
  C     31.557600    3.627900   76.131200
  H     31.447400    4.708520   76.173100
  H     31.490700    3.273650   77.184000
  C     30.367800    3.100920   75.251800
  H     29.363000    3.548060   75.514800
  H     30.276100    2.055290   75.541800
  H     30.611700    3.291930   74.187000
  H     36.209400    3.670650   70.323500
  H     34.060500   -1.071300   76.511600

 Total Charge           Charge          ....    0
 Multiplicity           Mult            ....    1
 Number of Electrons    NEL             ....  134
 Basis Dimension        Dim             ....  322

ORBITAL ENERGIES
----------------

  NO   OCC          E(Eh)            E(eV)
   0   2.0000     -88.962720     -2420.7987
   1   2.0000     -88.962500     -2420.7927
   2   2.0000     -10.321312      -280.8572
   3   2.0000     -10.318844      -280.7900
   4   2.0000     -10.314091      -280.6607
   5   2.0000     -10.306685      -280.4591
   6   2.0000     -10.305614      -280.4300
   7   2.0000     -10.300446      -280.2894
   8   2.0000     -10.293030      -280.0876
   9   2.0000     -10.292045      -280.0608
  10   2.0000     -10.290764      -280.0259
  11   2.0000     -10.289475      -279.9909
  12   2.0000     -10.288212      -279.9565
  13   2.0000     -10.286562      -279.9116
  14   2.0000     -10.280361      -279.7428
  15   2.0000     -10.269074      -279.4357
  16   2.0000      -8.078860      -219.8370
  17   2.0000      -8.077204      -219.7919
  18   2.0000      -6.037177      -164.2799
  19   2.0000      -6.035716      -164.2402
  20   2.0000      -6.033113      -164.1694
  21   2.0000      -6.031755      -164.1324
  22   2.0000      -6.029749      -164.0778
  23   2.0000      -6.027959      -164.0291
  24   2.0000      -1.012888       -27.5621
  25   2.0000      -0.984382       -26.7864
  26   2.0000      -0.918287       -24.9879
  27   2.0000      -0.905581       -24.6421
  28   2.0000      -0.872355       -23.7380
  29   2.0000      -0.854313       -23.2470
  30   2.0000      -0.844600       -22.9827
  31   2.0000      -0.818077       -22.2610
  32   2.0000      -0.785644       -21.3785
  33   2.0000      -0.769499       -20.9391
  34   2.0000      -0.707370       -19.2485
  35   2.0000      -0.703760       -19.1503
  36   2.0000      -0.692588       -18.8463
  37   2.0000      -0.656094       -17.8532
  38   2.0000      -0.646071       -17.5805
  39   2.0000      -0.612819       -16.6757
  40   2.0000      -0.592733       -16.1291
  41   2.0000      -0.581771       -15.8308
  42   2.0000      -0.559433       -15.2229
  43   2.0000      -0.555571       -15.1179
  44   2.0000      -0.544410       -14.8142
  45   2.0000      -0.539179       -14.6718
  46   2.0000      -0.519821       -14.1451
  47   2.0000      -0.519281       -14.1303
  48   2.0000      -0.502501       -13.6737
  49   2.0000      -0.494165       -13.4469
  50   2.0000      -0.482332       -13.1249
  51   2.0000      -0.478666       -13.0252
  52   2.0000      -0.475239       -12.9319
  53   2.0000      -0.467371       -12.7178
  54   2.0000      -0.463375       -12.6091
  55   2.0000      -0.447340       -12.1727
  56   2.0000      -0.443651       -12.0724
  57   2.0000      -0.437995       -11.9184
  58   2.0000      -0.432502       -11.7690
  59   2.0000      -0.429500       -11.6873
  60   2.0000      -0.421840       -11.4788
  61   2.0000      -0.413854       -11.2615
  62   2.0000      -0.403163       -10.9706
  63   2.0000      -0.341149        -9.2831
  64   2.0000      -0.327299        -8.9063
  65   2.0000      -0.324820        -8.8388
  66   2.0000      -0.294784        -8.0215
  67   0.0000       0.038839         1.0568
  68   0.0000       0.069269         1.8849
  69   0.0000       0.120328         3.2743
  70   0.0000       0.123002         3.3471
  71   0.0000       0.129704         3.5294

MULLIKEN ATOMIC CHARGES
-----------------------
   0 S :    0.134850
   1 C :   -0.134033
   2 C :   -0.101235
   3 C :    0.034840
   4 C :   -0.145584
   5 H :   -0.004707
   6 C :    0.098618
   7 H :    0.034517
   8 H :    0.045151
   9 C :   -0.088264
  10 H :    0.020561
  11 H :    0.008836
  12 C :   -0.024156
  13 H :    0.014824
  14 H :    0.042550
  15 H :    0.023166
  16 S :    0.102953
  17 C :   -0.067627
  18 C :   -0.039275
  19 C :   -0.016180
  20 C :   -0.192811
  21 H :    0.006288
  22 C :    0.051047
  23 H :    0.016474
  24 H :    0.054408
  25 C :   -0.088653
  26 H :    0.031322
  27 H :    0.033233
  28 C :   -0.071835
  29 H :    0.046786
  30 H :    0.045925
  31 H :    0.045993
  32 H :    0.037034
  33 H :    0.044982
Sum of atomic charges:    0.0000000

LOEWDIN ATOMIC CHARGES
----------------------
   0 S :    0.440038
   1 C :   -0.214926
   2 C :   -0.058745
   3 C :   -0.062524
   4 C :   -0.213819
   5 H :    0.026644
   6 C :   -0.029674
   7 H :    0.034194
   8 H :    0.042735
   9 C :   -0.041088
  10 H :    0.024707
  11 H :    0.016550
  12 C :   -0.059791
  13 H :    0.017854
  14 H :    0.035283
  15 H :    0.013829
  16 S :    0.397754
  17 C :   -0.176847
  18 C :   -0.074413
  19 C :   -0.045722
  20 C :   -0.205013
  21 H :    0.027524
  22 C :   -0.041204
  23 H :    0.026448
  24 H :    0.050962
  25 C :   -0.042122
  26 H :    0.022603
  27 H :    0.021980
  28 C :   -0.069468
  29 H :    0.034691
  30 H :    0.028860
  31 H :    0.027677
  32 H :    0.016446
  33 H :    0.028577

  Mayer bond orders larger than 0.100000
B(  0-S ,  1-C ) :   1.1516 B(  0-S ,  4-C ) :   1.1689 B(  1-C ,  2-C ) :   1.5757
B(  1-C , 32-H ) :   0.9710 B(  2-C ,  3-C ) :   1.2533 B(  2-C ,  6-C ) :   1.0074
B(  3-C ,  4-C ) :   1.5698 B(  3-C ,  5-H ) :   1.0059 B(  4-C , 20-C ) :   1.0356
B(  6-C ,  7-H ) :   0.9434 B(  6-C ,  8-H ) :   0.9305 B(  6-C ,  9-C ) :   1.0886
B(  9-C , 10-H ) :   0.9449 B(  9-C , 11-H ) :   0.9508 B(  9-C , 12-C ) :   1.0836
B( 12-C , 13-H ) :   0.9725 B( 12-C , 14-H ) :   0.9737 B( 12-C , 15-H ) :   0.9777
B( 16-S , 17-C ) :   1.1498 B( 16-S , 20-C ) :   1.1307 B( 17-C , 18-C ) :   1.6412
B( 17-C , 33-H ) :   0.9630 B( 18-C , 19-C ) :   1.2096 B( 18-C , 21-H ) :   0.9971
B( 19-C , 20-C ) :   1.5836 B( 19-C , 22-C ) :   1.0442 B( 22-C , 23-H ) :   0.9332
B( 22-C , 24-H ) :   0.9268 B( 22-C , 25-C ) :   1.0618 B( 25-C , 26-H ) :   0.9601
B( 25-C , 27-H ) :   0.9596 B( 25-C , 28-C ) :   1.0586 B( 28-C , 29-H ) :   0.9751
B( 28-C , 30-H ) :   0.9767 B( 28-C , 31-H ) :   0.9743

Dispersion correction           -0.014704300
FINAL SINGLE POINT ENERGY     -1339.865741799583

DIPOLE MOMENT
-------------
                                X             Y             Z
Electronic contribution:     15.07076     -20.07041       5.87234
Nuclear contribution   :    -15.44483      20.48115      -5.86940
                        -----------------------------------------
Total Dipole Moment    :     -0.37408       0.41073       0.00294
                        -----------------------------------------
Magnitude (a.u.)       :      0.55556
Magnitude (Debye)      :      1.41212

Rotational constants in cm-1:     0.021400     0.008315     0.006611
Rotational constants in MHz :   641.552756   249.265748   198.204794

                             ****ORCA TERMINATED NORMALLY****
TOTAL RUN TIME: 0 days 0 hours 0 minutes 30 seconds 403 msec
