                         Program Version 4.2.1 -  RELEASE  -
|  1> ! wB97X-D3 SP def2-SVP
|  2> %pal
|  3> nprocs 16
|  4> end
|  5>
|  6> * xyz 0 1
|  7> S 	 1.42787 	 2.03899 	 84.1012
|  8> C 	 1.34787 	 0.703797 	 82.9836
|  9> C 	 0.62779 	 0.983157 	 81.878
| 10> C 	 0.130815 	 2.3481 	 81.9236
| 11> C 	 0.640081 	 3.07811 	 82.9638
| 12> H 	 -0.502754 	 2.78415 	 81.2753
| 13> C 	 0.117536 	 -0.0929312 	 80.9302
| 14> H 	 0.35904 	 -1.01004 	 81.378
| 15> H 	 0.753391 	 0.0412143 	 80.0469
| 16> C 	 -1.38434 	 -0.1471 	 80.7054
| 17> H 	 -1.78993 	 -0.0339919 	 81.7236
| 18> H 	 -1.74657 	 0.795349 	 80.14
| 19> C 	 -1.77936 	 -1.5261 	 80.1432
| 20> H 	 -2.83606 	 -1.5694 	 79.8971
| 21> H 	 -1.04221 	 -1.75227 	 79.392
| 22> H 	 -1.71999 	 -2.22124 	 80.9185
| 23> S 	 1.12426 	 5.33361 	 84.7359
| 24> C 	 0.302597 	 6.79653 	 84.4171
| 25> C 	 -0.393493 	 6.84106 	 83.2194
| 26> C 	 -0.347526 	 5.52177 	 82.5706
| 27> C 	 0.354237 	 4.49274 	 83.2902
| 28> H 	 -0.985478 	 7.73313 	 82.9515
| 29> C 	 -1.13388 	 5.38912 	 81.2496
| 30> H 	 -0.480731 	 4.8311 	 80.5041
| 31> H 	 -1.15605 	 6.38548 	 80.7723
| 32> C 	 -2.61261 	 4.9293 	 81.4542
| 33> H 	 -2.6629 	 3.88728 	 81.7982
| 34> H 	 -3.06184 	 5.03042 	 80.4767
| 35> C 	 -3.48222 	 5.84162 	 82.2662
| 36> H 	 -3.23666 	 5.87815 	 83.329
| 37> H 	 -4.53092 	 5.61362 	 82.2525
| 38> H 	 -3.2947 	 6.91762 	 82.0263
| 39> H 	 1.77168 	 -0.239035 	 83.2747
| 40> H 	 0.407708 	 7.66736 	 85.0387
| 41> *
| 42>
| 43>                          ****END OF INPUT****

CARTESIAN COORDINATES (ANGSTROEM)
---------------------------------
  S      1.427870    2.038990   84.101200
  C      1.347870    0.703797   82.983600
  C      0.627790    0.983157   81.878000
  C      0.130815    2.348100   81.923600
  C      0.640081    3.078110   82.963800
  H     -0.502754    2.784150   81.275300
  C      0.117536   -0.092931   80.930200
  H      0.359040   -1.010040   81.378000
  H      0.753391    0.041214   80.046900
  C     -1.384340   -0.147100   80.705400
  H     -1.789930   -0.033992   81.723600
  H     -1.746570    0.795349   80.140000
  C     -1.779360   -1.526100   80.143200
  H     -2.836060   -1.569400   79.897100
  H     -1.042210   -1.752270   79.392000
  H     -1.719990   -2.221240   80.918500
  S      1.124260    5.333610   84.735900
  C      0.302597    6.796530   84.417100
  C     -0.393493    6.841060   83.219400
  C     -0.347526    5.521770   82.570600
  C      0.354237    4.492740   83.290200
  H     -0.985478    7.733130   82.951500
  C     -1.133880    5.389120   81.249600
  H     -0.480731    4.831100   80.504100
  H     -1.156050    6.385480   80.772300
  C     -2.612610    4.929300   81.454200
  H     -2.662900    3.887280   81.798200
  H     -3.061840    5.030420   80.476700
  C     -3.482220    5.841620   82.266200
  H     -3.236660    5.878150   83.329000
  H     -4.530920    5.613620   82.252500
  H     -3.294700    6.917620   82.026300
  H      1.771680   -0.239035   83.274700
  H      0.407708    7.667360   85.038700

 Total Charge           Charge          ....    0
 Multiplicity           Mult            ....    1
 Number of Electrons    NEL             ....  134
 Basis Dimension        Dim             ....  322

ORBITAL ENERGIES
----------------

  NO   OCC          E(Eh)            E(eV)
   0   2.0000     -88.967647     -2420.9328
   1   2.0000     -88.961615     -2420.7686
   2   2.0000     -10.341434      -281.4047
   3   2.0000     -10.331253      -281.1277
   4   2.0000     -10.317288      -280.7477
   5   2.0000     -10.315726      -280.7052
   6   2.0000     -10.308151      -280.4991
   7   2.0000     -10.303351      -280.3684
   8   2.0000     -10.300253      -280.2841
   9   2.0000     -10.298614      -280.2395
  10   2.0000     -10.294288      -280.1218
  11   2.0000     -10.290418      -280.0165
  12   2.0000     -10.287450      -279.9357
  13   2.0000     -10.285016      -279.8695
  14   2.0000     -10.276794      -279.6458
  15   2.0000     -10.276733      -279.6441
  16   2.0000      -8.081616      -219.9119
  17   2.0000      -8.077316      -219.7949
  18   2.0000      -6.040290      -164.3646
  19   2.0000      -6.036197      -164.2533
  20   2.0000      -6.035898      -164.2451
  21   2.0000      -6.032294      -164.1471
  22   2.0000      -6.031854      -164.1351
  23   2.0000      -6.027806      -164.0249
  24   2.0000      -1.004976       -27.3468
  25   2.0000      -0.978955       -26.6387
  26   2.0000      -0.917170       -24.9575
  27   2.0000      -0.908430       -24.7196
  28   2.0000      -0.870319       -23.6826
  29   2.0000      -0.851995       -23.1840
  30   2.0000      -0.842103       -22.9148
  31   2.0000      -0.816031       -22.2053
  32   2.0000      -0.785902       -21.3855
  33   2.0000      -0.773162       -21.0388
  34   2.0000      -0.712053       -19.3759
  35   2.0000      -0.698873       -19.0173
  36   2.0000      -0.684950       -18.6384
  37   2.0000      -0.662088       -18.0163
  38   2.0000      -0.642169       -17.4743
  39   2.0000      -0.624517       -16.9940
  40   2.0000      -0.589342       -16.0368
  41   2.0000      -0.574080       -15.6215
  42   2.0000      -0.565606       -15.3909
  43   2.0000      -0.556056       -15.1311
  44   2.0000      -0.546187       -14.8625
  45   2.0000      -0.536045       -14.5865
  46   2.0000      -0.517237       -14.0747
  47   2.0000      -0.507899       -13.8206
  48   2.0000      -0.500493       -13.6191
  49   2.0000      -0.495037       -13.4706
  50   2.0000      -0.486278       -13.2323
  51   2.0000      -0.477486       -12.9931
  52   2.0000      -0.473119       -12.8742
  53   2.0000      -0.470829       -12.8119
  54   2.0000      -0.463335       -12.6080
  55   2.0000      -0.456251       -12.4152
  56   2.0000      -0.446759       -12.1569
  57   2.0000      -0.439472       -11.9586
  58   2.0000      -0.429701       -11.6928
  59   2.0000      -0.428414       -11.6577
  60   2.0000      -0.416439       -11.3319
  61   2.0000      -0.411404       -11.1949
  62   2.0000      -0.405456       -11.0330
  63   2.0000      -0.364159        -9.9093
  64   2.0000      -0.331497        -9.0205
  65   2.0000      -0.326313        -8.8794
  66   2.0000      -0.281564        -7.6617
  67   0.0000       0.019858         0.5404
  68   0.0000       0.090903         2.4736
  69   0.0000       0.092584         2.5193
  70   0.0000       0.114336         3.1113
  71   0.0000       0.137524         3.7422

MULLIKEN ATOMIC CHARGES
-----------------------
   0 S :    0.088723
   1 C :   -0.125420
   2 C :   -0.070974
   3 C :    0.013948
   4 C :   -0.083687
   5 H :   -0.061121
   6 C :    0.098017
   7 H :   -0.006593
   8 H :    0.040489
   9 C :   -0.133809
  10 H :    0.035903
  11 H :    0.048724
  12 C :    0.004176
  13 H :    0.035903
  14 H :    0.038553
  15 H :    0.016271
  16 S :    0.093836
  17 C :   -0.079048
  18 C :   -0.042752
  19 C :   -0.079620
  20 C :   -0.102638
  21 H :    0.037077
  22 C :   -0.010831
  23 H :    0.052702
  24 H :    0.022315
  25 C :   -0.025409
  26 H :    0.042356
  27 H :    0.029773
  28 C :   -0.064345
  29 H :    0.033050
  30 H :    0.038922
  31 H :    0.017794
  32 H :    0.042210
  33 H :    0.055508
Sum of atomic charges:    0.0000000

LOEWDIN ATOMIC CHARGES
----------------------
   0 S :    0.401096
   1 C :   -0.190433
   2 C :   -0.058577
   3 C :   -0.056996
   4 C :   -0.181382
   5 H :    0.004536
   6 C :   -0.030014
   7 H :    0.020892
   8 H :    0.033550
   9 C :   -0.046600
  10 H :    0.027050
  11 H :    0.028643
  12 C :   -0.055144
  13 H :    0.031022
  14 H :    0.027614
  15 H :    0.019858
  16 S :    0.384529
  17 C :   -0.188536
  18 C :   -0.082334
  19 C :   -0.047350
  20 C :   -0.178876
  21 H :    0.039159
  22 C :   -0.044315
  23 H :    0.037578
  24 H :    0.031582
  25 C :   -0.037974
  26 H :    0.026811
  27 H :    0.027010
  28 C :   -0.071117
  29 H :    0.025011
  30 H :    0.026984
  31 H :    0.026181
  32 H :    0.022739
  33 H :    0.027804

  Mayer bond orders larger than 0.100000
B(  0-S ,  1-C ) :   1.1284 B(  0-S ,  4-C ) :   1.1449 B(  1-C ,  2-C ) :   1.6396
B(  1-C , 32-H ) :   0.9690 B(  2-C ,  3-C ) :   1.2050 B(  2-C ,  6-C ) :   1.0194
B(  3-C ,  4-C ) :   1.5782 B(  3-C ,  5-H ) :   1.0144 B(  4-C , 20-C ) :   1.0895
B(  6-C ,  7-H ) :   0.9467 B(  6-C ,  8-H ) :   0.9170 B(  6-C ,  9-C ) :   1.0646
B(  9-C , 10-H ) :   0.9595 B(  9-C , 11-H ) :   0.9496 B(  9-C , 12-C ) :   1.0778
B( 12-C , 13-H ) :   0.9707 B( 12-C , 14-H ) :   0.9770 B( 12-C , 15-H ) :   0.9706
B( 16-S , 17-C ) :   1.1738 B( 16-S , 20-C ) :   1.1060 B( 17-C , 18-C ) :   1.6125
B( 17-C , 33-H ) :   0.9619 B( 18-C , 19-C ) :   1.2351 B( 18-C , 21-H ) :   0.9840
B( 19-C , 20-C ) :   1.5855 B( 19-C , 22-C ) :   1.0367 B( 22-C , 23-H ) :   0.9377
B( 22-C , 24-H ) :   0.9354 B( 22-C , 25-C ) :   1.0637 B( 25-C , 26-H ) :   0.9543
B( 25-C , 27-H ) :   0.9540 B( 25-C , 28-C ) :   1.0850 B( 28-C , 29-H ) :   0.9669
B( 28-C , 30-H ) :   0.9723 B( 28-C , 31-H ) :   0.9689

Dispersion correction           -0.014448344
FINAL SINGLE POINT ENERGY     -1339.861960964516

DIPOLE MOMENT
-------------
                                X             Y             Z
Electronic contribution:     21.26464       8.31851      19.39524
Nuclear contribution   :    -21.84588      -8.38577     -19.83623
                        -----------------------------------------
Total Dipole Moment    :     -0.58125      -0.06726      -0.44099
                        -----------------------------------------
Magnitude (a.u.)       :      0.73270
Magnitude (Debye)      :      1.86237

Rotational constants in cm-1:     0.019284     0.008831     0.006385
Rotational constants in MHz :   578.106080   264.743864   191.427491

                             ****ORCA TERMINATED NORMALLY****
TOTAL RUN TIME: 0 days 0 hours 0 minutes 35 seconds 374 msec
