                         Program Version 4.2.1 -  RELEASE  -
|  1> ! wB97X-D3 SP def2-SVP
|  2> %pal
|  3> nprocs 16
|  4> end
|  5>
|  6> * xyz 0 1
|  7> S 	 6.23867 	 -10.5392 	 70.1989
|  8> C 	 4.59921 	 -10.2449 	 69.8572
|  9> C 	 4.12431 	 -10.7493 	 68.6676
| 10> C 	 5.16798 	 -11.4374 	 67.9997
| 11> C 	 6.3433 	 -11.5365 	 68.7748
| 12> H 	 5.10657 	 -11.9388 	 67.0271
| 13> C 	 2.79563 	 -10.3541 	 67.9441
| 14> H 	 1.95021 	 -10.2883 	 68.6791
| 15> H 	 2.50783 	 -11.1354 	 67.288
| 16> C 	 2.81887 	 -9.03703 	 66.9916
| 17> H 	 3.69494 	 -9.00735 	 66.3726
| 18> H 	 1.94761 	 -9.21 	 66.3605
| 19> C 	 2.62043 	 -7.76869 	 67.8822
| 20> H 	 3.46203 	 -7.62076 	 68.5765
| 21> H 	 2.24204 	 -6.92877 	 67.2545
| 22> H 	 1.75397 	 -7.93987 	 68.525
| 23> S 	 8.98463 	 -11.0839 	 67.9929
| 24> C 	 9.93642 	 -12.4371 	 67.6838
| 25> C 	 9.1936 	 -13.6142 	 67.5724
| 26> C 	 7.80435 	 -13.4565 	 67.8306
| 27> C 	 7.57034 	 -12.1594 	 68.3491
| 28> H 	 9.83386 	 -14.4487 	 67.3663
| 29> C 	 6.86812 	 -14.6135 	 67.9621
| 30> H 	 5.9738 	 -14.3035 	 68.4833
| 31> H 	 7.11344 	 -15.3711 	 68.6385
| 32> C 	 6.30447 	 -15.1646 	 66.6417
| 33> H 	 5.55528 	 -14.5141 	 66.206
| 34> H 	 5.59506 	 -15.9141 	 66.9787
| 35> C 	 7.36816 	 -15.748 	 65.6822
| 36> H 	 8.01332 	 -14.9467 	 65.2153
| 37> H 	 7.01995 	 -16.3832 	 64.8791
| 38> H 	 8.12098 	 -16.3298 	 66.2464
| 39> H 	 3.88989 	 -9.63083 	 70.3738
| 40> H 	 10.992 	 -12.2758 	 67.5438
| 41> *
| 42>
| 43>                          ****END OF INPUT****

CARTESIAN COORDINATES (ANGSTROEM)
---------------------------------
  S      6.238670  -10.539200   70.198900
  C      4.599210  -10.244900   69.857200
  C      4.124310  -10.749300   68.667600
  C      5.167980  -11.437400   67.999700
  C      6.343300  -11.536500   68.774800
  H      5.106570  -11.938800   67.027100
  C      2.795630  -10.354100   67.944100
  H      1.950210  -10.288300   68.679100
  H      2.507830  -11.135400   67.288000
  C      2.818870   -9.037030   66.991600
  H      3.694940   -9.007350   66.372600
  H      1.947610   -9.210000   66.360500
  C      2.620430   -7.768690   67.882200
  H      3.462030   -7.620760   68.576500
  H      2.242040   -6.928770   67.254500
  H      1.753970   -7.939870   68.525000
  S      8.984630  -11.083900   67.992900
  C      9.936420  -12.437100   67.683800
  C      9.193600  -13.614200   67.572400
  C      7.804350  -13.456500   67.830600
  C      7.570340  -12.159400   68.349100
  H      9.833860  -14.448700   67.366300
  C      6.868120  -14.613500   67.962100
  H      5.973800  -14.303500   68.483300
  H      7.113440  -15.371100   68.638500
  C      6.304470  -15.164600   66.641700
  H      5.555280  -14.514100   66.206000
  H      5.595060  -15.914100   66.978700
  C      7.368160  -15.748000   65.682200
  H      8.013320  -14.946700   65.215300
  H      7.019950  -16.383200   64.879100
  H      8.120980  -16.329800   66.246400
  H      3.889890   -9.630830   70.373800
  H     10.992000  -12.275800   67.543800

 Total Charge           Charge          ....    0
 Multiplicity           Mult            ....    1
 Number of Electrons    NEL             ....  134
 Basis Dimension        Dim             ....  322

ORBITAL ENERGIES
----------------

  NO   OCC          E(Eh)            E(eV)
   0   2.0000     -88.972264     -2421.0584
   1   2.0000     -88.960715     -2420.7441
   2   2.0000     -10.327571      -281.0275
   3   2.0000     -10.325091      -280.9600
   4   2.0000     -10.309554      -280.5372
   5   2.0000     -10.308459      -280.5074
   6   2.0000     -10.307049      -280.4691
   7   2.0000     -10.300557      -280.2924
   8   2.0000     -10.299672      -280.2683
   9   2.0000     -10.295684      -280.1598
  10   2.0000     -10.294581      -280.1298
  11   2.0000     -10.290553      -280.0202
  12   2.0000     -10.286435      -279.9081
  13   2.0000     -10.283383      -279.8251
  14   2.0000     -10.282524      -279.8017
  15   2.0000     -10.281443      -279.7723
  16   2.0000      -8.087584      -220.0743
  17   2.0000      -8.076305      -219.7674
  18   2.0000      -6.045879      -164.5167
  19   2.0000      -6.042068      -164.4130
  20   2.0000      -6.038480      -164.3154
  21   2.0000      -6.034534      -164.2080
  22   2.0000      -6.030796      -164.1063
  23   2.0000      -6.027212      -164.0088
  24   2.0000      -1.007775       -27.4229
  25   2.0000      -0.985564       -26.8186
  26   2.0000      -0.910553       -24.7774
  27   2.0000      -0.899405       -24.4741
  28   2.0000      -0.866379       -23.5754
  29   2.0000      -0.851330       -23.1659
  30   2.0000      -0.844727       -22.9862
  31   2.0000      -0.804767       -21.8988
  32   2.0000      -0.786472       -21.4010
  33   2.0000      -0.774132       -21.0652
  34   2.0000      -0.712254       -19.3814
  35   2.0000      -0.700773       -19.0690
  36   2.0000      -0.693827       -18.8800
  37   2.0000      -0.656050       -17.8520
  38   2.0000      -0.636206       -17.3121
  39   2.0000      -0.618354       -16.8263
  40   2.0000      -0.601604       -16.3705
  41   2.0000      -0.569567       -15.4987
  42   2.0000      -0.549871       -14.9628
  43   2.0000      -0.543733       -14.7957
  44   2.0000      -0.539860       -14.6903
  45   2.0000      -0.531397       -14.4600
  46   2.0000      -0.511592       -13.9211
  47   2.0000      -0.503877       -13.7112
  48   2.0000      -0.495859       -13.4930
  49   2.0000      -0.492905       -13.4126
  50   2.0000      -0.488246       -13.2859
  51   2.0000      -0.481652       -13.1064
  52   2.0000      -0.473704       -12.8901
  53   2.0000      -0.471081       -12.8188
  54   2.0000      -0.455442       -12.3932
  55   2.0000      -0.449942       -12.2435
  56   2.0000      -0.440779       -11.9942
  57   2.0000      -0.438677       -11.9370
  58   2.0000      -0.432008       -11.7555
  59   2.0000      -0.428266       -11.6537
  60   2.0000      -0.421440       -11.4680
  61   2.0000      -0.417733       -11.3671
  62   2.0000      -0.406120       -11.0511
  63   2.0000      -0.339345        -9.2341
  64   2.0000      -0.334765        -9.1094
  65   2.0000      -0.327463        -8.9107
  66   2.0000      -0.288637        -7.8542
  67   0.0000       0.026924         0.7326
  68   0.0000       0.065855         1.7920
  69   0.0000       0.111134         3.0241
  70   0.0000       0.122235         3.3262
  71   0.0000       0.126775         3.4497

MULLIKEN ATOMIC CHARGES
-----------------------
   0 S :    0.146103
   1 C :   -0.084527
   2 C :   -0.089662
   3 C :    0.027641
   4 C :   -0.191254
   5 H :    0.018484
   6 C :    0.026445
   7 H :    0.031224
   8 H :    0.013382
   9 C :   -0.057153
  10 H :    0.039117
  11 H :    0.031009
  12 C :   -0.059500
  13 H :    0.051344
  14 H :    0.044382
  15 H :    0.013109
  16 S :    0.099387
  17 C :   -0.103739
  18 C :   -0.042038
  19 C :    0.047379
  20 C :   -0.166149
  21 H :    0.013757
  22 C :    0.049619
  23 H :    0.007776
  24 H :    0.023940
  25 C :   -0.054732
  26 H :    0.018174
  27 H :    0.014130
  28 C :   -0.061345
  29 H :    0.046146
  30 H :    0.038580
  31 H :    0.025361
  32 H :    0.027552
  33 H :    0.056057
Sum of atomic charges:   -0.0000000

LOEWDIN ATOMIC CHARGES
----------------------
   0 S :    0.442882
   1 C :   -0.210682
   2 C :   -0.072364
   3 C :   -0.050930
   4 C :   -0.213735
   5 H :    0.032933
   6 C :   -0.029042
   7 H :    0.031845
   8 H :    0.021057
   9 C :   -0.027348
  10 H :    0.022145
  11 H :    0.024779
  12 C :   -0.074688
  13 H :    0.030077
  14 H :    0.032477
  15 H :    0.021507
  16 S :    0.403227
  17 C :   -0.201887
  18 C :   -0.074830
  19 C :   -0.046262
  20 C :   -0.181830
  21 H :    0.030096
  22 C :   -0.033552
  23 H :    0.035209
  24 H :    0.027703
  25 C :   -0.040210
  26 H :    0.020752
  27 H :    0.025802
  28 C :   -0.075594
  29 H :    0.032899
  30 H :    0.024541
  31 H :    0.025605
  32 H :    0.023425
  33 H :    0.023994

  Mayer bond orders larger than 0.100000
B(  0-S ,  1-C ) :   1.1590 B(  0-S ,  4-C ) :   1.1565 B(  1-C ,  2-C ) :   1.6062
B(  1-C , 32-H ) :   0.9572 B(  2-C ,  3-C ) :   1.2667 B(  2-C ,  6-C ) :   1.0283
B(  3-C ,  4-C ) :   1.5375 B(  3-C ,  5-H ) :   0.9910 B(  4-C , 20-C ) :   1.0653
B(  6-C ,  7-H ) :   0.9465 B(  6-C ,  8-H ) :   0.9434 B(  6-C ,  9-C ) :   1.0520
B(  9-C , 10-H ) :   0.9614 B(  9-C , 11-H ) :   0.9582 B(  9-C , 12-C ) :   1.0719
B( 12-C , 13-H ) :   0.9761 B( 12-C , 14-H ) :   0.9734 B( 12-C , 15-H ) :   0.9746
B( 16-S , 17-C ) :   1.1753 B( 16-S , 20-C ) :   1.1496 B( 17-C , 18-C ) :   1.5898
B( 17-C , 20-C ) :   0.1076 B( 17-C , 33-H ) :   0.9689 B( 18-C , 19-C ) :   1.2044
B( 18-C , 21-H ) :   1.0030 B( 19-C , 20-C ) :   1.5683 B( 19-C , 22-C ) :   1.0440
B( 22-C , 23-H ) :   0.9201 B( 22-C , 24-H ) :   0.9459 B( 22-C , 25-C ) :   1.0893
B( 25-C , 26-H ) :   0.9531 B( 25-C , 27-H ) :   0.9477 B( 25-C , 28-C ) :   1.0642
B( 28-C , 29-H ) :   0.9715 B( 28-C , 30-H ) :   0.9758 B( 28-C , 31-H ) :   0.9732

Dispersion correction           -0.014747273
FINAL SINGLE POINT ENERGY     -1339.856629936166

DIPOLE MOMENT
-------------
                                X             Y             Z
Electronic contribution:     17.73512       6.62638      13.16144
Nuclear contribution   :    -18.16027      -6.83446     -13.47419
                        -----------------------------------------
Total Dipole Moment    :     -0.42515      -0.20808      -0.31275
                        -----------------------------------------
Magnitude (a.u.)       :      0.56733
Magnitude (Debye)      :      1.44203

Rotational constants in cm-1:     0.020502     0.008010     0.006688
Rotational constants in MHz :   614.630600   240.121171   200.514822

                             ****ORCA TERMINATED NORMALLY****
TOTAL RUN TIME: 0 days 0 hours 0 minutes 30 seconds 431 msec
