                         Program Version 4.2.1 -  RELEASE  -
|  1> ! wB97X-D3 SP def2-SVP
|  2> %pal
|  3> nprocs 16
|  4> end
|  5>
|  6> * xyz 0 1
|  7> S 	 -3.59448 	 48.5383 	 45.2576
|  8> C 	 -2.49051 	 49.8382 	 45.425
|  9> C 	 -3.13699 	 51.0375 	 45.0275
| 10> C 	 -4.57701 	 50.8422 	 44.87
| 11> C 	 -4.895 	 49.4877 	 44.7926
| 12> H 	 -5.25307 	 51.6419 	 44.6749
| 13> C 	 -2.50259 	 52.4322 	 44.8457
| 14> H 	 -1.54905 	 52.5373 	 45.4313
| 15> H 	 -3.28697 	 53.1615 	 45.2383
| 16> C 	 -2.31204 	 52.9217 	 43.3018
| 17> H 	 -3.26103 	 53.0605 	 42.8252
| 18> H 	 -1.7725 	 53.822 	 43.3566
| 19> C 	 -1.52538 	 52.0339 	 42.3162
| 20> H 	 -0.625543 	 51.6366 	 42.851
| 21> H 	 -2.1992 	 51.2631 	 42.0346
| 22> H 	 -1.29875 	 52.5308 	 41.4451
| 23> S 	 -6.68873 	 49.1406 	 42.7382
| 24> C 	 -8.20178 	 48.4753 	 43.1874
| 25> C 	 -8.33423 	 47.9394 	 44.4512
| 26> C 	 -7.1167 	 48.1439 	 45.1651
| 27> C 	 -6.18547 	 48.9069 	 44.449
| 28> H 	 -9.23597 	 47.4135 	 44.701
| 29> C 	 -6.84582 	 47.7631 	 46.613
| 30> H 	 -5.82503 	 47.2273 	 46.655
| 31> H 	 -7.46732 	 46.9472 	 46.8395
| 32> C 	 -7.09288 	 48.9418 	 47.5734
| 33> H 	 -8.07026 	 48.9225 	 48.0308
| 34> H 	 -7.06333 	 49.8666 	 47.105
| 35> C 	 -6.05512 	 48.8616 	 48.7303
| 36> H 	 -6.25349 	 49.7915 	 49.4028
| 37> H 	 -5.01089 	 48.9707 	 48.466
| 38> H 	 -6.13932 	 47.9444 	 49.2935
| 39> H 	 -1.43335 	 49.8909 	 45.8257
| 40> H 	 -9.07544 	 48.384 	 42.4926
| 41> *
| 42>
| 43>                          ****END OF INPUT****

CARTESIAN COORDINATES (ANGSTROEM)
---------------------------------
  S     -3.594480   48.538300   45.257600
  C     -2.490510   49.838200   45.425000
  C     -3.136990   51.037500   45.027500
  C     -4.577010   50.842200   44.870000
  C     -4.895000   49.487700   44.792600
  H     -5.253070   51.641900   44.674900
  C     -2.502590   52.432200   44.845700
  H     -1.549050   52.537300   45.431300
  H     -3.286970   53.161500   45.238300
  C     -2.312040   52.921700   43.301800
  H     -3.261030   53.060500   42.825200
  H     -1.772500   53.822000   43.356600
  C     -1.525380   52.033900   42.316200
  H     -0.625543   51.636600   42.851000
  H     -2.199200   51.263100   42.034600
  H     -1.298750   52.530800   41.445100
  S     -6.688730   49.140600   42.738200
  C     -8.201780   48.475300   43.187400
  C     -8.334230   47.939400   44.451200
  C     -7.116700   48.143900   45.165100
  C     -6.185470   48.906900   44.449000
  H     -9.235970   47.413500   44.701000
  C     -6.845820   47.763100   46.613000
  H     -5.825030   47.227300   46.655000
  H     -7.467320   46.947200   46.839500
  C     -7.092880   48.941800   47.573400
  H     -8.070260   48.922500   48.030800
  H     -7.063330   49.866600   47.105000
  C     -6.055120   48.861600   48.730300
  H     -6.253490   49.791500   49.402800
  H     -5.010890   48.970700   48.466000
  H     -6.139320   47.944400   49.293500
  H     -1.433350   49.890900   45.825700
  H     -9.075440   48.384000   42.492600

 Total Charge           Charge          ....    0
 Multiplicity           Mult            ....    1
 Number of Electrons    NEL             ....  134
 Basis Dimension        Dim             ....  322

ORBITAL ENERGIES
----------------

  NO   OCC          E(Eh)            E(eV)
   0   2.0000     -88.967842     -2420.9381
   1   2.0000     -88.967186     -2420.9202
   2   2.0000     -10.324299      -280.9385
   3   2.0000     -10.323555      -280.9182
   4   2.0000     -10.317043      -280.7410
   5   2.0000     -10.316452      -280.7249
   6   2.0000     -10.308209      -280.5006
   7   2.0000     -10.306215      -280.4464
   8   2.0000     -10.306194      -280.4458
   9   2.0000     -10.293320      -280.0955
  10   2.0000     -10.292732      -280.0795
  11   2.0000     -10.289868      -280.0016
  12   2.0000     -10.283769      -279.8356
  13   2.0000     -10.279082      -279.7080
  14   2.0000     -10.277091      -279.6539
  15   2.0000     -10.265894      -279.3492
  16   2.0000      -8.083068      -219.9515
  17   2.0000      -8.082494      -219.9358
  18   2.0000      -6.041510      -164.3978
  19   2.0000      -6.040781      -164.3780
  20   2.0000      -6.037209      -164.2808
  21   2.0000      -6.037115      -164.2782
  22   2.0000      -6.034123      -164.1968
  23   2.0000      -6.033310      -164.1747
  24   2.0000      -1.009724       -27.4760
  25   2.0000      -0.985247       -26.8099
  26   2.0000      -0.905349       -24.6358
  27   2.0000      -0.897223       -24.4147
  28   2.0000      -0.865513       -23.5518
  29   2.0000      -0.850153       -23.1338
  30   2.0000      -0.845083       -22.9959
  31   2.0000      -0.809334       -22.0231
  32   2.0000      -0.779992       -21.2247
  33   2.0000      -0.765076       -20.8188
  34   2.0000      -0.707270       -19.2458
  35   2.0000      -0.697748       -18.9867
  36   2.0000      -0.686368       -18.6770
  37   2.0000      -0.657690       -17.8967
  38   2.0000      -0.636314       -17.3150
  39   2.0000      -0.614327       -16.7167
  40   2.0000      -0.593095       -16.1389
  41   2.0000      -0.566670       -15.4199
  42   2.0000      -0.552375       -15.0309
  43   2.0000      -0.549423       -14.9506
  44   2.0000      -0.539203       -14.6725
  45   2.0000      -0.524071       -14.2607
  46   2.0000      -0.521528       -14.1915
  47   2.0000      -0.507178       -13.8010
  48   2.0000      -0.495081       -13.4718
  49   2.0000      -0.488462       -13.2917
  50   2.0000      -0.485372       -13.2076
  51   2.0000      -0.479110       -13.0372
  52   2.0000      -0.469511       -12.7761
  53   2.0000      -0.467176       -12.7125
  54   2.0000      -0.458745       -12.4831
  55   2.0000      -0.450902       -12.2697
  56   2.0000      -0.444470       -12.0946
  57   2.0000      -0.437162       -11.8958
  58   2.0000      -0.431634       -11.7454
  59   2.0000      -0.426478       -11.6051
  60   2.0000      -0.419537       -11.4162
  61   2.0000      -0.409066       -11.1313
  62   2.0000      -0.404682       -11.0120
  63   2.0000      -0.335837        -9.1386
  64   2.0000      -0.328985        -8.9521
  65   2.0000      -0.321569        -8.7503
  66   2.0000      -0.297819        -8.1041
  67   0.0000       0.035081         0.9546
  68   0.0000       0.067552         1.8382
  69   0.0000       0.102647         2.7932
  70   0.0000       0.114144         3.1060
  71   0.0000       0.132091         3.5944

MULLIKEN ATOMIC CHARGES
-----------------------
   0 S :    0.140992
   1 C :   -0.138080
   2 C :   -0.116864
   3 C :    0.047906
   4 C :   -0.165105
   5 H :    0.004631
   6 C :    0.011378
   7 H :    0.037650
   8 H :    0.045275
   9 C :   -0.075271
  10 H :    0.024676
  11 H :    0.025016
  12 C :   -0.019208
  13 H :    0.032983
  14 H :    0.028500
  15 H :    0.018121
  16 S :    0.126930
  17 C :   -0.095496
  18 C :   -0.045702
  19 C :   -0.031531
  20 C :   -0.185916
  21 H :    0.015630
  22 C :    0.072026
  23 H :    0.044796
  24 H :   -0.000178
  25 C :    0.005259
  26 H :    0.024899
  27 H :    0.022311
  28 C :   -0.096095
  29 H :    0.034277
  30 H :    0.038522
  31 H :    0.034586
  32 H :    0.071858
  33 H :    0.061222
Sum of atomic charges:    0.0000000

LOEWDIN ATOMIC CHARGES
----------------------
   0 S :    0.467638
   1 C :   -0.239210
   2 C :   -0.065473
   3 C :   -0.062817
   4 C :   -0.229913
   5 H :    0.025171
   6 C :   -0.038241
   7 H :    0.031704
   8 H :    0.041283
   9 C :   -0.031888
  10 H :    0.019893
  11 H :    0.016133
  12 C :   -0.057370
  13 H :    0.029245
  14 H :    0.023192
  15 H :    0.015167
  16 S :    0.407334
  17 C :   -0.193826
  18 C :   -0.078667
  19 C :   -0.043286
  20 C :   -0.195523
  21 H :    0.033883
  22 C :   -0.036726
  23 H :    0.037421
  24 H :    0.021463
  25 C :   -0.026762
  26 H :    0.026758
  27 H :    0.016804
  28 C :   -0.067239
  29 H :    0.032278
  30 H :    0.021033
  31 H :    0.020496
  32 H :    0.046888
  33 H :    0.033156

  Mayer bond orders larger than 0.100000
B(  0-S ,  1-C ) :   1.1546 B(  0-S ,  4-C ) :   1.1918 B(  1-C ,  2-C ) :   1.5696
B(  1-C , 32-H ) :   0.9613 B(  2-C ,  3-C ) :   1.2637 B(  2-C ,  6-C ) :   1.0307
B(  3-C ,  4-C ) :   1.5353 B(  3-C ,  5-H ) :   0.9960 B(  4-C , 20-C ) :   1.0270
B(  6-C ,  7-H ) :   0.9477 B(  6-C ,  8-H ) :   0.9440 B(  6-C ,  9-C ) :   1.0531
B(  9-C , 10-H ) :   0.9613 B(  9-C , 11-H ) :   0.9615 B(  9-C , 12-C ) :   1.0810
B( 12-C , 13-H ) :   0.9772 B( 12-C , 14-H ) :   0.9761 B( 12-C , 15-H ) :   0.9729
B( 16-S , 17-C ) :   1.1716 B( 16-S , 20-C ) :   1.1313 B( 17-C , 18-C ) :   1.6252
B( 17-C , 33-H ) :   0.9536 B( 18-C , 19-C ) :   1.2243 B( 18-C , 21-H ) :   0.9971
B( 19-C , 20-C ) :   1.5959 B( 19-C , 22-C ) :   1.0489 B( 22-C , 23-H ) :   0.9449
B( 22-C , 24-H ) :   0.9180 B( 22-C , 25-C ) :   1.0294 B( 25-C , 26-H ) :   0.9515
B( 25-C , 27-H ) :   0.9687 B( 25-C , 28-C ) :   1.0738 B( 28-C , 29-H ) :   0.9747
B( 28-C , 30-H ) :   0.9804 B( 28-C , 31-H ) :   0.9770

Dispersion correction           -0.015380627
FINAL SINGLE POINT ENERGY     -1339.853300816162

DIPOLE MOMENT
-------------
                                X             Y             Z
Electronic contribution:     -6.31331     -11.11453      -9.43051
Nuclear contribution   :      6.15317      11.34784       9.57713
                        -----------------------------------------
Total Dipole Moment    :     -0.16015       0.23331       0.14662
                        -----------------------------------------
Magnitude (a.u.)       :      0.31872
Magnitude (Debye)      :      0.81011

Rotational constants in cm-1:     0.019696     0.009346     0.007296
Rotational constants in MHz :   590.468498   280.178870   218.717159

                             ****ORCA TERMINATED NORMALLY****
TOTAL RUN TIME: 0 days 0 hours 0 minutes 33 seconds 156 msec
