                         Program Version 4.2.1 -  RELEASE  -
|  1> ! wB97X-D3 SP def2-SVP
|  2> %pal
|  3> nprocs 16
|  4> end
|  5>
|  6> * xyz 0 1
|  7> S 	 -73.8514 	 53.0106 	 122.622
|  8> C 	 -73.4853 	 54.643 	 122.051
|  9> C 	 -74.5167 	 55.151 	 121.334
| 10> C 	 -75.7089 	 54.3618 	 121.384
| 11> C 	 -75.4898 	 53.1543 	 122.031
| 12> H 	 -76.7385 	 54.5762 	 121.017
| 13> C 	 -74.3227 	 56.4403 	 120.488
| 14> H 	 -74.9339 	 57.2369 	 120.965
| 15> H 	 -74.7154 	 56.3153 	 119.489
| 16> C 	 -72.9431 	 57.0159 	 120.384
| 17> H 	 -72.4983 	 57.079 	 121.355
| 18> H 	 -72.2977 	 56.3935 	 119.836
| 19> C 	 -72.9667 	 58.4251 	 119.656
| 20> H 	 -72.082 	 59.0041 	 119.732
| 21> H 	 -73.2829 	 58.4362 	 118.675
| 22> H 	 -73.6771 	 59.0434 	 120.155
| 23> S 	 -76.4799 	 50.5879 	 121.37
| 24> C 	 -77.904 	 50.0162 	 122.177
| 25> C 	 -78.3315 	 50.9172 	 123.149
| 26> C 	 -77.587 	 52.1614 	 123.147
| 27> C 	 -76.5227 	 52.1337 	 122.245
| 28> H 	 -79.191 	 50.7326 	 123.783
| 29> C 	 -77.7253 	 53.311 	 124.089
| 30> H 	 -77.0413 	 54.011 	 123.739
| 31> H 	 -77.4208 	 52.962 	 125.062
| 32> C 	 -79.1037 	 53.8815 	 124.263
| 33> H 	 -79.7126 	 53.0146 	 124.508
| 34> H 	 -79.5522 	 54.0727 	 123.298
| 35> C 	 -79.2315 	 54.9738 	 125.383
| 36> H 	 -78.523 	 55.7637 	 125.173
| 37> H 	 -79.1007 	 54.5357 	 126.354
| 38> H 	 -80.1869 	 55.4641 	 125.347
| 39> H 	 -72.4636 	 54.9812 	 122.109
| 40> H 	 -78.3507 	 48.9675 	 122.074
| 41> *
| 42>
| 43>                          ****END OF INPUT****

CARTESIAN COORDINATES (ANGSTROEM)
---------------------------------
  S    -73.851400   53.010600  122.622000
  C    -73.485300   54.643000  122.051000
  C    -74.516700   55.151000  121.334000
  C    -75.708900   54.361800  121.384000
  C    -75.489800   53.154300  122.031000
  H    -76.738500   54.576200  121.017000
  C    -74.322700   56.440300  120.488000
  H    -74.933900   57.236900  120.965000
  H    -74.715400   56.315300  119.489000
  C    -72.943100   57.015900  120.384000
  H    -72.498300   57.079000  121.355000
  H    -72.297700   56.393500  119.836000
  C    -72.966700   58.425100  119.656000
  H    -72.082000   59.004100  119.732000
  H    -73.282900   58.436200  118.675000
  H    -73.677100   59.043400  120.155000
  S    -76.479900   50.587900  121.370000
  C    -77.904000   50.016200  122.177000
  C    -78.331500   50.917200  123.149000
  C    -77.587000   52.161400  123.147000
  C    -76.522700   52.133700  122.245000
  H    -79.191000   50.732600  123.783000
  C    -77.725300   53.311000  124.089000
  H    -77.041300   54.011000  123.739000
  H    -77.420800   52.962000  125.062000
  C    -79.103700   53.881500  124.263000
  H    -79.712600   53.014600  124.508000
  H    -79.552200   54.072700  123.298000
  C    -79.231500   54.973800  125.383000
  H    -78.523000   55.763700  125.173000
  H    -79.100700   54.535700  126.354000
  H    -80.186900   55.464100  125.347000
  H    -72.463600   54.981200  122.109000
  H    -78.350700   48.967500  122.074000

 Total Charge           Charge          ....    0
 Multiplicity           Mult            ....    1
 Number of Electrons    NEL             ....  134
 Basis Dimension        Dim             ....  322

ORBITAL ENERGIES
----------------

  NO   OCC          E(Eh)            E(eV)
   0   2.0000     -88.965141     -2420.8646
   1   2.0000     -88.964373     -2420.8437
   2   2.0000     -10.329812      -281.0885
   3   2.0000     -10.324659      -280.9482
   4   2.0000     -10.324584      -280.9462
   5   2.0000     -10.312171      -280.6084
   6   2.0000     -10.304761      -280.4068
   7   2.0000     -10.302188      -280.3368
   8   2.0000     -10.300422      -280.2887
   9   2.0000     -10.296488      -280.1817
  10   2.0000     -10.293580      -280.1025
  11   2.0000     -10.283972      -279.8411
  12   2.0000     -10.281480      -279.7733
  13   2.0000     -10.278170      -279.6832
  14   2.0000     -10.275805      -279.6189
  15   2.0000     -10.270910      -279.4857
  16   2.0000      -8.079659      -219.8587
  17   2.0000      -8.079083      -219.8430
  18   2.0000      -6.038163      -164.3068
  19   2.0000      -6.037550      -164.2901
  20   2.0000      -6.034166      -164.1980
  21   2.0000      -6.033663      -164.1843
  22   2.0000      -6.030461      -164.0972
  23   2.0000      -6.029820      -164.0797
  24   2.0000      -1.004175       -27.3250
  25   2.0000      -0.982225       -26.7277
  26   2.0000      -0.913501       -24.8576
  27   2.0000      -0.912112       -24.8198
  28   2.0000      -0.867392       -23.6029
  29   2.0000      -0.848445       -23.0874
  30   2.0000      -0.844184       -22.9714
  31   2.0000      -0.813295       -22.1309
  32   2.0000      -0.786478       -21.4011
  33   2.0000      -0.772957       -21.0332
  34   2.0000      -0.717832       -19.5332
  35   2.0000      -0.707797       -19.2601
  36   2.0000      -0.692674       -18.8486
  37   2.0000      -0.651857       -17.7379
  38   2.0000      -0.644401       -17.5350
  39   2.0000      -0.609184       -16.5767
  40   2.0000      -0.594078       -16.1657
  41   2.0000      -0.575976       -15.6731
  42   2.0000      -0.570695       -15.5294
  43   2.0000      -0.562307       -15.3012
  44   2.0000      -0.523943       -14.2572
  45   2.0000      -0.520710       -14.1692
  46   2.0000      -0.517685       -14.0869
  47   2.0000      -0.513090       -13.9619
  48   2.0000      -0.503833       -13.7100
  49   2.0000      -0.500764       -13.6265
  50   2.0000      -0.493749       -13.4356
  51   2.0000      -0.479560       -13.0495
  52   2.0000      -0.471047       -12.8178
  53   2.0000      -0.463425       -12.6104
  54   2.0000      -0.458836       -12.4856
  55   2.0000      -0.450580       -12.2609
  56   2.0000      -0.447395       -12.1742
  57   2.0000      -0.441156       -12.0045
  58   2.0000      -0.436494       -11.8776
  59   2.0000      -0.430823       -11.7233
  60   2.0000      -0.421781       -11.4772
  61   2.0000      -0.418369       -11.3844
  62   2.0000      -0.412915       -11.2360
  63   2.0000      -0.333630        -9.0785
  64   2.0000      -0.331297        -9.0150
  65   2.0000      -0.327714        -8.9175
  66   2.0000      -0.304898        -8.2967
  67   0.0000       0.041634         1.1329
  68   0.0000       0.059809         1.6275
  69   0.0000       0.115793         3.1509
  70   0.0000       0.123039         3.3481
  71   0.0000       0.130135         3.5412

MULLIKEN ATOMIC CHARGES
-----------------------
   0 S :    0.112336
   1 C :   -0.147431
   2 C :   -0.050120
   3 C :    0.027411
   4 C :   -0.193881
   5 H :    0.035158
   6 C :    0.054370
   7 H :    0.033397
   8 H :    0.031560
   9 C :   -0.071812
  10 H :    0.027176
  11 H :    0.021555
  12 C :   -0.000469
  13 H :    0.022951
  14 H :    0.017082
  15 H :    0.005422
  16 S :    0.112625
  17 C :   -0.119632
  18 C :   -0.035098
  19 C :   -0.048237
  20 C :   -0.184326
  21 H :    0.022307
  22 C :    0.143365
  23 H :    0.009747
  24 H :    0.022909
  25 C :   -0.106345
  26 H :    0.008582
  27 H :    0.014090
  28 C :   -0.004880
  29 H :    0.031342
  30 H :    0.035343
  31 H :    0.029570
  32 H :    0.055657
  33 H :    0.088276
Sum of atomic charges:   -0.0000000

LOEWDIN ATOMIC CHARGES
----------------------
   0 S :    0.396370
   1 C :   -0.191312
   2 C :   -0.062074
   3 C :   -0.061989
   4 C :   -0.195421
   5 H :    0.043294
   6 C :   -0.029527
   7 H :    0.035136
   8 H :    0.030162
   9 C :   -0.033634
  10 H :    0.020434
  11 H :    0.016476
  12 C :   -0.052553
  13 H :    0.024357
  14 H :    0.016304
  15 H :    0.021462
  16 S :    0.401695
  17 C :   -0.201498
  18 C :   -0.078050
  19 C :   -0.045640
  20 C :   -0.203041
  21 H :    0.029342
  22 C :   -0.026631
  23 H :    0.020215
  24 H :    0.033662
  25 C :   -0.044741
  26 H :    0.019189
  27 H :    0.020073
  28 C :   -0.055256
  29 H :    0.026200
  30 H :    0.025816
  31 H :    0.026649
  32 H :    0.025259
  33 H :    0.049271

  Mayer bond orders larger than 0.100000
B(  0-S ,  1-C ) :   1.1205 B(  0-S ,  4-C ) :   1.1579 B(  1-C ,  2-C ) :   1.6497
B(  1-C , 32-H ) :   0.9596 B(  2-C ,  3-C ) :   1.2148 B(  2-C ,  6-C ) :   0.9972
B(  3-C ,  4-C ) :   1.5916 B(  3-C ,  5-H ) :   0.9926 B(  4-C , 20-C ) :   1.0227
B(  6-C ,  7-H ) :   0.9348 B(  6-C ,  8-H ) :   0.9470 B(  6-C ,  9-C ) :   1.0903
B(  9-C , 10-H ) :   0.9438 B(  9-C , 11-H ) :   0.9540 B(  9-C , 12-C ) :   1.0770
B( 12-C , 13-H ) :   0.9737 B( 12-C , 14-H ) :   0.9769 B( 12-C , 15-H ) :   0.9726
B( 16-S , 17-C ) :   1.1634 B( 16-S , 20-C ) :   1.1352 B( 17-C , 18-C ) :   1.6057
B( 17-C , 33-H ) :   0.9553 B( 18-C , 19-C ) :   1.2333 B( 18-C , 21-H ) :   0.9865
B( 19-C , 20-C ) :   1.5983 B( 19-C , 22-C ) :   1.0529 B( 22-C , 23-H ) :   0.9172
B( 22-C , 24-H ) :   0.9248 B( 22-C , 25-C ) :   1.0557 B( 25-C , 26-H ) :   0.9538
B( 25-C , 27-H ) :   0.9584 B( 25-C , 28-C ) :   1.0707 B( 28-C , 29-H ) :   0.9779
B( 28-C , 30-H ) :   0.9750 B( 28-C , 31-H ) :   0.9745

Dispersion correction           -0.013682280
FINAL SINGLE POINT ENERGY     -1339.878349289496

DIPOLE MOMENT
-------------
                                X             Y             Z
Electronic contribution:      5.19300     -26.54918      -2.70217
Nuclear contribution   :     -5.43963      27.05962       2.77213
                        -----------------------------------------
Total Dipole Moment    :     -0.24663       0.51044       0.06996
                        -----------------------------------------
Magnitude (a.u.)       :      0.57120
Magnitude (Debye)      :      1.45186

Rotational constants in cm-1:     0.019269     0.007443     0.006031
Rotational constants in MHz :   577.682831   223.124113   180.806713

                             ****ORCA TERMINATED NORMALLY****
TOTAL RUN TIME: 0 days 0 hours 0 minutes 32 seconds 82 msec
