                         Program Version 4.2.1 -  RELEASE  -
|  1> ! wB97X-D3 SP def2-SVP
|  2> %pal
|  3> nprocs 16
|  4> end
|  5>
|  6> * xyz 0 1
|  7> S 	 -56.4065 	 51.0428 	 137.381
|  8> C 	 -56.7481 	 52.7342 	 137.275
|  9> C 	 -57.3947 	 53.2802 	 138.368
| 10> C 	 -57.7253 	 52.2388 	 139.296
| 11> C 	 -57.3625 	 50.9546 	 138.844
| 12> H 	 -58.2926 	 52.2969 	 140.227
| 13> C 	 -57.8798 	 54.6912 	 138.615
| 14> H 	 -57.0207 	 55.2889 	 138.311
| 15> H 	 -57.9536 	 54.8595 	 139.69
| 16> C 	 -59.1871 	 55.0778 	 137.788
| 17> H 	 -58.9945 	 54.7685 	 136.761
| 18> H 	 -59.9562 	 54.4261 	 138.182
| 19> C 	 -59.5822 	 56.5577 	 137.922
| 20> H 	 -58.8266 	 57.2825 	 137.603
| 21> H 	 -60.4925 	 56.6429 	 137.292
| 22> H 	 -60.0052 	 56.885 	 138.842
| 23> S 	 -56.2702 	 48.6334 	 139.777
| 24> C 	 -57.1717 	 47.4485 	 140.725
| 25> C 	 -58.3951 	 47.9741 	 140.991
| 26> C 	 -58.7256 	 49.2043 	 140.306
| 27> C 	 -57.6589 	 49.6653 	 139.506
| 28> H 	 -59.1365 	 47.5451 	 141.694
| 29> C 	 -60.0207 	 50.0259 	 140.479
| 30> H 	 -60.835 	 49.3651 	 140.348
| 31> H 	 -60.0298 	 50.8236 	 139.756
| 32> C 	 -60.0362 	 50.6572 	 141.918
| 33> H 	 -59.2983 	 51.4461 	 142.046
| 34> H 	 -59.7919 	 49.8685 	 142.628
| 35> C 	 -61.4286 	 51.0716 	 142.495
| 36> H 	 -62.2206 	 50.3344 	 142.416
| 37> H 	 -61.7699 	 51.9576 	 141.941
| 38> H 	 -61.3454 	 51.3332 	 143.535
| 39> H 	 -56.5069 	 53.341 	 136.428
| 40> H 	 -56.7853 	 46.5951 	 141.209
| 41> *
| 42>
| 43>                          ****END OF INPUT****

CARTESIAN COORDINATES (ANGSTROEM)
---------------------------------
  S    -56.406500   51.042800  137.381000
  C    -56.748100   52.734200  137.275000
  C    -57.394700   53.280200  138.368000
  C    -57.725300   52.238800  139.296000
  C    -57.362500   50.954600  138.844000
  H    -58.292600   52.296900  140.227000
  C    -57.879800   54.691200  138.615000
  H    -57.020700   55.288900  138.311000
  H    -57.953600   54.859500  139.690000
  C    -59.187100   55.077800  137.788000
  H    -58.994500   54.768500  136.761000
  H    -59.956200   54.426100  138.182000
  C    -59.582200   56.557700  137.922000
  H    -58.826600   57.282500  137.603000
  H    -60.492500   56.642900  137.292000
  H    -60.005200   56.885000  138.842000
  S    -56.270200   48.633400  139.777000
  C    -57.171700   47.448500  140.725000
  C    -58.395100   47.974100  140.991000
  C    -58.725600   49.204300  140.306000
  C    -57.658900   49.665300  139.506000
  H    -59.136500   47.545100  141.694000
  C    -60.020700   50.025900  140.479000
  H    -60.835000   49.365100  140.348000
  H    -60.029800   50.823600  139.756000
  C    -60.036200   50.657200  141.918000
  H    -59.298300   51.446100  142.046000
  H    -59.791900   49.868500  142.628000
  C    -61.428600   51.071600  142.495000
  H    -62.220600   50.334400  142.416000
  H    -61.769900   51.957600  141.941000
  H    -61.345400   51.333200  143.535000
  H    -56.506900   53.341000  136.428000
  H    -56.785300   46.595100  141.209000

 Total Charge           Charge          ....    0
 Multiplicity           Mult            ....    1
 Number of Electrons    NEL             ....  134
 Basis Dimension        Dim             ....  322

ORBITAL ENERGIES
----------------

  NO   OCC          E(Eh)            E(eV)
   0   2.0000     -88.970632     -2421.0140
   1   2.0000     -88.960393     -2420.7354
   2   2.0000     -10.332418      -281.1594
   3   2.0000     -10.329085      -281.0687
   4   2.0000     -10.315272      -280.6928
   5   2.0000     -10.311438      -280.5885
   6   2.0000     -10.306340      -280.4498
   7   2.0000     -10.301737      -280.3245
   8   2.0000     -10.297118      -280.1988
   9   2.0000     -10.296809      -280.1904
  10   2.0000     -10.296055      -280.1699
  11   2.0000     -10.294718      -280.1335
  12   2.0000     -10.293152      -280.0909
  13   2.0000     -10.291780      -280.0536
  14   2.0000     -10.282376      -279.7977
  15   2.0000     -10.279799      -279.7276
  16   2.0000      -8.085483      -220.0172
  17   2.0000      -8.075133      -219.7355
  18   2.0000      -6.043891      -164.4626
  19   2.0000      -6.040059      -164.3584
  20   2.0000      -6.036263      -164.2551
  21   2.0000      -6.033792      -164.1878
  22   2.0000      -6.029601      -164.0738
  23   2.0000      -6.025755      -163.9691
  24   2.0000      -1.004545       -27.3351
  25   2.0000      -0.982990       -26.7485
  26   2.0000      -0.907114       -24.6838
  27   2.0000      -0.903269       -24.5792
  28   2.0000      -0.868129       -23.6230
  29   2.0000      -0.853095       -23.2139
  30   2.0000      -0.842561       -22.9273
  31   2.0000      -0.813994       -22.1499
  32   2.0000      -0.782498       -21.2929
  33   2.0000      -0.772475       -21.0201
  34   2.0000      -0.709510       -19.3068
  35   2.0000      -0.702399       -19.1132
  36   2.0000      -0.698320       -19.0023
  37   2.0000      -0.661919       -18.0117
  38   2.0000      -0.640085       -17.4176
  39   2.0000      -0.614551       -16.7228
  40   2.0000      -0.594645       -16.1811
  41   2.0000      -0.569262       -15.4904
  42   2.0000      -0.563850       -15.3431
  43   2.0000      -0.556990       -15.1565
  44   2.0000      -0.525861       -14.3094
  45   2.0000      -0.522515       -14.2184
  46   2.0000      -0.519175       -14.1275
  47   2.0000      -0.511866       -13.9286
  48   2.0000      -0.507407       -13.8072
  49   2.0000      -0.498930       -13.5766
  50   2.0000      -0.495758       -13.4903
  51   2.0000      -0.478009       -13.0073
  52   2.0000      -0.473853       -12.8942
  53   2.0000      -0.468080       -12.7371
  54   2.0000      -0.461560       -12.5597
  55   2.0000      -0.450756       -12.2657
  56   2.0000      -0.446090       -12.1387
  57   2.0000      -0.443351       -12.0642
  58   2.0000      -0.436591       -11.8802
  59   2.0000      -0.433013       -11.7829
  60   2.0000      -0.420519       -11.4429
  61   2.0000      -0.416449       -11.3322
  62   2.0000      -0.406491       -11.0612
  63   2.0000      -0.350341        -9.5333
  64   2.0000      -0.332584        -9.0501
  65   2.0000      -0.324061        -8.8181
  66   2.0000      -0.288868        -7.8605
  67   0.0000       0.026726         0.7272
  68   0.0000       0.072065         1.9610
  69   0.0000       0.104558         2.8452
  70   0.0000       0.122735         3.3398
  71   0.0000       0.132994         3.6189

MULLIKEN ATOMIC CHARGES
-----------------------
   0 S :    0.133103
   1 C :   -0.114139
   2 C :   -0.093116
   3 C :    0.030653
   4 C :   -0.170479
   5 H :   -0.005123
   6 C :    0.061401
   7 H :    0.022394
   8 H :    0.025991
   9 C :   -0.057337
  10 H :    0.032431
  11 H :    0.029560
  12 C :   -0.034015
  13 H :    0.043127
  14 H :    0.030839
  15 H :    0.023568
  16 S :    0.076307
  17 C :   -0.059241
  18 C :   -0.037859
  19 C :   -0.093310
  20 C :   -0.119151
  21 H :    0.027988
  22 C :    0.122859
  23 H :    0.014631
  24 H :    0.028593
  25 C :   -0.112748
  26 H :    0.040222
  27 H :    0.023418
  28 C :   -0.040655
  29 H :    0.030405
  30 H :    0.025280
  31 H :    0.033497
  32 H :    0.033940
  33 H :    0.046965
Sum of atomic charges:   -0.0000000

LOEWDIN ATOMIC CHARGES
----------------------
   0 S :    0.422130
   1 C :   -0.201522
   2 C :   -0.063883
   3 C :   -0.060994
   4 C :   -0.198663
   5 H :    0.029709
   6 C :   -0.034977
   7 H :    0.029277
   8 H :    0.029616
   9 C :   -0.029544
  10 H :    0.026157
  11 H :    0.025844
  12 C :   -0.070597
  13 H :    0.028391
  14 H :    0.034541
  15 H :    0.021737
  16 S :    0.392103
  17 C :   -0.176370
  18 C :   -0.073562
  19 C :   -0.058382
  20 C :   -0.196724
  21 H :    0.034223
  22 C :   -0.018419
  23 H :    0.024745
  24 H :    0.026888
  25 C :   -0.039429
  26 H :    0.021761
  27 H :    0.023184
  28 C :   -0.065485
  29 H :    0.022956
  30 H :    0.022036
  31 H :    0.025127
  32 H :    0.021814
  33 H :    0.026312

  Mayer bond orders larger than 0.100000
B(  0-S ,  1-C ) :   1.1460 B(  0-S ,  4-C ) :   1.1608 B(  1-C ,  2-C ) :   1.6133
B(  1-C , 32-H ) :   0.9665 B(  2-C ,  3-C ) :   1.2421 B(  2-C ,  6-C ) :   1.0224
B(  3-C ,  4-C ) :   1.5585 B(  3-C ,  5-H ) :   0.9890 B(  4-C , 20-C ) :   1.0226
B(  6-C ,  7-H ) :   0.9341 B(  6-C ,  8-H ) :   0.9448 B(  6-C ,  9-C ) :   1.0486
B(  9-C , 10-H ) :   0.9594 B(  9-C , 11-H ) :   0.9562 B(  9-C , 12-C ) :   1.0806
B( 12-C , 13-H ) :   0.9762 B( 12-C , 14-H ) :   0.9703 B( 12-C , 15-H ) :   0.9739
B( 16-S , 17-C ) :   1.1373 B( 16-S , 20-C ) :   1.1479 B( 17-C , 18-C ) :   1.6055
B( 17-C , 33-H ) :   0.9767 B( 18-C , 19-C ) :   1.2547 B( 18-C , 21-H ) :   0.9785
B( 19-C , 20-C ) :   1.5948 B( 19-C , 22-C ) :   1.0447 B( 22-C , 23-H ) :   0.9317
B( 22-C , 24-H ) :   0.9372 B( 22-C , 25-C ) :   1.0520 B( 25-C , 26-H ) :   0.9531
B( 25-C , 27-H ) :   0.9604 B( 25-C , 28-C ) :   1.0747 B( 28-C , 29-H ) :   0.9768
B( 28-C , 30-H ) :   0.9759 B( 28-C , 31-H ) :   0.9754

Dispersion correction           -0.014018334
FINAL SINGLE POINT ENERGY     -1339.878870535119

DIPOLE MOMENT
-------------
                                X             Y             Z
Electronic contribution:     22.74222     -22.01732      -9.28737
Nuclear contribution   :    -23.33915      22.50836       9.67294
                        -----------------------------------------
Total Dipole Moment    :     -0.59693       0.49104       0.38557
                        -----------------------------------------
Magnitude (a.u.)       :      0.86378
Magnitude (Debye)      :      2.19555

Rotational constants in cm-1:     0.017460     0.008955     0.006181
Rotational constants in MHz :   523.430780   268.452397   185.305309

                             ****ORCA TERMINATED NORMALLY****
TOTAL RUN TIME: 0 days 0 hours 0 minutes 34 seconds 262 msec
