                         Program Version 4.2.1 -  RELEASE  -
|  1> ! wB97X-D3 SP def2-SVP
|  2> %pal
|  3> nprocs 16
|  4> end
|  5>
|  6> * xyz 0 1
|  7> S 	 -25.8916 	 45.7057 	 58.8035
|  8> C 	 -27.2944 	 45.7255 	 59.8729
|  9> C 	 -27.1665 	 46.5929 	 60.9153
| 10> C 	 -25.8807 	 47.2948 	 60.8166
| 11> C 	 -25.1006 	 47.0346 	 59.715
| 12> H 	 -25.561 	 48.0853 	 61.442
| 13> C 	 -28.3103 	 46.7443 	 61.9312
| 14> H 	 -28.2072 	 45.8433 	 62.4303
| 15> H 	 -29.182 	 46.783 	 61.2938
| 16> C 	 -28.2397 	 48.0565 	 62.8306
| 17> H 	 -29.0614 	 47.9874 	 63.6121
| 18> H 	 -27.3519 	 47.9277 	 63.4072
| 19> C 	 -28.1624 	 49.3943 	 62.0425
| 20> H 	 -27.1766 	 49.4532 	 61.5815
| 21> H 	 -28.9094 	 49.5287 	 61.2817
| 22> H 	 -28.1915 	 50.2943 	 62.6201
| 23> S 	 -22.431 	 46.4712 	 60.0494
| 24> C 	 -21.2546 	 47.6411 	 59.5095
| 25> C 	 -21.7984 	 48.723 	 58.9123
| 26> C 	 -23.2484 	 48.7421 	 58.9482
| 27> C 	 -23.7329 	 47.5696 	 59.6004
| 28> H 	 -21.1321 	 49.5343 	 58.5111
| 29> C 	 -24.0845 	 49.824 	 58.1849
| 30> H 	 -23.4352 	 50.7324 	 58.0684
| 31> H 	 -24.8968 	 50.1701 	 58.8504
| 32> C 	 -24.6963 	 49.3247 	 56.8508
| 33> H 	 -25.356 	 50.2339 	 56.5036
| 34> H 	 -25.3169 	 48.4454 	 56.9484
| 35> C 	 -23.6802 	 49.0955 	 55.7121
| 36> H 	 -24.1359 	 48.778 	 54.7559
| 37> H 	 -22.9804 	 48.3012 	 56.026
| 38> H 	 -23.0431 	 49.9806 	 55.5541
| 39> H 	 -28.231 	 45.2024 	 59.718
| 40> H 	 -20.1639 	 47.4366 	 59.3688
| 41> *
| 42>
| 43>                          ****END OF INPUT****

CARTESIAN COORDINATES (ANGSTROEM)
---------------------------------
  S    -25.891600   45.705700   58.803500
  C    -27.294400   45.725500   59.872900
  C    -27.166500   46.592900   60.915300
  C    -25.880700   47.294800   60.816600
  C    -25.100600   47.034600   59.715000
  H    -25.561000   48.085300   61.442000
  C    -28.310300   46.744300   61.931200
  H    -28.207200   45.843300   62.430300
  H    -29.182000   46.783000   61.293800
  C    -28.239700   48.056500   62.830600
  H    -29.061400   47.987400   63.612100
  H    -27.351900   47.927700   63.407200
  C    -28.162400   49.394300   62.042500
  H    -27.176600   49.453200   61.581500
  H    -28.909400   49.528700   61.281700
  H    -28.191500   50.294300   62.620100
  S    -22.431000   46.471200   60.049400
  C    -21.254600   47.641100   59.509500
  C    -21.798400   48.723000   58.912300
  C    -23.248400   48.742100   58.948200
  C    -23.732900   47.569600   59.600400
  H    -21.132100   49.534300   58.511100
  C    -24.084500   49.824000   58.184900
  H    -23.435200   50.732400   58.068400
  H    -24.896800   50.170100   58.850400
  C    -24.696300   49.324700   56.850800
  H    -25.356000   50.233900   56.503600
  H    -25.316900   48.445400   56.948400
  C    -23.680200   49.095500   55.712100
  H    -24.135900   48.778000   54.755900
  H    -22.980400   48.301200   56.026000
  H    -23.043100   49.980600   55.554100
  H    -28.231000   45.202400   59.718000
  H    -20.163900   47.436600   59.368800

 Total Charge           Charge          ....    0
 Multiplicity           Mult            ....    1
 Number of Electrons    NEL             ....  134
 Basis Dimension        Dim             ....  322

ORBITAL ENERGIES
----------------

  NO   OCC          E(Eh)            E(eV)
   0   2.0000     -88.967177     -2420.9200
   1   2.0000     -88.965484     -2420.8739
   2   2.0000     -10.331729      -281.1406
   3   2.0000     -10.330038      -281.0946
   4   2.0000     -10.316184      -280.7176
   5   2.0000     -10.313285      -280.6388
   6   2.0000     -10.311602      -280.5930
   7   2.0000     -10.303340      -280.3681
   8   2.0000     -10.301542      -280.3192
   9   2.0000     -10.298822      -280.2452
  10   2.0000     -10.296389      -280.1790
  11   2.0000     -10.294726      -280.1337
  12   2.0000     -10.293763      -280.1075
  13   2.0000     -10.293604      -280.1032
  14   2.0000     -10.278445      -279.6907
  15   2.0000     -10.277172      -279.6561
  16   2.0000      -8.081837      -219.9180
  17   2.0000      -8.078906      -219.8382
  18   2.0000      -6.040384      -164.3672
  19   2.0000      -6.037648      -164.2928
  20   2.0000      -6.036385      -164.2584
  21   2.0000      -6.033585      -164.1822
  22   2.0000      -6.032512      -164.1530
  23   2.0000      -6.029489      -164.0707
  24   2.0000      -0.999340       -27.1934
  25   2.0000      -0.979095       -26.6425
  26   2.0000      -0.905831       -24.6489
  27   2.0000      -0.898426       -24.4474
  28   2.0000      -0.869724       -23.6664
  29   2.0000      -0.841526       -22.8991
  30   2.0000      -0.838863       -22.8266
  31   2.0000      -0.816876       -22.2283
  32   2.0000      -0.784493       -21.3471
  33   2.0000      -0.770665       -20.9709
  34   2.0000      -0.713147       -19.4057
  35   2.0000      -0.696630       -18.9563
  36   2.0000      -0.681371       -18.5410
  37   2.0000      -0.649672       -17.6785
  38   2.0000      -0.639011       -17.3884
  39   2.0000      -0.614767       -16.7287
  40   2.0000      -0.589069       -16.0294
  41   2.0000      -0.567644       -15.4464
  42   2.0000      -0.559111       -15.2142
  43   2.0000      -0.544354       -14.8126
  44   2.0000      -0.535608       -14.5746
  45   2.0000      -0.526806       -14.3351
  46   2.0000      -0.513712       -13.9788
  47   2.0000      -0.508081       -13.8256
  48   2.0000      -0.497985       -13.5509
  49   2.0000      -0.489850       -13.3295
  50   2.0000      -0.484689       -13.1891
  51   2.0000      -0.478692       -13.0259
  52   2.0000      -0.471681       -12.8351
  53   2.0000      -0.467190       -12.7129
  54   2.0000      -0.460160       -12.5216
  55   2.0000      -0.448626       -12.2077
  56   2.0000      -0.443669       -12.0729
  57   2.0000      -0.439412       -11.9570
  58   2.0000      -0.432478       -11.7683
  59   2.0000      -0.424955       -11.5636
  60   2.0000      -0.424505       -11.5514
  61   2.0000      -0.413448       -11.2505
  62   2.0000      -0.403695       -10.9851
  63   2.0000      -0.338166        -9.2020
  64   2.0000      -0.328897        -8.9498
  65   2.0000      -0.321550        -8.7498
  66   2.0000      -0.308389        -8.3917
  67   0.0000       0.040010         1.0887
  68   0.0000       0.051604         1.4042
  69   0.0000       0.116937         3.1820
  70   0.0000       0.122202         3.3253
  71   0.0000       0.129199         3.5157

MULLIKEN ATOMIC CHARGES
-----------------------
   0 S :    0.104754
   1 C :   -0.134062
   2 C :   -0.101963
   3 C :    0.024404
   4 C :   -0.145968
   5 H :    0.006710
   6 C :    0.090103
   7 H :    0.038276
   8 H :    0.036006
   9 C :   -0.079727
  10 H :    0.041198
  11 H :    0.026353
  12 C :   -0.029479
  13 H :    0.021251
  14 H :    0.033138
  15 H :    0.028039
  16 S :    0.120145
  17 C :   -0.097428
  18 C :   -0.062994
  19 C :   -0.040037
  20 C :   -0.202448
  21 H :    0.039734
  22 C :    0.065640
  23 H :    0.028883
  24 H :    0.038001
  25 C :   -0.087413
  26 H :    0.040756
  27 H :    0.040846
  28 C :   -0.066830
  29 H :    0.044478
  30 H :    0.038137
  31 H :    0.024748
  32 H :    0.045002
  33 H :    0.071745
Sum of atomic charges:    0.0000000

LOEWDIN ATOMIC CHARGES
----------------------
   0 S :    0.372796
   1 C :   -0.191813
   2 C :   -0.062865
   3 C :   -0.054652
   4 C :   -0.195832
   5 H :    0.021566
   6 C :   -0.019890
   7 H :    0.028859
   8 H :    0.031886
   9 C :   -0.039700
  10 H :    0.031246
  11 H :    0.020323
  12 C :   -0.064717
  13 H :    0.027774
  14 H :    0.024378
  15 H :    0.026245
  16 S :    0.410530
  17 C :   -0.197877
  18 C :   -0.084866
  19 C :   -0.049406
  20 C :   -0.200871
  21 H :    0.041512
  22 C :   -0.034292
  23 H :    0.033850
  24 H :    0.036307
  25 C :   -0.041987
  26 H :    0.033843
  27 H :    0.022045
  28 C :   -0.074383
  29 H :    0.029529
  30 H :    0.026906
  31 H :    0.022578
  32 H :    0.029833
  33 H :    0.041144

  Mayer bond orders larger than 0.100000
B(  0-S ,  1-C ) :   1.1291 B(  0-S ,  4-C ) :   1.1073 B(  1-C ,  2-C ) :   1.6661
B(  1-C , 32-H ) :   0.9628 B(  2-C ,  3-C ) :   1.2036 B(  2-C ,  6-C ) :   0.9651
B(  3-C ,  4-C ) :   1.6224 B(  3-C ,  5-H ) :   0.9878 B(  4-C , 20-C ) :   1.0378
B(  6-C ,  7-H ) :   0.9445 B(  6-C ,  8-H ) :   0.9490 B(  6-C ,  9-C ) :   1.0751
B(  9-C , 10-H ) :   0.9602 B(  9-C , 11-H ) :   0.9540 B(  9-C , 12-C ) :   1.0671
B( 12-C , 13-H ) :   0.9708 B( 12-C , 14-H ) :   0.9783 B( 12-C , 15-H ) :   0.9723
B( 16-S , 17-C ) :   1.1470 B( 16-S , 20-C ) :   1.1512 B( 17-C , 18-C ) :   1.6512
B( 17-C , 33-H ) :   0.9531 B( 18-C , 19-C ) :   1.2387 B( 18-C , 21-H ) :   0.9755
B( 19-C , 20-C ) :   1.5912 B( 19-C , 22-C ) :   1.0289 B( 22-C , 23-H ) :   0.9411
B( 22-C , 24-H ) :   0.9339 B( 22-C , 25-C ) :   1.0627 B( 25-C , 26-H ) :   0.9544
B( 25-C , 27-H ) :   0.9568 B( 25-C , 28-C ) :   1.0715 B( 28-C , 29-H ) :   0.9747
B( 28-C , 30-H ) :   0.9749 B( 28-C , 31-H ) :   0.9747

Dispersion correction           -0.015155859
FINAL SINGLE POINT ENERGY     -1339.869294786684

DIPOLE MOMENT
-------------
                                X             Y             Z
Electronic contribution:     12.01614     -17.42405       1.23957
Nuclear contribution   :    -12.25812      17.86839      -1.12582
                        -----------------------------------------
Total Dipole Moment    :     -0.24198       0.44434       0.11376
                        -----------------------------------------
Magnitude (a.u.)       :      0.51859
Magnitude (Debye)      :      1.31816

Rotational constants in cm-1:     0.019116     0.008391     0.007892
Rotational constants in MHz :   573.072077   251.547136   236.591826

                             ****ORCA TERMINATED NORMALLY****
TOTAL RUN TIME: 0 days 0 hours 0 minutes 35 seconds 484 msec
