                         Program Version 4.2.1 -  RELEASE  -
|  1> ! wB97X-D3 SP def2-SVP
|  2> %pal
|  3> nprocs 16
|  4> end
|  5>
|  6> * xyz 0 1
|  7> S 	 53.4743 	 12.0809 	 52.451
|  8> C 	 53.0965 	 13.666 	 51.9177
|  9> C 	 51.9144 	 14.0169 	 52.5405
| 10> C 	 51.1951 	 12.9279 	 53.1006
| 11> C 	 51.9188 	 11.7616 	 53.0828
| 12> H 	 50.1789 	 12.9497 	 53.5338
| 13> C 	 51.4592 	 15.4574 	 52.4905
| 14> H 	 52.0299 	 16.0853 	 51.7942
| 15> H 	 51.5464 	 15.9287 	 53.4224
| 16> C 	 49.9811 	 15.5928 	 52.1245
| 17> H 	 49.4332 	 15.0417 	 52.9101
| 18> H 	 49.8097 	 16.6654 	 52.2815
| 19> C 	 49.5588 	 14.9702 	 50.7793
| 20> H 	 50.229 	 15.5055 	 50.0291
| 21> H 	 49.7279 	 13.8579 	 50.8477
| 22> H 	 48.5436 	 15.1582 	 50.4854
| 23> S 	 52.3673 	 9.47443 	 54.627
| 24> C 	 51.2014 	 8.1901 	 54.5289
| 25> C 	 50.1325 	 8.49148 	 53.7641
| 26> C 	 50.312 	 9.72844 	 53.0241
| 27> C 	 51.478 	 10.3895 	 53.415
| 28> H 	 49.2164 	 7.88178 	 53.6808
| 29> C 	 49.2008 	 10.3099 	 52.1252
| 30> H 	 48.9974 	 11.2803 	 52.5844
| 31> H 	 48.3367 	 9.73736 	 52.2883
| 32> C 	 49.5747 	 10.3051 	 50.6038
| 33> H 	 49.9703 	 9.32857 	 50.4198
| 34> H 	 50.2629 	 11.0548 	 50.4392
| 35> C 	 48.3363 	 10.542 	 49.7506
| 36> H 	 47.7269 	 11.3456 	 50.0724
| 37> H 	 47.5797 	 9.79154 	 49.7862
| 38> H 	 48.6469 	 10.766 	 48.7571
| 39> H 	 53.7914 	 14.3582 	 51.5642
| 40> H 	 51.2285 	 7.34301 	 55.2497
| 41> *
| 42>
| 43>                          ****END OF INPUT****

CARTESIAN COORDINATES (ANGSTROEM)
---------------------------------
  S     53.474300   12.080900   52.451000
  C     53.096500   13.666000   51.917700
  C     51.914400   14.016900   52.540500
  C     51.195100   12.927900   53.100600
  C     51.918800   11.761600   53.082800
  H     50.178900   12.949700   53.533800
  C     51.459200   15.457400   52.490500
  H     52.029900   16.085300   51.794200
  H     51.546400   15.928700   53.422400
  C     49.981100   15.592800   52.124500
  H     49.433200   15.041700   52.910100
  H     49.809700   16.665400   52.281500
  C     49.558800   14.970200   50.779300
  H     50.229000   15.505500   50.029100
  H     49.727900   13.857900   50.847700
  H     48.543600   15.158200   50.485400
  S     52.367300    9.474430   54.627000
  C     51.201400    8.190100   54.528900
  C     50.132500    8.491480   53.764100
  C     50.312000    9.728440   53.024100
  C     51.478000   10.389500   53.415000
  H     49.216400    7.881780   53.680800
  C     49.200800   10.309900   52.125200
  H     48.997400   11.280300   52.584400
  H     48.336700    9.737360   52.288300
  C     49.574700   10.305100   50.603800
  H     49.970300    9.328570   50.419800
  H     50.262900   11.054800   50.439200
  C     48.336300   10.542000   49.750600
  H     47.726900   11.345600   50.072400
  H     47.579700    9.791540   49.786200
  H     48.646900   10.766000   48.757100
  H     53.791400   14.358200   51.564200
  H     51.228500    7.343010   55.249700

 Total Charge           Charge          ....    0
 Multiplicity           Mult            ....    1
 Number of Electrons    NEL             ....  134
 Basis Dimension        Dim             ....  322

ORBITAL ENERGIES
----------------

  NO   OCC          E(Eh)            E(eV)
   0   2.0000     -88.965629     -2420.8778
   1   2.0000     -88.960681     -2420.7432
   2   2.0000     -10.328264      -281.0464
   3   2.0000     -10.328096      -281.0418
   4   2.0000     -10.316995      -280.7397
   5   2.0000     -10.305901      -280.4378
   6   2.0000     -10.305084      -280.4156
   7   2.0000     -10.299829      -280.2726
   8   2.0000     -10.296239      -280.1749
   9   2.0000     -10.295465      -280.1539
  10   2.0000     -10.289390      -279.9885
  11   2.0000     -10.285847      -279.8921
  12   2.0000     -10.285747      -279.8894
  13   2.0000     -10.284176      -279.8467
  14   2.0000     -10.278701      -279.6977
  15   2.0000     -10.266600      -279.3684
  16   2.0000      -8.080627      -219.8850
  17   2.0000      -8.077042      -219.7875
  18   2.0000      -6.039142      -164.3334
  19   2.0000      -6.035350      -164.2302
  20   2.0000      -6.035146      -164.2247
  21   2.0000      -6.031328      -164.1208
  22   2.0000      -6.031215      -164.1177
  23   2.0000      -6.027998      -164.0302
  24   2.0000      -1.013789       -27.5866
  25   2.0000      -0.989737       -26.9321
  26   2.0000      -0.915289       -24.9063
  27   2.0000      -0.907901       -24.7052
  28   2.0000      -0.870278       -23.6815
  29   2.0000      -0.852353       -23.1937
  30   2.0000      -0.840623       -22.8745
  31   2.0000      -0.819671       -22.3044
  32   2.0000      -0.786294       -21.3962
  33   2.0000      -0.773973       -21.0609
  34   2.0000      -0.714474       -19.4418
  35   2.0000      -0.698837       -19.0163
  36   2.0000      -0.686419       -18.6784
  37   2.0000      -0.657031       -17.8787
  38   2.0000      -0.642748       -17.4901
  39   2.0000      -0.626281       -17.0420
  40   2.0000      -0.593174       -16.1411
  41   2.0000      -0.573264       -15.5993
  42   2.0000      -0.568397       -15.4669
  43   2.0000      -0.556335       -15.1387
  44   2.0000      -0.536594       -14.6015
  45   2.0000      -0.528486       -14.3808
  46   2.0000      -0.517874       -14.0921
  47   2.0000      -0.513902       -13.9840
  48   2.0000      -0.506073       -13.7710
  49   2.0000      -0.498821       -13.5736
  50   2.0000      -0.496241       -13.5034
  51   2.0000      -0.481245       -13.0954
  52   2.0000      -0.475568       -12.9409
  53   2.0000      -0.462597       -12.5879
  54   2.0000      -0.456904       -12.4330
  55   2.0000      -0.456227       -12.4146
  56   2.0000      -0.447682       -12.1820
  57   2.0000      -0.441127       -12.0037
  58   2.0000      -0.431141       -11.7320
  59   2.0000      -0.427262       -11.6264
  60   2.0000      -0.417500       -11.3608
  61   2.0000      -0.413980       -11.2650
  62   2.0000      -0.404964       -11.0196
  63   2.0000      -0.347879        -9.4663
  64   2.0000      -0.331489        -9.0203
  65   2.0000      -0.327361        -8.9079
  66   2.0000      -0.296814        -8.0767
  67   0.0000       0.034044         0.9264
  68   0.0000       0.067864         1.8467
  69   0.0000       0.106178         2.8893
  70   0.0000       0.125858         3.4248
  71   0.0000       0.127391         3.4665

MULLIKEN ATOMIC CHARGES
-----------------------
   0 S :    0.112559
   1 C :   -0.090689
   2 C :   -0.117872
   3 C :    0.006065
   4 C :   -0.147641
   5 H :    0.030889
   6 C :    0.105881
   7 H :    0.014596
   8 H :    0.023916
   9 C :   -0.126554
  10 H :    0.022165
  11 H :    0.029567
  12 C :   -0.053168
  13 H :    0.034015
  14 H :    0.056751
  15 H :    0.036902
  16 S :    0.108667
  17 C :   -0.088795
  18 C :   -0.040611
  19 C :   -0.082235
  20 C :   -0.152986
  21 H :    0.030922
  22 C :    0.090536
  23 H :    0.018228
  24 H :   -0.009172
  25 C :   -0.018726
  26 H :    0.030766
  27 H :    0.030051
  28 C :   -0.007923
  29 H :    0.004351
  30 H :    0.014274
  31 H :    0.029251
  32 H :    0.036426
  33 H :    0.069595
Sum of atomic charges:   -0.0000000

LOEWDIN ATOMIC CHARGES
----------------------
   0 S :    0.436868
   1 C :   -0.201900
   2 C :   -0.060792
   3 C :   -0.076960
   4 C :   -0.203437
   5 H :    0.036209
   6 C :   -0.027478
   7 H :    0.027295
   8 H :    0.027632
   9 C :   -0.047685
  10 H :    0.017600
  11 H :    0.023839
  12 C :   -0.070111
  13 H :    0.031625
  14 H :    0.034859
  15 H :    0.021777
  16 S :    0.403510
  17 C :   -0.191128
  18 C :   -0.076992
  19 C :   -0.049987
  20 C :   -0.202383
  21 H :    0.037203
  22 C :   -0.022748
  23 H :    0.027992
  24 H :    0.017847
  25 C :   -0.016756
  26 H :    0.026765
  27 H :    0.017335
  28 C :   -0.061698
  29 H :    0.020245
  30 H :    0.021212
  31 H :    0.024897
  32 H :    0.018934
  33 H :    0.036413

  Mayer bond orders larger than 0.100000
B(  0-S ,  1-C ) :   1.1497 B(  0-S ,  4-C ) :   1.1898 B(  1-C ,  2-C ) :   1.5828
B(  1-C ,  4-C ) :   0.1049 B(  1-C , 32-H ) :   0.9767 B(  2-C ,  3-C ) :   1.2447
B(  2-C ,  6-C ) :   1.0264 B(  3-C ,  4-C ) :   1.5565 B(  3-C ,  5-H ) :   0.9902
B(  4-C , 20-C ) :   1.0036 B(  6-C ,  7-H ) :   0.9437 B(  6-C ,  8-H ) :   0.9293
B(  6-C ,  9-C ) :   1.0781 B(  9-C , 10-H ) :   0.9509 B(  9-C , 11-H ) :   0.9582
B(  9-C , 12-C ) :   1.0681 B( 12-C , 13-H ) :   0.9756 B( 12-C , 14-H ) :   0.9660
B( 12-C , 15-H ) :   0.9751 B( 16-S , 17-C ) :   1.1486 B( 16-S , 20-C ) :   1.1460
B( 17-C , 18-C ) :   1.6280 B( 17-C , 33-H ) :   0.9589 B( 18-C , 19-C ) :   1.2374
B( 18-C , 21-H ) :   0.9829 B( 19-C , 20-C ) :   1.6126 B( 19-C , 22-C ) :   1.0331
B( 22-C , 23-H ) :   0.9315 B( 22-C , 24-H ) :   0.9329 B( 22-C , 25-C ) :   1.0551
B( 25-C , 26-H ) :   0.9565 B( 25-C , 27-H ) :   0.9566 B( 25-C , 28-C ) :   1.0933
B( 28-C , 29-H ) :   0.9667 B( 28-C , 30-H ) :   0.9715 B( 28-C , 31-H ) :   0.9738

Dispersion correction           -0.015613133
FINAL SINGLE POINT ENERGY     -1339.873615552221

DIPOLE MOMENT
-------------
                                X             Y             Z
Electronic contribution:     22.05828     -13.37619      16.03475
Nuclear contribution   :    -22.69909      13.70316     -16.05202
                        -----------------------------------------
Total Dipole Moment    :     -0.64081       0.32697      -0.01727
                        -----------------------------------------
Magnitude (a.u.)       :      0.71962
Magnitude (Debye)      :      1.82913

Rotational constants in cm-1:     0.017877     0.010351     0.007566
Rotational constants in MHz :   535.933521   310.308586   226.833804

                             ****ORCA TERMINATED NORMALLY****
TOTAL RUN TIME: 0 days 0 hours 0 minutes 32 seconds 544 msec
