                         Program Version 4.2.1 -  RELEASE  -
|  1> ! wB97X-D3 SP def2-SVP
|  2> %pal
|  3> nprocs 16
|  4> end
|  5>
|  6> * xyz 0 1
|  7> S 	 44.2787 	 24.6884 	 93.0137
|  8> C 	 45.6754 	 24.8858 	 94.024
|  9> C 	 45.3091 	 25.3856 	 95.2488
| 10> C 	 43.8706 	 25.4663 	 95.4398
| 11> C 	 43.1634 	 25.0608 	 94.2881
| 12> H 	 43.3654 	 25.7501 	 96.3093
| 13> C 	 46.2225 	 25.694 	 96.4297
| 14> H 	 45.593 	 25.7511 	 97.3876
| 15> H 	 46.4846 	 26.7782 	 96.2157
| 16> C 	 47.3307 	 24.6837 	 96.7175
| 17> H 	 47.0079 	 23.6679 	 96.8908
| 18> H 	 47.9557 	 24.6654 	 95.7968
| 19> C 	 48.2197 	 24.9838 	 97.9209
| 20> H 	 48.7767 	 25.8395 	 97.6905
| 21> H 	 47.656 	 25.0941 	 98.8263
| 22> H 	 48.9921 	 24.1721 	 97.8231
| 23> S 	 40.9645 	 26.3902 	 94.8733
| 24> C 	 39.4855 	 26.1164 	 94.0039
| 25> C 	 39.5261 	 24.9026 	 93.3424
| 26> C 	 40.8231 	 24.3031 	 93.3916
| 27> C 	 41.7337 	 25.0286 	 94.1318
| 28> H 	 38.7216 	 24.4555 	 92.8768
| 29> C 	 41.1547 	 22.9762 	 92.7612
| 30> H 	 40.2454 	 22.4129 	 92.8879
| 31> H 	 41.9195 	 22.3919 	 93.2376
| 32> C 	 41.4743 	 23.0541 	 91.2459
| 33> H 	 42.3586 	 23.6758 	 90.97
| 34> H 	 40.7028 	 23.5894 	 90.6652
| 35> C 	 41.5425 	 21.6931 	 90.5823
| 36> H 	 40.7339 	 20.9654 	 90.9151
| 37> H 	 42.4518 	 21.1709 	 90.9484
| 38> H 	 41.5003 	 21.8909 	 89.4735
| 39> H 	 46.6531 	 24.6161 	 93.7328
| 40> H 	 38.6154 	 26.7158 	 94.1946
| 41> *
| 42>
| 43>                          ****END OF INPUT****

CARTESIAN COORDINATES (ANGSTROEM)
---------------------------------
  S     44.278700   24.688400   93.013700
  C     45.675400   24.885800   94.024000
  C     45.309100   25.385600   95.248800
  C     43.870600   25.466300   95.439800
  C     43.163400   25.060800   94.288100
  H     43.365400   25.750100   96.309300
  C     46.222500   25.694000   96.429700
  H     45.593000   25.751100   97.387600
  H     46.484600   26.778200   96.215700
  C     47.330700   24.683700   96.717500
  H     47.007900   23.667900   96.890800
  H     47.955700   24.665400   95.796800
  C     48.219700   24.983800   97.920900
  H     48.776700   25.839500   97.690500
  H     47.656000   25.094100   98.826300
  H     48.992100   24.172100   97.823100
  S     40.964500   26.390200   94.873300
  C     39.485500   26.116400   94.003900
  C     39.526100   24.902600   93.342400
  C     40.823100   24.303100   93.391600
  C     41.733700   25.028600   94.131800
  H     38.721600   24.455500   92.876800
  C     41.154700   22.976200   92.761200
  H     40.245400   22.412900   92.887900
  H     41.919500   22.391900   93.237600
  C     41.474300   23.054100   91.245900
  H     42.358600   23.675800   90.970000
  H     40.702800   23.589400   90.665200
  C     41.542500   21.693100   90.582300
  H     40.733900   20.965400   90.915100
  H     42.451800   21.170900   90.948400
  H     41.500300   21.890900   89.473500
  H     46.653100   24.616100   93.732800
  H     38.615400   26.715800   94.194600

 Total Charge           Charge          ....    0
 Multiplicity           Mult            ....    1
 Number of Electrons    NEL             ....  134
 Basis Dimension        Dim             ....  322

ORBITAL ENERGIES
----------------

  NO   OCC          E(Eh)            E(eV)
   0   2.0000     -88.964981     -2420.8602
   1   2.0000     -88.961706     -2420.7711
   2   2.0000     -10.330056      -281.0951
   3   2.0000     -10.321176      -280.8535
   4   2.0000     -10.317820      -280.7622
   5   2.0000     -10.306904      -280.4651
   6   2.0000     -10.302556      -280.3468
   7   2.0000     -10.301715      -280.3239
   8   2.0000     -10.300110      -280.2802
   9   2.0000     -10.292609      -280.0761
  10   2.0000     -10.290713      -280.0245
  11   2.0000     -10.288762      -279.9714
  12   2.0000     -10.287242      -279.9301
  13   2.0000     -10.284752      -279.8623
  14   2.0000     -10.283927      -279.8399
  15   2.0000     -10.275758      -279.6176
  16   2.0000      -8.079760      -219.8614
  17   2.0000      -8.077407      -219.7974
  18   2.0000      -6.038347      -164.3118
  19   2.0000      -6.035881      -164.2447
  20   2.0000      -6.034163      -164.1979
  21   2.0000      -6.031723      -164.1315
  22   2.0000      -6.030548      -164.0995
  23   2.0000      -6.028193      -164.0355
  24   2.0000      -1.011089       -27.5131
  25   2.0000      -0.985567       -26.8186
  26   2.0000      -0.910646       -24.7799
  27   2.0000      -0.908322       -24.7167
  28   2.0000      -0.875124       -23.8133
  29   2.0000      -0.854829       -23.2611
  30   2.0000      -0.847618       -23.0649
  31   2.0000      -0.812527       -22.1100
  32   2.0000      -0.780847       -21.2479
  33   2.0000      -0.768629       -20.9155
  34   2.0000      -0.705683       -19.2026
  35   2.0000      -0.696693       -18.9580
  36   2.0000      -0.690804       -18.7977
  37   2.0000      -0.674711       -18.3598
  38   2.0000      -0.644607       -17.5406
  39   2.0000      -0.608447       -16.5567
  40   2.0000      -0.601430       -16.3657
  41   2.0000      -0.576301       -15.6820
  42   2.0000      -0.564017       -15.3477
  43   2.0000      -0.555862       -15.1258
  44   2.0000      -0.531662       -14.4673
  45   2.0000      -0.529937       -14.4203
  46   2.0000      -0.519831       -14.1453
  47   2.0000      -0.514118       -13.9899
  48   2.0000      -0.507644       -13.8137
  49   2.0000      -0.499527       -13.5928
  50   2.0000      -0.498032       -13.5521
  51   2.0000      -0.484198       -13.1757
  52   2.0000      -0.475535       -12.9400
  53   2.0000      -0.461289       -12.5523
  54   2.0000      -0.458358       -12.4725
  55   2.0000      -0.452250       -12.3064
  56   2.0000      -0.441814       -12.0224
  57   2.0000      -0.439163       -11.9502
  58   2.0000      -0.433694       -11.8014
  59   2.0000      -0.418935       -11.3998
  60   2.0000      -0.414246       -11.2722
  61   2.0000      -0.406300       -11.0560
  62   2.0000      -0.403131       -10.9697
  63   2.0000      -0.355003        -9.6601
  64   2.0000      -0.328947        -8.9511
  65   2.0000      -0.326099        -8.8736
  66   2.0000      -0.285679        -7.7737
  67   0.0000       0.024164         0.6575
  68   0.0000       0.080491         2.1903
  69   0.0000       0.107444         2.9237
  70   0.0000       0.120604         3.2818
  71   0.0000       0.137078         3.7301

MULLIKEN ATOMIC CHARGES
-----------------------
   0 S :    0.109742
   1 C :   -0.126528
   2 C :   -0.052337
   3 C :    0.008137
   4 C :   -0.108006
   5 H :   -0.004846
   6 C :    0.026801
   7 H :    0.027126
   8 H :    0.056445
   9 C :   -0.108230
  10 H :    0.035666
  11 H :    0.024648
  12 C :   -0.010408
  13 H :    0.012466
  14 H :    0.042415
  15 H :    0.036589
  16 S :    0.091062
  17 C :   -0.079711
  18 C :    0.011136
  19 C :   -0.058262
  20 C :   -0.137840
  21 H :   -0.011984
  22 C :    0.076340
  23 H :    0.011884
  24 H :    0.029206
  25 C :   -0.093633
  26 H :    0.037200
  27 H :    0.017248
  28 C :   -0.074137
  29 H :    0.034159
  30 H :    0.034118
  31 H :    0.052847
  32 H :    0.032304
  33 H :    0.058381
Sum of atomic charges:   -0.0000000

LOEWDIN ATOMIC CHARGES
----------------------
   0 S :    0.427104
   1 C :   -0.207580
   2 C :   -0.056806
   3 C :   -0.069944
   4 C :   -0.193587
   5 H :    0.016193
   6 C :   -0.044712
   7 H :    0.031966
   8 H :    0.044289
   9 C :   -0.046040
  10 H :    0.025736
  11 H :    0.022755
  12 C :   -0.057634
  13 H :    0.016063
  14 H :    0.024096
  15 H :    0.038325
  16 S :    0.425238
  17 C :   -0.178590
  18 C :   -0.057438
  19 C :   -0.054043
  20 C :   -0.202453
  21 H :    0.019386
  22 C :   -0.030590
  23 H :    0.031352
  24 H :    0.028395
  25 C :   -0.052540
  26 H :    0.022560
  27 H :    0.021464
  28 C :   -0.077190
  29 H :    0.028419
  30 H :    0.025044
  31 H :    0.035656
  32 H :    0.019096
  33 H :    0.026008

  Mayer bond orders larger than 0.100000
B(  0-S ,  1-C ) :   1.1258 B(  0-S ,  4-C ) :   1.1625 B(  1-C ,  2-C ) :   1.6008
B(  1-C , 32-H ) :   0.9801 B(  2-C ,  3-C ) :   1.2525 B(  2-C ,  6-C ) :   1.0077
B(  3-C ,  4-C ) :   1.5232 B(  3-C ,  5-H ) :   0.9999 B(  4-C , 20-C ) :   1.0682
B(  6-C ,  7-H ) :   0.9506 B(  6-C ,  8-H ) :   0.9325 B(  6-C ,  9-C ) :   1.0576
B(  9-C , 10-H ) :   0.9624 B(  9-C , 11-H ) :   0.9517 B(  9-C , 12-C ) :   1.0879
B( 12-C , 13-H ) :   0.9734 B( 12-C , 14-H ) :   0.9753 B( 12-C , 15-H ) :   0.9726
B( 16-S , 17-C ) :   1.1722 B( 16-S , 20-C ) :   1.1388 B( 17-C , 18-C ) :   1.5664
B( 17-C , 33-H ) :   0.9713 B( 18-C , 19-C ) :   1.2568 B( 18-C , 21-H ) :   1.0041
B( 19-C , 20-C ) :   1.5769 B( 19-C , 22-C ) :   1.0423 B( 22-C , 23-H ) :   0.9268
B( 22-C , 24-H ) :   0.9462 B( 22-C , 25-C ) :   1.0543 B( 25-C , 26-H ) :   0.9477
B( 25-C , 27-H ) :   0.9589 B( 25-C , 28-C ) :   1.0796 B( 28-C , 29-H ) :   0.9731
B( 28-C , 30-H ) :   0.9728 B( 28-C , 31-H ) :   0.9741

Dispersion correction           -0.013752622
FINAL SINGLE POINT ENERGY     -1339.872896047857

DIPOLE MOMENT
-------------
                                X             Y             Z
Electronic contribution:    -12.48273      11.76966      -1.47125
Nuclear contribution   :     12.49728     -11.97345       1.61367
                        -----------------------------------------
Total Dipole Moment    :      0.01455      -0.20379       0.14242
                        -----------------------------------------
Magnitude (a.u.)       :      0.24905
Magnitude (Debye)      :      0.63304

Rotational constants in cm-1:     0.022065     0.007457     0.005927
Rotational constants in MHz :   661.484794   223.553584   177.684408

                             ****ORCA TERMINATED NORMALLY****
TOTAL RUN TIME: 0 days 0 hours 0 minutes 27 seconds 260 msec
