                         Program Version 4.2.1 -  RELEASE  -
|  1> ! wB97X-D3 SP def2-SVP
|  2> %pal
|  3> nprocs 16
|  4> end
|  5>
|  6> * xyz 0 1
|  7> S 	 28.8677 	 -0.729772 	 73.1873
|  8> C 	 29.164 	 0.766554 	 74.1006
|  9> C 	 29.6477 	 0.548506 	 75.3683
| 10> C 	 29.8197 	 -0.838605 	 75.6014
| 11> C 	 29.5058 	 -1.65476 	 74.5743
| 12> H 	 30.1853 	 -1.19776 	 76.5535
| 13> C 	 29.9046 	 1.59782 	 76.433
| 14> H 	 29.2187 	 2.37655 	 76.2771
| 15> H 	 30.9593 	 2.04068 	 76.1729
| 16> C 	 29.9245 	 1.1666 	 77.9207
| 17> H 	 28.9914 	 0.627479 	 78.1765
| 18> H 	 30.7001 	 0.481711 	 78.0499
| 19> C 	 30.0987 	 2.36437 	 78.7698
| 20> H 	 31.0769 	 2.78285 	 78.4597
| 21> H 	 29.3431 	 3.14356 	 78.4968
| 22> H 	 30.1985 	 2.23936 	 79.8718
| 23> S 	 28.1156 	 -3.85185 	 73.4957
| 24> C 	 28.546 	 -5.44225 	 73.9428
| 25> C 	 29.6226 	 -5.41118 	 74.7295
| 26> C 	 30.0965 	 -4.14001 	 75.1016
| 27> C 	 29.3679 	 -3.11918 	 74.5285
| 28> H 	 30.0535 	 -6.30947 	 75.0689
| 29> C 	 31.3584 	 -3.96435 	 75.9443
| 30> H 	 31.5302 	 -4.85611 	 76.487
| 31> H 	 31.0873 	 -3.30142 	 76.8456
| 32> C 	 32.5496 	 -3.53553 	 75.1832
| 33> H 	 33.3954 	 -3.43725 	 75.893
| 34> H 	 32.3092 	 -2.58767 	 74.7262
| 35> C 	 32.9092 	 -4.59807 	 74.0681
| 36> H 	 33.8987 	 -4.37009 	 73.7214
| 37> H 	 32.1227 	 -4.4568 	 73.2452
| 38> H 	 32.7634 	 -5.56168 	 74.5632
| 39> H 	 28.7925 	 1.79005 	 73.7587
| 40> H 	 28.1493 	 -6.34522 	 73.5522
| 41> *
| 42>
| 43>                          ****END OF INPUT****

CARTESIAN COORDINATES (ANGSTROEM)
---------------------------------
  S     28.867700   -0.729772   73.187300
  C     29.164000    0.766554   74.100600
  C     29.647700    0.548506   75.368300
  C     29.819700   -0.838605   75.601400
  C     29.505800   -1.654760   74.574300
  H     30.185300   -1.197760   76.553500
  C     29.904600    1.597820   76.433000
  H     29.218700    2.376550   76.277100
  H     30.959300    2.040680   76.172900
  C     29.924500    1.166600   77.920700
  H     28.991400    0.627479   78.176500
  H     30.700100    0.481711   78.049900
  C     30.098700    2.364370   78.769800
  H     31.076900    2.782850   78.459700
  H     29.343100    3.143560   78.496800
  H     30.198500    2.239360   79.871800
  S     28.115600   -3.851850   73.495700
  C     28.546000   -5.442250   73.942800
  C     29.622600   -5.411180   74.729500
  C     30.096500   -4.140010   75.101600
  C     29.367900   -3.119180   74.528500
  H     30.053500   -6.309470   75.068900
  C     31.358400   -3.964350   75.944300
  H     31.530200   -4.856110   76.487000
  H     31.087300   -3.301420   76.845600
  C     32.549600   -3.535530   75.183200
  H     33.395400   -3.437250   75.893000
  H     32.309200   -2.587670   74.726200
  C     32.909200   -4.598070   74.068100
  H     33.898700   -4.370090   73.721400
  H     32.122700   -4.456800   73.245200
  H     32.763400   -5.561680   74.563200
  H     28.792500    1.790050   73.758700
  H     28.149300   -6.345220   73.552200

 Total Charge           Charge          ....    0
 Multiplicity           Mult            ....    1
 Number of Electrons    NEL             ....  134
 Basis Dimension        Dim             ....  322

ORBITAL ENERGIES
----------------

  NO   OCC          E(Eh)            E(eV)
   0   2.0000     -88.966607     -2420.9044
   1   2.0000     -88.963067     -2420.8081
   2   2.0000     -10.332187      -281.1531
   3   2.0000     -10.328884      -281.0632
   4   2.0000     -10.318559      -280.7823
   5   2.0000     -10.307501      -280.4814
   6   2.0000     -10.300557      -280.2924
   7   2.0000     -10.300182      -280.2822
   8   2.0000     -10.297694      -280.2145
   9   2.0000     -10.290709      -280.0244
  10   2.0000     -10.289566      -279.9933
  11   2.0000     -10.287045      -279.9247
  12   2.0000     -10.285269      -279.8764
  13   2.0000     -10.281642      -279.7777
  14   2.0000     -10.281103      -279.7630
  15   2.0000     -10.280338      -279.7422
  16   2.0000      -8.080453      -219.8803
  17   2.0000      -8.078223      -219.8196
  18   2.0000      -6.039152      -164.3337
  19   2.0000      -6.036782      -164.2692
  20   2.0000      -6.035260      -164.2278
  21   2.0000      -6.032630      -164.1562
  22   2.0000      -6.030896      -164.1090
  23   2.0000      -6.028950      -164.0561
  24   2.0000      -1.010453       -27.4958
  25   2.0000      -0.988163       -26.8893
  26   2.0000      -0.919528       -25.0216
  27   2.0000      -0.914695       -24.8901
  28   2.0000      -0.874386       -23.7932
  29   2.0000      -0.850818       -23.1519
  30   2.0000      -0.841426       -22.8964
  31   2.0000      -0.819051       -22.2875
  32   2.0000      -0.781442       -21.2641
  33   2.0000      -0.770873       -20.9765
  34   2.0000      -0.716711       -19.5027
  35   2.0000      -0.698697       -19.0125
  36   2.0000      -0.684878       -18.6365
  37   2.0000      -0.663156       -18.0454
  38   2.0000      -0.639571       -17.4036
  39   2.0000      -0.624407       -16.9910
  40   2.0000      -0.599746       -16.3199
  41   2.0000      -0.577035       -15.7019
  42   2.0000      -0.567495       -15.4423
  43   2.0000      -0.553615       -15.0646
  44   2.0000      -0.552433       -15.0325
  45   2.0000      -0.528512       -14.3815
  46   2.0000      -0.509845       -13.8736
  47   2.0000      -0.507080       -13.7984
  48   2.0000      -0.502714       -13.6795
  49   2.0000      -0.492862       -13.4115
  50   2.0000      -0.486555       -13.2398
  51   2.0000      -0.480572       -13.0770
  52   2.0000      -0.473513       -12.8849
  53   2.0000      -0.471225       -12.8227
  54   2.0000      -0.461015       -12.5448
  55   2.0000      -0.449890       -12.2421
  56   2.0000      -0.448086       -12.1930
  57   2.0000      -0.436959       -11.8903
  58   2.0000      -0.434373       -11.8199
  59   2.0000      -0.427587       -11.6352
  60   2.0000      -0.422735       -11.5032
  61   2.0000      -0.411699       -11.2029
  62   2.0000      -0.405241       -11.0272
  63   2.0000      -0.358364        -9.7516
  64   2.0000      -0.335487        -9.1291
  65   2.0000      -0.330138        -8.9835
  66   2.0000      -0.287167        -7.8142
  67   0.0000       0.023545         0.6407
  68   0.0000       0.076701         2.0871
  69   0.0000       0.103248         2.8095
  70   0.0000       0.126627         3.4457
  71   0.0000       0.136330         3.7097

MULLIKEN ATOMIC CHARGES
-----------------------
   0 S :    0.089580
   1 C :   -0.157971
   2 C :   -0.063943
   3 C :   -0.000948
   4 C :   -0.097348
   5 H :   -0.000575
   6 C :    0.020766
   7 H :    0.011912
   8 H :    0.055212
   9 C :   -0.054176
  10 H :    0.038768
  11 H :    0.024261
  12 C :   -0.044666
  13 H :    0.016908
  14 H :    0.036851
  15 H :    0.047400
  16 S :    0.090565
  17 C :   -0.052416
  18 C :   -0.022696
  19 C :   -0.066324
  20 C :   -0.139589
  21 H :   -0.009012
  22 C :    0.050047
  23 H :   -0.002433
  24 H :    0.034288
  25 C :   -0.053229
  26 H :    0.032564
  27 H :    0.037459
  28 C :   -0.062936
  29 H :    0.040886
  30 H :    0.062892
  31 H :    0.028649
  32 H :    0.066352
  33 H :    0.042904
Sum of atomic charges:    0.0000000

LOEWDIN ATOMIC CHARGES
----------------------
   0 S :    0.373782
   1 C :   -0.198993
   2 C :   -0.065427
   3 C :   -0.064745
   4 C :   -0.170152
   5 H :    0.028500
   6 C :   -0.028239
   7 H :    0.020609
   8 H :    0.047611
   9 C :   -0.043116
  10 H :    0.028108
  11 H :    0.015389
  12 C :   -0.069223
  13 H :    0.026483
  14 H :    0.030796
  15 H :    0.031305
  16 S :    0.403037
  17 C :   -0.187615
  18 C :   -0.072720
  19 C :   -0.060803
  20 C :   -0.184518
  21 H :    0.021914
  22 C :   -0.039131
  23 H :    0.019237
  24 H :    0.036405
  25 C :   -0.038977
  26 H :    0.025369
  27 H :    0.023055
  28 C :   -0.061169
  29 H :    0.022619
  30 H :    0.039633
  31 H :    0.021873
  32 H :    0.040015
  33 H :    0.029086

  Mayer bond orders larger than 0.100000
B(  0-S ,  1-C ) :   1.1209 B(  0-S ,  4-C ) :   1.1234 B(  1-C ,  2-C ) :   1.6441
B(  1-C , 32-H ) :   0.9557 B(  2-C ,  3-C ) :   1.2470 B(  2-C ,  6-C ) :   1.0013
B(  3-C ,  4-C ) :   1.5866 B(  3-C ,  5-H ) :   0.9889 B(  4-C , 20-C ) :   1.0605
B(  6-C ,  7-H ) :   0.9452 B(  6-C ,  8-H ) :   0.9289 B(  6-C ,  9-C ) :   1.0730
B(  9-C , 10-H ) :   0.9544 B(  9-C , 11-H ) :   0.9402 B(  9-C , 12-C ) :   1.0919
B( 12-C , 13-H ) :   0.9679 B( 12-C , 14-H ) :   0.9725 B( 12-C , 15-H ) :   0.9711
B( 16-S , 17-C ) :   1.1517 B( 16-S , 20-C ) :   1.1355 B( 17-C , 18-C ) :   1.6062
B( 17-C , 33-H ) :   0.9691 B( 18-C , 19-C ) :   1.2644 B( 18-C , 21-H ) :   0.9970
B( 19-C , 20-C ) :   1.5870 B( 19-C , 22-C ) :   1.0314 B( 22-C , 23-H ) :   0.9255
B( 22-C , 24-H ) :   0.9301 B( 22-C , 25-C ) :   1.0776 B( 25-C , 26-H ) :   0.9541
B( 25-C , 27-H ) :   0.9548 B( 25-C , 28-C ) :   1.0609 B( 28-C , 29-H ) :   0.9756
B( 28-C , 30-H ) :   0.9721 B( 28-C , 31-H ) :   0.9783

Dispersion correction           -0.014596030
FINAL SINGLE POINT ENERGY     -1339.878775437417

DIPOLE MOMENT
-------------
                                X             Y             Z
Electronic contribution:    -17.04009      -7.68967     -18.90015
Nuclear contribution   :     17.41790       7.75060      19.52351
                        -----------------------------------------
Total Dipole Moment    :      0.37782       0.06093       0.62335
                        -----------------------------------------
Magnitude (a.u.)       :      0.73146
Magnitude (Debye)      :      1.85921

Rotational constants in cm-1:     0.020114     0.008367     0.006959
Rotational constants in MHz :   602.994601   250.843306   208.637655

                             ****ORCA TERMINATED NORMALLY****
TOTAL RUN TIME: 0 days 0 hours 0 minutes 29 seconds 549 msec
