                         Program Version 4.2.1 -  RELEASE  -
|  1> ! wB97X-D3 SP def2-SVP
|  2> %pal
|  3> nprocs 16
|  4> end
|  5>
|  6> * xyz 0 1
|  7> S 	 -72.6119 	 44.6755 	 135.351
|  8> C 	 -73.1186 	 45.5953 	 133.983
|  9> C 	 -72.8786 	 44.8597 	 132.848
| 10> C 	 -72.2201 	 43.621 	 133.051
| 11> C 	 -71.8698 	 43.4476 	 134.381
| 12> H 	 -71.9492 	 42.8783 	 132.181
| 13> C 	 -73.4582 	 45.1169 	 131.502
| 14> H 	 -73.0452 	 44.3876 	 130.816
| 15> H 	 -73.2301 	 46.1298 	 131.034
| 16> C 	 -74.9194 	 44.7337 	 131.557
| 17> H 	 -75.1315 	 43.6617 	 131.829
| 18> H 	 -75.6044 	 45.3674 	 132.169
| 19> C 	 -75.42 	 44.7608 	 130.066
| 20> H 	 -76.5575 	 44.5768 	 129.997
| 21> H 	 -75.076 	 45.6717 	 129.566
| 22> H 	 -75.0252 	 44.0079 	 129.39
| 23> S 	 -72.3525 	 41.5137 	 136.368
| 24> C 	 -71.0466 	 40.3765 	 136.732
| 25> C 	 -69.9431 	 40.552 	 135.847
| 26> C 	 -70.2005 	 41.5825 	 134.867
| 27> C 	 -71.4042 	 42.2665 	 135.093
| 28> H 	 -69.1142 	 39.9452 	 136.049
| 29> C 	 -69.0993 	 42.043 	 133.941
| 30> H 	 -69.6224 	 42.4436 	 133.068
| 31> H 	 -68.5081 	 41.1766 	 133.622
| 32> C 	 -68.1316 	 43.1609 	 134.454
| 33> H 	 -67.6104 	 42.8819 	 135.365
| 34> H 	 -68.7602 	 44.0174 	 134.756
| 35> C 	 -67.1449 	 43.5332 	 133.335
| 36> H 	 -67.5079 	 44.1505 	 132.561
| 37> H 	 -66.739 	 42.6095 	 132.861
| 38> H 	 -66.3704 	 44.0671 	 133.839
| 39> H 	 -73.6524 	 46.5447 	 134
| 40> H 	 -71.0355 	 39.5817 	 137.481
| 41> *
| 42>
| 43>                          ****END OF INPUT****

CARTESIAN COORDINATES (ANGSTROEM)
---------------------------------
  S    -72.611900   44.675500  135.351000
  C    -73.118600   45.595300  133.983000
  C    -72.878600   44.859700  132.848000
  C    -72.220100   43.621000  133.051000
  C    -71.869800   43.447600  134.381000
  H    -71.949200   42.878300  132.181000
  C    -73.458200   45.116900  131.502000
  H    -73.045200   44.387600  130.816000
  H    -73.230100   46.129800  131.034000
  C    -74.919400   44.733700  131.557000
  H    -75.131500   43.661700  131.829000
  H    -75.604400   45.367400  132.169000
  C    -75.420000   44.760800  130.066000
  H    -76.557500   44.576800  129.997000
  H    -75.076000   45.671700  129.566000
  H    -75.025200   44.007900  129.390000
  S    -72.352500   41.513700  136.368000
  C    -71.046600   40.376500  136.732000
  C    -69.943100   40.552000  135.847000
  C    -70.200500   41.582500  134.867000
  C    -71.404200   42.266500  135.093000
  H    -69.114200   39.945200  136.049000
  C    -69.099300   42.043000  133.941000
  H    -69.622400   42.443600  133.068000
  H    -68.508100   41.176600  133.622000
  C    -68.131600   43.160900  134.454000
  H    -67.610400   42.881900  135.365000
  H    -68.760200   44.017400  134.756000
  C    -67.144900   43.533200  133.335000
  H    -67.507900   44.150500  132.561000
  H    -66.739000   42.609500  132.861000
  H    -66.370400   44.067100  133.839000
  H    -73.652400   46.544700  134.000000
  H    -71.035500   39.581700  137.481000

 Total Charge           Charge          ....    0
 Multiplicity           Mult            ....    1
 Number of Electrons    NEL             ....  134
 Basis Dimension        Dim             ....  322

ORBITAL ENERGIES
----------------

  NO   OCC          E(Eh)            E(eV)
   0   2.0000     -88.970720     -2421.0164
   1   2.0000     -88.965891     -2420.8850
   2   2.0000     -10.329467      -281.0791
   3   2.0000     -10.327326      -281.0208
   4   2.0000     -10.321536      -280.8633
   5   2.0000     -10.310824      -280.5718
   6   2.0000     -10.303422      -280.3704
   7   2.0000     -10.303233      -280.3652
   8   2.0000     -10.295999      -280.1684
   9   2.0000     -10.295046      -280.1425
  10   2.0000     -10.294583      -280.1299
  11   2.0000     -10.293874      -280.1105
  12   2.0000     -10.288142      -279.9546
  13   2.0000     -10.284904      -279.8665
  14   2.0000     -10.282212      -279.7932
  15   2.0000     -10.271994      -279.5152
  16   2.0000      -8.084316      -219.9854
  17   2.0000      -8.081318      -219.9038
  18   2.0000      -6.042878      -164.4351
  19   2.0000      -6.039766      -164.3504
  20   2.0000      -6.038914      -164.3272
  21   2.0000      -6.035608      -164.2372
  22   2.0000      -6.035152      -164.2248
  23   2.0000      -6.032210      -164.1448
  24   2.0000      -1.010862       -27.5069
  25   2.0000      -0.980602       -26.6835
  26   2.0000      -0.917979       -24.9795
  27   2.0000      -0.902071       -24.5466
  28   2.0000      -0.866289       -23.5729
  29   2.0000      -0.850695       -23.1486
  30   2.0000      -0.844169       -22.9710
  31   2.0000      -0.811331       -22.0774
  32   2.0000      -0.776473       -21.1289
  33   2.0000      -0.764503       -20.8032
  34   2.0000      -0.705352       -19.1936
  35   2.0000      -0.699705       -19.0399
  36   2.0000      -0.691685       -18.8217
  37   2.0000      -0.661312       -17.9952
  38   2.0000      -0.639050       -17.3894
  39   2.0000      -0.619842       -16.8668
  40   2.0000      -0.587989       -16.0000
  41   2.0000      -0.571038       -15.5387
  42   2.0000      -0.562287       -15.3006
  43   2.0000      -0.554228       -15.0813
  44   2.0000      -0.527686       -14.3591
  45   2.0000      -0.523253       -14.2384
  46   2.0000      -0.517699       -14.0873
  47   2.0000      -0.512285       -13.9400
  48   2.0000      -0.503412       -13.6985
  49   2.0000      -0.492833       -13.4107
  50   2.0000      -0.491124       -13.3642
  51   2.0000      -0.477806       -13.0018
  52   2.0000      -0.467581       -12.7235
  53   2.0000      -0.459725       -12.5098
  54   2.0000      -0.454969       -12.3803
  55   2.0000      -0.450097       -12.2478
  56   2.0000      -0.444398       -12.0927
  57   2.0000      -0.436860       -11.8876
  58   2.0000      -0.433682       -11.8011
  59   2.0000      -0.422508       -11.4970
  60   2.0000      -0.419428       -11.4132
  61   2.0000      -0.417063       -11.3489
  62   2.0000      -0.405958       -11.0467
  63   2.0000      -0.347665        -9.4604
  64   2.0000      -0.330163        -8.9842
  65   2.0000      -0.327764        -8.9189
  66   2.0000      -0.288164        -7.8413
  67   0.0000       0.028160         0.7663
  68   0.0000       0.064835         1.7643
  69   0.0000       0.112479         3.0607
  70   0.0000       0.120233         3.2717
  71   0.0000       0.130186         3.5426

MULLIKEN ATOMIC CHARGES
-----------------------
   0 S :    0.104843
   1 C :   -0.112591
   2 C :   -0.089753
   3 C :    0.005743
   4 C :   -0.169703
   5 H :    0.064793
   6 C :    0.043759
   7 H :    0.009759
   8 H :    0.051950
   9 C :   -0.085852
  10 H :    0.047279
  11 H :    0.044098
  12 C :   -0.089780
  13 H :    0.045288
  14 H :    0.023236
  15 H :    0.027904
  16 S :    0.124668
  17 C :   -0.114838
  18 C :   -0.025428
  19 C :   -0.025152
  20 C :   -0.142063
  21 H :    0.004289
  22 C :    0.054860
  23 H :    0.011029
  24 H :    0.022354
  25 C :   -0.068067
  26 H :    0.025819
  27 H :    0.035334
  28 C :   -0.023095
  29 H :    0.030930
  30 H :    0.028305
  31 H :    0.027095
  32 H :    0.052287
  33 H :    0.060704
Sum of atomic charges:    0.0000000

LOEWDIN ATOMIC CHARGES
----------------------
   0 S :    0.431568
   1 C :   -0.210612
   2 C :   -0.070753
   3 C :   -0.073960
   4 C :   -0.198701
   5 H :    0.052873
   6 C :   -0.039845
   7 H :    0.028927
   8 H :    0.039336
   9 C :   -0.039258
  10 H :    0.036046
  11 H :    0.026428
  12 C :   -0.081496
  13 H :    0.032840
  14 H :    0.019684
  15 H :    0.019992
  16 S :    0.401312
  17 C :   -0.188299
  18 C :   -0.060811
  19 C :   -0.056039
  20 C :   -0.206783
  21 H :    0.023581
  22 C :   -0.036954
  23 H :    0.028081
  24 H :    0.027877
  25 C :   -0.033903
  26 H :    0.021229
  27 H :    0.029216
  28 C :   -0.060360
  29 H :    0.020184
  30 H :    0.028214
  31 H :    0.025142
  32 H :    0.033641
  33 H :    0.031602

  Mayer bond orders larger than 0.100000
B(  0-S ,  1-C ) :   1.1414 B(  0-S ,  4-C ) :   1.1737 B(  1-C ,  2-C ) :   1.5751
B(  1-C , 32-H ) :   0.9740 B(  2-C ,  3-C ) :   1.2898 B(  2-C ,  6-C ) :   1.0361
B(  3-C ,  4-C ) :   1.5383 B(  3-C ,  5-H ) :   0.9648 B(  4-C , 20-C ) :   1.0421
B(  6-C ,  7-H ) :   0.9403 B(  6-C ,  8-H ) :   0.9382 B(  6-C ,  9-C ) :   1.0563
B(  9-C , 10-H ) :   0.9560 B(  9-C , 11-H ) :   0.9595 B(  9-C , 12-C ) :   1.0637
B( 12-C , 13-H ) :   0.9743 B( 12-C , 14-H ) :   0.9719 B( 12-C , 15-H ) :   0.9772
B( 16-S , 17-C ) :   1.1482 B( 16-S , 20-C ) :   1.1396 B( 17-C , 18-C ) :   1.6106
B( 17-C , 33-H ) :   0.9655 B( 18-C , 19-C ) :   1.2310 B( 18-C , 21-H ) :   1.0007
B( 19-C , 20-C ) :   1.5729 B( 19-C , 22-C ) :   1.0666 B( 22-C , 23-H ) :   0.9238
B( 22-C , 24-H ) :   0.9322 B( 22-C , 25-C ) :   1.0642 B( 25-C , 26-H ) :   0.9599
B( 25-C , 27-H ) :   0.9522 B( 25-C , 28-C ) :   1.0753 B( 28-C , 29-H ) :   0.9771
B( 28-C , 30-H ) :   0.9738 B( 28-C , 31-H ) :   0.9740

Dispersion correction           -0.014009126
FINAL SINGLE POINT ENERGY     -1339.867705782201

DIPOLE MOMENT
-------------
                                X             Y             Z
Electronic contribution:     -6.14476      -5.47218      22.80423
Nuclear contribution   :      6.31382       5.43179     -23.25612
                        -----------------------------------------
Total Dipole Moment    :      0.16906      -0.04039      -0.45189
                        -----------------------------------------
Magnitude (a.u.)       :      0.48417
Magnitude (Debye)      :      1.23065

Rotational constants in cm-1:     0.018775     0.008235     0.006848
Rotational constants in MHz :   562.872154   246.880800   205.304397

                             ****ORCA TERMINATED NORMALLY****
TOTAL RUN TIME: 0 days 0 hours 0 minutes 32 seconds 267 msec
