                         Program Version 4.2.1 -  RELEASE  -
|  1> ! wB97X-D3 SP def2-SVP
|  2> %pal
|  3> nprocs 16
|  4> end
|  5>
|  6> * xyz 0 1
|  7> S 	 -23.1863 	 -5.74649 	 95.6567
|  8> C 	 -23.8374 	 -4.18133 	 96.1348
|  9> C 	 -23.4457 	 -3.18632 	 95.3174
| 10> C 	 -22.4031 	 -3.57721 	 94.357
| 11> C 	 -22.1609 	 -4.93564 	 94.4588
| 12> H 	 -21.8914 	 -2.90219 	 93.6909
| 13> C 	 -23.8857 	 -1.72129 	 95.3376
| 14> H 	 -23.0042 	 -1.05309 	 95.3911
| 15> H 	 -24.4149 	 -1.50431 	 96.3066
| 16> C 	 -24.7942 	 -1.43956 	 94.1927
| 17> H 	 -25.3434 	 -2.40258 	 93.8015
| 18> H 	 -25.5993 	 -0.764565 	 94.4001
| 19> C 	 -24.112 	 -0.842844 	 92.9541
| 20> H 	 -24.802 	 -0.619528 	 92.1298
| 21> H 	 -23.7407 	 0.15413 	 93.1765
| 22> H 	 -23.3134 	 -1.41719 	 92.6118
| 23> S 	 -19.6987 	 -6.14165 	 94.551
| 24> C 	 -18.9619 	 -6.62406 	 93.0753
| 25> C 	 -19.8396 	 -6.61626 	 92.0113
| 26> C 	 -21.0842 	 -6.06536 	 92.3603
| 27> C 	 -21.1872 	 -5.71765 	 93.6942
| 28> H 	 -19.6083 	 -7.04672 	 91.0829
| 29> C 	 -22.0984 	 -5.83583 	 91.2914
| 30> H 	 -23.0406 	 -5.45523 	 91.747
| 31> H 	 -22.303 	 -6.74936 	 90.7241
| 32> C 	 -21.6873 	 -4.73348 	 90.2438
| 33> H 	 -20.7296 	 -4.99565 	 89.7928
| 34> H 	 -21.7407 	 -3.77046 	 90.8372
| 35> C 	 -22.6548 	 -4.42286 	 89.0805
| 36> H 	 -23.4802 	 -3.7848 	 89.3472
| 37> H 	 -23.1635 	 -5.30597 	 88.6548
| 38> H 	 -22.0408 	 -3.92904 	 88.2824
| 39> H 	 -24.5068 	 -3.92464 	 96.9473
| 40> H 	 -17.9573 	 -7.05695 	 92.9331
| 41> *
| 42>
| 43>                          ****END OF INPUT****

CARTESIAN COORDINATES (ANGSTROEM)
---------------------------------
  S    -23.186300   -5.746490   95.656700
  C    -23.837400   -4.181330   96.134800
  C    -23.445700   -3.186320   95.317400
  C    -22.403100   -3.577210   94.357000
  C    -22.160900   -4.935640   94.458800
  H    -21.891400   -2.902190   93.690900
  C    -23.885700   -1.721290   95.337600
  H    -23.004200   -1.053090   95.391100
  H    -24.414900   -1.504310   96.306600
  C    -24.794200   -1.439560   94.192700
  H    -25.343400   -2.402580   93.801500
  H    -25.599300   -0.764565   94.400100
  C    -24.112000   -0.842844   92.954100
  H    -24.802000   -0.619528   92.129800
  H    -23.740700    0.154130   93.176500
  H    -23.313400   -1.417190   92.611800
  S    -19.698700   -6.141650   94.551000
  C    -18.961900   -6.624060   93.075300
  C    -19.839600   -6.616260   92.011300
  C    -21.084200   -6.065360   92.360300
  C    -21.187200   -5.717650   93.694200
  H    -19.608300   -7.046720   91.082900
  C    -22.098400   -5.835830   91.291400
  H    -23.040600   -5.455230   91.747000
  H    -22.303000   -6.749360   90.724100
  C    -21.687300   -4.733480   90.243800
  H    -20.729600   -4.995650   89.792800
  H    -21.740700   -3.770460   90.837200
  C    -22.654800   -4.422860   89.080500
  H    -23.480200   -3.784800   89.347200
  H    -23.163500   -5.305970   88.654800
  H    -22.040800   -3.929040   88.282400
  H    -24.506800   -3.924640   96.947300
  H    -17.957300   -7.056950   92.933100

 Total Charge           Charge          ....    0
 Multiplicity           Mult            ....    1
 Number of Electrons    NEL             ....  134
 Basis Dimension        Dim             ....  322

ORBITAL ENERGIES
----------------

  NO   OCC          E(Eh)            E(eV)
   0   2.0000     -88.966115     -2420.8911
   1   2.0000     -88.965212     -2420.8665
   2   2.0000     -10.332454      -281.1604
   3   2.0000     -10.323476      -280.9161
   4   2.0000     -10.316901      -280.7371
   5   2.0000     -10.310223      -280.5554
   6   2.0000     -10.299465      -280.2627
   7   2.0000     -10.299366      -280.2600
   8   2.0000     -10.298556      -280.2379
   9   2.0000     -10.297144      -280.1995
  10   2.0000     -10.292738      -280.0796
  11   2.0000     -10.291696      -280.0513
  12   2.0000     -10.289628      -279.9950
  13   2.0000     -10.285444      -279.8812
  14   2.0000     -10.280828      -279.7555
  15   2.0000     -10.273529      -279.5569
  16   2.0000      -8.080333      -219.8770
  17   2.0000      -8.080274      -219.8754
  18   2.0000      -6.039027      -164.3303
  19   2.0000      -6.038728      -164.3221
  20   2.0000      -6.035050      -164.2221
  21   2.0000      -6.034718      -164.2130
  22   2.0000      -6.031095      -164.1144
  23   2.0000      -6.030789      -164.1061
  24   2.0000      -1.006213       -27.3805
  25   2.0000      -0.984344       -26.7854
  26   2.0000      -0.914910       -24.8960
  27   2.0000      -0.904406       -24.6101
  28   2.0000      -0.869457       -23.6591
  29   2.0000      -0.851908       -23.1816
  30   2.0000      -0.843425       -22.9507
  31   2.0000      -0.815234       -22.1836
  32   2.0000      -0.784934       -21.3591
  33   2.0000      -0.771943       -21.0056
  34   2.0000      -0.702953       -19.1283
  35   2.0000      -0.697364       -18.9762
  36   2.0000      -0.687978       -18.7208
  37   2.0000      -0.664020       -18.0689
  38   2.0000      -0.638947       -17.3866
  39   2.0000      -0.619026       -16.8446
  40   2.0000      -0.595013       -16.1911
  41   2.0000      -0.571797       -15.5594
  42   2.0000      -0.567092       -15.4313
  43   2.0000      -0.555749       -15.1227
  44   2.0000      -0.535008       -14.5583
  45   2.0000      -0.523338       -14.2407
  46   2.0000      -0.514282       -13.9943
  47   2.0000      -0.511050       -13.9064
  48   2.0000      -0.510053       -13.8792
  49   2.0000      -0.501094       -13.6355
  50   2.0000      -0.493717       -13.4347
  51   2.0000      -0.477757       -13.0004
  52   2.0000      -0.468395       -12.7457
  53   2.0000      -0.464824       -12.6485
  54   2.0000      -0.459712       -12.5094
  55   2.0000      -0.451332       -12.2814
  56   2.0000      -0.446567       -12.1517
  57   2.0000      -0.433088       -11.7849
  58   2.0000      -0.428334       -11.6556
  59   2.0000      -0.422519       -11.4973
  60   2.0000      -0.419321       -11.4103
  61   2.0000      -0.412679       -11.2296
  62   2.0000      -0.408956       -11.1283
  63   2.0000      -0.338099        -9.2001
  64   2.0000      -0.327589        -8.9142
  65   2.0000      -0.326121        -8.8742
  66   2.0000      -0.307841        -8.3768
  67   0.0000       0.041950         1.1415
  68   0.0000       0.060253         1.6396
  69   0.0000       0.112126         3.0511
  70   0.0000       0.117754         3.2042
  71   0.0000       0.127258         3.4629

MULLIKEN ATOMIC CHARGES
-----------------------
   0 S :    0.111895
   1 C :   -0.100821
   2 C :   -0.111964
   3 C :    0.053993
   4 C :   -0.166490
   5 H :    0.019486
   6 C :    0.064347
   7 H :    0.039155
   8 H :    0.022913
   9 C :   -0.085980
  10 H :    0.051058
  11 H :    0.026747
  12 C :   -0.036143
  13 H :    0.031736
  14 H :    0.017471
  15 H :    0.011478
  16 S :    0.122606
  17 C :   -0.089795
  18 C :   -0.031528
  19 C :    0.015655
  20 C :   -0.189566
  21 H :   -0.000175
  22 C :    0.060604
  23 H :    0.029205
  24 H :    0.028026
  25 C :   -0.117108
  26 H :    0.036025
  27 H :    0.040394
  28 C :   -0.053289
  29 H :    0.030207
  30 H :    0.025168
  31 H :    0.044263
  32 H :    0.037040
  33 H :    0.063386
Sum of atomic charges:    0.0000000

LOEWDIN ATOMIC CHARGES
----------------------
   0 S :    0.385992
   1 C :   -0.197000
   2 C :   -0.058943
   3 C :   -0.052672
   4 C :   -0.184554
   5 H :    0.030682
   6 C :   -0.036879
   7 H :    0.034283
   8 H :    0.034352
   9 C :   -0.048359
  10 H :    0.039183
  11 H :    0.021457
  12 C :   -0.062344
  13 H :    0.029440
  14 H :    0.021673
  15 H :    0.009163
  16 S :    0.418785
  17 C :   -0.191292
  18 C :   -0.069749
  19 C :   -0.052424
  20 C :   -0.205920
  21 H :    0.023365
  22 C :   -0.034703
  23 H :    0.032592
  24 H :    0.029679
  25 C :   -0.042745
  26 H :    0.020642
  27 H :    0.033114
  28 C :   -0.073651
  29 H :    0.021094
  30 H :    0.022781
  31 H :    0.035245
  32 H :    0.031602
  33 H :    0.036112

  Mayer bond orders larger than 0.100000
B(  0-S ,  1-C ) :   1.0996 B(  0-S ,  4-C ) :   1.1419 B(  1-C ,  2-C ) :   1.7027
B(  1-C , 32-H ) :   0.9577 B(  2-C ,  3-C ) :   1.1710 B(  2-C ,  6-C ) :   1.0326
B(  3-C ,  4-C ) :   1.6239 B(  3-C ,  5-H ) :   0.9938 B(  4-C , 20-C ) :   0.9987
B(  6-C ,  7-H ) :   0.9476 B(  6-C ,  8-H ) :   0.9399 B(  6-C ,  9-C ) :   1.0352
B(  9-C , 10-H ) :   0.9571 B(  9-C , 11-H ) :   0.9576 B(  9-C , 12-C ) :   1.0845
B( 12-C , 13-H ) :   0.9709 B( 12-C , 14-H ) :   0.9718 B( 12-C , 15-H ) :   0.9755
B( 16-S , 17-C ) :   1.1753 B( 16-S , 20-C ) :   1.1381 B( 17-C , 18-C ) :   1.5965
B( 17-C , 33-H ) :   0.9599 B( 18-C , 19-C ) :   1.2416 B( 18-C , 21-H ) :   0.9978
B( 19-C , 20-C ) :   1.6049 B( 19-C , 22-C ) :   1.0655 B( 22-C , 23-H ) :   0.9353
B( 22-C , 24-H ) :   0.9294 B( 22-C , 25-C ) :   1.0611 B( 25-C , 26-H ) :   0.9621
B( 25-C , 27-H ) :   0.9573 B( 25-C , 28-C ) :   1.0758 B( 28-C , 29-H ) :   0.9782
B( 28-C , 30-H ) :   0.9729 B( 28-C , 31-H ) :   0.9757

Dispersion correction           -0.014660880
FINAL SINGLE POINT ENERGY     -1339.877362520642

DIPOLE MOMENT
-------------
                                X             Y             Z
Electronic contribution:     11.73233     -19.41876      21.30430
Nuclear contribution   :    -11.86090      19.88233     -21.78266
                        -----------------------------------------
Total Dipole Moment    :     -0.12856       0.46357      -0.47836
                        -----------------------------------------
Magnitude (a.u.)       :      0.67842
Magnitude (Debye)      :      1.72441

Rotational constants in cm-1:     0.015934     0.010267     0.007128
Rotational constants in MHz :   477.694501   307.790274   213.701596

                             ****ORCA TERMINATED NORMALLY****
TOTAL RUN TIME: 0 days 0 hours 0 minutes 31 seconds 17 msec
