                         Program Version 4.2.1 -  RELEASE  -
|  1> ! wB97X-D3 SP def2-SVP
|  2> %pal
|  3> nprocs 16
|  4> end
|  5>
|  6> * xyz 0 1
|  7> S 	 39.3015 	 18.3405 	 64.8571
|  8> C 	 37.5625 	 18.4908 	 64.8767
|  9> C 	 37.0814 	 17.8879 	 66.0286
| 10> C 	 38.0897 	 17.2179 	 66.761
| 11> C 	 39.2733 	 17.169 	 66.1215
| 12> H 	 37.919 	 16.5955 	 67.5957
| 13> C 	 35.7321 	 18.0793 	 66.5727
| 14> H 	 35.3505 	 17.1463 	 67.0226
| 15> H 	 34.9628 	 18.19 	 65.7947
| 16> C 	 35.6982 	 19.2394 	 67.5128
| 17> H 	 36.4534 	 19.0126 	 68.2649
| 18> H 	 36.0716 	 20.2186 	 67.0942
| 19> C 	 34.3283 	 19.5092 	 68.0875
| 20> H 	 33.7398 	 19.9664 	 67.3014
| 21> H 	 33.982 	 18.5243 	 68.3231
| 22> H 	 34.4479 	 20.1657 	 68.9469
| 23> S 	 41.3742 	 17.6064 	 67.8301
| 24> C 	 42.5243 	 16.3315 	 68.0435
| 25> C 	 42.407 	 15.3377 	 67.1025
| 26> C 	 41.2864 	 15.5674 	 66.2629
| 27> C 	 40.5271 	 16.6839 	 66.6041
| 28> H 	 43.1775 	 14.6042 	 66.9527
| 29> C 	 40.9247 	 14.6545 	 65.0969
| 30> H 	 39.9466 	 14.838 	 64.6461
| 31> H 	 40.8543 	 13.6739 	 65.5747
| 32> C 	 41.9313 	 14.7668 	 63.9275
| 33> H 	 41.5608 	 14.0473 	 63.1607
| 34> H 	 42.8458 	 14.288 	 64.1873
| 35> C 	 42.1357 	 16.1984 	 63.4264
| 36> H 	 41.3039 	 16.725 	 63.0131
| 37> H 	 42.9622 	 16.2655 	 62.6452
| 38> H 	 42.6021 	 16.8107 	 64.2028
| 39> H 	 37.0086 	 19.0989 	 64.2272
| 40> H 	 43.2432 	 16.397 	 68.7872
| 41> *
| 42>
| 43>                          ****END OF INPUT****

CARTESIAN COORDINATES (ANGSTROEM)
---------------------------------
  S     39.301500   18.340500   64.857100
  C     37.562500   18.490800   64.876700
  C     37.081400   17.887900   66.028600
  C     38.089700   17.217900   66.761000
  C     39.273300   17.169000   66.121500
  H     37.919000   16.595500   67.595700
  C     35.732100   18.079300   66.572700
  H     35.350500   17.146300   67.022600
  H     34.962800   18.190000   65.794700
  C     35.698200   19.239400   67.512800
  H     36.453400   19.012600   68.264900
  H     36.071600   20.218600   67.094200
  C     34.328300   19.509200   68.087500
  H     33.739800   19.966400   67.301400
  H     33.982000   18.524300   68.323100
  H     34.447900   20.165700   68.946900
  S     41.374200   17.606400   67.830100
  C     42.524300   16.331500   68.043500
  C     42.407000   15.337700   67.102500
  C     41.286400   15.567400   66.262900
  C     40.527100   16.683900   66.604100
  H     43.177500   14.604200   66.952700
  C     40.924700   14.654500   65.096900
  H     39.946600   14.838000   64.646100
  H     40.854300   13.673900   65.574700
  C     41.931300   14.766800   63.927500
  H     41.560800   14.047300   63.160700
  H     42.845800   14.288000   64.187300
  C     42.135700   16.198400   63.426400
  H     41.303900   16.725000   63.013100
  H     42.962200   16.265500   62.645200
  H     42.602100   16.810700   64.202800
  H     37.008600   19.098900   64.227200
  H     43.243200   16.397000   68.787200

 Total Charge           Charge          ....    0
 Multiplicity           Mult            ....    1
 Number of Electrons    NEL             ....  134
 Basis Dimension        Dim             ....  322

ORBITAL ENERGIES
----------------

  NO   OCC          E(Eh)            E(eV)
   0   2.0000     -88.961910     -2420.7766
   1   2.0000     -88.960310     -2420.7331
   2   2.0000     -10.318349      -280.7766
   3   2.0000     -10.317101      -280.7426
   4   2.0000     -10.312045      -280.6050
   5   2.0000     -10.308438      -280.5069
   6   2.0000     -10.300070      -280.2792
   7   2.0000     -10.295128      -280.1447
   8   2.0000     -10.291488      -280.0456
   9   2.0000     -10.287116      -279.9267
  10   2.0000     -10.286467      -279.9090
  11   2.0000     -10.284947      -279.8676
  12   2.0000     -10.284901      -279.8664
  13   2.0000     -10.281041      -279.7614
  14   2.0000     -10.274010      -279.5700
  15   2.0000     -10.273049      -279.5439
  16   2.0000      -8.077259      -219.7934
  17   2.0000      -8.075730      -219.7518
  18   2.0000      -6.035565      -164.2361
  19   2.0000      -6.034109      -164.1965
  20   2.0000      -6.031706      -164.1311
  21   2.0000      -6.030165      -164.0891
  22   2.0000      -6.028182      -164.0352
  23   2.0000      -6.026557      -163.9910
  24   2.0000      -1.014100       -27.5951
  25   2.0000      -0.989160       -26.9164
  26   2.0000      -0.923717       -25.1356
  27   2.0000      -0.904330       -24.6081
  28   2.0000      -0.874541       -23.7975
  29   2.0000      -0.851551       -23.1719
  30   2.0000      -0.842903       -22.9366
  31   2.0000      -0.818235       -22.2653
  32   2.0000      -0.783466       -21.3192
  33   2.0000      -0.769729       -20.9454
  34   2.0000      -0.707642       -19.2559
  35   2.0000      -0.697444       -18.9784
  36   2.0000      -0.694289       -18.8926
  37   2.0000      -0.661740       -18.0069
  38   2.0000      -0.650405       -17.6984
  39   2.0000      -0.624150       -16.9840
  40   2.0000      -0.600174       -16.3316
  41   2.0000      -0.574490       -15.6327
  42   2.0000      -0.560760       -15.2590
  43   2.0000      -0.551651       -15.0112
  44   2.0000      -0.537581       -14.6283
  45   2.0000      -0.532126       -14.4799
  46   2.0000      -0.521129       -14.1806
  47   2.0000      -0.514063       -13.9884
  48   2.0000      -0.511004       -13.9051
  49   2.0000      -0.501415       -13.6442
  50   2.0000      -0.485819       -13.2198
  51   2.0000      -0.475426       -12.9370
  52   2.0000      -0.472379       -12.8541
  53   2.0000      -0.462615       -12.5884
  54   2.0000      -0.455694       -12.4001
  55   2.0000      -0.450653       -12.2629
  56   2.0000      -0.448351       -12.2003
  57   2.0000      -0.438255       -11.9255
  58   2.0000      -0.432272       -11.7627
  59   2.0000      -0.423594       -11.5266
  60   2.0000      -0.417342       -11.3564
  61   2.0000      -0.406710       -11.0672
  62   2.0000      -0.403243       -10.9728
  63   2.0000      -0.336751        -9.1635
  64   2.0000      -0.326254        -8.8778
  65   2.0000      -0.315405        -8.5826
  66   2.0000      -0.311145        -8.4667
  67   0.0000       0.039917         1.0862
  68   0.0000       0.056715         1.5433
  69   0.0000       0.113433         3.0867
  70   0.0000       0.121234         3.2990
  71   0.0000       0.130007         3.5377

MULLIKEN ATOMIC CHARGES
-----------------------
   0 S :    0.102896
   1 C :   -0.085884
   2 C :   -0.084093
   3 C :    0.038203
   4 C :   -0.146131
   5 H :    0.001539
   6 C :    0.056939
   7 H :    0.019820
   8 H :    0.008232
   9 C :   -0.109179
  10 H :    0.018036
  11 H :    0.027718
  12 C :    0.016326
  13 H :    0.033768
  14 H :    0.017856
  15 H :    0.040215
  16 S :    0.119124
  17 C :   -0.066811
  18 C :   -0.021068
  19 C :   -0.034669
  20 C :   -0.187497
  21 H :    0.017199
  22 C :    0.063863
  23 H :    0.032015
  24 H :    0.030661
  25 C :   -0.058407
  26 H :    0.030070
  27 H :    0.012389
  28 C :   -0.056438
  29 H :    0.037737
  30 H :    0.029014
  31 H :    0.040120
  32 H :    0.024959
  33 H :    0.031475
Sum of atomic charges:   -0.0000000

LOEWDIN ATOMIC CHARGES
----------------------
   0 S :    0.422240
   1 C :   -0.184581
   2 C :   -0.060127
   3 C :   -0.053110
   4 C :   -0.201325
   5 H :    0.028219
   6 C :   -0.042445
   7 H :    0.030617
   8 H :    0.027348
   9 C :   -0.045446
  10 H :    0.021088
  11 H :    0.027395
  12 C :   -0.055738
  13 H :    0.026197
  14 H :    0.020435
  15 H :    0.029984
  16 S :    0.412545
  17 C :   -0.167633
  18 C :   -0.073348
  19 C :   -0.048380
  20 C :   -0.216853
  21 H :    0.032192
  22 C :   -0.031908
  23 H :    0.030521
  24 H :    0.032345
  25 C :   -0.041365
  26 H :    0.028570
  27 H :    0.015657
  28 C :   -0.071758
  29 H :    0.017433
  30 H :    0.033303
  31 H :    0.029092
  32 H :    0.016720
  33 H :    0.012116

  Mayer bond orders larger than 0.100000
B(  0-S ,  1-C ) :   1.1455 B(  0-S ,  4-C ) :   1.1684 B(  1-C ,  2-C ) :   1.5865
B(  1-C ,  4-C ) :   0.1002 B(  1-C , 32-H ) :   0.9813 B(  2-C ,  3-C ) :   1.2434
B(  2-C ,  6-C ) :   1.0510 B(  3-C ,  4-C ) :   1.5823 B(  3-C ,  5-H ) :   1.0078
B(  4-C , 20-C ) :   1.0210 B(  6-C ,  7-H ) :   0.9282 B(  6-C ,  8-H ) :   0.9320
B(  6-C ,  9-C ) :   1.0602 B(  9-C , 10-H ) :   0.9514 B(  9-C , 11-H ) :   0.9543
B(  9-C , 12-C ) :   1.0753 B( 12-C , 13-H ) :   0.9745 B( 12-C , 14-H ) :   0.9724
B( 12-C , 15-H ) :   0.9718 B( 16-S , 17-C ) :   1.1763 B( 16-S , 20-C ) :   1.1449
B( 17-C , 18-C ) :   1.5830 B( 17-C , 20-C ) :   0.1023 B( 17-C , 33-H ) :   0.9770
B( 18-C , 19-C ) :   1.2505 B( 18-C , 21-H ) :   0.9967 B( 19-C , 20-C ) :   1.5859
B( 19-C , 22-C ) :   1.0383 B( 22-C , 23-H ) :   0.9401 B( 22-C , 24-H ) :   0.9383
B( 22-C , 25-C ) :   1.0661 B( 25-C , 26-H ) :   0.9568 B( 25-C , 27-H ) :   0.9561
B( 25-C , 28-C ) :   1.0682 B( 28-C , 29-H ) :   0.9755 B( 28-C , 30-H ) :   0.9707
B( 28-C , 31-H ) :   0.9686

Dispersion correction           -0.015238484
FINAL SINGLE POINT ENERGY     -1339.875538381229

DIPOLE MOMENT
-------------
                                X             Y             Z
Electronic contribution:     11.60887       2.87537       3.77041
Nuclear contribution   :    -11.77499      -3.05753      -3.68353
                        -----------------------------------------
Total Dipole Moment    :     -0.16612      -0.18216       0.08688
                        -----------------------------------------
Magnitude (a.u.)       :      0.26139
Magnitude (Debye)      :      0.66440

Rotational constants in cm-1:     0.025269     0.007863     0.006808
Rotational constants in MHz :   757.552168   235.718694   204.100256

                             ****ORCA TERMINATED NORMALLY****
TOTAL RUN TIME: 0 days 0 hours 0 minutes 29 seconds 99 msec
