                         Program Version 4.2.1 -  RELEASE  -
|  1> ! wB97X-D3 SP def2-SVP
|  2> %pal
|  3> nprocs 16
|  4> end
|  5>
|  6> * xyz 0 1
|  7> S 	 60.1865 	 -3.06402 	 91.0797
|  8> C 	 59.8189 	 -2.07305 	 92.4747
|  9> C 	 60.7117 	 -0.99774 	 92.5366
| 10> C 	 61.5289 	 -0.907804 	 91.386
| 11> C 	 61.2179 	 -1.81752 	 90.4035
| 12> H 	 62.3708 	 -0.20724 	 91.1448
| 13> C 	 61.0662 	 -0.286894 	 93.8397
| 14> H 	 60.2406 	 0.360094 	 94.1631
| 15> H 	 61.9435 	 0.321264 	 93.6864
| 16> C 	 61.5217 	 -1.22535 	 94.9787
| 17> H 	 62.2177 	 -0.680384 	 95.6905
| 18> H 	 60.5573 	 -1.50927 	 95.365
| 19> C 	 62.3152 	 -2.40025 	 94.5824
| 20> H 	 63.2423 	 -2.1493 	 93.9663
| 21> H 	 62.6197 	 -3.00149 	 95.4669
| 22> H 	 61.7048 	 -3.13235 	 94.0111
| 23> S 	 62.7926 	 -3.61703 	 89.0697
| 24> C 	 63.7454 	 -3.06731 	 87.6721
| 25> C 	 63.4228 	 -1.77695 	 87.3341
| 26> C 	 62.5804 	 -1.13526 	 88.2728
| 27> C 	 62.0344 	 -2.0191 	 89.2065
| 28> H 	 63.8752 	 -1.36995 	 86.4418
| 29> C 	 62.1543 	 0.357749 	 88.017
| 30> H 	 61.6094 	 0.720196 	 88.957
| 31> H 	 61.3145 	 0.328606 	 87.2883
| 32> C 	 63.2948 	 1.311 	 87.5596
| 33> H 	 63.4183 	 1.1437 	 86.4441
| 34> H 	 64.1573 	 1.05966 	 88.2103
| 35> C 	 62.795 	 2.75378 	 87.6789
| 36> H 	 61.8952 	 2.95006 	 87.0212
| 37> H 	 63.4762 	 3.5246 	 87.4373
| 38> H 	 62.4862 	 3.01192 	 88.6943
| 39> H 	 59.2066 	 -2.34801 	 93.3388
| 40> H 	 64.109 	 -3.66229 	 86.871
| 41> *
| 42>
| 43>                          ****END OF INPUT****

CARTESIAN COORDINATES (ANGSTROEM)
---------------------------------
  S     60.186500   -3.064020   91.079700
  C     59.818900   -2.073050   92.474700
  C     60.711700   -0.997740   92.536600
  C     61.528900   -0.907804   91.386000
  C     61.217900   -1.817520   90.403500
  H     62.370800   -0.207240   91.144800
  C     61.066200   -0.286894   93.839700
  H     60.240600    0.360094   94.163100
  H     61.943500    0.321264   93.686400
  C     61.521700   -1.225350   94.978700
  H     62.217700   -0.680384   95.690500
  H     60.557300   -1.509270   95.365000
  C     62.315200   -2.400250   94.582400
  H     63.242300   -2.149300   93.966300
  H     62.619700   -3.001490   95.466900
  H     61.704800   -3.132350   94.011100
  S     62.792600   -3.617030   89.069700
  C     63.745400   -3.067310   87.672100
  C     63.422800   -1.776950   87.334100
  C     62.580400   -1.135260   88.272800
  C     62.034400   -2.019100   89.206500
  H     63.875200   -1.369950   86.441800
  C     62.154300    0.357749   88.017000
  H     61.609400    0.720196   88.957000
  H     61.314500    0.328606   87.288300
  C     63.294800    1.311000   87.559600
  H     63.418300    1.143700   86.444100
  H     64.157300    1.059660   88.210300
  C     62.795000    2.753780   87.678900
  H     61.895200    2.950060   87.021200
  H     63.476200    3.524600   87.437300
  H     62.486200    3.011920   88.694300
  H     59.206600   -2.348010   93.338800
  H     64.109000   -3.662290   86.871000

 Total Charge           Charge          ....    0
 Multiplicity           Mult            ....    1
 Number of Electrons    NEL             ....  134
 Basis Dimension        Dim             ....  322

ORBITAL ENERGIES
----------------

  NO   OCC          E(Eh)            E(eV)
   0   2.0000     -88.972034     -2421.0521
   1   2.0000     -88.965102     -2420.8635
   2   2.0000     -10.332371      -281.1581
   3   2.0000     -10.329184      -281.0714
   4   2.0000     -10.319961      -280.8204
   5   2.0000     -10.311228      -280.5828
   6   2.0000     -10.306872      -280.4642
   7   2.0000     -10.303472      -280.3717
   8   2.0000     -10.302163      -280.3361
   9   2.0000     -10.300564      -280.2926
  10   2.0000     -10.297564      -280.2110
  11   2.0000     -10.291989      -280.0593
  12   2.0000     -10.290956      -280.0311
  13   2.0000     -10.286361      -279.9061
  14   2.0000     -10.280893      -279.7573
  15   2.0000     -10.277509      -279.6653
  16   2.0000      -8.086221      -220.0372
  17   2.0000      -8.079056      -219.8423
  18   2.0000      -6.044750      -164.4860
  19   2.0000      -6.040934      -164.3822
  20   2.0000      -6.037742      -164.2953
  21   2.0000      -6.036853      -164.2711
  22   2.0000      -6.033705      -164.1855
  23   2.0000      -6.029630      -164.0746
  24   2.0000      -1.008405       -27.4401
  25   2.0000      -0.983267       -26.7560
  26   2.0000      -0.916435       -24.9375
  27   2.0000      -0.903015       -24.5723
  28   2.0000      -0.870545       -23.6887
  29   2.0000      -0.852000       -23.1841
  30   2.0000      -0.843813       -22.9613
  31   2.0000      -0.814172       -22.1547
  32   2.0000      -0.781891       -21.2763
  33   2.0000      -0.770489       -20.9661
  34   2.0000      -0.705548       -19.1989
  35   2.0000      -0.697638       -18.9837
  36   2.0000      -0.688876       -18.7453
  37   2.0000      -0.655729       -17.8433
  38   2.0000      -0.637436       -17.3455
  39   2.0000      -0.609778       -16.5929
  40   2.0000      -0.588004       -16.0004
  41   2.0000      -0.581284       -15.8176
  42   2.0000      -0.569182       -15.4882
  43   2.0000      -0.557353       -15.1663
  44   2.0000      -0.545307       -14.8386
  45   2.0000      -0.517071       -14.0702
  46   2.0000      -0.515716       -14.0333
  47   2.0000      -0.511637       -13.9224
  48   2.0000      -0.502721       -13.6797
  49   2.0000      -0.495129       -13.4731
  50   2.0000      -0.485077       -13.1996
  51   2.0000      -0.480430       -13.0732
  52   2.0000      -0.472147       -12.8478
  53   2.0000      -0.465703       -12.6724
  54   2.0000      -0.455157       -12.3855
  55   2.0000      -0.446934       -12.1617
  56   2.0000      -0.442866       -12.0510
  57   2.0000      -0.437371       -11.9015
  58   2.0000      -0.431715       -11.7476
  59   2.0000      -0.421519       -11.4701
  60   2.0000      -0.418106       -11.3772
  61   2.0000      -0.412093       -11.2136
  62   2.0000      -0.405560       -11.0359
  63   2.0000      -0.350620        -9.5409
  64   2.0000      -0.334165        -9.0931
  65   2.0000      -0.328135        -8.9290
  66   2.0000      -0.290542        -7.9061
  67   0.0000       0.018907         0.5145
  68   0.0000       0.062733         1.7071
  69   0.0000       0.102407         2.7866
  70   0.0000       0.116858         3.1799
  71   0.0000       0.127583         3.4717

MULLIKEN ATOMIC CHARGES
-----------------------
   0 S :    0.110837
   1 C :   -0.120166
   2 C :   -0.094310
   3 C :    0.003643
   4 C :   -0.143880
   5 H :    0.041154
   6 C :    0.073785
   7 H :    0.044342
   8 H :    0.013299
   9 C :   -0.099330
  10 H :    0.046250
  11 H :    0.021221
  12 C :   -0.053903
  13 H :    0.041570
  14 H :    0.037657
  15 H :    0.025496
  16 S :    0.082799
  17 C :   -0.063733
  18 C :   -0.060429
  19 C :   -0.037535
  20 C :   -0.136210
  21 H :    0.024678
  22 C :   -0.007872
  23 H :    0.029519
  24 H :    0.047734
  25 C :   -0.082772
  26 H :    0.051593
  27 H :    0.052542
  28 C :   -0.044155
  29 H :    0.034726
  30 H :    0.026137
  31 H :    0.023856
  32 H :    0.058622
  33 H :    0.052837
Sum of atomic charges:   -0.0000000

LOEWDIN ATOMIC CHARGES
----------------------
   0 S :    0.411997
   1 C :   -0.196747
   2 C :   -0.066682
   3 C :   -0.060925
   4 C :   -0.199786
   5 H :    0.042445
   6 C :   -0.032062
   7 H :    0.034373
   8 H :    0.025178
   9 C :   -0.048610
  10 H :    0.035738
  11 H :    0.018863
  12 C :   -0.077996
  13 H :    0.032856
  14 H :    0.029991
  15 H :    0.023094
  16 S :    0.379914
  17 C :   -0.185225
  18 C :   -0.063649
  19 C :   -0.066922
  20 C :   -0.182495
  21 H :    0.032857
  22 C :   -0.040407
  23 H :    0.031434
  24 H :    0.035314
  25 C :   -0.045838
  26 H :    0.035628
  27 H :    0.032581
  28 C :   -0.069921
  29 H :    0.033777
  30 H :    0.018614
  31 H :    0.023041
  32 H :    0.032678
  33 H :    0.026895

  Mayer bond orders larger than 0.100000
B(  0-S ,  1-C ) :   1.1467 B(  0-S ,  4-C ) :   1.1523 B(  1-C ,  2-C ) :   1.5707
B(  1-C , 32-H ) :   0.9695 B(  2-C ,  3-C ) :   1.2747 B(  2-C ,  6-C ) :   1.0229
B(  3-C ,  4-C ) :   1.5486 B(  3-C ,  5-H ) :   0.9816 B(  4-C , 20-C ) :   1.0416
B(  6-C ,  7-H ) :   0.9438 B(  6-C ,  8-H ) :   0.9457 B(  6-C ,  9-C ) :   1.0553
B(  9-C , 10-H ) :   0.9601 B(  9-C , 11-H ) :   0.9506 B(  9-C , 12-C ) :   1.1036
B( 12-C , 13-H ) :   0.9707 B( 12-C , 14-H ) :   0.9688 B( 12-C , 15-H ) :   0.9586
B( 16-S , 17-C ) :   1.1326 B( 16-S , 20-C ) :   1.1369 B( 17-C , 18-C ) :   1.6532
B( 17-C , 20-C ) :   0.1019 B( 17-C , 33-H ) :   0.9540 B( 18-C , 19-C ) :   1.2279
B( 18-C , 21-H ) :   0.9847 B( 19-C , 20-C ) :   1.6127 B( 19-C , 22-C ) :   1.0228
B( 22-C , 23-H ) :   0.9466 B( 22-C , 24-H ) :   0.9407 B( 22-C , 25-C ) :   1.0422
B( 25-C , 26-H ) :   0.9455 B( 25-C , 27-H ) :   0.9632 B( 25-C , 28-C ) :   1.0849
B( 28-C , 29-H ) :   0.9711 B( 28-C , 30-H ) :   0.9746 B( 28-C , 31-H ) :   0.9745

Dispersion correction           -0.014542123
FINAL SINGLE POINT ENERGY     -1339.855522131826

DIPOLE MOMENT
-------------
                                X             Y             Z
Electronic contribution:     -5.74050     -20.71521      -7.14944
Nuclear contribution   :      5.93033      21.27268       7.23553
                        -----------------------------------------
Total Dipole Moment    :      0.18983       0.55747       0.08609
                        -----------------------------------------
Magnitude (a.u.)       :      0.59517
Magnitude (Debye)      :      1.51280

Rotational constants in cm-1:     0.018609     0.008674     0.006852
Rotational constants in MHz :   557.896211   260.027197   205.417633

                             ****ORCA TERMINATED NORMALLY****
TOTAL RUN TIME: 0 days 0 hours 0 minutes 30 seconds 419 msec
