                         Program Version 4.2.1 -  RELEASE  -
|  1> ! wB97X-D3 SP def2-SVP
|  2> %pal
|  3> nprocs 16
|  4> end
|  5>
|  6> * xyz 0 1
|  7> S 	 -35.7568 	 68.4893 	 107.947
|  8> C 	 -35.4356 	 67.8441 	 106.313
|  9> C 	 -35.059 	 68.815 	 105.391
| 10> C 	 -34.9878 	 70.096 	 105.986
| 11> C 	 -35.488 	 70.089 	 107.291
| 12> H 	 -34.6099 	 70.9681 	 105.535
| 13> C 	 -34.7212 	 68.674 	 103.897
| 14> H 	 -35.5457 	 68.9655 	 103.276
| 15> H 	 -34.6591 	 67.6109 	 103.685
| 16> C 	 -33.6104 	 69.5042 	 103.267
| 17> H 	 -33.8235 	 70.6034 	 103.44
| 18> H 	 -32.6447 	 69.442 	 103.823
| 19> C 	 -33.3861 	 69.0635 	 101.77
| 20> H 	 -32.7648 	 69.7835 	 101.285
| 21> H 	 -32.9807 	 68.0204 	 101.66
| 22> H 	 -34.3293 	 69.0542 	 101.305
| 23> S 	 -34.7518 	 71.2438 	 109.684
| 24> C 	 -35.2156 	 72.8951 	 110.02
| 25> C 	 -35.9906 	 73.4221 	 108.995
| 26> C 	 -36.3178 	 72.4814 	 107.969
| 27> C 	 -35.6911 	 71.2423 	 108.205
| 28> H 	 -36.1792 	 74.4848 	 109.043
| 29> C 	 -36.8755 	 72.9774 	 106.667
| 30> H 	 -35.9443 	 72.9155 	 106.068
| 31> H 	 -37.188 	 74.0376 	 106.714
| 32> C 	 -38.1126 	 72.3376 	 106.082
| 33> H 	 -38.9989 	 72.4552 	 106.749
| 34> H 	 -37.8122 	 71.2462 	 106.082
| 35> C 	 -38.7301 	 72.8548 	 104.82
| 36> H 	 -37.9624 	 72.8556 	 104.069
| 37> H 	 -39.0906 	 73.8971 	 104.842
| 38> H 	 -39.5026 	 72.1655 	 104.568
| 39> H 	 -35.5635 	 66.8763 	 105.986
| 40> H 	 -34.9364 	 73.4026 	 110.914
| 41> *
| 42>
| 43>                          ****END OF INPUT****

CARTESIAN COORDINATES (ANGSTROEM)
---------------------------------
  S    -35.756800   68.489300  107.947000
  C    -35.435600   67.844100  106.313000
  C    -35.059000   68.815000  105.391000
  C    -34.987800   70.096000  105.986000
  C    -35.488000   70.089000  107.291000
  H    -34.609900   70.968100  105.535000
  C    -34.721200   68.674000  103.897000
  H    -35.545700   68.965500  103.276000
  H    -34.659100   67.610900  103.685000
  C    -33.610400   69.504200  103.267000
  H    -33.823500   70.603400  103.440000
  H    -32.644700   69.442000  103.823000
  C    -33.386100   69.063500  101.770000
  H    -32.764800   69.783500  101.285000
  H    -32.980700   68.020400  101.660000
  H    -34.329300   69.054200  101.305000
  S    -34.751800   71.243800  109.684000
  C    -35.215600   72.895100  110.020000
  C    -35.990600   73.422100  108.995000
  C    -36.317800   72.481400  107.969000
  C    -35.691100   71.242300  108.205000
  H    -36.179200   74.484800  109.043000
  C    -36.875500   72.977400  106.667000
  H    -35.944300   72.915500  106.068000
  H    -37.188000   74.037600  106.714000
  C    -38.112600   72.337600  106.082000
  H    -38.998900   72.455200  106.749000
  H    -37.812200   71.246200  106.082000
  C    -38.730100   72.854800  104.820000
  H    -37.962400   72.855600  104.069000
  H    -39.090600   73.897100  104.842000
  H    -39.502600   72.165500  104.568000
  H    -35.563500   66.876300  105.986000
  H    -34.936400   73.402600  110.914000

 Total Charge           Charge          ....    0
 Multiplicity           Mult            ....    1
 Number of Electrons    NEL             ....  134
 Basis Dimension        Dim             ....  322

ORBITAL ENERGIES
----------------

  NO   OCC          E(Eh)            E(eV)
   0   2.0000     -88.971481     -2421.0371
   1   2.0000     -88.965702     -2420.8798
   2   2.0000     -10.332827      -281.1705
   3   2.0000     -10.327084      -281.0142
   4   2.0000     -10.314994      -280.6853
   5   2.0000     -10.311059      -280.5782
   6   2.0000     -10.306219      -280.4465
   7   2.0000     -10.303333      -280.3679
   8   2.0000     -10.299594      -280.2662
   9   2.0000     -10.293559      -280.1020
  10   2.0000     -10.293183      -280.0917
  11   2.0000     -10.292037      -280.0606
  12   2.0000     -10.291860      -280.0557
  13   2.0000     -10.284464      -279.8545
  14   2.0000     -10.282922      -279.8125
  15   2.0000     -10.273395      -279.5533
  16   2.0000      -8.085396      -220.0148
  17   2.0000      -8.080447      -219.8801
  18   2.0000      -6.043894      -164.4627
  19   2.0000      -6.040185      -164.3618
  20   2.0000      -6.038856      -164.3256
  21   2.0000      -6.036059      -164.2495
  22   2.0000      -6.034913      -164.2183
  23   2.0000      -6.031361      -164.1217
  24   2.0000      -1.003342       -27.3023
  25   2.0000      -0.980694       -26.6860
  26   2.0000      -0.912656       -24.8346
  27   2.0000      -0.910938       -24.7879
  28   2.0000      -0.865186       -23.5429
  29   2.0000      -0.857450       -23.3324
  30   2.0000      -0.847284       -23.0558
  31   2.0000      -0.812566       -22.1110
  32   2.0000      -0.786241       -21.3947
  33   2.0000      -0.775052       -21.0902
  34   2.0000      -0.711465       -19.3600
  35   2.0000      -0.698603       -19.0100
  36   2.0000      -0.683361       -18.5952
  37   2.0000      -0.661737       -18.0068
  38   2.0000      -0.643129       -17.5004
  39   2.0000      -0.626296       -17.0424
  40   2.0000      -0.593317       -16.1450
  41   2.0000      -0.572368       -15.5749
  42   2.0000      -0.567256       -15.4358
  43   2.0000      -0.555088       -15.1047
  44   2.0000      -0.534889       -14.5551
  45   2.0000      -0.528104       -14.3704
  46   2.0000      -0.515148       -14.0179
  47   2.0000      -0.508640       -13.8408
  48   2.0000      -0.504375       -13.7247
  49   2.0000      -0.498536       -13.5658
  50   2.0000      -0.489637       -13.3237
  51   2.0000      -0.485863       -13.2210
  52   2.0000      -0.476524       -12.9669
  53   2.0000      -0.467557       -12.7229
  54   2.0000      -0.461643       -12.5619
  55   2.0000      -0.454658       -12.3719
  56   2.0000      -0.450814       -12.2673
  57   2.0000      -0.440248       -11.9798
  58   2.0000      -0.433232       -11.7888
  59   2.0000      -0.429478       -11.6867
  60   2.0000      -0.415379       -11.3030
  61   2.0000      -0.412730       -11.2310
  62   2.0000      -0.394256       -10.7282
  63   2.0000      -0.339324        -9.2335
  64   2.0000      -0.334363        -9.0985
  65   2.0000      -0.328357        -8.9350
  66   2.0000      -0.290548        -7.9062
  67   0.0000       0.028686         0.7806
  68   0.0000       0.064234         1.7479
  69   0.0000       0.101337         2.7575
  70   0.0000       0.114009         3.1024
  71   0.0000       0.131498         3.5783

MULLIKEN ATOMIC CHARGES
-----------------------
   0 S :    0.120035
   1 C :   -0.078801
   2 C :   -0.062057
   3 C :    0.029607
   4 C :   -0.158927
   5 H :   -0.001934
   6 C :    0.076251
   7 H :    0.029222
   8 H :    0.009663
   9 C :   -0.135442
  10 H :    0.040447
  11 H :    0.036015
  12 C :   -0.020358
  13 H :    0.035530
  14 H :    0.048818
  15 H :    0.016360
  16 S :    0.108490
  17 C :   -0.095553
  18 C :   -0.048791
  19 C :   -0.002026
  20 C :   -0.157025
  21 H :    0.022835
  22 C :    0.045141
  23 H :    0.041465
  24 H :    0.013932
  25 C :   -0.125964
  26 H :    0.030830
  27 H :    0.049434
  28 C :   -0.002057
  29 H :    0.009033
  30 H :    0.033811
  31 H :    0.038202
  32 H :    0.003686
  33 H :    0.050130
Sum of atomic charges:    0.0000000

LOEWDIN ATOMIC CHARGES
----------------------
   0 S :    0.400784
   1 C :   -0.180493
   2 C :   -0.051864
   3 C :   -0.058935
   4 C :   -0.186236
   5 H :    0.021750
   6 C :   -0.036966
   7 H :    0.032814
   8 H :    0.026759
   9 C :   -0.047633
  10 H :    0.027387
  11 H :    0.024026
  12 C :   -0.055682
  13 H :    0.025348
  14 H :    0.036565
  15 H :    0.016932
  16 S :    0.408512
  17 C :   -0.182824
  18 C :   -0.069703
  19 C :   -0.052545
  20 C :   -0.210292
  21 H :    0.032582
  22 C :   -0.040840
  23 H :    0.037340
  24 H :    0.029678
  25 C :   -0.055307
  26 H :    0.030277
  27 H :    0.031647
  28 C :   -0.060351
  29 H :    0.016659
  30 H :    0.028123
  31 H :    0.030113
  32 H :    0.009115
  33 H :    0.023259

  Mayer bond orders larger than 0.100000
B(  0-S ,  1-C ) :   1.1188 B(  0-S ,  4-C ) :   1.1629 B(  1-C ,  2-C ) :   1.6443
B(  1-C ,  4-C ) :   0.1006 B(  1-C , 32-H ) :   0.9694 B(  2-C ,  3-C ) :   1.2250
B(  2-C ,  6-C ) :   1.0148 B(  3-C ,  4-C ) :   1.5756 B(  3-C ,  5-H ) :   0.9982
B(  4-C , 20-C ) :   1.0071 B(  6-C ,  7-H ) :   0.9316 B(  6-C ,  8-H ) :   0.9423
B(  6-C ,  9-C ) :   1.0531 B(  9-C , 10-H ) :   0.9471 B(  9-C , 11-H ) :   0.9612
B(  9-C , 12-C ) :   1.0712 B( 12-C , 13-H ) :   0.9741 B( 12-C , 14-H ) :   0.9754
B( 12-C , 15-H ) :   0.9753 B( 16-S , 17-C ) :   1.1602 B( 16-S , 20-C ) :   1.1584
B( 17-C , 18-C ) :   1.5995 B( 17-C , 20-C ) :   0.1030 B( 17-C , 33-H ) :   0.9720
B( 18-C , 19-C ) :   1.2491 B( 18-C , 21-H ) :   0.9923 B( 19-C , 20-C ) :   1.5718
B( 19-C , 22-C ) :   1.0358 B( 22-C , 23-H ) :   0.9333 B( 22-C , 24-H ) :   0.9336
B( 22-C , 25-C ) :   1.0578 B( 25-C , 26-H ) :   0.9543 B( 25-C , 27-H ) :   0.9542
B( 25-C , 28-C ) :   1.0874 B( 28-C , 29-H ) :   0.9710 B( 28-C , 30-H ) :   0.9694
B( 28-C , 31-H ) :   0.9710

Dispersion correction           -0.014063059
FINAL SINGLE POINT ENERGY     -1339.858283345536

DIPOLE MOMENT
-------------
                                X             Y             Z
Electronic contribution:      3.81522      -6.63673      30.26057
Nuclear contribution   :     -3.77555       7.00768     -30.95306
                        -----------------------------------------
Total Dipole Moment    :      0.03966       0.37095      -0.69249
                        -----------------------------------------
Magnitude (a.u.)       :      0.78659
Magnitude (Debye)      :      1.99935

Rotational constants in cm-1:     0.016773     0.008832     0.007038
Rotational constants in MHz :   502.848846   264.774714   210.984853

                             ****ORCA TERMINATED NORMALLY****
TOTAL RUN TIME: 0 days 0 hours 0 minutes 30 seconds 185 msec
