                         Program Version 4.2.1 -  RELEASE  -
|  1> ! wB97X-D3 SP def2-SVP
|  2> %pal
|  3> nprocs 16
|  4> end
|  5>
|  6> * xyz 0 1
|  7> S 	 -73.7061 	 35.6863 	 117.109
|  8> C 	 -72.7038 	 34.6595 	 115.968
|  9> C 	 -71.4157 	 34.604 	 116.498
| 10> C 	 -71.1594 	 35.5626 	 117.514
| 11> C 	 -72.2824 	 36.3078 	 117.938
| 12> H 	 -70.2311 	 35.8824 	 118.062
| 13> C 	 -70.3164 	 33.6925 	 116.034
| 14> H 	 -69.5876 	 34.2409 	 115.374
| 15> H 	 -70.7862 	 33.0732 	 115.314
| 16> C 	 -69.8025 	 32.7266 	 117.115
| 17> H 	 -68.7814 	 32.3403 	 116.855
| 18> H 	 -69.7169 	 33.3444 	 118.07
| 19> C 	 -70.7576 	 31.5713 	 117.443
| 20> H 	 -70.3084 	 30.7394 	 117.997
| 21> H 	 -71.6561 	 31.946 	 117.95
| 22> H 	 -71.1312 	 31.1373 	 116.44
| 23> S 	 -71.7094 	 38.873 	 118.582
| 24> C 	 -72.4872 	 39.6189 	 119.99
| 25> C 	 -73.138 	 38.6544 	 120.751
| 26> C 	 -73.1393 	 37.3601 	 120.195
| 27> C 	 -72.4192 	 37.3303 	 118.971
| 28> H 	 -73.4172 	 39.1204 	 121.715
| 29> C 	 -73.8261 	 36.2362 	 120.833
| 30> H 	 -74.1182 	 35.5857 	 120.009
| 31> H 	 -74.6487 	 36.5773 	 121.412
| 32> C 	 -72.9592 	 35.4549 	 121.846
| 33> H 	 -72.9686 	 36.0736 	 122.75
| 34> H 	 -71.9398 	 35.2307 	 121.475
| 35> C 	 -73.7252 	 34.1264 	 122.177
| 36> H 	 -73.2015 	 33.6334 	 122.984
| 37> H 	 -73.6755 	 33.4946 	 121.254
| 38> H 	 -74.7352 	 34.4031 	 122.593
| 39> H 	 -73.0678 	 34.1107 	 115.096
| 40> H 	 -72.2427 	 40.6428 	 120.275
| 41> *
| 42>
| 43>                          ****END OF INPUT****

CARTESIAN COORDINATES (ANGSTROEM)
---------------------------------
  S    -73.706100   35.686300  117.109000
  C    -72.703800   34.659500  115.968000
  C    -71.415700   34.604000  116.498000
  C    -71.159400   35.562600  117.514000
  C    -72.282400   36.307800  117.938000
  H    -70.231100   35.882400  118.062000
  C    -70.316400   33.692500  116.034000
  H    -69.587600   34.240900  115.374000
  H    -70.786200   33.073200  115.314000
  C    -69.802500   32.726600  117.115000
  H    -68.781400   32.340300  116.855000
  H    -69.716900   33.344400  118.070000
  C    -70.757600   31.571300  117.443000
  H    -70.308400   30.739400  117.997000
  H    -71.656100   31.946000  117.950000
  H    -71.131200   31.137300  116.440000
  S    -71.709400   38.873000  118.582000
  C    -72.487200   39.618900  119.990000
  C    -73.138000   38.654400  120.751000
  C    -73.139300   37.360100  120.195000
  C    -72.419200   37.330300  118.971000
  H    -73.417200   39.120400  121.715000
  C    -73.826100   36.236200  120.833000
  H    -74.118200   35.585700  120.009000
  H    -74.648700   36.577300  121.412000
  C    -72.959200   35.454900  121.846000
  H    -72.968600   36.073600  122.750000
  H    -71.939800   35.230700  121.475000
  C    -73.725200   34.126400  122.177000
  H    -73.201500   33.633400  122.984000
  H    -73.675500   33.494600  121.254000
  H    -74.735200   34.403100  122.593000
  H    -73.067800   34.110700  115.096000
  H    -72.242700   40.642800  120.275000

 Total Charge           Charge          ....    0
 Multiplicity           Mult            ....    1
 Number of Electrons    NEL             ....  134
 Basis Dimension        Dim             ....  322

ORBITAL ENERGIES
----------------

  NO   OCC          E(Eh)            E(eV)
   0   2.0000     -88.965758     -2420.8814
   1   2.0000     -88.965334     -2420.8698
   2   2.0000     -10.334638      -281.2198
   3   2.0000     -10.329602      -281.0828
   4   2.0000     -10.325445      -280.9697
   5   2.0000     -10.319364      -280.8042
   6   2.0000     -10.306793      -280.4621
   7   2.0000     -10.305881      -280.4373
   8   2.0000     -10.300823      -280.2997
   9   2.0000     -10.297511      -280.2095
  10   2.0000     -10.297010      -280.1959
  11   2.0000     -10.291715      -280.0518
  12   2.0000     -10.288235      -279.9571
  13   2.0000     -10.285810      -279.8911
  14   2.0000     -10.283823      -279.8371
  15   2.0000     -10.282431      -279.7992
  16   2.0000      -8.080278      -219.8755
  17   2.0000      -8.078362      -219.8234
  18   2.0000      -6.038687      -164.3210
  19   2.0000      -6.037053      -164.2766
  20   2.0000      -6.034705      -164.2127
  21   2.0000      -6.033039      -164.1673
  22   2.0000      -6.031269      -164.1192
  23   2.0000      -6.029063      -164.0591
  24   2.0000      -1.002277       -27.2733
  25   2.0000      -0.978527       -26.6271
  26   2.0000      -0.912697       -24.8357
  27   2.0000      -0.911712       -24.8089
  28   2.0000      -0.866980       -23.5917
  29   2.0000      -0.849507       -23.1163
  30   2.0000      -0.837510       -22.7898
  31   2.0000      -0.812347       -22.1051
  32   2.0000      -0.780957       -21.2509
  33   2.0000      -0.767216       -20.8770
  34   2.0000      -0.708168       -19.2702
  35   2.0000      -0.693106       -18.8604
  36   2.0000      -0.686868       -18.6906
  37   2.0000      -0.662900       -18.0384
  38   2.0000      -0.638286       -17.3687
  39   2.0000      -0.614762       -16.7285
  40   2.0000      -0.593376       -16.1466
  41   2.0000      -0.579755       -15.7759
  42   2.0000      -0.566829       -15.4242
  43   2.0000      -0.553896       -15.0723
  44   2.0000      -0.529195       -14.4001
  45   2.0000      -0.523525       -14.2458
  46   2.0000      -0.519549       -14.1376
  47   2.0000      -0.513821       -13.9818
  48   2.0000      -0.499277       -13.5860
  49   2.0000      -0.493412       -13.4264
  50   2.0000      -0.487193       -13.2572
  51   2.0000      -0.475625       -12.9424
  52   2.0000      -0.469365       -12.7721
  53   2.0000      -0.464966       -12.6524
  54   2.0000      -0.454405       -12.3650
  55   2.0000      -0.444346       -12.0913
  56   2.0000      -0.440042       -11.9742
  57   2.0000      -0.433330       -11.7915
  58   2.0000      -0.430858       -11.7242
  59   2.0000      -0.427090       -11.6217
  60   2.0000      -0.419039       -11.4026
  61   2.0000      -0.412858       -11.2344
  62   2.0000      -0.411505       -11.1976
  63   2.0000      -0.340470        -9.2647
  64   2.0000      -0.328846        -8.9484
  65   2.0000      -0.326192        -8.8761
  66   2.0000      -0.294837        -8.0229
  67   0.0000       0.030169         0.8209
  68   0.0000       0.052637         1.4323
  69   0.0000       0.099347         2.7034
  70   0.0000       0.118382         3.2213
  71   0.0000       0.122213         3.3256

MULLIKEN ATOMIC CHARGES
-----------------------
   0 S :    0.094299
   1 C :   -0.127279
   2 C :   -0.104121
   3 C :    0.027317
   4 C :   -0.167185
   5 H :    0.034287
   6 C :    0.094767
   7 H :    0.054454
   8 H :   -0.014615
   9 C :   -0.096699
  10 H :    0.042151
  11 H :    0.041586
  12 C :   -0.075559
  13 H :    0.048712
  14 H :    0.047592
  15 H :    0.027101
  16 S :    0.109822
  17 C :   -0.123586
  18 C :   -0.055468
  19 C :    0.004372
  20 C :   -0.183125
  21 H :    0.034014
  22 C :    0.100996
  23 H :    0.013265
  24 H :    0.012310
  25 C :   -0.097977
  26 H :    0.026862
  27 H :    0.041579
  28 C :   -0.057141
  29 H :    0.031581
  30 H :    0.053143
  31 H :    0.037718
  32 H :    0.060343
  33 H :    0.064482
Sum of atomic charges:    0.0000000

LOEWDIN ATOMIC CHARGES
----------------------
   0 S :    0.373750
   1 C :   -0.177009
   2 C :   -0.065367
   3 C :   -0.074767
   4 C :   -0.192058
   5 H :    0.042453
   6 C :   -0.039249
   7 H :    0.042770
   8 H :    0.018899
   9 C :   -0.046720
  10 H :    0.029462
  11 H :    0.029461
  12 C :   -0.071128
  13 H :    0.029125
  14 H :    0.028816
  15 H :    0.028308
  16 S :    0.409935
  17 C :   -0.182149
  18 C :   -0.077204
  19 C :   -0.052593
  20 C :   -0.211060
  21 H :    0.042379
  22 C :   -0.033091
  23 H :    0.024396
  24 H :    0.028408
  25 C :   -0.032775
  26 H :    0.021650
  27 H :    0.025479
  28 C :   -0.067766
  29 H :    0.020848
  30 H :    0.032811
  31 H :    0.030207
  32 H :    0.034975
  33 H :    0.028805

  Mayer bond orders larger than 0.100000
B(  0-S ,  1-C ) :   1.1223 B(  0-S ,  4-C ) :   1.1404 B(  1-C ,  2-C ) :   1.6053
B(  1-C ,  4-C ) :   0.1067 B(  1-C , 32-H ) :   0.9699 B(  2-C ,  3-C ) :   1.2096
B(  2-C ,  6-C ) :   1.0282 B(  3-C ,  4-C ) :   1.5908 B(  3-C ,  5-H ) :   0.9817
B(  4-C , 20-C ) :   1.0241 B(  6-C ,  7-H ) :   0.9395 B(  6-C ,  8-H ) :   0.9331
B(  6-C ,  9-C ) :   1.0486 B(  9-C , 10-H ) :   0.9574 B(  9-C , 11-H ) :   0.9607
B(  9-C , 12-C ) :   1.0664 B( 12-C , 13-H ) :   0.9760 B( 12-C , 14-H ) :   0.9757
B( 12-C , 15-H ) :   0.9730 B( 16-S , 17-C ) :   1.1593 B( 16-S , 20-C ) :   1.1654
B( 17-C , 18-C ) :   1.6013 B( 17-C , 20-C ) :   0.1123 B( 17-C , 33-H ) :   0.9651
B( 18-C , 19-C ) :   1.2315 B( 18-C , 21-H ) :   0.9882 B( 19-C , 20-C ) :   1.5424
B( 19-C , 22-C ) :   1.0669 B( 22-C , 23-H ) :   0.9226 B( 22-C , 24-H ) :   0.9232
B( 22-C , 25-C ) :   1.0645 B( 25-C , 26-H ) :   0.9555 B( 25-C , 27-H ) :   0.9597
B( 25-C , 28-C ) :   1.0811 B( 28-C , 29-H ) :   0.9756 B( 28-C , 30-H ) :   0.9770
B( 28-C , 31-H ) :   0.9705

Dispersion correction           -0.014469382
FINAL SINGLE POINT ENERGY     -1339.862990619854

DIPOLE MOMENT
-------------
                                X             Y             Z
Electronic contribution:     -4.36510      23.37645     -10.06455
Nuclear contribution   :      4.62537     -23.66903      10.39833
                        -----------------------------------------
Total Dipole Moment    :      0.26027      -0.29259       0.33378
                        -----------------------------------------
Magnitude (a.u.)       :      0.51454
Magnitude (Debye)      :      1.30786

Rotational constants in cm-1:     0.018051     0.009091     0.007315
Rotational constants in MHz :   541.160856   272.550078   219.312604

                             ****ORCA TERMINATED NORMALLY****
TOTAL RUN TIME: 0 days 0 hours 0 minutes 33 seconds 322 msec
