                         Program Version 4.2.1 -  RELEASE  -
|  1> ! wB97X-D3 SP def2-SVP
|  2> %pal
|  3> nprocs 16
|  4> end
|  5>
|  6> * xyz 0 1
|  7> S 	 -9.70556 	 60.5781 	 61.1931
|  8> C 	 -9.77439 	 58.8943 	 61.598
|  9> C 	 -11.1024 	 58.4074 	 61.562
| 10> C 	 -11.991 	 59.4369 	 61.2444
| 11> C 	 -11.3947 	 60.6478 	 61.16
| 12> H 	 -13.0295 	 59.2459 	 61.0738
| 13> C 	 -11.5491 	 57.003 	 61.766
| 14> H 	 -10.8742 	 56.4085 	 61.123
| 15> H 	 -12.5827 	 56.7718 	 61.3679
| 16> C 	 -11.5571 	 56.4758 	 63.2142
| 17> H 	 -12.1557 	 55.568 	 63.181
| 18> H 	 -10.5544 	 56.316 	 63.5571
| 19> C 	 -12.3812 	 57.2692 	 64.1965
| 20> H 	 -11.8504 	 58.1779 	 64.4002
| 21> H 	 -13.3375 	 57.6484 	 63.8527
| 22> H 	 -12.6096 	 56.8006 	 65.0946
| 23> S 	 -12.986 	 62.4042 	 62.5065
| 24> C 	 -13.9823 	 63.5184 	 61.5323
| 25> C 	 -13.6565 	 63.523 	 60.2248
| 26> C 	 -12.6132 	 62.5568 	 59.8899
| 27> C 	 -12.1449 	 61.868 	 61.0191
| 28> H 	 -14.158 	 64.1551 	 59.5013
| 29> C 	 -12.2115 	 62.2622 	 58.4559
| 30> H 	 -13.0949 	 62.2398 	 57.794
| 31> H 	 -11.9022 	 61.2265 	 58.6433
| 32> C 	 -11.0303 	 63.0835 	 57.8531
| 33> H 	 -11.4656 	 64.1088 	 57.7492
| 34> H 	 -10.9363 	 62.5823 	 56.8944
| 35> C 	 -9.68602 	 63.0721 	 58.6572
| 36> H 	 -9.74092 	 63.5296 	 59.6944
| 37> H 	 -8.93352 	 63.4694 	 58.0183
| 38> H 	 -9.38018 	 62.0134 	 58.8169
| 39> H 	 -9.02697 	 58.1661 	 61.6256
| 40> H 	 -14.6428 	 64.306 	 61.8206
| 41> *
| 42>
| 43>                          ****END OF INPUT****

CARTESIAN COORDINATES (ANGSTROEM)
---------------------------------
  S     -9.705560   60.578100   61.193100
  C     -9.774390   58.894300   61.598000
  C    -11.102400   58.407400   61.562000
  C    -11.991000   59.436900   61.244400
  C    -11.394700   60.647800   61.160000
  H    -13.029500   59.245900   61.073800
  C    -11.549100   57.003000   61.766000
  H    -10.874200   56.408500   61.123000
  H    -12.582700   56.771800   61.367900
  C    -11.557100   56.475800   63.214200
  H    -12.155700   55.568000   63.181000
  H    -10.554400   56.316000   63.557100
  C    -12.381200   57.269200   64.196500
  H    -11.850400   58.177900   64.400200
  H    -13.337500   57.648400   63.852700
  H    -12.609600   56.800600   65.094600
  S    -12.986000   62.404200   62.506500
  C    -13.982300   63.518400   61.532300
  C    -13.656500   63.523000   60.224800
  C    -12.613200   62.556800   59.889900
  C    -12.144900   61.868000   61.019100
  H    -14.158000   64.155100   59.501300
  C    -12.211500   62.262200   58.455900
  H    -13.094900   62.239800   57.794000
  H    -11.902200   61.226500   58.643300
  C    -11.030300   63.083500   57.853100
  H    -11.465600   64.108800   57.749200
  H    -10.936300   62.582300   56.894400
  C     -9.686020   63.072100   58.657200
  H     -9.740920   63.529600   59.694400
  H     -8.933520   63.469400   58.018300
  H     -9.380180   62.013400   58.816900
  H     -9.026970   58.166100   61.625600
  H    -14.642800   64.306000   61.820600

 Total Charge           Charge          ....    0
 Multiplicity           Mult            ....    1
 Number of Electrons    NEL             ....  134
 Basis Dimension        Dim             ....  322

ORBITAL ENERGIES
----------------

  NO   OCC          E(Eh)            E(eV)
   0   2.0000     -88.973034     -2421.0793
   1   2.0000     -88.963166     -2420.8108
   2   2.0000     -10.324596      -280.9465
   3   2.0000     -10.317757      -280.7604
   4   2.0000     -10.312296      -280.6119
   5   2.0000     -10.308671      -280.5132
   6   2.0000     -10.304198      -280.3915
   7   2.0000     -10.295899      -280.1656
   8   2.0000     -10.295659      -280.1591
   9   2.0000     -10.292534      -280.0741
  10   2.0000     -10.289876      -280.0017
  11   2.0000     -10.289338      -279.9871
  12   2.0000     -10.283424      -279.8262
  13   2.0000     -10.283011      -279.8150
  14   2.0000     -10.281052      -279.7617
  15   2.0000     -10.262774      -279.2643
  16   2.0000      -8.088130      -220.0892
  17   2.0000      -8.076726      -219.7789
  18   2.0000      -6.046462      -164.5326
  19   2.0000      -6.042547      -164.4261
  20   2.0000      -6.039088      -164.3319
  21   2.0000      -6.035506      -164.2345
  22   2.0000      -6.031456      -164.1242
  23   2.0000      -6.027201      -164.0085
  24   2.0000      -1.014051       -27.5937
  25   2.0000      -0.978981       -26.6394
  26   2.0000      -0.916061       -24.9273
  27   2.0000      -0.899472       -24.4759
  28   2.0000      -0.871487       -23.7144
  29   2.0000      -0.857683       -23.3387
  30   2.0000      -0.838414       -22.8144
  31   2.0000      -0.815614       -22.1940
  32   2.0000      -0.787190       -21.4205
  33   2.0000      -0.769187       -20.9306
  34   2.0000      -0.709655       -19.3107
  35   2.0000      -0.703682       -19.1482
  36   2.0000      -0.689251       -18.7555
  37   2.0000      -0.655102       -17.8262
  38   2.0000      -0.641733       -17.4625
  39   2.0000      -0.615211       -16.7407
  40   2.0000      -0.584072       -15.8934
  41   2.0000      -0.579438       -15.7673
  42   2.0000      -0.555178       -15.1072
  43   2.0000      -0.552525       -15.0350
  44   2.0000      -0.544756       -14.8236
  45   2.0000      -0.540455       -14.7065
  46   2.0000      -0.510638       -13.8952
  47   2.0000      -0.505832       -13.7644
  48   2.0000      -0.502040       -13.6612
  49   2.0000      -0.497425       -13.5356
  50   2.0000      -0.489653       -13.3241
  51   2.0000      -0.474756       -12.9188
  52   2.0000      -0.469537       -12.7767
  53   2.0000      -0.465695       -12.6722
  54   2.0000      -0.454752       -12.3744
  55   2.0000      -0.449455       -12.2303
  56   2.0000      -0.446277       -12.1438
  57   2.0000      -0.440965       -11.9993
  58   2.0000      -0.431282       -11.7358
  59   2.0000      -0.420482       -11.4419
  60   2.0000      -0.417658       -11.3650
  61   2.0000      -0.410097       -11.1593
  62   2.0000      -0.407221       -11.0810
  63   2.0000      -0.340291        -9.2598
  64   2.0000      -0.328512        -8.9393
  65   2.0000      -0.318312        -8.6617
  66   2.0000      -0.305761        -8.3202
  67   0.0000       0.041678         1.1341
  68   0.0000       0.055325         1.5055
  69   0.0000       0.105403         2.8682
  70   0.0000       0.113623         3.0918
  71   0.0000       0.130388         3.5480

MULLIKEN ATOMIC CHARGES
-----------------------
   0 S :    0.151061
   1 C :   -0.079729
   2 C :   -0.102496
   3 C :    0.049817
   4 C :   -0.188203
   5 H :    0.004959
   6 C :    0.026193
   7 H :    0.033553
   8 H :    0.029270
   9 C :   -0.044276
  10 H :    0.026844
  11 H :    0.029934
  12 C :   -0.023682
  13 H :    0.025691
  14 H :    0.012111
  15 H :    0.020406
  16 S :    0.101633
  17 C :   -0.060623
  18 C :   -0.041841
  19 C :   -0.033448
  20 C :   -0.178597
  21 H :    0.018228
  22 C :    0.029775
  23 H :    0.034633
  24 H :    0.025025
  25 C :   -0.056958
  26 H :    0.036294
  27 H :    0.037188
  28 C :   -0.065150
  29 H :    0.061659
  30 H :    0.035427
  31 H :    0.027733
  32 H :    0.013904
  33 H :    0.043663
Sum of atomic charges:   -0.0000000

LOEWDIN ATOMIC CHARGES
----------------------
   0 S :    0.469389
   1 C :   -0.207055
   2 C :   -0.060430
   3 C :   -0.054141
   4 C :   -0.229677
   5 H :    0.031159
   6 C :   -0.038381
   7 H :    0.034815
   8 H :    0.036314
   9 C :   -0.033906
  10 H :    0.027397
  11 H :    0.020782
  12 C :   -0.062448
  13 H :    0.024070
  14 H :    0.024649
  15 H :    0.018094
  16 S :    0.374127
  17 C :   -0.174087
  18 C :   -0.073355
  19 C :   -0.047935
  20 C :   -0.193112
  21 H :    0.031280
  22 C :   -0.042582
  23 H :    0.033060
  24 H :    0.030473
  25 C :   -0.036672
  26 H :    0.025912
  27 H :    0.027330
  28 C :   -0.075441
  29 H :    0.035307
  30 H :    0.024223
  31 H :    0.017531
  32 H :    0.014102
  33 H :    0.029207

  Mayer bond orders larger than 0.100000
B(  0-S ,  1-C ) :   1.1571 B(  0-S ,  4-C ) :   1.1792 B(  1-C ,  2-C ) :   1.5644
B(  1-C ,  4-C ) :   0.1008 B(  1-C , 32-H ) :   0.9698 B(  2-C ,  3-C ) :   1.2891
B(  2-C ,  6-C ) :   1.0198 B(  3-C ,  4-C ) :   1.5313 B(  3-C ,  5-H ) :   1.0072
B(  4-C , 20-C ) :   1.0096 B(  6-C ,  7-H ) :   0.9355 B(  6-C ,  8-H ) :   0.9467
B(  6-C ,  9-C ) :   1.0801 B(  9-C , 10-H ) :   0.9579 B(  9-C , 11-H ) :   0.9576
B(  9-C , 12-C ) :   1.0776 B( 12-C , 13-H ) :   0.9688 B( 12-C , 14-H ) :   0.9705
B( 12-C , 15-H ) :   0.9745 B( 16-S , 17-C ) :   1.1231 B( 16-S , 20-C ) :   1.1165
B( 17-C , 18-C ) :   1.6771 B( 17-C , 33-H ) :   0.9581 B( 18-C , 19-C ) :   1.2030
B( 18-C , 21-H ) :   0.9846 B( 19-C , 20-C ) :   1.6343 B( 19-C , 22-C ) :   1.0269
B( 22-C , 23-H ) :   0.9433 B( 22-C , 24-H ) :   0.9281 B( 22-C , 25-C ) :   1.0592
B( 25-C , 26-H ) :   0.9575 B( 25-C , 27-H ) :   0.9548 B( 25-C , 28-C ) :   1.0724
B( 28-C , 29-H ) :   0.9718 B( 28-C , 30-H ) :   0.9712 B( 28-C , 31-H ) :   0.9676

Dispersion correction           -0.015791446
FINAL SINGLE POINT ENERGY     -1339.861753608251

DIPOLE MOMENT
-------------
                                X             Y             Z
Electronic contribution:      0.01002      10.28345       5.26831
Nuclear contribution   :     -0.23549     -10.60452      -5.69857
                        -----------------------------------------
Total Dipole Moment    :     -0.22547      -0.32107      -0.43027
                        -----------------------------------------
Magnitude (a.u.)       :      0.58229
Magnitude (Debye)      :      1.48005

Rotational constants in cm-1:     0.021379     0.009158     0.007359
Rotational constants in MHz :   640.934127   274.541829   220.607865

                             ****ORCA TERMINATED NORMALLY****
TOTAL RUN TIME: 0 days 0 hours 0 minutes 35 seconds 121 msec
