                         Program Version 4.2.1 -  RELEASE  -
|  1> ! wB97X-D3 SP def2-SVP
|  2> %pal
|  3> nprocs 16
|  4> end
|  5>
|  6> * xyz 0 1
|  7> S 	 33.2307 	 -1.85693 	 69.7134
|  8> C 	 32.6713 	 -0.322862 	 69.1054
|  9> C 	 33.6378 	 0.670335 	 69.2248
| 10> C 	 34.8565 	 0.128461 	 69.6587
| 11> C 	 34.82 	 -1.23078 	 69.8835
| 12> H 	 35.8047 	 0.628448 	 69.8254
| 13> C 	 33.433 	 2.13395 	 69.0462
| 14> H 	 33.1107 	 2.33849 	 68.0335
| 15> H 	 34.3458 	 2.62101 	 69.1402
| 16> C 	 32.4076 	 2.73734 	 70.0412
| 17> H 	 31.4665 	 2.31247 	 70.108
| 18> H 	 32.8174 	 2.58851 	 71.0444
| 19> C 	 32.4041 	 4.24359 	 70.0421
| 20> H 	 32.1145 	 4.55435 	 69.0302
| 21> H 	 31.595 	 4.81122 	 70.6926
| 22> H 	 33.4062 	 4.57357 	 70.3421
| 23> S 	 35.168 	 -3.55088 	 71.3963
| 24> C 	 36.7585 	 -4.14182 	 71.6259
| 25> C 	 37.6585 	 -3.51143 	 70.7964
| 26> C 	 37.1277 	 -2.32178 	 70.1613
| 27> C 	 35.7516 	 -2.21192 	 70.4102
| 28> H 	 38.7097 	 -3.79801 	 70.7554
| 29> C 	 37.9751 	 -1.47173 	 69.3176
| 30> H 	 39.0182 	 -1.65415 	 69.6032
| 31> H 	 37.7753 	 -0.413457 	 69.5661
| 32> C 	 37.5001 	 -1.65613 	 67.8474
| 33> H 	 36.7697 	 -0.838845 	 67.558
| 34> H 	 36.8922 	 -2.5905 	 67.7531
| 35> C 	 38.6673 	 -1.66851 	 66.8877
| 36> H 	 38.3654 	 -1.97386 	 65.9552
| 37> H 	 39.4106 	 -2.4974 	 67.0837
| 38> H 	 39.114 	 -0.693266 	 66.8275
| 39> H 	 31.616 	 -0.0609627 	 68.9035
| 40> H 	 37.0362 	 -5.05139 	 72.0826
| 41> *
| 42>
| 43>                          ****END OF INPUT****

CARTESIAN COORDINATES (ANGSTROEM)
---------------------------------
  S     33.230700   -1.856930   69.713400
  C     32.671300   -0.322862   69.105400
  C     33.637800    0.670335   69.224800
  C     34.856500    0.128461   69.658700
  C     34.820000   -1.230780   69.883500
  H     35.804700    0.628448   69.825400
  C     33.433000    2.133950   69.046200
  H     33.110700    2.338490   68.033500
  H     34.345800    2.621010   69.140200
  C     32.407600    2.737340   70.041200
  H     31.466500    2.312470   70.108000
  H     32.817400    2.588510   71.044400
  C     32.404100    4.243590   70.042100
  H     32.114500    4.554350   69.030200
  H     31.595000    4.811220   70.692600
  H     33.406200    4.573570   70.342100
  S     35.168000   -3.550880   71.396300
  C     36.758500   -4.141820   71.625900
  C     37.658500   -3.511430   70.796400
  C     37.127700   -2.321780   70.161300
  C     35.751600   -2.211920   70.410200
  H     38.709700   -3.798010   70.755400
  C     37.975100   -1.471730   69.317600
  H     39.018200   -1.654150   69.603200
  H     37.775300   -0.413457   69.566100
  C     37.500100   -1.656130   67.847400
  H     36.769700   -0.838845   67.558000
  H     36.892200   -2.590500   67.753100
  C     38.667300   -1.668510   66.887700
  H     38.365400   -1.973860   65.955200
  H     39.410600   -2.497400   67.083700
  H     39.114000   -0.693266   66.827500
  H     31.616000   -0.060963   68.903500
  H     37.036200   -5.051390   72.082600

 Total Charge           Charge          ....    0
 Multiplicity           Mult            ....    1
 Number of Electrons    NEL             ....  134
 Basis Dimension        Dim             ....  322

ORBITAL ENERGIES
----------------

  NO   OCC          E(Eh)            E(eV)
   0   2.0000     -88.967599     -2420.9315
   1   2.0000     -88.964904     -2420.8581
   2   2.0000     -10.324806      -280.9523
   3   2.0000     -10.324232      -280.9366
   4   2.0000     -10.310901      -280.5739
   5   2.0000     -10.310644      -280.5669
   6   2.0000     -10.300108      -280.2802
   7   2.0000     -10.298538      -280.2375
   8   2.0000     -10.292411      -280.0707
   9   2.0000     -10.291488      -280.0456
  10   2.0000     -10.290866      -280.0287
  11   2.0000     -10.289688      -279.9966
  12   2.0000     -10.288609      -279.9673
  13   2.0000     -10.286674      -279.9146
  14   2.0000     -10.279455      -279.7182
  15   2.0000     -10.270250      -279.4677
  16   2.0000      -8.082521      -219.9366
  17   2.0000      -8.080518      -219.8821
  18   2.0000      -6.041096      -164.3866
  19   2.0000      -6.038891      -164.3266
  20   2.0000      -6.037067      -164.2769
  21   2.0000      -6.034967      -164.2198
  22   2.0000      -6.033148      -164.1703
  23   2.0000      -6.031316      -164.1205
  24   2.0000      -1.013268       -27.5724
  25   2.0000      -0.987487       -26.8709
  26   2.0000      -0.919449       -25.0195
  27   2.0000      -0.914251       -24.8780
  28   2.0000      -0.871867       -23.7247
  29   2.0000      -0.855766       -23.2866
  30   2.0000      -0.847327       -23.0569
  31   2.0000      -0.815851       -22.2004
  32   2.0000      -0.785493       -21.3744
  33   2.0000      -0.769809       -20.9476
  34   2.0000      -0.708338       -19.2749
  35   2.0000      -0.703089       -19.1320
  36   2.0000      -0.688468       -18.7342
  37   2.0000      -0.664855       -18.0916
  38   2.0000      -0.639425       -17.3996
  39   2.0000      -0.621394       -16.9090
  40   2.0000      -0.598949       -16.2982
  41   2.0000      -0.578315       -15.7368
  42   2.0000      -0.560951       -15.2643
  43   2.0000      -0.552649       -15.0383
  44   2.0000      -0.534004       -14.5310
  45   2.0000      -0.524373       -14.2689
  46   2.0000      -0.520602       -14.1663
  47   2.0000      -0.516018       -14.0416
  48   2.0000      -0.511024       -13.9057
  49   2.0000      -0.502414       -13.6714
  50   2.0000      -0.490574       -13.3492
  51   2.0000      -0.480664       -13.0795
  52   2.0000      -0.474269       -12.9055
  53   2.0000      -0.462226       -12.5778
  54   2.0000      -0.459371       -12.5001
  55   2.0000      -0.451681       -12.2909
  56   2.0000      -0.447926       -12.1887
  57   2.0000      -0.440370       -11.9831
  58   2.0000      -0.433665       -11.8006
  59   2.0000      -0.428407       -11.6575
  60   2.0000      -0.417027       -11.3479
  61   2.0000      -0.411318       -11.1925
  62   2.0000      -0.407007       -11.0752
  63   2.0000      -0.353602        -9.6220
  64   2.0000      -0.336406        -9.1541
  65   2.0000      -0.325372        -8.8538
  66   2.0000      -0.279122        -7.5953
  67   0.0000       0.022908         0.6234
  68   0.0000       0.072279         1.9668
  69   0.0000       0.104704         2.8491
  70   0.0000       0.123562         3.3623
  71   0.0000       0.138418         3.7665

MULLIKEN ATOMIC CHARGES
-----------------------
   0 S :    0.093936
   1 C :   -0.119508
   2 C :   -0.096629
   3 C :    0.013601
   4 C :   -0.144727
   5 H :    0.001521
   6 C :    0.135747
   7 H :    0.027281
   8 H :   -0.009707
   9 C :   -0.055660
  10 H :    0.015709
  11 H :    0.021575
  12 C :   -0.084642
  13 H :    0.022024
  14 H :    0.050212
  15 H :    0.036699
  16 S :    0.111161
  17 C :   -0.053303
  18 C :   -0.053386
  19 C :   -0.089606
  20 C :   -0.130187
  21 H :    0.020277
  22 C :    0.091212
  23 H :    0.028890
  24 H :    0.026124
  25 C :   -0.117057
  26 H :    0.051052
  27 H :    0.052476
  28 C :   -0.004937
  29 H :    0.003939
  30 H :    0.027951
  31 H :    0.032590
  32 H :    0.052028
  33 H :    0.043346
Sum of atomic charges:    0.0000000

LOEWDIN ATOMIC CHARGES
----------------------
   0 S :    0.423953
   1 C :   -0.210496
   2 C :   -0.058669
   3 C :   -0.074846
   4 C :   -0.187122
   5 H :    0.029259
   6 C :   -0.018781
   7 H :    0.032327
   8 H :    0.021621
   9 C :   -0.040103
  10 H :    0.012579
  11 H :    0.029236
  12 C :   -0.072520
  13 H :    0.017429
  14 H :    0.039298
  15 H :    0.024565
  16 S :    0.411802
  17 C :   -0.193140
  18 C :   -0.072011
  19 C :   -0.051764
  20 C :   -0.208409
  21 H :    0.030117
  22 C :   -0.036883
  23 H :    0.033224
  24 H :    0.034084
  25 C :   -0.040044
  26 H :    0.034395
  27 H :    0.030716
  28 C :   -0.063378
  29 H :    0.013308
  30 H :    0.031385
  31 H :    0.024023
  32 H :    0.030747
  33 H :    0.024098

  Mayer bond orders larger than 0.100000
B(  0-S ,  1-C ) :   1.1453 B(  0-S ,  4-C ) :   1.1667 B(  1-C ,  2-C ) :   1.5920
B(  1-C ,  4-C ) :   0.1014 B(  1-C , 32-H ) :   0.9654 B(  2-C ,  3-C ) :   1.2667
B(  2-C ,  6-C ) :   1.0324 B(  3-C ,  4-C ) :   1.5510 B(  3-C ,  5-H ) :   0.9909
B(  4-C , 20-C ) :   1.0650 B(  6-C ,  7-H ) :   0.9259 B(  6-C ,  8-H ) :   0.9336
B(  6-C ,  9-C ) :   1.0531 B(  9-C , 10-H ) :   0.9614 B(  9-C , 11-H ) :   0.9564
B(  9-C , 12-C ) :   1.0734 B( 12-C , 13-H ) :   0.9741 B( 12-C , 14-H ) :   0.9734
B( 12-C , 15-H ) :   0.9775 B( 16-S , 17-C ) :   1.1550 B( 16-S , 20-C ) :   1.1318
B( 17-C , 18-C ) :   1.6127 B( 17-C , 33-H ) :   0.9672 B( 18-C , 19-C ) :   1.2537
B( 18-C , 21-H ) :   0.9830 B( 19-C , 20-C ) :   1.5652 B( 19-C , 22-C ) :   1.0677
B( 22-C , 23-H ) :   0.9409 B( 22-C , 24-H ) :   0.9237 B( 22-C , 25-C ) :   1.0152
B( 25-C , 26-H ) :   0.9466 B( 25-C , 27-H ) :   0.9670 B( 25-C , 28-C ) :   1.0939
B( 28-C , 29-H ) :   0.9688 B( 28-C , 30-H ) :   0.9730 B( 28-C , 31-H ) :   0.9721

Dispersion correction           -0.014312188
FINAL SINGLE POINT ENERGY     -1339.861482750792

DIPOLE MOMENT
-------------
                                X             Y             Z
Electronic contribution:     -6.71039     -22.61563      11.08071
Nuclear contribution   :      7.07473      22.99584     -11.28068
                        -----------------------------------------
Total Dipole Moment    :      0.36434       0.38021      -0.19997
                        -----------------------------------------
Magnitude (a.u.)       :      0.56328
Magnitude (Debye)      :      1.43175

Rotational constants in cm-1:     0.020487     0.008031     0.006552
Rotational constants in MHz :   614.186299   240.770719   196.437511

                             ****ORCA TERMINATED NORMALLY****
TOTAL RUN TIME: 0 days 0 hours 0 minutes 30 seconds 977 msec
