                         Program Version 4.2.1 -  RELEASE  -
|  1> ! wB97X-D3 SP def2-SVP
|  2> %pal
|  3> nprocs 16
|  4> end
|  5>
|  6> * xyz 0 1
|  7> S 	 -40.3463 	 50.1429 	 104.748
|  8> C 	 -39.7002 	 49.8487 	 103.13
|  9> C 	 -40.414 	 50.4949 	 102.142
| 10> C 	 -41.348 	 51.4243 	 102.661
| 11> C 	 -41.4553 	 51.3453 	 104.092
| 12> H 	 -41.9525 	 52.1678 	 102.203
| 13> C 	 -40.1078 	 50.4423 	 100.635
| 14> H 	 -39.4462 	 49.6716 	 100.28
| 15> H 	 -39.6354 	 51.4513 	 100.436
| 16> C 	 -41.4098 	 50.3776 	 99.7077
| 17> H 	 -42.1077 	 51.2671 	 99.7924
| 18> H 	 -41.0415 	 50.3772 	 98.6803
| 19> C 	 -42.1499 	 49.1067 	 100.034
| 20> H 	 -42.846 	 48.8715 	 99.2148
| 21> H 	 -41.4434 	 48.2474 	 100.086
| 22> H 	 -42.7209 	 49.0927 	 100.955
| 23> S 	 -43.5217 	 51.2783 	 105.954
| 24> C 	 -44.104 	 52.6852 	 106.652
| 25> C 	 -43.4309 	 53.7816 	 106.155
| 26> C 	 -42.3247 	 53.4151 	 105.351
| 27> C 	 -42.3289 	 52.0811 	 105.014
| 28> H 	 -43.6141 	 54.7656 	 106.599
| 29> C 	 -41.2355 	 54.4211 	 104.926
| 30> H 	 -40.5568 	 53.875 	 104.24
| 31> H 	 -40.5154 	 54.7278 	 105.716
| 32> C 	 -41.7371 	 55.5671 	 104.091
| 33> H 	 -42.806 	 55.4202 	 103.764
| 34> H 	 -41.1181 	 55.7098 	 103.244
| 35> C 	 -41.8017 	 56.8506 	 104.89
| 36> H 	 -42.1243 	 57.6491 	 104.242
| 37> H 	 -40.871 	 57.1417 	 105.367
| 38> H 	 -42.6708 	 56.7962 	 105.595
| 39> H 	 -38.897 	 49.1112 	 102.881
| 40> H 	 -44.906 	 52.7654 	 107.36
| 41> *
| 42>
| 43>                          ****END OF INPUT****

CARTESIAN COORDINATES (ANGSTROEM)
---------------------------------
  S    -40.346300   50.142900  104.748000
  C    -39.700200   49.848700  103.130000
  C    -40.414000   50.494900  102.142000
  C    -41.348000   51.424300  102.661000
  C    -41.455300   51.345300  104.092000
  H    -41.952500   52.167800  102.203000
  C    -40.107800   50.442300  100.635000
  H    -39.446200   49.671600  100.280000
  H    -39.635400   51.451300  100.436000
  C    -41.409800   50.377600   99.707700
  H    -42.107700   51.267100   99.792400
  H    -41.041500   50.377200   98.680300
  C    -42.149900   49.106700  100.034000
  H    -42.846000   48.871500   99.214800
  H    -41.443400   48.247400  100.086000
  H    -42.720900   49.092700  100.955000
  S    -43.521700   51.278300  105.954000
  C    -44.104000   52.685200  106.652000
  C    -43.430900   53.781600  106.155000
  C    -42.324700   53.415100  105.351000
  C    -42.328900   52.081100  105.014000
  H    -43.614100   54.765600  106.599000
  C    -41.235500   54.421100  104.926000
  H    -40.556800   53.875000  104.240000
  H    -40.515400   54.727800  105.716000
  C    -41.737100   55.567100  104.091000
  H    -42.806000   55.420200  103.764000
  H    -41.118100   55.709800  103.244000
  C    -41.801700   56.850600  104.890000
  H    -42.124300   57.649100  104.242000
  H    -40.871000   57.141700  105.367000
  H    -42.670800   56.796200  105.595000
  H    -38.897000   49.111200  102.881000
  H    -44.906000   52.765400  107.360000

 Total Charge           Charge          ....    0
 Multiplicity           Mult            ....    1
 Number of Electrons    NEL             ....  134
 Basis Dimension        Dim             ....  322

ORBITAL ENERGIES
----------------

  NO   OCC          E(Eh)            E(eV)
   0   2.0000     -88.968040     -2420.9434
   1   2.0000     -88.963907     -2420.8310
   2   2.0000     -10.334871      -281.2261
   3   2.0000     -10.320700      -280.8405
   4   2.0000     -10.316822      -280.7350
   5   2.0000     -10.311913      -280.6014
   6   2.0000     -10.304799      -280.4078
   7   2.0000     -10.300843      -280.3002
   8   2.0000     -10.300489      -280.2905
   9   2.0000     -10.299177      -280.2549
  10   2.0000     -10.294267      -280.1212
  11   2.0000     -10.289489      -279.9912
  12   2.0000     -10.287675      -279.9419
  13   2.0000     -10.279290      -279.7137
  14   2.0000     -10.274587      -279.5857
  15   2.0000     -10.273878      -279.5664
  16   2.0000      -8.082065      -219.9242
  17   2.0000      -8.080704      -219.8871
  18   2.0000      -6.040482      -164.3699
  19   2.0000      -6.038994      -164.3294
  20   2.0000      -6.036661      -164.2659
  21   2.0000      -6.034708      -164.2127
  22   2.0000      -6.032989      -164.1660
  23   2.0000      -6.031780      -164.1331
  24   2.0000      -1.013977       -27.5917
  25   2.0000      -0.984433       -26.7878
  26   2.0000      -0.912391       -24.8274
  27   2.0000      -0.906103       -24.6563
  28   2.0000      -0.868269       -23.6268
  29   2.0000      -0.850999       -23.1569
  30   2.0000      -0.843409       -22.9503
  31   2.0000      -0.810912       -22.0660
  32   2.0000      -0.781990       -21.2790
  33   2.0000      -0.771086       -20.9823
  34   2.0000      -0.704970       -19.1832
  35   2.0000      -0.690403       -18.7868
  36   2.0000      -0.689007       -18.7488
  37   2.0000      -0.656858       -17.8740
  38   2.0000      -0.640111       -17.4183
  39   2.0000      -0.620721       -16.8907
  40   2.0000      -0.605285       -16.4706
  41   2.0000      -0.566677       -15.4201
  42   2.0000      -0.548906       -14.9365
  43   2.0000      -0.546221       -14.8634
  44   2.0000      -0.537830       -14.6351
  45   2.0000      -0.536865       -14.6088
  46   2.0000      -0.519070       -14.1246
  47   2.0000      -0.510736       -13.8978
  48   2.0000      -0.505468       -13.7545
  49   2.0000      -0.495586       -13.4856
  50   2.0000      -0.489797       -13.3281
  51   2.0000      -0.478878       -13.0309
  52   2.0000      -0.472423       -12.8553
  53   2.0000      -0.468162       -12.7393
  54   2.0000      -0.463984       -12.6256
  55   2.0000      -0.445780       -12.1303
  56   2.0000      -0.436589       -11.8802
  57   2.0000      -0.433756       -11.8031
  58   2.0000      -0.430548       -11.7158
  59   2.0000      -0.425624       -11.5818
  60   2.0000      -0.417162       -11.3516
  61   2.0000      -0.411904       -11.2085
  62   2.0000      -0.407458       -11.0875
  63   2.0000      -0.335430        -9.1275
  64   2.0000      -0.332643        -9.0517
  65   2.0000      -0.329054        -8.9540
  66   2.0000      -0.297722        -8.1014
  67   0.0000       0.037286         1.0146
  68   0.0000       0.063783         1.7356
  69   0.0000       0.117000         3.1837
  70   0.0000       0.122431         3.3315
  71   0.0000       0.128234         3.4894

MULLIKEN ATOMIC CHARGES
-----------------------
   0 S :    0.117076
   1 C :   -0.137096
   2 C :   -0.055442
   3 C :    0.057316
   4 C :   -0.197555
   5 H :    0.003014
   6 C :    0.027312
   7 H :    0.026930
   8 H :    0.050762
   9 C :   -0.096913
  10 H :    0.042451
  11 H :    0.033908
  12 C :   -0.055454
  13 H :    0.032077
  14 H :    0.024059
  15 H :    0.048797
  16 S :    0.130273
  17 C :   -0.084828
  18 C :   -0.041077
  19 C :   -0.036925
  20 C :   -0.172556
  21 H :    0.024081
  22 C :    0.065816
  23 H :    0.021588
  24 H :    0.044489
  25 C :   -0.071844
  26 H :    0.040969
  27 H :    0.023371
  28 C :   -0.056683
  29 H :    0.019651
  30 H :    0.035764
  31 H :    0.024133
  32 H :    0.059979
  33 H :    0.052557
Sum of atomic charges:   -0.0000000

LOEWDIN ATOMIC CHARGES
----------------------
   0 S :    0.400470
   1 C :   -0.203722
   2 C :   -0.067742
   3 C :   -0.051810
   4 C :   -0.185682
   5 H :    0.028070
   6 C :   -0.029642
   7 H :    0.024904
   8 H :    0.040054
   9 C :   -0.045138
  10 H :    0.027964
  11 H :    0.025210
  12 C :   -0.072110
  13 H :    0.026511
  14 H :    0.026140
  15 H :    0.028314
  16 S :    0.453611
  17 C :   -0.201963
  18 C :   -0.082569
  19 C :   -0.052078
  20 C :   -0.229888
  21 H :    0.031952
  22 C :   -0.037590
  23 H :    0.034232
  24 H :    0.036884
  25 C :   -0.043999
  26 H :    0.034141
  27 H :    0.017918
  28 C :   -0.066847
  29 H :    0.021695
  30 H :    0.020463
  31 H :    0.025706
  32 H :    0.036978
  33 H :    0.029559

  Mayer bond orders larger than 0.100000
B(  0-S ,  1-C ) :   1.1375 B(  0-S ,  4-C ) :   1.1654 B(  1-C ,  2-C ) :   1.6198
B(  1-C ,  4-C ) :   0.1082 B(  1-C , 32-H ) :   0.9600 B(  2-C ,  3-C ) :   1.2188
B(  2-C ,  6-C ) :   1.0141 B(  3-C ,  4-C ) :   1.5701 B(  3-C ,  5-H ) :   1.0007
B(  4-C , 20-C ) :   1.0189 B(  6-C ,  7-H ) :   0.9517 B(  6-C ,  8-H ) :   0.9433
B(  6-C ,  9-C ) :   1.0678 B(  9-C , 10-H ) :   0.9531 B(  9-C , 11-H ) :   0.9580
B(  9-C , 12-C ) :   1.0744 B( 12-C , 13-H ) :   0.9731 B( 12-C , 14-H ) :   0.9747
B( 12-C , 15-H ) :   0.9721 B( 16-S , 17-C ) :   1.1929 B( 16-S , 20-C ) :   1.1585
B( 17-C , 18-C ) :   1.5759 B( 17-C , 33-H ) :   0.9690 B( 18-C , 19-C ) :   1.2713
B( 18-C , 21-H ) :   0.9838 B( 19-C , 20-C ) :   1.5773 B( 19-C , 22-C ) :   1.0472
B( 22-C , 23-H ) :   0.9297 B( 22-C , 24-H ) :   0.9415 B( 22-C , 25-C ) :   1.0418
B( 25-C , 26-H ) :   0.9608 B( 25-C , 27-H ) :   0.9606 B( 25-C , 28-C ) :   1.0862
B( 28-C , 29-H ) :   0.9683 B( 28-C , 30-H ) :   0.9762 B( 28-C , 31-H ) :   0.9747

Dispersion correction           -0.014488987
FINAL SINGLE POINT ENERGY     -1339.877565728507

DIPOLE MOMENT
-------------
                                X             Y             Z
Electronic contribution:     -1.89345     -13.56807      18.80002
Nuclear contribution   :      1.97330      13.94014     -19.21653
                        -----------------------------------------
Total Dipole Moment    :      0.07985       0.37208      -0.41652
                        -----------------------------------------
Magnitude (a.u.)       :      0.56418
Magnitude (Debye)      :      1.43404

Rotational constants in cm-1:     0.018823     0.008272     0.007062
Rotational constants in MHz :   564.313299   247.980142   211.716422

                             ****ORCA TERMINATED NORMALLY****
TOTAL RUN TIME: 0 days 0 hours 0 minutes 30 seconds 222 msec
