                         Program Version 4.2.1 -  RELEASE  -
|  1> ! wB97X-D3 SP def2-SVP
|  2> %pal
|  3> nprocs 16
|  4> end
|  5>
|  6> * xyz 0 1
|  7> S 	 -40.2077 	 54.2532 	 101.534
|  8> C 	 -39.7458 	 53.534 	 103.042
|  9> C 	 -40.4572 	 54.0756 	 104.087
| 10> C 	 -41.4946 	 55.042 	 103.655
| 11> C 	 -41.541 	 55.164 	 102.29
| 12> H 	 -42.2928 	 55.5224 	 104.19
| 13> C 	 -40.5034 	 53.6075 	 105.495
| 14> H 	 -40.4113 	 54.4843 	 106.063
| 15> H 	 -39.5961 	 52.9886 	 105.662
| 16> C 	 -41.768 	 52.7577 	 105.915
| 17> H 	 -41.8136 	 52.6528 	 106.984
| 18> H 	 -42.5379 	 53.4301 	 105.654
| 19> C 	 -41.9399 	 51.419 	 105.262
| 20> H 	 -42.0243 	 51.4468 	 104.21
| 21> H 	 -41.0368 	 50.8014 	 105.462
| 22> H 	 -42.8601 	 50.8147 	 105.545
| 23> S 	 -44.0612 	 55.2233 	 101.068
| 24> C 	 -44.4414 	 56.5706 	 100.065
| 25> C 	 -43.4557 	 57.5001 	 100.111
| 26> C 	 -42.2772 	 57.1465 	 100.801
| 27> C 	 -42.4902 	 55.9325 	 101.435
| 28> H 	 -43.6598 	 58.4335 	 99.5482
| 29> C 	 -41.0227 	 58.0307 	 100.985
| 30> H 	 -41.0128 	 58.5545 	 100.056
| 31> H 	 -40.1671 	 57.4486 	 101.276
| 32> C 	 -41.3721 	 59.163 	 101.994
| 33> H 	 -41.8553 	 58.8428 	 102.997
| 34> H 	 -42.1272 	 59.7164 	 101.507
| 35> C 	 -40.1815 	 60.1277 	 102.271
| 36> H 	 -39.2523 	 59.6098 	 102.581
| 37> H 	 -40.4989 	 61.0369 	 102.84
| 38> H 	 -39.9169 	 60.437 	 101.291
| 39> H 	 -38.9525 	 52.8053 	 103.198
| 40> H 	 -45.3415 	 56.7581 	 99.5545
| 41> *
| 42>
| 43>                          ****END OF INPUT****

CARTESIAN COORDINATES (ANGSTROEM)
---------------------------------
  S    -40.207700   54.253200  101.534000
  C    -39.745800   53.534000  103.042000
  C    -40.457200   54.075600  104.087000
  C    -41.494600   55.042000  103.655000
  C    -41.541000   55.164000  102.290000
  H    -42.292800   55.522400  104.190000
  C    -40.503400   53.607500  105.495000
  H    -40.411300   54.484300  106.063000
  H    -39.596100   52.988600  105.662000
  C    -41.768000   52.757700  105.915000
  H    -41.813600   52.652800  106.984000
  H    -42.537900   53.430100  105.654000
  C    -41.939900   51.419000  105.262000
  H    -42.024300   51.446800  104.210000
  H    -41.036800   50.801400  105.462000
  H    -42.860100   50.814700  105.545000
  S    -44.061200   55.223300  101.068000
  C    -44.441400   56.570600  100.065000
  C    -43.455700   57.500100  100.111000
  C    -42.277200   57.146500  100.801000
  C    -42.490200   55.932500  101.435000
  H    -43.659800   58.433500   99.548200
  C    -41.022700   58.030700  100.985000
  H    -41.012800   58.554500  100.056000
  H    -40.167100   57.448600  101.276000
  C    -41.372100   59.163000  101.994000
  H    -41.855300   58.842800  102.997000
  H    -42.127200   59.716400  101.507000
  C    -40.181500   60.127700  102.271000
  H    -39.252300   59.609800  102.581000
  H    -40.498900   61.036900  102.840000
  H    -39.916900   60.437000  101.291000
  H    -38.952500   52.805300  103.198000
  H    -45.341500   56.758100   99.554500

 Total Charge           Charge          ....    0
 Multiplicity           Mult            ....    1
 Number of Electrons    NEL             ....  134
 Basis Dimension        Dim             ....  322

ORBITAL ENERGIES
----------------

  NO   OCC          E(Eh)            E(eV)
   0   2.0000     -88.966840     -2420.9108
   1   2.0000     -88.961885     -2420.7760
   2   2.0000     -10.330632      -281.1108
   3   2.0000     -10.325696      -280.9765
   4   2.0000     -10.314186      -280.6633
   5   2.0000     -10.309920      -280.5472
   6   2.0000     -10.304400      -280.3970
   7   2.0000     -10.301625      -280.3215
   8   2.0000     -10.296455      -280.1808
   9   2.0000     -10.295091      -280.1437
  10   2.0000     -10.291547      -280.0472
  11   2.0000     -10.289726      -279.9977
  12   2.0000     -10.287975      -279.9500
  13   2.0000     -10.282495      -279.8009
  14   2.0000     -10.279338      -279.7150
  15   2.0000     -10.276350      -279.6337
  16   2.0000      -8.081787      -219.9166
  17   2.0000      -8.076430      -219.7708
  18   2.0000      -6.040186      -164.3618
  19   2.0000      -6.036303      -164.2562
  20   2.0000      -6.035047      -164.2220
  21   2.0000      -6.032616      -164.1558
  22   2.0000      -6.030911      -164.1094
  23   2.0000      -6.027132      -164.0066
  24   2.0000      -1.006124       -27.3780
  25   2.0000      -0.984728       -26.7958
  26   2.0000      -0.910160       -24.7667
  27   2.0000      -0.908461       -24.7205
  28   2.0000      -0.867872       -23.6160
  29   2.0000      -0.849683       -23.1210
  30   2.0000      -0.844943       -22.9921
  31   2.0000      -0.817646       -22.2493
  32   2.0000      -0.783192       -21.3117
  33   2.0000      -0.772007       -21.0074
  34   2.0000      -0.708332       -19.2747
  35   2.0000      -0.696946       -18.9649
  36   2.0000      -0.693685       -18.8761
  37   2.0000      -0.656882       -17.8747
  38   2.0000      -0.642411       -17.4809
  39   2.0000      -0.615213       -16.7408
  40   2.0000      -0.596347       -16.2274
  41   2.0000      -0.568771       -15.4770
  42   2.0000      -0.563476       -15.3330
  43   2.0000      -0.550656       -14.9841
  44   2.0000      -0.544127       -14.8065
  45   2.0000      -0.527032       -14.3413
  46   2.0000      -0.512858       -13.9556
  47   2.0000      -0.510766       -13.8987
  48   2.0000      -0.504863       -13.7380
  49   2.0000      -0.497907       -13.5487
  50   2.0000      -0.483365       -13.1530
  51   2.0000      -0.481136       -13.0924
  52   2.0000      -0.473463       -12.8836
  53   2.0000      -0.465010       -12.6536
  54   2.0000      -0.454529       -12.3684
  55   2.0000      -0.449073       -12.2199
  56   2.0000      -0.444165       -12.0863
  57   2.0000      -0.439912       -11.9706
  58   2.0000      -0.436186       -11.8692
  59   2.0000      -0.427923       -11.6444
  60   2.0000      -0.416603       -11.3363
  61   2.0000      -0.413394       -11.2490
  62   2.0000      -0.409586       -11.1454
  63   2.0000      -0.335726        -9.1356
  64   2.0000      -0.334275        -9.0961
  65   2.0000      -0.320684        -8.7263
  66   2.0000      -0.309242        -8.4149
  67   0.0000       0.049158         1.3377
  68   0.0000       0.056330         1.5328
  69   0.0000       0.114293         3.1101
  70   0.0000       0.120897         3.2898
  71   0.0000       0.130837         3.5603

MULLIKEN ATOMIC CHARGES
-----------------------
   0 S :    0.103200
   1 C :   -0.105865
   2 C :   -0.107656
   3 C :    0.046313
   4 C :   -0.181981
   5 H :    0.016466
   6 C :    0.069548
   7 H :    0.021087
   8 H :    0.012715
   9 C :   -0.025038
  10 H :    0.029351
  11 H :    0.009524
  12 C :   -0.062031
  13 H :    0.028560
  14 H :    0.026265
  15 H :    0.044185
  16 S :    0.124626
  17 C :   -0.068578
  18 C :   -0.071160
  19 C :   -0.020830
  20 C :   -0.206158
  21 H :    0.023285
  22 C :    0.151622
  23 H :    0.017037
  24 H :    0.035360
  25 C :   -0.125065
  26 H :    0.042209
  27 H :    0.012630
  28 C :   -0.015152
  29 H :    0.038308
  30 H :    0.051194
  31 H :    0.000207
  32 H :    0.049735
  33 H :    0.036085
Sum of atomic charges:    0.0000000

LOEWDIN ATOMIC CHARGES
----------------------
   0 S :    0.388458
   1 C :   -0.200702
   2 C :   -0.066205
   3 C :   -0.059201
   4 C :   -0.180501
   5 H :    0.032564
   6 C :   -0.028930
   7 H :    0.026810
   8 H :    0.026148
   9 C :   -0.033445
  10 H :    0.024478
  11 H :    0.016271
  12 C :   -0.071146
  13 H :    0.020227
  14 H :    0.027086
  15 H :    0.037177
  16 S :    0.415208
  17 C :   -0.187869
  18 C :   -0.081334
  19 C :   -0.048594
  20 C :   -0.205706
  21 H :    0.034412
  22 C :   -0.012977
  23 H :    0.031853
  24 H :    0.027486
  25 C :   -0.040143
  26 H :    0.027792
  27 H :    0.014144
  28 C :   -0.071065
  29 H :    0.029744
  30 H :    0.034911
  31 H :    0.016394
  32 H :    0.033046
  33 H :    0.023607

  Mayer bond orders larger than 0.100000
B(  0-S ,  1-C ) :   1.1227 B(  0-S ,  4-C ) :   1.1294 B(  1-C ,  2-C ) :   1.6512
B(  1-C , 32-H ) :   0.9647 B(  2-C ,  3-C ) :   1.1621 B(  2-C ,  6-C ) :   1.0446
B(  3-C ,  4-C ) :   1.6575 B(  3-C ,  5-H ) :   0.9881 B(  4-C , 20-C ) :   0.9943
B(  6-C ,  7-H ) :   0.9295 B(  6-C ,  8-H ) :   0.9417 B(  6-C ,  9-C ) :   1.0621
B(  9-C , 10-H ) :   0.9550 B(  9-C , 11-H ) :   0.9525 B(  9-C , 12-C ) :   1.0783
B( 12-C , 13-H ) :   0.9746 B( 12-C , 14-H ) :   0.9733 B( 12-C , 15-H ) :   0.9715
B( 16-S , 17-C ) :   1.1510 B( 16-S , 20-C ) :   1.1574 B( 17-C , 18-C ) :   1.6383
B( 17-C , 33-H ) :   0.9687 B( 18-C , 19-C ) :   1.2354 B( 18-C , 21-H ) :   0.9785
B( 19-C , 20-C ) :   1.5972 B( 19-C , 22-C ) :   1.0421 B( 22-C , 23-H ) :   0.9190
B( 22-C , 24-H ) :   0.9318 B( 22-C , 25-C ) :   1.0614 B( 25-C , 26-H ) :   0.9600
B( 25-C , 27-H ) :   0.9571 B( 25-C , 28-C ) :   1.0773 B( 28-C , 29-H ) :   0.9756
B( 28-C , 30-H ) :   0.9732 B( 28-C , 31-H ) :   0.9666

Dispersion correction           -0.014639916
FINAL SINGLE POINT ENERGY     -1339.872500220739

DIPOLE MOMENT
-------------
                                X             Y             Z
Electronic contribution:     -5.64596      -6.40157     -14.92643
Nuclear contribution   :      5.56536       6.75282      15.14656
                        -----------------------------------------
Total Dipole Moment    :     -0.08060       0.35125       0.22014
                        -----------------------------------------
Magnitude (a.u.)       :      0.42230
Magnitude (Debye)      :      1.07339

Rotational constants in cm-1:     0.019051     0.008474     0.007094
Rotational constants in MHz :   571.142173   254.057149   212.685479

                             ****ORCA TERMINATED NORMALLY****
TOTAL RUN TIME: 0 days 0 hours 0 minutes 29 seconds 849 msec
