                         Program Version 4.2.1 -  RELEASE  -
|  1> ! wB97X-D3 SP def2-SVP
|  2> %pal
|  3> nprocs 16
|  4> end
|  5>
|  6> * xyz 0 1
|  7> S 	 8.45799 	 -8.10798 	 69.1217
|  8> C 	 7.85819 	 -7.51453 	 67.5884
|  9> C 	 6.92308 	 -6.5213 	 67.871
| 10> C 	 6.84421 	 -6.13561 	 69.2132
| 11> C 	 7.59073 	 -6.92238 	 70.065
| 12> H 	 6.07533 	 -5.49986 	 69.5768
| 13> C 	 6.07149 	 -5.83754 	 66.8301
| 14> H 	 5.97104 	 -6.44722 	 65.9243
| 15> H 	 6.48303 	 -4.90642 	 66.59
| 16> C 	 4.61655 	 -5.47699 	 67.2029
| 17> H 	 4.5688 	 -4.6416 	 67.9678
| 18> H 	 4.24353 	 -5.00978 	 66.3163
| 19> C 	 3.80883 	 -6.77752 	 67.3319
| 20> H 	 3.93802 	 -7.29346 	 68.3458
| 21> H 	 2.78809 	 -6.62073 	 67.129
| 22> H 	 4.02761 	 -7.46544 	 66.5092
| 23> S 	 8.33587 	 -8.41236 	 72.2257
| 24> C 	 8.01835 	 -7.86675 	 73.8164
| 25> C 	 7.77617 	 -6.5222 	 73.816
| 26> C 	 7.47981 	 -5.99507 	 72.5397
| 27> C 	 7.76026 	 -6.9058 	 71.5002
| 28> H 	 7.79919 	 -5.94052 	 74.7266
| 29> C 	 7.07394 	 -4.59707 	 72.3562
| 30> H 	 6.88236 	 -4.33814 	 71.3029
| 31> H 	 7.92777 	 -4.00167 	 72.7037
| 32> C 	 5.85109 	 -4.14729 	 73.2233
| 33> H 	 5.80319 	 -3.03768 	 72.9753
| 34> H 	 5.88743 	 -4.28106 	 74.22
| 35> C 	 4.59932 	 -4.76789 	 72.7855
| 36> H 	 4.7437 	 -5.34054 	 71.8475
| 37> H 	 3.75046 	 -4.08406 	 72.677
| 38> H 	 4.24052 	 -5.61508 	 73.4197
| 39> H 	 7.96198 	 -8.04219 	 66.6352
| 40> H 	 8.14531 	 -8.47205 	 74.6685
| 41> *
| 42>
| 43>                          ****END OF INPUT****

CARTESIAN COORDINATES (ANGSTROEM)
---------------------------------
  S      8.457990   -8.107980   69.121700
  C      7.858190   -7.514530   67.588400
  C      6.923080   -6.521300   67.871000
  C      6.844210   -6.135610   69.213200
  C      7.590730   -6.922380   70.065000
  H      6.075330   -5.499860   69.576800
  C      6.071490   -5.837540   66.830100
  H      5.971040   -6.447220   65.924300
  H      6.483030   -4.906420   66.590000
  C      4.616550   -5.476990   67.202900
  H      4.568800   -4.641600   67.967800
  H      4.243530   -5.009780   66.316300
  C      3.808830   -6.777520   67.331900
  H      3.938020   -7.293460   68.345800
  H      2.788090   -6.620730   67.129000
  H      4.027610   -7.465440   66.509200
  S      8.335870   -8.412360   72.225700
  C      8.018350   -7.866750   73.816400
  C      7.776170   -6.522200   73.816000
  C      7.479810   -5.995070   72.539700
  C      7.760260   -6.905800   71.500200
  H      7.799190   -5.940520   74.726600
  C      7.073940   -4.597070   72.356200
  H      6.882360   -4.338140   71.302900
  H      7.927770   -4.001670   72.703700
  C      5.851090   -4.147290   73.223300
  H      5.803190   -3.037680   72.975300
  H      5.887430   -4.281060   74.220000
  C      4.599320   -4.767890   72.785500
  H      4.743700   -5.340540   71.847500
  H      3.750460   -4.084060   72.677000
  H      4.240520   -5.615080   73.419700
  H      7.961980   -8.042190   66.635200
  H      8.145310   -8.472050   74.668500

 Total Charge           Charge          ....    0
 Multiplicity           Mult            ....    1
 Number of Electrons    NEL             ....  134
 Basis Dimension        Dim             ....  322

ORBITAL ENERGIES
----------------

  NO   OCC          E(Eh)            E(eV)
   0   2.0000     -88.962814     -2420.8012
   1   2.0000     -88.962475     -2420.7920
   2   2.0000     -10.332219      -281.1540
   3   2.0000     -10.329695      -281.0853
   4   2.0000     -10.314510      -280.6721
   5   2.0000     -10.312667      -280.6219
   6   2.0000     -10.303823      -280.3813
   7   2.0000     -10.296851      -280.1916
   8   2.0000     -10.293484      -280.0999
   9   2.0000     -10.291998      -280.0595
  10   2.0000     -10.290239      -280.0116
  11   2.0000     -10.285510      -279.8829
  12   2.0000     -10.283618      -279.8315
  13   2.0000     -10.281180      -279.7651
  14   2.0000     -10.278209      -279.6843
  15   2.0000     -10.273836      -279.5653
  16   2.0000      -8.078386      -219.8241
  17   2.0000      -8.077394      -219.7971
  18   2.0000      -6.036915      -164.2728
  19   2.0000      -6.036003      -164.2480
  20   2.0000      -6.032774      -164.1601
  21   2.0000      -6.031781      -164.1331
  22   2.0000      -6.029079      -164.0596
  23   2.0000      -6.028134      -164.0339
  24   2.0000      -1.012311       -27.5464
  25   2.0000      -0.989448       -26.9243
  26   2.0000      -0.920488       -25.0477
  27   2.0000      -0.914026       -24.8719
  28   2.0000      -0.872759       -23.7490
  29   2.0000      -0.859030       -23.3754
  30   2.0000      -0.843266       -22.9464
  31   2.0000      -0.816972       -22.2309
  32   2.0000      -0.783796       -21.3282
  33   2.0000      -0.773221       -21.0404
  34   2.0000      -0.713275       -19.4092
  35   2.0000      -0.702035       -19.1033
  36   2.0000      -0.694886       -18.9088
  37   2.0000      -0.658152       -17.9092
  38   2.0000      -0.637236       -17.3401
  39   2.0000      -0.630715       -17.1626
  40   2.0000      -0.609545       -16.5866
  41   2.0000      -0.565291       -15.3824
  42   2.0000      -0.560786       -15.2598
  43   2.0000      -0.558847       -15.2070
  44   2.0000      -0.545561       -14.8455
  45   2.0000      -0.536221       -14.5913
  46   2.0000      -0.527481       -14.3535
  47   2.0000      -0.510283       -13.8855
  48   2.0000      -0.509062       -13.8523
  49   2.0000      -0.501530       -13.6473
  50   2.0000      -0.491679       -13.3793
  51   2.0000      -0.477851       -13.0030
  52   2.0000      -0.474382       -12.9086
  53   2.0000      -0.466594       -12.6967
  54   2.0000      -0.460759       -12.5379
  55   2.0000      -0.447775       -12.1846
  56   2.0000      -0.445753       -12.1295
  57   2.0000      -0.442934       -12.0528
  58   2.0000      -0.430851       -11.7241
  59   2.0000      -0.422276       -11.4907
  60   2.0000      -0.416848       -11.3430
  61   2.0000      -0.411107       -11.1868
  62   2.0000      -0.403650       -10.9839
  63   2.0000      -0.362358        -9.8603
  64   2.0000      -0.334196        -9.0939
  65   2.0000      -0.323370        -8.7993
  66   2.0000      -0.277833        -7.5602
  67   0.0000       0.017247         0.4693
  68   0.0000       0.077858         2.1186
  69   0.0000       0.109094         2.9686
  70   0.0000       0.114798         3.1238
  71   0.0000       0.132296         3.6000

MULLIKEN ATOMIC CHARGES
-----------------------
   0 S :    0.084494
   1 C :   -0.122914
   2 C :   -0.081992
   3 C :   -0.007483
   4 C :   -0.086967
   5 H :    0.001562
   6 C :    0.072601
   7 H :    0.014313
   8 H :    0.023216
   9 C :   -0.105943
  10 H :    0.043017
  11 H :    0.016998
  12 C :   -0.037903
  13 H :    0.060874
  14 H :    0.017463
  15 H :    0.021255
  16 S :    0.088073
  17 C :   -0.062867
  18 C :   -0.026095
  19 C :   -0.055951
  20 C :   -0.108614
  21 H :    0.018955
  22 C :    0.034123
  23 H :    0.028058
  24 H :    0.040864
  25 C :   -0.047151
  26 H :    0.038517
  27 H :    0.010662
  28 C :   -0.074764
  29 H :    0.024341
  30 H :    0.039568
  31 H :    0.033320
  32 H :    0.060495
  33 H :    0.045876
Sum of atomic charges:    0.0000000

LOEWDIN ATOMIC CHARGES
----------------------
   0 S :    0.403437
   1 C :   -0.208531
   2 C :   -0.060165
   3 C :   -0.081167
   4 C :   -0.176004
   5 H :    0.022171
   6 C :   -0.027105
   7 H :    0.027597
   8 H :    0.024833
   9 C :   -0.046372
  10 H :    0.027980
  11 H :    0.023563
  12 C :   -0.069445
  13 H :    0.037778
  14 H :    0.017306
  15 H :    0.028954
  16 S :    0.408858
  17 C :   -0.176803
  18 C :   -0.071489
  19 C :   -0.058328
  20 C :   -0.192337
  21 H :    0.031715
  22 C :   -0.031231
  23 H :    0.032560
  24 H :    0.040060
  25 C :   -0.038436
  26 H :    0.036016
  27 H :    0.007859
  28 C :   -0.076510
  29 H :    0.026337
  30 H :    0.027637
  31 H :    0.032019
  32 H :    0.034777
  33 H :    0.022465

  Mayer bond orders larger than 0.100000
B(  0-S ,  1-C ) :   1.1296 B(  0-S ,  4-C ) :   1.1651 B(  1-C ,  2-C ) :   1.5844
B(  1-C ,  4-C ) :   0.1066 B(  1-C , 32-H ) :   0.9683 B(  2-C ,  3-C ) :   1.2848
B(  2-C ,  6-C ) :   1.0225 B(  3-C ,  4-C ) :   1.5449 B(  3-C ,  5-H ) :   0.9816
B(  4-C , 20-C ) :   1.0823 B(  6-C ,  7-H ) :   0.9466 B(  6-C ,  8-H ) :   0.9321
B(  6-C ,  9-C ) :   1.0958 B(  9-C , 10-H ) :   0.9496 B(  9-C , 11-H ) :   0.9497
B(  9-C , 12-C ) :   1.0689 B( 12-C , 13-H ) :   0.9745 B( 12-C , 14-H ) :   0.9751
B( 12-C , 15-H ) :   0.9684 B( 16-S , 17-C ) :   1.1760 B( 16-S , 20-C ) :   1.1275
B( 17-C , 18-C ) :   1.5767 B( 17-C , 33-H ) :   0.9752 B( 18-C , 19-C ) :   1.2575
B( 18-C , 21-H ) :   0.9910 B( 19-C , 20-C ) :   1.5485 B( 19-C , 22-C ) :   1.0549
B( 22-C , 23-H ) :   0.9449 B( 22-C , 24-H ) :   0.9243 B( 22-C , 25-C ) :   1.0768
B( 25-C , 26-H ) :   0.9584 B( 25-C , 27-H ) :   0.9597 B( 25-C , 28-C ) :   1.0624
B( 28-C , 29-H ) :   0.9778 B( 28-C , 30-H ) :   0.9741 B( 28-C , 31-H ) :   0.9689

Dispersion correction           -0.014720975
FINAL SINGLE POINT ENERGY     -1339.859912808131

DIPOLE MOMENT
-------------
                                X             Y             Z
Electronic contribution:     22.51761     -17.03417       4.90957
Nuclear contribution   :    -23.03113      17.53537      -4.82061
                        -----------------------------------------
Total Dipole Moment    :     -0.51352       0.50120       0.08896
                        -----------------------------------------
Magnitude (a.u.)       :      0.72306
Magnitude (Debye)      :      1.83787

Rotational constants in cm-1:     0.018280     0.010027     0.007193
Rotational constants in MHz :   548.012295   300.615197   215.632617

                             ****ORCA TERMINATED NORMALLY****
TOTAL RUN TIME: 0 days 0 hours 0 minutes 36 seconds 348 msec
