                         Program Version 4.2.1 -  RELEASE  -
|  1> ! wB97X-D3 SP def2-SVP
|  2> %pal
|  3> nprocs 16
|  4> end
|  5>
|  6> * xyz 0 1
|  7> S 	 -4.44299 	 12.2334 	 82.6418
|  8> C 	 -5.0341 	 11.3216 	 81.3086
|  9> C 	 -5.2804 	 12.1047 	 80.1359
| 10> C 	 -5.11831 	 13.4739 	 80.3897
| 11> C 	 -4.74129 	 13.66 	 81.6853
| 12> H 	 -5.22779 	 14.2522 	 79.6789
| 13> C 	 -5.72022 	 11.5053 	 78.8034
| 14> H 	 -6.77949 	 11.132 	 78.9554
| 15> H 	 -5.09819 	 10.6651 	 78.5563
| 16> C 	 -5.77433 	 12.4668 	 77.5583
| 17> H 	 -6.14152 	 11.7178 	 76.8773
| 18> H 	 -6.5187 	 13.3037 	 77.7087
| 19> C 	 -4.36268 	 12.9282 	 77.1096
| 20> H 	 -4.47093 	 13.454 	 76.1442
| 21> H 	 -3.80725 	 13.6006 	 77.7363
| 22> H 	 -3.72418 	 12.0413 	 76.8379
| 23> S 	 -5.72707 	 16.1147 	 82.6267
| 24> C 	 -4.60991 	 17.4017 	 82.8222
| 25> C 	 -3.30073 	 17.0548 	 82.5404
| 26> C 	 -3.14486 	 15.6872 	 82.1259
| 27> C 	 -4.3815 	 14.9944 	 82.1349
| 28> H 	 -2.56535 	 17.7911 	 82.5583
| 29> C 	 -1.87557 	 15.1513 	 81.5727
| 30> H 	 -2.0186 	 14.1642 	 81.166
| 31> H 	 -1.27936 	 15.0506 	 82.4822
| 32> C 	 -1.13067 	 16.0661 	 80.6033
| 33> H 	 -1.01662 	 17.0243 	 81.0088
| 34> H 	 -1.76973 	 16.2317 	 79.7158
| 35> C 	 0.183292 	 15.5644 	 80.2175
| 36> H 	 0.65337 	 16.1354 	 79.3849
| 37> H 	 0.0160409 	 14.5372 	 79.879
| 38> H 	 0.946239 	 15.3934 	 80.9964
| 39> H 	 -4.95733 	 10.202 	 81.1902
| 40> H 	 -4.84416 	 18.4533 	 83.1368
| 41> *
| 42>
| 43>                          ****END OF INPUT****

CARTESIAN COORDINATES (ANGSTROEM)
---------------------------------
  S     -4.442990   12.233400   82.641800
  C     -5.034100   11.321600   81.308600
  C     -5.280400   12.104700   80.135900
  C     -5.118310   13.473900   80.389700
  C     -4.741290   13.660000   81.685300
  H     -5.227790   14.252200   79.678900
  C     -5.720220   11.505300   78.803400
  H     -6.779490   11.132000   78.955400
  H     -5.098190   10.665100   78.556300
  C     -5.774330   12.466800   77.558300
  H     -6.141520   11.717800   76.877300
  H     -6.518700   13.303700   77.708700
  C     -4.362680   12.928200   77.109600
  H     -4.470930   13.454000   76.144200
  H     -3.807250   13.600600   77.736300
  H     -3.724180   12.041300   76.837900
  S     -5.727070   16.114700   82.626700
  C     -4.609910   17.401700   82.822200
  C     -3.300730   17.054800   82.540400
  C     -3.144860   15.687200   82.125900
  C     -4.381500   14.994400   82.134900
  H     -2.565350   17.791100   82.558300
  C     -1.875570   15.151300   81.572700
  H     -2.018600   14.164200   81.166000
  H     -1.279360   15.050600   82.482200
  C     -1.130670   16.066100   80.603300
  H     -1.016620   17.024300   81.008800
  H     -1.769730   16.231700   79.715800
  C      0.183292   15.564400   80.217500
  H      0.653370   16.135400   79.384900
  H      0.016041   14.537200   79.879000
  H      0.946239   15.393400   80.996400
  H     -4.957330   10.202000   81.190200
  H     -4.844160   18.453300   83.136800

 Total Charge           Charge          ....    0
 Multiplicity           Mult            ....    1
 Number of Electrons    NEL             ....  134
 Basis Dimension        Dim             ....  322

ORBITAL ENERGIES
----------------

  NO   OCC          E(Eh)            E(eV)
   0   2.0000     -88.973758     -2421.0990
   1   2.0000     -88.960884     -2420.7487
   2   2.0000     -10.322646      -280.8935
   3   2.0000     -10.320223      -280.8276
   4   2.0000     -10.315424      -280.6970
   5   2.0000     -10.314060      -280.6598
   6   2.0000     -10.302547      -280.3466
   7   2.0000     -10.299302      -280.2583
   8   2.0000     -10.298051      -280.2242
   9   2.0000     -10.296316      -280.1770
  10   2.0000     -10.287741      -279.9437
  11   2.0000     -10.285482      -279.8822
  12   2.0000     -10.285372      -279.8792
  13   2.0000     -10.284981      -279.8686
  14   2.0000     -10.278917      -279.7035
  15   2.0000     -10.276502      -279.6378
  16   2.0000      -8.088439      -220.0976
  17   2.0000      -8.075206      -219.7375
  18   2.0000      -6.046685      -164.5387
  19   2.0000      -6.043095      -164.4410
  20   2.0000      -6.039347      -164.3390
  21   2.0000      -6.033675      -164.1846
  22   2.0000      -6.029766      -164.0783
  23   2.0000      -6.026060      -163.9774
  24   2.0000      -1.004565       -27.3356
  25   2.0000      -0.978221       -26.6187
  26   2.0000      -0.918893       -25.0044
  27   2.0000      -0.906997       -24.6807
  28   2.0000      -0.865568       -23.5533
  29   2.0000      -0.854910       -23.2633
  30   2.0000      -0.851176       -23.1617
  31   2.0000      -0.810003       -22.0413
  32   2.0000      -0.783987       -21.3334
  33   2.0000      -0.763437       -20.7742
  34   2.0000      -0.707119       -19.2417
  35   2.0000      -0.700650       -19.0657
  36   2.0000      -0.685220       -18.6458
  37   2.0000      -0.651081       -17.7168
  38   2.0000      -0.639097       -17.3907
  39   2.0000      -0.622453       -16.9378
  40   2.0000      -0.596859       -16.2414
  41   2.0000      -0.569263       -15.4904
  42   2.0000      -0.562692       -15.3116
  43   2.0000      -0.548405       -14.9229
  44   2.0000      -0.531847       -14.4723
  45   2.0000      -0.528423       -14.3791
  46   2.0000      -0.516906       -14.0657
  47   2.0000      -0.512519       -13.9463
  48   2.0000      -0.504149       -13.7186
  49   2.0000      -0.495262       -13.4768
  50   2.0000      -0.482629       -13.1330
  51   2.0000      -0.480743       -13.0817
  52   2.0000      -0.469422       -12.7736
  53   2.0000      -0.461441       -12.5565
  54   2.0000      -0.457929       -12.4609
  55   2.0000      -0.454868       -12.3776
  56   2.0000      -0.452947       -12.3253
  57   2.0000      -0.440909       -11.9978
  58   2.0000      -0.433207       -11.7881
  59   2.0000      -0.428326       -11.6554
  60   2.0000      -0.419862       -11.4250
  61   2.0000      -0.414165       -11.2700
  62   2.0000      -0.409886       -11.1536
  63   2.0000      -0.343267        -9.3408
  64   2.0000      -0.324960        -8.8426
  65   2.0000      -0.311520        -8.4769
  66   2.0000      -0.298759        -8.1296
  67   0.0000       0.041397         1.1265
  68   0.0000       0.057606         1.5675
  69   0.0000       0.110176         2.9981
  70   0.0000       0.119026         3.2389
  71   0.0000       0.129724         3.5300

MULLIKEN ATOMIC CHARGES
-----------------------
   0 S :    0.152049
   1 C :   -0.136098
   2 C :   -0.095634
   3 C :    0.048845
   4 C :   -0.169589
   5 H :    0.006276
   6 C :    0.025836
   7 H :    0.053722
   8 H :    0.025381
   9 C :   -0.082180
  10 H :    0.033866
  11 H :    0.052649
  12 C :   -0.068946
  13 H :    0.034856
  14 H :    0.040698
  15 H :    0.036201
  16 S :    0.104572
  17 C :   -0.101428
  18 C :   -0.030924
  19 C :   -0.001271
  20 C :   -0.219510
  21 H :   -0.009154
  22 C :    0.086964
  23 H :    0.022654
  24 H :    0.029522
  25 C :   -0.048450
  26 H :    0.009191
  27 H :    0.031136
  28 C :   -0.044861
  29 H :    0.041858
  30 H :    0.014127
  31 H :    0.029149
  32 H :    0.059748
  33 H :    0.068744
Sum of atomic charges:   -0.0000000

LOEWDIN ATOMIC CHARGES
----------------------
   0 S :    0.438044
   1 C :   -0.229111
   2 C :   -0.062423
   3 C :   -0.048553
   4 C :   -0.208209
   5 H :    0.030536
   6 C :   -0.037051
   7 H :    0.042615
   8 H :    0.025585
   9 C :   -0.044528
  10 H :    0.030393
  11 H :    0.031215
  12 C :   -0.074036
  13 H :    0.029624
  14 H :    0.020208
  15 H :    0.033334
  16 S :    0.388772
  17 C :   -0.199738
  18 C :   -0.075514
  19 C :   -0.045456
  20 C :   -0.191625
  21 H :    0.017578
  22 C :   -0.029739
  23 H :    0.027519
  24 H :    0.038264
  25 C :   -0.041229
  26 H :    0.014028
  27 H :    0.030969
  28 C :   -0.070111
  29 H :    0.032274
  30 H :    0.024810
  31 H :    0.026691
  32 H :    0.034874
  33 H :    0.039990

  Mayer bond orders larger than 0.100000
B(  0-S ,  1-C ) :   1.1542 B(  0-S ,  4-C ) :   1.1654 B(  1-C ,  2-C ) :   1.5867
B(  1-C , 32-H ) :   0.9596 B(  2-C ,  3-C ) :   1.2790 B(  2-C ,  6-C ) :   1.0034
B(  3-C ,  4-C ) :   1.5444 B(  3-C ,  5-H ) :   0.9982 B(  4-C , 20-C ) :   1.0229
B(  6-C ,  7-H ) :   0.9402 B(  6-C ,  8-H ) :   0.9402 B(  6-C ,  9-C ) :   1.0835
B(  9-C , 10-H ) :   0.9530 B(  9-C , 11-H ) :   0.9517 B(  9-C , 12-C ) :   1.0709
B( 12-C , 13-H ) :   0.9737 B( 12-C , 14-H ) :   0.9791 B( 12-C , 15-H ) :   0.9719
B( 16-S , 17-C ) :   1.1653 B( 16-S , 20-C ) :   1.1233 B( 17-C , 18-C ) :   1.6212
B( 17-C , 33-H ) :   0.9559 B( 18-C , 19-C ) :   1.2240 B( 18-C , 21-H ) :   0.9970
B( 19-C , 20-C ) :   1.5949 B( 19-C , 22-C ) :   1.0467 B( 22-C , 23-H ) :   0.9307
B( 22-C , 24-H ) :   0.9183 B( 22-C , 25-C ) :   1.0741 B( 25-C , 26-H ) :   0.9432
B( 25-C , 27-H ) :   0.9479 B( 25-C , 28-C ) :   1.1009 B( 28-C , 29-H ) :   0.9701
B( 28-C , 30-H ) :   0.9672 B( 28-C , 31-H ) :   0.9710

Dispersion correction           -0.014619771
FINAL SINGLE POINT ENERGY     -1339.870667020634

DIPOLE MOMENT
-------------
                                X             Y             Z
Electronic contribution:    -14.62293       0.70705      23.31064
Nuclear contribution   :     15.01985      -0.74695     -23.98587
                        -----------------------------------------
Total Dipole Moment    :      0.39692      -0.03990      -0.67523
                        -----------------------------------------
Magnitude (a.u.)       :      0.78427
Magnitude (Debye)      :      1.99345

Rotational constants in cm-1:     0.015574     0.009571     0.007880
Rotational constants in MHz :   466.883088   286.931165   236.221592

                             ****ORCA TERMINATED NORMALLY****
TOTAL RUN TIME: 0 days 0 hours 0 minutes 37 seconds 728 msec
