                         Program Version 4.2.1 -  RELEASE  -
|  1> ! wB97X-D3 SP def2-SVP
|  2> %pal
|  3> nprocs 16
|  4> end
|  5>
|  6> * xyz 0 1
|  7> S 	 1.42475 	 -17.0968 	 84.8174
|  8> C 	 0.15532 	 -18.1084 	 84.2513
|  9> C 	 0.596006 	 -19.3197 	 83.8999
| 10> C 	 2.02689 	 -19.4421 	 83.8788
| 11> C 	 2.63507 	 -18.3205 	 84.3066
| 12> H 	 2.62167 	 -20.2903 	 83.5953
| 13> C 	 -0.236763 	 -20.455 	 83.3087
| 14> H 	 0.140451 	 -20.6364 	 82.2963
| 15> H 	 -1.2403 	 -20.089 	 83.0758
| 16> C 	 -0.202327 	 -21.8087 	 84.091
| 17> H 	 -0.765082 	 -22.5578 	 83.5012
| 18> H 	 0.812435 	 -22.1714 	 84.0739
| 19> C 	 -0.889854 	 -21.6995 	 85.4861
| 20> H 	 -0.278465 	 -21.215 	 86.3007
| 21> H 	 -1.81097 	 -21.2176 	 85.2776
| 22> H 	 -1.11642 	 -22.6659 	 85.9355
| 23> S 	 4.73839 	 -18.3997 	 86.0591
| 24> C 	 6.42923 	 -18.1737 	 85.4343
| 25> C 	 6.40765 	 -18.006 	 84.0833
| 26> C 	 5.10929 	 -17.8303 	 83.5255
| 27> C 	 4.09171 	 -18.0576 	 84.4322
| 28> H 	 7.23854 	 -17.9167 	 83.5461
| 29> C 	 4.90312 	 -17.584 	 82.0987
| 30> H 	 5.3547 	 -16.668 	 81.8829
| 31> H 	 3.87163 	 -17.4613 	 81.8559
| 32> C 	 5.48576 	 -18.5454 	 81.0421
| 33> H 	 6.57158 	 -18.6318 	 81.27
| 34> H 	 5.42517 	 -18.0679 	 80.0533
| 35> C 	 4.72396 	 -19.9122 	 81.1442
| 36> H 	 4.96641 	 -20.5459 	 80.2997
| 37> H 	 3.60239 	 -19.6504 	 81.0746
| 38> H 	 4.9645 	 -20.4597 	 82.0555
| 39> H 	 -0.869811 	 -17.8521 	 84.0212
| 40> H 	 7.26338 	 -18.3177 	 86.1102
| 41> *
| 42>
| 43>                          ****END OF INPUT****

CARTESIAN COORDINATES (ANGSTROEM)
---------------------------------
  S      1.424750  -17.096800   84.817400
  C      0.155320  -18.108400   84.251300
  C      0.596006  -19.319700   83.899900
  C      2.026890  -19.442100   83.878800
  C      2.635070  -18.320500   84.306600
  H      2.621670  -20.290300   83.595300
  C     -0.236763  -20.455000   83.308700
  H      0.140451  -20.636400   82.296300
  H     -1.240300  -20.089000   83.075800
  C     -0.202327  -21.808700   84.091000
  H     -0.765082  -22.557800   83.501200
  H      0.812435  -22.171400   84.073900
  C     -0.889854  -21.699500   85.486100
  H     -0.278465  -21.215000   86.300700
  H     -1.810970  -21.217600   85.277600
  H     -1.116420  -22.665900   85.935500
  S      4.738390  -18.399700   86.059100
  C      6.429230  -18.173700   85.434300
  C      6.407650  -18.006000   84.083300
  C      5.109290  -17.830300   83.525500
  C      4.091710  -18.057600   84.432200
  H      7.238540  -17.916700   83.546100
  C      4.903120  -17.584000   82.098700
  H      5.354700  -16.668000   81.882900
  H      3.871630  -17.461300   81.855900
  C      5.485760  -18.545400   81.042100
  H      6.571580  -18.631800   81.270000
  H      5.425170  -18.067900   80.053300
  C      4.723960  -19.912200   81.144200
  H      4.966410  -20.545900   80.299700
  H      3.602390  -19.650400   81.074600
  H      4.964500  -20.459700   82.055500
  H     -0.869811  -17.852100   84.021200
  H      7.263380  -18.317700   86.110200

 Total Charge           Charge          ....    0
 Multiplicity           Mult            ....    1
 Number of Electrons    NEL             ....  134
 Basis Dimension        Dim             ....  322

ORBITAL ENERGIES
----------------

  NO   OCC          E(Eh)            E(eV)
   0   2.0000     -88.960994     -2420.7517
   1   2.0000     -88.959341     -2420.7067
   2   2.0000     -10.328862      -281.0626
   3   2.0000     -10.327769      -281.0329
   4   2.0000     -10.323330      -280.9121
   5   2.0000     -10.305839      -280.4361
   6   2.0000     -10.301161      -280.3088
   7   2.0000     -10.294067      -280.1158
   8   2.0000     -10.293282      -280.0944
   9   2.0000     -10.292808      -280.0816
  10   2.0000     -10.291855      -280.0556
  11   2.0000     -10.290543      -280.0199
  12   2.0000     -10.286754      -279.9168
  13   2.0000     -10.285543      -279.8839
  14   2.0000     -10.277345      -279.6608
  15   2.0000     -10.277257      -279.6584
  16   2.0000      -8.075948      -219.7577
  17   2.0000      -8.073137      -219.6812
  18   2.0000      -6.034614      -164.2102
  19   2.0000      -6.031794      -164.1335
  20   2.0000      -6.030542      -164.0994
  21   2.0000      -6.027826      -164.0255
  22   2.0000      -6.026391      -163.9864
  23   2.0000      -6.023754      -163.9147
  24   2.0000      -1.005027       -27.3482
  25   2.0000      -0.983891       -26.7730
  26   2.0000      -0.910430       -24.7740
  27   2.0000      -0.903053       -24.5733
  28   2.0000      -0.870975       -23.7004
  29   2.0000      -0.844180       -22.9713
  30   2.0000      -0.842488       -22.9253
  31   2.0000      -0.820016       -22.3138
  32   2.0000      -0.780424       -21.2364
  33   2.0000      -0.772528       -21.0216
  34   2.0000      -0.709614       -19.3096
  35   2.0000      -0.698647       -19.0111
  36   2.0000      -0.692723       -18.8499
  37   2.0000      -0.667773       -18.1710
  38   2.0000      -0.642648       -17.4873
  39   2.0000      -0.620506       -16.8848
  40   2.0000      -0.603299       -16.4166
  41   2.0000      -0.568747       -15.4764
  42   2.0000      -0.555301       -15.1105
  43   2.0000      -0.550840       -14.9891
  44   2.0000      -0.544261       -14.8101
  45   2.0000      -0.535668       -14.5763
  46   2.0000      -0.519139       -14.1265
  47   2.0000      -0.510731       -13.8977
  48   2.0000      -0.502679       -13.6786
  49   2.0000      -0.491917       -13.3857
  50   2.0000      -0.487458       -13.2644
  51   2.0000      -0.476155       -12.9568
  52   2.0000      -0.464133       -12.6297
  53   2.0000      -0.463805       -12.6208
  54   2.0000      -0.458505       -12.4765
  55   2.0000      -0.449695       -12.2368
  56   2.0000      -0.439772       -11.9668
  57   2.0000      -0.434569       -11.8252
  58   2.0000      -0.428792       -11.6680
  59   2.0000      -0.427700       -11.6383
  60   2.0000      -0.423640       -11.5278
  61   2.0000      -0.420310       -11.4372
  62   2.0000      -0.412073       -11.2131
  63   2.0000      -0.341096        -9.2817
  64   2.0000      -0.328150        -8.9294
  65   2.0000      -0.320966        -8.7339
  66   2.0000      -0.308876        -8.4049
  67   0.0000       0.046465         1.2644
  68   0.0000       0.055152         1.5008
  69   0.0000       0.113073         3.0769
  70   0.0000       0.121971         3.3190
  71   0.0000       0.123774         3.3681

MULLIKEN ATOMIC CHARGES
-----------------------
   0 S :    0.105075
   1 C :   -0.103798
   2 C :   -0.071601
   3 C :    0.060217
   4 C :   -0.173500
   5 H :    0.009286
   6 C :    0.036323
   7 H :    0.028478
   8 H :    0.007785
   9 C :   -0.068787
  10 H :    0.031258
  11 H :    0.027544
  12 C :   -0.047150
  13 H :    0.054792
  14 H :    0.023604
  15 H :    0.028308
  16 S :    0.073613
  17 C :   -0.086580
  18 C :    0.030944
  19 C :   -0.009984
  20 C :   -0.169783
  21 H :   -0.035023
  22 C :    0.091640
  23 H :    0.010100
  24 H :    0.015613
  25 C :   -0.094297
  26 H :    0.027749
  27 H :    0.037716
  28 C :   -0.075384
  29 H :    0.035686
  30 H :    0.043182
  31 H :    0.053664
  32 H :    0.039425
  33 H :    0.063881
Sum of atomic charges:    0.0000000

LOEWDIN ATOMIC CHARGES
----------------------
   0 S :    0.387055
   1 C :   -0.200806
   2 C :   -0.070343
   3 C :   -0.050917
   4 C :   -0.180182
   5 H :    0.032926
   6 C :   -0.033748
   7 H :    0.031743
   8 H :    0.022746
   9 C :   -0.037723
  10 H :    0.028169
  11 H :    0.018899
  12 C :   -0.067435
  13 H :    0.035916
  14 H :    0.020877
  15 H :    0.024493
  16 S :    0.357434
  17 C :   -0.146968
  18 C :   -0.053578
  19 C :   -0.050657
  20 C :   -0.185526
  21 H :    0.008612
  22 C :   -0.032437
  23 H :    0.027272
  24 H :    0.027292
  25 C :   -0.036132
  26 H :    0.020821
  27 H :    0.027652
  28 C :   -0.071122
  29 H :    0.022598
  30 H :    0.034638
  31 H :    0.027292
  32 H :    0.032411
  33 H :    0.028729

  Mayer bond orders larger than 0.100000
B(  0-S ,  1-C ) :   1.1207 B(  0-S ,  4-C ) :   1.1230 B(  1-C ,  2-C ) :   1.6773
B(  1-C , 32-H ) :   0.9587 B(  2-C ,  3-C ) :   1.1744 B(  2-C ,  6-C ) :   1.0184
B(  3-C ,  4-C ) :   1.6556 B(  3-C ,  5-H ) :   0.9987 B(  4-C , 20-C ) :   0.9820
B(  6-C ,  7-H ) :   0.9420 B(  6-C ,  8-H ) :   0.9442 B(  6-C ,  9-C ) :   1.0724
B(  9-C , 10-H ) :   0.9555 B(  9-C , 11-H ) :   0.9585 B(  9-C , 12-C ) :   1.0619
B( 12-C , 13-H ) :   0.9759 B( 12-C , 14-H ) :   0.9762 B( 12-C , 15-H ) :   0.9767
B( 16-S , 17-C ) :   1.1347 B( 16-S , 20-C ) :   1.1352 B( 17-C , 18-C ) :   1.6177
B( 17-C , 33-H ) :   0.9713 B( 18-C , 19-C ) :   1.2089 B( 18-C , 21-H ) :   1.0109
B( 19-C , 20-C ) :   1.6280 B( 19-C , 22-C ) :   1.0649 B( 22-C , 23-H ) :   0.9111
B( 22-C , 24-H ) :   0.9325 B( 22-C , 25-C ) :   1.0814 B( 25-C , 26-H ) :   0.9535
B( 25-C , 27-H ) :   0.9558 B( 25-C , 28-C ) :   1.0617 B( 28-C , 29-H ) :   0.9746
B( 28-C , 30-H ) :   0.9727 B( 28-C , 31-H ) :   0.9743

Dispersion correction           -0.015381827
FINAL SINGLE POINT ENERGY     -1339.873447239983

DIPOLE MOMENT
-------------
                                X             Y             Z
Electronic contribution:      6.17902      16.56630      15.28702
Nuclear contribution   :     -6.04784     -16.99413     -15.96148
                        -----------------------------------------
Total Dipole Moment    :      0.13118      -0.42782      -0.67445
                        -----------------------------------------
Magnitude (a.u.)       :      0.80940
Magnitude (Debye)      :      2.05733

Rotational constants in cm-1:     0.019473     0.008661     0.007624
Rotational constants in MHz :   583.774729   259.661198   228.572861

                             ****ORCA TERMINATED NORMALLY****
TOTAL RUN TIME: 0 days 0 hours 0 minutes 35 seconds 536 msec
