                         Program Version 4.2.1 -  RELEASE  -
|  1> ! wB97X-D3 SP def2-SVP
|  2> %pal
|  3> nprocs 16
|  4> end
|  5>
|  6> * xyz 0 1
|  7> S 	 41.2893 	 7.90718 	 77.5077
|  8> C 	 41.9067 	 8.45365 	 79.0769
|  9> C 	 41.3183 	 9.63483 	 79.4136
| 10> C 	 40.4894 	 10.0873 	 78.3436
| 11> C 	 40.202 	 9.24488 	 77.2863
| 12> H 	 39.9661 	 11.0506 	 78.3415
| 13> C 	 41.6161 	 10.3168 	 80.6646
| 14> H 	 42.0323 	 9.54483 	 81.3921
| 15> H 	 40.6566 	 10.5904 	 81.0824
| 16> C 	 42.5552 	 11.5258 	 80.6015
| 17> H 	 41.9681 	 12.2867 	 80.0536
| 18> H 	 42.6014 	 11.8566 	 81.6456
| 19> C 	 43.8473 	 11.2843 	 79.8444
| 20> H 	 44.7822 	 11.1857 	 80.4297
| 21> H 	 43.7817 	 10.4631 	 79.1517
| 22> H 	 43.9704 	 12.1406 	 79.1711
| 23> S 	 39.8915 	 9.87114 	 74.7
| 24> C 	 38.3528 	 10.2044 	 73.9465
| 25> C 	 37.4208 	 10.3277 	 74.9373
| 26> C 	 37.894 	 9.83461 	 76.2366
| 27> C 	 39.2372 	 9.43742 	 76.1858
| 28> H 	 36.4887 	 10.6908 	 74.5963
| 29> C 	 36.9567 	 9.61311 	 77.3898
| 30> H 	 37.2486 	 8.68508 	 77.8911
| 31> H 	 36.1065 	 9.35705 	 76.7901
| 32> C 	 36.6463 	 10.881 	 78.1529
| 33> H 	 37.6044 	 11.5283 	 78.2969
| 34> H 	 36.3184 	 10.636 	 79.1101
| 35> C 	 35.7641 	 11.9344 	 77.4224
| 36> H 	 36.1994 	 12.2256 	 76.4408
| 37> H 	 35.6879 	 12.8725 	 77.9972
| 38> H 	 34.7444 	 11.5838 	 77.2169
| 39> H 	 42.4876 	 7.82858 	 79.7074
| 40> H 	 38.2621 	 10.4503 	 72.9076
| 41> *
| 42>
| 43>                          ****END OF INPUT****

CARTESIAN COORDINATES (ANGSTROEM)
---------------------------------
  S     41.289300    7.907180   77.507700
  C     41.906700    8.453650   79.076900
  C     41.318300    9.634830   79.413600
  C     40.489400   10.087300   78.343600
  C     40.202000    9.244880   77.286300
  H     39.966100   11.050600   78.341500
  C     41.616100   10.316800   80.664600
  H     42.032300    9.544830   81.392100
  H     40.656600   10.590400   81.082400
  C     42.555200   11.525800   80.601500
  H     41.968100   12.286700   80.053600
  H     42.601400   11.856600   81.645600
  C     43.847300   11.284300   79.844400
  H     44.782200   11.185700   80.429700
  H     43.781700   10.463100   79.151700
  H     43.970400   12.140600   79.171100
  S     39.891500    9.871140   74.700000
  C     38.352800   10.204400   73.946500
  C     37.420800   10.327700   74.937300
  C     37.894000    9.834610   76.236600
  C     39.237200    9.437420   76.185800
  H     36.488700   10.690800   74.596300
  C     36.956700    9.613110   77.389800
  H     37.248600    8.685080   77.891100
  H     36.106500    9.357050   76.790100
  C     36.646300   10.881000   78.152900
  H     37.604400   11.528300   78.296900
  H     36.318400   10.636000   79.110100
  C     35.764100   11.934400   77.422400
  H     36.199400   12.225600   76.440800
  H     35.687900   12.872500   77.997200
  H     34.744400   11.583800   77.216900
  H     42.487600    7.828580   79.707400
  H     38.262100   10.450300   72.907600

 Total Charge           Charge          ....    0
 Multiplicity           Mult            ....    1
 Number of Electrons    NEL             ....  134
 Basis Dimension        Dim             ....  322

ORBITAL ENERGIES
----------------

  NO   OCC          E(Eh)            E(eV)
   0   2.0000     -88.959329     -2420.7064
   1   2.0000     -88.958366     -2420.6802
   2   2.0000     -10.331323      -281.1296
   3   2.0000     -10.324991      -280.9573
   4   2.0000     -10.316215      -280.7185
   5   2.0000     -10.312061      -280.6054
   6   2.0000     -10.309306      -280.5305
   7   2.0000     -10.295919      -280.1662
   8   2.0000     -10.295124      -280.1446
   9   2.0000     -10.293011      -280.0871
  10   2.0000     -10.291843      -280.0553
  11   2.0000     -10.290367      -280.0151
  12   2.0000     -10.288839      -279.9735
  13   2.0000     -10.287433      -279.9353
  14   2.0000     -10.285467      -279.8818
  15   2.0000     -10.273553      -279.5576
  16   2.0000      -8.075036      -219.7329
  17   2.0000      -8.074208      -219.7104
  18   2.0000      -6.033405      -164.1773
  19   2.0000      -6.032695      -164.1580
  20   2.0000      -6.029210      -164.0632
  21   2.0000      -6.028515      -164.0442
  22   2.0000      -6.025854      -163.9718
  23   2.0000      -6.025128      -163.9521
  24   2.0000      -1.012577       -27.5536
  25   2.0000      -0.991134       -26.9701
  26   2.0000      -0.918538       -24.9947
  27   2.0000      -0.913877       -24.8679
  28   2.0000      -0.874093       -23.7853
  29   2.0000      -0.844045       -22.9676
  30   2.0000      -0.842801       -22.9338
  31   2.0000      -0.820436       -22.3252
  32   2.0000      -0.785017       -21.3614
  33   2.0000      -0.776318       -21.1247
  34   2.0000      -0.713568       -19.4172
  35   2.0000      -0.701044       -19.0764
  36   2.0000      -0.691953       -18.8290
  37   2.0000      -0.665188       -18.1007
  38   2.0000      -0.641753       -17.4630
  39   2.0000      -0.620317       -16.8797
  40   2.0000      -0.593975       -16.1629
  41   2.0000      -0.575467       -15.6592
  42   2.0000      -0.553974       -15.0744
  43   2.0000      -0.551150       -14.9976
  44   2.0000      -0.544514       -14.8170
  45   2.0000      -0.542601       -14.7649
  46   2.0000      -0.524698       -14.2778
  47   2.0000      -0.512935       -13.9577
  48   2.0000      -0.510204       -13.8834
  49   2.0000      -0.498707       -13.5705
  50   2.0000      -0.487758       -13.2726
  51   2.0000      -0.481416       -13.1000
  52   2.0000      -0.479045       -13.0355
  53   2.0000      -0.467112       -12.7108
  54   2.0000      -0.461012       -12.5448
  55   2.0000      -0.450009       -12.2454
  56   2.0000      -0.438436       -11.9304
  57   2.0000      -0.435159       -11.8413
  58   2.0000      -0.431185       -11.7331
  59   2.0000      -0.424692       -11.5565
  60   2.0000      -0.412474       -11.2240
  61   2.0000      -0.407338       -11.0842
  62   2.0000      -0.402291       -10.9469
  63   2.0000      -0.344056        -9.3622
  64   2.0000      -0.326610        -8.8875
  65   2.0000      -0.318812        -8.6753
  66   2.0000      -0.307210        -8.3596
  67   0.0000       0.034430         0.9369
  68   0.0000       0.064362         1.7514
  69   0.0000       0.113014         3.0753
  70   0.0000       0.125067         3.4033
  71   0.0000       0.135219         3.6795

MULLIKEN ATOMIC CHARGES
-----------------------
   0 S :    0.087243
   1 C :   -0.108190
   2 C :   -0.093310
   3 C :    0.026493
   4 C :   -0.160944
   5 H :    0.006145
   6 C :    0.043181
   7 H :    0.026738
   8 H :    0.024288
   9 C :   -0.062200
  10 H :    0.027845
  11 H :    0.038415
  12 C :   -0.038556
  13 H :    0.042058
  14 H :    0.034685
  15 H :    0.026901
  16 S :    0.100214
  17 C :   -0.093982
  18 C :   -0.025908
  19 C :   -0.094957
  20 C :   -0.114099
  21 H :    0.009656
  22 C :    0.104452
  23 H :    0.042995
  24 H :    0.017112
  25 C :   -0.052764
  26 H :    0.036075
  27 H :    0.020943
  28 C :   -0.079209
  29 H :    0.038066
  30 H :    0.041569
  31 H :    0.030454
  32 H :    0.041651
  33 H :    0.056939
Sum of atomic charges:   -0.0000000

LOEWDIN ATOMIC CHARGES
----------------------
   0 S :    0.394291
   1 C :   -0.175895
   2 C :   -0.074433
   3 C :   -0.064886
   4 C :   -0.205453
   5 H :    0.025678
   6 C :   -0.038119
   7 H :    0.034926
   8 H :    0.030574
   9 C :   -0.040433
  10 H :    0.026077
  11 H :    0.029468
  12 C :   -0.073145
  13 H :    0.030282
  14 H :    0.026402
  15 H :    0.032543
  16 S :    0.435189
  17 C :   -0.177615
  18 C :   -0.074359
  19 C :   -0.047061
  20 C :   -0.227878
  21 H :    0.025627
  22 C :   -0.036168
  23 H :    0.040180
  24 H :    0.033045
  25 C :   -0.036926
  26 H :    0.033589
  27 H :    0.015165
  28 C :   -0.069673
  29 H :    0.028329
  30 H :    0.030565
  31 H :    0.019869
  32 H :    0.022313
  33 H :    0.027934

  Mayer bond orders larger than 0.100000
B(  0-S ,  1-C ) :   1.1464 B(  0-S ,  4-C ) :   1.1461 B(  1-C ,  2-C ) :   1.5818
B(  1-C , 32-H ) :   0.9726 B(  2-C ,  3-C ) :   1.2385 B(  2-C ,  6-C ) :   1.0419
B(  3-C ,  4-C ) :   1.5821 B(  3-C ,  5-H ) :   0.9916 B(  4-C , 20-C ) :   0.9978
B(  6-C ,  7-H ) :   0.9392 B(  6-C ,  8-H ) :   0.9296 B(  6-C ,  9-C ) :   1.0747
B(  9-C , 10-H ) :   0.9621 B(  9-C , 11-H ) :   0.9566 B(  9-C , 12-C ) :   1.0564
B( 12-C , 13-H ) :   0.9762 B( 12-C , 14-H ) :   0.9734 B( 12-C , 15-H ) :   0.9751
B( 16-S , 17-C ) :   1.1699 B( 16-S , 20-C ) :   1.1741 B( 17-C , 18-C ) :   1.6004
B( 17-C , 33-H ) :   0.9733 B( 18-C , 19-C ) :   1.2286 B( 18-C , 21-H ) :   0.9966
B( 19-C , 20-C ) :   1.5822 B( 19-C , 22-C ) :   1.0166 B( 22-C , 23-H ) :   0.9439
B( 22-C , 24-H ) :   0.9388 B( 22-C , 25-C ) :   1.0447 B( 25-C , 26-H ) :   0.9560
B( 25-C , 27-H ) :   0.9578 B( 25-C , 28-C ) :   1.0713 B( 28-C , 29-H ) :   0.9697
B( 28-C , 30-H ) :   0.9741 B( 28-C , 31-H ) :   0.9752

Dispersion correction           -0.014966446
FINAL SINGLE POINT ENERGY     -1339.856844196033

DIPOLE MOMENT
-------------
                                X             Y             Z
Electronic contribution:      5.38320     -15.15483     -17.06710
Nuclear contribution   :     -5.81718      15.64304      17.45362
                        -----------------------------------------
Total Dipole Moment    :     -0.43398       0.48820       0.38652
                        -----------------------------------------
Magnitude (a.u.)       :      0.75900
Magnitude (Debye)      :      1.92922

Rotational constants in cm-1:     0.019848     0.008617     0.007169
Rotational constants in MHz :   595.018341   258.317388   214.913725

                             ****ORCA TERMINATED NORMALLY****
TOTAL RUN TIME: 0 days 0 hours 0 minutes 30 seconds 858 msec
