                         Program Version 4.2.1 -  RELEASE  -
|  1> ! wB97X-D3 SP def2-SVP
|  2> %pal
|  3> nprocs 16
|  4> end
|  5>
|  6> * xyz 0 1
|  7> S 	 -9.36262 	 45.6463 	 41.2626
|  8> C 	 -10.4131 	 46.0943 	 42.5616
|  9> C 	 -9.78895 	 46.8809 	 43.4917
| 10> C 	 -8.47146 	 47.2139 	 43.0789
| 11> C 	 -8.11606 	 46.7161 	 41.8598
| 12> H 	 -7.8875 	 47.8792 	 43.6436
| 13> C 	 -10.2904 	 47.2705 	 44.8555
| 14> H 	 -9.59941 	 46.827 	 45.5951
| 15> H 	 -11.2101 	 46.7308 	 45.1632
| 16> C 	 -10.4918 	 48.706 	 45.2293
| 17> H 	 -10.6826 	 48.7283 	 46.2759
| 18> H 	 -9.6319 	 49.2933 	 44.9936
| 19> C 	 -11.57 	 49.3594 	 44.3735
| 20> H 	 -11.8419 	 50.385 	 44.648
| 21> H 	 -11.1888 	 49.322 	 43.3401
| 22> H 	 -12.5649 	 48.895 	 44.4234
| 23> S 	 -6.21067 	 45.3193 	 40.4401
| 24> C 	 -4.63382 	 46.0405 	 40.1826
| 25> C 	 -4.50011 	 47.2346 	 40.8996
| 26> C 	 -5.6754 	 47.6422 	 41.5395
| 27> C 	 -6.77061 	 46.7833 	 41.3466
| 28> H 	 -3.57063 	 47.8429 	 40.8799
| 29> C 	 -5.75687 	 48.9973 	 42.3382
| 30> H 	 -6.78374 	 49.2274 	 42.3132
| 31> H 	 -5.23803 	 49.7755 	 41.6906
| 32> C 	 -5.14681 	 49.0215 	 43.7715
| 33> H 	 -4.09906 	 48.8445 	 43.6487
| 34> H 	 -5.62249 	 48.1717 	 44.3345
| 35> C 	 -5.33231 	 50.4208 	 44.3988
| 36> H 	 -4.98844 	 50.4043 	 45.3993
| 37> H 	 -6.39174 	 50.5989 	 44.4221
| 38> H 	 -4.97632 	 51.2379 	 43.7578
| 39> H 	 -11.4736 	 45.8304 	 42.608
| 40> H 	 -3.82627 	 45.4958 	 39.6359
| 41> *
| 42>
| 43>                          ****END OF INPUT****

CARTESIAN COORDINATES (ANGSTROEM)
---------------------------------
  S     -9.362620   45.646300   41.262600
  C    -10.413100   46.094300   42.561600
  C     -9.788950   46.880900   43.491700
  C     -8.471460   47.213900   43.078900
  C     -8.116060   46.716100   41.859800
  H     -7.887500   47.879200   43.643600
  C    -10.290400   47.270500   44.855500
  H     -9.599410   46.827000   45.595100
  H    -11.210100   46.730800   45.163200
  C    -10.491800   48.706000   45.229300
  H    -10.682600   48.728300   46.275900
  H     -9.631900   49.293300   44.993600
  C    -11.570000   49.359400   44.373500
  H    -11.841900   50.385000   44.648000
  H    -11.188800   49.322000   43.340100
  H    -12.564900   48.895000   44.423400
  S     -6.210670   45.319300   40.440100
  C     -4.633820   46.040500   40.182600
  C     -4.500110   47.234600   40.899600
  C     -5.675400   47.642200   41.539500
  C     -6.770610   46.783300   41.346600
  H     -3.570630   47.842900   40.879900
  C     -5.756870   48.997300   42.338200
  H     -6.783740   49.227400   42.313200
  H     -5.238030   49.775500   41.690600
  C     -5.146810   49.021500   43.771500
  H     -4.099060   48.844500   43.648700
  H     -5.622490   48.171700   44.334500
  C     -5.332310   50.420800   44.398800
  H     -4.988440   50.404300   45.399300
  H     -6.391740   50.598900   44.422100
  H     -4.976320   51.237900   43.757800
  H    -11.473600   45.830400   42.608000
  H     -3.826270   45.495800   39.635900

 Total Charge           Charge          ....    0
 Multiplicity           Mult            ....    1
 Number of Electrons    NEL             ....  134
 Basis Dimension        Dim             ....  322

ORBITAL ENERGIES
----------------

  NO   OCC          E(Eh)            E(eV)
   0   2.0000     -88.969694     -2420.9885
   1   2.0000     -88.965221     -2420.8667
   2   2.0000     -10.332762      -281.1687
   3   2.0000     -10.329441      -281.0784
   4   2.0000     -10.322635      -280.8932
   5   2.0000     -10.313929      -280.6563
   6   2.0000     -10.305604      -280.4297
   7   2.0000     -10.299374      -280.2602
   8   2.0000     -10.296823      -280.1908
   9   2.0000     -10.296798      -280.1901
  10   2.0000     -10.293546      -280.1016
  11   2.0000     -10.292894      -280.0839
  12   2.0000     -10.287880      -279.9474
  13   2.0000     -10.281685      -279.7789
  14   2.0000     -10.278986      -279.7054
  15   2.0000     -10.276341      -279.6334
  16   2.0000      -8.084765      -219.9976
  17   2.0000      -8.079140      -219.8446
  18   2.0000      -6.043363      -164.4483
  19   2.0000      -6.039323      -164.3383
  20   2.0000      -6.037618      -164.2919
  21   2.0000      -6.035315      -164.2293
  22   2.0000      -6.033821      -164.1886
  23   2.0000      -6.029936      -164.0829
  24   2.0000      -1.011133       -27.5143
  25   2.0000      -0.982133       -26.7252
  26   2.0000      -0.920449       -25.0467
  27   2.0000      -0.905002       -24.6263
  28   2.0000      -0.872722       -23.7480
  29   2.0000      -0.856597       -23.3092
  30   2.0000      -0.846934       -23.0462
  31   2.0000      -0.810005       -22.0413
  32   2.0000      -0.784303       -21.3420
  33   2.0000      -0.773977       -21.0610
  34   2.0000      -0.709561       -19.3081
  35   2.0000      -0.699811       -19.0428
  36   2.0000      -0.697084       -18.9686
  37   2.0000      -0.662723       -18.0336
  38   2.0000      -0.638607       -17.3774
  39   2.0000      -0.631891       -17.1946
  40   2.0000      -0.592297       -16.1172
  41   2.0000      -0.573839       -15.6150
  42   2.0000      -0.567526       -15.4432
  43   2.0000      -0.549790       -14.9605
  44   2.0000      -0.543663       -14.7938
  45   2.0000      -0.532763       -14.4972
  46   2.0000      -0.516663       -14.0591
  47   2.0000      -0.511409       -13.9161
  48   2.0000      -0.500452       -13.6180
  49   2.0000      -0.499686       -13.5971
  50   2.0000      -0.494563       -13.4577
  51   2.0000      -0.479347       -13.0437
  52   2.0000      -0.471674       -12.8349
  53   2.0000      -0.463878       -12.6228
  54   2.0000      -0.460491       -12.5306
  55   2.0000      -0.451046       -12.2736
  56   2.0000      -0.443839       -12.0775
  57   2.0000      -0.438869       -11.9422
  58   2.0000      -0.435424       -11.8485
  59   2.0000      -0.426893       -11.6163
  60   2.0000      -0.425273       -11.5723
  61   2.0000      -0.418655       -11.3922
  62   2.0000      -0.410747       -11.1770
  63   2.0000      -0.361944        -9.8490
  64   2.0000      -0.335976        -9.1424
  65   2.0000      -0.331059        -9.0086
  66   2.0000      -0.280456        -7.6316
  67   0.0000       0.018663         0.5078
  68   0.0000       0.076656         2.0859
  69   0.0000       0.099544         2.7087
  70   0.0000       0.118025         3.2116
  71   0.0000       0.125104         3.4042

MULLIKEN ATOMIC CHARGES
-----------------------
   0 S :    0.111770
   1 C :   -0.131256
   2 C :   -0.058668
   3 C :    0.005290
   4 C :   -0.087074
   5 H :   -0.026522
   6 C :    0.031628
   7 H :    0.036673
   8 H :    0.014692
   9 C :   -0.020691
  10 H :    0.024405
  11 H :    0.019522
  12 C :   -0.077587
  13 H :    0.031312
  14 H :    0.046926
  15 H :    0.020978
  16 S :    0.079482
  17 C :   -0.111920
  18 C :   -0.035410
  19 C :   -0.044187
  20 C :   -0.130319
  21 H :    0.031809
  22 C :    0.007778
  23 H :    0.013791
  24 H :    0.033879
  25 C :   -0.071625
  26 H :    0.025679
  27 H :    0.046666
  28 C :   -0.003041
  29 H :    0.037781
  30 H :    0.011029
  31 H :    0.034778
  32 H :    0.054186
  33 H :    0.078246
Sum of atomic charges:    0.0000000

LOEWDIN ATOMIC CHARGES
----------------------
   0 S :    0.412729
   1 C :   -0.198717
   2 C :   -0.066215
   3 C :   -0.054595
   4 C :   -0.192436
   5 H :    0.019431
   6 C :   -0.038379
   7 H :    0.038843
   8 H :    0.031910
   9 C :   -0.037887
  10 H :    0.022654
  11 H :    0.020275
  12 C :   -0.070481
  13 H :    0.024917
  14 H :    0.031438
  15 H :    0.021307
  16 S :    0.376870
  17 C :   -0.190160
  18 C :   -0.078897
  19 C :   -0.061640
  20 C :   -0.170114
  21 H :    0.038851
  22 C :   -0.030581
  23 H :    0.015885
  24 H :    0.035064
  25 C :   -0.038198
  26 H :    0.019904
  27 H :    0.030060
  28 C :   -0.059899
  29 H :    0.023855
  30 H :    0.021384
  31 H :    0.031146
  32 H :    0.033415
  33 H :    0.038262

  Mayer bond orders larger than 0.100000
B(  0-S ,  1-C ) :   1.1361 B(  0-S ,  4-C ) :   1.1407 B(  1-C ,  2-C ) :   1.6057
B(  1-C , 32-H ) :   0.9622 B(  2-C ,  3-C ) :   1.2582 B(  2-C ,  6-C ) :   1.0229
B(  3-C ,  4-C ) :   1.5353 B(  3-C ,  5-H ) :   1.0011 B(  4-C , 20-C ) :   1.0901
B(  6-C ,  7-H ) :   0.9360 B(  6-C ,  8-H ) :   0.9399 B(  6-C ,  9-C ) :   1.0855
B(  9-C , 10-H ) :   0.9499 B(  9-C , 11-H ) :   0.9551 B(  9-C , 12-C ) :   1.0683
B( 12-C , 13-H ) :   0.9748 B( 12-C , 14-H ) :   0.9748 B( 12-C , 15-H ) :   0.9756
B( 16-S , 17-C ) :   1.1600 B( 16-S , 20-C ) :   1.1277 B( 17-C , 18-C ) :   1.5736
B( 17-C , 20-C ) :   0.1105 B( 17-C , 33-H ) :   0.9630 B( 18-C , 19-C ) :   1.2822
B( 18-C , 21-H ) :   0.9841 B( 19-C , 20-C ) :   1.5762 B( 19-C , 22-C ) :   1.0205
B( 22-C , 23-H ) :   0.9410 B( 22-C , 24-H ) :   0.9401 B( 22-C , 25-C ) :   1.0564
B( 25-C , 26-H ) :   0.9533 B( 25-C , 27-H ) :   0.9526 B( 25-C , 28-C ) :   1.0786
B( 28-C , 29-H ) :   0.9730 B( 28-C , 30-H ) :   0.9735 B( 28-C , 31-H ) :   0.9710

Dispersion correction           -0.014476421
FINAL SINGLE POINT ENERGY     -1339.882257637944

DIPOLE MOMENT
-------------
                                X             Y             Z
Electronic contribution:      2.98731     -23.45447     -21.55003
Nuclear contribution   :     -2.89317      23.91498      22.17450
                        -----------------------------------------
Total Dipole Moment    :      0.09413       0.46051       0.62448
                        -----------------------------------------
Magnitude (a.u.)       :      0.78160
Magnitude (Debye)      :      1.98667

Rotational constants in cm-1:     0.016962     0.010177     0.006689
Rotational constants in MHz :   508.494185   305.110782   200.518609

                             ****ORCA TERMINATED NORMALLY****
TOTAL RUN TIME: 0 days 0 hours 0 minutes 32 seconds 792 msec
