                         Program Version 4.2.1 -  RELEASE  -
|  1> ! wB97X-D3 SP def2-SVP
|  2> %pal
|  3> nprocs 16
|  4> end
|  5>
|  6> * xyz 0 1
|  7> S 	 -91.4881 	 49.0982 	 128.75
|  8> C 	 -91.4565 	 48.7889 	 126.986
|  9> C 	 -90.3958 	 48.0155 	 126.589
| 10> C 	 -89.4761 	 47.9465 	 127.67
| 11> C 	 -89.8551 	 48.514 	 128.845
| 12> H 	 -88.5803 	 47.5133 	 127.552
| 13> C 	 -90.0132 	 47.5089 	 125.196
| 14> H 	 -89.3373 	 48.1767 	 124.699
| 15> H 	 -90.8271 	 47.759 	 124.431
| 16> C 	 -89.6061 	 45.9892 	 125.189
| 17> H 	 -89.3089 	 45.7043 	 124.247
| 18> H 	 -88.8743 	 45.7357 	 125.967
| 19> C 	 -90.7647 	 45.1061 	 125.661
| 20> H 	 -91.6667 	 45.3081 	 125.105
| 21> H 	 -90.6967 	 44.0096 	 125.621
| 22> H 	 -90.9947 	 45.3284 	 126.682
| 23> S 	 -89.9165 	 47.7211 	 131.5
| 24> C 	 -88.3799 	 47.7078 	 132.296
| 25> C 	 -87.3191 	 48.1467 	 131.606
| 26> C 	 -87.6784 	 48.5288 	 130.267
| 27> C 	 -89.0797 	 48.2437 	 130.089
| 28> H 	 -86.3331 	 48.1911 	 132.054
| 29> C 	 -86.7655 	 49.1865 	 129.269
| 30> H 	 -87.3509 	 49.9796 	 128.81
| 31> H 	 -86.5825 	 48.4753 	 128.493
| 32> C 	 -85.4028 	 49.8494 	 129.84
| 33> H 	 -84.8722 	 49.0885 	 130.352
| 34> H 	 -85.8043 	 50.5706 	 130.582
| 35> C 	 -84.4788 	 50.6767 	 128.911
| 36> H 	 -83.7505 	 51.3208 	 129.51
| 37> H 	 -85.1153 	 51.3655 	 128.313
| 38> H 	 -83.9346 	 50.0116 	 128.18
| 39> H 	 -92.1745 	 49.1128 	 126.224
| 40> H 	 -88.2597 	 47.7246 	 133.362
| 41> *
| 42>
| 43>                          ****END OF INPUT****

CARTESIAN COORDINATES (ANGSTROEM)
---------------------------------
  S    -91.488100   49.098200  128.750000
  C    -91.456500   48.788900  126.986000
  C    -90.395800   48.015500  126.589000
  C    -89.476100   47.946500  127.670000
  C    -89.855100   48.514000  128.845000
  H    -88.580300   47.513300  127.552000
  C    -90.013200   47.508900  125.196000
  H    -89.337300   48.176700  124.699000
  H    -90.827100   47.759000  124.431000
  C    -89.606100   45.989200  125.189000
  H    -89.308900   45.704300  124.247000
  H    -88.874300   45.735700  125.967000
  C    -90.764700   45.106100  125.661000
  H    -91.666700   45.308100  125.105000
  H    -90.696700   44.009600  125.621000
  H    -90.994700   45.328400  126.682000
  S    -89.916500   47.721100  131.500000
  C    -88.379900   47.707800  132.296000
  C    -87.319100   48.146700  131.606000
  C    -87.678400   48.528800  130.267000
  C    -89.079700   48.243700  130.089000
  H    -86.333100   48.191100  132.054000
  C    -86.765500   49.186500  129.269000
  H    -87.350900   49.979600  128.810000
  H    -86.582500   48.475300  128.493000
  C    -85.402800   49.849400  129.840000
  H    -84.872200   49.088500  130.352000
  H    -85.804300   50.570600  130.582000
  C    -84.478800   50.676700  128.911000
  H    -83.750500   51.320800  129.510000
  H    -85.115300   51.365500  128.313000
  H    -83.934600   50.011600  128.180000
  H    -92.174500   49.112800  126.224000
  H    -88.259700   47.724600  133.362000

 Total Charge           Charge          ....    0
 Multiplicity           Mult            ....    1
 Number of Electrons    NEL             ....  134
 Basis Dimension        Dim             ....  322

ORBITAL ENERGIES
----------------

  NO   OCC          E(Eh)            E(eV)
   0   2.0000     -88.969798     -2420.9913
   1   2.0000     -88.969492     -2420.9830
   2   2.0000     -10.327218      -281.0179
   3   2.0000     -10.324003      -280.9304
   4   2.0000     -10.317326      -280.7487
   5   2.0000     -10.305613      -280.4300
   6   2.0000     -10.304774      -280.4072
   7   2.0000     -10.302718      -280.3512
   8   2.0000     -10.300428      -280.2889
   9   2.0000     -10.295173      -280.1459
  10   2.0000     -10.294169      -280.1186
  11   2.0000     -10.293648      -280.1044
  12   2.0000     -10.289460      -279.9904
  13   2.0000     -10.288143      -279.9546
  14   2.0000     -10.278733      -279.6985
  15   2.0000     -10.269392      -279.4444
  16   2.0000      -8.084909      -220.0016
  17   2.0000      -8.083928      -219.9749
  18   2.0000      -6.043176      -164.4432
  19   2.0000      -6.042586      -164.4271
  20   2.0000      -6.039668      -164.3477
  21   2.0000      -6.038763      -164.3231
  22   2.0000      -6.035559      -164.2359
  23   2.0000      -6.034331      -164.2025
  24   2.0000      -1.007897       -27.4263
  25   2.0000      -0.986387       -26.8410
  26   2.0000      -0.910330       -24.7713
  27   2.0000      -0.900491       -24.5036
  28   2.0000      -0.867742       -23.6125
  29   2.0000      -0.852266       -23.1913
  30   2.0000      -0.846876       -23.0447
  31   2.0000      -0.816040       -22.2056
  32   2.0000      -0.785396       -21.3717
  33   2.0000      -0.769127       -20.9290
  34   2.0000      -0.708959       -19.2918
  35   2.0000      -0.701760       -19.0959
  36   2.0000      -0.694852       -18.9079
  37   2.0000      -0.648886       -17.6571
  38   2.0000      -0.637220       -17.3396
  39   2.0000      -0.631680       -17.1889
  40   2.0000      -0.594509       -16.1774
  41   2.0000      -0.570092       -15.5130
  42   2.0000      -0.566518       -15.4157
  43   2.0000      -0.548142       -14.9157
  44   2.0000      -0.544529       -14.8174
  45   2.0000      -0.517164       -14.0728
  46   2.0000      -0.511953       -13.9310
  47   2.0000      -0.509391       -13.8612
  48   2.0000      -0.499155       -13.5827
  49   2.0000      -0.490029       -13.3344
  50   2.0000      -0.482939       -13.1414
  51   2.0000      -0.478335       -13.0162
  52   2.0000      -0.467883       -12.7317
  53   2.0000      -0.465899       -12.6778
  54   2.0000      -0.460401       -12.5281
  55   2.0000      -0.453957       -12.3528
  56   2.0000      -0.449233       -12.2242
  57   2.0000      -0.442797       -12.0491
  58   2.0000      -0.437250       -11.8982
  59   2.0000      -0.428705       -11.6656
  60   2.0000      -0.426237       -11.5985
  61   2.0000      -0.414044       -11.2667
  62   2.0000      -0.409619       -11.1463
  63   2.0000      -0.348492        -9.4830
  64   2.0000      -0.333616        -9.0782
  65   2.0000      -0.331812        -9.0291
  66   2.0000      -0.283991        -7.7278
  67   0.0000       0.030643         0.8338
  68   0.0000       0.072651         1.9769
  69   0.0000       0.102584         2.7914
  70   0.0000       0.129432         3.5220
  71   0.0000       0.135695         3.6925

MULLIKEN ATOMIC CHARGES
-----------------------
   0 S :    0.106587
   1 C :   -0.127229
   2 C :   -0.062132
   3 C :    0.041138
   4 C :   -0.112447
   5 H :   -0.047555
   6 C :    0.037563
   7 H :    0.035123
   8 H :    0.017270
   9 C :   -0.021253
  10 H :    0.016388
  11 H :    0.043840
  12 C :   -0.070136
  13 H :    0.015026
  14 H :    0.035820
  15 H :    0.035470
  16 S :    0.124397
  17 C :   -0.063426
  18 C :   -0.056274
  19 C :   -0.079593
  20 C :   -0.162047
  21 H :    0.020599
  22 C :    0.080910
  23 H :    0.035979
  24 H :    0.032802
  25 C :   -0.107581
  26 H :    0.034037
  27 H :    0.039206
  28 C :   -0.063539
  29 H :    0.054519
  30 H :    0.034939
  31 H :    0.043956
  32 H :    0.044310
  33 H :    0.043336
Sum of atomic charges:   -0.0000000

LOEWDIN ATOMIC CHARGES
----------------------
   0 S :    0.387314
   1 C :   -0.181377
   2 C :   -0.061274
   3 C :   -0.045744
   4 C :   -0.198704
   5 H :    0.005844
   6 C :   -0.035822
   7 H :    0.031347
   8 H :    0.037255
   9 C :   -0.026690
  10 H :    0.013292
  11 H :    0.031500
  12 C :   -0.068173
  13 H :    0.018680
  14 H :    0.028164
  15 H :    0.023993
  16 S :    0.424117
  17 C :   -0.200533
  18 C :   -0.069391
  19 C :   -0.054062
  20 C :   -0.202384
  21 H :    0.034437
  22 C :   -0.033740
  23 H :    0.035135
  24 H :    0.025081
  25 C :   -0.041324
  26 H :    0.014059
  27 H :    0.030352
  28 C :   -0.072345
  29 H :    0.038280
  30 H :    0.027602
  31 H :    0.028878
  32 H :    0.030977
  33 H :    0.025259

  Mayer bond orders larger than 0.100000
B(  0-S ,  1-C ) :   1.1269 B(  0-S ,  4-C ) :   1.1253 B(  1-C ,  2-C ) :   1.6356
B(  1-C , 32-H ) :   0.9575 B(  2-C ,  3-C ) :   1.2298 B(  2-C ,  6-C ) :   1.0161
B(  3-C ,  4-C ) :   1.5784 B(  3-C ,  5-H ) :   1.0120 B(  4-C , 20-C ) :   1.0403
B(  6-C ,  7-H ) :   0.9461 B(  6-C ,  8-H ) :   0.9385 B(  6-C ,  9-C ) :   1.0542
B(  9-C , 10-H ) :   0.9583 B(  9-C , 11-H ) :   0.9638 B(  9-C , 12-C ) :   1.0614
B( 12-C , 13-H ) :   0.9753 B( 12-C , 14-H ) :   0.9766 B( 12-C , 15-H ) :   0.9742
B( 16-S , 17-C ) :   1.1403 B( 16-S , 20-C ) :   1.1600 B( 17-C , 18-C ) :   1.6473
B( 17-C , 33-H ) :   0.9516 B( 18-C , 19-C ) :   1.2533 B( 18-C , 21-H ) :   0.9857
B( 19-C , 20-C ) :   1.5748 B( 19-C , 22-C ) :   1.0378 B( 22-C , 23-H ) :   0.9270
B( 22-C , 24-H ) :   0.9232 B( 22-C , 25-C ) :   1.0610 B( 25-C , 26-H ) :   0.9542
B( 25-C , 27-H ) :   0.9597 B( 25-C , 28-C ) :   1.0798 B( 28-C , 29-H ) :   0.9736
B( 28-C , 30-H ) :   0.9742 B( 28-C , 31-H ) :   0.9754

Dispersion correction           -0.014104317
FINAL SINGLE POINT ENERGY     -1339.846123197090

DIPOLE MOMENT
-------------
                                X             Y             Z
Electronic contribution:    -17.88573       2.43121      17.29938
Nuclear contribution   :     18.39735      -2.37454     -17.77895
                        -----------------------------------------
Total Dipole Moment    :      0.51162       0.05667      -0.47957
                        -----------------------------------------
Magnitude (a.u.)       :      0.70353
Magnitude (Debye)      :      1.78824

Rotational constants in cm-1:     0.016425     0.008694     0.006984
Rotational constants in MHz :   492.407954   260.645883   209.383494

                             ****ORCA TERMINATED NORMALLY****
TOTAL RUN TIME: 0 days 0 hours 0 minutes 33 seconds 696 msec
