                         Program Version 4.2.1 -  RELEASE  -
|  1> ! wB97X-D3 SP def2-SVP
|  2> %pal
|  3> nprocs 16
|  4> end
|  5>
|  6> * xyz 0 1
|  7> S 	 -32.281 	 63.2295 	 106.949
|  8> C 	 -31.6946 	 64.3333 	 108.226
|  9> C 	 -31.2723 	 65.5312 	 107.679
| 10> C 	 -31.3626 	 65.4904 	 106.254
| 11> C 	 -31.7075 	 64.2771 	 105.664
| 12> H 	 -31.1718 	 66.4015 	 105.759
| 13> C 	 -30.8646 	 66.7142 	 108.412
| 14> H 	 -30.3555 	 66.3424 	 109.329
| 15> H 	 -31.8327 	 67.0572 	 108.816
| 16> C 	 -30.1041 	 67.8631 	 107.603
| 17> H 	 -30.6668 	 68.1181 	 106.681
| 18> H 	 -30.0739 	 68.8047 	 108.224
| 19> C 	 -28.662 	 67.5533 	 107.272
| 20> H 	 -28.6423 	 66.5634 	 106.837
| 21> H 	 -28.2423 	 68.3191 	 106.579
| 22> H 	 -28.1182 	 67.6665 	 108.186
| 23> S 	 -33.4195 	 64.5021 	 103.683
| 24> C 	 -32.9632 	 64.1847 	 102.038
| 25> C 	 -31.7069 	 63.7594 	 101.885
| 26> C 	 -31.0939 	 63.7429 	 103.19
| 27> C 	 -31.9046 	 63.9947 	 104.291
| 28> H 	 -31.1935 	 63.3578 	 100.967
| 29> C 	 -29.6119 	 63.5115 	 103.311
| 30> H 	 -29.3311 	 64.026 	 104.164
| 31> H 	 -29.1944 	 64.1333 	 102.466
| 32> C 	 -29.0543 	 62.0582 	 103.239
| 33> H 	 -27.964 	 62.1067 	 103.373
| 34> H 	 -29.2826 	 61.7032 	 102.181
| 35> C 	 -29.7247 	 61.1494 	 104.345
| 36> H 	 -30.8173 	 61.3026 	 104.221
| 37> H 	 -29.4437 	 61.5063 	 105.357
| 38> H 	 -29.4401 	 60.0922 	 104.243
| 39> H 	 -31.6439 	 64.1384 	 109.309
| 40> H 	 -33.6321 	 64.2338 	 101.26
| 41> *
| 42>
| 43>                          ****END OF INPUT****

CARTESIAN COORDINATES (ANGSTROEM)
---------------------------------
  S    -32.281000   63.229500  106.949000
  C    -31.694600   64.333300  108.226000
  C    -31.272300   65.531200  107.679000
  C    -31.362600   65.490400  106.254000
  C    -31.707500   64.277100  105.664000
  H    -31.171800   66.401500  105.759000
  C    -30.864600   66.714200  108.412000
  H    -30.355500   66.342400  109.329000
  H    -31.832700   67.057200  108.816000
  C    -30.104100   67.863100  107.603000
  H    -30.666800   68.118100  106.681000
  H    -30.073900   68.804700  108.224000
  C    -28.662000   67.553300  107.272000
  H    -28.642300   66.563400  106.837000
  H    -28.242300   68.319100  106.579000
  H    -28.118200   67.666500  108.186000
  S    -33.419500   64.502100  103.683000
  C    -32.963200   64.184700  102.038000
  C    -31.706900   63.759400  101.885000
  C    -31.093900   63.742900  103.190000
  C    -31.904600   63.994700  104.291000
  H    -31.193500   63.357800  100.967000
  C    -29.611900   63.511500  103.311000
  H    -29.331100   64.026000  104.164000
  H    -29.194400   64.133300  102.466000
  C    -29.054300   62.058200  103.239000
  H    -27.964000   62.106700  103.373000
  H    -29.282600   61.703200  102.181000
  C    -29.724700   61.149400  104.345000
  H    -30.817300   61.302600  104.221000
  H    -29.443700   61.506300  105.357000
  H    -29.440100   60.092200  104.243000
  H    -31.643900   64.138400  109.309000
  H    -33.632100   64.233800  101.260000

 Total Charge           Charge          ....    0
 Multiplicity           Mult            ....    1
 Number of Electrons    NEL             ....  134
 Basis Dimension        Dim             ....  322

ORBITAL ENERGIES
----------------

  NO   OCC          E(Eh)            E(eV)
   0   2.0000     -88.965951     -2420.8866
   1   2.0000     -88.959077     -2420.6996
   2   2.0000     -10.329734      -281.0863
   3   2.0000     -10.318233      -280.7734
   4   2.0000     -10.315794      -280.7070
   5   2.0000     -10.308760      -280.5156
   6   2.0000     -10.301181      -280.3094
   7   2.0000     -10.300437      -280.2891
   8   2.0000     -10.299069      -280.2519
   9   2.0000     -10.296652      -280.1861
  10   2.0000     -10.295085      -280.1435
  11   2.0000     -10.293636      -280.1041
  12   2.0000     -10.290216      -280.0110
  13   2.0000     -10.280752      -279.7535
  14   2.0000     -10.277954      -279.6774
  15   2.0000     -10.277343      -279.6607
  16   2.0000      -8.079753      -219.8612
  17   2.0000      -8.075401      -219.7428
  18   2.0000      -6.038447      -164.3145
  19   2.0000      -6.034315      -164.2021
  20   2.0000      -6.033950      -164.1921
  21   2.0000      -6.030433      -164.0964
  22   2.0000      -6.029589      -164.0735
  23   2.0000      -6.026099      -163.9785
  24   2.0000      -1.014207       -27.5980
  25   2.0000      -0.986815       -26.8526
  26   2.0000      -0.916771       -24.9466
  27   2.0000      -0.900123       -24.4936
  28   2.0000      -0.879845       -23.9418
  29   2.0000      -0.850607       -23.1462
  30   2.0000      -0.837502       -22.7896
  31   2.0000      -0.817281       -22.2393
  32   2.0000      -0.782739       -21.2994
  33   2.0000      -0.766456       -20.8563
  34   2.0000      -0.716909       -19.5081
  35   2.0000      -0.694365       -18.8946
  36   2.0000      -0.691895       -18.8274
  37   2.0000      -0.662354       -18.0236
  38   2.0000      -0.631953       -17.1963
  39   2.0000      -0.629284       -17.1237
  40   2.0000      -0.595199       -16.1962
  41   2.0000      -0.570446       -15.5226
  42   2.0000      -0.556762       -15.1503
  43   2.0000      -0.545913       -14.8551
  44   2.0000      -0.542146       -14.7525
  45   2.0000      -0.537638       -14.6299
  46   2.0000      -0.517212       -14.0741
  47   2.0000      -0.511963       -13.9312
  48   2.0000      -0.506188       -13.7741
  49   2.0000      -0.497608       -13.5406
  50   2.0000      -0.493234       -13.4216
  51   2.0000      -0.480341       -13.0708
  52   2.0000      -0.469635       -12.7794
  53   2.0000      -0.458748       -12.4832
  54   2.0000      -0.457327       -12.4445
  55   2.0000      -0.445673       -12.1274
  56   2.0000      -0.443014       -12.0550
  57   2.0000      -0.437036       -11.8924
  58   2.0000      -0.430480       -11.7140
  59   2.0000      -0.422490       -11.4965
  60   2.0000      -0.417680       -11.3656
  61   2.0000      -0.417298       -11.3553
  62   2.0000      -0.407328       -11.0840
  63   2.0000      -0.341185        -9.2841
  64   2.0000      -0.324010        -8.8168
  65   2.0000      -0.314006        -8.5445
  66   2.0000      -0.309779        -8.4295
  67   0.0000       0.040703         1.1076
  68   0.0000       0.053787         1.4636
  69   0.0000       0.115458         3.1418
  70   0.0000       0.118915         3.2359
  71   0.0000       0.128346         3.4925

MULLIKEN ATOMIC CHARGES
-----------------------
   0 S :    0.111461
   1 C :   -0.136873
   2 C :   -0.114393
   3 C :    0.067587
   4 C :   -0.160695
   5 H :   -0.016796
   6 C :    0.058832
   7 H :    0.029551
   8 H :    0.050106
   9 C :   -0.123187
  10 H :    0.043835
  11 H :    0.037112
  12 C :   -0.024627
  13 H :    0.042042
  14 H :    0.041013
  15 H :    0.028421
  16 S :    0.104923
  17 C :   -0.039207
  18 C :   -0.027687
  19 C :   -0.107909
  20 C :   -0.135176
  21 H :    0.047879
  22 C :    0.063297
  23 H :    0.003065
  24 H :    0.027574
  25 C :   -0.066409
  26 H :    0.039906
  27 H :    0.030399
  28 C :   -0.076349
  29 H :    0.049794
  30 H :    0.038471
  31 H :    0.044050
  32 H :    0.049876
  33 H :    0.020114
Sum of atomic charges:    0.0000000

LOEWDIN ATOMIC CHARGES
----------------------
   0 S :    0.398675
   1 C :   -0.196771
   2 C :   -0.069633
   3 C :   -0.055319
   4 C :   -0.204715
   5 H :    0.019599
   6 C :   -0.041771
   7 H :    0.038057
   8 H :    0.045912
   9 C :   -0.044766
  10 H :    0.024555
  11 H :    0.031228
  12 C :   -0.063759
  13 H :    0.024995
  14 H :    0.033058
  15 H :    0.023698
  16 S :    0.428556
  17 C :   -0.163368
  18 C :   -0.077748
  19 C :   -0.048740
  20 C :   -0.228954
  21 H :    0.047918
  22 C :   -0.037812
  23 H :    0.015738
  24 H :    0.036541
  25 C :   -0.038629
  26 H :    0.024592
  27 H :    0.024715
  28 C :   -0.071954
  29 H :    0.028874
  30 H :    0.027729
  31 H :    0.026141
  32 H :    0.032855
  33 H :    0.010503

  Mayer bond orders larger than 0.100000
B(  0-S ,  1-C ) :   1.1354 B(  0-S ,  4-C ) :   1.1476 B(  1-C ,  2-C ) :   1.5959
B(  1-C ,  4-C ) :   0.1091 B(  1-C , 32-H ) :   0.9668 B(  2-C ,  3-C ) :   1.2731
B(  2-C ,  6-C ) :   1.0116 B(  3-C ,  4-C ) :   1.5433 B(  3-C ,  5-H ) :   0.9953
B(  4-C , 20-C ) :   1.0250 B(  6-C ,  7-H ) :   0.9375 B(  6-C ,  8-H ) :   0.9256
B(  6-C ,  9-C ) :   1.0646 B(  9-C , 10-H ) :   0.9530 B(  9-C , 11-H ) :   0.9557
B(  9-C , 12-C ) :   1.0740 B( 12-C , 13-H ) :   0.9763 B( 12-C , 14-H ) :   0.9722
B( 12-C , 15-H ) :   0.9746 B( 16-S , 17-C ) :   1.1708 B( 16-S , 20-C ) :   1.1335
B( 17-C , 18-C ) :   1.6103 B( 17-C , 33-H ) :   0.9712 B( 18-C , 19-C ) :   1.2363
B( 18-C , 21-H ) :   0.9832 B( 19-C , 20-C ) :   1.6080 B( 19-C , 22-C ) :   1.0436
B( 22-C , 23-H ) :   0.9328 B( 22-C , 24-H ) :   0.9372 B( 22-C , 25-C ) :   1.0578
B( 25-C , 26-H ) :   0.9572 B( 25-C , 27-H ) :   0.9581 B( 25-C , 28-C ) :   1.0609
B( 28-C , 29-H ) :   0.9749 B( 28-C , 30-H ) :   0.9754 B( 28-C , 31-H ) :   0.9765

Dispersion correction           -0.015215582
FINAL SINGLE POINT ENERGY     -1339.862000063639

DIPOLE MOMENT
-------------
                                X             Y             Z
Electronic contribution:    -20.58652      -5.57827      -2.78559
Nuclear contribution   :     21.00273       6.07230       2.78997
                        -----------------------------------------
Total Dipole Moment    :      0.41621       0.49403       0.00438
                        -----------------------------------------
Magnitude (a.u.)       :      0.64600
Magnitude (Debye)      :      1.64201

Rotational constants in cm-1:     0.018416     0.008793     0.008457
Rotational constants in MHz :   552.109675   263.619545   253.547957

                             ****ORCA TERMINATED NORMALLY****
TOTAL RUN TIME: 0 days 0 hours 0 minutes 31 seconds 634 msec
