                         Program Version 4.2.1 -  RELEASE  -
|  1> ! wB97X-D3 SP def2-SVP
|  2> %pal
|  3> nprocs 16
|  4> end
|  5>
|  6> * xyz 0 1
|  7> S 	 -51.1685 	 36.8954 	 107.415
|  8> C 	 -50.8535 	 38.5726 	 106.87
|  9> C 	 -51.8977 	 39.4176 	 106.922
| 10> C 	 -53.0441 	 38.7417 	 107.475
| 11> C 	 -52.8357 	 37.4115 	 107.753
| 12> H 	 -53.9905 	 39.3093 	 107.534
| 13> C 	 -51.8527 	 40.945 	 106.652
| 14> H 	 -52.8687 	 41.3058 	 106.833
| 15> H 	 -51.6216 	 41.0067 	 105.571
| 16> C 	 -50.8582 	 41.7915 	 107.483
| 17> H 	 -51.0084 	 41.5796 	 108.532
| 18> H 	 -49.7862 	 41.4584 	 107.258
| 19> C 	 -50.9359 	 43.2385 	 107.309
| 20> H 	 -51.8414 	 43.5693 	 107.826
| 21> H 	 -50.1023 	 43.8505 	 107.702
| 22> H 	 -51.0229 	 43.4729 	 106.254
| 23> S 	 -53.9363 	 35.0025 	 107.222
| 24> C 	 -55.5627 	 34.7821 	 107.75
| 25> C 	 -55.8965 	 35.5786 	 108.853
| 26> C 	 -54.9665 	 36.6207 	 109.083
| 27> C 	 -53.8675 	 36.4846 	 108.194
| 28> H 	 -56.7906 	 35.3666 	 109.405
| 29> C 	 -55.2713 	 37.7251 	 110.122
| 30> H 	 -54.5456 	 38.5614 	 109.938
| 31> H 	 -55.0992 	 37.2436 	 111.083
| 32> C 	 -56.6217 	 38.2793 	 110.067
| 33> H 	 -56.7956 	 38.904 	 110.898
| 34> H 	 -57.3099 	 37.4588 	 110.217
| 35> C 	 -56.8441 	 38.9717 	 108.725
| 36> H 	 -56.6084 	 38.3269 	 107.828
| 37> H 	 -56.3621 	 39.9463 	 108.696
| 38> H 	 -57.8356 	 39.1788 	 108.567
| 39> H 	 -49.8109 	 38.9385 	 106.521
| 40> H 	 -56.286 	 34.0699 	 107.302
| 41> *
| 42>
| 43>                          ****END OF INPUT****

CARTESIAN COORDINATES (ANGSTROEM)
---------------------------------
  S    -51.168500   36.895400  107.415000
  C    -50.853500   38.572600  106.870000
  C    -51.897700   39.417600  106.922000
  C    -53.044100   38.741700  107.475000
  C    -52.835700   37.411500  107.753000
  H    -53.990500   39.309300  107.534000
  C    -51.852700   40.945000  106.652000
  H    -52.868700   41.305800  106.833000
  H    -51.621600   41.006700  105.571000
  C    -50.858200   41.791500  107.483000
  H    -51.008400   41.579600  108.532000
  H    -49.786200   41.458400  107.258000
  C    -50.935900   43.238500  107.309000
  H    -51.841400   43.569300  107.826000
  H    -50.102300   43.850500  107.702000
  H    -51.022900   43.472900  106.254000
  S    -53.936300   35.002500  107.222000
  C    -55.562700   34.782100  107.750000
  C    -55.896500   35.578600  108.853000
  C    -54.966500   36.620700  109.083000
  C    -53.867500   36.484600  108.194000
  H    -56.790600   35.366600  109.405000
  C    -55.271300   37.725100  110.122000
  H    -54.545600   38.561400  109.938000
  H    -55.099200   37.243600  111.083000
  C    -56.621700   38.279300  110.067000
  H    -56.795600   38.904000  110.898000
  H    -57.309900   37.458800  110.217000
  C    -56.844100   38.971700  108.725000
  H    -56.608400   38.326900  107.828000
  H    -56.362100   39.946300  108.696000
  H    -57.835600   39.178800  108.567000
  H    -49.810900   38.938500  106.521000
  H    -56.286000   34.069900  107.302000

 Total Charge           Charge          ....    0
 Multiplicity           Mult            ....    1
 Number of Electrons    NEL             ....  134
 Basis Dimension        Dim             ....  322

ORBITAL ENERGIES
----------------

  NO   OCC          E(Eh)            E(eV)
   0   2.0000     -88.966842     -2420.9108
   1   2.0000     -88.966780     -2420.9092
   2   2.0000     -10.329478      -281.0794
   3   2.0000     -10.327108      -281.0149
   4   2.0000     -10.319125      -280.7977
   5   2.0000     -10.314895      -280.6826
   6   2.0000     -10.307872      -280.4915
   7   2.0000     -10.300534      -280.2918
   8   2.0000     -10.295777      -280.1623
   9   2.0000     -10.292346      -280.0690
  10   2.0000     -10.291804      -280.0542
  11   2.0000     -10.291531      -280.0468
  12   2.0000     -10.287890      -279.9477
  13   2.0000     -10.278941      -279.7042
  14   2.0000     -10.276265      -279.6314
  15   2.0000     -10.272832      -279.5380
  16   2.0000      -8.081828      -219.9177
  17   2.0000      -8.080516      -219.8820
  18   2.0000      -6.040142      -164.3606
  19   2.0000      -6.039167      -164.3341
  20   2.0000      -6.036517      -164.2620
  21   2.0000      -6.035515      -164.2347
  22   2.0000      -6.032548      -164.1540
  23   2.0000      -6.030850      -164.1078
  24   2.0000      -1.002227       -27.2720
  25   2.0000      -0.978978       -26.6393
  26   2.0000      -0.923301       -25.1243
  27   2.0000      -0.913019       -24.8445
  28   2.0000      -0.869054       -23.6481
  29   2.0000      -0.850210       -23.1354
  30   2.0000      -0.844910       -22.9912
  31   2.0000      -0.807458       -21.9721
  32   2.0000      -0.787613       -21.4321
  33   2.0000      -0.772194       -21.0125
  34   2.0000      -0.709472       -19.3057
  35   2.0000      -0.697787       -18.9878
  36   2.0000      -0.687981       -18.7209
  37   2.0000      -0.657378       -17.8882
  38   2.0000      -0.624183       -16.9849
  39   2.0000      -0.617259       -16.7965
  40   2.0000      -0.595752       -16.2112
  41   2.0000      -0.571917       -15.5627
  42   2.0000      -0.567293       -15.4368
  43   2.0000      -0.557460       -15.1693
  44   2.0000      -0.548408       -14.9229
  45   2.0000      -0.524962       -14.2849
  46   2.0000      -0.519114       -14.1258
  47   2.0000      -0.506727       -13.7888
  48   2.0000      -0.501124       -13.6363
  49   2.0000      -0.490659       -13.3515
  50   2.0000      -0.487865       -13.2755
  51   2.0000      -0.476526       -12.9669
  52   2.0000      -0.467839       -12.7306
  53   2.0000      -0.462740       -12.5918
  54   2.0000      -0.456983       -12.4352
  55   2.0000      -0.453379       -12.3371
  56   2.0000      -0.449764       -12.2387
  57   2.0000      -0.439146       -11.9498
  58   2.0000      -0.431594       -11.7443
  59   2.0000      -0.425726       -11.5846
  60   2.0000      -0.422412       -11.4944
  61   2.0000      -0.415496       -11.3062
  62   2.0000      -0.412602       -11.2275
  63   2.0000      -0.346749        -9.4355
  64   2.0000      -0.334299        -9.0967
  65   2.0000      -0.330174        -8.9845
  66   2.0000      -0.279190        -7.5971
  67   0.0000       0.029586         0.8051
  68   0.0000       0.062754         1.7076
  69   0.0000       0.098493         2.6801
  70   0.0000       0.124043         3.3754
  71   0.0000       0.131689         3.5834

MULLIKEN ATOMIC CHARGES
-----------------------
   0 S :    0.099281
   1 C :   -0.169208
   2 C :   -0.081424
   3 C :   -0.003204
   4 C :   -0.110525
   5 H :    0.010524
   6 C :    0.070300
   7 H :    0.013086
   8 H :    0.043801
   9 C :   -0.077251
  10 H :    0.028977
  11 H :    0.028148
  12 C :   -0.037223
  13 H :    0.025335
  14 H :    0.043812
  15 H :    0.022500
  16 S :    0.115872
  17 C :   -0.112052
  18 C :   -0.048322
  19 C :   -0.052528
  20 C :   -0.164535
  21 H :    0.016794
  22 C :    0.096266
  23 H :    0.025021
  24 H :    0.037574
  25 C :   -0.044940
  26 H :    0.019321
  27 H :    0.012834
  28 C :   -0.038871
  29 H :    0.057935
  30 H :    0.032322
  31 H :    0.004103
  32 H :    0.067244
  33 H :    0.069034
Sum of atomic charges:    0.0000000

LOEWDIN ATOMIC CHARGES
----------------------
   0 S :    0.364959
   1 C :   -0.193318
   2 C :   -0.070186
   3 C :   -0.071024
   4 C :   -0.180897
   5 H :    0.033133
   6 C :   -0.025478
   7 H :    0.026181
   8 H :    0.037575
   9 C :   -0.048601
  10 H :    0.024029
  11 H :    0.026583
  12 C :   -0.068265
  13 H :    0.025597
  14 H :    0.033404
  15 H :    0.022941
  16 S :    0.410195
  17 C :   -0.193812
  18 C :   -0.074227
  19 C :   -0.048294
  20 C :   -0.193480
  21 H :    0.027745
  22 C :   -0.027291
  23 H :    0.033455
  24 H :    0.035291
  25 C :   -0.040514
  26 H :    0.023059
  27 H :    0.019514
  28 C :   -0.063045
  29 H :    0.040219
  30 H :    0.025816
  31 H :    0.013600
  32 H :    0.040509
  33 H :    0.034629

  Mayer bond orders larger than 0.100000
B(  0-S ,  1-C ) :   1.1035 B(  0-S ,  4-C ) :   1.1217 B(  1-C ,  2-C ) :   1.6866
B(  1-C , 32-H ) :   0.9503 B(  2-C ,  3-C ) :   1.2266 B(  2-C ,  6-C ) :   1.0074
B(  3-C ,  4-C ) :   1.6012 B(  3-C ,  5-H ) :   0.9819 B(  4-C , 20-C ) :   1.0424
B(  6-C ,  7-H ) :   0.9447 B(  6-C ,  8-H ) :   0.9306 B(  6-C ,  9-C ) :   1.0659
B(  9-C , 10-H ) :   0.9578 B(  9-C , 11-H ) :   0.9487 B(  9-C , 12-C ) :   1.0936
B( 12-C , 13-H ) :   0.9721 B( 12-C , 14-H ) :   0.9710 B( 12-C , 15-H ) :   0.9715
B( 16-S , 17-C ) :   1.1713 B( 16-S , 20-C ) :   1.1387 B( 17-C , 18-C ) :   1.5939
B( 17-C , 20-C ) :   0.1032 B( 17-C , 33-H ) :   0.9636 B( 18-C , 19-C ) :   1.2363
B( 18-C , 21-H ) :   0.9923 B( 19-C , 20-C ) :   1.5792 B( 19-C , 22-C ) :   1.0208
B( 22-C , 23-H ) :   0.9368 B( 22-C , 24-H ) :   0.9284 B( 22-C , 25-C ) :   1.0928
B( 25-C , 26-H ) :   0.9467 B( 25-C , 27-H ) :   0.9446 B( 25-C , 28-C ) :   1.0833
B( 28-C , 29-H ) :   0.9676 B( 28-C , 30-H ) :   0.9683 B( 28-C , 31-H ) :   0.9669

Dispersion correction           -0.014538995
FINAL SINGLE POINT ENERGY     -1339.864559696245

DIPOLE MOMENT
-------------
                                X             Y             Z
Electronic contribution:      7.57046     -28.77031      -5.22066
Nuclear contribution   :     -8.09478      29.38044       5.41197
                        -----------------------------------------
Total Dipole Moment    :     -0.52432       0.61013       0.19131
                        -----------------------------------------
Magnitude (a.u.)       :      0.82690
Magnitude (Debye)      :      2.10182

Rotational constants in cm-1:     0.019700     0.008470     0.006352
Rotational constants in MHz :   590.603203   253.922303   190.418768

                             ****ORCA TERMINATED NORMALLY****
TOTAL RUN TIME: 0 days 0 hours 0 minutes 30 seconds 732 msec
