                         Program Version 4.2.1 -  RELEASE  -
|  1> ! wB97X-D3 SP def2-SVP
|  2> %pal
|  3> nprocs 16
|  4> end
|  5>
|  6> * xyz 0 1
|  7> S 	 -97.3956 	 36.4528 	 122.323
|  8> C 	 -96.5261 	 36.2749 	 123.858
|  9> C 	 -95.4307 	 37.0367 	 123.886
| 10> C 	 -95.1331 	 37.4694 	 122.564
| 11> C 	 -96.2006 	 37.5241 	 121.708
| 12> H 	 -94.2284 	 37.8869 	 122.179
| 13> C 	 -94.314 	 37.1549 	 124.944
| 14> H 	 -93.8284 	 36.1442 	 124.843
| 15> H 	 -94.7724 	 37.1586 	 125.904
| 16> C 	 -93.2573 	 38.2761 	 124.793
| 17> H 	 -92.5796 	 38.1504 	 125.646
| 18> H 	 -92.5729 	 38.1103 	 123.973
| 19> C 	 -93.7469 	 39.6698 	 124.913
| 20> H 	 -94.2824 	 39.7069 	 125.861
| 21> H 	 -92.9554 	 40.382 	 124.838
| 22> H 	 -94.4233 	 39.9292 	 124.032
| 23> S 	 -96.2714 	 37.0499 	 118.998
| 24> C 	 -95.9895 	 38.483 	 117.955
| 25> C 	 -95.8501 	 39.6522 	 118.697
| 26> C 	 -95.8743 	 39.4018 	 120.069
| 27> C 	 -96.2174 	 38.0955 	 120.407
| 28> H 	 -95.5482 	 40.6166 	 118.266
| 29> C 	 -95.3988 	 40.4731 	 121.022
| 30> H 	 -94.3301 	 40.5408 	 121.081
| 31> H 	 -95.7015 	 40.1994 	 122.013
| 32> C 	 -95.9509 	 41.9102 	 120.839
| 33> H 	 -95.782 	 42.2361 	 119.765
| 34> H 	 -95.5474 	 42.5957 	 121.46
| 35> C 	 -97.4891 	 42.0514 	 121.218
| 36> H 	 -98.0716 	 41.2118 	 120.865
| 37> H 	 -97.9143 	 42.9768 	 120.794
| 38> H 	 -97.6124 	 42.185 	 122.319
| 39> H 	 -96.7915 	 35.6187 	 124.677
| 40> H 	 -96.0287 	 38.4968 	 116.906
| 41> *
| 42>
| 43>                          ****END OF INPUT****

CARTESIAN COORDINATES (ANGSTROEM)
---------------------------------
  S    -97.395600   36.452800  122.323000
  C    -96.526100   36.274900  123.858000
  C    -95.430700   37.036700  123.886000
  C    -95.133100   37.469400  122.564000
  C    -96.200600   37.524100  121.708000
  H    -94.228400   37.886900  122.179000
  C    -94.314000   37.154900  124.944000
  H    -93.828400   36.144200  124.843000
  H    -94.772400   37.158600  125.904000
  C    -93.257300   38.276100  124.793000
  H    -92.579600   38.150400  125.646000
  H    -92.572900   38.110300  123.973000
  C    -93.746900   39.669800  124.913000
  H    -94.282400   39.706900  125.861000
  H    -92.955400   40.382000  124.838000
  H    -94.423300   39.929200  124.032000
  S    -96.271400   37.049900  118.998000
  C    -95.989500   38.483000  117.955000
  C    -95.850100   39.652200  118.697000
  C    -95.874300   39.401800  120.069000
  C    -96.217400   38.095500  120.407000
  H    -95.548200   40.616600  118.266000
  C    -95.398800   40.473100  121.022000
  H    -94.330100   40.540800  121.081000
  H    -95.701500   40.199400  122.013000
  C    -95.950900   41.910200  120.839000
  H    -95.782000   42.236100  119.765000
  H    -95.547400   42.595700  121.460000
  C    -97.489100   42.051400  121.218000
  H    -98.071600   41.211800  120.865000
  H    -97.914300   42.976800  120.794000
  H    -97.612400   42.185000  122.319000
  H    -96.791500   35.618700  124.677000
  H    -96.028700   38.496800  116.906000

 Total Charge           Charge          ....    0
 Multiplicity           Mult            ....    1
 Number of Electrons    NEL             ....  134
 Basis Dimension        Dim             ....  322

ORBITAL ENERGIES
----------------

  NO   OCC          E(Eh)            E(eV)
   0   2.0000     -88.970142     -2421.0006
   1   2.0000     -88.959464     -2420.7101
   2   2.0000     -10.323226      -280.9093
   3   2.0000     -10.320719      -280.8410
   4   2.0000     -10.316557      -280.7278
   5   2.0000     -10.309272      -280.5296
   6   2.0000     -10.300562      -280.2925
   7   2.0000     -10.298855      -280.2461
   8   2.0000     -10.296108      -280.1713
   9   2.0000     -10.294075      -280.1160
  10   2.0000     -10.287834      -279.9462
  11   2.0000     -10.286966      -279.9226
  12   2.0000     -10.285949      -279.8949
  13   2.0000     -10.283859      -279.8380
  14   2.0000     -10.279417      -279.7172
  15   2.0000     -10.277655      -279.6692
  16   2.0000      -8.083920      -219.9746
  17   2.0000      -8.074691      -219.7235
  18   2.0000      -6.042480      -164.4242
  19   2.0000      -6.038653      -164.3201
  20   2.0000      -6.034593      -164.2096
  21   2.0000      -6.033293      -164.1743
  22   2.0000      -6.029238      -164.0639
  23   2.0000      -6.025202      -163.9541
  24   2.0000      -1.011997       -27.5378
  25   2.0000      -0.986317       -26.8391
  26   2.0000      -0.915615       -24.9152
  27   2.0000      -0.904031       -24.5999
  28   2.0000      -0.878400       -23.9025
  29   2.0000      -0.847185       -23.0531
  30   2.0000      -0.844869       -22.9901
  31   2.0000      -0.812145       -22.0996
  32   2.0000      -0.787395       -21.4261
  33   2.0000      -0.774279       -21.0692
  34   2.0000      -0.711589       -19.3633
  35   2.0000      -0.699832       -19.0434
  36   2.0000      -0.697008       -18.9665
  37   2.0000      -0.659669       -17.9505
  38   2.0000      -0.640966       -17.4416
  39   2.0000      -0.620291       -16.8790
  40   2.0000      -0.600193       -16.3321
  41   2.0000      -0.571477       -15.5507
  42   2.0000      -0.555484       -15.1155
  43   2.0000      -0.550091       -14.9687
  44   2.0000      -0.544161       -14.8074
  45   2.0000      -0.536104       -14.5881
  46   2.0000      -0.522449       -14.2166
  47   2.0000      -0.511503       -13.9187
  48   2.0000      -0.502726       -13.6799
  49   2.0000      -0.497029       -13.5248
  50   2.0000      -0.490268       -13.3409
  51   2.0000      -0.485645       -13.2151
  52   2.0000      -0.467871       -12.7314
  53   2.0000      -0.460947       -12.5430
  54   2.0000      -0.459337       -12.4992
  55   2.0000      -0.453137       -12.3305
  56   2.0000      -0.441642       -12.0177
  57   2.0000      -0.437555       -11.9065
  58   2.0000      -0.435940       -11.8625
  59   2.0000      -0.428460       -11.6590
  60   2.0000      -0.421529       -11.4704
  61   2.0000      -0.415596       -11.3089
  62   2.0000      -0.405237       -11.0270
  63   2.0000      -0.342846        -9.3293
  64   2.0000      -0.328846        -8.9484
  65   2.0000      -0.322748        -8.7824
  66   2.0000      -0.295164        -8.0318
  67   0.0000       0.028623         0.7789
  68   0.0000       0.069881         1.9015
  69   0.0000       0.108176         2.9436
  70   0.0000       0.121703         3.3117
  71   0.0000       0.123933         3.3724

MULLIKEN ATOMIC CHARGES
-----------------------
   0 S :    0.100715
   1 C :   -0.126533
   2 C :   -0.069991
   3 C :    0.010821
   4 C :   -0.171117
   5 H :    0.005673
   6 C :    0.055321
   7 H :    0.053306
   8 H :    0.018483
   9 C :   -0.075207
  10 H :    0.023257
  11 H :    0.025563
  12 C :   -0.029662
  13 H :    0.035039
  14 H :    0.029110
  15 H :    0.033813
  16 S :    0.115627
  17 C :   -0.072455
  18 C :   -0.036429
  19 C :   -0.035811
  20 C :   -0.139471
  21 H :    0.030134
  22 C :    0.054593
  23 H :    0.038980
  24 H :    0.034292
  25 C :   -0.052421
  26 H :    0.030042
  27 H :    0.006866
  28 C :   -0.089136
  29 H :    0.045581
  30 H :    0.032511
  31 H :    0.037434
  32 H :    0.041494
  33 H :    0.039580
Sum of atomic charges:   -0.0000000

LOEWDIN ATOMIC CHARGES
----------------------
   0 S :    0.397591
   1 C :   -0.187212
   2 C :   -0.068969
   3 C :   -0.055589
   4 C :   -0.210292
   5 H :    0.023107
   6 C :   -0.028230
   7 H :    0.047662
   8 H :    0.023832
   9 C :   -0.049486
  10 H :    0.030488
  11 H :    0.020841
  12 C :   -0.063597
  13 H :    0.029069
  14 H :    0.023406
  15 H :    0.030176
  16 S :    0.396656
  17 C :   -0.158031
  18 C :   -0.068367
  19 C :   -0.051332
  20 C :   -0.203502
  21 H :    0.036832
  22 C :   -0.030602
  23 H :    0.030893
  24 H :    0.026076
  25 C :   -0.030305
  26 H :    0.022783
  27 H :    0.009460
  28 C :   -0.068367
  29 H :    0.023091
  30 H :    0.026618
  31 H :    0.028132
  32 H :    0.029300
  33 H :    0.017869

  Mayer bond orders larger than 0.100000
B(  0-S ,  1-C ) :   1.1246 B(  0-S ,  4-C ) :   1.1293 B(  1-C ,  2-C ) :   1.6525
B(  1-C , 32-H ) :   0.9720 B(  2-C ,  3-C ) :   1.1992 B(  2-C ,  6-C ) :   1.0003
B(  3-C ,  4-C ) :   1.6029 B(  3-C ,  5-H ) :   0.9851 B(  4-C , 20-C ) :   1.0543
B(  6-C ,  7-H ) :   0.9378 B(  6-C ,  8-H ) :   0.9417 B(  6-C ,  9-C ) :   1.0879
B(  9-C , 10-H ) :   0.9466 B(  9-C , 11-H ) :   0.9452 B(  9-C , 12-C ) :   1.0863
B( 12-C , 13-H ) :   0.9711 B( 12-C , 14-H ) :   0.9678 B( 12-C , 15-H ) :   0.9691
B( 16-S , 17-C ) :   1.1533 B( 16-S , 20-C ) :   1.1380 B( 17-C , 18-C ) :   1.6020
B( 17-C , 20-C ) :   0.1083 B( 17-C , 33-H ) :   0.9694 B( 18-C , 19-C ) :   1.2616
B( 18-C , 21-H ) :   0.9819 B( 19-C , 20-C ) :   1.5856 B( 19-C , 22-C ) :   1.0425
B( 22-C , 23-H ) :   0.9355 B( 22-C , 24-H ) :   0.9200 B( 22-C , 25-C ) :   1.0740
B( 25-C , 26-H ) :   0.9582 B( 25-C , 27-H ) :   0.9541 B( 25-C , 28-C ) :   1.0656
B( 28-C , 29-H ) :   0.9814 B( 28-C , 30-H ) :   0.9763 B( 28-C , 31-H ) :   0.9772

Dispersion correction           -0.015381862
FINAL SINGLE POINT ENERGY     -1339.854469331396

DIPOLE MOMENT
-------------
                                X             Y             Z
Electronic contribution:    -10.65690     -22.00647     -14.62860
Nuclear contribution   :     11.37753      22.43217      14.96063
                        -----------------------------------------
Total Dipole Moment    :      0.72063       0.42570       0.33202
                        -----------------------------------------
Magnitude (a.u.)       :      0.90043
Magnitude (Debye)      :      2.28870

Rotational constants in cm-1:     0.016582     0.010545     0.007834
Rotational constants in MHz :   497.101790   316.142169   234.870320

                             ****ORCA TERMINATED NORMALLY****
TOTAL RUN TIME: 0 days 0 hours 0 minutes 36 seconds 389 msec
