                         Program Version 4.2.1 -  RELEASE  -
|  1> ! wB97X-D3 SP def2-SVP
|  2> %pal
|  3> nprocs 16
|  4> end
|  5>
|  6> * xyz 0 1
|  7> S 	 -25.2928 	 55.9107 	 111.038
|  8> C 	 -25.9663 	 54.8066 	 112.245
|  9> C 	 -26.533 	 55.4665 	 113.3
| 10> C 	 -26.3764 	 56.8939 	 113.146
| 11> C 	 -25.8591 	 57.2963 	 111.961
| 12> H 	 -26.5814 	 57.5522 	 113.913
| 13> C 	 -27.1725 	 54.9499 	 114.53
| 14> H 	 -27.1971 	 55.769 	 115.3
| 15> H 	 -26.6389 	 54.037 	 114.834
| 16> C 	 -28.634 	 54.6161 	 114.298
| 17> H 	 -28.6357 	 53.6682 	 113.743
| 18> H 	 -29.1076 	 54.345 	 115.265
| 19> C 	 -29.5011 	 55.8207 	 113.854
| 20> H 	 -29.1387 	 56.1182 	 112.837
| 21> H 	 -30.4931 	 55.517 	 113.572
| 22> H 	 -29.4594 	 56.7602 	 114.451
| 23> S 	 -23.9093 	 59.1764 	 111.844
| 24> C 	 -24.2187 	 60.6121 	 110.897
| 25> C 	 -25.5148 	 60.6462 	 110.503
| 26> C 	 -26.2689 	 59.55 	 110.903
| 27> C 	 -25.5372 	 58.6675 	 111.581
| 28> H 	 -25.8461 	 61.3722 	 109.907
| 29> C 	 -27.7908 	 59.4655 	 110.48
| 30> H 	 -28.2602 	 58.4438 	 110.433
| 31> H 	 -27.6645 	 59.6502 	 109.401
| 32> C 	 -28.7226 	 60.4665 	 111.118
| 33> H 	 -29.6458 	 60.2745 	 110.662
| 34> H 	 -28.4459 	 61.5284 	 110.943
| 35> C 	 -28.8682 	 60.1941 	 112.592
| 36> H 	 -29.6778 	 60.8764 	 113.006
| 37> H 	 -27.9417 	 60.6441 	 113.025
| 38> H 	 -29.1408 	 59.162 	 112.776
| 39> H 	 -26.0629 	 53.7779 	 112.214
| 40> H 	 -23.6026 	 61.5403 	 110.826
| 41> *
| 42>
| 43>                          ****END OF INPUT****

CARTESIAN COORDINATES (ANGSTROEM)
---------------------------------
  S    -25.292800   55.910700  111.038000
  C    -25.966300   54.806600  112.245000
  C    -26.533000   55.466500  113.300000
  C    -26.376400   56.893900  113.146000
  C    -25.859100   57.296300  111.961000
  H    -26.581400   57.552200  113.913000
  C    -27.172500   54.949900  114.530000
  H    -27.197100   55.769000  115.300000
  H    -26.638900   54.037000  114.834000
  C    -28.634000   54.616100  114.298000
  H    -28.635700   53.668200  113.743000
  H    -29.107600   54.345000  115.265000
  C    -29.501100   55.820700  113.854000
  H    -29.138700   56.118200  112.837000
  H    -30.493100   55.517000  113.572000
  H    -29.459400   56.760200  114.451000
  S    -23.909300   59.176400  111.844000
  C    -24.218700   60.612100  110.897000
  C    -25.514800   60.646200  110.503000
  C    -26.268900   59.550000  110.903000
  C    -25.537200   58.667500  111.581000
  H    -25.846100   61.372200  109.907000
  C    -27.790800   59.465500  110.480000
  H    -28.260200   58.443800  110.433000
  H    -27.664500   59.650200  109.401000
  C    -28.722600   60.466500  111.118000
  H    -29.645800   60.274500  110.662000
  H    -28.445900   61.528400  110.943000
  C    -28.868200   60.194100  112.592000
  H    -29.677800   60.876400  113.006000
  H    -27.941700   60.644100  113.025000
  H    -29.140800   59.162000  112.776000
  H    -26.062900   53.777900  112.214000
  H    -23.602600   61.540300  110.826000

 Total Charge           Charge          ....    0
 Multiplicity           Mult            ....    1
 Number of Electrons    NEL             ....  134
 Basis Dimension        Dim             ....  322

ORBITAL ENERGIES
----------------

  NO   OCC          E(Eh)            E(eV)
   0   2.0000     -88.964209     -2420.8392
   1   2.0000     -88.962960     -2420.8052
   2   2.0000     -10.321771      -280.8697
   3   2.0000     -10.314908      -280.6829
   4   2.0000     -10.314041      -280.6593
   5   2.0000     -10.306541      -280.4553
   6   2.0000     -10.296583      -280.1843
   7   2.0000     -10.294483      -280.1271
   8   2.0000     -10.293370      -280.0968
   9   2.0000     -10.292395      -280.0703
  10   2.0000     -10.290345      -280.0145
  11   2.0000     -10.283120      -279.8179
  12   2.0000     -10.281316      -279.7688
  13   2.0000     -10.280754      -279.7535
  14   2.0000     -10.279125      -279.7092
  15   2.0000     -10.276418      -279.6356
  16   2.0000      -8.078434      -219.8254
  17   2.0000      -8.078379      -219.8239
  18   2.0000      -6.037140      -164.2789
  19   2.0000      -6.036935      -164.2734
  20   2.0000      -6.033014      -164.1667
  21   2.0000      -6.032838      -164.1619
  22   2.0000      -6.029141      -164.0613
  23   2.0000      -6.028876      -164.0541
  24   2.0000      -1.013992       -27.5921
  25   2.0000      -0.987654       -26.8754
  26   2.0000      -0.917332       -24.9619
  27   2.0000      -0.912406       -24.8278
  28   2.0000      -0.870844       -23.6969
  29   2.0000      -0.852094       -23.1867
  30   2.0000      -0.842168       -22.9165
  31   2.0000      -0.817185       -22.2367
  32   2.0000      -0.783517       -21.3206
  33   2.0000      -0.776587       -21.1320
  34   2.0000      -0.707681       -19.2570
  35   2.0000      -0.699872       -19.0445
  36   2.0000      -0.687036       -18.6952
  37   2.0000      -0.669024       -18.2051
  38   2.0000      -0.641532       -17.4570
  39   2.0000      -0.615089       -16.7374
  40   2.0000      -0.599501       -16.3133
  41   2.0000      -0.576783       -15.6951
  42   2.0000      -0.559672       -15.2295
  43   2.0000      -0.555489       -15.1156
  44   2.0000      -0.549940       -14.9646
  45   2.0000      -0.541303       -14.7296
  46   2.0000      -0.518079       -14.0976
  47   2.0000      -0.510843       -13.9007
  48   2.0000      -0.497002       -13.5241
  49   2.0000      -0.496659       -13.5148
  50   2.0000      -0.484495       -13.1838
  51   2.0000      -0.475649       -12.9431
  52   2.0000      -0.472600       -12.8601
  53   2.0000      -0.466699       -12.6995
  54   2.0000      -0.459771       -12.5110
  55   2.0000      -0.442706       -12.0466
  56   2.0000      -0.442233       -12.0338
  57   2.0000      -0.437191       -11.8966
  58   2.0000      -0.434630       -11.8269
  59   2.0000      -0.425602       -11.5812
  60   2.0000      -0.422904       -11.5078
  61   2.0000      -0.407616       -11.0918
  62   2.0000      -0.402117       -10.9422
  63   2.0000      -0.338042        -9.1986
  64   2.0000      -0.328485        -8.9385
  65   2.0000      -0.323110        -8.7923
  66   2.0000      -0.311352        -8.4723
  67   0.0000       0.051298         1.3959
  68   0.0000       0.057695         1.5700
  69   0.0000       0.113949         3.1007
  70   0.0000       0.125157         3.4057
  71   0.0000       0.127878         3.4797

MULLIKEN ATOMIC CHARGES
-----------------------
   0 S :    0.114200
   1 C :   -0.083442
   2 C :   -0.096151
   3 C :    0.049325
   4 C :   -0.140480
   5 H :   -0.020786
   6 C :    0.070251
   7 H :    0.029939
   8 H :    0.034349
   9 C :   -0.077734
  10 H :    0.028916
  11 H :    0.029314
  12 C :   -0.072848
  13 H :    0.036346
  14 H :    0.030974
  15 H :    0.052549
  16 S :    0.121074
  17 C :   -0.093369
  18 C :   -0.007381
  19 C :    0.018145
  20 C :   -0.220475
  21 H :   -0.039560
  22 C :    0.032788
  23 H :    0.040216
  24 H :    0.027172
  25 C :   -0.040032
  26 H :    0.014964
  27 H :    0.031837
  28 C :   -0.065876
  29 H :    0.032920
  30 H :    0.047891
  31 H :    0.040470
  32 H :    0.004847
  33 H :    0.069646
Sum of atomic charges:   -0.0000000

LOEWDIN ATOMIC CHARGES
----------------------
   0 S :    0.391874
   1 C :   -0.183507
   2 C :   -0.061759
   3 C :   -0.049092
   4 C :   -0.189728
   5 H :    0.016782
   6 C :   -0.034455
   7 H :    0.035664
   8 H :    0.035363
   9 C :   -0.043566
  10 H :    0.025088
  11 H :    0.024063
  12 C :   -0.076324
  13 H :    0.028798
  14 H :    0.026091
  15 H :    0.032685
  16 S :    0.416003
  17 C :   -0.189007
  18 C :   -0.061232
  19 C :   -0.056318
  20 C :   -0.209127
  21 H :    0.008884
  22 C :   -0.031705
  23 H :    0.036818
  24 H :    0.033118
  25 C :   -0.043869
  26 H :    0.017792
  27 H :    0.026669
  28 C :   -0.068659
  29 H :    0.029897
  30 H :    0.033812
  31 H :    0.024558
  32 H :    0.012878
  33 H :    0.041512

  Mayer bond orders larger than 0.100000
B(  0-S ,  1-C ) :   1.1207 B(  0-S ,  4-C ) :   1.1320 B(  1-C ,  2-C ) :   1.6524
B(  1-C , 32-H ) :   0.9667 B(  2-C ,  3-C ) :   1.2090 B(  2-C ,  6-C ) :   1.0221
B(  3-C ,  4-C ) :   1.6273 B(  3-C ,  5-H ) :   1.0033 B(  4-C , 20-C ) :   0.9924
B(  6-C ,  7-H ) :   0.9408 B(  6-C ,  8-H ) :   0.9358 B(  6-C ,  9-C ) :   1.0792
B(  9-C , 10-H ) :   0.9574 B(  9-C , 11-H ) :   0.9569 B(  9-C , 12-C ) :   1.0650
B( 12-C , 13-H ) :   0.9679 B( 12-C , 14-H ) :   0.9695 B( 12-C , 15-H ) :   0.9720
B( 16-S , 17-C ) :   1.1426 B( 16-S , 20-C ) :   1.1556 B( 17-C , 18-C ) :   1.6245
B( 17-C , 33-H ) :   0.9570 B( 18-C , 19-C ) :   1.2454 B( 18-C , 21-H ) :   1.0067
B( 19-C , 20-C ) :   1.6419 B( 19-C , 22-C ) :   0.9988 B( 22-C , 23-H ) :   0.9426
B( 22-C , 24-H ) :   0.9353 B( 22-C , 25-C ) :   1.0849 B( 25-C , 26-H ) :   0.9470
B( 25-C , 27-H ) :   0.9547 B( 25-C , 28-C ) :   1.0809 B( 28-C , 29-H ) :   0.9713
B( 28-C , 30-H ) :   0.9738 B( 28-C , 31-H ) :   0.9710

Dispersion correction           -0.015920069
FINAL SINGLE POINT ENERGY     -1339.854927409519

DIPOLE MOMENT
-------------
                                X             Y             Z
Electronic contribution:     25.96187      -1.29892      -9.20454
Nuclear contribution   :    -26.58054       1.47072       9.35905
                        -----------------------------------------
Total Dipole Moment    :     -0.61867       0.17180       0.15451
                        -----------------------------------------
Magnitude (a.u.)       :      0.66041
Magnitude (Debye)      :      1.67863

Rotational constants in cm-1:     0.019151     0.010185     0.007648
Rotational constants in MHz :   574.140115   305.331725   229.267558

                             ****ORCA TERMINATED NORMALLY****
TOTAL RUN TIME: 0 days 0 hours 0 minutes 30 seconds 894 msec
