                         Program Version 4.2.1 -  RELEASE  -
|  1> ! wB97X-D3 SP def2-SVP
|  2> %pal
|  3> nprocs 16
|  4> end
|  5>
|  6> * xyz 0 1
|  7> S 	 3.31475 	 -16.1063 	 61.5111
|  8> C 	 3.47458 	 -14.9998 	 62.8822
|  9> C 	 2.47474 	 -14.1445 	 63.0599
| 10> C 	 1.43069 	 -14.4825 	 62.2151
| 11> C 	 1.68255 	 -15.5463 	 61.361
| 12> H 	 0.435266 	 -13.9746 	 62.2897
| 13> C 	 2.374 	 -13.0054 	 64.052
| 14> H 	 2.70278 	 -13.5305 	 64.9829
| 15> H 	 1.29354 	 -12.7362 	 64.1505
| 16> C 	 3.31527 	 -11.8444 	 63.7408
| 17> H 	 4.37026 	 -12.159 	 63.7054
| 18> H 	 2.9831 	 -11.3853 	 62.8321
| 19> C 	 3.31867 	 -10.8789 	 64.8424
| 20> H 	 2.29268 	 -10.8135 	 65.1938
| 21> H 	 3.94617 	 -11.2087 	 65.7259
| 22> H 	 3.55179 	 -9.8748 	 64.4561
| 23> S 	 1.21827 	 -15.2938 	 58.7074
| 24> C 	 -0.0418841 	 -16.1552 	 57.937
| 25> C 	 -0.621363 	 -17.024 	 58.8587
| 26> C 	 -0.00572505 	 -17.0895 	 60.1523
| 27> C 	 0.918585 	 -16.0904 	 60.2754
| 28> H 	 -1.50988 	 -17.5524 	 58.636
| 29> C 	 -0.551651 	 -17.9958 	 61.2005
| 30> H 	 -1.61079 	 -17.6199 	 61.4134
| 31> H 	 -0.0241757 	 -17.8119 	 62.1361
| 32> C 	 -0.437332 	 -19.4897 	 60.8083
| 33> H 	 0.578623 	 -19.8762 	 61.0052
| 34> H 	 -0.652131 	 -19.6314 	 59.8103
| 35> C 	 -1.49204 	 -20.3457 	 61.5433
| 36> H 	 -2.50588 	 -20.0149 	 61.3644
| 37> H 	 -1.25928 	 -20.2969 	 62.5943
| 38> H 	 -1.51587 	 -21.3706 	 61.2329
| 39> H 	 4.46664 	 -14.7837 	 63.2932
| 40> H 	 -0.565841 	 -15.8953 	 57.0054
| 41> *
| 42>
| 43>                          ****END OF INPUT****

CARTESIAN COORDINATES (ANGSTROEM)
---------------------------------
  S      3.314750  -16.106300   61.511100
  C      3.474580  -14.999800   62.882200
  C      2.474740  -14.144500   63.059900
  C      1.430690  -14.482500   62.215100
  C      1.682550  -15.546300   61.361000
  H      0.435266  -13.974600   62.289700
  C      2.374000  -13.005400   64.052000
  H      2.702780  -13.530500   64.982900
  H      1.293540  -12.736200   64.150500
  C      3.315270  -11.844400   63.740800
  H      4.370260  -12.159000   63.705400
  H      2.983100  -11.385300   62.832100
  C      3.318670  -10.878900   64.842400
  H      2.292680  -10.813500   65.193800
  H      3.946170  -11.208700   65.725900
  H      3.551790   -9.874800   64.456100
  S      1.218270  -15.293800   58.707400
  C     -0.041884  -16.155200   57.937000
  C     -0.621363  -17.024000   58.858700
  C     -0.005725  -17.089500   60.152300
  C      0.918585  -16.090400   60.275400
  H     -1.509880  -17.552400   58.636000
  C     -0.551651  -17.995800   61.200500
  H     -1.610790  -17.619900   61.413400
  H     -0.024176  -17.811900   62.136100
  C     -0.437332  -19.489700   60.808300
  H      0.578623  -19.876200   61.005200
  H     -0.652131  -19.631400   59.810300
  C     -1.492040  -20.345700   61.543300
  H     -2.505880  -20.014900   61.364400
  H     -1.259280  -20.296900   62.594300
  H     -1.515870  -21.370600   61.232900
  H      4.466640  -14.783700   63.293200
  H     -0.565841  -15.895300   57.005400

 Total Charge           Charge          ....    0
 Multiplicity           Mult            ....    1
 Number of Electrons    NEL             ....  134
 Basis Dimension        Dim             ....  322

ORBITAL ENERGIES
----------------

  NO   OCC          E(Eh)            E(eV)
   0   2.0000     -88.964452     -2420.8458
   1   2.0000     -88.958245     -2420.6769
   2   2.0000     -10.322399      -280.8867
   3   2.0000     -10.319965      -280.8205
   4   2.0000     -10.313330      -280.6400
   5   2.0000     -10.304637      -280.4034
   6   2.0000     -10.298937      -280.2483
   7   2.0000     -10.297749      -280.2160
   8   2.0000     -10.294657      -280.1319
   9   2.0000     -10.292128      -280.0630
  10   2.0000     -10.287688      -279.9422
  11   2.0000     -10.286180      -279.9012
  12   2.0000     -10.282828      -279.8100
  13   2.0000     -10.282446      -279.7996
  14   2.0000     -10.277686      -279.6701
  15   2.0000     -10.271694      -279.5070
  16   2.0000      -8.079512      -219.8547
  17   2.0000      -8.073473      -219.6904
  18   2.0000      -6.037788      -164.2966
  19   2.0000      -6.034183      -164.1985
  20   2.0000      -6.032032      -164.1399
  21   2.0000      -6.030285      -164.0924
  22   2.0000      -6.027832      -164.0256
  23   2.0000      -6.024211      -163.9271
  24   2.0000      -1.011191       -27.5159
  25   2.0000      -0.987352       -26.8672
  26   2.0000      -0.923543       -25.1309
  27   2.0000      -0.909162       -24.7396
  28   2.0000      -0.877815       -23.8866
  29   2.0000      -0.853057       -23.2129
  30   2.0000      -0.846581       -23.0366
  31   2.0000      -0.808154       -21.9910
  32   2.0000      -0.782985       -21.3061
  33   2.0000      -0.771180       -20.9849
  34   2.0000      -0.706705       -19.2304
  35   2.0000      -0.699673       -19.0391
  36   2.0000      -0.695708       -18.9312
  37   2.0000      -0.659451       -17.9446
  38   2.0000      -0.635456       -17.2916
  39   2.0000      -0.618909       -16.8414
  40   2.0000      -0.597071       -16.2471
  41   2.0000      -0.582530       -15.8515
  42   2.0000      -0.561067       -15.2674
  43   2.0000      -0.558184       -15.1890
  44   2.0000      -0.531267       -14.4565
  45   2.0000      -0.526970       -14.3396
  46   2.0000      -0.521397       -14.1879
  47   2.0000      -0.513563       -13.9748
  48   2.0000      -0.508192       -13.8286
  49   2.0000      -0.503145       -13.6913
  50   2.0000      -0.489014       -13.3067
  51   2.0000      -0.468131       -12.7385
  52   2.0000      -0.466959       -12.7066
  53   2.0000      -0.463769       -12.6198
  54   2.0000      -0.456357       -12.4181
  55   2.0000      -0.446399       -12.1471
  56   2.0000      -0.441263       -12.0074
  57   2.0000      -0.436848       -11.8872
  58   2.0000      -0.433219       -11.7885
  59   2.0000      -0.426309       -11.6005
  60   2.0000      -0.424139       -11.5414
  61   2.0000      -0.423197       -11.5158
  62   2.0000      -0.413560       -11.2535
  63   2.0000      -0.337969        -9.1966
  64   2.0000      -0.323910        -8.8140
  65   2.0000      -0.317463        -8.6386
  66   2.0000      -0.308943        -8.4068
  67   0.0000       0.043864         1.1936
  68   0.0000       0.054687         1.4881
  69   0.0000       0.111550         3.0354
  70   0.0000       0.123904         3.3716
  71   0.0000       0.129120         3.5135

MULLIKEN ATOMIC CHARGES
-----------------------
   0 S :    0.118163
   1 C :   -0.133114
   2 C :   -0.067420
   3 C :    0.021191
   4 C :   -0.189739
   5 H :    0.019164
   6 C :    0.037562
   7 H :    0.039137
   8 H :    0.032867
   9 C :   -0.053376
  10 H :    0.034340
  11 H :    0.028920
  12 C :   -0.037256
  13 H :    0.011685
  14 H :    0.044737
  15 H :    0.035687
  16 S :    0.108328
  17 C :   -0.083623
  18 C :   -0.051630
  19 C :    0.012118
  20 C :   -0.199321
  21 H :    0.002755
  22 C :    0.044087
  23 H :    0.048025
  24 H :    0.026720
  25 C :   -0.049487
  26 H :    0.041666
  27 H :    0.014272
  28 C :   -0.043571
  29 H :    0.022797
  30 H :    0.029249
  31 H :    0.025989
  32 H :    0.039284
  33 H :    0.069795
Sum of atomic charges:   -0.0000000

LOEWDIN ATOMIC CHARGES
----------------------
   0 S :    0.411940
   1 C :   -0.190439
   2 C :   -0.075852
   3 C :   -0.061193
   4 C :   -0.208432
   5 H :    0.037079
   6 C :   -0.029252
   7 H :    0.039985
   8 H :    0.034118
   9 C :   -0.042796
  10 H :    0.030418
  11 H :    0.024833
  12 C :   -0.068377
  13 H :    0.019535
  14 H :    0.032650
  15 H :    0.029314
  16 S :    0.404246
  17 C :   -0.207177
  18 C :   -0.069149
  19 C :   -0.056370
  20 C :   -0.198464
  21 H :    0.019545
  22 C :   -0.032442
  23 H :    0.042933
  24 H :    0.031094
  25 C :   -0.028459
  26 H :    0.032838
  27 H :    0.010935
  28 C :   -0.060753
  29 H :    0.021636
  30 H :    0.022619
  31 H :    0.022182
  32 H :    0.022333
  33 H :    0.038923

  Mayer bond orders larger than 0.100000
B(  0-S ,  1-C ) :   1.1371 B(  0-S ,  4-C ) :   1.1687 B(  1-C ,  2-C ) :   1.6535
B(  1-C , 32-H ) :   0.9534 B(  2-C ,  3-C ) :   1.2646 B(  2-C ,  6-C ) :   0.9890
B(  3-C ,  4-C ) :   1.5798 B(  3-C ,  5-H ) :   0.9903 B(  4-C , 20-C ) :   1.0062
B(  6-C ,  7-H ) :   0.9408 B(  6-C ,  8-H ) :   0.9381 B(  6-C ,  9-C ) :   1.0739
B(  9-C , 10-H ) :   0.9553 B(  9-C , 11-H ) :   0.9520 B(  9-C , 12-C ) :   1.0920
B( 12-C , 13-H ) :   0.9670 B( 12-C , 14-H ) :   0.9746 B( 12-C , 15-H ) :   0.9709
B( 16-S , 17-C ) :   1.1518 B( 16-S , 20-C ) :   1.1433 B( 17-C , 18-C ) :   1.6216
B( 17-C , 33-H ) :   0.9614 B( 18-C , 19-C ) :   1.2130 B( 18-C , 21-H ) :   0.9862
B( 19-C , 20-C ) :   1.6185 B( 19-C , 22-C ) :   1.0554 B( 22-C , 23-H ) :   0.9465
B( 22-C , 24-H ) :   0.9261 B( 22-C , 25-C ) :   1.0405 B( 25-C , 26-H ) :   0.9521
B( 25-C , 27-H ) :   0.9680 B( 25-C , 28-C ) :   1.0807 B( 28-C , 29-H ) :   0.9775
B( 28-C , 30-H ) :   0.9761 B( 28-C , 31-H ) :   0.9744

Dispersion correction           -0.013324654
FINAL SINGLE POINT ENERGY     -1339.865754066858

DIPOLE MOMENT
-------------
                                X             Y             Z
Electronic contribution:      7.51942      -1.01905     -17.05110
Nuclear contribution   :     -7.90589       1.22555      17.42294
                        -----------------------------------------
Total Dipole Moment    :     -0.38647       0.20650       0.37185
                        -----------------------------------------
Magnitude (a.u.)       :      0.57470
Magnitude (Debye)      :      1.46076

Rotational constants in cm-1:     0.023177     0.006745     0.005985
Rotational constants in MHz :   694.836971   202.222035   179.429625

                             ****ORCA TERMINATED NORMALLY****
TOTAL RUN TIME: 0 days 0 hours 0 minutes 29 seconds 297 msec
