                         Program Version 4.2.1 -  RELEASE  -
|  1> ! wB97X-D3 SP def2-SVP
|  2> %pal
|  3> nprocs 16
|  4> end
|  5>
|  6> * xyz 0 1
|  7> S 	 35.5425 	 18.6887 	 78.8618
|  8> C 	 35.0495 	 17.2631 	 79.6781
|  9> C 	 35.834 	 16.225 	 79.2864
| 10> C 	 36.977 	 16.5716 	 78.5015
| 11> C 	 37.0889 	 17.9449 	 78.3673
| 12> H 	 37.7645 	 15.9855 	 78.16
| 13> C 	 35.4747 	 14.7734 	 79.6791
| 14> H 	 35.0318 	 14.8556 	 80.6686
| 15> H 	 36.4509 	 14.3699 	 79.7145
| 16> C 	 34.5873 	 13.978 	 78.7034
| 17> H 	 34.9674 	 13.9875 	 77.6494
| 18> H 	 34.3992 	 12.9192 	 78.9943
| 19> C 	 33.115 	 14.4558 	 78.5753
| 20> H 	 32.4879 	 14.5147 	 79.4152
| 21> H 	 32.8192 	 15.375 	 78.0886
| 22> H 	 32.5544 	 13.7002 	 77.9117
| 23> S 	 38.0164 	 19.5044 	 76.3539
| 24> C 	 39.6225 	 20.1784 	 76.3745
| 25> C 	 40.3812 	 19.4598 	 77.2925
| 26> C 	 39.6588 	 18.53 	 78.0774
| 27> C 	 38.279 	 18.638 	 77.8471
| 28> H 	 41.4019 	 19.6182 	 77.3637
| 29> C 	 40.2724 	 17.7163 	 79.1951
| 30> H 	 41.0029 	 17.0727 	 78.7367
| 31> H 	 39.4361 	 17.1904 	 79.5852
| 32> C 	 40.8474 	 18.4734 	 80.398
| 33> H 	 40.0498 	 19.0767 	 80.8732
| 34> H 	 41.4477 	 19.2051 	 79.9381
| 35> C 	 41.5027 	 17.5258 	 81.4131
| 36> H 	 40.7449 	 16.8385 	 81.8399
| 37> H 	 42.0631 	 18.1111 	 82.1421
| 38> H 	 42.2865 	 16.9097 	 80.9561
| 39> H 	 34.0534 	 17.1275 	 80.2071
| 40> H 	 40.1379 	 20.8549 	 75.697
| 41> *
| 42>
| 43>                          ****END OF INPUT****

CARTESIAN COORDINATES (ANGSTROEM)
---------------------------------
  S     35.542500   18.688700   78.861800
  C     35.049500   17.263100   79.678100
  C     35.834000   16.225000   79.286400
  C     36.977000   16.571600   78.501500
  C     37.088900   17.944900   78.367300
  H     37.764500   15.985500   78.160000
  C     35.474700   14.773400   79.679100
  H     35.031800   14.855600   80.668600
  H     36.450900   14.369900   79.714500
  C     34.587300   13.978000   78.703400
  H     34.967400   13.987500   77.649400
  H     34.399200   12.919200   78.994300
  C     33.115000   14.455800   78.575300
  H     32.487900   14.514700   79.415200
  H     32.819200   15.375000   78.088600
  H     32.554400   13.700200   77.911700
  S     38.016400   19.504400   76.353900
  C     39.622500   20.178400   76.374500
  C     40.381200   19.459800   77.292500
  C     39.658800   18.530000   78.077400
  C     38.279000   18.638000   77.847100
  H     41.401900   19.618200   77.363700
  C     40.272400   17.716300   79.195100
  H     41.002900   17.072700   78.736700
  H     39.436100   17.190400   79.585200
  C     40.847400   18.473400   80.398000
  H     40.049800   19.076700   80.873200
  H     41.447700   19.205100   79.938100
  C     41.502700   17.525800   81.413100
  H     40.744900   16.838500   81.839900
  H     42.063100   18.111100   82.142100
  H     42.286500   16.909700   80.956100
  H     34.053400   17.127500   80.207100
  H     40.137900   20.854900   75.697000

 Total Charge           Charge          ....    0
 Multiplicity           Mult            ....    1
 Number of Electrons    NEL             ....  134
 Basis Dimension        Dim             ....  322

ORBITAL ENERGIES
----------------

  NO   OCC          E(Eh)            E(eV)
   0   2.0000     -88.964923     -2420.8586
   1   2.0000     -88.963900     -2420.8308
   2   2.0000     -10.333357      -281.1849
   3   2.0000     -10.328495      -281.0527
   4   2.0000     -10.316796      -280.7343
   5   2.0000     -10.314904      -280.6828
   6   2.0000     -10.303388      -280.3695
   7   2.0000     -10.299591      -280.2661
   8   2.0000     -10.299261      -280.2571
   9   2.0000     -10.293318      -280.0954
  10   2.0000     -10.291149      -280.0364
  11   2.0000     -10.286956      -279.9223
  12   2.0000     -10.282773      -279.8085
  13   2.0000     -10.282594      -279.8036
  14   2.0000     -10.281667      -279.7784
  15   2.0000     -10.276692      -279.6430
  16   2.0000      -8.079814      -219.8629
  17   2.0000      -8.078797      -219.8353
  18   2.0000      -6.038347      -164.3118
  19   2.0000      -6.037291      -164.2830
  20   2.0000      -6.034421      -164.2049
  21   2.0000      -6.033340      -164.1755
  22   2.0000      -6.030387      -164.0952
  23   2.0000      -6.029497      -164.0710
  24   2.0000      -1.008635       -27.4464
  25   2.0000      -0.988665       -26.9030
  26   2.0000      -0.910997       -24.7895
  27   2.0000      -0.905089       -24.6287
  28   2.0000      -0.871126       -23.7045
  29   2.0000      -0.851172       -23.1616
  30   2.0000      -0.845947       -23.0194
  31   2.0000      -0.817510       -22.2456
  32   2.0000      -0.782369       -21.2893
  33   2.0000      -0.772090       -21.0096
  34   2.0000      -0.710100       -19.3228
  35   2.0000      -0.701069       -19.0770
  36   2.0000      -0.696897       -18.9635
  37   2.0000      -0.663165       -18.0456
  38   2.0000      -0.645368       -17.5614
  39   2.0000      -0.617501       -16.8031
  40   2.0000      -0.591595       -16.0981
  41   2.0000      -0.570739       -15.5306
  42   2.0000      -0.562524       -15.3071
  43   2.0000      -0.549142       -14.9429
  44   2.0000      -0.543018       -14.7763
  45   2.0000      -0.523921       -14.2566
  46   2.0000      -0.518272       -14.1029
  47   2.0000      -0.515997       -14.0410
  48   2.0000      -0.506218       -13.7749
  49   2.0000      -0.500190       -13.6109
  50   2.0000      -0.490589       -13.3496
  51   2.0000      -0.486773       -13.2458
  52   2.0000      -0.472050       -12.8451
  53   2.0000      -0.465842       -12.6762
  54   2.0000      -0.456136       -12.4121
  55   2.0000      -0.444549       -12.0968
  56   2.0000      -0.444204       -12.0874
  57   2.0000      -0.432153       -11.7595
  58   2.0000      -0.431334       -11.7372
  59   2.0000      -0.429005       -11.6738
  60   2.0000      -0.419557       -11.4167
  61   2.0000      -0.415826       -11.3152
  62   2.0000      -0.407463       -11.0876
  63   2.0000      -0.345052        -9.3893
  64   2.0000      -0.328393        -8.9360
  65   2.0000      -0.327191        -8.9033
  66   2.0000      -0.295152        -8.0315
  67   0.0000       0.023871         0.6496
  68   0.0000       0.063818         1.7366
  69   0.0000       0.107168         2.9162
  70   0.0000       0.127835         3.4786
  71   0.0000       0.132132         3.5955

MULLIKEN ATOMIC CHARGES
-----------------------
   0 S :    0.116002
   1 C :   -0.123741
   2 C :   -0.137200
   3 C :    0.080124
   4 C :   -0.174719
   5 H :   -0.003548
   6 C :    0.115168
   7 H :    0.026638
   8 H :    0.012346
   9 C :   -0.044618
  10 H :    0.042626
  11 H :    0.045407
  12 C :   -0.096259
  13 H :    0.010307
  14 H :    0.027351
  15 H :    0.028131
  16 S :    0.102117
  17 C :   -0.064254
  18 C :   -0.043770
  19 C :   -0.033935
  20 C :   -0.172926
  21 H :   -0.008289
  22 C :    0.079389
  23 H :    0.026849
  24 H :    0.006928
  25 C :   -0.058568
  26 H :    0.033887
  27 H :    0.004292
  28 C :   -0.032875
  29 H :    0.044982
  30 H :    0.037171
  31 H :    0.022729
  32 H :    0.076547
  33 H :    0.055710
Sum of atomic charges:   -0.0000000

LOEWDIN ATOMIC CHARGES
----------------------
   0 S :    0.403357
   1 C :   -0.213475
   2 C :   -0.070439
   3 C :   -0.050880
   4 C :   -0.186969
   5 H :    0.023509
   6 C :   -0.027272
   7 H :    0.031865
   8 H :    0.024692
   9 C :   -0.040684
  10 H :    0.034666
  11 H :    0.034661
  12 C :   -0.084775
  13 H :    0.012170
  14 H :    0.020599
  15 H :    0.035314
  16 S :    0.413958
  17 C :   -0.189885
  18 C :   -0.067791
  19 C :   -0.053969
  20 C :   -0.196477
  21 H :    0.017210
  22 C :   -0.030054
  23 H :    0.029506
  24 H :    0.023478
  25 C :   -0.037992
  26 H :    0.031030
  27 H :    0.011886
  28 C :   -0.064363
  29 H :    0.032431
  30 H :    0.028948
  31 H :    0.024375
  32 H :    0.046858
  33 H :    0.034511

  Mayer bond orders larger than 0.100000
B(  0-S ,  1-C ) :   1.1347 B(  0-S ,  4-C ) :   1.1498 B(  1-C ,  2-C ) :   1.6288
B(  1-C , 32-H ) :   0.9566 B(  2-C ,  3-C ) :   1.2276 B(  2-C ,  6-C ) :   1.0005
B(  3-C ,  4-C ) :   1.5528 B(  3-C ,  5-H ) :   1.0077 B(  4-C , 20-C ) :   1.0345
B(  6-C ,  7-H ) :   0.9466 B(  6-C ,  8-H ) :   0.9359 B(  6-C ,  9-C ) :   1.0725
B(  9-C , 10-H ) :   0.9553 B(  9-C , 11-H ) :   0.9582 B(  9-C , 12-C ) :   1.0582
B( 12-C , 13-H ) :   0.9773 B( 12-C , 14-H ) :   0.9756 B( 12-C , 15-H ) :   0.9748
B( 16-S , 17-C ) :   1.1499 B( 16-S , 20-C ) :   1.1647 B( 17-C , 18-C ) :   1.5922
B( 17-C , 20-C ) :   0.1084 B( 17-C , 33-H ) :   0.9683 B( 18-C , 19-C ) :   1.2512
B( 18-C , 21-H ) :   0.9989 B( 19-C , 20-C ) :   1.5616 B( 19-C , 22-C ) :   1.0490
B( 22-C , 23-H ) :   0.9271 B( 22-C , 24-H ) :   0.9300 B( 22-C , 25-C ) :   1.0686
B( 25-C , 26-H ) :   0.9517 B( 25-C , 27-H ) :   0.9576 B( 25-C , 28-C ) :   1.0759
B( 28-C , 29-H ) :   0.9749 B( 28-C , 30-H ) :   0.9730 B( 28-C , 31-H ) :   0.9745

Dispersion correction           -0.014029408
FINAL SINGLE POINT ENERGY     -1339.850056585825

DIPOLE MOMENT
-------------
                                X             Y             Z
Electronic contribution:     -3.41297      18.85213     -13.16288
Nuclear contribution   :      3.73616     -19.38325      13.35896
                        -----------------------------------------
Total Dipole Moment    :      0.32319      -0.53112       0.19608
                        -----------------------------------------
Magnitude (a.u.)       :      0.65191
Magnitude (Debye)      :      1.65702

Rotational constants in cm-1:     0.019201     0.008036     0.006464
Rotational constants in MHz :   575.619065   240.919280   193.776056

                             ****ORCA TERMINATED NORMALLY****
TOTAL RUN TIME: 0 days 0 hours 0 minutes 29 seconds 881 msec
