                         Program Version 4.2.1 -  RELEASE  -
|  1> ! wB97X-D3 SP def2-SVP
|  2> %pal
|  3> nprocs 16
|  4> end
|  5>
|  6> * xyz 0 1
|  7> S 	 -107.265 	 58.7805 	 115.98
|  8> C 	 -107.186 	 58.6651 	 114.223
|  9> C 	 -107.017 	 57.3969 	 113.742
| 10> C 	 -106.953 	 56.449 	 114.78
| 11> C 	 -106.998 	 56.9861 	 116.048
| 12> H 	 -106.879 	 55.2862 	 114.764
| 13> C 	 -106.943 	 57.1003 	 112.319
| 14> H 	 -106.143 	 56.332 	 112.189
| 15> H 	 -106.658 	 58.0897 	 111.836
| 16> C 	 -108.378 	 56.592 	 111.865
| 17> H 	 -108.394 	 56.3986 	 110.795
| 18> H 	 -108.592 	 55.6893 	 112.321
| 19> C 	 -109.562 	 57.5859 	 112.14
| 20> H 	 -110.266 	 57.1173 	 111.535
| 21> H 	 -109.795 	 57.5319 	 113.213
| 22> H 	 -109.359 	 58.5289 	 111.721
| 23> S 	 -105.462 	 56.8471 	 118.396
| 24> C 	 -105.657 	 55.4725 	 119.414
| 25> C 	 -106.829 	 54.8044 	 119.131
| 26> C 	 -107.425 	 55.1927 	 117.925
| 27> C 	 -106.765 	 56.2601 	 117.303
| 28> H 	 -107.221 	 53.9537 	 119.715
| 29> C 	 -108.648 	 54.5557 	 117.342
| 30> H 	 -109.22 	 55.3597 	 116.707
| 31> H 	 -109.297 	 54.2843 	 118.131
| 32> C 	 -108.397 	 53.2836 	 116.51
| 33> H 	 -107.928 	 52.5947 	 117.154
| 34> H 	 -107.638 	 53.3029 	 115.679
| 35> C 	 -109.705 	 52.6657 	 115.934
| 36> H 	 -109.439 	 51.7241 	 115.438
| 37> H 	 -110.148 	 53.285 	 115.193
| 38> H 	 -110.442 	 52.4903 	 116.688
| 39> H 	 -107.259 	 59.4903 	 113.541
| 40> H 	 -105.281 	 55.3099 	 120.44
| 41> *
| 42>
| 43>                          ****END OF INPUT****

CARTESIAN COORDINATES (ANGSTROEM)
---------------------------------
  S    -107.265000   58.780500  115.980000
  C    -107.186000   58.665100  114.223000
  C    -107.017000   57.396900  113.742000
  C    -106.953000   56.449000  114.780000
  C    -106.998000   56.986100  116.048000
  H    -106.879000   55.286200  114.764000
  C    -106.943000   57.100300  112.319000
  H    -106.143000   56.332000  112.189000
  H    -106.658000   58.089700  111.836000
  C    -108.378000   56.592000  111.865000
  H    -108.394000   56.398600  110.795000
  H    -108.592000   55.689300  112.321000
  C    -109.562000   57.585900  112.140000
  H    -110.266000   57.117300  111.535000
  H    -109.795000   57.531900  113.213000
  H    -109.359000   58.528900  111.721000
  S    -105.462000   56.847100  118.396000
  C    -105.657000   55.472500  119.414000
  C    -106.829000   54.804400  119.131000
  C    -107.425000   55.192700  117.925000
  C    -106.765000   56.260100  117.303000
  H    -107.221000   53.953700  119.715000
  C    -108.648000   54.555700  117.342000
  H    -109.220000   55.359700  116.707000
  H    -109.297000   54.284300  118.131000
  C    -108.397000   53.283600  116.510000
  H    -107.928000   52.594700  117.154000
  H    -107.638000   53.302900  115.679000
  C    -109.705000   52.665700  115.934000
  H    -109.439000   51.724100  115.438000
  H    -110.148000   53.285000  115.193000
  H    -110.442000   52.490300  116.688000
  H    -107.259000   59.490300  113.541000
  H    -105.281000   55.309900  120.440000

 Total Charge           Charge          ....    0
 Multiplicity           Mult            ....    1
 Number of Electrons    NEL             ....  134
 Basis Dimension        Dim             ....  322

ORBITAL ENERGIES
----------------

  NO   OCC          E(Eh)            E(eV)
   0   2.0000     -88.967230     -2420.9214
   1   2.0000     -88.966411     -2420.8991
   2   2.0000     -10.332888      -281.1722
   3   2.0000     -10.329368      -281.0764
   4   2.0000     -10.315925      -280.7106
   5   2.0000     -10.310202      -280.5549
   6   2.0000     -10.300586      -280.2932
   7   2.0000     -10.300327      -280.2861
   8   2.0000     -10.297690      -280.2144
   9   2.0000     -10.295633      -280.1584
  10   2.0000     -10.293103      -280.0896
  11   2.0000     -10.292119      -280.0628
  12   2.0000     -10.289925      -280.0031
  13   2.0000     -10.285635      -279.8864
  14   2.0000     -10.276721      -279.6438
  15   2.0000     -10.271080      -279.4903
  16   2.0000      -8.080743      -219.8882
  17   2.0000      -8.080703      -219.8871
  18   2.0000      -6.039269      -164.3369
  19   2.0000      -6.039186      -164.3346
  20   2.0000      -6.035626      -164.2377
  21   2.0000      -6.035366      -164.2307
  22   2.0000      -6.031500      -164.1255
  23   2.0000      -6.031268      -164.1191
  24   2.0000      -1.003125       -27.2964
  25   2.0000      -0.985196       -26.8085
  26   2.0000      -0.911593       -24.8057
  27   2.0000      -0.909131       -24.7387
  28   2.0000      -0.865622       -23.5548
  29   2.0000      -0.853261       -23.2184
  30   2.0000      -0.847599       -23.0643
  31   2.0000      -0.815236       -22.1837
  32   2.0000      -0.783029       -21.3073
  33   2.0000      -0.770202       -20.9583
  34   2.0000      -0.711998       -19.3745
  35   2.0000      -0.701770       -19.0961
  36   2.0000      -0.694865       -18.9082
  37   2.0000      -0.658934       -17.9305
  38   2.0000      -0.638136       -17.3646
  39   2.0000      -0.611583       -16.6420
  40   2.0000      -0.594032       -16.1644
  41   2.0000      -0.568851       -15.4792
  42   2.0000      -0.559616       -15.2279
  43   2.0000      -0.547066       -14.8864
  44   2.0000      -0.543744       -14.7960
  45   2.0000      -0.526880       -14.3371
  46   2.0000      -0.517733       -14.0882
  47   2.0000      -0.510750       -13.8982
  48   2.0000      -0.504954       -13.7405
  49   2.0000      -0.496152       -13.5010
  50   2.0000      -0.484627       -13.1874
  51   2.0000      -0.476460       -12.9651
  52   2.0000      -0.472131       -12.8473
  53   2.0000      -0.467534       -12.7222
  54   2.0000      -0.462270       -12.5790
  55   2.0000      -0.448067       -12.1925
  56   2.0000      -0.443582       -12.0705
  57   2.0000      -0.436935       -11.8896
  58   2.0000      -0.435598       -11.8532
  59   2.0000      -0.428710       -11.6658
  60   2.0000      -0.423384       -11.5209
  61   2.0000      -0.418996       -11.4015
  62   2.0000      -0.413874       -11.2621
  63   2.0000      -0.343652        -9.3512
  64   2.0000      -0.331929        -9.0322
  65   2.0000      -0.328554        -8.9404
  66   2.0000      -0.292198        -7.9511
  67   0.0000       0.027777         0.7559
  68   0.0000       0.060104         1.6355
  69   0.0000       0.112558         3.0629
  70   0.0000       0.116106         3.1594
  71   0.0000       0.126868         3.4522

MULLIKEN ATOMIC CHARGES
-----------------------
   0 S :    0.106224
   1 C :   -0.108058
   2 C :   -0.088530
   3 C :    0.005797
   4 C :   -0.166158
   5 H :    0.041343
   6 C :    0.056587
   7 H :    0.042577
   8 H :    0.032065
   9 C :   -0.084934
  10 H :    0.026990
  11 H :    0.012482
  12 C :   -0.011774
  13 H :    0.017594
  14 H :    0.061497
  15 H :    0.021669
  16 S :    0.111406
  17 C :   -0.077819
  18 C :   -0.068348
  19 C :   -0.011071
  20 C :   -0.181025
  21 H :    0.026563
  22 C :    0.049523
  23 H :    0.049763
  24 H :    0.011314
  25 C :   -0.078150
  26 H :    0.008437
  27 H :    0.029243
  28 C :   -0.022829
  29 H :    0.033776
  30 H :    0.025577
  31 H :    0.025151
  32 H :    0.033148
  33 H :    0.069970
Sum of atomic charges:   -0.0000000

LOEWDIN ATOMIC CHARGES
----------------------
   0 S :    0.367632
   1 C :   -0.185723
   2 C :   -0.075224
   3 C :   -0.066173
   4 C :   -0.177025
   5 H :    0.049448
   6 C :   -0.035402
   7 H :    0.037012
   8 H :    0.036637
   9 C :   -0.025597
  10 H :    0.020202
  11 H :    0.011846
  12 C :   -0.051057
  13 H :    0.021180
  14 H :    0.033574
  15 H :    0.017253
  16 S :    0.404879
  17 C :   -0.204668
  18 C :   -0.078957
  19 C :   -0.058618
  20 C :   -0.185034
  21 H :    0.034991
  22 C :   -0.034163
  23 H :    0.041923
  24 H :    0.025471
  25 C :   -0.039734
  26 H :    0.015723
  27 H :    0.025032
  28 C :   -0.058527
  29 H :    0.029787
  30 H :    0.020139
  31 H :    0.020479
  32 H :    0.022295
  33 H :    0.040400

  Mayer bond orders larger than 0.100000
B(  0-S ,  1-C ) :   1.1207 B(  0-S ,  4-C ) :   1.1216 B(  1-C ,  2-C ) :   1.6355
B(  1-C , 32-H ) :   0.9608 B(  2-C ,  3-C ) :   1.2103 B(  2-C ,  6-C ) :   1.0280
B(  3-C ,  4-C ) :   1.6155 B(  3-C ,  5-H ) :   0.9709 B(  4-C , 20-C ) :   1.0556
B(  6-C ,  7-H ) :   0.9396 B(  6-C ,  8-H ) :   0.9415 B(  6-C ,  9-C ) :   1.0495
B(  9-C , 10-H ) :   0.9653 B(  9-C , 11-H ) :   0.9595 B(  9-C , 12-C ) :   1.0680
B( 12-C , 13-H ) :   0.9727 B( 12-C , 14-H ) :   0.9736 B( 12-C , 15-H ) :   0.9776
B( 16-S , 17-C ) :   1.1695 B( 16-S , 20-C ) :   1.1330 B( 17-C , 18-C ) :   1.5892
B( 17-C , 20-C ) :   0.1053 B( 17-C , 33-H ) :   0.9542 B( 18-C , 19-C ) :   1.2828
B( 18-C , 21-H ) :   0.9789 B( 19-C , 20-C ) :   1.5665 B( 19-C , 22-C ) :   1.0507
B( 22-C , 23-H ) :   0.9350 B( 22-C , 24-H ) :   0.9267 B( 22-C , 25-C ) :   1.0551
B( 25-C , 26-H ) :   0.9494 B( 25-C , 27-H ) :   0.9530 B( 25-C , 28-C ) :   1.0830
B( 28-C , 29-H ) :   0.9738 B( 28-C , 30-H ) :   0.9770 B( 28-C , 31-H ) :   0.9748

Dispersion correction           -0.015038664
FINAL SINGLE POINT ENERGY     -1339.863432282831

DIPOLE MOMENT
-------------
                                X             Y             Z
Electronic contribution:     16.40186      16.33049      18.78453
Nuclear contribution   :    -16.80307     -16.89788     -19.11745
                        -----------------------------------------
Total Dipole Moment    :     -0.40120      -0.56739      -0.33292
                        -----------------------------------------
Magnitude (a.u.)       :      0.77054
Magnitude (Debye)      :      1.95856

Rotational constants in cm-1:     0.017910     0.009822     0.006993
Rotational constants in MHz :   536.928744   294.455266   209.659736

                             ****ORCA TERMINATED NORMALLY****
TOTAL RUN TIME: 0 days 0 hours 0 minutes 37 seconds 80 msec
