                         Program Version 4.2.1 -  RELEASE  -
|  1> ! wB97X-D3 SP def2-SVP
|  2> %pal
|  3> nprocs 16
|  4> end
|  5>
|  6> * xyz 0 1
|  7> S 	 -25.607 	 50.3007 	 64.7299
|  8> C 	 -24.8294 	 49.9771 	 63.2379
|  9> C 	 -23.4819 	 49.6957 	 63.3494
| 10> C 	 -23.0755 	 49.7925 	 64.7008
| 11> C 	 -24.0663 	 50.1707 	 65.5658
| 12> H 	 -22.115 	 49.4962 	 65.1103
| 13> C 	 -22.4916 	 49.2609 	 62.21
| 14> H 	 -21.8679 	 50.0696 	 61.9612
| 15> H 	 -23.1821 	 49.1434 	 61.3766
| 16> C 	 -21.5929 	 47.9645 	 62.1383
| 17> H 	 -21.0649 	 48.0081 	 61.1482
| 18> H 	 -20.7666 	 48.1205 	 62.8551
| 19> C 	 -22.3066 	 46.64 	 62.6359
| 20> H 	 -22.8955 	 46.9142 	 63.5266
| 21> H 	 -22.9128 	 46.2566 	 61.8372
| 22> H 	 -21.634 	 45.8195 	 63.0165
| 23> S 	 -23.2194 	 51.6012 	 67.7018
| 24> C 	 -23.5731 	 50.9067 	 69.3196
| 25> C 	 -24.3836 	 49.7751 	 69.2324
| 26> C 	 -24.7213 	 49.4678 	 67.9303
| 27> C 	 -24.0397 	 50.2384 	 67.0104
| 28> H 	 -24.8107 	 49.2323 	 70.0815
| 29> C 	 -25.6567 	 48.3451 	 67.6291
| 30> H 	 -26.3942 	 48.6769 	 66.8697
| 31> H 	 -26.1468 	 47.9985 	 68.5939
| 32> C 	 -24.908 	 47.1545 	 67.0068
| 33> H 	 -24.0275 	 47.0314 	 67.5318
| 34> H 	 -24.7292 	 47.4066 	 65.8869
| 35> C 	 -25.5141 	 45.7731 	 66.8821
| 36> H 	 -25.7982 	 45.2973 	 67.8187
| 37> H 	 -24.7988 	 45.1295 	 66.3486
| 38> H 	 -26.4735 	 45.864 	 66.2448
| 39> H 	 -25.4498 	 49.9418 	 62.3101
| 40> H 	 -23.1576 	 51.1869 	 70.2771
| 41> *
| 42>
| 43>                          ****END OF INPUT****

CARTESIAN COORDINATES (ANGSTROEM)
---------------------------------
  S    -25.607000   50.300700   64.729900
  C    -24.829400   49.977100   63.237900
  C    -23.481900   49.695700   63.349400
  C    -23.075500   49.792500   64.700800
  C    -24.066300   50.170700   65.565800
  H    -22.115000   49.496200   65.110300
  C    -22.491600   49.260900   62.210000
  H    -21.867900   50.069600   61.961200
  H    -23.182100   49.143400   61.376600
  C    -21.592900   47.964500   62.138300
  H    -21.064900   48.008100   61.148200
  H    -20.766600   48.120500   62.855100
  C    -22.306600   46.640000   62.635900
  H    -22.895500   46.914200   63.526600
  H    -22.912800   46.256600   61.837200
  H    -21.634000   45.819500   63.016500
  S    -23.219400   51.601200   67.701800
  C    -23.573100   50.906700   69.319600
  C    -24.383600   49.775100   69.232400
  C    -24.721300   49.467800   67.930300
  C    -24.039700   50.238400   67.010400
  H    -24.810700   49.232300   70.081500
  C    -25.656700   48.345100   67.629100
  H    -26.394200   48.676900   66.869700
  H    -26.146800   47.998500   68.593900
  C    -24.908000   47.154500   67.006800
  H    -24.027500   47.031400   67.531800
  H    -24.729200   47.406600   65.886900
  C    -25.514100   45.773100   66.882100
  H    -25.798200   45.297300   67.818700
  H    -24.798800   45.129500   66.348600
  H    -26.473500   45.864000   66.244800
  H    -25.449800   49.941800   62.310100
  H    -23.157600   51.186900   70.277100

 Total Charge           Charge          ....    0
 Multiplicity           Mult            ....    1
 Number of Electrons    NEL             ....  134
 Basis Dimension        Dim             ....  322

ORBITAL ENERGIES
----------------

  NO   OCC          E(Eh)            E(eV)
   0   2.0000     -88.971020     -2421.0245
   1   2.0000     -88.967669     -2420.9334
   2   2.0000     -10.323493      -280.9165
   3   2.0000     -10.319524      -280.8085
   4   2.0000     -10.318533      -280.7816
   5   2.0000     -10.317829      -280.7624
   6   2.0000     -10.306045      -280.4417
   7   2.0000     -10.301102      -280.3072
   8   2.0000     -10.294093      -280.1165
   9   2.0000     -10.294066      -280.1158
  10   2.0000     -10.293146      -280.0907
  11   2.0000     -10.291860      -280.0558
  12   2.0000     -10.290983      -280.0319
  13   2.0000     -10.285573      -279.8847
  14   2.0000     -10.280812      -279.7551
  15   2.0000     -10.279451      -279.7181
  16   2.0000      -8.084888      -220.0010
  17   2.0000      -8.082758      -219.9430
  18   2.0000      -6.043375      -164.4486
  19   2.0000      -6.041069      -164.3858
  20   2.0000      -6.039590      -164.3456
  21   2.0000      -6.037267      -164.2824
  22   2.0000      -6.035657      -164.2386
  23   2.0000      -6.033667      -164.1844
  24   2.0000      -1.011808       -27.5327
  25   2.0000      -0.987684       -26.8763
  26   2.0000      -0.908324       -24.7168
  27   2.0000      -0.898965       -24.4621
  28   2.0000      -0.869995       -23.6738
  29   2.0000      -0.852805       -23.2060
  30   2.0000      -0.847281       -23.0557
  31   2.0000      -0.812439       -22.1076
  32   2.0000      -0.784230       -21.3400
  33   2.0000      -0.768977       -20.9249
  34   2.0000      -0.706634       -19.2285
  35   2.0000      -0.693558       -18.8727
  36   2.0000      -0.679831       -18.4991
  37   2.0000      -0.669222       -18.2104
  38   2.0000      -0.643210       -17.5026
  39   2.0000      -0.616735       -16.7822
  40   2.0000      -0.594495       -16.1770
  41   2.0000      -0.567303       -15.4371
  42   2.0000      -0.557433       -15.1685
  43   2.0000      -0.549018       -14.9395
  44   2.0000      -0.537583       -14.6284
  45   2.0000      -0.519955       -14.1487
  46   2.0000      -0.516210       -14.0468
  47   2.0000      -0.509377       -13.8608
  48   2.0000      -0.501535       -13.6474
  49   2.0000      -0.497527       -13.5384
  50   2.0000      -0.487139       -13.2557
  51   2.0000      -0.475801       -12.9472
  52   2.0000      -0.471526       -12.8309
  53   2.0000      -0.469947       -12.7879
  54   2.0000      -0.459223       -12.4961
  55   2.0000      -0.448866       -12.2143
  56   2.0000      -0.447577       -12.1792
  57   2.0000      -0.435412       -11.8482
  58   2.0000      -0.433873       -11.8063
  59   2.0000      -0.429206       -11.6793
  60   2.0000      -0.415432       -11.3045
  61   2.0000      -0.406809       -11.0698
  62   2.0000      -0.405682       -11.0392
  63   2.0000      -0.340594        -9.2680
  64   2.0000      -0.339429        -9.2363
  65   2.0000      -0.326542        -8.8856
  66   2.0000      -0.295715        -8.0468
  67   0.0000       0.031446         0.8557
  68   0.0000       0.064965         1.7678
  69   0.0000       0.104977         2.8566
  70   0.0000       0.112821         3.0700
  71   0.0000       0.129899         3.5347

MULLIKEN ATOMIC CHARGES
-----------------------
   0 S :    0.117330
   1 C :   -0.153926
   2 C :   -0.077926
   3 C :    0.039617
   4 C :   -0.185660
   5 H :    0.012738
   6 C :    0.076534
   7 H :    0.033434
   8 H :    0.009521
   9 C :   -0.092570
  10 H :    0.045356
  11 H :    0.026086
  12 C :   -0.070328
  13 H :    0.047232
  14 H :    0.040329
  15 H :    0.044444
  16 S :    0.131762
  17 C :   -0.084314
  18 C :   -0.052182
  19 C :   -0.018038
  20 C :   -0.179286
  21 H :    0.022058
  22 C :    0.092704
  23 H :    0.030712
  24 H :    0.023465
  25 C :   -0.114227
  26 H :    0.014640
  27 H :    0.058060
  28 C :   -0.050832
  29 H :    0.027210
  30 H :    0.041355
  31 H :    0.031881
  32 H :    0.063064
  33 H :    0.049760
Sum of atomic charges:   -0.0000000

LOEWDIN ATOMIC CHARGES
----------------------
   0 S :    0.424952
   1 C :   -0.207175
   2 C :   -0.069810
   3 C :   -0.057617
   4 C :   -0.198431
   5 H :    0.033748
   6 C :   -0.031017
   7 H :    0.027277
   8 H :    0.026616
   9 C :   -0.044780
  10 H :    0.034477
  11 H :    0.020423
  12 C :   -0.071286
  13 H :    0.031979
  14 H :    0.021830
  15 H :    0.033030
  16 S :    0.412814
  17 C :   -0.177495
  18 C :   -0.067264
  19 C :   -0.063301
  20 C :   -0.209035
  21 H :    0.035848
  22 C :   -0.035236
  23 H :    0.026122
  24 H :    0.033569
  25 C :   -0.048146
  26 H :    0.010826
  27 H :    0.038575
  28 C :   -0.069664
  29 H :    0.016516
  30 H :    0.030581
  31 H :    0.030589
  32 H :    0.033789
  33 H :    0.026695

  Mayer bond orders larger than 0.100000
B(  0-S ,  1-C ) :   1.1647 B(  0-S ,  4-C ) :   1.1447 B(  1-C ,  2-C ) :   1.6083
B(  1-C , 32-H ) :   0.9578 B(  2-C ,  3-C ) :   1.2370 B(  2-C ,  6-C ) :   1.0001
B(  3-C ,  4-C ) :   1.6026 B(  3-C ,  5-H ) :   0.9951 B(  4-C , 20-C ) :   1.0140
B(  6-C ,  7-H ) :   0.9412 B(  6-C ,  8-H ) :   0.9438 B(  6-C ,  9-C ) :   1.0676
B(  9-C , 10-H ) :   0.9553 B(  9-C , 11-H ) :   0.9577 B(  9-C , 12-C ) :   1.0539
B( 12-C , 13-H ) :   0.9729 B( 12-C , 14-H ) :   0.9814 B( 12-C , 15-H ) :   0.9777
B( 16-S , 17-C ) :   1.1485 B( 16-S , 20-C ) :   1.1634 B( 17-C , 18-C ) :   1.5947
B( 17-C , 20-C ) :   0.1142 B( 17-C , 33-H ) :   0.9653 B( 18-C , 19-C ) :   1.2848
B( 18-C , 21-H ) :   0.9796 B( 19-C , 20-C ) :   1.5557 B( 19-C , 22-C ) :   1.0602
B( 22-C , 23-H ) :   0.9171 B( 22-C , 24-H ) :   0.9306 B( 22-C , 25-C ) :   1.0620
B( 25-C , 26-H ) :   0.9588 B( 25-C , 27-H ) :   0.9475 B( 25-C , 28-C ) :   1.0958
B( 28-C , 29-H ) :   0.9728 B( 28-C , 30-H ) :   0.9718 B( 28-C , 31-H ) :   0.9722

Dispersion correction           -0.015456269
FINAL SINGLE POINT ENERGY     -1339.865038439555

DIPOLE MOMENT
-------------
                                X             Y             Z
Electronic contribution:     -3.84836      25.10273       9.90986
Nuclear contribution   :      3.99305     -25.60627     -10.01973
                        -----------------------------------------
Total Dipole Moment    :      0.14469      -0.50354      -0.10987
                        -----------------------------------------
Magnitude (a.u.)       :      0.53531
Magnitude (Debye)      :      1.36065

Rotational constants in cm-1:     0.018146     0.009420     0.007909
Rotational constants in MHz :   544.002914   282.393017   237.102267

                             ****ORCA TERMINATED NORMALLY****
TOTAL RUN TIME: 0 days 0 hours 0 minutes 34 seconds 462 msec
