                         Program Version 4.2.1 -  RELEASE  -
|  1> ! wB97X-D3 SP def2-SVP
|  2> %pal
|  3> nprocs 16
|  4> end
|  5>
|  6> * xyz 0 1
|  7> S 	 -91.6361 	 41.9611 	 118.682
|  8> C 	 -91.6435 	 40.215 	 118.717
|  9> C 	 -90.5864 	 39.669 	 118.08
| 10> C 	 -89.809 	 40.663 	 117.434
| 11> C 	 -90.2638 	 41.9661 	 117.538
| 12> H 	 -88.9622 	 40.4062 	 116.768
| 13> C 	 -90.2547 	 38.1873 	 118.009
| 14> H 	 -90.1336 	 37.9546 	 116.917
| 15> H 	 -91.133 	 37.5898 	 118.325
| 16> C 	 -88.9732 	 37.7148 	 118.659
| 17> H 	 -88.1521 	 38.1528 	 118.187
| 18> H 	 -88.8966 	 38.1313 	 119.662
| 19> C 	 -88.9099 	 36.1357 	 118.658
| 20> H 	 -88.2451 	 35.7954 	 119.46
| 21> H 	 -89.8608 	 35.6107 	 118.957
| 22> H 	 -88.5048 	 35.705 	 117.709
| 23> S 	 -91.1968 	 44.0604 	 116.107
| 24> C 	 -90.0598 	 45.209 	 115.388
| 25> C 	 -88.7687 	 44.7945 	 115.613
| 26> C 	 -88.671 	 43.6227 	 116.436
| 27> C 	 -89.9168 	 43.2047 	 116.913
| 28> H 	 -87.9278 	 45.3158 	 115.208
| 29> C 	 -87.2749 	 42.9779 	 116.64
| 30> H 	 -86.8606 	 42.6502 	 115.735
| 31> H 	 -87.46 	 42.0311 	 117.257
| 32> C 	 -86.286 	 43.8971 	 117.459
| 33> H 	 -86.6966 	 44.1235 	 118.388
| 34> H 	 -86.0219 	 44.7993 	 116.929
| 35> C 	 -84.9834 	 43.0957 	 117.717
| 36> H 	 -84.2122 	 43.7225 	 118.217
| 37> H 	 -84.4987 	 42.8241 	 116.799
| 38> H 	 -85.1025 	 42.2467 	 118.334
| 39> H 	 -92.3535 	 39.6196 	 119.234
| 40> H 	 -90.3952 	 46.0401 	 114.791
| 41> *
| 42>
| 43>                          ****END OF INPUT****

CARTESIAN COORDINATES (ANGSTROEM)
---------------------------------
  S    -91.636100   41.961100  118.682000
  C    -91.643500   40.215000  118.717000
  C    -90.586400   39.669000  118.080000
  C    -89.809000   40.663000  117.434000
  C    -90.263800   41.966100  117.538000
  H    -88.962200   40.406200  116.768000
  C    -90.254700   38.187300  118.009000
  H    -90.133600   37.954600  116.917000
  H    -91.133000   37.589800  118.325000
  C    -88.973200   37.714800  118.659000
  H    -88.152100   38.152800  118.187000
  H    -88.896600   38.131300  119.662000
  C    -88.909900   36.135700  118.658000
  H    -88.245100   35.795400  119.460000
  H    -89.860800   35.610700  118.957000
  H    -88.504800   35.705000  117.709000
  S    -91.196800   44.060400  116.107000
  C    -90.059800   45.209000  115.388000
  C    -88.768700   44.794500  115.613000
  C    -88.671000   43.622700  116.436000
  C    -89.916800   43.204700  116.913000
  H    -87.927800   45.315800  115.208000
  C    -87.274900   42.977900  116.640000
  H    -86.860600   42.650200  115.735000
  H    -87.460000   42.031100  117.257000
  C    -86.286000   43.897100  117.459000
  H    -86.696600   44.123500  118.388000
  H    -86.021900   44.799300  116.929000
  C    -84.983400   43.095700  117.717000
  H    -84.212200   43.722500  118.217000
  H    -84.498700   42.824100  116.799000
  H    -85.102500   42.246700  118.334000
  H    -92.353500   39.619600  119.234000
  H    -90.395200   46.040100  114.791000

 Total Charge           Charge          ....    0
 Multiplicity           Mult            ....    1
 Number of Electrons    NEL             ....  134
 Basis Dimension        Dim             ....  322

ORBITAL ENERGIES
----------------

  NO   OCC          E(Eh)            E(eV)
   0   2.0000     -88.964667     -2420.8517
   1   2.0000     -88.960968     -2420.7510
   2   2.0000     -10.330544      -281.1084
   3   2.0000     -10.325659      -280.9755
   4   2.0000     -10.319615      -280.8110
   5   2.0000     -10.306954      -280.4665
   6   2.0000     -10.306335      -280.4496
   7   2.0000     -10.298611      -280.2394
   8   2.0000     -10.295532      -280.1557
   9   2.0000     -10.295252      -280.1480
  10   2.0000     -10.294899      -280.1384
  11   2.0000     -10.293440      -280.0987
  12   2.0000     -10.290520      -280.0193
  13   2.0000     -10.286699      -279.9153
  14   2.0000     -10.285823      -279.8915
  15   2.0000     -10.274552      -279.5848
  16   2.0000      -8.079460      -219.8533
  17   2.0000      -8.075587      -219.7479
  18   2.0000      -6.038000      -164.3023
  19   2.0000      -6.034120      -164.1967
  20   2.0000      -6.033989      -164.1932
  21   2.0000      -6.030174      -164.0894
  22   2.0000      -6.030110      -164.0876
  23   2.0000      -6.026276      -163.9833
  24   2.0000      -1.007460       -27.4144
  25   2.0000      -0.983780       -26.7700
  26   2.0000      -0.910892       -24.7866
  27   2.0000      -0.903136       -24.5756
  28   2.0000      -0.873434       -23.7673
  29   2.0000      -0.849608       -23.1190
  30   2.0000      -0.840856       -22.8809
  31   2.0000      -0.813710       -22.1422
  32   2.0000      -0.779397       -21.2085
  33   2.0000      -0.770306       -20.9611
  34   2.0000      -0.714005       -19.4291
  35   2.0000      -0.705179       -19.1889
  36   2.0000      -0.698764       -19.0143
  37   2.0000      -0.664235       -18.0747
  38   2.0000      -0.640191       -17.4205
  39   2.0000      -0.621421       -16.9097
  40   2.0000      -0.596901       -16.2425
  41   2.0000      -0.571550       -15.5527
  42   2.0000      -0.568977       -15.4826
  43   2.0000      -0.558153       -15.1881
  44   2.0000      -0.521780       -14.1984
  45   2.0000      -0.520602       -14.1663
  46   2.0000      -0.516955       -14.0671
  47   2.0000      -0.508253       -13.8303
  48   2.0000      -0.502793       -13.6817
  49   2.0000      -0.500613       -13.6224
  50   2.0000      -0.487976       -13.2785
  51   2.0000      -0.481026       -13.0894
  52   2.0000      -0.472544       -12.8586
  53   2.0000      -0.465883       -12.6773
  54   2.0000      -0.459404       -12.5010
  55   2.0000      -0.446103       -12.1391
  56   2.0000      -0.445782       -12.1304
  57   2.0000      -0.440907       -11.9977
  58   2.0000      -0.436908       -11.8889
  59   2.0000      -0.426798       -11.6138
  60   2.0000      -0.420591       -11.4449
  61   2.0000      -0.418939       -11.3999
  62   2.0000      -0.415780       -11.3140
  63   2.0000      -0.354002        -9.6329
  64   2.0000      -0.329402        -8.9635
  65   2.0000      -0.327231        -8.9044
  66   2.0000      -0.290239        -7.8978
  67   0.0000       0.024691         0.6719
  68   0.0000       0.077042         2.0964
  69   0.0000       0.108544         2.9536
  70   0.0000       0.116926         3.1817
  71   0.0000       0.131111         3.5677

MULLIKEN ATOMIC CHARGES
-----------------------
   0 S :    0.090125
   1 C :   -0.106529
   2 C :   -0.067276
   3 C :    0.014844
   4 C :   -0.168354
   5 H :    0.020888
   6 C :    0.033135
   7 H :    0.033796
   8 H :    0.020615
   9 C :   -0.029936
  10 H :    0.012102
  11 H :    0.027530
  12 C :   -0.083526
  13 H :    0.032731
  14 H :    0.040203
  15 H :    0.048314
  16 S :    0.102437
  17 C :   -0.090834
  18 C :   -0.012025
  19 C :   -0.051963
  20 C :   -0.103068
  21 H :    0.012565
  22 C :    0.037349
  23 H :    0.024477
  24 H :    0.028293
  25 C :   -0.035868
  26 H :    0.025332
  27 H :    0.031320
  28 C :   -0.049668
  29 H :    0.029783
  30 H :    0.018956
  31 H :    0.027242
  32 H :    0.027524
  33 H :    0.059487
Sum of atomic charges:   -0.0000000

LOEWDIN ATOMIC CHARGES
----------------------
   0 S :    0.382731
   1 C :   -0.185389
   2 C :   -0.071427
   3 C :   -0.067868
   4 C :   -0.177351
   5 H :    0.032298
   6 C :   -0.034759
   7 H :    0.036086
   8 H :    0.029526
   9 C :   -0.036049
  10 H :    0.016481
  11 H :    0.025219
  12 C :   -0.073346
  13 H :    0.027545
  14 H :    0.031426
  15 H :    0.030783
  16 S :    0.409549
  17 C :   -0.172868
  18 C :   -0.066528
  19 C :   -0.050310
  20 C :   -0.214816
  21 H :    0.027767
  22 C :   -0.026902
  23 H :    0.021428
  24 H :    0.036342
  25 C :   -0.023033
  26 H :    0.019493
  27 H :    0.021563
  28 C :   -0.063675
  29 H :    0.028982
  30 H :    0.019553
  31 H :    0.018115
  32 H :    0.021121
  33 H :    0.028311

  Mayer bond orders larger than 0.100000
B(  0-S ,  1-C ) :   1.1268 B(  0-S ,  4-C ) :   1.1348 B(  1-C ,  2-C ) :   1.6424
B(  1-C , 32-H ) :   0.9674 B(  2-C ,  3-C ) :   1.2346 B(  2-C ,  6-C ) :   1.0209
B(  3-C ,  4-C ) :   1.5865 B(  3-C ,  5-H ) :   0.9815 B(  4-C , 20-C ) :   1.0452
B(  6-C ,  7-H ) :   0.9382 B(  6-C ,  8-H ) :   0.9468 B(  6-C ,  9-C ) :   1.0597
B(  9-C , 10-H ) :   0.9506 B(  9-C , 11-H ) :   0.9584 B(  9-C , 12-C ) :   1.0699
B( 12-C , 13-H ) :   0.9768 B( 12-C , 14-H ) :   0.9767 B( 12-C , 15-H ) :   0.9773
B( 16-S , 17-C ) :   1.1522 B( 16-S , 20-C ) :   1.1438 B( 17-C , 18-C ) :   1.5893
B( 17-C , 33-H ) :   0.9733 B( 18-C , 19-C ) :   1.2459 B( 18-C , 21-H ) :   0.9962
B( 19-C , 20-C ) :   1.5829 B( 19-C , 22-C ) :   1.0346 B( 22-C , 23-H ) :   0.9416
B( 22-C , 24-H ) :   0.9374 B( 22-C , 25-C ) :   1.0612 B( 25-C , 26-H ) :   0.9561
B( 25-C , 27-H ) :   0.9583 B( 25-C , 28-C ) :   1.0876 B( 28-C , 29-H ) :   0.9736
B( 28-C , 30-H ) :   0.9743 B( 28-C , 31-H ) :   0.9773

Dispersion correction           -0.013353130
FINAL SINGLE POINT ENERGY     -1339.882462017476

DIPOLE MOMENT
-------------
                                X             Y             Z
Electronic contribution:    -24.64195      18.95861      -3.72384
Nuclear contribution   :     25.31080     -19.31301       3.49824
                        -----------------------------------------
Total Dipole Moment    :      0.66885      -0.35440      -0.22559
                        -----------------------------------------
Magnitude (a.u.)       :      0.78984
Magnitude (Debye)      :      2.00763

Rotational constants in cm-1:     0.016793     0.008511     0.006165
Rotational constants in MHz :   503.445424   255.146563   184.808304

                             ****ORCA TERMINATED NORMALLY****
TOTAL RUN TIME: 0 days 0 hours 0 minutes 33 seconds 196 msec
