                         Program Version 4.2.1 -  RELEASE  -
|  1> ! wB97X-D3 SP def2-SVP
|  2> %pal
|  3> nprocs 16
|  4> end
|  5>
|  6> * xyz 0 1
|  7> S 	 53.2944 	 3.19366 	 92.8085
|  8> C 	 53.538 	 4.78803 	 92.0648
|  9> C 	 52.4839 	 5.62193 	 92.246
| 10> C 	 51.4063 	 4.88153 	 92.7779
| 11> C 	 51.6011 	 3.55846 	 93.0503
| 12> H 	 50.4316 	 5.26861 	 92.8355
| 13> C 	 52.3156 	 7.03857 	 91.7948
| 14> H 	 51.1881 	 7.16586 	 91.8007
| 15> H 	 52.639 	 7.15427 	 90.7544
| 16> C 	 52.989 	 8.06387 	 92.7975
| 17> H 	 52.7543 	 9.03337 	 92.4814
| 18> H 	 52.3639 	 7.86495 	 93.6505
| 19> C 	 54.4669 	 7.8508 	 93.156
| 20> H 	 55.044 	 7.91012 	 92.226
| 21> H 	 54.754 	 8.618 	 93.8639
| 22> H 	 54.6225 	 6.91593 	 93.738
| 23> S 	 50.7106 	 1.22639 	 91.9329
| 24> C 	 49.3618 	 0.396349 	 92.7108
| 25> C 	 48.6387 	 1.20816 	 93.5288
| 26> C 	 49.2792 	 2.49043 	 93.7797
| 27> C 	 50.5559 	 2.5321 	 93.1813
| 28> H 	 47.6655 	 0.877653 	 93.961
| 29> C 	 48.6346 	 3.54864 	 94.7234
| 30> H 	 47.6318 	 3.80326 	 94.4053
| 31> H 	 49.137 	 4.42967 	 94.4154
| 32> C 	 48.6379 	 3.32235 	 96.1828
| 33> H 	 48.4187 	 2.29389 	 96.3819
| 34> H 	 47.8181 	 4.01582 	 96.4766
| 35> C 	 49.8763 	 3.68242 	 97.0491
| 36> H 	 50.7997 	 3.04541 	 96.8845
| 37> H 	 49.5779 	 3.6255 	 98.0981
| 38> H 	 50.2035 	 4.68117 	 96.9056
| 39> H 	 54.4254 	 5.10006 	 91.5803
| 40> H 	 49.0125 	 -0.494823 	 92.29
| 41> *
| 42>
| 43>                          ****END OF INPUT****

CARTESIAN COORDINATES (ANGSTROEM)
---------------------------------
  S     53.294400    3.193660   92.808500
  C     53.538000    4.788030   92.064800
  C     52.483900    5.621930   92.246000
  C     51.406300    4.881530   92.777900
  C     51.601100    3.558460   93.050300
  H     50.431600    5.268610   92.835500
  C     52.315600    7.038570   91.794800
  H     51.188100    7.165860   91.800700
  H     52.639000    7.154270   90.754400
  C     52.989000    8.063870   92.797500
  H     52.754300    9.033370   92.481400
  H     52.363900    7.864950   93.650500
  C     54.466900    7.850800   93.156000
  H     55.044000    7.910120   92.226000
  H     54.754000    8.618000   93.863900
  H     54.622500    6.915930   93.738000
  S     50.710600    1.226390   91.932900
  C     49.361800    0.396349   92.710800
  C     48.638700    1.208160   93.528800
  C     49.279200    2.490430   93.779700
  C     50.555900    2.532100   93.181300
  H     47.665500    0.877653   93.961000
  C     48.634600    3.548640   94.723400
  H     47.631800    3.803260   94.405300
  H     49.137000    4.429670   94.415400
  C     48.637900    3.322350   96.182800
  H     48.418700    2.293890   96.381900
  H     47.818100    4.015820   96.476600
  C     49.876300    3.682420   97.049100
  H     50.799700    3.045410   96.884500
  H     49.577900    3.625500   98.098100
  H     50.203500    4.681170   96.905600
  H     54.425400    5.100060   91.580300
  H     49.012500   -0.494823   92.290000

 Total Charge           Charge          ....    0
 Multiplicity           Mult            ....    1
 Number of Electrons    NEL             ....  134
 Basis Dimension        Dim             ....  322

ORBITAL ENERGIES
----------------

  NO   OCC          E(Eh)            E(eV)
   0   2.0000     -88.964775     -2420.8546
   1   2.0000     -88.960554     -2420.7397
   2   2.0000     -10.334992      -281.2294
   3   2.0000     -10.325705      -280.9767
   4   2.0000     -10.310568      -280.5648
   5   2.0000     -10.310154      -280.5535
   6   2.0000     -10.310056      -280.5509
   7   2.0000     -10.299440      -280.2620
   8   2.0000     -10.297024      -280.1963
   9   2.0000     -10.294051      -280.1154
  10   2.0000     -10.288077      -279.9528
  11   2.0000     -10.285500      -279.8827
  12   2.0000     -10.285171      -279.8737
  13   2.0000     -10.285064      -279.8708
  14   2.0000     -10.281995      -279.7873
  15   2.0000     -10.276481      -279.6373
  16   2.0000      -8.079226      -219.8469
  17   2.0000      -8.074567      -219.7201
  18   2.0000      -6.037790      -164.2966
  19   2.0000      -6.033872      -164.1900
  20   2.0000      -6.033124      -164.1696
  21   2.0000      -6.029824      -164.0798
  22   2.0000      -6.029500      -164.0710
  23   2.0000      -6.024963      -163.9476
  24   2.0000      -1.004945       -27.3459
  25   2.0000      -0.978799       -26.6345
  26   2.0000      -0.911699       -24.8086
  27   2.0000      -0.909814       -24.7573
  28   2.0000      -0.866190       -23.5702
  29   2.0000      -0.849708       -23.1217
  30   2.0000      -0.840009       -22.8578
  31   2.0000      -0.811205       -22.0740
  32   2.0000      -0.787257       -21.4224
  33   2.0000      -0.780306       -21.2332
  34   2.0000      -0.707986       -19.2653
  35   2.0000      -0.701540       -19.0899
  36   2.0000      -0.694605       -18.9012
  37   2.0000      -0.654722       -17.8159
  38   2.0000      -0.640721       -17.4349
  39   2.0000      -0.620736       -16.8911
  40   2.0000      -0.601362       -16.3639
  41   2.0000      -0.571368       -15.5477
  42   2.0000      -0.549852       -14.9622
  43   2.0000      -0.547538       -14.8993
  44   2.0000      -0.543486       -14.7890
  45   2.0000      -0.532468       -14.4892
  46   2.0000      -0.523592       -14.2477
  47   2.0000      -0.512107       -13.9351
  48   2.0000      -0.497989       -13.5510
  49   2.0000      -0.493909       -13.4399
  50   2.0000      -0.488937       -13.3046
  51   2.0000      -0.478928       -13.0323
  52   2.0000      -0.468538       -12.7496
  53   2.0000      -0.462344       -12.5810
  54   2.0000      -0.459944       -12.5157
  55   2.0000      -0.447961       -12.1896
  56   2.0000      -0.443089       -12.0571
  57   2.0000      -0.439522       -11.9600
  58   2.0000      -0.431539       -11.7428
  59   2.0000      -0.426361       -11.6019
  60   2.0000      -0.417070       -11.3490
  61   2.0000      -0.414274       -11.2730
  62   2.0000      -0.410473       -11.1695
  63   2.0000      -0.346498        -9.4287
  64   2.0000      -0.333318        -9.0701
  65   2.0000      -0.324467        -8.8292
  66   2.0000      -0.289401        -7.8750
  67   0.0000       0.022487         0.6119
  68   0.0000       0.070537         1.9194
  69   0.0000       0.096168         2.6169
  70   0.0000       0.115958         3.1554
  71   0.0000       0.130453         3.5498

MULLIKEN ATOMIC CHARGES
-----------------------
   0 S :    0.106540
   1 C :   -0.124735
   2 C :   -0.071477
   3 C :    0.035136
   4 C :   -0.147915
   5 H :   -0.007962
   6 C :    0.026800
   7 H :    0.030541
   8 H :    0.038397
   9 C :   -0.040163
  10 H :    0.020412
  11 H :    0.015434
  12 C :   -0.050406
  13 H :    0.038877
  14 H :    0.036162
  15 H :    0.052443
  16 S :    0.078230
  17 C :   -0.057814
  18 C :   -0.041763
  19 C :   -0.067725
  20 C :   -0.141491
  21 H :    0.034964
  22 C :    0.123193
  23 H :    0.019398
  24 H :   -0.025068
  25 C :   -0.051119
  26 H :    0.026799
  27 H :    0.030242
  28 C :   -0.052362
  29 H :    0.050483
  30 H :    0.034589
  31 H :    0.016419
  32 H :    0.028365
  33 H :    0.036574
Sum of atomic charges:   -0.0000000

LOEWDIN ATOMIC CHARGES
----------------------
   0 S :    0.390726
   1 C :   -0.170701
   2 C :   -0.070264
   3 C :   -0.056364
   4 C :   -0.203151
   5 H :    0.017027
   6 C :   -0.031089
   7 H :    0.037530
   8 H :    0.028235
   9 C :   -0.032682
  10 H :    0.014885
  11 H :    0.023416
  12 C :   -0.067415
  13 H :    0.026045
  14 H :    0.029159
  15 H :    0.034388
  16 S :    0.368349
  17 C :   -0.168932
  18 C :   -0.072761
  19 C :   -0.051832
  20 C :   -0.168565
  21 H :    0.038742
  22 C :   -0.034322
  23 H :    0.034526
  24 H :    0.021808
  25 C :   -0.039440
  26 H :    0.023548
  27 H :    0.034031
  28 C :   -0.067149
  29 H :    0.034684
  30 H :    0.028476
  31 H :    0.016320
  32 H :    0.018390
  33 H :    0.014381

  Mayer bond orders larger than 0.100000
B(  0-S ,  1-C ) :   1.1337 B(  0-S ,  4-C ) :   1.1344 B(  1-C ,  2-C ) :   1.6153
B(  1-C , 32-H ) :   0.9704 B(  2-C ,  3-C ) :   1.2553 B(  2-C ,  6-C ) :   1.0046
B(  3-C ,  4-C ) :   1.5867 B(  3-C ,  5-H ) :   0.9842 B(  4-C , 20-C ) :   1.0406
B(  6-C ,  7-H ) :   0.9479 B(  6-C ,  8-H ) :   0.9463 B(  6-C ,  9-C ) :   1.0494
B(  9-C , 10-H ) :   0.9605 B(  9-C , 11-H ) :   0.9519 B(  9-C , 12-C ) :   1.0867
B( 12-C , 13-H ) :   0.9766 B( 12-C , 14-H ) :   0.9705 B( 12-C , 15-H ) :   0.9670
B( 16-S , 17-C ) :   1.1325 B( 16-S , 20-C ) :   1.1299 B( 17-C , 18-C ) :   1.6441
B( 17-C , 33-H ) :   0.9727 B( 18-C , 19-C ) :   1.2040 B( 18-C , 21-H ) :   0.9838
B( 19-C , 20-C ) :   1.6180 B( 19-C , 22-C ) :   1.0286 B( 22-C , 23-H ) :   0.9327
B( 22-C , 24-H ) :   0.9178 B( 22-C , 25-C ) :   1.0740 B( 25-C , 26-H ) :   0.9567
B( 25-C , 27-H ) :   0.9496 B( 25-C , 28-C ) :   1.0862 B( 28-C , 29-H ) :   0.9753
B( 28-C , 30-H ) :   0.9738 B( 28-C , 31-H ) :   0.9734

Dispersion correction           -0.014368498
FINAL SINGLE POINT ENERGY     -1339.854502689230

DIPOLE MOMENT
-------------
                                X             Y             Z
Electronic contribution:      3.32923     -21.54852     -13.31007
Nuclear contribution   :     -3.78026      22.21553      13.38281
                        -----------------------------------------
Total Dipole Moment    :     -0.45103       0.66700       0.07273
                        -----------------------------------------
Magnitude (a.u.)       :      0.80846
Magnitude (Debye)      :      2.05494

Rotational constants in cm-1:     0.019790     0.008533     0.006830
Rotational constants in MHz :   593.286091   255.822520   204.764736

                             ****ORCA TERMINATED NORMALLY****
TOTAL RUN TIME: 0 days 0 hours 0 minutes 30 seconds 90 msec
