                         Program Version 4.2.1 -  RELEASE  -
|  1> ! wB97X-D3 SP def2-SVP
|  2> %pal
|  3> nprocs 16
|  4> end
|  5>
|  6> * xyz 0 1
|  7> S 	 34.6527 	 0.763933 	 66.9456
|  8> C 	 35.3402 	 2.16979 	 67.6556
|  9> C 	 34.4454 	 3.18568 	 68.0276
| 10> C 	 33.1093 	 2.84377 	 67.6365
| 11> C 	 33.108 	 1.60896 	 66.988
| 12> H 	 32.1943 	 3.3912 	 67.7561
| 13> C 	 34.8085 	 4.50982 	 68.6816
| 14> H 	 35.775 	 4.46387 	 69.0624
| 15> H 	 34.2621 	 4.61863 	 69.5869
| 16> C 	 34.5602 	 5.70176 	 67.7253
| 17> H 	 33.5472 	 5.55745 	 67.2692
| 18> H 	 34.4946 	 6.6765 	 68.2226
| 19> C 	 35.5681 	 5.87146 	 66.5724
| 20> H 	 35.7426 	 4.97652 	 66.0111
| 21> H 	 35.1403 	 6.6843 	 65.9437
| 22> H 	 36.5137 	 6.36178 	 66.825
| 23> S 	 31.4026 	 -0.548143 	 66.7949
| 24> C 	 30.1344 	 -0.489393 	 65.6061
| 25> C 	 30.2906 	 0.516462 	 64.7045
| 26> C 	 31.3072 	 1.43123 	 65.0707
| 27> C 	 31.9246 	 1.06112 	 66.2219
| 28> H 	 29.7684 	 0.461624 	 63.7292
| 29> C 	 31.6564 	 2.65982 	 64.2077
| 30> H 	 31.7983 	 2.18238 	 63.2293
| 31> H 	 32.6551 	 2.99497 	 64.4469
| 32> C 	 30.7163 	 3.81919 	 64.1769
| 33> H 	 30.5362 	 4.06425 	 65.2183
| 34> H 	 29.7484 	 3.66304 	 63.7271
| 35> C 	 31.2887 	 4.92929 	 63.3349
| 36> H 	 31.5116 	 4.34193 	 62.4625
| 37> H 	 32.1909 	 5.16091 	 64.0263
| 38> H 	 30.5665 	 5.67857 	 63.1423
| 39> H 	 36.4554 	 2.23816 	 67.7342
| 40> H 	 29.5622 	 -1.35352 	 65.3769
| 41> *
| 42>
| 43>                          ****END OF INPUT****

CARTESIAN COORDINATES (ANGSTROEM)
---------------------------------
  S     34.652700    0.763933   66.945600
  C     35.340200    2.169790   67.655600
  C     34.445400    3.185680   68.027600
  C     33.109300    2.843770   67.636500
  C     33.108000    1.608960   66.988000
  H     32.194300    3.391200   67.756100
  C     34.808500    4.509820   68.681600
  H     35.775000    4.463870   69.062400
  H     34.262100    4.618630   69.586900
  C     34.560200    5.701760   67.725300
  H     33.547200    5.557450   67.269200
  H     34.494600    6.676500   68.222600
  C     35.568100    5.871460   66.572400
  H     35.742600    4.976520   66.011100
  H     35.140300    6.684300   65.943700
  H     36.513700    6.361780   66.825000
  S     31.402600   -0.548143   66.794900
  C     30.134400   -0.489393   65.606100
  C     30.290600    0.516462   64.704500
  C     31.307200    1.431230   65.070700
  C     31.924600    1.061120   66.221900
  H     29.768400    0.461624   63.729200
  C     31.656400    2.659820   64.207700
  H     31.798300    2.182380   63.229300
  H     32.655100    2.994970   64.446900
  C     30.716300    3.819190   64.176900
  H     30.536200    4.064250   65.218300
  H     29.748400    3.663040   63.727100
  C     31.288700    4.929290   63.334900
  H     31.511600    4.341930   62.462500
  H     32.190900    5.160910   64.026300
  H     30.566500    5.678570   63.142300
  H     36.455400    2.238160   67.734200
  H     29.562200   -1.353520   65.376900

 Total Charge           Charge          ....    0
 Multiplicity           Mult            ....    1
 Number of Electrons    NEL             ....  134
 Basis Dimension        Dim             ....  322

ORBITAL ENERGIES
----------------

  NO   OCC          E(Eh)            E(eV)
   0   2.0000     -88.971045     -2421.0252
   1   2.0000     -88.959991     -2420.7244
   2   2.0000     -10.330978      -281.1202
   3   2.0000     -10.324738      -280.9504
   4   2.0000     -10.316956      -280.7386
   5   2.0000     -10.308707      -280.5142
   6   2.0000     -10.305291      -280.4212
   7   2.0000     -10.300520      -280.2914
   8   2.0000     -10.296878      -280.1923
   9   2.0000     -10.293099      -280.0895
  10   2.0000     -10.291203      -280.0379
  11   2.0000     -10.290062      -280.0068
  12   2.0000     -10.286407      -279.9074
  13   2.0000     -10.278647      -279.6962
  14   2.0000     -10.277361      -279.6612
  15   2.0000     -10.276871      -279.6479
  16   2.0000      -8.086196      -220.0366
  17   2.0000      -8.074921      -219.7298
  18   2.0000      -6.044480      -164.4787
  19   2.0000      -6.040870      -164.3804
  20   2.0000      -6.036949      -164.2737
  21   2.0000      -6.033300      -164.1744
  22   2.0000      -6.029677      -164.0759
  23   2.0000      -6.025546      -163.9634
  24   2.0000      -1.004789       -27.3417
  25   2.0000      -0.985408       -26.8143
  26   2.0000      -0.921164       -25.0662
  27   2.0000      -0.909332       -24.7442
  28   2.0000      -0.861015       -23.4294
  29   2.0000      -0.855742       -23.2859
  30   2.0000      -0.850807       -23.1516
  31   2.0000      -0.813357       -22.1326
  32   2.0000      -0.784131       -21.3373
  33   2.0000      -0.771351       -20.9895
  34   2.0000      -0.702781       -19.1236
  35   2.0000      -0.694036       -18.8857
  36   2.0000      -0.685945       -18.6655
  37   2.0000      -0.659034       -17.9332
  38   2.0000      -0.644949       -17.5500
  39   2.0000      -0.621597       -16.9145
  40   2.0000      -0.602051       -16.3826
  41   2.0000      -0.576547       -15.6886
  42   2.0000      -0.566488       -15.4149
  43   2.0000      -0.546370       -14.8675
  44   2.0000      -0.537428       -14.6242
  45   2.0000      -0.535292       -14.5660
  46   2.0000      -0.514070       -13.9886
  47   2.0000      -0.511849       -13.9281
  48   2.0000      -0.505741       -13.7619
  49   2.0000      -0.490736       -13.3536
  50   2.0000      -0.483749       -13.1635
  51   2.0000      -0.477601       -12.9962
  52   2.0000      -0.466570       -12.6960
  53   2.0000      -0.462374       -12.5818
  54   2.0000      -0.458571       -12.4783
  55   2.0000      -0.455967       -12.4075
  56   2.0000      -0.452417       -12.3109
  57   2.0000      -0.437829       -11.9139
  58   2.0000      -0.431947       -11.7539
  59   2.0000      -0.427308       -11.6277
  60   2.0000      -0.417294       -11.3551
  61   2.0000      -0.416555       -11.3350
  62   2.0000      -0.407875       -11.0988
  63   2.0000      -0.339945        -9.2504
  64   2.0000      -0.332638        -9.0515
  65   2.0000      -0.330236        -8.9862
  66   2.0000      -0.296160        -8.0589
  67   0.0000       0.039940         1.0868
  68   0.0000       0.059456         1.6179
  69   0.0000       0.105117         2.8604
  70   0.0000       0.112326         3.0565
  71   0.0000       0.123690         3.3658

MULLIKEN ATOMIC CHARGES
-----------------------
   0 S :    0.133547
   1 C :   -0.142941
   2 C :   -0.107842
   3 C :    0.030680
   4 C :   -0.152492
   5 H :    0.018830
   6 C :    0.158588
   7 H :   -0.007209
   8 H :    0.020516
   9 C :   -0.099794
  10 H :    0.030862
  11 H :    0.029093
  12 C :   -0.054620
  13 H :    0.042634
  14 H :    0.029884
  15 H :    0.027179
  16 S :    0.080695
  17 C :   -0.062269
  18 C :   -0.060134
  19 C :   -0.005053
  20 C :   -0.206690
  21 H :    0.032855
  22 C :    0.059460
  23 H :    0.021195
  24 H :    0.014351
  25 C :   -0.057648
  26 H :    0.020417
  27 H :    0.014358
  28 C :   -0.026220
  29 H :    0.026399
  30 H :    0.048770
  31 H :    0.036188
  32 H :    0.061560
  33 H :    0.044851
Sum of atomic charges:    0.0000000

LOEWDIN ATOMIC CHARGES
----------------------
   0 S :    0.415880
   1 C :   -0.215495
   2 C :   -0.058720
   3 C :   -0.055123
   4 C :   -0.191054
   5 H :    0.033451
   6 C :   -0.026635
   7 H :    0.020588
   8 H :    0.031927
   9 C :   -0.040640
  10 H :    0.026277
  11 H :    0.024984
  12 C :   -0.070258
  13 H :    0.021588
  14 H :    0.032569
  15 H :    0.024034
  16 S :    0.380291
  17 C :   -0.179949
  18 C :   -0.074243
  19 C :   -0.057209
  20 C :   -0.185180
  21 H :    0.039521
  22 C :   -0.029027
  23 H :    0.032459
  24 H :    0.027824
  25 C :   -0.045748
  26 H :    0.017926
  27 H :    0.018514
  28 C :   -0.058045
  29 H :    0.025882
  30 H :    0.041421
  31 H :    0.020366
  32 H :    0.031688
  33 H :    0.020135

  Mayer bond orders larger than 0.100000
B(  0-S ,  1-C ) :   1.1465 B(  0-S ,  4-C ) :   1.1619 B(  1-C ,  2-C ) :   1.6158
B(  1-C , 32-H ) :   0.9583 B(  2-C ,  3-C ) :   1.2115 B(  2-C ,  6-C ) :   1.0307
B(  3-C ,  4-C ) :   1.5963 B(  3-C ,  5-H ) :   0.9989 B(  4-C , 20-C ) :   0.9851
B(  6-C ,  7-H ) :   0.9353 B(  6-C ,  8-H ) :   0.9314 B(  6-C ,  9-C ) :   1.0552
B(  9-C , 10-H ) :   0.9617 B(  9-C , 11-H ) :   0.9561 B(  9-C , 12-C ) :   1.0759
B( 12-C , 13-H ) :   0.9779 B( 12-C , 14-H ) :   0.9712 B( 12-C , 15-H ) :   0.9746
B( 16-S , 17-C ) :   1.1447 B( 16-S , 20-C ) :   1.1319 B( 17-C , 18-C ) :   1.6499
B( 17-C , 33-H ) :   0.9639 B( 18-C , 19-C ) :   1.2136 B( 18-C , 21-H ) :   0.9834
B( 19-C , 20-C ) :   1.6514 B( 19-C , 22-C ) :   1.0272 B( 22-C , 23-H ) :   0.9237
B( 22-C , 24-H ) :   0.9328 B( 22-C , 25-C ) :   1.0716 B( 25-C , 26-H ) :   0.9544
B( 25-C , 27-H ) :   0.9488 B( 25-C , 28-C ) :   1.0569 B( 28-C , 29-H ) :   0.9747
B( 28-C , 30-H ) :   0.9789 B( 28-C , 31-H ) :   0.9747

Dispersion correction           -0.014734820
FINAL SINGLE POINT ENERGY     -1339.859323108479

DIPOLE MOMENT
-------------
                                X             Y             Z
Electronic contribution:     -1.54489     -29.66821       9.27607
Nuclear contribution   :      1.56183      30.19986      -9.58892
                        -----------------------------------------
Total Dipole Moment    :      0.01694       0.53164      -0.31285
                        -----------------------------------------
Magnitude (a.u.)       :      0.61710
Magnitude (Debye)      :      1.56853

Rotational constants in cm-1:     0.017137     0.010176     0.007066
Rotational constants in MHz :   513.765073   305.057266   211.822667

                             ****ORCA TERMINATED NORMALLY****
TOTAL RUN TIME: 0 days 0 hours 0 minutes 31 seconds 17 msec
