                         Program Version 4.2.1 -  RELEASE  -
|  1> ! wB97X-D3 SP def2-SVP
|  2> %pal
|  3> nprocs 16
|  4> end
|  5>
|  6> * xyz 0 1
|  7> S 	 -36.9155 	 30.099 	 83.27
|  8> C 	 -35.8548 	 29.9739 	 81.8882
|  9> C 	 -36.5349 	 29.7917 	 80.6783
| 10> C 	 -37.9143 	 29.9295 	 80.8521
| 11> C 	 -38.2648 	 30.2008 	 82.1698
| 12> H 	 -38.5368 	 29.864 	 79.9964
| 13> C 	 -35.7686 	 29.5242 	 79.3508
| 14> H 	 -34.672 	 29.6399 	 79.366
| 15> H 	 -36.1313 	 30.3445 	 78.6387
| 16> C 	 -36.0649 	 28.2686 	 78.7008
| 17> H 	 -35.6908 	 27.5896 	 79.41
| 18> H 	 -37.1835 	 28.2109 	 78.7156
| 19> C 	 -35.4587 	 28.0589 	 77.3364
| 20> H 	 -34.3837 	 28.0684 	 77.3137
| 21> H 	 -35.7516 	 27.0484 	 77.0397
| 22> H 	 -35.7948 	 28.8108 	 76.6185
| 23> S 	 -39.9394 	 32.0471 	 83.4332
| 24> C 	 -41.6284 	 31.5421 	 83.6445
| 25> C 	 -41.8756 	 30.37 	 83.0178
| 26> C 	 -40.7843 	 29.7118 	 82.4382
| 27> C 	 -39.6509 	 30.4348 	 82.6664
| 28> H 	 -42.876 	 30.0466 	 82.9248
| 29> C 	 -40.9225 	 28.4135 	 81.7115
| 30> H 	 -41.4564 	 27.8109 	 82.3969
| 31> H 	 -40.0627 	 27.7442 	 81.7097
| 32> C 	 -41.487 	 28.6948 	 80.339
| 33> H 	 -40.8911 	 29.4447 	 79.7323
| 34> H 	 -42.4969 	 29.1826 	 80.4226
| 35> C 	 -41.4784 	 27.5534 	 79.373
| 36> H 	 -41.8713 	 27.7365 	 78.4211
| 37> H 	 -41.8475 	 26.5941 	 79.7888
| 38> H 	 -40.4352 	 27.3726 	 79.1362
| 39> H 	 -34.8113 	 29.645 	 82.0119
| 40> H 	 -42.4674 	 32.0794 	 84.17
| 41> *
| 42>
| 43>                          ****END OF INPUT****

CARTESIAN COORDINATES (ANGSTROEM)
---------------------------------
  S    -36.915500   30.099000   83.270000
  C    -35.854800   29.973900   81.888200
  C    -36.534900   29.791700   80.678300
  C    -37.914300   29.929500   80.852100
  C    -38.264800   30.200800   82.169800
  H    -38.536800   29.864000   79.996400
  C    -35.768600   29.524200   79.350800
  H    -34.672000   29.639900   79.366000
  H    -36.131300   30.344500   78.638700
  C    -36.064900   28.268600   78.700800
  H    -35.690800   27.589600   79.410000
  H    -37.183500   28.210900   78.715600
  C    -35.458700   28.058900   77.336400
  H    -34.383700   28.068400   77.313700
  H    -35.751600   27.048400   77.039700
  H    -35.794800   28.810800   76.618500
  S    -39.939400   32.047100   83.433200
  C    -41.628400   31.542100   83.644500
  C    -41.875600   30.370000   83.017800
  C    -40.784300   29.711800   82.438200
  C    -39.650900   30.434800   82.666400
  H    -42.876000   30.046600   82.924800
  C    -40.922500   28.413500   81.711500
  H    -41.456400   27.810900   82.396900
  H    -40.062700   27.744200   81.709700
  C    -41.487000   28.694800   80.339000
  H    -40.891100   29.444700   79.732300
  H    -42.496900   29.182600   80.422600
  C    -41.478400   27.553400   79.373000
  H    -41.871300   27.736500   78.421100
  H    -41.847500   26.594100   79.788800
  H    -40.435200   27.372600   79.136200
  H    -34.811300   29.645000   82.011900
  H    -42.467400   32.079400   84.170000

 Total Charge           Charge          ....    0
 Multiplicity           Mult            ....    1
 Number of Electrons    NEL             ....  134
 Basis Dimension        Dim             ....  322

ORBITAL ENERGIES
----------------

  NO   OCC          E(Eh)            E(eV)
   0   2.0000     -88.969158     -2420.9739
   1   2.0000     -88.963721     -2420.8259
   2   2.0000     -10.330179      -281.0985
   3   2.0000     -10.325387      -280.9681
   4   2.0000     -10.317126      -280.7433
   5   2.0000     -10.311455      -280.5890
   6   2.0000     -10.301180      -280.3094
   7   2.0000     -10.296937      -280.1939
   8   2.0000     -10.295201      -280.1467
   9   2.0000     -10.293847      -280.1098
  10   2.0000     -10.292381      -280.0699
  11   2.0000     -10.290200      -280.0106
  12   2.0000     -10.282808      -279.8094
  13   2.0000     -10.280426      -279.7446
  14   2.0000     -10.278222      -279.6847
  15   2.0000     -10.274206      -279.5754
  16   2.0000      -8.083871      -219.9733
  17   2.0000      -8.077334      -219.7954
  18   2.0000      -6.042149      -164.4152
  19   2.0000      -6.038492      -164.3157
  20   2.0000      -6.035916      -164.2456
  21   2.0000      -6.034783      -164.2148
  22   2.0000      -6.032297      -164.1472
  23   2.0000      -6.027775      -164.0241
  24   2.0000      -1.004882       -27.3442
  25   2.0000      -0.985024       -26.8039
  26   2.0000      -0.925668       -25.1887
  27   2.0000      -0.918026       -24.9807
  28   2.0000      -0.864235       -23.5170
  29   2.0000      -0.858041       -23.3485
  30   2.0000      -0.851630       -23.1740
  31   2.0000      -0.813047       -22.1241
  32   2.0000      -0.790683       -21.5156
  33   2.0000      -0.775482       -21.1019
  34   2.0000      -0.705190       -19.1892
  35   2.0000      -0.699813       -19.0429
  36   2.0000      -0.688360       -18.7312
  37   2.0000      -0.659944       -17.9580
  38   2.0000      -0.637580       -17.3494
  39   2.0000      -0.629461       -17.1285
  40   2.0000      -0.602487       -16.3945
  41   2.0000      -0.577718       -15.7205
  42   2.0000      -0.562704       -15.3119
  43   2.0000      -0.556985       -15.1563
  44   2.0000      -0.544707       -14.8222
  45   2.0000      -0.525649       -14.3036
  46   2.0000      -0.522841       -14.2272
  47   2.0000      -0.518809       -14.1175
  48   2.0000      -0.505381       -13.7521
  49   2.0000      -0.493380       -13.4255
  50   2.0000      -0.483101       -13.1458
  51   2.0000      -0.475062       -12.9271
  52   2.0000      -0.472547       -12.8587
  53   2.0000      -0.465994       -12.6803
  54   2.0000      -0.458162       -12.4672
  55   2.0000      -0.452569       -12.3150
  56   2.0000      -0.450004       -12.2452
  57   2.0000      -0.440682       -11.9916
  58   2.0000      -0.431278       -11.7357
  59   2.0000      -0.429813       -11.6958
  60   2.0000      -0.428391       -11.6571
  61   2.0000      -0.411187       -11.1890
  62   2.0000      -0.401516       -10.9258
  63   2.0000      -0.341201        -9.2845
  64   2.0000      -0.333542        -9.0761
  65   2.0000      -0.330826        -9.0022
  66   2.0000      -0.294309        -8.0086
  67   0.0000       0.032730         0.8906
  68   0.0000       0.067027         1.8239
  69   0.0000       0.108034         2.9397
  70   0.0000       0.110989         3.0202
  71   0.0000       0.124809         3.3962

MULLIKEN ATOMIC CHARGES
-----------------------
   0 S :    0.126508
   1 C :   -0.131449
   2 C :   -0.092365
   3 C :    0.064408
   4 C :   -0.156255
   5 H :   -0.016992
   6 C :    0.033167
   7 H :    0.020335
   8 H :    0.025956
   9 C :   -0.075709
  10 H :    0.011670
  11 H :    0.024585
  12 C :   -0.009142
  13 H :    0.025252
  14 H :    0.035461
  15 H :    0.032047
  16 S :    0.098523
  17 C :   -0.095214
  18 C :   -0.036593
  19 C :   -0.007009
  20 C :   -0.179238
  21 H :   -0.002312
  22 C :    0.125376
  23 H :    0.013085
  24 H :    0.014202
  25 C :   -0.113975
  26 H :    0.038834
  27 H :    0.035541
  28 C :    0.000582
  29 H :    0.022385
  30 H :    0.027591
  31 H :    0.013107
  32 H :    0.057863
  33 H :    0.069774
Sum of atomic charges:   -0.0000000

LOEWDIN ATOMIC CHARGES
----------------------
   0 S :    0.419511
   1 C :   -0.209753
   2 C :   -0.058240
   3 C :   -0.057602
   4 C :   -0.193282
   5 H :    0.023912
   6 C :   -0.035351
   7 H :    0.027777
   8 H :    0.030909
   9 C :   -0.052103
  10 H :    0.019370
  11 H :    0.025856
  12 C :   -0.057859
  13 H :    0.023735
  14 H :    0.031966
  15 H :    0.027333
  16 S :    0.365338
  17 C :   -0.183062
  18 C :   -0.070923
  19 C :   -0.051812
  20 C :   -0.176216
  21 H :    0.023963
  22 C :   -0.032150
  23 H :    0.032118
  24 H :    0.034536
  25 C :   -0.044957
  26 H :    0.033639
  27 H :    0.027231
  28 C :   -0.065016
  29 H :    0.020280
  30 H :    0.024615
  31 H :    0.024332
  32 H :    0.028170
  33 H :    0.043732

  Mayer bond orders larger than 0.100000
B(  0-S ,  1-C ) :   1.1465 B(  0-S ,  4-C ) :   1.1855 B(  1-C ,  2-C ) :   1.5939
B(  1-C ,  4-C ) :   0.1025 B(  1-C , 32-H ) :   0.9586 B(  2-C ,  3-C ) :   1.2922
B(  2-C ,  6-C ) :   1.0098 B(  3-C ,  4-C ) :   1.5254 B(  3-C ,  5-H ) :   1.0002
B(  4-C , 20-C ) :   1.0043 B(  6-C ,  7-H ) :   0.9492 B(  6-C ,  8-H ) :   0.9362
B(  6-C ,  9-C ) :   1.0642 B(  9-C , 10-H ) :   0.9465 B(  9-C , 11-H ) :   0.9512
B(  9-C , 12-C ) :   1.0896 B( 12-C , 13-H ) :   0.9705 B( 12-C , 14-H ) :   0.9713
B( 12-C , 15-H ) :   0.9718 B( 16-S , 17-C ) :   1.1198 B( 16-S , 20-C ) :   1.1310
B( 17-C , 18-C ) :   1.6609 B( 17-C , 33-H ) :   0.9561 B( 18-C , 19-C ) :   1.2127
B( 18-C , 21-H ) :   0.9881 B( 19-C , 20-C ) :   1.6422 B( 19-C , 22-C ) :   1.0343
B( 22-C , 23-H ) :   0.9206 B( 22-C , 24-H ) :   0.9308 B( 22-C , 25-C ) :   1.0421
B( 25-C , 26-H ) :   0.9570 B( 25-C , 27-H ) :   0.9530 B( 25-C , 28-C ) :   1.0888
B( 28-C , 29-H ) :   0.9705 B( 28-C , 30-H ) :   0.9696 B( 28-C , 31-H ) :   0.9705

Dispersion correction           -0.014512514
FINAL SINGLE POINT ENERGY     -1339.857926540012

DIPOLE MOMENT
-------------
                                X             Y             Z
Electronic contribution:      0.15035      17.84325      27.37126
Nuclear contribution   :     -0.32797     -18.42336     -27.97577
                        -----------------------------------------
Total Dipole Moment    :     -0.17762      -0.58012      -0.60451
                        -----------------------------------------
Magnitude (a.u.)       :      0.85645
Magnitude (Debye)      :      2.17693

Rotational constants in cm-1:     0.017981     0.009219     0.006596
Rotational constants in MHz :   539.066720   276.389679   197.749311

                             ****ORCA TERMINATED NORMALLY****
TOTAL RUN TIME: 0 days 0 hours 0 minutes 31 seconds 20 msec
