                         Program Version 4.2.1 -  RELEASE  -
|  1> ! wB97X-D3 SP def2-SVP
|  2> %pal
|  3> nprocs 16
|  4> end
|  5>
|  6> * xyz 0 1
|  7> S 	 -6.03861 	 61.7653 	 50.2716
|  8> C 	 -7.37603 	 62.2447 	 51.1043
|  9> C 	 -7.3977 	 63.6127 	 51.3288
| 10> C 	 -6.16565 	 64.262 	 50.8364
| 11> C 	 -5.31385 	 63.3563 	 50.3104
| 12> H 	 -5.96731 	 65.2411 	 51.0176
| 13> C 	 -8.37043 	 64.3772 	 52.0454
| 14> H 	 -7.90396 	 64.5927 	 53.0037
| 15> H 	 -9.1654 	 63.6391 	 52.2755
| 16> C 	 -8.9462 	 65.6387 	 51.581
| 17> H 	 -8.25072 	 66.2561 	 50.8845
| 18> H 	 -9.88771 	 65.4428 	 51.0387
| 19> C 	 -9.50483 	 66.4129 	 52.7481
| 20> H 	 -10.0815 	 65.6741 	 53.3129
| 21> H 	 -8.83313 	 66.8519 	 53.4127
| 22> H 	 -10.3155 	 67.0928 	 52.4735
| 23> S 	 -2.6587 	 62.5016 	 50.4064
| 24> C 	 -1.40633 	 63.2504 	 49.4536
| 25> C 	 -1.92132 	 64.2393 	 48.6627
| 26> C 	 -3.36913 	 64.4444 	 48.934
| 27> C 	 -3.94665 	 63.5897 	 49.83
| 28> H 	 -1.2441 	 64.7209 	 47.9618
| 29> C 	 -4.12212 	 65.4429 	 48.1752
| 30> H 	 -3.91547 	 66.3869 	 48.6155
| 31> H 	 -5.18332 	 65.4914 	 48.4522
| 32> C 	 -3.86128 	 65.4961 	 46.6245
| 33> H 	 -2.8583 	 65.3407 	 46.2608
| 34> H 	 -4.03081 	 66.478 	 46.2711
| 35> C 	 -4.79628 	 64.6337 	 45.8627
| 36> H 	 -5.69885 	 64.4474 	 46.4508
| 37> H 	 -4.28503 	 63.7456 	 45.5462
| 38> H 	 -5.02253 	 65.0774 	 44.8952
| 39> H 	 -8.15409 	 61.5592 	 51.4366
| 40> H 	 -0.435206 	 62.8776 	 49.3702
| 41> *
| 42>
| 43>                          ****END OF INPUT****

CARTESIAN COORDINATES (ANGSTROEM)
---------------------------------
  S     -6.038610   61.765300   50.271600
  C     -7.376030   62.244700   51.104300
  C     -7.397700   63.612700   51.328800
  C     -6.165650   64.262000   50.836400
  C     -5.313850   63.356300   50.310400
  H     -5.967310   65.241100   51.017600
  C     -8.370430   64.377200   52.045400
  H     -7.903960   64.592700   53.003700
  H     -9.165400   63.639100   52.275500
  C     -8.946200   65.638700   51.581000
  H     -8.250720   66.256100   50.884500
  H     -9.887710   65.442800   51.038700
  C     -9.504830   66.412900   52.748100
  H    -10.081500   65.674100   53.312900
  H     -8.833130   66.851900   53.412700
  H    -10.315500   67.092800   52.473500
  S     -2.658700   62.501600   50.406400
  C     -1.406330   63.250400   49.453600
  C     -1.921320   64.239300   48.662700
  C     -3.369130   64.444400   48.934000
  C     -3.946650   63.589700   49.830000
  H     -1.244100   64.720900   47.961800
  C     -4.122120   65.442900   48.175200
  H     -3.915470   66.386900   48.615500
  H     -5.183320   65.491400   48.452200
  C     -3.861280   65.496100   46.624500
  H     -2.858300   65.340700   46.260800
  H     -4.030810   66.478000   46.271100
  C     -4.796280   64.633700   45.862700
  H     -5.698850   64.447400   46.450800
  H     -4.285030   63.745600   45.546200
  H     -5.022530   65.077400   44.895200
  H     -8.154090   61.559200   51.436600
  H     -0.435206   62.877600   49.370200

 Total Charge           Charge          ....    0
 Multiplicity           Mult            ....    1
 Number of Electrons    NEL             ....  134
 Basis Dimension        Dim             ....  322

ORBITAL ENERGIES
----------------

  NO   OCC          E(Eh)            E(eV)
   0   2.0000     -88.962562     -2420.7944
   1   2.0000     -88.955025     -2420.5893
   2   2.0000     -10.328298      -281.0473
   3   2.0000     -10.325017      -280.9580
   4   2.0000     -10.312383      -280.6142
   5   2.0000     -10.307450      -280.4800
   6   2.0000     -10.304159      -280.3904
   7   2.0000     -10.296365      -280.1783
   8   2.0000     -10.296261      -280.1755
   9   2.0000     -10.291791      -280.0539
  10   2.0000     -10.287534      -279.9380
  11   2.0000     -10.283993      -279.8417
  12   2.0000     -10.282576      -279.8031
  13   2.0000     -10.277049      -279.6527
  14   2.0000     -10.274092      -279.5723
  15   2.0000     -10.263987      -279.2973
  16   2.0000      -8.079620      -219.8576
  17   2.0000      -8.069968      -219.5950
  18   2.0000      -6.038024      -164.3030
  19   2.0000      -6.033776      -164.1874
  20   2.0000      -6.030345      -164.0940
  21   2.0000      -6.028708      -164.0495
  22   2.0000      -6.024359      -163.9311
  23   2.0000      -6.020552      -163.8275
  24   2.0000      -1.012749       -27.5583
  25   2.0000      -0.986299       -26.8386
  26   2.0000      -0.931376       -25.3440
  27   2.0000      -0.910473       -24.7752
  28   2.0000      -0.877943       -23.8900
  29   2.0000      -0.860899       -23.4263
  30   2.0000      -0.849311       -23.1109
  31   2.0000      -0.824535       -22.4367
  32   2.0000      -0.779869       -21.2213
  33   2.0000      -0.769864       -20.9491
  34   2.0000      -0.712033       -19.3754
  35   2.0000      -0.701786       -19.0966
  36   2.0000      -0.694239       -18.8912
  37   2.0000      -0.659693       -17.9512
  38   2.0000      -0.647830       -17.6284
  39   2.0000      -0.630465       -17.1558
  40   2.0000      -0.603646       -16.4260
  41   2.0000      -0.581927       -15.8350
  42   2.0000      -0.569406       -15.4943
  43   2.0000      -0.559077       -15.2132
  44   2.0000      -0.536807       -14.6073
  45   2.0000      -0.531909       -14.4740
  46   2.0000      -0.526477       -14.3262
  47   2.0000      -0.517463       -14.0809
  48   2.0000      -0.512344       -13.9416
  49   2.0000      -0.509131       -13.8542
  50   2.0000      -0.485757       -13.2181
  51   2.0000      -0.480037       -13.0625
  52   2.0000      -0.467417       -12.7191
  53   2.0000      -0.465151       -12.6574
  54   2.0000      -0.460683       -12.5358
  55   2.0000      -0.451411       -12.2835
  56   2.0000      -0.439927       -11.9710
  57   2.0000      -0.434223       -11.8158
  58   2.0000      -0.428824       -11.6689
  59   2.0000      -0.425856       -11.5881
  60   2.0000      -0.423172       -11.5151
  61   2.0000      -0.413834       -11.2610
  62   2.0000      -0.398542       -10.8449
  63   2.0000      -0.355110        -9.6630
  64   2.0000      -0.322771        -8.7831
  65   2.0000      -0.319582        -8.6963
  66   2.0000      -0.296012        -8.0549
  67   0.0000       0.039356         1.0709
  68   0.0000       0.078899         2.1469
  69   0.0000       0.114150         3.1062
  70   0.0000       0.126217         3.4345
  71   0.0000       0.131647         3.5823

MULLIKEN ATOMIC CHARGES
-----------------------
   0 S :    0.134208
   1 C :   -0.118269
   2 C :   -0.103385
   3 C :    0.060480
   4 C :   -0.129409
   5 H :   -0.026222
   6 C :    0.056074
   7 H :    0.034716
   8 H :    0.013275
   9 C :   -0.072624
  10 H :    0.044729
  11 H :    0.030485
  12 C :   -0.043588
  13 H :    0.016134
  14 H :    0.029799
  15 H :    0.028758
  16 S :    0.073804
  17 C :   -0.064785
  18 C :   -0.032713
  19 C :   -0.025274
  20 C :   -0.140410
  21 H :    0.027104
  22 C :    0.065336
  23 H :    0.013818
  24 H :    0.007638
  25 C :   -0.053654
  26 H :    0.018101
  27 H :    0.003873
  28 C :   -0.016126
  29 H :    0.038978
  30 H :    0.022381
  31 H :    0.016870
  32 H :    0.049516
  33 H :    0.040380
Sum of atomic charges:    0.0000000

LOEWDIN ATOMIC CHARGES
----------------------
   0 S :    0.446945
   1 C :   -0.232087
   2 C :   -0.062747
   3 C :   -0.045430
   4 C :   -0.189149
   5 H :    0.013080
   6 C :   -0.052852
   7 H :    0.038377
   8 H :    0.036282
   9 C :   -0.048053
  10 H :    0.029949
  11 H :    0.032517
  12 C :   -0.061133
  13 H :    0.028672
  14 H :    0.013491
  15 H :    0.028531
  16 S :    0.377400
  17 C :   -0.168872
  18 C :   -0.072759
  19 C :   -0.051517
  20 C :   -0.192081
  21 H :    0.033999
  22 C :   -0.038376
  23 H :    0.031319
  24 H :    0.033077
  25 C :   -0.038221
  26 H :    0.023133
  27 H :    0.018626
  28 C :   -0.061747
  29 H :    0.028749
  30 H :    0.023453
  31 H :    0.024818
  32 H :    0.032338
  33 H :    0.020270

  Mayer bond orders larger than 0.100000
B(  0-S ,  1-C ) :   1.1523 B(  0-S ,  4-C ) :   1.1587 B(  1-C ,  2-C ) :   1.6009
B(  1-C , 32-H ) :   0.9639 B(  2-C ,  3-C ) :   1.2118 B(  2-C ,  6-C ) :   1.0562
B(  3-C ,  4-C ) :   1.5811 B(  3-C ,  5-H ) :   1.0148 B(  4-C , 20-C ) :   1.0233
B(  6-C ,  7-H ) :   0.9347 B(  6-C ,  8-H ) :   0.9153 B(  6-C ,  9-C ) :   1.0598
B(  9-C , 10-H ) :   0.9566 B(  9-C , 11-H ) :   0.9501 B(  9-C , 12-C ) :   1.0744
B( 12-C , 13-H ) :   0.9665 B( 12-C , 14-H ) :   0.9772 B( 12-C , 15-H ) :   0.9728
B( 16-S , 17-C ) :   1.1514 B( 16-S , 20-C ) :   1.1010 B( 17-C , 18-C ) :   1.6450
B( 17-C , 33-H ) :   0.9710 B( 18-C , 19-C ) :   1.1792 B( 18-C , 21-H ) :   0.9920
B( 19-C , 20-C ) :   1.6369 B( 19-C , 22-C ) :   1.0678 B( 22-C , 23-H ) :   0.9139
B( 22-C , 24-H ) :   0.9297 B( 22-C , 25-C ) :   1.0640 B( 25-C , 26-H ) :   0.9587
B( 25-C , 27-H ) :   0.9537 B( 25-C , 28-C ) :   1.0807 B( 28-C , 29-H ) :   0.9764
B( 28-C , 30-H ) :   0.9760 B( 28-C , 31-H ) :   0.9726

Dispersion correction           -0.013686418
FINAL SINGLE POINT ENERGY     -1339.848611583940

DIPOLE MOMENT
-------------
                                X             Y             Z
Electronic contribution:     15.79117     -20.00505       5.71322
Nuclear contribution   :    -16.08134      20.57943      -5.83212
                        -----------------------------------------
Total Dipole Moment    :     -0.29017       0.57438      -0.11889
                        -----------------------------------------
Magnitude (a.u.)       :      0.65440
Magnitude (Debye)      :      1.66336

Rotational constants in cm-1:     0.019286     0.008034     0.006783
Rotational constants in MHz :   578.179859   240.841708   203.360280

                             ****ORCA TERMINATED NORMALLY****
TOTAL RUN TIME: 0 days 0 hours 0 minutes 34 seconds 182 msec
