                         Program Version 4.2.1 -  RELEASE  -
|  1> ! wB97X-D3 SP def2-SVP
|  2> %pal
|  3> nprocs 16
|  4> end
|  5>
|  6> * xyz 0 1
|  7> S 	 -88.3341 	 50.2672 	 131.25
|  8> C 	 -90.0278 	 50.1781 	 131.318
|  9> C 	 -90.6671 	 51.1914 	 130.638
| 10> C 	 -89.7251 	 52.1481 	 130.1
| 11> C 	 -88.4335 	 51.8533 	 130.495
| 12> H 	 -90.0369 	 53.0041 	 129.476
| 13> C 	 -92.1757 	 51.2518 	 130.341
| 14> H 	 -92.4375 	 50.2053 	 130.003
| 15> H 	 -92.3225 	 51.9245 	 129.538
| 16> C 	 -93.0755 	 51.7256 	 131.422
| 17> H 	 -94.0917 	 51.7999 	 131.012
| 18> H 	 -93.1354 	 50.9122 	 132.201
| 19> C 	 -92.6749 	 53.0903 	 132.018
| 20> H 	 -92.725 	 53.8372 	 131.307
| 21> H 	 -93.3952 	 53.4117 	 132.756
| 22> H 	 -91.6553 	 52.9836 	 132.416
| 23> S 	 -86.6838 	 51.6908 	 128.444
| 24> C 	 -85.6487 	 53.0149 	 128.156
| 25> C 	 -85.9806 	 54.1469 	 128.895
| 26> C 	 -87.0553 	 53.8514 	 129.799
| 27> C 	 -87.3961 	 52.5343 	 129.826
| 28> H 	 -85.4919 	 55.0892 	 128.863
| 29> C 	 -87.6298 	 54.9688 	 130.689
| 30> H 	 -88.6278 	 54.8021 	 131.084
| 31> H 	 -87.6856 	 55.8172 	 130.019
| 32> C 	 -86.6662 	 55.3458 	 131.824
| 33> H 	 -86.9862 	 56.3323 	 132.311
| 34> H 	 -85.7157 	 55.7102 	 131.426
| 35> C 	 -86.5238 	 54.1544 	 132.836
| 36> H 	 -86.073 	 53.2055 	 132.556
| 37> H 	 -87.4739 	 54.0896 	 133.363
| 38> H 	 -85.9445 	 54.518 	 133.669
| 39> H 	 -90.5711 	 49.3243 	 131.661
| 40> H 	 -84.9164 	 52.9233 	 127.381
| 41> *
| 42>
| 43>                          ****END OF INPUT****

CARTESIAN COORDINATES (ANGSTROEM)
---------------------------------
  S    -88.334100   50.267200  131.250000
  C    -90.027800   50.178100  131.318000
  C    -90.667100   51.191400  130.638000
  C    -89.725100   52.148100  130.100000
  C    -88.433500   51.853300  130.495000
  H    -90.036900   53.004100  129.476000
  C    -92.175700   51.251800  130.341000
  H    -92.437500   50.205300  130.003000
  H    -92.322500   51.924500  129.538000
  C    -93.075500   51.725600  131.422000
  H    -94.091700   51.799900  131.012000
  H    -93.135400   50.912200  132.201000
  C    -92.674900   53.090300  132.018000
  H    -92.725000   53.837200  131.307000
  H    -93.395200   53.411700  132.756000
  H    -91.655300   52.983600  132.416000
  S    -86.683800   51.690800  128.444000
  C    -85.648700   53.014900  128.156000
  C    -85.980600   54.146900  128.895000
  C    -87.055300   53.851400  129.799000
  C    -87.396100   52.534300  129.826000
  H    -85.491900   55.089200  128.863000
  C    -87.629800   54.968800  130.689000
  H    -88.627800   54.802100  131.084000
  H    -87.685600   55.817200  130.019000
  C    -86.666200   55.345800  131.824000
  H    -86.986200   56.332300  132.311000
  H    -85.715700   55.710200  131.426000
  C    -86.523800   54.154400  132.836000
  H    -86.073000   53.205500  132.556000
  H    -87.473900   54.089600  133.363000
  H    -85.944500   54.518000  133.669000
  H    -90.571100   49.324300  131.661000
  H    -84.916400   52.923300  127.381000

 Total Charge           Charge          ....    0
 Multiplicity           Mult            ....    1
 Number of Electrons    NEL             ....  134
 Basis Dimension        Dim             ....  322

ORBITAL ENERGIES
----------------

  NO   OCC          E(Eh)            E(eV)
   0   2.0000     -88.970426     -2421.0084
   1   2.0000     -88.957177     -2420.6478
   2   2.0000     -10.320598      -280.8377
   3   2.0000     -10.313847      -280.6541
   4   2.0000     -10.311765      -280.5974
   5   2.0000     -10.308713      -280.5143
   6   2.0000     -10.298490      -280.2362
   7   2.0000     -10.296714      -280.1878
   8   2.0000     -10.296663      -280.1864
   9   2.0000     -10.292375      -280.0698
  10   2.0000     -10.290563      -280.0204
  11   2.0000     -10.289766      -279.9988
  12   2.0000     -10.288472      -279.9635
  13   2.0000     -10.286778      -279.9175
  14   2.0000     -10.271682      -279.5067
  15   2.0000     -10.270791      -279.4824
  16   2.0000      -8.085672      -220.0223
  17   2.0000      -8.073177      -219.6823
  18   2.0000      -6.044091      -164.4681
  19   2.0000      -6.040236      -164.3632
  20   2.0000      -6.036374      -164.2581
  21   2.0000      -6.031526      -164.1262
  22   2.0000      -6.027692      -164.0218
  23   2.0000      -6.023840      -163.9170
  24   2.0000      -1.012007       -27.5381
  25   2.0000      -0.986216       -26.8363
  26   2.0000      -0.915754       -24.9189
  27   2.0000      -0.903260       -24.5789
  28   2.0000      -0.876098       -23.8398
  29   2.0000      -0.848617       -23.0921
  30   2.0000      -0.840956       -22.8836
  31   2.0000      -0.806380       -21.9427
  32   2.0000      -0.785263       -21.3681
  33   2.0000      -0.775710       -21.1081
  34   2.0000      -0.703778       -19.1508
  35   2.0000      -0.698902       -19.0181
  36   2.0000      -0.691070       -18.8050
  37   2.0000      -0.664205       -18.0739
  38   2.0000      -0.642138       -17.4735
  39   2.0000      -0.606872       -16.5138
  40   2.0000      -0.596861       -16.2414
  41   2.0000      -0.574890       -15.6435
  42   2.0000      -0.554523       -15.0893
  43   2.0000      -0.549572       -14.9546
  44   2.0000      -0.546302       -14.8656
  45   2.0000      -0.532931       -14.5018
  46   2.0000      -0.511932       -13.9304
  47   2.0000      -0.506131       -13.7725
  48   2.0000      -0.501402       -13.6438
  49   2.0000      -0.494834       -13.4651
  50   2.0000      -0.486144       -13.2286
  51   2.0000      -0.478186       -13.0121
  52   2.0000      -0.468999       -12.7621
  53   2.0000      -0.463845       -12.6219
  54   2.0000      -0.462995       -12.5987
  55   2.0000      -0.449300       -12.2261
  56   2.0000      -0.447264       -12.1707
  57   2.0000      -0.442557       -12.0426
  58   2.0000      -0.425043       -11.5660
  59   2.0000      -0.421625       -11.4730
  60   2.0000      -0.419612       -11.4182
  61   2.0000      -0.412050       -11.2125
  62   2.0000      -0.410778       -11.1778
  63   2.0000      -0.343429        -9.3452
  64   2.0000      -0.327085        -8.9004
  65   2.0000      -0.321855        -8.7581
  66   2.0000      -0.295710        -8.0467
  67   0.0000       0.034675         0.9436
  68   0.0000       0.066010         1.7962
  69   0.0000       0.110268         3.0006
  70   0.0000       0.113881         3.0989
  71   0.0000       0.134911         3.6711

MULLIKEN ATOMIC CHARGES
-----------------------
   0 S :    0.128460
   1 C :   -0.098719
   2 C :   -0.127706
   3 C :    0.016355
   4 C :   -0.157672
   5 H :    0.035496
   6 C :    0.086041
   7 H :    0.038899
   8 H :    0.003407
   9 C :   -0.085530
  10 H :    0.028295
  11 H :    0.027845
  12 C :   -0.024097
  13 H :    0.005556
  14 H :    0.030837
  15 H :    0.054889
  16 S :    0.099232
  17 C :   -0.077442
  18 C :   -0.015323
  19 C :   -0.059625
  20 C :   -0.156363
  21 H :    0.006978
  22 C :    0.095027
  23 H :    0.024094
  24 H :    0.015214
  25 C :   -0.096156
  26 H :    0.030068
  27 H :    0.017178
  28 C :   -0.029901
  29 H :    0.059357
  30 H :    0.024539
  31 H :    0.014103
  32 H :    0.037059
  33 H :    0.049605
Sum of atomic charges:    0.0000000

LOEWDIN ATOMIC CHARGES
----------------------
   0 S :    0.430584
   1 C :   -0.209034
   2 C :   -0.067714
   3 C :   -0.045145
   4 C :   -0.210222
   5 H :    0.038784
   6 C :   -0.032887
   7 H :    0.038675
   8 H :    0.021477
   9 C :   -0.044418
  10 H :    0.024521
  11 H :    0.023427
  12 C :   -0.058177
  13 H :    0.012262
  14 H :    0.027774
  15 H :    0.032928
  16 S :    0.406632
  17 C :   -0.186395
  18 C :   -0.067431
  19 C :   -0.053153
  20 C :   -0.196622
  21 H :    0.025799
  22 C :   -0.028856
  23 H :    0.026087
  24 H :    0.028262
  25 C :   -0.042729
  26 H :    0.030439
  27 H :    0.016661
  28 C :   -0.070527
  29 H :    0.030872
  30 H :    0.029157
  31 H :    0.024729
  32 H :    0.023931
  33 H :    0.020309

  Mayer bond orders larger than 0.100000
B(  0-S ,  1-C ) :   1.1530 B(  0-S ,  4-C ) :   1.1474 B(  1-C ,  2-C ) :   1.6082
B(  1-C , 32-H ) :   0.9661 B(  2-C ,  3-C ) :   1.2564 B(  2-C ,  6-C ) :   1.0092
B(  3-C ,  4-C ) :   1.5492 B(  3-C ,  5-H ) :   0.9897 B(  4-C , 20-C ) :   1.0516
B(  6-C ,  7-H ) :   0.9407 B(  6-C ,  8-H ) :   0.9383 B(  6-C ,  9-C ) :   1.0837
B(  9-C , 10-H ) :   0.9529 B(  9-C , 11-H ) :   0.9553 B(  9-C , 12-C ) :   1.0770
B( 12-C , 13-H ) :   0.9732 B( 12-C , 14-H ) :   0.9720 B( 12-C , 15-H ) :   0.9715
B( 16-S , 17-C ) :   1.1709 B( 16-S , 20-C ) :   1.1267 B( 17-C , 18-C ) :   1.5871
B( 17-C , 33-H ) :   0.9731 B( 18-C , 19-C ) :   1.2256 B( 18-C , 21-H ) :   0.9999
B( 19-C , 20-C ) :   1.6355 B( 19-C , 22-C ) :   1.0386 B( 22-C , 23-H ) :   0.9424
B( 22-C , 24-H ) :   0.9268 B( 22-C , 25-C ) :   1.0822 B( 25-C , 26-H ) :   0.9541
B( 25-C , 27-H ) :   0.9558 B( 25-C , 28-C ) :   1.0626 B( 28-C , 29-H ) :   0.9772
B( 28-C , 30-H ) :   0.9718 B( 28-C , 31-H ) :   0.9691

Dispersion correction           -0.015417588
FINAL SINGLE POINT ENERGY     -1339.870247701033

DIPOLE MOMENT
-------------
                                X             Y             Z
Electronic contribution:     14.27802     -15.61226     -12.28830
Nuclear contribution   :    -14.72576      16.00711      12.23810
                        -----------------------------------------
Total Dipole Moment    :     -0.44774       0.39485      -0.05021
                        -----------------------------------------
Magnitude (a.u.)       :      0.59908
Magnitude (Debye)      :      1.52275

Rotational constants in cm-1:     0.019653     0.009226     0.007810
Rotational constants in MHz :   589.168301   276.599782   234.150464

                             ****ORCA TERMINATED NORMALLY****
TOTAL RUN TIME: 0 days 0 hours 0 minutes 36 seconds 208 msec
