                         Program Version 4.2.1 -  RELEASE  -
|  1> ! wB97X-D3 SP def2-SVP
|  2> %pal
|  3> nprocs 16
|  4> end
|  5>
|  6> * xyz 0 1
|  7> S 	 -34.1748 	 55.0966 	 99.1438
|  8> C 	 -33.2579 	 53.6944 	 99.629
|  9> C 	 -33.6104 	 52.4832 	 98.9363
| 10> C 	 -34.4832 	 52.8086 	 97.851
| 11> C 	 -34.9551 	 54.1619 	 97.9054
| 12> H 	 -35.0019 	 52.149 	 97.1604
| 13> C 	 -33.0936 	 51.0545 	 99.3159
| 14> H 	 -32.2055 	 51.1514 	 99.9781
| 15> H 	 -32.7343 	 50.3937 	 98.5075
| 16> C 	 -34.1504 	 50.2561 	 100.155
| 17> H 	 -33.7761 	 49.3695 	 100.619
| 18> H 	 -34.3443 	 50.9902 	 100.919
| 19> C 	 -35.4594 	 49.9124 	 99.3919
| 20> H 	 -35.3588 	 49.1763 	 98.6057
| 21> H 	 -36.2154 	 49.5338 	 100.106
| 22> H 	 -35.9978 	 50.7499 	 98.8332
| 23> S 	 -35.5067 	 55.6324 	 95.5929
| 24> C 	 -37.1816 	 56.124 	 95.3307
| 25> C 	 -38.0421 	 55.4677 	 96.1486
| 26> C 	 -37.3637 	 54.8934 	 97.2701
| 27> C 	 -36.0185 	 54.8376 	 97.0634
| 28> H 	 -39.0992 	 55.607 	 96.0143
| 29> C 	 -38.1614 	 54.3047 	 98.4346
| 30> H 	 -38.8015 	 55.0948 	 98.798
| 31> H 	 -37.4847 	 54.1182 	 99.2304
| 32> C 	 -38.9187 	 53.0419 	 98.2639
| 33> H 	 -38.9931 	 52.5847 	 99.3036
| 34> H 	 -38.3372 	 52.3173 	 97.7528
| 35> C 	 -40.25 	 53.2016 	 97.5221
| 36> H 	 -40.0403 	 53.3608 	 96.4443
| 37> H 	 -40.8838 	 54.039 	 98.0377
| 38> H 	 -40.7129 	 52.2019 	 97.6117
| 39> H 	 -32.4998 	 53.7864 	 100.372
| 40> H 	 -37.4833 	 56.7873 	 94.5093
| 41> *
| 42>
| 43>                          ****END OF INPUT****

CARTESIAN COORDINATES (ANGSTROEM)
---------------------------------
  S    -34.174800   55.096600   99.143800
  C    -33.257900   53.694400   99.629000
  C    -33.610400   52.483200   98.936300
  C    -34.483200   52.808600   97.851000
  C    -34.955100   54.161900   97.905400
  H    -35.001900   52.149000   97.160400
  C    -33.093600   51.054500   99.315900
  H    -32.205500   51.151400   99.978100
  H    -32.734300   50.393700   98.507500
  C    -34.150400   50.256100  100.155000
  H    -33.776100   49.369500  100.619000
  H    -34.344300   50.990200  100.919000
  C    -35.459400   49.912400   99.391900
  H    -35.358800   49.176300   98.605700
  H    -36.215400   49.533800  100.106000
  H    -35.997800   50.749900   98.833200
  S    -35.506700   55.632400   95.592900
  C    -37.181600   56.124000   95.330700
  C    -38.042100   55.467700   96.148600
  C    -37.363700   54.893400   97.270100
  C    -36.018500   54.837600   97.063400
  H    -39.099200   55.607000   96.014300
  C    -38.161400   54.304700   98.434600
  H    -38.801500   55.094800   98.798000
  H    -37.484700   54.118200   99.230400
  C    -38.918700   53.041900   98.263900
  H    -38.993100   52.584700   99.303600
  H    -38.337200   52.317300   97.752800
  C    -40.250000   53.201600   97.522100
  H    -40.040300   53.360800   96.444300
  H    -40.883800   54.039000   98.037700
  H    -40.712900   52.201900   97.611700
  H    -32.499800   53.786400  100.372000
  H    -37.483300   56.787300   94.509300

 Total Charge           Charge          ....    0
 Multiplicity           Mult            ....    1
 Number of Electrons    NEL             ....  134
 Basis Dimension        Dim             ....  322

ORBITAL ENERGIES
----------------

  NO   OCC          E(Eh)            E(eV)
   0   2.0000     -88.972003     -2421.0513
   1   2.0000     -88.962519     -2420.7932
   2   2.0000     -10.333071      -281.1771
   3   2.0000     -10.324090      -280.9328
   4   2.0000     -10.318273      -280.7745
   5   2.0000     -10.316238      -280.7191
   6   2.0000     -10.315904      -280.7100
   7   2.0000     -10.303592      -280.3750
   8   2.0000     -10.302381      -280.3420
   9   2.0000     -10.299979      -280.2767
  10   2.0000     -10.289360      -279.9877
  11   2.0000     -10.289020      -279.9785
  12   2.0000     -10.288079      -279.9529
  13   2.0000     -10.283000      -279.8146
  14   2.0000     -10.282664      -279.8055
  15   2.0000     -10.280185      -279.7381
  16   2.0000      -8.086464      -220.0439
  17   2.0000      -8.077435      -219.7982
  18   2.0000      -6.044625      -164.4826
  19   2.0000      -6.040893      -164.3811
  20   2.0000      -6.037742      -164.2953
  21   2.0000      -6.035903      -164.2453
  22   2.0000      -6.032111      -164.1421
  23   2.0000      -6.028030      -164.0310
  24   2.0000      -1.002853       -27.2890
  25   2.0000      -0.980820       -26.6895
  26   2.0000      -0.913808       -24.8660
  27   2.0000      -0.902918       -24.5696
  28   2.0000      -0.859392       -23.3852
  29   2.0000      -0.846274       -23.0283
  30   2.0000      -0.844108       -22.9693
  31   2.0000      -0.810399       -22.0521
  32   2.0000      -0.784895       -21.3581
  33   2.0000      -0.771708       -20.9992
  34   2.0000      -0.699835       -19.0435
  35   2.0000      -0.696445       -18.9512
  36   2.0000      -0.682873       -18.5819
  37   2.0000      -0.659538       -17.9469
  38   2.0000      -0.646372       -17.5887
  39   2.0000      -0.611394       -16.6369
  40   2.0000      -0.597946       -16.2709
  41   2.0000      -0.572517       -15.5790
  42   2.0000      -0.553055       -15.0494
  43   2.0000      -0.542329       -14.7575
  44   2.0000      -0.539533       -14.6814
  45   2.0000      -0.534805       -14.5528
  46   2.0000      -0.517797       -14.0900
  47   2.0000      -0.506682       -13.7875
  48   2.0000      -0.498228       -13.5575
  49   2.0000      -0.490886       -13.3577
  50   2.0000      -0.483686       -13.1618
  51   2.0000      -0.479132       -13.0378
  52   2.0000      -0.472964       -12.8700
  53   2.0000      -0.465536       -12.6679
  54   2.0000      -0.457613       -12.4523
  55   2.0000      -0.444025       -12.0825
  56   2.0000      -0.440825       -11.9955
  57   2.0000      -0.439507       -11.9596
  58   2.0000      -0.431105       -11.7310
  59   2.0000      -0.426144       -11.5960
  60   2.0000      -0.419497       -11.4151
  61   2.0000      -0.417638       -11.3645
  62   2.0000      -0.409272       -11.1369
  63   2.0000      -0.338629        -9.2146
  64   2.0000      -0.331365        -9.0169
  65   2.0000      -0.318052        -8.6546
  66   2.0000      -0.306476        -8.3396
  67   0.0000       0.043474         1.1830
  68   0.0000       0.054573         1.4850
  69   0.0000       0.113380         3.0852
  70   0.0000       0.119053         3.2396
  71   0.0000       0.121273         3.3000

MULLIKEN ATOMIC CHARGES
-----------------------
   0 S :    0.140850
   1 C :   -0.119524
   2 C :   -0.086248
   3 C :    0.067180
   4 C :   -0.218534
   5 H :    0.021425
   6 C :    0.036124
   7 H :    0.027299
   8 H :    0.039069
   9 C :   -0.037369
  10 H :    0.032874
  11 H :    0.024107
  12 C :   -0.094028
  13 H :    0.025923
  14 H :    0.037834
  15 H :    0.039867
  16 S :    0.110721
  17 C :   -0.104885
  18 C :   -0.021163
  19 C :   -0.036218
  20 C :   -0.185689
  21 H :    0.019580
  22 C :    0.119569
  23 H :    0.017070
  24 H :    0.005770
  25 C :   -0.077352
  26 H :    0.035575
  27 H :    0.015696
  28 C :   -0.081426
  29 H :    0.050719
  30 H :    0.049916
  31 H :    0.041629
  32 H :    0.041908
  33 H :    0.061730
Sum of atomic charges:    0.0000000

LOEWDIN ATOMIC CHARGES
----------------------
   0 S :    0.434341
   1 C :   -0.199967
   2 C :   -0.055285
   3 C :   -0.059882
   4 C :   -0.206740
   5 H :    0.032151
   6 C :   -0.032685
   7 H :    0.033007
   8 H :    0.029216
   9 C :   -0.035224
  10 H :    0.022653
  11 H :    0.023987
  12 C :   -0.080127
  13 H :    0.019484
  14 H :    0.029500
  15 H :    0.031736
  16 S :    0.393046
  17 C :   -0.172022
  18 C :   -0.073415
  19 C :   -0.051665
  20 C :   -0.211621
  21 H :    0.030112
  22 C :   -0.031128
  23 H :    0.029210
  24 H :    0.026782
  25 C :   -0.045623
  26 H :    0.033391
  27 H :    0.018533
  28 C :   -0.075827
  29 H :    0.029845
  30 H :    0.035633
  31 H :    0.030495
  32 H :    0.016930
  33 H :    0.031158

  Mayer bond orders larger than 0.100000
B(  0-S ,  1-C ) :   1.1747 B(  0-S ,  4-C ) :   1.1871 B(  1-C ,  2-C ) :   1.5617
B(  1-C ,  4-C ) :   0.1125 B(  1-C , 32-H ) :   0.9717 B(  2-C ,  3-C ) :   1.2706
B(  2-C ,  6-C ) :   1.0189 B(  3-C ,  4-C ) :   1.5564 B(  3-C ,  5-H ) :   0.9843
B(  4-C , 20-C ) :   0.9790 B(  6-C ,  7-H ) :   0.9450 B(  6-C ,  8-H ) :   0.9531
B(  6-C ,  9-C ) :   1.0584 B(  9-C , 10-H ) :   0.9580 B(  9-C , 11-H ) :   0.9550
B(  9-C , 12-C ) :   1.0732 B( 12-C , 13-H ) :   0.9760 B( 12-C , 14-H ) :   0.9737
B( 12-C , 15-H ) :   0.9707 B( 16-S , 17-C ) :   1.1449 B( 16-S , 20-C ) :   1.1381
B( 17-C , 18-C ) :   1.6510 B( 17-C , 33-H ) :   0.9633 B( 18-C , 19-C ) :   1.2041
B( 18-C , 21-H ) :   0.9835 B( 19-C , 20-C ) :   1.6549 B( 19-C , 22-C ) :   1.0462
B( 22-C , 23-H ) :   0.9289 B( 22-C , 24-H ) :   0.9164 B( 22-C , 25-C ) :   1.0840
B( 25-C , 26-H ) :   0.9545 B( 25-C , 27-H ) :   0.9452 B( 25-C , 28-C ) :   1.0776
B( 28-C , 29-H ) :   0.9676 B( 28-C , 30-H ) :   0.9738 B( 28-C , 31-H ) :   0.9708

Dispersion correction           -0.015403330
FINAL SINGLE POINT ENERGY     -1339.867993446883

DIPOLE MOMENT
-------------
                                X             Y             Z
Electronic contribution:     14.39246      22.52631      -9.20076
Nuclear contribution   :    -14.71792     -22.96691       9.43780
                        -----------------------------------------
Total Dipole Moment    :     -0.32547      -0.44060       0.23704
                        -----------------------------------------
Magnitude (a.u.)       :      0.59686
Magnitude (Debye)      :      1.51710

Rotational constants in cm-1:     0.017781     0.009656     0.007238
Rotational constants in MHz :   533.066546   289.483228   216.993401

                             ****ORCA TERMINATED NORMALLY****
TOTAL RUN TIME: 0 days 0 hours 0 minutes 30 seconds 693 msec
