                         Program Version 4.2.1 -  RELEASE  -
|  1> ! wB97X-D3 SP def2-SVP
|  2> %pal
|  3> nprocs 16
|  4> end
|  5>
|  6> * xyz 0 1
|  7> S 	 34.7544 	 -2.47463 	 68.1877
|  8> C 	 34.7156 	 -1.1162 	 69.2182
|  9> C 	 33.4602 	 -0.795817 	 69.5038
| 10> C 	 32.4885 	 -1.54192 	 68.7363
| 11> C 	 33.0824 	 -2.553 	 68.0309
| 12> H 	 31.4477 	 -1.2707 	 68.5842
| 13> C 	 32.9891 	 0.417987 	 70.2623
| 14> H 	 32.1124 	 0.742514 	 69.6978
| 15> H 	 33.6158 	 1.29256 	 70.1724
| 16> C 	 32.6084 	 0.194749 	 71.7556
| 17> H 	 33.3702 	 -0.445787 	 72.202
| 18> H 	 32.7419 	 1.17602 	 72.2868
| 19> C 	 31.2057 	 -0.259638 	 72.0558
| 20> H 	 30.9179 	 -1.18659 	 71.5314
| 21> H 	 31.0923 	 -0.428176 	 73.0775
| 22> H 	 30.3949 	 0.446892 	 71.661
| 23> S 	 31.4576 	 -3.20653 	 65.8749
| 24> C 	 30.7873 	 -4.68753 	 65.6204
| 25> C 	 31.2829 	 -5.64104 	 66.5769
| 26> C 	 32.2152 	 -5.01081 	 67.5975
| 27> C 	 32.3823 	 -3.63707 	 67.3607
| 28> H 	 31.1741 	 -6.6808 	 66.6222
| 29> C 	 32.8516 	 -5.78461 	 68.759
| 30> H 	 33.9541 	 -5.55566 	 68.7169
| 31> H 	 32.7901 	 -6.85097 	 68.5519
| 32> C 	 32.22 	 -5.39213 	 70.0887
| 33> H 	 31.1572 	 -5.65215 	 70.1746
| 34> H 	 32.4334 	 -4.37432 	 70.296
| 35> C 	 32.7698 	 -6.24407 	 71.2332
| 36> H 	 32.3562 	 -5.796 	 72.1895
| 37> H 	 33.866 	 -6.30216 	 71.2496
| 38> H 	 32.3414 	 -7.2935 	 71.2601
| 39> H 	 35.4711 	 -0.745762 	 69.8834
| 40> H 	 30.204 	 -4.89027 	 64.7367
| 41> *
| 42>
| 43>                          ****END OF INPUT****

CARTESIAN COORDINATES (ANGSTROEM)
---------------------------------
  S     34.754400   -2.474630   68.187700
  C     34.715600   -1.116200   69.218200
  C     33.460200   -0.795817   69.503800
  C     32.488500   -1.541920   68.736300
  C     33.082400   -2.553000   68.030900
  H     31.447700   -1.270700   68.584200
  C     32.989100    0.417987   70.262300
  H     32.112400    0.742514   69.697800
  H     33.615800    1.292560   70.172400
  C     32.608400    0.194749   71.755600
  H     33.370200   -0.445787   72.202000
  H     32.741900    1.176020   72.286800
  C     31.205700   -0.259638   72.055800
  H     30.917900   -1.186590   71.531400
  H     31.092300   -0.428176   73.077500
  H     30.394900    0.446892   71.661000
  S     31.457600   -3.206530   65.874900
  C     30.787300   -4.687530   65.620400
  C     31.282900   -5.641040   66.576900
  C     32.215200   -5.010810   67.597500
  C     32.382300   -3.637070   67.360700
  H     31.174100   -6.680800   66.622200
  C     32.851600   -5.784610   68.759000
  H     33.954100   -5.555660   68.716900
  H     32.790100   -6.850970   68.551900
  C     32.220000   -5.392130   70.088700
  H     31.157200   -5.652150   70.174600
  H     32.433400   -4.374320   70.296000
  C     32.769800   -6.244070   71.233200
  H     32.356200   -5.796000   72.189500
  H     33.866000   -6.302160   71.249600
  H     32.341400   -7.293500   71.260100
  H     35.471100   -0.745762   69.883400
  H     30.204000   -4.890270   64.736700

 Total Charge           Charge          ....    0
 Multiplicity           Mult            ....    1
 Number of Electrons    NEL             ....  134
 Basis Dimension        Dim             ....  322

ORBITAL ENERGIES
----------------

  NO   OCC          E(Eh)            E(eV)
   0   2.0000     -88.966056     -2420.8895
   1   2.0000     -88.961560     -2420.7671
   2   2.0000     -10.328474      -281.0521
   3   2.0000     -10.324070      -280.9322
   4   2.0000     -10.320430      -280.8332
   5   2.0000     -10.312896      -280.6282
   6   2.0000     -10.303830      -280.3815
   7   2.0000     -10.301139      -280.3082
   8   2.0000     -10.295850      -280.1643
   9   2.0000     -10.293344      -280.0961
  10   2.0000     -10.291041      -280.0335
  11   2.0000     -10.289542      -279.9927
  12   2.0000     -10.288804      -279.9726
  13   2.0000     -10.282108      -279.7904
  14   2.0000     -10.281054      -279.7617
  15   2.0000     -10.277906      -279.6761
  16   2.0000      -8.082755      -219.9429
  17   2.0000      -8.077673      -219.8046
  18   2.0000      -6.041148      -164.3880
  19   2.0000      -6.036828      -164.2704
  20   2.0000      -6.035990      -164.2476
  21   2.0000      -6.033656      -164.1841
  22   2.0000      -6.031702      -164.1309
  23   2.0000      -6.028830      -164.0528
  24   2.0000      -1.019452       -27.7407
  25   2.0000      -0.985649       -26.8209
  26   2.0000      -0.913518       -24.8581
  27   2.0000      -0.909499       -24.7487
  28   2.0000      -0.874442       -23.7948
  29   2.0000      -0.850921       -23.1547
  30   2.0000      -0.846262       -23.0280
  31   2.0000      -0.807992       -21.9866
  32   2.0000      -0.783871       -21.3302
  33   2.0000      -0.773350       -21.0439
  34   2.0000      -0.703247       -19.1363
  35   2.0000      -0.699652       -19.0385
  36   2.0000      -0.687928       -18.7195
  37   2.0000      -0.666283       -18.1305
  38   2.0000      -0.644280       -17.5318
  39   2.0000      -0.613199       -16.6860
  40   2.0000      -0.594660       -16.1815
  41   2.0000      -0.574756       -15.6399
  42   2.0000      -0.570427       -15.5221
  43   2.0000      -0.550721       -14.9859
  44   2.0000      -0.538612       -14.6564
  45   2.0000      -0.523203       -14.2371
  46   2.0000      -0.517997       -14.0954
  47   2.0000      -0.513542       -13.9742
  48   2.0000      -0.512085       -13.9345
  49   2.0000      -0.501053       -13.6343
  50   2.0000      -0.493525       -13.4295
  51   2.0000      -0.481688       -13.1074
  52   2.0000      -0.472617       -12.8606
  53   2.0000      -0.465063       -12.6550
  54   2.0000      -0.452006       -12.2997
  55   2.0000      -0.447943       -12.1891
  56   2.0000      -0.445053       -12.1105
  57   2.0000      -0.434826       -11.8322
  58   2.0000      -0.434216       -11.8156
  59   2.0000      -0.423155       -11.5146
  60   2.0000      -0.418587       -11.3903
  61   2.0000      -0.408960       -11.1284
  62   2.0000      -0.406238       -11.0543
  63   2.0000      -0.339798        -9.2464
  64   2.0000      -0.330475        -8.9927
  65   2.0000      -0.320720        -8.7272
  66   2.0000      -0.304853        -8.2955
  67   0.0000       0.039989         1.0882
  68   0.0000       0.064984         1.7683
  69   0.0000       0.109404         2.9770
  70   0.0000       0.117759         3.2044
  71   0.0000       0.133503         3.6328

MULLIKEN ATOMIC CHARGES
-----------------------
   0 S :    0.126536
   1 C :   -0.090867
   2 C :   -0.093571
   3 C :    0.030241
   4 C :   -0.153766
   5 H :    0.020626
   6 C :    0.040622
   7 H :    0.015970
   8 H :    0.022691
   9 C :   -0.067365
  10 H :    0.026484
  11 H :    0.029786
  12 C :   -0.045206
  13 H :    0.028393
  14 H :    0.028536
  15 H :    0.034958
  16 S :    0.110299
  17 C :   -0.079296
  18 C :   -0.019747
  19 C :   -0.058518
  20 C :   -0.181654
  21 H :   -0.001928
  22 C :    0.056087
  23 H :    0.040037
  24 H :    0.013318
  25 C :   -0.046367
  26 H :    0.037162
  27 H :    0.041175
  28 C :   -0.087807
  29 H :    0.035921
  30 H :    0.034994
  31 H :    0.035759
  32 H :    0.045287
  33 H :    0.071211
Sum of atomic charges:   -0.0000000

LOEWDIN ATOMIC CHARGES
----------------------
   0 S :    0.455030
   1 C :   -0.212195
   2 C :   -0.068798
   3 C :   -0.061179
   4 C :   -0.225398
   5 H :    0.032287
   6 C :   -0.033357
   7 H :    0.031879
   8 H :    0.029210
   9 C :   -0.044621
  10 H :    0.023207
  11 H :    0.029258
  12 C :   -0.069087
  13 H :    0.025217
  14 H :    0.018919
  15 H :    0.033193
  16 S :    0.434663
  17 C :   -0.215672
  18 C :   -0.075377
  19 C :   -0.041816
  20 C :   -0.198564
  21 H :    0.015948
  22 C :   -0.036782
  23 H :    0.036716
  24 H :    0.027089
  25 C :   -0.036967
  26 H :    0.033174
  27 H :    0.023759
  28 C :   -0.073723
  29 H :    0.030761
  30 H :    0.020256
  31 H :    0.026910
  32 H :    0.033750
  33 H :    0.032310

  Mayer bond orders larger than 0.100000
B(  0-S ,  1-C ) :   1.1337 B(  0-S ,  4-C ) :   1.1789 B(  1-C ,  2-C ) :   1.6535
B(  1-C , 32-H ) :   0.9589 B(  2-C ,  3-C ) :   1.2377 B(  2-C ,  6-C ) :   1.0137
B(  3-C ,  4-C ) :   1.5708 B(  3-C ,  5-H ) :   0.9916 B(  4-C , 20-C ) :   1.0029
B(  6-C ,  7-H ) :   0.9464 B(  6-C ,  8-H ) :   0.9526 B(  6-C ,  9-C ) :   1.0537
B(  9-C , 10-H ) :   0.9565 B(  9-C , 11-H ) :   0.9543 B(  9-C , 12-C ) :   1.0895
B( 12-C , 13-H ) :   0.9726 B( 12-C , 14-H ) :   0.9720 B( 12-C , 15-H ) :   0.9713
B( 16-S , 17-C ) :   1.2126 B( 16-S , 18-C ) :   0.1014 B( 16-S , 20-C ) :   1.1397
B( 17-C , 18-C ) :   1.5254 B( 17-C , 33-H ) :   0.9708 B( 18-C , 19-C ) :   1.2633
B( 18-C , 21-H ) :   0.9942 B( 19-C , 20-C ) :   1.5943 B( 19-C , 22-C ) :   1.0454
B( 22-C , 23-H ) :   0.9320 B( 22-C , 24-H ) :   0.9330 B( 22-C , 25-C ) :   1.0739
B( 25-C , 26-H ) :   0.9548 B( 25-C , 27-H ) :   0.9550 B( 25-C , 28-C ) :   1.0838
B( 28-C , 29-H ) :   0.9743 B( 28-C , 30-H ) :   0.9729 B( 28-C , 31-H ) :   0.9767

Dispersion correction           -0.014798306
FINAL SINGLE POINT ENERGY     -1339.863458573977

DIPOLE MOMENT
-------------
                                X             Y             Z
Electronic contribution:      5.64945       0.49217     -25.68432
Nuclear contribution   :     -5.79220      -0.49380      26.13910
                        -----------------------------------------
Total Dipole Moment    :     -0.14275      -0.00162       0.45478
                        -----------------------------------------
Magnitude (a.u.)       :      0.47666
Magnitude (Debye)      :      1.21157

Rotational constants in cm-1:     0.017262     0.009156     0.007853
Rotational constants in MHz :   517.499111   274.499776   235.441016

                             ****ORCA TERMINATED NORMALLY****
TOTAL RUN TIME: 0 days 0 hours 0 minutes 30 seconds 835 msec
