                         Program Version 4.2.1 -  RELEASE  -
|  1> ! wB97X-D3 SP def2-SVP
|  2> %pal
|  3> nprocs 16
|  4> end
|  5>
|  6> * xyz 0 1
|  7> S 	 -74.4612 	 51.9903 	 137.645
|  8> C 	 -72.7619 	 51.5065 	 137.693
|  9> C 	 -72.4252 	 50.5745 	 136.694
| 10> C 	 -73.5076 	 50.3663 	 135.791
| 11> C 	 -74.606 	 51.0236 	 136.229
| 12> H 	 -73.4763 	 49.6851 	 134.916
| 13> C 	 -71.1541 	 49.8353 	 136.676
| 14> H 	 -70.6782 	 49.8791 	 137.734
| 15> H 	 -70.5124 	 50.4302 	 136.035
| 16> C 	 -71.1807 	 48.4432 	 136.123
| 17> H 	 -71.681 	 48.4092 	 135.157
| 18> H 	 -70.1666 	 48.1856 	 135.863
| 19> C 	 -71.7381 	 47.4522 	 137.118
| 20> H 	 -71.25 	 47.4977 	 138.114
| 21> H 	 -72.7508 	 47.7394 	 137.314
| 22> H 	 -71.7777 	 46.3639 	 136.728
| 23> S 	 -77.2208 	 50.0916 	 136.179
| 24> C 	 -78.1517 	 50.2229 	 134.666
| 25> C 	 -77.4126 	 50.8271 	 133.708
| 26> C 	 -76.1112 	 51.2617 	 134.129
| 27> C 	 -75.8643 	 50.859 	 135.463
| 28> H 	 -77.8058 	 50.9682 	 132.745
| 29> C 	 -75.1853 	 52.1561 	 133.372
| 30> H 	 -74.4321 	 52.5436 	 134.013
| 31> H 	 -75.8213 	 52.9654 	 133.139
| 32> C 	 -74.6328 	 51.5033 	 132.131
| 33> H 	 -75.4447 	 51.0986 	 131.548
| 34> H 	 -73.9739 	 50.7189 	 132.33
| 35> C 	 -73.924 	 52.4247 	 131.143
| 36> H 	 -74.5851 	 53.2084 	 130.95
| 37> H 	 -73.6065 	 51.9183 	 130.174
| 38> H 	 -73.0679 	 52.8132 	 131.636
| 39> H 	 -72.1282 	 51.8486 	 138.56
| 40> H 	 -79.1399 	 49.8643 	 134.435
| 41> *
| 42>
| 43>                          ****END OF INPUT****

CARTESIAN COORDINATES (ANGSTROEM)
---------------------------------
  S    -74.461200   51.990300  137.645000
  C    -72.761900   51.506500  137.693000
  C    -72.425200   50.574500  136.694000
  C    -73.507600   50.366300  135.791000
  C    -74.606000   51.023600  136.229000
  H    -73.476300   49.685100  134.916000
  C    -71.154100   49.835300  136.676000
  H    -70.678200   49.879100  137.734000
  H    -70.512400   50.430200  136.035000
  C    -71.180700   48.443200  136.123000
  H    -71.681000   48.409200  135.157000
  H    -70.166600   48.185600  135.863000
  C    -71.738100   47.452200  137.118000
  H    -71.250000   47.497700  138.114000
  H    -72.750800   47.739400  137.314000
  H    -71.777700   46.363900  136.728000
  S    -77.220800   50.091600  136.179000
  C    -78.151700   50.222900  134.666000
  C    -77.412600   50.827100  133.708000
  C    -76.111200   51.261700  134.129000
  C    -75.864300   50.859000  135.463000
  H    -77.805800   50.968200  132.745000
  C    -75.185300   52.156100  133.372000
  H    -74.432100   52.543600  134.013000
  H    -75.821300   52.965400  133.139000
  C    -74.632800   51.503300  132.131000
  H    -75.444700   51.098600  131.548000
  H    -73.973900   50.718900  132.330000
  C    -73.924000   52.424700  131.143000
  H    -74.585100   53.208400  130.950000
  H    -73.606500   51.918300  130.174000
  H    -73.067900   52.813200  131.636000
  H    -72.128200   51.848600  138.560000
  H    -79.139900   49.864300  134.435000

 Total Charge           Charge          ....    0
 Multiplicity           Mult            ....    1
 Number of Electrons    NEL             ....  134
 Basis Dimension        Dim             ....  322

ORBITAL ENERGIES
----------------

  NO   OCC          E(Eh)            E(eV)
   0   2.0000     -88.970960     -2421.0229
   1   2.0000     -88.963187     -2420.8114
   2   2.0000     -10.324537      -280.9449
   3   2.0000     -10.320428      -280.8331
   4   2.0000     -10.317031      -280.7407
   5   2.0000     -10.312142      -280.6076
   6   2.0000     -10.301237      -280.3109
   7   2.0000     -10.297749      -280.2160
   8   2.0000     -10.293829      -280.1093
   9   2.0000     -10.292992      -280.0866
  10   2.0000     -10.286063      -279.8980
  11   2.0000     -10.284123      -279.8452
  12   2.0000     -10.280188      -279.7381
  13   2.0000     -10.279585      -279.7217
  14   2.0000     -10.273956      -279.5685
  15   2.0000     -10.270676      -279.4793
  16   2.0000      -8.085814      -220.0262
  17   2.0000      -8.077913      -219.8112
  18   2.0000      -6.044126      -164.4690
  19   2.0000      -6.040521      -164.3709
  20   2.0000      -6.036572      -164.2635
  21   2.0000      -6.036440      -164.2599
  22   2.0000      -6.032426      -164.1507
  23   2.0000      -6.028663      -164.0483
  24   2.0000      -1.008437       -27.4410
  25   2.0000      -0.984144       -26.7799
  26   2.0000      -0.922597       -25.1051
  27   2.0000      -0.915692       -24.9172
  28   2.0000      -0.867505       -23.6060
  29   2.0000      -0.854103       -23.2413
  30   2.0000      -0.849685       -23.1211
  31   2.0000      -0.818799       -22.2806
  32   2.0000      -0.781734       -21.2721
  33   2.0000      -0.766379       -20.8542
  34   2.0000      -0.708741       -19.2858
  35   2.0000      -0.701475       -19.0881
  36   2.0000      -0.689580       -18.7644
  37   2.0000      -0.656632       -17.8679
  38   2.0000      -0.635589       -17.2953
  39   2.0000      -0.626834       -17.0570
  40   2.0000      -0.594789       -16.1850
  41   2.0000      -0.574582       -15.6352
  42   2.0000      -0.562542       -15.3075
  43   2.0000      -0.559447       -15.2233
  44   2.0000      -0.537292       -14.6205
  45   2.0000      -0.529804       -14.4167
  46   2.0000      -0.519621       -14.1396
  47   2.0000      -0.512293       -13.9402
  48   2.0000      -0.505980       -13.7684
  49   2.0000      -0.491825       -13.3832
  50   2.0000      -0.487553       -13.2670
  51   2.0000      -0.479353       -13.0439
  52   2.0000      -0.471837       -12.8393
  53   2.0000      -0.460721       -12.5369
  54   2.0000      -0.458325       -12.4717
  55   2.0000      -0.454614       -12.3707
  56   2.0000      -0.448470       -12.2035
  57   2.0000      -0.438140       -11.9224
  58   2.0000      -0.436157       -11.8684
  59   2.0000      -0.429853       -11.6969
  60   2.0000      -0.420812       -11.4509
  61   2.0000      -0.416836       -11.3427
  62   2.0000      -0.414373       -11.2757
  63   2.0000      -0.343299        -9.3416
  64   2.0000      -0.332669        -9.0524
  65   2.0000      -0.321073        -8.7368
  66   2.0000      -0.294008        -8.0004
  67   0.0000       0.041133         1.1193
  68   0.0000       0.069029         1.8784
  69   0.0000       0.111475         3.0334
  70   0.0000       0.120720         3.2850
  71   0.0000       0.133547         3.6340

MULLIKEN ATOMIC CHARGES
-----------------------
   0 S :    0.130065
   1 C :   -0.167377
   2 C :   -0.070217
   3 C :    0.007819
   4 C :   -0.157615
   5 H :    0.036780
   6 C :    0.039259
   7 H :    0.037063
   8 H :    0.035627
   9 C :   -0.044779
  10 H :    0.022623
  11 H :    0.017453
  12 C :   -0.058399
  13 H :    0.033584
  14 H :    0.028881
  15 H :    0.049321
  16 S :    0.108012
  17 C :   -0.083005
  18 C :   -0.013509
  19 C :   -0.056006
  20 C :   -0.181543
  21 H :   -0.003989
  22 C :    0.140203
  23 H :    0.021857
  24 H :    0.012666
  25 C :   -0.077319
  26 H :    0.015238
  27 H :    0.008805
  28 C :   -0.017213
  29 H :    0.011046
  30 H :    0.044906
  31 H :    0.017201
  32 H :    0.065640
  33 H :    0.046923
Sum of atomic charges:   -0.0000000

LOEWDIN ATOMIC CHARGES
----------------------
   0 S :    0.413285
   1 C :   -0.210111
   2 C :   -0.059429
   3 C :   -0.064581
   4 C :   -0.201456
   5 H :    0.041371
   6 C :   -0.039178
   7 H :    0.041297
   8 H :    0.036470
   9 C :   -0.045115
  10 H :    0.024474
  11 H :    0.023493
  12 C :   -0.070426
  13 H :    0.028825
  14 H :    0.022593
  15 H :    0.035833
  16 S :    0.402482
  17 C :   -0.180337
  18 C :   -0.064923
  19 C :   -0.054521
  20 C :   -0.209542
  21 H :    0.022356
  22 C :   -0.023311
  23 H :    0.028443
  24 H :    0.030295
  25 C :   -0.035353
  26 H :    0.020950
  27 H :    0.013479
  28 C :   -0.057662
  29 H :    0.013733
  30 H :    0.035014
  31 H :    0.017588
  32 H :    0.033380
  33 H :    0.030583

  Mayer bond orders larger than 0.100000
B(  0-S ,  1-C ) :   1.1235 B(  0-S ,  4-C ) :   1.1714 B(  1-C ,  2-C ) :   1.6065
B(  1-C , 32-H ) :   0.9633 B(  2-C ,  3-C ) :   1.2270 B(  2-C ,  6-C ) :   1.0241
B(  3-C ,  4-C ) :   1.5815 B(  3-C ,  5-H ) :   0.9873 B(  4-C , 20-C ) :   0.9991
B(  6-C ,  7-H ) :   0.9443 B(  6-C ,  8-H ) :   0.9164 B(  6-C ,  9-C ) :   1.0956
B(  9-C , 10-H ) :   0.9433 B(  9-C , 11-H ) :   0.9459 B(  9-C , 12-C ) :   1.0733
B( 12-C , 13-H ) :   0.9711 B( 12-C , 14-H ) :   0.9751 B( 12-C , 15-H ) :   0.9732
B( 16-S , 17-C ) :   1.1304 B( 16-S , 20-C ) :   1.1574 B( 17-C , 18-C ) :   1.6374
B( 17-C , 33-H ) :   0.9667 B( 18-C , 19-C ) :   1.2354 B( 18-C , 21-H ) :   0.9921
B( 19-C , 20-C ) :   1.5866 B( 19-C , 22-C ) :   1.0424 B( 22-C , 23-H ) :   0.9237
B( 22-C , 24-H ) :   0.9242 B( 22-C , 25-C ) :   1.0639 B( 25-C , 26-H ) :   0.9579
B( 25-C , 27-H ) :   0.9541 B( 25-C , 28-C ) :   1.0870 B( 28-C , 29-H ) :   0.9746
B( 28-C , 30-H ) :   0.9740 B( 28-C , 31-H ) :   0.9726

Dispersion correction           -0.014678978
FINAL SINGLE POINT ENERGY     -1339.876480789389

DIPOLE MOMENT
-------------
                                X             Y             Z
Electronic contribution:    -18.22803       5.94758      16.17367
Nuclear contribution   :     18.62788      -6.02941     -16.59893
                        -----------------------------------------
Total Dipole Moment    :      0.39986      -0.08183      -0.42526
                        -----------------------------------------
Magnitude (a.u.)       :      0.58943
Magnitude (Debye)      :      1.49821

Rotational constants in cm-1:     0.016203     0.009488     0.007812
Rotational constants in MHz :   485.741075   284.428108   234.210719

                             ****ORCA TERMINATED NORMALLY****
TOTAL RUN TIME: 0 days 0 hours 0 minutes 33 seconds 675 msec
