                         Program Version 4.2.1 -  RELEASE  -
|  1> ! wB97X-D3 SP def2-SVP
|  2> %pal
|  3> nprocs 16
|  4> end
|  5>
|  6> * xyz 0 1
|  7> S 	 41.2838 	 26.0756 	 95.5243
|  8> C 	 40.6181 	 27.3991 	 94.7275
|  9> C 	 39.9993 	 27.0211 	 93.4874
| 10> C 	 39.8065 	 25.6054 	 93.4613
| 11> C 	 40.5046 	 24.9485 	 94.4548
| 12> H 	 39.3325 	 24.9844 	 92.6963
| 13> C 	 39.6376 	 27.9614 	 92.2229
| 14> H 	 38.92 	 27.5111 	 91.6179
| 15> H 	 40.4837 	 27.9642 	 91.4995
| 16> C 	 39.2583 	 29.4527 	 92.4375
| 17> H 	 40.097 	 29.9937 	 92.8355
| 18> H 	 38.9537 	 29.937 	 91.5473
| 19> C 	 38.0541 	 29.6353 	 93.4457
| 20> H 	 37.6236 	 30.6528 	 93.4459
| 21> H 	 37.1976 	 28.9335 	 93.3443
| 22> H 	 38.522 	 29.3997 	 94.3974
| 23> S 	 39.6772 	 22.364 	 95.0165
| 24> C 	 40.9244 	 21.0905 	 94.8932
| 25> C 	 42.0827 	 21.5559 	 94.3926
| 26> C 	 42.0966 	 22.9588 	 94.0616
| 27> C 	 40.8776 	 23.5486 	 94.3915
| 28> H 	 42.8554 	 20.8206 	 94.2055
| 29> C 	 43.3776 	 23.5299 	 93.4614
| 30> H 	 44.1283 	 22.7838 	 93.6477
| 31> H 	 43.7769 	 24.3223 	 94.0015
| 32> C 	 43.4687 	 23.9616 	 92.0203
| 33> H 	 44.3684 	 24.5611 	 91.7979
| 34> H 	 42.7155 	 24.715 	 91.9677
| 35> C 	 43.257 	 22.8491 	 90.9122
| 36> H 	 42.3276 	 22.366 	 91.147
| 37> H 	 44.1343 	 22.1605 	 90.9732
| 38> H 	 43.2584 	 23.2727 	 89.8601
| 39> H 	 40.9289 	 28.3923 	 95.083
| 40> H 	 40.8505 	 20.0233 	 95.105
| 41> *
| 42>
| 43>                          ****END OF INPUT****

CARTESIAN COORDINATES (ANGSTROEM)
---------------------------------
  S     41.283800   26.075600   95.524300
  C     40.618100   27.399100   94.727500
  C     39.999300   27.021100   93.487400
  C     39.806500   25.605400   93.461300
  C     40.504600   24.948500   94.454800
  H     39.332500   24.984400   92.696300
  C     39.637600   27.961400   92.222900
  H     38.920000   27.511100   91.617900
  H     40.483700   27.964200   91.499500
  C     39.258300   29.452700   92.437500
  H     40.097000   29.993700   92.835500
  H     38.953700   29.937000   91.547300
  C     38.054100   29.635300   93.445700
  H     37.623600   30.652800   93.445900
  H     37.197600   28.933500   93.344300
  H     38.522000   29.399700   94.397400
  S     39.677200   22.364000   95.016500
  C     40.924400   21.090500   94.893200
  C     42.082700   21.555900   94.392600
  C     42.096600   22.958800   94.061600
  C     40.877600   23.548600   94.391500
  H     42.855400   20.820600   94.205500
  C     43.377600   23.529900   93.461400
  H     44.128300   22.783800   93.647700
  H     43.776900   24.322300   94.001500
  C     43.468700   23.961600   92.020300
  H     44.368400   24.561100   91.797900
  H     42.715500   24.715000   91.967700
  C     43.257000   22.849100   90.912200
  H     42.327600   22.366000   91.147000
  H     44.134300   22.160500   90.973200
  H     43.258400   23.272700   89.860100
  H     40.928900   28.392300   95.083000
  H     40.850500   20.023300   95.105000

 Total Charge           Charge          ....    0
 Multiplicity           Mult            ....    1
 Number of Electrons    NEL             ....  134
 Basis Dimension        Dim             ....  322

ORBITAL ENERGIES
----------------

  NO   OCC          E(Eh)            E(eV)
   0   2.0000     -88.970055     -2420.9983
   1   2.0000     -88.965737     -2420.8808
   2   2.0000     -10.330943      -281.1193
   3   2.0000     -10.323827      -280.9256
   4   2.0000     -10.320168      -280.8261
   5   2.0000     -10.319391      -280.8049
   6   2.0000     -10.314643      -280.6757
   7   2.0000     -10.308359      -280.5047
   8   2.0000     -10.301162      -280.3089
   9   2.0000     -10.298450      -280.2351
  10   2.0000     -10.288575      -279.9664
  11   2.0000     -10.287580      -279.9393
  12   2.0000     -10.283740      -279.8348
  13   2.0000     -10.283606      -279.8311
  14   2.0000     -10.283181      -279.8196
  15   2.0000     -10.277549      -279.6663
  16   2.0000      -8.085954      -220.0300
  17   2.0000      -8.079217      -219.8467
  18   2.0000      -6.044160      -164.4699
  19   2.0000      -6.040196      -164.3621
  20   2.0000      -6.037935      -164.3006
  21   2.0000      -6.037064      -164.2769
  22   2.0000      -6.033985      -164.1931
  23   2.0000      -6.029747      -164.0778
  24   2.0000      -1.008584       -27.4450
  25   2.0000      -0.981479       -26.7074
  26   2.0000      -0.906484       -24.6667
  27   2.0000      -0.899643       -24.4805
  28   2.0000      -0.871947       -23.7269
  29   2.0000      -0.849936       -23.1279
  30   2.0000      -0.840944       -22.8833
  31   2.0000      -0.808936       -22.0123
  32   2.0000      -0.785214       -21.3668
  33   2.0000      -0.774578       -21.0774
  34   2.0000      -0.708544       -19.2805
  35   2.0000      -0.701695       -19.0941
  36   2.0000      -0.685050       -18.6412
  37   2.0000      -0.658737       -17.9251
  38   2.0000      -0.649398       -17.6710
  39   2.0000      -0.607932       -16.5427
  40   2.0000      -0.591873       -16.1057
  41   2.0000      -0.573956       -15.6181
  42   2.0000      -0.550262       -14.9734
  43   2.0000      -0.545226       -14.8363
  44   2.0000      -0.541509       -14.7352
  45   2.0000      -0.538280       -14.6473
  46   2.0000      -0.510708       -13.8971
  47   2.0000      -0.509847       -13.8737
  48   2.0000      -0.496449       -13.5091
  49   2.0000      -0.488311       -13.2876
  50   2.0000      -0.487048       -13.2533
  51   2.0000      -0.482425       -13.1275
  52   2.0000      -0.469537       -12.7767
  53   2.0000      -0.465689       -12.6720
  54   2.0000      -0.461262       -12.5516
  55   2.0000      -0.448658       -12.2086
  56   2.0000      -0.443225       -12.0608
  57   2.0000      -0.436730       -11.8840
  58   2.0000      -0.433885       -11.8066
  59   2.0000      -0.430452       -11.7132
  60   2.0000      -0.418397       -11.3852
  61   2.0000      -0.412462       -11.2237
  62   2.0000      -0.409397       -11.1403
  63   2.0000      -0.343019        -9.3340
  64   2.0000      -0.335336        -9.1250
  65   2.0000      -0.321081        -8.7370
  66   2.0000      -0.301523        -8.2049
  67   0.0000       0.036931         1.0049
  68   0.0000       0.054219         1.4754
  69   0.0000       0.103878         2.8267
  70   0.0000       0.113721         3.0945
  71   0.0000       0.131753         3.5852

MULLIKEN ATOMIC CHARGES
-----------------------
   0 S :    0.142661
   1 C :   -0.140142
   2 C :   -0.086550
   3 C :    0.038056
   4 C :   -0.162931
   5 H :    0.026006
   6 C :    0.072229
   7 H :    0.006079
   8 H :    0.041583
   9 C :   -0.058344
  10 H :    0.028928
  11 H :    0.024575
  12 C :   -0.085707
  13 H :    0.040926
  14 H :    0.038211
  15 H :    0.027393
  16 S :    0.100151
  17 C :   -0.081999
  18 C :   -0.047898
  19 C :   -0.019492
  20 C :   -0.206795
  21 H :    0.020508
  22 C :    0.135971
  23 H :   -0.003853
  24 H :    0.005534
  25 C :   -0.071604
  26 H :    0.025889
  27 H :    0.015775
  28 C :   -0.070795
  29 H :    0.044789
  30 H :    0.034558
  31 H :    0.046088
  32 H :    0.067514
  33 H :    0.052687
Sum of atomic charges:    0.0000000

LOEWDIN ATOMIC CHARGES
----------------------
   0 S :    0.456248
   1 C :   -0.227631
   2 C :   -0.055860
   3 C :   -0.055837
   4 C :   -0.217913
   5 H :    0.037611
   6 C :   -0.025579
   7 H :    0.019319
   8 H :    0.038954
   9 C :   -0.035366
  10 H :    0.020952
  11 H :    0.020157
  12 C :   -0.073342
  13 H :    0.026427
  14 H :    0.027428
  15 H :    0.022135
  16 S :    0.368844
  17 C :   -0.175625
  18 C :   -0.074524
  19 C :   -0.050736
  20 C :   -0.183077
  21 H :    0.032943
  22 C :   -0.029613
  23 H :    0.025652
  24 H :    0.026457
  25 C :   -0.041317
  26 H :    0.027118
  27 H :    0.018870
  28 C :   -0.069151
  29 H :    0.023558
  30 H :    0.026265
  31 H :    0.033353
  32 H :    0.028622
  33 H :    0.034655

  Mayer bond orders larger than 0.100000
B(  0-S ,  1-C ) :   1.1922 B(  0-S ,  4-C ) :   1.1722 B(  1-C ,  2-C ) :   1.5425
B(  1-C , 32-H ) :   0.9656 B(  2-C ,  3-C ) :   1.2898 B(  2-C ,  6-C ) :   0.9961
B(  3-C ,  4-C ) :   1.5535 B(  3-C ,  5-H ) :   0.9850 B(  4-C , 20-C ) :   1.0249
B(  6-C ,  7-H ) :   0.9458 B(  6-C ,  8-H ) :   0.9432 B(  6-C ,  9-C ) :   1.0771
B(  9-C , 10-H ) :   0.9585 B(  9-C , 11-H ) :   0.9589 B(  9-C , 12-C ) :   1.0643
B( 12-C , 13-H ) :   0.9781 B( 12-C , 14-H ) :   0.9795 B( 12-C , 15-H ) :   0.9777
B( 16-S , 17-C ) :   1.1185 B( 16-S , 20-C ) :   1.1239 B( 17-C , 18-C ) :   1.6908
B( 17-C , 33-H ) :   0.9584 B( 18-C , 19-C ) :   1.2004 B( 18-C , 21-H ) :   0.9806
B( 19-C , 20-C ) :   1.6300 B( 19-C , 22-C ) :   1.0287 B( 22-C , 23-H ) :   0.9279
B( 22-C , 24-H ) :   0.9178 B( 22-C , 25-C ) :   1.0764 B( 25-C , 26-H ) :   0.9525
B( 25-C , 27-H ) :   0.9549 B( 25-C , 28-C ) :   1.0637 B( 28-C , 29-H ) :   0.9787
B( 28-C , 30-H ) :   0.9779 B( 28-C , 31-H ) :   0.9761

Dispersion correction           -0.014959481
FINAL SINGLE POINT ENERGY     -1339.855906585517

DIPOLE MOMENT
-------------
                                X             Y             Z
Electronic contribution:     -4.03448     -13.11476      18.73618
Nuclear contribution   :      4.45219      13.31828     -19.25859
                        -----------------------------------------
Total Dipole Moment    :      0.41771       0.20352      -0.52241
                        -----------------------------------------
Magnitude (a.u.)       :      0.69915
Magnitude (Debye)      :      1.77710

Rotational constants in cm-1:     0.021209     0.007897     0.006797
Rotational constants in MHz :   635.824754   236.734560   203.770889

                             ****ORCA TERMINATED NORMALLY****
TOTAL RUN TIME: 0 days 0 hours 0 minutes 28 seconds 368 msec
