                         Program Version 4.2.1 -  RELEASE  -
|  1> ! wB97X-D3 SP def2-SVP
|  2> %pal
|  3> nprocs 16
|  4> end
|  5>
|  6> * xyz 0 1
|  7> S 	 -30.6345 	 54.3351 	 110.394
|  8> C 	 -31.1451 	 55.7683 	 109.444
|  9> C 	 -32.4691 	 55.5813 	 109.199
| 10> C 	 -33.0914 	 54.4558 	 109.754
| 11> C 	 -32.2199 	 53.6679 	 110.493
| 12> H 	 -34.1604 	 54.1231 	 109.514
| 13> C 	 -33.33 	 56.5418 	 108.336
| 14> H 	 -34.3503 	 56.4133 	 108.859
| 15> H 	 -33.4174 	 56.1435 	 107.322
| 16> C 	 -32.9299 	 58.0295 	 108.39
| 17> H 	 -32.6752 	 58.2385 	 109.414
| 18> H 	 -32.0642 	 58.2017 	 107.776
| 19> C 	 -33.8881 	 59.0541 	 107.677
| 20> H 	 -34.9335 	 58.9365 	 108.077
| 21> H 	 -33.7334 	 60.1058 	 107.835
| 22> H 	 -34.0343 	 58.8418 	 106.616
| 23> S 	 -33.8973 	 52.4326 	 112.126
| 24> C 	 -33.4469 	 50.911 	 112.841
| 25> C 	 -32.5964 	 50.2077 	 111.978
| 26> C 	 -31.9306 	 51.1137 	 111.075
| 27> C 	 -32.444 	 52.3705 	 111.14
| 28> H 	 -32.4364 	 49.1455 	 112.074
| 29> C 	 -30.8209 	 50.6208 	 110.195
| 30> H 	 -30.3009 	 51.5046 	 109.747
| 31> H 	 -31.3474 	 50.2005 	 109.328
| 32> C 	 -29.8557 	 49.6963 	 110.938
| 33> H 	 -30.4394 	 48.8865 	 111.388
| 34> H 	 -29.4868 	 50.313 	 111.717
| 35> C 	 -28.6213 	 49.2153 	 110.184
| 36> H 	 -27.9475 	 49.959 	 109.784
| 37> H 	 -28.9813 	 48.7758 	 109.242
| 38> H 	 -28.0315 	 48.3587 	 110.549
| 39> H 	 -30.6627 	 56.6465 	 109.034
| 40> H 	 -34.0027 	 50.392 	 113.597
| 41> *
| 42>
| 43>                          ****END OF INPUT****

CARTESIAN COORDINATES (ANGSTROEM)
---------------------------------
  S    -30.634500   54.335100  110.394000
  C    -31.145100   55.768300  109.444000
  C    -32.469100   55.581300  109.199000
  C    -33.091400   54.455800  109.754000
  C    -32.219900   53.667900  110.493000
  H    -34.160400   54.123100  109.514000
  C    -33.330000   56.541800  108.336000
  H    -34.350300   56.413300  108.859000
  H    -33.417400   56.143500  107.322000
  C    -32.929900   58.029500  108.390000
  H    -32.675200   58.238500  109.414000
  H    -32.064200   58.201700  107.776000
  C    -33.888100   59.054100  107.677000
  H    -34.933500   58.936500  108.077000
  H    -33.733400   60.105800  107.835000
  H    -34.034300   58.841800  106.616000
  S    -33.897300   52.432600  112.126000
  C    -33.446900   50.911000  112.841000
  C    -32.596400   50.207700  111.978000
  C    -31.930600   51.113700  111.075000
  C    -32.444000   52.370500  111.140000
  H    -32.436400   49.145500  112.074000
  C    -30.820900   50.620800  110.195000
  H    -30.300900   51.504600  109.747000
  H    -31.347400   50.200500  109.328000
  C    -29.855700   49.696300  110.938000
  H    -30.439400   48.886500  111.388000
  H    -29.486800   50.313000  111.717000
  C    -28.621300   49.215300  110.184000
  H    -27.947500   49.959000  109.784000
  H    -28.981300   48.775800  109.242000
  H    -28.031500   48.358700  110.549000
  H    -30.662700   56.646500  109.034000
  H    -34.002700   50.392000  113.597000

 Total Charge           Charge          ....    0
 Multiplicity           Mult            ....    1
 Number of Electrons    NEL             ....  134
 Basis Dimension        Dim             ....  322

ORBITAL ENERGIES
----------------

  NO   OCC          E(Eh)            E(eV)
   0   2.0000     -88.967153     -2420.9193
   1   2.0000     -88.963808     -2420.8283
   2   2.0000     -10.333603      -281.1916
   3   2.0000     -10.326417      -280.9961
   4   2.0000     -10.318792      -280.7886
   5   2.0000     -10.311747      -280.5969
   6   2.0000     -10.305683      -280.4319
   7   2.0000     -10.298907      -280.2475
   8   2.0000     -10.298787      -280.2442
   9   2.0000     -10.295607      -280.1577
  10   2.0000     -10.295107      -280.1441
  11   2.0000     -10.293787      -280.1082
  12   2.0000     -10.289784      -279.9992
  13   2.0000     -10.286460      -279.9088
  14   2.0000     -10.283875      -279.8385
  15   2.0000     -10.277918      -279.6764
  16   2.0000      -8.081085      -219.8975
  17   2.0000      -8.078954      -219.8395
  18   2.0000      -6.039771      -164.3505
  19   2.0000      -6.037491      -164.2885
  20   2.0000      -6.035579      -164.2364
  21   2.0000      -6.033750      -164.1867
  22   2.0000      -6.031790      -164.1333
  23   2.0000      -6.029290      -164.0653
  24   2.0000      -1.012014       -27.5383
  25   2.0000      -0.988725       -26.9046
  26   2.0000      -0.913798       -24.8657
  27   2.0000      -0.906089       -24.6559
  28   2.0000      -0.868123       -23.6228
  29   2.0000      -0.853292       -23.2192
  30   2.0000      -0.843751       -22.9596
  31   2.0000      -0.812586       -22.1116
  32   2.0000      -0.783735       -21.3265
  33   2.0000      -0.773036       -21.0354
  34   2.0000      -0.715997       -19.4833
  35   2.0000      -0.707319       -19.2471
  36   2.0000      -0.696625       -18.9561
  37   2.0000      -0.665998       -18.1227
  38   2.0000      -0.626949       -17.0602
  39   2.0000      -0.609244       -16.5784
  40   2.0000      -0.596213       -16.2238
  41   2.0000      -0.574015       -15.6197
  42   2.0000      -0.567017       -15.4293
  43   2.0000      -0.563510       -15.3339
  44   2.0000      -0.534068       -14.5327
  45   2.0000      -0.520136       -14.1536
  46   2.0000      -0.516801       -14.0629
  47   2.0000      -0.511934       -13.9304
  48   2.0000      -0.506071       -13.7709
  49   2.0000      -0.502205       -13.6657
  50   2.0000      -0.483758       -13.1637
  51   2.0000      -0.481147       -13.0927
  52   2.0000      -0.472311       -12.8522
  53   2.0000      -0.468146       -12.7389
  54   2.0000      -0.460402       -12.5282
  55   2.0000      -0.452258       -12.3066
  56   2.0000      -0.446555       -12.1514
  57   2.0000      -0.439480       -11.9589
  58   2.0000      -0.428869       -11.6701
  59   2.0000      -0.425986       -11.5917
  60   2.0000      -0.417650       -11.3648
  61   2.0000      -0.412459       -11.2236
  62   2.0000      -0.402204       -10.9445
  63   2.0000      -0.350523        -9.5382
  64   2.0000      -0.330850        -9.0029
  65   2.0000      -0.326977        -8.8975
  66   2.0000      -0.291604        -7.9349
  67   0.0000       0.028877         0.7858
  68   0.0000       0.061834         1.6826
  69   0.0000       0.099858         2.7173
  70   0.0000       0.121472         3.3054
  71   0.0000       0.136774         3.7218

MULLIKEN ATOMIC CHARGES
-----------------------
   0 S :    0.105961
   1 C :   -0.114990
   2 C :   -0.105834
   3 C :   -0.006927
   4 C :   -0.129161
   5 H :    0.044282
   6 C :    0.031543
   7 H :    0.039092
   8 H :    0.047939
   9 C :   -0.082445
  10 H :    0.037288
  11 H :    0.031465
  12 C :   -0.058638
  13 H :    0.019091
  14 H :    0.039845
  15 H :    0.034324
  16 S :    0.100001
  17 C :   -0.067382
  18 C :   -0.058876
  19 C :   -0.044320
  20 C :   -0.160342
  21 H :    0.029848
  22 C :    0.076480
  23 H :    0.020698
  24 H :    0.038880
  25 C :   -0.069069
  26 H :    0.032934
  27 H :    0.031664
  28 C :   -0.033962
  29 H :    0.031131
  30 H :    0.005903
  31 H :    0.040175
  32 H :    0.042670
  33 H :    0.050732
Sum of atomic charges:    0.0000000

LOEWDIN ATOMIC CHARGES
----------------------
   0 S :    0.411484
   1 C :   -0.203036
   2 C :   -0.069726
   3 C :   -0.094353
   4 C :   -0.194222
   5 H :    0.044078
   6 C :   -0.032341
   7 H :    0.037971
   8 H :    0.031814
   9 C :   -0.045111
  10 H :    0.025139
  11 H :    0.022090
  12 C :   -0.071102
  13 H :    0.025284
  14 H :    0.026296
  15 H :    0.026823
  16 S :    0.407998
  17 C :   -0.175634
  18 C :   -0.063496
  19 C :   -0.053752
  20 C :   -0.193650
  21 H :    0.029958
  22 C :   -0.034965
  23 H :    0.027824
  24 H :    0.036263
  25 C :   -0.039605
  26 H :    0.025539
  27 H :    0.026057
  28 C :   -0.077004
  29 H :    0.026558
  30 H :    0.024653
  31 H :    0.032427
  32 H :    0.036423
  33 H :    0.023320

  Mayer bond orders larger than 0.100000
B(  0-S ,  1-C ) :   1.1035 B(  0-S ,  4-C ) :   1.1728 B(  1-C ,  2-C ) :   1.6298
B(  1-C , 32-H ) :   0.9686 B(  2-C ,  3-C ) :   1.2766 B(  2-C ,  6-C ) :   0.9897
B(  3-C ,  4-C ) :   1.5482 B(  3-C ,  5-H ) :   0.9750 B(  4-C , 20-C ) :   1.0093
B(  6-C ,  7-H ) :   0.9503 B(  6-C ,  8-H ) :   0.9382 B(  6-C ,  9-C ) :   1.0707
B(  9-C , 10-H ) :   0.9625 B(  9-C , 11-H ) :   0.9487 B(  9-C , 12-C ) :   1.0683
B( 12-C , 13-H ) :   0.9753 B( 12-C , 14-H ) :   0.9774 B( 12-C , 15-H ) :   0.9755
B( 16-S , 17-C ) :   1.1555 B( 16-S , 20-C ) :   1.1258 B( 17-C , 18-C ) :   1.6211
B( 17-C , 33-H ) :   0.9693 B( 18-C , 19-C ) :   1.2006 B( 18-C , 21-H ) :   0.9869
B( 19-C , 20-C ) :   1.6272 B( 19-C , 22-C ) :   1.0448 B( 22-C , 23-H ) :   0.9319
B( 22-C , 24-H ) :   0.9200 B( 22-C , 25-C ) :   1.0489 B( 25-C , 26-H ) :   0.9530
B( 25-C , 27-H ) :   0.9588 B( 25-C , 28-C ) :   1.0834 B( 28-C , 29-H ) :   0.9726
B( 28-C , 30-H ) :   0.9672 B( 28-C , 31-H ) :   0.9750

Dispersion correction           -0.013418760
FINAL SINGLE POINT ENERGY     -1339.850745591096

DIPOLE MOMENT
-------------
                                X             Y             Z
Electronic contribution:     -4.52086      -4.09647      13.48933
Nuclear contribution   :      4.40501       3.83577     -13.90355
                        -----------------------------------------
Total Dipole Moment    :     -0.11585      -0.26070      -0.41423
                        -----------------------------------------
Magnitude (a.u.)       :      0.50296
Magnitude (Debye)      :      1.27842

Rotational constants in cm-1:     0.024677     0.006689     0.005569
Rotational constants in MHz :   739.788673   200.536505   166.958722

                             ****ORCA TERMINATED NORMALLY****
TOTAL RUN TIME: 0 days 0 hours 0 minutes 28 seconds 623 msec
