                         Program Version 4.2.1 -  RELEASE  -
|  1> ! wB97X-D3 SP def2-SVP
|  2> %pal
|  3> nprocs 16
|  4> end
|  5>
|  6> * xyz 0 1
|  7> S 	 6.79526 	 -10.471 	 71.1211
|  8> C 	 7.10786 	 -11.0543 	 69.5066
|  9> C 	 7.8934 	 -10.2349 	 68.7377
| 10> C 	 8.3984 	 -9.14393 	 69.4935
| 11> C 	 7.89008 	 -9.09624 	 70.8432
| 12> H 	 9.0342 	 -8.43439 	 69.0853
| 13> C 	 8.26835 	 -10.5599 	 67.3422
| 14> H 	 8.00034 	 -11.6452 	 67.2173
| 15> H 	 9.32469 	 -10.2773 	 67.2425
| 16> C 	 7.55865 	 -9.76454 	 66.2066
| 17> H 	 7.97096 	 -8.78408 	 66.4765
| 18> H 	 8.03862 	 -9.88395 	 65.2241
| 19> C 	 6.01659 	 -9.77698 	 66.2285
| 20> H 	 5.61547 	 -8.86764 	 65.6641
| 21> H 	 5.68019 	 -10.7163 	 65.7479
| 22> H 	 5.55847 	 -9.84519 	 67.2472
| 23> S 	 8.80362 	 -9.08646 	 73.4524
| 24> C 	 9.02987 	 -7.57097 	 74.2688
| 25> C 	 8.56636 	 -6.50668 	 73.5212
| 26> C 	 8.0997 	 -6.84167 	 72.1937
| 27> C 	 8.30074 	 -8.25849 	 71.9842
| 28> H 	 8.64002 	 -5.47999 	 73.9408
| 29> C 	 7.75319 	 -5.87263 	 71.1008
| 30> H 	 7.29335 	 -6.43996 	 70.2803
| 31> H 	 8.75744 	 -5.43393 	 70.7951
| 32> C 	 6.86889 	 -4.71903 	 71.4601
| 33> H 	 6.90305 	 -4.10561 	 70.5295
| 34> H 	 7.27028 	 -3.97048 	 72.1105
| 35> C 	 5.36572 	 -5.0948 	 71.797
| 36> H 	 5.15759 	 -5.97328 	 72.4474
| 37> H 	 4.73164 	 -5.20965 	 70.9204
| 38> H 	 4.87276 	 -4.25484 	 72.3355
| 39> H 	 6.71619 	 -11.9625 	 69.1347
| 40> H 	 9.63741 	 -7.51679 	 75.1593
| 41> *
| 42>
| 43>                          ****END OF INPUT****

CARTESIAN COORDINATES (ANGSTROEM)
---------------------------------
  S      6.795260  -10.471000   71.121100
  C      7.107860  -11.054300   69.506600
  C      7.893400  -10.234900   68.737700
  C      8.398400   -9.143930   69.493500
  C      7.890080   -9.096240   70.843200
  H      9.034200   -8.434390   69.085300
  C      8.268350  -10.559900   67.342200
  H      8.000340  -11.645200   67.217300
  H      9.324690  -10.277300   67.242500
  C      7.558650   -9.764540   66.206600
  H      7.970960   -8.784080   66.476500
  H      8.038620   -9.883950   65.224100
  C      6.016590   -9.776980   66.228500
  H      5.615470   -8.867640   65.664100
  H      5.680190  -10.716300   65.747900
  H      5.558470   -9.845190   67.247200
  S      8.803620   -9.086460   73.452400
  C      9.029870   -7.570970   74.268800
  C      8.566360   -6.506680   73.521200
  C      8.099700   -6.841670   72.193700
  C      8.300740   -8.258490   71.984200
  H      8.640020   -5.479990   73.940800
  C      7.753190   -5.872630   71.100800
  H      7.293350   -6.439960   70.280300
  H      8.757440   -5.433930   70.795100
  C      6.868890   -4.719030   71.460100
  H      6.903050   -4.105610   70.529500
  H      7.270280   -3.970480   72.110500
  C      5.365720   -5.094800   71.797000
  H      5.157590   -5.973280   72.447400
  H      4.731640   -5.209650   70.920400
  H      4.872760   -4.254840   72.335500
  H      6.716190  -11.962500   69.134700
  H      9.637410   -7.516790   75.159300

 Total Charge           Charge          ....    0
 Multiplicity           Mult            ....    1
 Number of Electrons    NEL             ....  134
 Basis Dimension        Dim             ....  322

ORBITAL ENERGIES
----------------

  NO   OCC          E(Eh)            E(eV)
   0   2.0000     -88.967921     -2420.9402
   1   2.0000     -88.965510     -2420.8746
   2   2.0000     -10.337043      -281.2852
   3   2.0000     -10.330103      -281.0964
   4   2.0000     -10.316105      -280.7155
   5   2.0000     -10.310270      -280.5567
   6   2.0000     -10.307386      -280.4782
   7   2.0000     -10.299038      -280.2511
   8   2.0000     -10.297259      -280.2027
   9   2.0000     -10.295733      -280.1611
  10   2.0000     -10.295600      -280.1575
  11   2.0000     -10.294726      -280.1337
  12   2.0000     -10.291194      -280.0376
  13   2.0000     -10.290044      -280.0063
  14   2.0000     -10.287312      -279.9320
  15   2.0000     -10.282369      -279.7975
  16   2.0000      -8.082134      -219.9260
  17   2.0000      -8.080323      -219.8768
  18   2.0000      -6.040570      -164.3723
  19   2.0000      -6.038725      -164.3221
  20   2.0000      -6.036677      -164.2663
  21   2.0000      -6.034810      -164.2155
  22   2.0000      -6.033046      -164.1675
  23   2.0000      -6.031201      -164.1173
  24   2.0000      -0.999170       -27.1888
  25   2.0000      -0.979707       -26.6592
  26   2.0000      -0.911354       -24.7992
  27   2.0000      -0.909744       -24.7554
  28   2.0000      -0.861999       -23.4562
  29   2.0000      -0.846257       -23.0278
  30   2.0000      -0.841150       -22.8889
  31   2.0000      -0.809291       -22.0219
  32   2.0000      -0.783092       -21.3090
  33   2.0000      -0.771695       -20.9989
  34   2.0000      -0.713345       -19.4111
  35   2.0000      -0.699278       -19.0283
  36   2.0000      -0.692249       -18.8370
  37   2.0000      -0.649147       -17.6642
  38   2.0000      -0.638134       -17.3645
  39   2.0000      -0.617744       -16.8097
  40   2.0000      -0.595690       -16.2095
  41   2.0000      -0.560250       -15.2452
  42   2.0000      -0.554414       -15.0864
  43   2.0000      -0.549561       -14.9543
  44   2.0000      -0.542552       -14.7636
  45   2.0000      -0.528785       -14.3890
  46   2.0000      -0.520357       -14.1596
  47   2.0000      -0.508495       -13.8368
  48   2.0000      -0.493770       -13.4362
  49   2.0000      -0.491044       -13.3620
  50   2.0000      -0.489432       -13.3181
  51   2.0000      -0.476156       -12.9569
  52   2.0000      -0.468622       -12.7518
  53   2.0000      -0.464160       -12.6304
  54   2.0000      -0.456221       -12.4144
  55   2.0000      -0.451016       -12.2728
  56   2.0000      -0.444409       -12.0930
  57   2.0000      -0.436853       -11.8874
  58   2.0000      -0.431146       -11.7321
  59   2.0000      -0.429800       -11.6955
  60   2.0000      -0.426666       -11.6102
  61   2.0000      -0.409868       -11.1531
  62   2.0000      -0.403314       -10.9747
  63   2.0000      -0.341142        -9.2829
  64   2.0000      -0.329676        -8.9709
  65   2.0000      -0.327014        -8.8985
  66   2.0000      -0.286745        -7.8027
  67   0.0000       0.027822         0.7571
  68   0.0000       0.060260         1.6398
  69   0.0000       0.113961         3.1010
  70   0.0000       0.119244         3.2448
  71   0.0000       0.120659         3.2833

MULLIKEN ATOMIC CHARGES
-----------------------
   0 S :    0.114849
   1 C :   -0.116325
   2 C :   -0.088854
   3 C :    0.067080
   4 C :   -0.171725
   5 H :   -0.016443
   6 C :    0.057966
   7 H :    0.027523
   8 H :    0.033401
   9 C :   -0.070306
  10 H :    0.005970
  11 H :    0.036270
  12 C :   -0.081687
  13 H :    0.054863
  14 H :    0.033209
  15 H :    0.053727
  16 S :    0.110492
  17 C :   -0.101922
  18 C :   -0.037050
  19 C :   -0.026203
  20 C :   -0.170527
  21 H :    0.032689
  22 C :    0.051598
  23 H :    0.036640
  24 H :    0.052384
  25 C :   -0.063273
  26 H :    0.024758
  27 H :    0.021740
  28 C :   -0.078131
  29 H :    0.053154
  30 H :    0.033921
  31 H :    0.030347
  32 H :    0.026269
  33 H :    0.063595
Sum of atomic charges:   -0.0000000

LOEWDIN ATOMIC CHARGES
----------------------
   0 S :    0.401478
   1 C :   -0.192556
   2 C :   -0.070194
   3 C :   -0.050151
   4 C :   -0.186098
   5 H :    0.016879
   6 C :   -0.031259
   7 H :    0.031347
   8 H :    0.036664
   9 C :   -0.050900
  10 H :    0.018752
  11 H :    0.027831
  12 C :   -0.079025
  13 H :    0.037811
  14 H :    0.026202
  15 H :    0.033792
  16 S :    0.410382
  17 C :   -0.190914
  18 C :   -0.075581
  19 C :   -0.049326
  20 C :   -0.209422
  21 H :    0.036497
  22 C :   -0.037609
  23 H :    0.036385
  24 H :    0.046684
  25 C :   -0.048072
  26 H :    0.034579
  27 H :    0.019700
  28 C :   -0.077546
  29 H :    0.032722
  30 H :    0.025615
  31 H :    0.030088
  32 H :    0.015966
  33 H :    0.029282

  Mayer bond orders larger than 0.100000
B(  0-S ,  1-C ) :   1.1426 B(  0-S ,  4-C ) :   1.1614 B(  1-C ,  2-C ) :   1.5933
B(  1-C , 32-H ) :   0.9656 B(  2-C ,  3-C ) :   1.2617 B(  2-C ,  6-C ) :   1.0307
B(  3-C ,  4-C ) :   1.5314 B(  3-C ,  5-H ) :   1.0002 B(  4-C , 20-C ) :   1.0499
B(  6-C ,  7-H ) :   0.9416 B(  6-C ,  8-H ) :   0.9386 B(  6-C ,  9-C ) :   1.0573
B(  9-C , 10-H ) :   0.9567 B(  9-C , 11-H ) :   0.9585 B(  9-C , 12-C ) :   1.0598
B( 12-C , 13-H ) :   0.9748 B( 12-C , 14-H ) :   0.9754 B( 12-C , 15-H ) :   0.9736
B( 16-S , 17-C ) :   1.1610 B( 16-S , 20-C ) :   1.1573 B( 17-C , 18-C ) :   1.5989
B( 17-C , 20-C ) :   0.1006 B( 17-C , 33-H ) :   0.9682 B( 18-C , 19-C ) :   1.2437
B( 18-C , 21-H ) :   0.9833 B( 19-C , 20-C ) :   1.5342 B( 19-C , 22-C ) :   1.0548
B( 22-C , 23-H ) :   0.9276 B( 22-C , 24-H ) :   0.9302 B( 22-C , 25-C ) :   1.0868
B( 25-C , 26-H ) :   0.9497 B( 25-C , 27-H ) :   0.9565 B( 25-C , 28-C ) :   1.0516
B( 28-C , 29-H ) :   0.9808 B( 28-C , 30-H ) :   0.9777 B( 28-C , 31-H ) :   0.9764

Dispersion correction           -0.014225542
FINAL SINGLE POINT ENERGY     -1339.868733771221

DIPOLE MOMENT
-------------
                                X             Y             Z
Electronic contribution:      8.20048     -13.79239      20.72032
Nuclear contribution   :     -8.06335      14.30715     -21.11523
                        -----------------------------------------
Total Dipole Moment    :      0.13713       0.51476      -0.39491
                        -----------------------------------------
Magnitude (a.u.)       :      0.66312
Magnitude (Debye)      :      1.68553

Rotational constants in cm-1:     0.019440     0.008417     0.006746
Rotational constants in MHz :   582.797363   252.323184   202.251537

                             ****ORCA TERMINATED NORMALLY****
TOTAL RUN TIME: 0 days 0 hours 0 minutes 34 seconds 665 msec
