                         Program Version 4.2.1 -  RELEASE  -
|  1> ! wB97X-D3 SP def2-SVP
|  2> %pal
|  3> nprocs 16
|  4> end
|  5>
|  6> * xyz 0 1
|  7> S 	 -58.2105 	 38.1902 	 116.167
|  8> C 	 -59.4775 	 37.3176 	 117.02
|  9> C 	 -60.2165 	 36.5814 	 116.139
| 10> C 	 -59.7688 	 36.6021 	 114.836
| 11> C 	 -58.7175 	 37.4748 	 114.671
| 12> H 	 -60.2511 	 36.0749 	 113.994
| 13> C 	 -61.327 	 35.6884 	 116.572
| 14> H 	 -62.2395 	 36.1642 	 116.29
| 15> H 	 -61.432 	 35.8158 	 117.687
| 16> C 	 -61.2094 	 34.2604 	 116.299
| 17> H 	 -62.0678 	 33.7034 	 116.597
| 18> H 	 -61.1792 	 34.0833 	 115.181
| 19> C 	 -59.9572 	 33.7075 	 116.966
| 20> H 	 -59.9332 	 32.6467 	 116.993
| 21> H 	 -59.1433 	 34.1139 	 116.437
| 22> H 	 -59.8658 	 34.09 	 117.975
| 23> S 	 -57.8478 	 39.5786 	 113.121
| 24> C 	 -57.0893 	 39.2494 	 111.546
| 25> C 	 -56.882 	 37.8697 	 111.403
| 26> C 	 -57.4568 	 37.0665 	 112.41
| 27> C 	 -57.9845 	 37.8736 	 113.483
| 28> H 	 -56.1768 	 37.6091 	 110.649
| 29> C 	 -57.526 	 35.5493 	 112.278
| 30> H 	 -57.8106 	 35.2411 	 113.294
| 31> H 	 -56.5249 	 35.1577 	 112.12
| 32> C 	 -58.4788 	 35.0892 	 111.167
| 33> H 	 -58.6799 	 33.9849 	 111.317
| 34> H 	 -57.8748 	 35.0006 	 110.297
| 35> C 	 -59.7997 	 35.9057 	 110.877
| 36> H 	 -59.7107 	 36.9803 	 110.646
| 37> H 	 -60.4443 	 35.7767 	 111.7
| 38> H 	 -60.3466 	 35.5391 	 110.053
| 39> H 	 -59.6022 	 37.3197 	 118.095
| 40> H 	 -56.5178 	 40.0165 	 111.012
| 41> *
| 42>
| 43>                          ****END OF INPUT****

CARTESIAN COORDINATES (ANGSTROEM)
---------------------------------
  S    -58.210500   38.190200  116.167000
  C    -59.477500   37.317600  117.020000
  C    -60.216500   36.581400  116.139000
  C    -59.768800   36.602100  114.836000
  C    -58.717500   37.474800  114.671000
  H    -60.251100   36.074900  113.994000
  C    -61.327000   35.688400  116.572000
  H    -62.239500   36.164200  116.290000
  H    -61.432000   35.815800  117.687000
  C    -61.209400   34.260400  116.299000
  H    -62.067800   33.703400  116.597000
  H    -61.179200   34.083300  115.181000
  C    -59.957200   33.707500  116.966000
  H    -59.933200   32.646700  116.993000
  H    -59.143300   34.113900  116.437000
  H    -59.865800   34.090000  117.975000
  S    -57.847800   39.578600  113.121000
  C    -57.089300   39.249400  111.546000
  C    -56.882000   37.869700  111.403000
  C    -57.456800   37.066500  112.410000
  C    -57.984500   37.873600  113.483000
  H    -56.176800   37.609100  110.649000
  C    -57.526000   35.549300  112.278000
  H    -57.810600   35.241100  113.294000
  H    -56.524900   35.157700  112.120000
  C    -58.478800   35.089200  111.167000
  H    -58.679900   33.984900  111.317000
  H    -57.874800   35.000600  110.297000
  C    -59.799700   35.905700  110.877000
  H    -59.710700   36.980300  110.646000
  H    -60.444300   35.776700  111.700000
  H    -60.346600   35.539100  110.053000
  H    -59.602200   37.319700  118.095000
  H    -56.517800   40.016500  111.012000

 Total Charge           Charge          ....    0
 Multiplicity           Mult            ....    1
 Number of Electrons    NEL             ....  134
 Basis Dimension        Dim             ....  322

ORBITAL ENERGIES
----------------

  NO   OCC          E(Eh)            E(eV)
   0   2.0000     -88.967090     -2420.9176
   1   2.0000     -88.966228     -2420.8941
   2   2.0000     -10.330796      -281.1153
   3   2.0000     -10.328713      -281.0586
   4   2.0000     -10.319234      -280.8006
   5   2.0000     -10.311034      -280.5775
   6   2.0000     -10.306400      -280.4514
   7   2.0000     -10.292890      -280.0838
   8   2.0000     -10.292857      -280.0829
   9   2.0000     -10.292462      -280.0721
  10   2.0000     -10.292120      -280.0628
  11   2.0000     -10.291621      -280.0492
  12   2.0000     -10.283468      -279.8274
  13   2.0000     -10.282557      -279.8026
  14   2.0000     -10.274908      -279.5945
  15   2.0000     -10.265649      -279.3425
  16   2.0000      -8.081293      -219.9032
  17   2.0000      -8.081139      -219.8990
  18   2.0000      -6.039669      -164.3478
  19   2.0000      -6.039637      -164.3469
  20   2.0000      -6.035723      -164.2404
  21   2.0000      -6.035640      -164.2381
  22   2.0000      -6.032204      -164.1446
  23   2.0000      -6.032048      -164.1404
  24   2.0000      -1.011122       -27.5140
  25   2.0000      -0.982375       -26.7318
  26   2.0000      -0.926132       -25.2013
  27   2.0000      -0.903964       -24.5981
  28   2.0000      -0.870064       -23.6756
  29   2.0000      -0.850063       -23.1314
  30   2.0000      -0.841949       -22.9106
  31   2.0000      -0.815476       -22.1902
  32   2.0000      -0.789239       -21.4763
  33   2.0000      -0.776266       -21.1233
  34   2.0000      -0.715970       -19.4825
  35   2.0000      -0.700333       -19.0570
  36   2.0000      -0.694073       -18.8867
  37   2.0000      -0.654532       -17.8107
  38   2.0000      -0.639833       -17.4107
  39   2.0000      -0.629066       -17.1178
  40   2.0000      -0.586768       -15.9668
  41   2.0000      -0.573745       -15.6124
  42   2.0000      -0.561059       -15.2672
  43   2.0000      -0.554188       -15.0802
  44   2.0000      -0.543877       -14.7997
  45   2.0000      -0.541149       -14.7254
  46   2.0000      -0.517718       -14.0878
  47   2.0000      -0.511708       -13.9243
  48   2.0000      -0.498340       -13.5605
  49   2.0000      -0.495297       -13.4777
  50   2.0000      -0.489764       -13.3271
  51   2.0000      -0.474841       -12.9211
  52   2.0000      -0.469414       -12.7734
  53   2.0000      -0.465326       -12.6622
  54   2.0000      -0.461583       -12.5603
  55   2.0000      -0.453575       -12.3424
  56   2.0000      -0.446838       -12.1591
  57   2.0000      -0.442276       -12.0349
  58   2.0000      -0.438845       -11.9416
  59   2.0000      -0.422131       -11.4868
  60   2.0000      -0.416100       -11.3227
  61   2.0000      -0.412551       -11.2261
  62   2.0000      -0.408000       -11.1022
  63   2.0000      -0.346995        -9.4422
  64   2.0000      -0.336858        -9.1664
  65   2.0000      -0.328650        -8.9430
  66   2.0000      -0.288715        -7.8563
  67   0.0000       0.025292         0.6882
  68   0.0000       0.068458         1.8628
  69   0.0000       0.111209         3.0261
  70   0.0000       0.122152         3.3239
  71   0.0000       0.126574         3.4442

MULLIKEN ATOMIC CHARGES
-----------------------
   0 S :    0.110551
   1 C :   -0.129104
   2 C :   -0.095045
   3 C :    0.028146
   4 C :   -0.153941
   5 H :    0.010028
   6 C :    0.074992
   7 H :    0.024411
   8 H :    0.004907
   9 C :   -0.060088
  10 H :    0.020005
  11 H :    0.025315
  12 C :   -0.005060
  13 H :    0.028015
  14 H :    0.031317
  15 H :    0.014201
  16 S :    0.106482
  17 C :   -0.117206
  18 C :   -0.039601
  19 C :   -0.061791
  20 C :   -0.150629
  21 H :    0.018645
  22 C :    0.106896
  23 H :    0.020736
  24 H :    0.031300
  25 C :   -0.090197
  26 H :    0.033809
  27 H :    0.015818
  28 C :   -0.004642
  29 H :    0.052332
  30 H :    0.014776
  31 H :    0.017531
  32 H :    0.045603
  33 H :    0.071486
Sum of atomic charges:    0.0000000

LOEWDIN ATOMIC CHARGES
----------------------
   0 S :    0.413716
   1 C :   -0.195399
   2 C :   -0.067995
   3 C :   -0.068544
   4 C :   -0.188852
   5 H :    0.037087
   6 C :   -0.036741
   7 H :    0.029405
   8 H :    0.031367
   9 C :   -0.042302
  10 H :    0.021125
  11 H :    0.025305
  12 C :   -0.051100
  13 H :    0.020944
  14 H :    0.023094
  15 H :    0.023479
  16 S :    0.402629
  17 C :   -0.191792
  18 C :   -0.067152
  19 C :   -0.054521
  20 C :   -0.206548
  21 H :    0.029668
  22 C :   -0.031791
  23 H :    0.027826
  24 H :    0.034376
  25 C :   -0.043051
  26 H :    0.033772
  27 H :    0.017744
  28 C :   -0.061061
  29 H :    0.036214
  30 H :    0.015977
  31 H :    0.023633
  32 H :    0.027364
  33 H :    0.032123

  Mayer bond orders larger than 0.100000
B(  0-S ,  1-C ) :   1.1312 B(  0-S ,  4-C ) :   1.1806 B(  1-C ,  2-C ) :   1.5969
B(  1-C ,  4-C ) :   0.1031 B(  1-C , 32-H ) :   0.9686 B(  2-C ,  3-C ) :   1.2659
B(  2-C ,  6-C ) :   1.0192 B(  3-C ,  4-C ) :   1.5421 B(  3-C ,  5-H ) :   0.9950
B(  4-C , 20-C ) :   1.0212 B(  6-C ,  7-H ) :   0.9241 B(  6-C ,  8-H ) :   0.9350
B(  6-C ,  9-C ) :   1.0876 B(  9-C , 10-H ) :   0.9496 B(  9-C , 11-H ) :   0.9479
B(  9-C , 12-C ) :   1.0698 B( 12-C , 13-H ) :   0.9738 B( 12-C , 14-H ) :   0.9707
B( 12-C , 15-H ) :   0.9736 B( 16-S , 17-C ) :   1.1488 B( 16-S , 20-C ) :   1.1694
B( 17-C , 18-C ) :   1.5910 B( 17-C , 20-C ) :   0.1180 B( 17-C , 33-H ) :   0.9606
B( 18-C , 19-C ) :   1.2572 B( 18-C , 21-H ) :   0.9907 B( 19-C , 20-C ) :   1.5359
B( 19-C , 22-C ) :   1.0482 B( 22-C , 23-H ) :   0.9295 B( 22-C , 24-H ) :   0.9363
B( 22-C , 25-C ) :   1.0561 B( 25-C , 26-H ) :   0.9564 B( 25-C , 27-H ) :   0.9542
B( 25-C , 28-C ) :   1.0709 B( 28-C , 29-H ) :   0.9689 B( 28-C , 30-H ) :   0.9766
B( 28-C , 31-H ) :   0.9679

Dispersion correction           -0.015925817
FINAL SINGLE POINT ENERGY     -1339.874705133961

DIPOLE MOMENT
-------------
                                X             Y             Z
Electronic contribution:     10.98696      24.59995       3.80533
Nuclear contribution   :    -11.11757     -25.18691      -3.99113
                        -----------------------------------------
Total Dipole Moment    :     -0.13061      -0.58696      -0.18579
                        -----------------------------------------
Magnitude (a.u.)       :      0.62937
Magnitude (Debye)      :      1.59973

Rotational constants in cm-1:     0.020025     0.009973     0.007439
Rotational constants in MHz :   600.338760   298.990567   223.027356

                             ****ORCA TERMINATED NORMALLY****
TOTAL RUN TIME: 0 days 0 hours 0 minutes 32 seconds 725 msec
