                         Program Version 4.2.1 -  RELEASE  -
|  1> ! wB97X-D3 SP def2-SVP
|  2> %pal
|  3> nprocs 16
|  4> end
|  5>
|  6> * xyz 0 1
|  7> S 	 2.5071 	 -2.61046 	 80.3892
|  8> C 	 3.92708 	 -3.11189 	 81.2995
|  9> C 	 4.02225 	 -4.48407 	 81.4312
| 10> C 	 2.91637 	 -5.15526 	 80.9139
| 11> C 	 1.99213 	 -4.29825 	 80.3223
| 12> H 	 2.72053 	 -6.17127 	 80.9429
| 13> C 	 5.24083 	 -5.06547 	 82.0187
| 14> H 	 6.07748 	 -4.2862 	 81.9438
| 15> H 	 5.47546 	 -5.99786 	 81.4786
| 16> C 	 5.10742 	 -5.32018 	 83.5512
| 17> H 	 6.14801 	 -5.32792 	 83.9315
| 18> H 	 4.64096 	 -4.4757 	 84.0818
| 19> C 	 4.53564 	 -6.71706 	 83.8028
| 20> H 	 5.11491 	 -7.49752 	 83.363
| 21> H 	 4.2488 	 -6.9131 	 84.8375
| 22> H 	 3.63003 	 -6.93031 	 83.2369
| 23> S 	 -0.530745 	 -3.37724 	 79.655
| 24> C 	 -1.53217 	 -4.30626 	 78.5239
| 25> C 	 -0.855172 	 -5.449 	 78.1082
| 26> C 	 0.433372 	 -5.60493 	 78.6852
| 27> C 	 0.803638 	 -4.58113 	 79.5464
| 28> H 	 -1.37275 	 -6.14808 	 77.4366
| 29> C 	 1.22574 	 -6.81713 	 78.3608
| 30> H 	 2.2485 	 -6.53833 	 78.5625
| 31> H 	 1.23601 	 -7.03658 	 77.3277
| 32> C 	 0.91702 	 -8.10015 	 79.1542
| 33> H 	 0.0026767 	 -8.42774 	 78.7136
| 34> H 	 0.72625 	 -7.95408 	 80.2046
| 35> C 	 2.03976 	 -9.21436 	 79.0361
| 36> H 	 1.61302 	 -10.2184 	 78.9675
| 37> H 	 2.63366 	 -9.06499 	 79.9403
| 38> H 	 2.67466 	 -9.02182 	 78.2353
| 39> H 	 4.629 	 -2.46484 	 81.7684
| 40> H 	 -2.47985 	 -3.96282 	 78.1361
| 41> *
| 42>
| 43>                          ****END OF INPUT****

CARTESIAN COORDINATES (ANGSTROEM)
---------------------------------
  S      2.507100   -2.610460   80.389200
  C      3.927080   -3.111890   81.299500
  C      4.022250   -4.484070   81.431200
  C      2.916370   -5.155260   80.913900
  C      1.992130   -4.298250   80.322300
  H      2.720530   -6.171270   80.942900
  C      5.240830   -5.065470   82.018700
  H      6.077480   -4.286200   81.943800
  H      5.475460   -5.997860   81.478600
  C      5.107420   -5.320180   83.551200
  H      6.148010   -5.327920   83.931500
  H      4.640960   -4.475700   84.081800
  C      4.535640   -6.717060   83.802800
  H      5.114910   -7.497520   83.363000
  H      4.248800   -6.913100   84.837500
  H      3.630030   -6.930310   83.236900
  S     -0.530745   -3.377240   79.655000
  C     -1.532170   -4.306260   78.523900
  C     -0.855172   -5.449000   78.108200
  C      0.433372   -5.604930   78.685200
  C      0.803638   -4.581130   79.546400
  H     -1.372750   -6.148080   77.436600
  C      1.225740   -6.817130   78.360800
  H      2.248500   -6.538330   78.562500
  H      1.236010   -7.036580   77.327700
  C      0.917020   -8.100150   79.154200
  H      0.002677   -8.427740   78.713600
  H      0.726250   -7.954080   80.204600
  C      2.039760   -9.214360   79.036100
  H      1.613020  -10.218400   78.967500
  H      2.633660   -9.064990   79.940300
  H      2.674660   -9.021820   78.235300
  H      4.629000   -2.464840   81.768400
  H     -2.479850   -3.962820   78.136100

 Total Charge           Charge          ....    0
 Multiplicity           Mult            ....    1
 Number of Electrons    NEL             ....  134
 Basis Dimension        Dim             ....  322

ORBITAL ENERGIES
----------------

  NO   OCC          E(Eh)            E(eV)
   0   2.0000     -88.968071     -2420.9443
   1   2.0000     -88.964180     -2420.8384
   2   2.0000     -10.331815      -281.1430
   3   2.0000     -10.330537      -281.1082
   4   2.0000     -10.321336      -280.8578
   5   2.0000     -10.308653      -280.5127
   6   2.0000     -10.302299      -280.3398
   7   2.0000     -10.297697      -280.2146
   8   2.0000     -10.296139      -280.1722
   9   2.0000     -10.294576      -280.1297
  10   2.0000     -10.291805      -280.0543
  11   2.0000     -10.291078      -280.0345
  12   2.0000     -10.285341      -279.8784
  13   2.0000     -10.283627      -279.8317
  14   2.0000     -10.278935      -279.7040
  15   2.0000     -10.276436      -279.6360
  16   2.0000      -8.082275      -219.9299
  17   2.0000      -8.077911      -219.8111
  18   2.0000      -6.040685      -164.3754
  19   2.0000      -6.036938      -164.2734
  20   2.0000      -6.036557      -164.2631
  21   2.0000      -6.033084      -164.1686
  22   2.0000      -6.032483      -164.1522
  23   2.0000      -6.028658      -164.0481
  24   2.0000      -1.005566       -27.3628
  25   2.0000      -0.981422       -26.7058
  26   2.0000      -0.915388       -24.9090
  27   2.0000      -0.908809       -24.7300
  28   2.0000      -0.868226       -23.6256
  29   2.0000      -0.853617       -23.2281
  30   2.0000      -0.845680       -23.0121
  31   2.0000      -0.818055       -22.2604
  32   2.0000      -0.783803       -21.3284
  33   2.0000      -0.769895       -20.9499
  34   2.0000      -0.711582       -19.3631
  35   2.0000      -0.707243       -19.2451
  36   2.0000      -0.700955       -19.0740
  37   2.0000      -0.665251       -18.1024
  38   2.0000      -0.643821       -17.5193
  39   2.0000      -0.620885       -16.8952
  40   2.0000      -0.597144       -16.2491
  41   2.0000      -0.572933       -15.5903
  42   2.0000      -0.568714       -15.4755
  43   2.0000      -0.544373       -14.8131
  44   2.0000      -0.535529       -14.5725
  45   2.0000      -0.526237       -14.3196
  46   2.0000      -0.524804       -14.2806
  47   2.0000      -0.514872       -14.0104
  48   2.0000      -0.508637       -13.8407
  49   2.0000      -0.500606       -13.6222
  50   2.0000      -0.489524       -13.3206
  51   2.0000      -0.484153       -13.1745
  52   2.0000      -0.473164       -12.8755
  53   2.0000      -0.467473       -12.7206
  54   2.0000      -0.458177       -12.4676
  55   2.0000      -0.453152       -12.3309
  56   2.0000      -0.447187       -12.1686
  57   2.0000      -0.443663       -12.0727
  58   2.0000      -0.435171       -11.8416
  59   2.0000      -0.425646       -11.5824
  60   2.0000      -0.415663       -11.3108
  61   2.0000      -0.414998       -11.2927
  62   2.0000      -0.413119       -11.2415
  63   2.0000      -0.349434        -9.5086
  64   2.0000      -0.334684        -9.1072
  65   2.0000      -0.331046        -9.0082
  66   2.0000      -0.283064        -7.7026
  67   0.0000       0.019259         0.5241
  68   0.0000       0.072539         1.9739
  69   0.0000       0.099231         2.7002
  70   0.0000       0.117868         3.2074
  71   0.0000       0.123945         3.3727

MULLIKEN ATOMIC CHARGES
-----------------------
   0 S :    0.111603
   1 C :   -0.106317
   2 C :   -0.058442
   3 C :    0.048242
   4 C :   -0.125948
   5 H :   -0.031746
   6 C :    0.010944
   7 H :    0.036855
   8 H :    0.033599
   9 C :   -0.051786
  10 H :    0.031915
  11 H :    0.036480
  12 C :   -0.029775
  13 H :    0.016693
  14 H :    0.040810
  15 H :    0.005253
  16 S :    0.081560
  17 C :   -0.089894
  18 C :   -0.040416
  19 C :   -0.031838
  20 C :   -0.138760
  21 H :    0.028194
  22 C :    0.068607
  23 H :    0.004128
  24 H :    0.017017
  25 C :   -0.071904
  26 H :    0.014107
  27 H :    0.032009
  28 C :   -0.026115
  29 H :    0.045682
  30 H :    0.030423
  31 H :    0.019387
  32 H :    0.030385
  33 H :    0.059049
Sum of atomic charges:   -0.0000000

LOEWDIN ATOMIC CHARGES
----------------------
   0 S :    0.401504
   1 C :   -0.190519
   2 C :   -0.064529
   3 C :   -0.058257
   4 C :   -0.175906
   5 H :    0.017939
   6 C :   -0.031733
   7 H :    0.040035
   8 H :    0.033309
   9 C :   -0.039219
  10 H :    0.025678
  11 H :    0.027778
  12 C :   -0.071999
  13 H :    0.023094
  14 H :    0.028377
  15 H :    0.021920
  16 S :    0.370527
  17 C :   -0.172542
  18 C :   -0.072063
  19 C :   -0.055819
  20 C :   -0.182049
  21 H :    0.035767
  22 C :   -0.032959
  23 H :    0.023790
  24 H :    0.026902
  25 C :   -0.031886
  26 H :    0.016395
  27 H :    0.020953
  28 C :   -0.056573
  29 H :    0.031009
  30 H :    0.027759
  31 H :    0.014599
  32 H :    0.019739
  33 H :    0.028978

  Mayer bond orders larger than 0.100000
B(  0-S ,  1-C ) :   1.1326 B(  0-S ,  4-C ) :   1.1581 B(  1-C ,  2-C ) :   1.6017
B(  1-C ,  4-C ) :   0.1059 B(  1-C , 32-H ) :   0.9676 B(  2-C ,  3-C ) :   1.2459
B(  2-C ,  6-C ) :   1.0331 B(  3-C ,  4-C ) :   1.5397 B(  3-C ,  5-H ) :   1.0119
B(  4-C , 20-C ) :   1.0634 B(  6-C ,  7-H ) :   0.9429 B(  6-C ,  8-H ) :   0.9400
B(  6-C ,  9-C ) :   1.0582 B(  9-C , 10-H ) :   0.9579 B(  9-C , 11-H ) :   0.9568
B(  9-C , 12-C ) :   1.0723 B( 12-C , 13-H ) :   0.9705 B( 12-C , 14-H ) :   0.9726
B( 12-C , 15-H ) :   0.9720 B( 16-S , 17-C ) :   1.1470 B( 16-S , 20-C ) :   1.1183
B( 17-C , 18-C ) :   1.6057 B( 17-C , 20-C ) :   0.1030 B( 17-C , 33-H ) :   0.9683
B( 18-C , 19-C ) :   1.2334 B( 18-C , 21-H ) :   0.9885 B( 19-C , 20-C ) :   1.5889
B( 19-C , 22-C ) :   1.0593 B( 22-C , 23-H ) :   0.9278 B( 22-C , 24-H ) :   0.9261
B( 22-C , 25-C ) :   1.0528 B( 25-C , 26-H ) :   0.9581 B( 25-C , 27-H ) :   0.9648
B( 25-C , 28-C ) :   1.0637 B( 28-C , 29-H ) :   0.9775 B( 28-C , 30-H ) :   0.9803
B( 28-C , 31-H ) :   0.9786

Dispersion correction           -0.014443503
FINAL SINGLE POINT ENERGY     -1339.876150624722

DIPOLE MOMENT
-------------
                                X             Y             Z
Electronic contribution:    -14.07854      26.23401      -7.51294
Nuclear contribution   :     14.33727     -26.87471       7.47593
                        -----------------------------------------
Total Dipole Moment    :      0.25874      -0.64070      -0.03702
                        -----------------------------------------
Magnitude (a.u.)       :      0.69196
Magnitude (Debye)      :      1.75882

Rotational constants in cm-1:     0.017194     0.009743     0.006784
Rotational constants in MHz :   515.470507   292.077848   203.378065

                             ****ORCA TERMINATED NORMALLY****
TOTAL RUN TIME: 0 days 0 hours 0 minutes 35 seconds 669 msec
