                         Program Version 4.2.1 -  RELEASE  -
|  1> ! wB97X-D3 SP def2-SVP
|  2> %pal
|  3> nprocs 16
|  4> end
|  5>
|  6> * xyz 0 1
|  7> S 	 31.5261 	 16.796 	 48.9805
|  8> C 	 31.759 	 18.358 	 49.8448
|  9> C 	 32.4691 	 18.2159 	 51.0251
| 10> C 	 32.9352 	 16.8519 	 51.1567
| 11> C 	 32.6961 	 16.0407 	 50.0416
| 12> H 	 33.4989 	 16.4141 	 51.9418
| 13> C 	 32.6399 	 19.3329 	 52.0975
| 14> H 	 31.8539 	 19.1486 	 52.8624
| 15> H 	 32.4925 	 20.2702 	 51.5348
| 16> C 	 34.0144 	 19.4287 	 52.7629
| 17> H 	 34.1993 	 18.6494 	 53.4618
| 18> H 	 34.8027 	 19.3718 	 51.9815
| 19> C 	 34.1173 	 20.7154 	 53.4832
| 20> H 	 33.3628 	 20.7684 	 54.2925
| 21> H 	 35.0918 	 20.8475 	 54.0441
| 22> H 	 33.8912 	 21.6082 	 52.9138
| 23> S 	 31.55 	 13.5116 	 49.5094
| 24> C 	 32.6025 	 12.1027 	 49.4835
| 25> C 	 33.8924 	 12.4302 	 49.7685
| 26> C 	 34.1238 	 13.8518 	 49.9661
| 27> C 	 32.9356 	 14.6003 	 49.8927
| 28> H 	 34.743 	 11.761 	 49.6676
| 29> C 	 35.486 	 14.5029 	 49.8622
| 30> H 	 36.1752 	 13.7878 	 50.4444
| 31> H 	 35.5307 	 15.3288 	 50.5894
| 32> C 	 36.0974 	 14.8619 	 48.4707
| 33> H 	 36.293 	 13.8325 	 48.0543
| 34> H 	 36.9859 	 15.4908 	 48.6386
| 35> C 	 35.1123 	 15.6867 	 47.5897
| 36> H 	 34.6341 	 16.567 	 48.0382
| 37> H 	 34.3141 	 15.1367 	 47.1688
| 38> H 	 35.7341 	 16.0229 	 46.7452
| 39> H 	 31.4718 	 19.2713 	 49.4468
| 40> H 	 32.2128 	 11.103 	 49.498
| 41> *
| 42>
| 43>                          ****END OF INPUT****

CARTESIAN COORDINATES (ANGSTROEM)
---------------------------------
  S     31.526100   16.796000   48.980500
  C     31.759000   18.358000   49.844800
  C     32.469100   18.215900   51.025100
  C     32.935200   16.851900   51.156700
  C     32.696100   16.040700   50.041600
  H     33.498900   16.414100   51.941800
  C     32.639900   19.332900   52.097500
  H     31.853900   19.148600   52.862400
  H     32.492500   20.270200   51.534800
  C     34.014400   19.428700   52.762900
  H     34.199300   18.649400   53.461800
  H     34.802700   19.371800   51.981500
  C     34.117300   20.715400   53.483200
  H     33.362800   20.768400   54.292500
  H     35.091800   20.847500   54.044100
  H     33.891200   21.608200   52.913800
  S     31.550000   13.511600   49.509400
  C     32.602500   12.102700   49.483500
  C     33.892400   12.430200   49.768500
  C     34.123800   13.851800   49.966100
  C     32.935600   14.600300   49.892700
  H     34.743000   11.761000   49.667600
  C     35.486000   14.502900   49.862200
  H     36.175200   13.787800   50.444400
  H     35.530700   15.328800   50.589400
  C     36.097400   14.861900   48.470700
  H     36.293000   13.832500   48.054300
  H     36.985900   15.490800   48.638600
  C     35.112300   15.686700   47.589700
  H     34.634100   16.567000   48.038200
  H     34.314100   15.136700   47.168800
  H     35.734100   16.022900   46.745200
  H     31.471800   19.271300   49.446800
  H     32.212800   11.103000   49.498000

 Total Charge           Charge          ....    0
 Multiplicity           Mult            ....    1
 Number of Electrons    NEL             ....  134
 Basis Dimension        Dim             ....  322

ORBITAL ENERGIES
----------------

  NO   OCC          E(Eh)            E(eV)
   0   2.0000     -88.966339     -2420.8972
   1   2.0000     -88.965502     -2420.8744
   2   2.0000     -10.333554      -281.1903
   3   2.0000     -10.333371      -281.1853
   4   2.0000     -10.317811      -280.7619
   5   2.0000     -10.314397      -280.6690
   6   2.0000     -10.309420      -280.5336
   7   2.0000     -10.304719      -280.4057
   8   2.0000     -10.303982      -280.3856
   9   2.0000     -10.297238      -280.2021
  10   2.0000     -10.296438      -280.1803
  11   2.0000     -10.295476      -280.1542
  12   2.0000     -10.294365      -280.1239
  13   2.0000     -10.286536      -279.9109
  14   2.0000     -10.281604      -279.7767
  15   2.0000     -10.268689      -279.4252
  16   2.0000      -8.080328      -219.8769
  17   2.0000      -8.079421      -219.8522
  18   2.0000      -6.038893      -164.3266
  19   2.0000      -6.038072      -164.3043
  20   2.0000      -6.035129      -164.2242
  21   2.0000      -6.034045      -164.1947
  22   2.0000      -6.030878      -164.1085
  23   2.0000      -6.030074      -164.0867
  24   2.0000      -0.999310       -27.1926
  25   2.0000      -0.976406       -26.5694
  26   2.0000      -0.918239       -24.9866
  27   2.0000      -0.898403       -24.4468
  28   2.0000      -0.871473       -23.7140
  29   2.0000      -0.845802       -23.0154
  30   2.0000      -0.839035       -22.8313
  31   2.0000      -0.813715       -22.1423
  32   2.0000      -0.781167       -21.2566
  33   2.0000      -0.770125       -20.9562
  34   2.0000      -0.709748       -19.3132
  35   2.0000      -0.696611       -18.9557
  36   2.0000      -0.691034       -18.8040
  37   2.0000      -0.655827       -17.8460
  38   2.0000      -0.646665       -17.5967
  39   2.0000      -0.614654       -16.7256
  40   2.0000      -0.589931       -16.0529
  41   2.0000      -0.579944       -15.7811
  42   2.0000      -0.562038       -15.2938
  43   2.0000      -0.552798       -15.0424
  44   2.0000      -0.535753       -14.5786
  45   2.0000      -0.525392       -14.2966
  46   2.0000      -0.511582       -13.9208
  47   2.0000      -0.506239       -13.7755
  48   2.0000      -0.501306       -13.6412
  49   2.0000      -0.496942       -13.5225
  50   2.0000      -0.489069       -13.3083
  51   2.0000      -0.477600       -12.9961
  52   2.0000      -0.473310       -12.8794
  53   2.0000      -0.462039       -12.5727
  54   2.0000      -0.459279       -12.4976
  55   2.0000      -0.444758       -12.1025
  56   2.0000      -0.440598       -11.9893
  57   2.0000      -0.437480       -11.9044
  58   2.0000      -0.425051       -11.5662
  59   2.0000      -0.423338       -11.5196
  60   2.0000      -0.422190       -11.4884
  61   2.0000      -0.416800       -11.3417
  62   2.0000      -0.405878       -11.0445
  63   2.0000      -0.350293        -9.5319
  64   2.0000      -0.331212        -9.0127
  65   2.0000      -0.329760        -8.9732
  66   2.0000      -0.287777        -7.8308
  67   0.0000       0.023279         0.6334
  68   0.0000       0.061287         1.6677
  69   0.0000       0.099764         2.7147
  70   0.0000       0.119410         3.2493
  71   0.0000       0.126799         3.4504

MULLIKEN ATOMIC CHARGES
-----------------------
   0 S :    0.087302
   1 C :   -0.100394
   2 C :   -0.075910
   3 C :    0.047514
   4 C :   -0.162532
   5 H :    0.005660
   6 C :    0.046951
   7 H :    0.059808
   8 H :    0.025565
   9 C :   -0.053061
  10 H :    0.027630
  11 H :    0.035889
  12 C :   -0.063519
  13 H :    0.017736
  14 H :    0.042565
  15 H :    0.027785
  16 S :    0.089689
  17 C :   -0.084145
  18 C :   -0.017029
  19 C :   -0.071080
  20 C :   -0.143422
  21 H :    0.022800
  22 C :    0.011923
  23 H :    0.020629
  24 H :    0.016049
  25 C :   -0.036366
  26 H :    0.040539
  27 H :    0.043966
  28 C :   -0.055705
  29 H :    0.045972
  30 H :    0.032411
  31 H :    0.029527
  32 H :    0.022101
  33 H :    0.063155
Sum of atomic charges:   -0.0000000

LOEWDIN ATOMIC CHARGES
----------------------
   0 S :    0.380433
   1 C :   -0.170909
   2 C :   -0.056167
   3 C :   -0.056790
   4 C :   -0.186137
   5 H :    0.024589
   6 C :   -0.025181
   7 H :    0.041793
   8 H :    0.033697
   9 C :   -0.046791
  10 H :    0.021673
  11 H :    0.029390
  12 C :   -0.071214
  13 H :    0.025109
  14 H :    0.033214
  15 H :    0.021561
  16 S :    0.374206
  17 C :   -0.178577
  18 C :   -0.070480
  19 C :   -0.065279
  20 C :   -0.177934
  21 H :    0.032404
  22 C :   -0.051731
  23 H :    0.032325
  24 H :    0.026002
  25 C :   -0.033016
  26 H :    0.033032
  27 H :    0.031878
  28 C :   -0.070246
  29 H :    0.029082
  30 H :    0.020328
  31 H :    0.028625
  32 H :    0.011165
  33 H :    0.029948

  Mayer bond orders larger than 0.100000
B(  0-S ,  1-C ) :   1.1211 B(  0-S ,  4-C ) :   1.1373 B(  1-C ,  2-C ) :   1.6325
B(  1-C , 32-H ) :   0.9766 B(  2-C ,  3-C ) :   1.2108 B(  2-C ,  6-C ) :   1.0108
B(  3-C ,  4-C ) :   1.5885 B(  3-C ,  5-H ) :   0.9924 B(  4-C , 20-C ) :   1.0437
B(  6-C ,  7-H ) :   0.9356 B(  6-C ,  8-H ) :   0.9468 B(  6-C ,  9-C ) :   1.0675
B(  9-C , 10-H ) :   0.9439 B(  9-C , 11-H ) :   0.9570 B(  9-C , 12-C ) :   1.0987
B( 12-C , 13-H ) :   0.9669 B( 12-C , 14-H ) :   0.9711 B( 12-C , 15-H ) :   0.9744
B( 16-S , 17-C ) :   1.1372 B( 16-S , 20-C ) :   1.1267 B( 17-C , 18-C ) :   1.6242
B( 17-C , 33-H ) :   0.9654 B( 18-C , 19-C ) :   1.2411 B( 18-C , 21-H ) :   0.9843
B( 19-C , 20-C ) :   1.5997 B( 19-C , 22-C ) :   1.0570 B( 22-C , 23-H ) :   0.9331
B( 22-C , 24-H ) :   0.9283 B( 22-C , 25-C ) :   1.0510 B( 25-C , 26-H ) :   0.9544
B( 25-C , 27-H ) :   0.9546 B( 25-C , 28-C ) :   1.0769 B( 28-C , 29-H ) :   0.9730
B( 28-C , 30-H ) :   0.9729 B( 28-C , 31-H ) :   0.9740

Dispersion correction           -0.015142865
FINAL SINGLE POINT ENERGY     -1339.871995338012

DIPOLE MOMENT
-------------
                                X             Y             Z
Electronic contribution:    -19.01093     -16.14418      -8.39673
Nuclear contribution   :     19.48622      16.41811       8.75880
                        -----------------------------------------
Total Dipole Moment    :      0.47529       0.27394       0.36207
                        -----------------------------------------
Magnitude (a.u.)       :      0.65730
Magnitude (Debye)      :      1.67071

Rotational constants in cm-1:     0.021124     0.008007     0.007136
Rotational constants in MHz :   633.281039   240.045619   213.946302

                             ****ORCA TERMINATED NORMALLY****
TOTAL RUN TIME: 0 days 0 hours 0 minutes 36 seconds 278 msec
