                         Program Version 4.2.1 -  RELEASE  -
|  1> ! wB97X-D3 SP def2-SVP
|  2> %pal
|  3> nprocs 16
|  4> end
|  5>
|  6> * xyz 0 1
|  7> S 	 -41.4857 	 32.7062 	 84.9896
|  8> C 	 -40.8677 	 34.0857 	 84.0747
|  9> C 	 -40.9983 	 33.9527 	 82.6936
| 10> C 	 -41.5348 	 32.701 	 82.3804
| 11> C 	 -41.8134 	 31.8704 	 83.4299
| 12> H 	 -41.7711 	 32.3863 	 81.3756
| 13> C 	 -40.5829 	 34.8563 	 81.5816
| 14> H 	 -40.9078 	 35.9308 	 81.8071
| 15> H 	 -41.2618 	 34.6137 	 80.7682
| 16> C 	 -39.1103 	 34.8518 	 81.0396
| 17> H 	 -38.498 	 35.4686 	 81.6964
| 18> H 	 -38.8222 	 33.7961 	 80.961
| 19> C 	 -39.0814 	 35.2781 	 79.6074
| 20> H 	 -39.1377 	 36.3927 	 79.605
| 21> H 	 -38.1138 	 34.8877 	 79.195
| 22> H 	 -39.9172 	 34.8437 	 79.1273
| 23> S 	 -41.7438 	 29.2538 	 84.3546
| 24> C 	 -42.9648 	 28.1659 	 83.7602
| 25> C 	 -43.7535 	 28.7824 	 82.8238
| 26> C 	 -43.4828 	 30.1603 	 82.6081
| 27> C 	 -42.4212 	 30.5683 	 83.3723
| 28> H 	 -44.6355 	 28.2432 	 82.4148
| 29> C 	 -44.4187 	 31.0509 	 81.7995
| 30> H 	 -43.9519 	 31.3596 	 80.8576
| 31> H 	 -44.3584 	 31.9765 	 82.313
| 32> C 	 -45.8773 	 30.6996 	 81.5174
| 33> H 	 -46.3846 	 31.6469 	 81.5093
| 34> H 	 -46.357 	 30.0818 	 82.3428
| 35> C 	 -45.971 	 29.7916 	 80.3091
| 36> H 	 -46.9498 	 29.4726 	 79.9826
| 37> H 	 -45.2919 	 28.973 	 80.2653
| 38> H 	 -45.5709 	 30.3868 	 79.4267
| 39> H 	 -40.2435 	 34.8657 	 84.52
| 40> H 	 -43.0977 	 27.19 	 84.2572
| 41> *
| 42>
| 43>                          ****END OF INPUT****

CARTESIAN COORDINATES (ANGSTROEM)
---------------------------------
  S    -41.485700   32.706200   84.989600
  C    -40.867700   34.085700   84.074700
  C    -40.998300   33.952700   82.693600
  C    -41.534800   32.701000   82.380400
  C    -41.813400   31.870400   83.429900
  H    -41.771100   32.386300   81.375600
  C    -40.582900   34.856300   81.581600
  H    -40.907800   35.930800   81.807100
  H    -41.261800   34.613700   80.768200
  C    -39.110300   34.851800   81.039600
  H    -38.498000   35.468600   81.696400
  H    -38.822200   33.796100   80.961000
  C    -39.081400   35.278100   79.607400
  H    -39.137700   36.392700   79.605000
  H    -38.113800   34.887700   79.195000
  H    -39.917200   34.843700   79.127300
  S    -41.743800   29.253800   84.354600
  C    -42.964800   28.165900   83.760200
  C    -43.753500   28.782400   82.823800
  C    -43.482800   30.160300   82.608100
  C    -42.421200   30.568300   83.372300
  H    -44.635500   28.243200   82.414800
  C    -44.418700   31.050900   81.799500
  H    -43.951900   31.359600   80.857600
  H    -44.358400   31.976500   82.313000
  C    -45.877300   30.699600   81.517400
  H    -46.384600   31.646900   81.509300
  H    -46.357000   30.081800   82.342800
  C    -45.971000   29.791600   80.309100
  H    -46.949800   29.472600   79.982600
  H    -45.291900   28.973000   80.265300
  H    -45.570900   30.386800   79.426700
  H    -40.243500   34.865700   84.520000
  H    -43.097700   27.190000   84.257200

 Total Charge           Charge          ....    0
 Multiplicity           Mult            ....    1
 Number of Electrons    NEL             ....  134
 Basis Dimension        Dim             ....  322

ORBITAL ENERGIES
----------------

  NO   OCC          E(Eh)            E(eV)
   0   2.0000     -88.967597     -2420.9314
   1   2.0000     -88.963177     -2420.8111
   2   2.0000     -10.326644      -281.0023
   3   2.0000     -10.322360      -280.8857
   4   2.0000     -10.317519      -280.7540
   5   2.0000     -10.315972      -280.7119
   6   2.0000     -10.302991      -280.3586
   7   2.0000     -10.297794      -280.2172
   8   2.0000     -10.295993      -280.1682
   9   2.0000     -10.293790      -280.1083
  10   2.0000     -10.293688      -280.1055
  11   2.0000     -10.290069      -280.0070
  12   2.0000     -10.288558      -279.9659
  13   2.0000     -10.287466      -279.9362
  14   2.0000     -10.280138      -279.7368
  15   2.0000     -10.279933      -279.7312
  16   2.0000      -8.081240      -219.9017
  17   2.0000      -8.078041      -219.8147
  18   2.0000      -6.039782      -164.3508
  19   2.0000      -6.036529      -164.2623
  20   2.0000      -6.036011      -164.2482
  21   2.0000      -6.032574      -164.1547
  22   2.0000      -6.031934      -164.1373
  23   2.0000      -6.028793      -164.0518
  24   2.0000      -1.005917       -27.3724
  25   2.0000      -0.982834       -26.7443
  26   2.0000      -0.914830       -24.8938
  27   2.0000      -0.914159       -24.8755
  28   2.0000      -0.872864       -23.7518
  29   2.0000      -0.858229       -23.3536
  30   2.0000      -0.847070       -23.0500
  31   2.0000      -0.811370       -22.0785
  32   2.0000      -0.787211       -21.4211
  33   2.0000      -0.769128       -20.9290
  34   2.0000      -0.709386       -19.3034
  35   2.0000      -0.700842       -19.0709
  36   2.0000      -0.694569       -18.9002
  37   2.0000      -0.657115       -17.8810
  38   2.0000      -0.638222       -17.3669
  39   2.0000      -0.621682       -16.9168
  40   2.0000      -0.604783       -16.4570
  41   2.0000      -0.575009       -15.6468
  42   2.0000      -0.562118       -15.2960
  43   2.0000      -0.556212       -15.1353
  44   2.0000      -0.534229       -14.5371
  45   2.0000      -0.527937       -14.3659
  46   2.0000      -0.520067       -14.1517
  47   2.0000      -0.511587       -13.9210
  48   2.0000      -0.506868       -13.7926
  49   2.0000      -0.495524       -13.4839
  50   2.0000      -0.494248       -13.4492
  51   2.0000      -0.481200       -13.0941
  52   2.0000      -0.469334       -12.7712
  53   2.0000      -0.464607       -12.6426
  54   2.0000      -0.457317       -12.4442
  55   2.0000      -0.449245       -12.2246
  56   2.0000      -0.440594       -11.9892
  57   2.0000      -0.434654       -11.8275
  58   2.0000      -0.432758       -11.7760
  59   2.0000      -0.431529       -11.7425
  60   2.0000      -0.424007       -11.5378
  61   2.0000      -0.416478       -11.3329
  62   2.0000      -0.409792       -11.1510
  63   2.0000      -0.344825        -9.3832
  64   2.0000      -0.333368        -9.0714
  65   2.0000      -0.331383        -9.0174
  66   2.0000      -0.289664        -7.8822
  67   0.0000       0.023356         0.6355
  68   0.0000       0.072866         1.9828
  69   0.0000       0.103667         2.8209
  70   0.0000       0.123659         3.3649
  71   0.0000       0.135487         3.6868

MULLIKEN ATOMIC CHARGES
-----------------------
   0 S :    0.105836
   1 C :   -0.127969
   2 C :   -0.053322
   3 C :    0.006276
   4 C :   -0.140980
   5 H :    0.000512
   6 C :    0.009440
   7 H :    0.033693
   8 H :    0.008547
   9 C :   -0.043484
  10 H :    0.038534
  11 H :    0.029170
  12 C :   -0.049995
  13 H :    0.037313
  14 H :    0.047414
  15 H :    0.023141
  16 S :    0.102420
  17 C :   -0.107518
  18 C :   -0.056892
  19 C :   -0.003903
  20 C :   -0.176502
  21 H :    0.031239
  22 C :    0.052531
  23 H :    0.022791
  24 H :    0.021732
  25 C :   -0.040146
  26 H :    0.036824
  27 H :    0.039721
  28 C :   -0.051550
  29 H :    0.035970
  30 H :    0.029055
  31 H :    0.015063
  32 H :    0.052129
  33 H :    0.072913
Sum of atomic charges:   -0.0000000

LOEWDIN ATOMIC CHARGES
----------------------
   0 S :    0.379677
   1 C :   -0.189192
   2 C :   -0.070187
   3 C :   -0.058826
   4 C :   -0.178396
   5 H :    0.028466
   6 C :   -0.042126
   7 H :    0.036290
   8 H :    0.026108
   9 C :   -0.037189
  10 H :    0.024773
  11 H :    0.027783
  12 C :   -0.061493
  13 H :    0.028545
  14 H :    0.034379
  15 H :    0.017373
  16 S :    0.394270
  17 C :   -0.188552
  18 C :   -0.080029
  19 C :   -0.049878
  20 C :   -0.196320
  21 H :    0.036250
  22 C :   -0.033855
  23 H :    0.031776
  24 H :    0.031565
  25 C :   -0.040527
  26 H :    0.030459
  27 H :    0.031654
  28 C :   -0.071250
  29 H :    0.023149
  30 H :    0.021709
  31 H :    0.028961
  32 H :    0.029104
  33 H :    0.035528

  Mayer bond orders larger than 0.100000
B(  0-S ,  1-C ) :   1.1387 B(  0-S ,  4-C ) :   1.1292 B(  1-C ,  2-C ) :   1.6045
B(  1-C ,  4-C ) :   0.1015 B(  1-C , 32-H ) :   0.9635 B(  2-C ,  3-C ) :   1.2530
B(  2-C ,  6-C ) :   1.0294 B(  3-C ,  4-C ) :   1.5754 B(  3-C ,  5-H ) :   0.9963
B(  4-C , 20-C ) :   1.0632 B(  6-C ,  7-H ) :   0.9331 B(  6-C ,  8-H ) :   0.9398
B(  6-C ,  9-C ) :   1.0561 B(  9-C , 10-H ) :   0.9559 B(  9-C , 11-H ) :   0.9587
B(  9-C , 12-C ) :   1.0769 B( 12-C , 13-H ) :   0.9766 B( 12-C , 14-H ) :   0.9768
B( 12-C , 15-H ) :   0.9752 B( 16-S , 17-C ) :   1.1524 B( 16-S , 20-C ) :   1.1350
B( 17-C , 18-C ) :   1.6058 B( 17-C , 33-H ) :   0.9644 B( 18-C , 19-C ) :   1.2473
B( 18-C , 21-H ) :   0.9764 B( 19-C , 20-C ) :   1.6027 B( 19-C , 22-C ) :   1.0281
B( 22-C , 23-H ) :   0.9195 B( 22-C , 24-H ) :   0.9243 B( 22-C , 25-C ) :   1.0680
B( 25-C , 26-H ) :   0.9545 B( 25-C , 27-H ) :   0.9574 B( 25-C , 28-C ) :   1.0614
B( 28-C , 29-H ) :   0.9749 B( 28-C , 30-H ) :   0.9757 B( 28-C , 31-H ) :   0.9676

Dispersion correction           -0.013799307
FINAL SINGLE POINT ENERGY     -1339.871474477556

DIPOLE MOMENT
-------------
                                X             Y             Z
Electronic contribution:      5.56379     -10.85942      25.32584
Nuclear contribution   :     -5.81445      11.08242     -25.90512
                        -----------------------------------------
Total Dipole Moment    :     -0.25066       0.22300      -0.57928
                        -----------------------------------------
Magnitude (a.u.)       :      0.66942
Magnitude (Debye)      :      1.70154

Rotational constants in cm-1:     0.017789     0.008026     0.006388
Rotational constants in MHz :   533.313129   240.623116   191.493759

                             ****ORCA TERMINATED NORMALLY****
TOTAL RUN TIME: 0 days 0 hours 0 minutes 27 seconds 815 msec
