                         Program Version 4.2.1 -  RELEASE  -
|  1> ! wB97X-D3 SP def2-SVP
|  2> %pal
|  3> nprocs 16
|  4> end
|  5>
|  6> * xyz 0 1
|  7> S 	 -42.8088 	 54.2329 	 103.698
|  8> C 	 -44.463 	 54.7262 	 103.621
|  9> C 	 -45.1925 	 54.023 	 102.585
| 10> C 	 -44.2669 	 53.2379 	 101.822
| 11> C 	 -42.9361 	 53.3602 	 102.164
| 12> H 	 -44.4999 	 52.5816 	 100.999
| 13> C 	 -46.704 	 54.0632 	 102.427
| 14> H 	 -46.9453 	 53.8584 	 101.41
| 15> H 	 -46.9868 	 55.1661 	 102.409
| 16> C 	 -47.6225 	 53.3473 	 103.455
| 17> H 	 -47.6168 	 53.7325 	 104.433
| 18> H 	 -48.6726 	 53.4515 	 103.135
| 19> C 	 -47.4366 	 51.721 	 103.539
| 20> H 	 -48.3244 	 51.3222 	 104.059
| 21> H 	 -47.4922 	 51.2667 	 102.522
| 22> H 	 -46.625 	 51.4237 	 104.117
| 23> S 	 -40.6083 	 54.0831 	 100.874
| 24> C 	 -39.5005 	 52.858 	 100.383
| 25> C 	 -39.9772 	 51.5793 	 100.659
| 26> C 	 -41.2993 	 51.5844 	 101.266
| 27> C 	 -41.7752 	 52.8788 	 101.451
| 28> H 	 -39.3033 	 50.7554 	 100.367
| 29> C 	 -41.8836 	 50.3203 	 101.944
| 30> H 	 -42.2585 	 49.5714 	 101.183
| 31> H 	 -42.7978 	 50.5183 	 102.51
| 32> C 	 -40.8787 	 49.7864 	 103.022
| 33> H 	 -39.9238 	 49.5974 	 102.608
| 34> H 	 -41.2414 	 48.781 	 103.245
| 35> C 	 -40.7415 	 50.6136 	 104.275
| 36> H 	 -40.3173 	 51.6365 	 104.167
| 37> H 	 -40.0808 	 50.0971 	 104.989
| 38> H 	 -41.7225 	 50.772 	 104.721
| 39> H 	 -44.8739 	 55.4468 	 104.341
| 40> H 	 -38.4979 	 52.9431 	 99.9424
| 41> *
| 42>
| 43>                          ****END OF INPUT****

CARTESIAN COORDINATES (ANGSTROEM)
---------------------------------
  S    -42.808800   54.232900  103.698000
  C    -44.463000   54.726200  103.621000
  C    -45.192500   54.023000  102.585000
  C    -44.266900   53.237900  101.822000
  C    -42.936100   53.360200  102.164000
  H    -44.499900   52.581600  100.999000
  C    -46.704000   54.063200  102.427000
  H    -46.945300   53.858400  101.410000
  H    -46.986800   55.166100  102.409000
  C    -47.622500   53.347300  103.455000
  H    -47.616800   53.732500  104.433000
  H    -48.672600   53.451500  103.135000
  C    -47.436600   51.721000  103.539000
  H    -48.324400   51.322200  104.059000
  H    -47.492200   51.266700  102.522000
  H    -46.625000   51.423700  104.117000
  S    -40.608300   54.083100  100.874000
  C    -39.500500   52.858000  100.383000
  C    -39.977200   51.579300  100.659000
  C    -41.299300   51.584400  101.266000
  C    -41.775200   52.878800  101.451000
  H    -39.303300   50.755400  100.367000
  C    -41.883600   50.320300  101.944000
  H    -42.258500   49.571400  101.183000
  H    -42.797800   50.518300  102.510000
  C    -40.878700   49.786400  103.022000
  H    -39.923800   49.597400  102.608000
  H    -41.241400   48.781000  103.245000
  C    -40.741500   50.613600  104.275000
  H    -40.317300   51.636500  104.167000
  H    -40.080800   50.097100  104.989000
  H    -41.722500   50.772000  104.721000
  H    -44.873900   55.446800  104.341000
  H    -38.497900   52.943100   99.942400

 Total Charge           Charge          ....    0
 Multiplicity           Mult            ....    1
 Number of Electrons    NEL             ....  134
 Basis Dimension        Dim             ....  322

ORBITAL ENERGIES
----------------

  NO   OCC          E(Eh)            E(eV)
   0   2.0000     -88.966819     -2420.9102
   1   2.0000     -88.964982     -2420.8602
   2   2.0000     -10.325422      -280.9690
   3   2.0000     -10.324896      -280.9547
   4   2.0000     -10.320130      -280.8250
   5   2.0000     -10.317270      -280.7472
   6   2.0000     -10.309511      -280.5361
   7   2.0000     -10.309293      -280.5301
   8   2.0000     -10.298622      -280.2398
   9   2.0000     -10.298284      -280.2305
  10   2.0000     -10.296616      -280.1852
  11   2.0000     -10.294558      -280.1292
  12   2.0000     -10.294109      -280.1169
  13   2.0000     -10.282255      -279.7944
  14   2.0000     -10.280340      -279.7423
  15   2.0000     -10.275144      -279.6009
  16   2.0000      -8.081358      -219.9049
  17   2.0000      -8.079746      -219.8611
  18   2.0000      -6.039678      -164.3480
  19   2.0000      -6.038280      -164.3100
  20   2.0000      -6.035913      -164.2455
  21   2.0000      -6.034200      -164.1989
  22   2.0000      -6.032319      -164.1477
  23   2.0000      -6.030498      -164.0982
  24   2.0000      -1.001564       -27.2540
  25   2.0000      -0.978226       -26.6189
  26   2.0000      -0.903424       -24.5834
  27   2.0000      -0.898974       -24.4623
  28   2.0000      -0.864251       -23.5175
  29   2.0000      -0.844795       -22.9880
  30   2.0000      -0.841043       -22.8860
  31   2.0000      -0.810417       -22.0526
  32   2.0000      -0.781705       -21.2713
  33   2.0000      -0.768225       -20.9045
  34   2.0000      -0.708520       -19.2798
  35   2.0000      -0.700210       -19.0537
  36   2.0000      -0.691962       -18.8292
  37   2.0000      -0.649799       -17.6819
  38   2.0000      -0.641874       -17.4663
  39   2.0000      -0.612732       -16.6733
  40   2.0000      -0.593998       -16.1635
  41   2.0000      -0.569574       -15.4989
  42   2.0000      -0.547835       -14.9073
  43   2.0000      -0.542103       -14.7514
  44   2.0000      -0.536025       -14.5860
  45   2.0000      -0.529419       -14.4062
  46   2.0000      -0.515650       -14.0316
  47   2.0000      -0.507090       -13.7986
  48   2.0000      -0.498841       -13.5742
  49   2.0000      -0.491186       -13.3658
  50   2.0000      -0.489718       -13.3259
  51   2.0000      -0.468325       -12.7438
  52   2.0000      -0.467768       -12.7286
  53   2.0000      -0.462400       -12.5826
  54   2.0000      -0.458003       -12.4629
  55   2.0000      -0.447303       -12.1717
  56   2.0000      -0.444182       -12.0868
  57   2.0000      -0.440247       -11.9797
  58   2.0000      -0.436997       -11.8913
  59   2.0000      -0.422335       -11.4923
  60   2.0000      -0.420527       -11.4431
  61   2.0000      -0.411204       -11.1894
  62   2.0000      -0.407520       -11.0892
  63   2.0000      -0.338994        -9.2245
  64   2.0000      -0.329875        -8.9764
  65   2.0000      -0.322158        -8.7664
  66   2.0000      -0.295870        -8.0510
  67   0.0000       0.030612         0.8330
  68   0.0000       0.062532         1.7016
  69   0.0000       0.108159         2.9431
  70   0.0000       0.125070         3.4033
  71   0.0000       0.130132         3.5411

MULLIKEN ATOMIC CHARGES
-----------------------
   0 S :    0.123250
   1 C :   -0.137224
   2 C :   -0.090690
   3 C :    0.059544
   4 C :   -0.186198
   5 H :    0.007557
   6 C :    0.064668
   7 H :    0.010600
   8 H :    0.035546
   9 C :   -0.046292
  10 H :    0.023151
  11 H :    0.030136
  12 C :   -0.074895
  13 H :    0.028345
  14 H :    0.037505
  15 H :    0.039573
  16 S :    0.123246
  17 C :   -0.102455
  18 C :   -0.070072
  19 C :    0.006165
  20 C :   -0.184531
  21 H :    0.033371
  22 C :    0.038813
  23 H :    0.044354
  24 H :    0.022634
  25 C :   -0.053389
  26 H :    0.015793
  27 H :    0.021116
  28 C :   -0.052237
  29 H :    0.043230
  30 H :    0.036821
  31 H :    0.026738
  32 H :    0.062520
  33 H :    0.063308
Sum of atomic charges:   -0.0000000

LOEWDIN ATOMIC CHARGES
----------------------
   0 S :    0.414149
   1 C :   -0.203946
   2 C :   -0.064780
   3 C :   -0.055416
   4 C :   -0.201939
   5 H :    0.031414
   6 C :   -0.042493
   7 H :    0.025810
   8 H :    0.044465
   9 C :   -0.029985
  10 H :    0.016197
  11 H :    0.028995
  12 C :   -0.065979
  13 H :    0.027646
  14 H :    0.028635
  15 H :    0.014765
  16 S :    0.410423
  17 C :   -0.199798
  18 C :   -0.079839
  19 C :   -0.048808
  20 C :   -0.203993
  21 H :    0.036169
  22 C :   -0.034160
  23 H :    0.037610
  24 H :    0.028018
  25 C :   -0.037436
  26 H :    0.014247
  27 H :    0.025471
  28 C :   -0.066824
  29 H :    0.029943
  30 H :    0.030508
  31 H :    0.023297
  32 H :    0.029832
  33 H :    0.037802

  Mayer bond orders larger than 0.100000
B(  0-S ,  1-C ) :   1.1754 B(  0-S ,  4-C ) :   1.1484 B(  1-C ,  2-C ) :   1.5417
B(  1-C ,  4-C ) :   0.1080 B(  1-C , 32-H ) :   0.9709 B(  2-C ,  3-C ) :   1.2662
B(  2-C ,  6-C ) :   1.0248 B(  3-C ,  4-C ) :   1.5663 B(  3-C ,  5-H ) :   0.9962
B(  4-C , 20-C ) :   1.0463 B(  6-C ,  7-H ) :   0.9409 B(  6-C ,  8-H ) :   0.9356
B(  6-C ,  9-C ) :   1.0666 B(  9-C , 10-H ) :   0.9613 B(  9-C , 11-H ) :   0.9572
B(  9-C , 12-C ) :   1.0633 B( 12-C , 13-H ) :   0.9776 B( 12-C , 14-H ) :   0.9790
B( 12-C , 15-H ) :   0.9818 B( 16-S , 17-C ) :   1.1545 B( 16-S , 20-C ) :   1.1337
B( 17-C , 18-C ) :   1.6419 B( 17-C , 33-H ) :   0.9614 B( 18-C , 19-C ) :   1.2097
B( 18-C , 21-H ) :   0.9823 B( 19-C , 20-C ) :   1.6013 B( 19-C , 22-C ) :   1.0415
B( 22-C , 23-H ) :   0.9386 B( 22-C , 24-H ) :   0.9393 B( 22-C , 25-C ) :   1.0613
B( 25-C , 26-H ) :   0.9569 B( 25-C , 27-H ) :   0.9506 B( 25-C , 28-C ) :   1.0777
B( 28-C , 29-H ) :   0.9739 B( 28-C , 30-H ) :   0.9712 B( 28-C , 31-H ) :   0.9727

Dispersion correction           -0.015262757
FINAL SINGLE POINT ENERGY     -1339.872828480866

DIPOLE MOMENT
-------------
                                X             Y             Z
Electronic contribution:     15.51559      16.59799      -8.13337
Nuclear contribution   :    -15.82143     -17.02716       8.22094
                        -----------------------------------------
Total Dipole Moment    :     -0.30584      -0.42917       0.08757
                        -----------------------------------------
Magnitude (a.u.)       :      0.53422
Magnitude (Debye)      :      1.35788

Rotational constants in cm-1:     0.021355     0.008366     0.007246
Rotational constants in MHz :   640.200019   250.810914   217.231216

                             ****ORCA TERMINATED NORMALLY****
TOTAL RUN TIME: 0 days 0 hours 0 minutes 31 seconds 472 msec
