                         Program Version 4.2.1 -  RELEASE  -
|  1> ! wB97X-D3 SP def2-SVP
|  2> %pal
|  3> nprocs 16
|  4> end
|  5>
|  6> * xyz 0 1
|  7> S 	 -20.7263 	 2.53127 	 74.6084
|  8> C 	 -19.5881 	 1.22333 	 74.3264
|  9> C 	 -20.2264 	 -0.00535338 	 74.2845
| 10> C 	 -21.5736 	 0.103253 	 74.7635
| 11> C 	 -22.0251 	 1.4119 	 74.8982
| 12> H 	 -22.1389 	 -0.740356 	 74.9521
| 13> C 	 -19.6381 	 -1.35762 	 73.9592
| 14> H 	 -20.4094 	 -2.10144 	 74.2742
| 15> H 	 -18.9608 	 -1.55747 	 74.7897
| 16> C 	 -19.0736 	 -1.55387 	 72.5556
| 17> H 	 -18.1899 	 -0.922055 	 72.4474
| 18> H 	 -18.6688 	 -2.60003 	 72.4145
| 19> C 	 -20.1427 	 -1.38393 	 71.4971
| 20> H 	 -20.3414 	 -0.303969 	 71.4315
| 21> H 	 -19.9732 	 -1.78856 	 70.4886
| 22> H 	 -21.0587 	 -1.88563 	 71.812
| 23> S 	 -23.4494 	 3.57047 	 75.951
| 24> C 	 -25.2165 	 3.55014 	 75.6644
| 25> C 	 -25.6864 	 2.28841 	 75.4043
| 26> C 	 -24.6389 	 1.40489 	 74.9839
| 27> C 	 -23.3938 	 1.92454 	 75.2398
| 28> H 	 -26.697 	 2.00008 	 75.3703
| 29> C 	 -24.9436 	 -0.00293685 	 74.5158
| 30> H 	 -24.1027 	 -0.42292 	 73.88
| 31> H 	 -25.8027 	 0.195456 	 73.9046
| 32> C 	 -25.3496 	 -0.870509 	 75.7684
| 33> H 	 -25.9895 	 -0.27678 	 76.4098
| 34> H 	 -24.4329 	 -1.16917 	 76.3575
| 35> C 	 -26.1241 	 -2.15576 	 75.4874
| 36> H 	 -25.8064 	 -2.61245 	 74.5305
| 37> H 	 -27.1589 	 -1.91367 	 75.3632
| 38> H 	 -26.0782 	 -2.89604 	 76.3293
| 39> H 	 -18.4562 	 1.3904 	 74.2198
| 40> H 	 -25.8507 	 4.40071 	 76.0049
| 41> *
| 42>
| 43>                          ****END OF INPUT****

CARTESIAN COORDINATES (ANGSTROEM)
---------------------------------
  S    -20.726300    2.531270   74.608400
  C    -19.588100    1.223330   74.326400
  C    -20.226400   -0.005353   74.284500
  C    -21.573600    0.103253   74.763500
  C    -22.025100    1.411900   74.898200
  H    -22.138900   -0.740356   74.952100
  C    -19.638100   -1.357620   73.959200
  H    -20.409400   -2.101440   74.274200
  H    -18.960800   -1.557470   74.789700
  C    -19.073600   -1.553870   72.555600
  H    -18.189900   -0.922055   72.447400
  H    -18.668800   -2.600030   72.414500
  C    -20.142700   -1.383930   71.497100
  H    -20.341400   -0.303969   71.431500
  H    -19.973200   -1.788560   70.488600
  H    -21.058700   -1.885630   71.812000
  S    -23.449400    3.570470   75.951000
  C    -25.216500    3.550140   75.664400
  C    -25.686400    2.288410   75.404300
  C    -24.638900    1.404890   74.983900
  C    -23.393800    1.924540   75.239800
  H    -26.697000    2.000080   75.370300
  C    -24.943600   -0.002937   74.515800
  H    -24.102700   -0.422920   73.880000
  H    -25.802700    0.195456   73.904600
  C    -25.349600   -0.870509   75.768400
  H    -25.989500   -0.276780   76.409800
  H    -24.432900   -1.169170   76.357500
  C    -26.124100   -2.155760   75.487400
  H    -25.806400   -2.612450   74.530500
  H    -27.158900   -1.913670   75.363200
  H    -26.078200   -2.896040   76.329300
  H    -18.456200    1.390400   74.219800
  H    -25.850700    4.400710   76.004900

 Total Charge           Charge          ....    0
 Multiplicity           Mult            ....    1
 Number of Electrons    NEL             ....  134
 Basis Dimension        Dim             ....  322

ORBITAL ENERGIES
----------------

  NO   OCC          E(Eh)            E(eV)
   0   2.0000     -88.965327     -2420.8696
   1   2.0000     -88.965005     -2420.8609
   2   2.0000     -10.331618      -281.1376
   3   2.0000     -10.330224      -281.0997
   4   2.0000     -10.324704      -280.9495
   5   2.0000     -10.318248      -280.7738
   6   2.0000     -10.302014      -280.3321
   7   2.0000     -10.300897      -280.3017
   8   2.0000     -10.300346      -280.2867
   9   2.0000     -10.295558      -280.1564
  10   2.0000     -10.295249      -280.1480
  11   2.0000     -10.294415      -280.1253
  12   2.0000     -10.292625      -280.0766
  13   2.0000     -10.287944      -279.9492
  14   2.0000     -10.281831      -279.7829
  15   2.0000     -10.275884      -279.6210
  16   2.0000      -8.080017      -219.8684
  17   2.0000      -8.078771      -219.8345
  18   2.0000      -6.038620      -164.3192
  19   2.0000      -6.037411      -164.2863
  20   2.0000      -6.034473      -164.2064
  21   2.0000      -6.033762      -164.1870
  22   2.0000      -6.030729      -164.1045
  23   2.0000      -6.029103      -164.0602
  24   2.0000      -1.002646       -27.2834
  25   2.0000      -0.981730       -26.7142
  26   2.0000      -0.913809       -24.8660
  27   2.0000      -0.906833       -24.6762
  28   2.0000      -0.863261       -23.4905
  29   2.0000      -0.853413       -23.2225
  30   2.0000      -0.845321       -23.0023
  31   2.0000      -0.811712       -22.0878
  32   2.0000      -0.782252       -21.2862
  33   2.0000      -0.770709       -20.9721
  34   2.0000      -0.705309       -19.1924
  35   2.0000      -0.699669       -19.0390
  36   2.0000      -0.688400       -18.7323
  37   2.0000      -0.669754       -18.2249
  38   2.0000      -0.635495       -17.2927
  39   2.0000      -0.614478       -16.7208
  40   2.0000      -0.592444       -16.1212
  41   2.0000      -0.570788       -15.5319
  42   2.0000      -0.563139       -15.3238
  43   2.0000      -0.555773       -15.1234
  44   2.0000      -0.539233       -14.6733
  45   2.0000      -0.526965       -14.3394
  46   2.0000      -0.515725       -14.0336
  47   2.0000      -0.509242       -13.8572
  48   2.0000      -0.502648       -13.6777
  49   2.0000      -0.491258       -13.3678
  50   2.0000      -0.485416       -13.2089
  51   2.0000      -0.481981       -13.1154
  52   2.0000      -0.469124       -12.7655
  53   2.0000      -0.463220       -12.6049
  54   2.0000      -0.457330       -12.4446
  55   2.0000      -0.455169       -12.3858
  56   2.0000      -0.444719       -12.1014
  57   2.0000      -0.436021       -11.8647
  58   2.0000      -0.432446       -11.7675
  59   2.0000      -0.426069       -11.5939
  60   2.0000      -0.424039       -11.5387
  61   2.0000      -0.417192       -11.3524
  62   2.0000      -0.410460       -11.1692
  63   2.0000      -0.349910        -9.5215
  64   2.0000      -0.331191        -9.0122
  65   2.0000      -0.328904        -8.9499
  66   2.0000      -0.285543        -7.7700
  67   0.0000       0.022599         0.6149
  68   0.0000       0.080740         2.1971
  69   0.0000       0.087664         2.3854
  70   0.0000       0.116816         3.1787
  71   0.0000       0.127056         3.4574

MULLIKEN ATOMIC CHARGES
-----------------------
   0 S :    0.104554
   1 C :   -0.164643
   2 C :   -0.103715
   3 C :    0.023968
   4 C :   -0.100519
   5 H :   -0.024970
   6 C :    0.048275
   7 H :    0.013501
   8 H :    0.036302
   9 C :   -0.049491
  10 H :    0.032423
  11 H :    0.033254
  12 C :   -0.055002
  13 H :    0.048330
  14 H :    0.038352
  15 H :    0.021441
  16 S :    0.081058
  17 C :   -0.099307
  18 C :    0.001726
  19 C :   -0.095550
  20 C :   -0.116505
  21 H :    0.005994
  22 C :    0.058810
  23 H :    0.052082
  24 H :    0.018587
  25 C :   -0.088440
  26 H :    0.026513
  27 H :    0.044575
  28 C :   -0.046034
  29 H :    0.033241
  30 H :    0.023743
  31 H :    0.045260
  32 H :    0.078525
  33 H :    0.073666
Sum of atomic charges:    0.0000000

LOEWDIN ATOMIC CHARGES
----------------------
   0 S :    0.406655
   1 C :   -0.213660
   2 C :   -0.063831
   3 C :   -0.065319
   4 C :   -0.187409
   5 H :    0.013472
   6 C :   -0.041156
   7 H :    0.031922
   8 H :    0.037009
   9 C :   -0.043612
  10 H :    0.023995
  11 H :    0.030796
  12 C :   -0.069218
  13 H :    0.031433
  14 H :    0.027382
  15 H :    0.024584
  16 S :    0.356934
  17 C :   -0.166670
  18 C :   -0.060758
  19 C :   -0.055326
  20 C :   -0.178303
  21 H :    0.024111
  22 C :   -0.030535
  23 H :    0.039688
  24 H :    0.027158
  25 C :   -0.040285
  26 H :    0.023343
  27 H :    0.030798
  28 C :   -0.072056
  29 H :    0.026361
  30 H :    0.019558
  31 H :    0.033460
  32 H :    0.044427
  33 H :    0.035049

  Mayer bond orders larger than 0.100000
B(  0-S ,  1-C ) :   1.1359 B(  0-S ,  4-C ) :   1.1588 B(  1-C ,  2-C ) :   1.5954
B(  1-C , 32-H ) :   0.9602 B(  2-C ,  3-C ) :   1.2557 B(  2-C ,  6-C ) :   1.0078
B(  3-C ,  4-C ) :   1.5507 B(  3-C ,  5-H ) :   1.0015 B(  4-C , 20-C ) :   1.0389
B(  6-C ,  7-H ) :   0.9407 B(  6-C ,  8-H ) :   0.9351 B(  6-C ,  9-C ) :   1.0660
B(  9-C , 10-H ) :   0.9584 B(  9-C , 11-H ) :   0.9541 B(  9-C , 12-C ) :   1.0664
B( 12-C , 13-H ) :   0.9728 B( 12-C , 14-H ) :   0.9767 B( 12-C , 15-H ) :   0.9738
B( 16-S , 17-C ) :   1.1306 B( 16-S , 20-C ) :   1.1126 B( 17-C , 18-C ) :   1.6401
B( 17-C , 33-H ) :   0.9609 B( 18-C , 19-C ) :   1.2092 B( 18-C , 21-H ) :   0.9865
B( 19-C , 20-C ) :   1.6465 B( 19-C , 22-C ) :   1.0418 B( 22-C , 23-H ) :   0.9321
B( 22-C , 24-H ) :   0.9295 B( 22-C , 25-C ) :   1.0527 B( 25-C , 26-H ) :   0.9602
B( 25-C , 27-H ) :   0.9585 B( 25-C , 28-C ) :   1.0724 B( 28-C , 29-H ) :   0.9744
B( 28-C , 30-H ) :   0.9771 B( 28-C , 31-H ) :   0.9747

Dispersion correction           -0.014358358
FINAL SINGLE POINT ENERGY     -1339.873852234275

DIPOLE MOMENT
-------------
                                X             Y             Z
Electronic contribution:      3.84594      27.81651       8.86815
Nuclear contribution   :     -4.13803     -28.51059      -8.92641
                        -----------------------------------------
Total Dipole Moment    :     -0.29209      -0.69408      -0.05826
                        -----------------------------------------
Magnitude (a.u.)       :      0.75529
Magnitude (Debye)      :      1.91979

Rotational constants in cm-1:     0.017535     0.009339     0.006582
Rotational constants in MHz :   525.691560   279.973924   197.337781

                             ****ORCA TERMINATED NORMALLY****
TOTAL RUN TIME: 0 days 0 hours 0 minutes 34 seconds 771 msec
