                         Program Version 4.2.1 -  RELEASE  -
|  1> ! wB97X-D3 SP def2-SVP
|  2> %pal
|  3> nprocs 16
|  4> end
|  5>
|  6> * xyz 0 1
|  7> S 	 -79.0902 	 44.1994 	 140.914
|  8> C 	 -79.4899 	 42.4696 	 141.091
|  9> C 	 -79.6833 	 41.8851 	 139.796
| 10> C 	 -79.4182 	 42.8202 	 138.766
| 11> C 	 -79.0954 	 44.1052 	 139.187
| 12> H 	 -79.437 	 42.5479 	 137.755
| 13> C 	 -79.8864 	 40.4013 	 139.441
| 14> H 	 -79.8803 	 40.1669 	 138.405
| 15> H 	 -80.8909 	 40.1148 	 139.787
| 16> C 	 -78.7971 	 39.4355 	 139.969
| 17> H 	 -78.8174 	 39.4981 	 141.026
| 18> H 	 -78.9701 	 38.4068 	 139.834
| 19> C 	 -77.3614 	 39.759 	 139.505
| 20> H 	 -77.3279 	 39.7018 	 138.401
| 21> H 	 -76.9076 	 40.7374 	 139.69
| 22> H 	 -76.6264 	 39.0594 	 139.893
| 23> S 	 -79.8976 	 46.6738 	 138.506
| 24> C 	 -79.0061 	 47.5054 	 137.259
| 25> C 	 -78.0852 	 46.7273 	 136.658
| 26> C 	 -77.9766 	 45.3761 	 137.247
| 27> C 	 -78.7613 	 45.2817 	 138.385
| 28> H 	 -77.4611 	 47.1031 	 135.898
| 29> C 	 -77.0263 	 44.24 	 136.745
| 30> H 	 -76.8791 	 43.2751 	 137.355
| 31> H 	 -76.0879 	 44.8351 	 136.93
| 32> C 	 -77.3411 	 43.9131 	 135.253
| 33> H 	 -78.3751 	 43.6134 	 135.027
| 34> H 	 -76.8707 	 43.0798 	 134.913
| 35> C 	 -76.8399 	 44.9193 	 134.17
| 36> H 	 -76.8209 	 44.4478 	 133.192
| 37> H 	 -75.9539 	 45.4352 	 134.372
| 38> H 	 -77.634 	 45.737 	 134.095
| 39> H 	 -79.6046 	 41.9514 	 141.97
| 40> H 	 -79.2453 	 48.4618 	 137.095
| 41> *
| 42>
| 43>                          ****END OF INPUT****

CARTESIAN COORDINATES (ANGSTROEM)
---------------------------------
  S    -79.090200   44.199400  140.914000
  C    -79.489900   42.469600  141.091000
  C    -79.683300   41.885100  139.796000
  C    -79.418200   42.820200  138.766000
  C    -79.095400   44.105200  139.187000
  H    -79.437000   42.547900  137.755000
  C    -79.886400   40.401300  139.441000
  H    -79.880300   40.166900  138.405000
  H    -80.890900   40.114800  139.787000
  C    -78.797100   39.435500  139.969000
  H    -78.817400   39.498100  141.026000
  H    -78.970100   38.406800  139.834000
  C    -77.361400   39.759000  139.505000
  H    -77.327900   39.701800  138.401000
  H    -76.907600   40.737400  139.690000
  H    -76.626400   39.059400  139.893000
  S    -79.897600   46.673800  138.506000
  C    -79.006100   47.505400  137.259000
  C    -78.085200   46.727300  136.658000
  C    -77.976600   45.376100  137.247000
  C    -78.761300   45.281700  138.385000
  H    -77.461100   47.103100  135.898000
  C    -77.026300   44.240000  136.745000
  H    -76.879100   43.275100  137.355000
  H    -76.087900   44.835100  136.930000
  C    -77.341100   43.913100  135.253000
  H    -78.375100   43.613400  135.027000
  H    -76.870700   43.079800  134.913000
  C    -76.839900   44.919300  134.170000
  H    -76.820900   44.447800  133.192000
  H    -75.953900   45.435200  134.372000
  H    -77.634000   45.737000  134.095000
  H    -79.604600   41.951400  141.970000
  H    -79.245300   48.461800  137.095000

 Total Charge           Charge          ....    0
 Multiplicity           Mult            ....    1
 Number of Electrons    NEL             ....  134
 Basis Dimension        Dim             ....  322

ORBITAL ENERGIES
----------------

  NO   OCC          E(Eh)            E(eV)
   0   2.0000     -88.968414     -2420.9536
   1   2.0000     -88.957928     -2420.6683
   2   2.0000     -10.326165      -280.9892
   3   2.0000     -10.325361      -280.9674
   4   2.0000     -10.315980      -280.7121
   5   2.0000     -10.313617      -280.6478
   6   2.0000     -10.312094      -280.6063
   7   2.0000     -10.308931      -280.5203
   8   2.0000     -10.306433      -280.4523
   9   2.0000     -10.295447      -280.1533
  10   2.0000     -10.294641      -280.1314
  11   2.0000     -10.287153      -279.9277
  12   2.0000     -10.286419      -279.9077
  13   2.0000     -10.282521      -279.8016
  14   2.0000     -10.280825      -279.7555
  15   2.0000     -10.277373      -279.6615
  16   2.0000      -8.082524      -219.9366
  17   2.0000      -8.072796      -219.6719
  18   2.0000      -6.040961      -164.3829
  19   2.0000      -6.036981      -164.2746
  20   2.0000      -6.033541      -164.1810
  21   2.0000      -6.031360      -164.1217
  22   2.0000      -6.027479      -164.0160
  23   2.0000      -6.023290      -163.9020
  24   2.0000      -1.000308       -27.2198
  25   2.0000      -0.977827       -26.6080
  26   2.0000      -0.909054       -24.7366
  27   2.0000      -0.903590       -24.5879
  28   2.0000      -0.866468       -23.5778
  29   2.0000      -0.848889       -23.0994
  30   2.0000      -0.841141       -22.8886
  31   2.0000      -0.811459       -22.0809
  32   2.0000      -0.786029       -21.3889
  33   2.0000      -0.775197       -21.0942
  34   2.0000      -0.711920       -19.3723
  35   2.0000      -0.709879       -19.3168
  36   2.0000      -0.697581       -18.9821
  37   2.0000      -0.664588       -18.0844
  38   2.0000      -0.644008       -17.5243
  39   2.0000      -0.615501       -16.7486
  40   2.0000      -0.599377       -16.3099
  41   2.0000      -0.574081       -15.6215
  42   2.0000      -0.552872       -15.0444
  43   2.0000      -0.549253       -14.9459
  44   2.0000      -0.546315       -14.8660
  45   2.0000      -0.537915       -14.6374
  46   2.0000      -0.516034       -14.0420
  47   2.0000      -0.506118       -13.7722
  48   2.0000      -0.500865       -13.6292
  49   2.0000      -0.497133       -13.5277
  50   2.0000      -0.489887       -13.3305
  51   2.0000      -0.481363       -13.0985
  52   2.0000      -0.471536       -12.8311
  53   2.0000      -0.465331       -12.6623
  54   2.0000      -0.461461       -12.5570
  55   2.0000      -0.452723       -12.3192
  56   2.0000      -0.442330       -12.0364
  57   2.0000      -0.436993       -11.8912
  58   2.0000      -0.433560       -11.7978
  59   2.0000      -0.427537       -11.6339
  60   2.0000      -0.415575       -11.3084
  61   2.0000      -0.411275       -11.1913
  62   2.0000      -0.404888       -11.0176
  63   2.0000      -0.342102        -9.3091
  64   2.0000      -0.332149        -9.0382
  65   2.0000      -0.324488        -8.8298
  66   2.0000      -0.294062        -8.0018
  67   0.0000       0.031296         0.8516
  68   0.0000       0.066867         1.8195
  69   0.0000       0.109937         2.9915
  70   0.0000       0.116317         3.1652
  71   0.0000       0.127883         3.4799

MULLIKEN ATOMIC CHARGES
-----------------------
   0 S :    0.119808
   1 C :   -0.092153
   2 C :   -0.089751
   3 C :    0.048740
   4 C :   -0.162265
   5 H :   -0.016199
   6 C :    0.072521
   7 H :    0.014324
   8 H :    0.036893
   9 C :   -0.032351
  10 H :    0.008490
  11 H :    0.018293
  12 C :   -0.077451
  13 H :    0.017452
  14 H :    0.042857
  15 H :    0.032985
  16 S :    0.076524
  17 C :   -0.031276
  18 C :   -0.003616
  19 C :   -0.030607
  20 C :   -0.133675
  21 H :    0.005149
  22 C :    0.000239
  23 H :    0.064623
  24 H :    0.055476
  25 C :   -0.028909
  26 H :    0.031983
  27 H :   -0.000594
  28 C :   -0.075409
  29 H :    0.035963
  30 H :    0.027225
  31 H :    0.035549
  32 H :    0.018294
  33 H :    0.010870
Sum of atomic charges:   -0.0000000

LOEWDIN ATOMIC CHARGES
----------------------
   0 S :    0.418599
   1 C :   -0.181439
   2 C :   -0.052375
   3 C :   -0.059368
   4 C :   -0.204143
   5 H :    0.020694
   6 C :   -0.026141
   7 H :    0.023494
   8 H :    0.035390
   9 C :   -0.035527
  10 H :    0.015259
  11 H :    0.021480
  12 C :   -0.071572
  13 H :    0.021841
  14 H :    0.027651
  15 H :    0.026851
  16 S :    0.371833
  17 C :   -0.149699
  18 C :   -0.065307
  19 C :   -0.041428
  20 C :   -0.192825
  21 H :    0.024195
  22 C :   -0.037739
  23 H :    0.046400
  24 H :    0.043960
  25 C :   -0.041888
  26 H :    0.031899
  27 H :    0.010842
  28 C :   -0.062856
  29 H :    0.027614
  30 H :    0.014340
  31 H :    0.028524
  32 H :    0.009068
  33 H :    0.002372

  Mayer bond orders larger than 0.100000
B(  0-S ,  1-C ) :   1.1530 B(  0-S ,  4-C ) :   1.1720 B(  1-C ,  2-C ) :   1.5585
B(  1-C ,  4-C ) :   0.1135 B(  1-C , 32-H ) :   0.9838 B(  2-C ,  3-C ) :   1.2803
B(  2-C ,  6-C ) :   1.0137 B(  3-C ,  4-C ) :   1.5370 B(  3-C ,  5-H ) :   1.0080
B(  4-C , 20-C ) :   1.0126 B(  6-C ,  7-H ) :   0.9549 B(  6-C ,  8-H ) :   0.9359
B(  6-C ,  9-C ) :   1.0698 B(  9-C , 10-H ) :   0.9540 B(  9-C , 11-H ) :   0.9554
B(  9-C , 12-C ) :   1.0694 B( 12-C , 13-H ) :   0.9762 B( 12-C , 14-H ) :   0.9762
B( 12-C , 15-H ) :   0.9741 B( 16-S , 17-C ) :   1.1439 B( 16-S , 20-C ) :   1.1169
B( 17-C , 18-C ) :   1.6338 B( 17-C , 33-H ) :   0.9860 B( 18-C , 19-C ) :   1.1802
B( 18-C , 21-H ) :   0.9964 B( 19-C , 20-C ) :   1.6637 B( 19-C , 22-C ) :   0.9956
B( 22-C , 23-H ) :   0.9504 B( 22-C , 24-H ) :   0.9493 B( 22-C , 25-C ) :   1.0476
B( 25-C , 26-H ) :   0.9553 B( 25-C , 27-H ) :   0.9594 B( 25-C , 28-C ) :   1.0709
B( 28-C , 29-H ) :   0.9739 B( 28-C , 30-H ) :   0.9777 B( 28-C , 31-H ) :   0.9734

Dispersion correction           -0.015080266
FINAL SINGLE POINT ENERGY     -1339.842626319859

DIPOLE MOMENT
-------------
                                X             Y             Z
Electronic contribution:    -11.83648      20.71155      15.38951
Nuclear contribution   :     12.16984     -21.23324     -15.93445
                        -----------------------------------------
Total Dipole Moment    :      0.33337      -0.52169      -0.54494
                        -----------------------------------------
Magnitude (a.u.)       :      0.82478
Magnitude (Debye)      :      2.09641

Rotational constants in cm-1:     0.019017     0.009137     0.006670
Rotational constants in MHz :   570.115443   273.927691   199.971640

                             ****ORCA TERMINATED NORMALLY****
TOTAL RUN TIME: 0 days 0 hours 0 minutes 35 seconds 775 msec
