                         Program Version 4.2.1 -  RELEASE  -
|  1> ! wB97X-D3 SP def2-SVP
|  2> %pal
|  3> nprocs 16
|  4> end
|  5>
|  6> * xyz 0 1
|  7> S 	 38.335 	 8.44456 	 90.9142
|  8> C 	 39.8748 	 7.98449 	 90.1521
|  9> C 	 39.6322 	 7.3282 	 88.9324
| 10> C 	 38.2521 	 7.08802 	 88.6866
| 11> C 	 37.3657 	 7.64696 	 89.6468
| 12> H 	 37.8395 	 6.61018 	 87.7917
| 13> C 	 40.5739 	 6.83115 	 87.8559
| 14> H 	 40.0358 	 6.07781 	 87.2877
| 15> H 	 41.4206 	 6.31437 	 88.3672
| 16> C 	 41.1935 	 7.97269 	 87.0587
| 17> H 	 41.6663 	 8.69015 	 87.6107
| 18> H 	 42.0777 	 7.66184 	 86.5669
| 19> C 	 40.2343 	 8.72142 	 86.2565
| 20> H 	 39.3801 	 9.21901 	 86.7586
| 21> H 	 40.7644 	 9.41152 	 85.6576
| 22> H 	 39.892 	 7.98578 	 85.5138
| 23> S 	 35.009 	 6.53189 	 90.6105
| 24> C 	 33.5412 	 7.34631 	 89.9996
| 25> C 	 33.7497 	 8.37123 	 89.087
| 26> C 	 35.1251 	 8.57219 	 88.88
| 27> C 	 35.907 	 7.70213 	 89.591
| 28> H 	 32.9828 	 9.00558 	 88.6782
| 29> C 	 35.6679 	 9.70143 	 88.0145
| 30> H 	 36.5473 	 10.1864 	 88.5471
| 31> H 	 34.9879 	 10.5526 	 87.9518
| 32> C 	 36.1155 	 9.19801 	 86.5843
| 33> H 	 36.7587 	 8.36046 	 86.7077
| 34> H 	 36.8887 	 9.91397 	 86.2518
| 35> C 	 35.0223 	 8.99322 	 85.5329
| 36> H 	 35.5074 	 9.05776 	 84.5244
| 37> H 	 34.1971 	 9.72072 	 85.4327
| 38> H 	 34.629 	 7.95011 	 85.5008
| 39> H 	 40.9349 	 8.17114 	 90.4438
| 40> H 	 32.5466 	 7.15637 	 90.2709
| 41> *
| 42>
| 43>                          ****END OF INPUT****

CARTESIAN COORDINATES (ANGSTROEM)
---------------------------------
  S     38.335000    8.444560   90.914200
  C     39.874800    7.984490   90.152100
  C     39.632200    7.328200   88.932400
  C     38.252100    7.088020   88.686600
  C     37.365700    7.646960   89.646800
  H     37.839500    6.610180   87.791700
  C     40.573900    6.831150   87.855900
  H     40.035800    6.077810   87.287700
  H     41.420600    6.314370   88.367200
  C     41.193500    7.972690   87.058700
  H     41.666300    8.690150   87.610700
  H     42.077700    7.661840   86.566900
  C     40.234300    8.721420   86.256500
  H     39.380100    9.219010   86.758600
  H     40.764400    9.411520   85.657600
  H     39.892000    7.985780   85.513800
  S     35.009000    6.531890   90.610500
  C     33.541200    7.346310   89.999600
  C     33.749700    8.371230   89.087000
  C     35.125100    8.572190   88.880000
  C     35.907000    7.702130   89.591000
  H     32.982800    9.005580   88.678200
  C     35.667900    9.701430   88.014500
  H     36.547300   10.186400   88.547100
  H     34.987900   10.552600   87.951800
  C     36.115500    9.198010   86.584300
  H     36.758700    8.360460   86.707700
  H     36.888700    9.913970   86.251800
  C     35.022300    8.993220   85.532900
  H     35.507400    9.057760   84.524400
  H     34.197100    9.720720   85.432700
  H     34.629000    7.950110   85.500800
  H     40.934900    8.171140   90.443800
  H     32.546600    7.156370   90.270900

 Total Charge           Charge          ....    0
 Multiplicity           Mult            ....    1
 Number of Electrons    NEL             ....  134
 Basis Dimension        Dim             ....  322

ORBITAL ENERGIES
----------------

  NO   OCC          E(Eh)            E(eV)
   0   2.0000     -88.970774     -2421.0178
   1   2.0000     -88.970150     -2421.0009
   2   2.0000     -10.331561      -281.1361
   3   2.0000     -10.323311      -280.9116
   4   2.0000     -10.321622      -280.8656
   5   2.0000     -10.316998      -280.7398
   6   2.0000     -10.299677      -280.2684
   7   2.0000     -10.299234      -280.2564
   8   2.0000     -10.296650      -280.1861
   9   2.0000     -10.295282      -280.1489
  10   2.0000     -10.293043      -280.0879
  11   2.0000     -10.291263      -280.0395
  12   2.0000     -10.287939      -279.9491
  13   2.0000     -10.285126      -279.8725
  14   2.0000     -10.270141      -279.4648
  15   2.0000     -10.269499      -279.4473
  16   2.0000      -8.084087      -219.9792
  17   2.0000      -8.083041      -219.9507
  18   2.0000      -6.042542      -164.4259
  19   2.0000      -6.041719      -164.4035
  20   2.0000      -6.039080      -164.3317
  21   2.0000      -6.037593      -164.2913
  22   2.0000      -6.034689      -164.2122
  23   2.0000      -6.033935      -164.1917
  24   2.0000      -0.997803       -27.1516
  25   2.0000      -0.975575       -26.5467
  26   2.0000      -0.921165       -25.0662
  27   2.0000      -0.898843       -24.4588
  28   2.0000      -0.866524       -23.5793
  29   2.0000      -0.849423       -23.1140
  30   2.0000      -0.847236       -23.0545
  31   2.0000      -0.808281       -21.9944
  32   2.0000      -0.783099       -21.3092
  33   2.0000      -0.770102       -20.9555
  34   2.0000      -0.711835       -19.3700
  35   2.0000      -0.707608       -19.2550
  36   2.0000      -0.691432       -18.8148
  37   2.0000      -0.664547       -18.0833
  38   2.0000      -0.633458       -17.2373
  39   2.0000      -0.607329       -16.5263
  40   2.0000      -0.593766       -16.1572
  41   2.0000      -0.572219       -15.5709
  42   2.0000      -0.561788       -15.2870
  43   2.0000      -0.544206       -14.8086
  44   2.0000      -0.539198       -14.6723
  45   2.0000      -0.532452       -14.4888
  46   2.0000      -0.513391       -13.9701
  47   2.0000      -0.512058       -13.9338
  48   2.0000      -0.495954       -13.4956
  49   2.0000      -0.491818       -13.3830
  50   2.0000      -0.490443       -13.3456
  51   2.0000      -0.476876       -12.9765
  52   2.0000      -0.475289       -12.9333
  53   2.0000      -0.465734       -12.6733
  54   2.0000      -0.461638       -12.5618
  55   2.0000      -0.449624       -12.2349
  56   2.0000      -0.436422       -11.8756
  57   2.0000      -0.432138       -11.7591
  58   2.0000      -0.430443       -11.7129
  59   2.0000      -0.428601       -11.6628
  60   2.0000      -0.427325       -11.6281
  61   2.0000      -0.406660       -11.0658
  62   2.0000      -0.404608       -11.0099
  63   2.0000      -0.338721        -9.2171
  64   2.0000      -0.329905        -8.9772
  65   2.0000      -0.314924        -8.5695
  66   2.0000      -0.305392        -8.3101
  67   0.0000       0.036258         0.9866
  68   0.0000       0.048871         1.3298
  69   0.0000       0.103751         2.8232
  70   0.0000       0.118514         3.2249
  71   0.0000       0.124783         3.3955

MULLIKEN ATOMIC CHARGES
-----------------------
   0 S :    0.119511
   1 C :   -0.124363
   2 C :   -0.115929
   3 C :    0.032141
   4 C :   -0.183584
   5 H :    0.031881
   6 C :    0.065225
   7 H :    0.027555
   8 H :    0.028766
   9 C :    0.002704
  10 H :   -0.014088
  11 H :    0.004097
  12 C :   -0.037601
  13 H :    0.059239
  14 H :    0.013466
  15 H :    0.012303
  16 S :    0.122377
  17 C :   -0.053850
  18 C :   -0.039816
  19 C :    0.015900
  20 C :   -0.208356
  21 H :    0.015930
  22 C :    0.041964
  23 H :    0.038385
  24 H :    0.020334
  25 C :   -0.043607
  26 H :    0.000519
  27 H :    0.028229
  28 C :   -0.056469
  29 H :    0.028846
  30 H :    0.037964
  31 H :    0.043596
  32 H :    0.057782
  33 H :    0.028947
Sum of atomic charges:    0.0000000

LOEWDIN ATOMIC CHARGES
----------------------
   0 S :    0.394955
   1 C :   -0.207269
   2 C :   -0.066582
   3 C :   -0.064478
   4 C :   -0.193042
   5 H :    0.031719
   6 C :   -0.025414
   7 H :    0.029202
   8 H :    0.036158
   9 C :   -0.044700
  10 H :    0.014801
  11 H :    0.023582
  12 C :   -0.061561
  13 H :    0.032728
  14 H :    0.021727
  15 H :    0.024140
  16 S :    0.382715
  17 C :   -0.158264
  18 C :   -0.065556
  19 C :   -0.048458
  20 C :   -0.198720
  21 H :    0.033174
  22 C :   -0.031954
  23 H :    0.039861
  24 H :    0.026092
  25 C :   -0.040841
  26 H :    0.019186
  27 H :    0.026918
  28 C :   -0.079626
  29 H :    0.033950
  30 H :    0.026956
  31 H :    0.032130
  32 H :    0.040602
  33 H :    0.015865

  Mayer bond orders larger than 0.100000
B(  0-S ,  1-C ) :   1.1380 B(  0-S ,  4-C ) :   1.1514 B(  1-C ,  2-C ) :   1.5976
B(  1-C ,  4-C ) :   0.1106 B(  1-C , 32-H ) :   0.9601 B(  2-C ,  3-C ) :   1.2627
B(  2-C ,  6-C ) :   1.0147 B(  3-C ,  4-C ) :   1.5596 B(  3-C ,  5-H ) :   0.9779
B(  4-C , 20-C ) :   1.0284 B(  6-C ,  7-H ) :   0.9525 B(  6-C ,  8-H ) :   0.9313
B(  6-C ,  9-C ) :   1.0735 B(  9-C , 10-H ) :   0.9400 B(  9-C , 11-H ) :   0.9426
B(  9-C , 12-C ) :   1.0856 B( 12-C , 13-H ) :   0.9696 B( 12-C , 14-H ) :   0.9640
B( 12-C , 15-H ) :   0.9728 B( 16-S , 17-C ) :   1.1434 B( 16-S , 20-C ) :   1.1210
B( 17-C , 18-C ) :   1.6319 B( 17-C , 33-H ) :   0.9674 B( 18-C , 19-C ) :   1.2358
B( 18-C , 21-H ) :   0.9869 B( 19-C , 20-C ) :   1.6352 B( 19-C , 22-C ) :   1.0348
B( 22-C , 23-H ) :   0.9293 B( 22-C , 24-H ) :   0.9455 B( 22-C , 25-C ) :   1.0679
B( 25-C , 26-H ) :   0.9490 B( 25-C , 27-H ) :   0.9536 B( 25-C , 28-C ) :   1.0668
B( 28-C , 29-H ) :   0.9710 B( 28-C , 30-H ) :   0.9770 B( 28-C , 31-H ) :   0.9747

Dispersion correction           -0.016429693
FINAL SINGLE POINT ENERGY     -1339.856084960872

DIPOLE MOMENT
-------------
                                X             Y             Z
Electronic contribution:     -9.15552      -7.80713      27.15408
Nuclear contribution   :      9.36270       8.06182     -27.82177
                        -----------------------------------------
Total Dipole Moment    :      0.20718       0.25469      -0.66769
                        -----------------------------------------
Magnitude (a.u.)       :      0.74405
Magnitude (Debye)      :      1.89121

Rotational constants in cm-1:     0.018808     0.010193     0.007537
Rotational constants in MHz :   563.853380   305.563919   225.954719

                             ****ORCA TERMINATED NORMALLY****
TOTAL RUN TIME: 0 days 0 hours 0 minutes 32 seconds 529 msec
