                         Program Version 4.2.1 -  RELEASE  -
|  1> ! wB97X-D3 SP def2-SVP
|  2> %pal
|  3> nprocs 16
|  4> end
|  5>
|  6> * xyz 0 1
|  7> S 	 -29.8332 	 55.4934 	 111.06
|  8> C 	 -30.7896 	 54.8629 	 112.377
|  9> C 	 -30.4739 	 55.4321 	 113.595
| 10> C 	 -29.6467 	 56.6124 	 113.423
| 11> C 	 -29.3587 	 56.8874 	 112.091
| 12> H 	 -29.4019 	 57.3121 	 114.222
| 13> C 	 -30.92 	 55.0015 	 114.931
| 14> H 	 -30.1521 	 55.2162 	 115.703
| 15> H 	 -31.0027 	 53.9077 	 114.899
| 16> C 	 -32.2589 	 55.7262 	 115.4
| 17> H 	 -33.0876 	 55.4752 	 114.704
| 18> H 	 -32.5322 	 55.3396 	 116.356
| 19> C 	 -32.1924 	 57.2733 	 115.553
| 20> H 	 -31.4998 	 57.6059 	 116.319
| 21> H 	 -32.1123 	 57.7168 	 114.573
| 22> H 	 -33.0699 	 57.7127 	 115.934
| 23> S 	 -26.9899 	 58.0282 	 111.308
| 24> C 	 -26.9298 	 59.6683 	 110.762
| 25> C 	 -28.2058 	 60.2467 	 110.867
| 26> C 	 -29.179 	 59.3198 	 111.373
| 27> C 	 -28.699 	 58.0398 	 111.611
| 28> H 	 -28.3668 	 61.1724 	 110.497
| 29> C 	 -30.6654 	 59.6093 	 111.462
| 30> H 	 -31.222 	 58.8322 	 111.906
| 31> H 	 -30.9514 	 59.6975 	 110.431
| 32> C 	 -31.0165 	 60.9077 	 112.19
| 33> H 	 -31.9554 	 61.2097 	 111.966
| 34> H 	 -30.357 	 61.7221 	 111.72
| 35> C 	 -30.6799 	 60.9073 	 113.714
| 36> H 	 -31.4145 	 60.3114 	 114.275
| 37> H 	 -30.686 	 61.8961 	 114.159
| 38> H 	 -29.6665 	 60.46 	 113.856
| 39> H 	 -31.5091 	 54.0366 	 112.253
| 40> H 	 -26.0613 	 60.1195 	 110.411
| 41> *
| 42>
| 43>                          ****END OF INPUT****

CARTESIAN COORDINATES (ANGSTROEM)
---------------------------------
  S    -29.833200   55.493400  111.060000
  C    -30.789600   54.862900  112.377000
  C    -30.473900   55.432100  113.595000
  C    -29.646700   56.612400  113.423000
  C    -29.358700   56.887400  112.091000
  H    -29.401900   57.312100  114.222000
  C    -30.920000   55.001500  114.931000
  H    -30.152100   55.216200  115.703000
  H    -31.002700   53.907700  114.899000
  C    -32.258900   55.726200  115.400000
  H    -33.087600   55.475200  114.704000
  H    -32.532200   55.339600  116.356000
  C    -32.192400   57.273300  115.553000
  H    -31.499800   57.605900  116.319000
  H    -32.112300   57.716800  114.573000
  H    -33.069900   57.712700  115.934000
  S    -26.989900   58.028200  111.308000
  C    -26.929800   59.668300  110.762000
  C    -28.205800   60.246700  110.867000
  C    -29.179000   59.319800  111.373000
  C    -28.699000   58.039800  111.611000
  H    -28.366800   61.172400  110.497000
  C    -30.665400   59.609300  111.462000
  H    -31.222000   58.832200  111.906000
  H    -30.951400   59.697500  110.431000
  C    -31.016500   60.907700  112.190000
  H    -31.955400   61.209700  111.966000
  H    -30.357000   61.722100  111.720000
  C    -30.679900   60.907300  113.714000
  H    -31.414500   60.311400  114.275000
  H    -30.686000   61.896100  114.159000
  H    -29.666500   60.460000  113.856000
  H    -31.509100   54.036600  112.253000
  H    -26.061300   60.119500  110.411000

 Total Charge           Charge          ....    0
 Multiplicity           Mult            ....    1
 Number of Electrons    NEL             ....  134
 Basis Dimension        Dim             ....  322

ORBITAL ENERGIES
----------------

  NO   OCC          E(Eh)            E(eV)
   0   2.0000     -88.964833     -2420.8562
   1   2.0000     -88.960408     -2420.7358
   2   2.0000     -10.327059      -281.0136
   3   2.0000     -10.316459      -280.7251
   4   2.0000     -10.315927      -280.7107
   5   2.0000     -10.315022      -280.6860
   6   2.0000     -10.301529      -280.3189
   7   2.0000     -10.299543      -280.2648
   8   2.0000     -10.297328      -280.2045
   9   2.0000     -10.296980      -280.1951
  10   2.0000     -10.293313      -280.0953
  11   2.0000     -10.289607      -279.9944
  12   2.0000     -10.281651      -279.7780
  13   2.0000     -10.280539      -279.7477
  14   2.0000     -10.278224      -279.6847
  15   2.0000     -10.275136      -279.6007
  16   2.0000      -8.079070      -219.8427
  17   2.0000      -8.075892      -219.7562
  18   2.0000      -6.037638      -164.2925
  19   2.0000      -6.034278      -164.2010
  20   2.0000      -6.033863      -164.1898
  21   2.0000      -6.030090      -164.0871
  22   2.0000      -6.029585      -164.0734
  23   2.0000      -6.026946      -164.0015
  24   2.0000      -1.005163       -27.3519
  25   2.0000      -0.981227       -26.7006
  26   2.0000      -0.907445       -24.6928
  27   2.0000      -0.907076       -24.6828
  28   2.0000      -0.872069       -23.7302
  29   2.0000      -0.845794       -23.0152
  30   2.0000      -0.841453       -22.8971
  31   2.0000      -0.815076       -22.1793
  32   2.0000      -0.783427       -21.3181
  33   2.0000      -0.772192       -21.0124
  34   2.0000      -0.707486       -19.2517
  35   2.0000      -0.705021       -19.1846
  36   2.0000      -0.700908       -19.0727
  37   2.0000      -0.660596       -17.9757
  38   2.0000      -0.639231       -17.3944
  39   2.0000      -0.614555       -16.7229
  40   2.0000      -0.599130       -16.3031
  41   2.0000      -0.576315       -15.6823
  42   2.0000      -0.557239       -15.1632
  43   2.0000      -0.549621       -14.9559
  44   2.0000      -0.543776       -14.7969
  45   2.0000      -0.535355       -14.5677
  46   2.0000      -0.520211       -14.1557
  47   2.0000      -0.508990       -13.8503
  48   2.0000      -0.502744       -13.6804
  49   2.0000      -0.498912       -13.5761
  50   2.0000      -0.486264       -13.2319
  51   2.0000      -0.478246       -13.0137
  52   2.0000      -0.473750       -12.8914
  53   2.0000      -0.465390       -12.6639
  54   2.0000      -0.454194       -12.3593
  55   2.0000      -0.446310       -12.1447
  56   2.0000      -0.444457       -12.0943
  57   2.0000      -0.443248       -12.0614
  58   2.0000      -0.436652       -11.8819
  59   2.0000      -0.426631       -11.6092
  60   2.0000      -0.418621       -11.3912
  61   2.0000      -0.412620       -11.2279
  62   2.0000      -0.409134       -11.1331
  63   2.0000      -0.333171        -9.0660
  64   2.0000      -0.325882        -8.8677
  65   2.0000      -0.321158        -8.7392
  66   2.0000      -0.302112        -8.2209
  67   0.0000       0.040551         1.1035
  68   0.0000       0.050796         1.3822
  69   0.0000       0.105571         2.8727
  70   0.0000       0.120687         3.2841
  71   0.0000       0.134629         3.6634

MULLIKEN ATOMIC CHARGES
-----------------------
   0 S :    0.113211
   1 C :   -0.132749
   2 C :   -0.087055
   3 C :    0.053778
   4 C :   -0.194097
   5 H :    0.023969
   6 C :    0.054950
   7 H :    0.033828
   8 H :    0.031318
   9 C :   -0.059147
  10 H :    0.030366
  11 H :    0.021600
  12 C :   -0.052610
  13 H :    0.029941
  14 H :    0.047810
  15 H :    0.014036
  16 S :    0.111203
  17 C :   -0.076650
  18 C :    0.001331
  19 C :   -0.038214
  20 C :   -0.170343
  21 H :   -0.019835
  22 C :    0.105840
  23 H :    0.021433
  24 H :    0.032963
  25 C :   -0.059512
  26 H :    0.000703
  27 H :    0.019154
  28 C :   -0.062000
  29 H :    0.029460
  30 H :    0.034893
  31 H :    0.046514
  32 H :    0.054624
  33 H :    0.039286
Sum of atomic charges:   -0.0000000

LOEWDIN ATOMIC CHARGES
----------------------
   0 S :    0.383363
   1 C :   -0.195482
   2 C :   -0.070342
   3 C :   -0.042143
   4 C :   -0.188123
   5 H :    0.035101
   6 C :   -0.036485
   7 H :    0.036095
   8 H :    0.033781
   9 C :   -0.029698
  10 H :    0.026166
  11 H :    0.016684
  12 C :   -0.069581
  13 H :    0.026400
  14 H :    0.025602
  15 H :    0.022898
  16 S :    0.422807
  17 C :   -0.173345
  18 C :   -0.061698
  19 C :   -0.046224
  20 C :   -0.221512
  21 H :    0.011170
  22 C :   -0.022467
  23 H :    0.023012
  24 H :    0.035844
  25 C :   -0.033425
  26 H :    0.005492
  27 H :    0.026467
  28 C :   -0.068072
  29 H :    0.022514
  30 H :    0.024996
  31 H :    0.031775
  32 H :    0.031667
  33 H :    0.016762

  Mayer bond orders larger than 0.100000
B(  0-S ,  1-C ) :   1.1393 B(  0-S ,  4-C ) :   1.1136 B(  1-C ,  2-C ) :   1.6267
B(  1-C , 32-H ) :   0.9643 B(  2-C ,  3-C ) :   1.2052 B(  2-C ,  6-C ) :   1.0362
B(  3-C ,  4-C ) :   1.6060 B(  3-C ,  5-H ) :   0.9907 B(  4-C , 20-C ) :   1.0570
B(  6-C ,  7-H ) :   0.9426 B(  6-C ,  8-H ) :   0.9390 B(  6-C ,  9-C ) :   1.0565
B(  9-C , 10-H ) :   0.9584 B(  9-C , 11-H ) :   0.9585 B(  9-C , 12-C ) :   1.0870
B( 12-C , 13-H ) :   0.9721 B( 12-C , 14-H ) :   0.9691 B( 12-C , 15-H ) :   0.9666
B( 16-S , 17-C ) :   1.1864 B( 16-S , 20-C ) :   1.1453 B( 17-C , 18-C ) :   1.5618
B( 17-C , 20-C ) :   0.1039 B( 17-C , 33-H ) :   0.9788 B( 18-C , 19-C ) :   1.2461
B( 18-C , 21-H ) :   1.0107 B( 19-C , 20-C ) :   1.5752 B( 19-C , 22-C ) :   1.0424
B( 22-C , 23-H ) :   0.9337 B( 22-C , 24-H ) :   0.9296 B( 22-C , 25-C ) :   1.0783
B( 25-C , 26-H ) :   0.9558 B( 25-C , 27-H ) :   0.9552 B( 25-C , 28-C ) :   1.0658
B( 28-C , 29-H ) :   0.9747 B( 28-C , 30-H ) :   0.9745 B( 28-C , 31-H ) :   0.9744

Dispersion correction           -0.016253506
FINAL SINGLE POINT ENERGY     -1339.872337663338

DIPOLE MOMENT
-------------
                                X             Y             Z
Electronic contribution:     18.72694     -11.35291     -18.53377
Nuclear contribution   :    -19.21581      11.62625      18.93497
                        -----------------------------------------
Total Dipole Moment    :     -0.48887       0.27334       0.40120
                        -----------------------------------------
Magnitude (a.u.)       :      0.68896
Magnitude (Debye)      :      1.75120

Rotational constants in cm-1:     0.018164     0.010378     0.007678
Rotational constants in MHz :   544.550789   311.137380   230.184145

                             ****ORCA TERMINATED NORMALLY****
TOTAL RUN TIME: 0 days 0 hours 0 minutes 30 seconds 935 msec
