                         Program Version 4.2.1 -  RELEASE  -
|  1> ! wB97X-D3 SP def2-SVP
|  2> %pal
|  3> nprocs 16
|  4> end
|  5>
|  6> * xyz 0 1
|  7> S 	 -2.8233 	 -7.72062 	 83.4649
|  8> C 	 -2.76061 	 -9.46383 	 83.4754
|  9> C 	 -3.23209 	 -10.0066 	 84.6392
| 10> C 	 -3.64746 	 -8.95794 	 85.5476
| 11> C 	 -3.51172 	 -7.70682 	 85.0573
| 12> H 	 -4.03964 	 -9.15129 	 86.5573
| 13> C 	 -3.46733 	 -11.4759 	 84.9141
| 14> H 	 -3.72654 	 -11.9709 	 84.0089
| 15> H 	 -4.33733 	 -11.5607 	 85.5141
| 16> C 	 -2.27288 	 -12.2868 	 85.4348
| 17> H 	 -2.40638 	 -13.3269 	 85.321
| 18> H 	 -1.3636 	 -11.9612 	 84.8525
| 19> C 	 -1.89265 	 -11.9782 	 86.8509
| 20> H 	 -1.07624 	 -12.6409 	 87.1472
| 21> H 	 -1.57342 	 -10.9166 	 86.9636
| 22> H 	 -2.77807 	 -12.0938 	 87.4124
| 23> S 	 -4.77527 	 -5.42883 	 84.3778
| 24> C 	 -5.26951 	 -4.24847 	 85.6005
| 25> C 	 -4.94416 	 -4.71333 	 86.8952
| 26> C 	 -4.11114 	 -5.89405 	 86.9271
| 27> C 	 -3.99293 	 -6.39455 	 85.6288
| 28> H 	 -5.3223 	 -4.13864 	 87.7495
| 29> C 	 -3.44382 	 -6.41023 	 88.1888
| 30> H 	 -2.75801 	 -5.64227 	 88.6386
| 31> H 	 -2.85696 	 -7.22365 	 88.0225
| 32> C 	 -4.42007 	 -6.90663 	 89.2507
| 33> H 	 -4.93923 	 -7.83055 	 88.9097
| 34> H 	 -5.23867 	 -6.18654 	 89.3947
| 35> C 	 -3.75047 	 -6.98459 	 90.6438
| 36> H 	 -3.18578 	 -6.10091 	 90.8463
| 37> H 	 -3.10422 	 -7.89051 	 90.781
| 38> H 	 -4.47096 	 -7.07562 	 91.527
| 39> H 	 -2.38764 	 -10.0289 	 82.5848
| 40> H 	 -6.01798 	 -3.45877 	 85.4527
| 41> *
| 42>
| 43>                          ****END OF INPUT****

CARTESIAN COORDINATES (ANGSTROEM)
---------------------------------
  S     -2.823300   -7.720620   83.464900
  C     -2.760610   -9.463830   83.475400
  C     -3.232090  -10.006600   84.639200
  C     -3.647460   -8.957940   85.547600
  C     -3.511720   -7.706820   85.057300
  H     -4.039640   -9.151290   86.557300
  C     -3.467330  -11.475900   84.914100
  H     -3.726540  -11.970900   84.008900
  H     -4.337330  -11.560700   85.514100
  C     -2.272880  -12.286800   85.434800
  H     -2.406380  -13.326900   85.321000
  H     -1.363600  -11.961200   84.852500
  C     -1.892650  -11.978200   86.850900
  H     -1.076240  -12.640900   87.147200
  H     -1.573420  -10.916600   86.963600
  H     -2.778070  -12.093800   87.412400
  S     -4.775270   -5.428830   84.377800
  C     -5.269510   -4.248470   85.600500
  C     -4.944160   -4.713330   86.895200
  C     -4.111140   -5.894050   86.927100
  C     -3.992930   -6.394550   85.628800
  H     -5.322300   -4.138640   87.749500
  C     -3.443820   -6.410230   88.188800
  H     -2.758010   -5.642270   88.638600
  H     -2.856960   -7.223650   88.022500
  C     -4.420070   -6.906630   89.250700
  H     -4.939230   -7.830550   88.909700
  H     -5.238670   -6.186540   89.394700
  C     -3.750470   -6.984590   90.643800
  H     -3.185780   -6.100910   90.846300
  H     -3.104220   -7.890510   90.781000
  H     -4.470960   -7.075620   91.527000
  H     -2.387640  -10.028900   82.584800
  H     -6.017980   -3.458770   85.452700

 Total Charge           Charge          ....    0
 Multiplicity           Mult            ....    1
 Number of Electrons    NEL             ....  134
 Basis Dimension        Dim             ....  322

ORBITAL ENERGIES
----------------

  NO   OCC          E(Eh)            E(eV)
   0   2.0000     -88.967940     -2420.9407
   1   2.0000     -88.964499     -2420.8471
   2   2.0000     -10.334950      -281.2283
   3   2.0000     -10.329188      -281.0715
   4   2.0000     -10.321346      -280.8581
   5   2.0000     -10.315662      -280.7034
   6   2.0000     -10.310575      -280.5650
   7   2.0000     -10.301969      -280.3308
   8   2.0000     -10.301731      -280.3243
   9   2.0000     -10.293962      -280.1129
  10   2.0000     -10.292555      -280.0747
  11   2.0000     -10.291062      -280.0340
  12   2.0000     -10.287200      -279.9289
  13   2.0000     -10.286444      -279.9084
  14   2.0000     -10.282077      -279.7895
  15   2.0000     -10.270957      -279.4870
  16   2.0000      -8.082085      -219.9247
  17   2.0000      -8.079948      -219.8666
  18   2.0000      -6.040615      -164.3735
  19   2.0000      -6.038483      -164.3155
  20   2.0000      -6.036693      -164.2668
  21   2.0000      -6.034421      -164.2050
  22   2.0000      -6.032799      -164.1608
  23   2.0000      -6.030567      -164.1001
  24   2.0000      -1.007574       -27.4175
  25   2.0000      -0.981217       -26.7003
  26   2.0000      -0.917111       -24.9559
  27   2.0000      -0.912194       -24.8221
  28   2.0000      -0.865560       -23.5531
  29   2.0000      -0.851688       -23.1756
  30   2.0000      -0.844280       -22.9740
  31   2.0000      -0.815272       -22.1847
  32   2.0000      -0.784922       -21.3588
  33   2.0000      -0.774229       -21.0678
  34   2.0000      -0.702078       -19.1045
  35   2.0000      -0.699040       -19.0219
  36   2.0000      -0.689722       -18.7683
  37   2.0000      -0.661184       -17.9917
  38   2.0000      -0.638352       -17.3704
  39   2.0000      -0.619720       -16.8634
  40   2.0000      -0.600517       -16.3409
  41   2.0000      -0.574875       -15.6431
  42   2.0000      -0.567218       -15.4348
  43   2.0000      -0.553060       -15.0495
  44   2.0000      -0.538626       -14.6568
  45   2.0000      -0.522003       -14.2044
  46   2.0000      -0.518064       -14.0973
  47   2.0000      -0.509333       -13.8597
  48   2.0000      -0.507553       -13.8112
  49   2.0000      -0.494024       -13.4431
  50   2.0000      -0.490777       -13.3547
  51   2.0000      -0.478252       -13.0139
  52   2.0000      -0.471219       -12.8225
  53   2.0000      -0.467611       -12.7244
  54   2.0000      -0.457027       -12.4363
  55   2.0000      -0.451259       -12.2794
  56   2.0000      -0.443294       -12.0626
  57   2.0000      -0.441803       -12.0221
  58   2.0000      -0.432391       -11.7659
  59   2.0000      -0.427913       -11.6441
  60   2.0000      -0.424119       -11.5409
  61   2.0000      -0.414971       -11.2919
  62   2.0000      -0.413642       -11.2558
  63   2.0000      -0.351524        -9.5655
  64   2.0000      -0.331916        -9.0319
  65   2.0000      -0.331041        -9.0081
  66   2.0000      -0.291110        -7.9215
  67   0.0000       0.029402         0.8001
  68   0.0000       0.072032         1.9601
  69   0.0000       0.100914         2.7460
  70   0.0000       0.116809         3.1785
  71   0.0000       0.127591         3.4719

MULLIKEN ATOMIC CHARGES
-----------------------
   0 S :    0.100488
   1 C :   -0.144531
   2 C :   -0.089142
   3 C :    0.011936
   4 C :   -0.129209
   5 H :    0.010428
   6 C :    0.097955
   7 H :    0.013024
   8 H :    0.013936
   9 C :   -0.077066
  10 H :    0.024974
  11 H :    0.029184
  12 C :   -0.038180
  13 H :    0.039528
  14 H :    0.037759
  15 H :    0.011111
  16 S :    0.097266
  17 C :   -0.096992
  18 C :   -0.066240
  19 C :   -0.028132
  20 C :   -0.129915
  21 H :    0.032136
  22 C :    0.110571
  23 H :    0.042010
  24 H :   -0.005655
  25 C :   -0.100415
  26 H :    0.037903
  27 H :    0.027241
  28 C :   -0.075303
  29 H :    0.030151
  30 H :    0.039042
  31 H :    0.039928
  32 H :    0.065335
  33 H :    0.068874
Sum of atomic charges:    0.0000000

LOEWDIN ATOMIC CHARGES
----------------------
   0 S :    0.403764
   1 C :   -0.199085
   2 C :   -0.062389
   3 C :   -0.071869
   4 C :   -0.196554
   5 H :    0.032519
   6 C :   -0.026499
   7 H :    0.030775
   8 H :    0.024494
   9 C :   -0.038897
  10 H :    0.017019
  11 H :    0.030333
  12 C :   -0.063977
  13 H :    0.028421
  14 H :    0.029218
  15 H :    0.013272
  16 S :    0.395416
  17 C :   -0.194865
  18 C :   -0.063782
  19 C :   -0.059368
  20 C :   -0.178721
  21 H :    0.033008
  22 C :   -0.024512
  23 H :    0.040900
  24 H :    0.016425
  25 C :   -0.042595
  26 H :    0.027071
  27 H :    0.021852
  28 C :   -0.073484
  29 H :    0.020517
  30 H :    0.027550
  31 H :    0.033208
  32 H :    0.036749
  33 H :    0.034087

  Mayer bond orders larger than 0.100000
B(  0-S ,  1-C ) :   1.1309 B(  0-S ,  4-C ) :   1.1510 B(  1-C ,  2-C ) :   1.6402
B(  1-C , 32-H ) :   0.9610 B(  2-C ,  3-C ) :   1.2200 B(  2-C ,  6-C ) :   1.0172
B(  3-C ,  4-C ) :   1.6098 B(  3-C ,  5-H ) :   0.9915 B(  4-C , 20-C ) :   0.9904
B(  6-C ,  7-H ) :   0.9345 B(  6-C ,  8-H ) :   0.9438 B(  6-C ,  9-C ) :   1.0725
B(  9-C , 10-H ) :   0.9572 B(  9-C , 11-H ) :   0.9547 B(  9-C , 12-C ) :   1.0846
B( 12-C , 13-H ) :   0.9726 B( 12-C , 14-H ) :   0.9739 B( 12-C , 15-H ) :   0.9746
B( 16-S , 17-C ) :   1.1327 B( 16-S , 20-C ) :   1.1554 B( 17-C , 18-C ) :   1.6387
B( 17-C , 33-H ) :   0.9638 B( 18-C , 19-C ) :   1.2108 B( 18-C , 21-H ) :   0.9807
B( 19-C , 20-C ) :   1.6134 B( 19-C , 22-C ) :   1.0466 B( 22-C , 23-H ) :   0.9406
B( 22-C , 24-H ) :   0.9281 B( 22-C , 25-C ) :   1.0495 B( 25-C , 26-H ) :   0.9539
B( 25-C , 27-H ) :   0.9626 B( 25-C , 28-C ) :   1.0678 B( 28-C , 29-H ) :   0.9748
B( 28-C , 30-H ) :   0.9764 B( 28-C , 31-H ) :   0.9759

Dispersion correction           -0.013927317
FINAL SINGLE POINT ENERGY     -1339.879110452290

DIPOLE MOMENT
-------------
                                X             Y             Z
Electronic contribution:     -4.08632      17.88087     -25.09539
Nuclear contribution   :      3.92626     -18.30107      25.61306
                        -----------------------------------------
Total Dipole Moment    :     -0.16006      -0.42020       0.51767
                        -----------------------------------------
Magnitude (a.u.)       :      0.68568
Magnitude (Debye)      :      1.74287

Rotational constants in cm-1:     0.016394     0.009605     0.006376
Rotational constants in MHz :   491.467224   287.956792   191.145074

                             ****ORCA TERMINATED NORMALLY****
TOTAL RUN TIME: 0 days 0 hours 0 minutes 33 seconds 130 msec
