                         Program Version 4.2.1 -  RELEASE  -
|  1> ! wB97X-D3 SP def2-SVP
|  2> %pal
|  3> nprocs 16
|  4> end
|  5>
|  6> * xyz 0 1
|  7> S 	 -44.4184 	 28.5822 	 88.0529
|  8> C 	 -45.3601 	 29.9895 	 87.5207
|  9> C 	 -44.7251 	 30.7284 	 86.5651
| 10> C 	 -43.5617 	 30.0436 	 86.1321
| 11> C 	 -43.3261 	 28.7829 	 86.6763
| 12> H 	 -42.9367 	 30.3749 	 85.3172
| 13> C 	 -45.2985 	 32.0039 	 85.9557
| 14> H 	 -44.895 	 32.7475 	 86.6021
| 15> H 	 -46.3963 	 31.9518 	 86.0911
| 16> C 	 -45.1332 	 32.2589 	 84.4575
| 17> H 	 -45.6299 	 33.2556 	 84.2789
| 18> H 	 -44.0865 	 32.4868 	 84.2691
| 19> C 	 -45.6694 	 31.1916 	 83.448
| 20> H 	 -45.9112 	 31.6854 	 82.4865
| 21> H 	 -44.9328 	 30.401 	 83.2735
| 22> H 	 -46.4931 	 30.7153 	 83.9483
| 23> S 	 -42.6663 	 26.8682 	 84.8648
| 24> C 	 -41.0895 	 26.09 	 85.0425
| 25> C 	 -40.4653 	 26.4185 	 86.2263
| 26> C 	 -41.2224 	 27.3535 	 87.0494
| 27> C 	 -42.3287 	 27.7775 	 86.3544
| 28> H 	 -39.59 	 25.9205 	 86.4585
| 29> C 	 -40.7882 	 28.061 	 88.3016
| 30> H 	 -40.3253 	 27.1873 	 88.8886
| 31> H 	 -41.6226 	 28.4533 	 88.8474
| 32> C 	 -39.6134 	 29.0448 	 88.1699
| 33> H 	 -38.8809 	 28.5603 	 87.5152
| 34> H 	 -39.2287 	 29.2151 	 89.2511
| 35> C 	 -40.0013 	 30.3692 	 87.4405
| 36> H 	 -39.3002 	 31.2358 	 87.4161
| 37> H 	 -40.9711 	 30.6848 	 87.8907
| 38> H 	 -40.1617 	 30.0569 	 86.4165
| 39> H 	 -46.337 	 30.2892 	 87.8779
| 40> H 	 -40.6482 	 25.399 	 84.3215
| 41> *
| 42>
| 43>                          ****END OF INPUT****

CARTESIAN COORDINATES (ANGSTROEM)
---------------------------------
  S    -44.418400   28.582200   88.052900
  C    -45.360100   29.989500   87.520700
  C    -44.725100   30.728400   86.565100
  C    -43.561700   30.043600   86.132100
  C    -43.326100   28.782900   86.676300
  H    -42.936700   30.374900   85.317200
  C    -45.298500   32.003900   85.955700
  H    -44.895000   32.747500   86.602100
  H    -46.396300   31.951800   86.091100
  C    -45.133200   32.258900   84.457500
  H    -45.629900   33.255600   84.278900
  H    -44.086500   32.486800   84.269100
  C    -45.669400   31.191600   83.448000
  H    -45.911200   31.685400   82.486500
  H    -44.932800   30.401000   83.273500
  H    -46.493100   30.715300   83.948300
  S    -42.666300   26.868200   84.864800
  C    -41.089500   26.090000   85.042500
  C    -40.465300   26.418500   86.226300
  C    -41.222400   27.353500   87.049400
  C    -42.328700   27.777500   86.354400
  H    -39.590000   25.920500   86.458500
  C    -40.788200   28.061000   88.301600
  H    -40.325300   27.187300   88.888600
  H    -41.622600   28.453300   88.847400
  C    -39.613400   29.044800   88.169900
  H    -38.880900   28.560300   87.515200
  H    -39.228700   29.215100   89.251100
  C    -40.001300   30.369200   87.440500
  H    -39.300200   31.235800   87.416100
  H    -40.971100   30.684800   87.890700
  H    -40.161700   30.056900   86.416500
  H    -46.337000   30.289200   87.877900
  H    -40.648200   25.399000   84.321500

 Total Charge           Charge          ....    0
 Multiplicity           Mult            ....    1
 Number of Electrons    NEL             ....  134
 Basis Dimension        Dim             ....  322

ORBITAL ENERGIES
----------------

  NO   OCC          E(Eh)            E(eV)
   0   2.0000     -88.965789     -2420.8822
   1   2.0000     -88.964434     -2420.8453
   2   2.0000     -10.328777      -281.0603
   3   2.0000     -10.324806      -280.9522
   4   2.0000     -10.319941      -280.8199
   5   2.0000     -10.311408      -280.5877
   6   2.0000     -10.305885      -280.4374
   7   2.0000     -10.297946      -280.2213
   8   2.0000     -10.295118      -280.1444
   9   2.0000     -10.295073      -280.1432
  10   2.0000     -10.294924      -280.1391
  11   2.0000     -10.294429      -280.1257
  12   2.0000     -10.294124      -280.1173
  13   2.0000     -10.292125      -280.0629
  14   2.0000     -10.281840      -279.7831
  15   2.0000     -10.276883      -279.6482
  16   2.0000      -8.079950      -219.8666
  17   2.0000      -8.078286      -219.8213
  18   2.0000      -6.038454      -164.3147
  19   2.0000      -6.036824      -164.2703
  20   2.0000      -6.034727      -164.2133
  21   2.0000      -6.033009      -164.1665
  22   2.0000      -6.030567      -164.1001
  23   2.0000      -6.028976      -164.0568
  24   2.0000      -1.003457       -27.3055
  25   2.0000      -0.980971       -26.6936
  26   2.0000      -0.910162       -24.7668
  27   2.0000      -0.906547       -24.6684
  28   2.0000      -0.868326       -23.6283
  29   2.0000      -0.844691       -22.9852
  30   2.0000      -0.839333       -22.8394
  31   2.0000      -0.815560       -22.1925
  32   2.0000      -0.786107       -21.3911
  33   2.0000      -0.772553       -21.0222
  34   2.0000      -0.710145       -19.3240
  35   2.0000      -0.693846       -18.8805
  36   2.0000      -0.687243       -18.7008
  37   2.0000      -0.660422       -17.9710
  38   2.0000      -0.634948       -17.2778
  39   2.0000      -0.619901       -16.8684
  40   2.0000      -0.597389       -16.2558
  41   2.0000      -0.567869       -15.4525
  42   2.0000      -0.560022       -15.2390
  43   2.0000      -0.545663       -14.8482
  44   2.0000      -0.541713       -14.7408
  45   2.0000      -0.535091       -14.5606
  46   2.0000      -0.517635       -14.0856
  47   2.0000      -0.505781       -13.7630
  48   2.0000      -0.499909       -13.6032
  49   2.0000      -0.487770       -13.2729
  50   2.0000      -0.486333       -13.2338
  51   2.0000      -0.478650       -13.0247
  52   2.0000      -0.470979       -12.8160
  53   2.0000      -0.469261       -12.7693
  54   2.0000      -0.457833       -12.4583
  55   2.0000      -0.446018       -12.1368
  56   2.0000      -0.445456       -12.1215
  57   2.0000      -0.438172       -11.9233
  58   2.0000      -0.434461       -11.8223
  59   2.0000      -0.422603       -11.4996
  60   2.0000      -0.417561       -11.3624
  61   2.0000      -0.413255       -11.2452
  62   2.0000      -0.404970       -11.0198
  63   2.0000      -0.334462        -9.1012
  64   2.0000      -0.331369        -9.0170
  65   2.0000      -0.328613        -8.9420
  66   2.0000      -0.300362        -8.1733
  67   0.0000       0.036790         1.0011
  68   0.0000       0.055815         1.5188
  69   0.0000       0.104097         2.8326
  70   0.0000       0.111558         3.0356
  71   0.0000       0.129097         3.5129

MULLIKEN ATOMIC CHARGES
-----------------------
   0 S :    0.108092
   1 C :   -0.125446
   2 C :   -0.091530
   3 C :    0.050788
   4 C :   -0.191046
   5 H :    0.005472
   6 C :    0.072693
   7 H :    0.043553
   8 H :    0.026644
   9 C :   -0.108229
  10 H :    0.035704
  11 H :    0.025159
  12 C :   -0.033176
  13 H :    0.049699
  14 H :    0.040682
  15 H :    0.029769
  16 S :    0.111582
  17 C :   -0.092031
  18 C :   -0.016735
  19 C :   -0.015672
  20 C :   -0.178061
  21 H :   -0.007454
  22 C :    0.048631
  23 H :    0.037505
  24 H :    0.025526
  25 C :   -0.075756
  26 H :    0.027521
  27 H :    0.049722
  28 C :   -0.069852
  29 H :    0.046582
  30 H :    0.038327
  31 H :    0.034300
  32 H :    0.036429
  33 H :    0.060610
Sum of atomic charges:   -0.0000000

LOEWDIN ATOMIC CHARGES
----------------------
   0 S :    0.385447
   1 C :   -0.185256
   2 C :   -0.069986
   3 C :   -0.057440
   4 C :   -0.193250
   5 H :    0.027143
   6 C :   -0.030332
   7 H :    0.035819
   8 H :    0.033109
   9 C :   -0.049949
  10 H :    0.032445
  11 H :    0.017821
  12 C :   -0.062235
  13 H :    0.034502
  14 H :    0.028886
  15 H :    0.024688
  16 S :    0.386968
  17 C :   -0.175966
  18 C :   -0.062191
  19 C :   -0.054902
  20 C :   -0.191506
  21 H :    0.019169
  22 C :   -0.035476
  23 H :    0.044594
  24 H :    0.020152
  25 C :   -0.040692
  26 H :    0.022686
  27 H :    0.032857
  28 C :   -0.075114
  29 H :    0.028889
  30 H :    0.027276
  31 H :    0.024298
  32 H :    0.025349
  33 H :    0.032198

  Mayer bond orders larger than 0.100000
B(  0-S ,  1-C ) :   1.1338 B(  0-S ,  4-C ) :   1.1315 B(  1-C ,  2-C ) :   1.6364
B(  1-C ,  4-C ) :   0.1006 B(  1-C , 32-H ) :   0.9640 B(  2-C ,  3-C ) :   1.2312
B(  2-C ,  6-C ) :   0.9924 B(  3-C ,  4-C ) :   1.5939 B(  3-C ,  5-H ) :   0.9930
B(  4-C , 20-C ) :   1.0288 B(  6-C ,  7-H ) :   0.9317 B(  6-C ,  8-H ) :   0.9460
B(  6-C ,  9-C ) :   1.0877 B(  9-C , 10-H ) :   0.9551 B(  9-C , 11-H ) :   0.9509
B(  9-C , 12-C ) :   1.0598 B( 12-C , 13-H ) :   0.9762 B( 12-C , 14-H ) :   0.9731
B( 12-C , 15-H ) :   0.9788 B( 16-S , 17-C ) :   1.1297 B( 16-S , 20-C ) :   1.1351
B( 17-C , 18-C ) :   1.6602 B( 17-C , 33-H ) :   0.9644 B( 18-C , 19-C ) :   1.1782
B( 18-C , 21-H ) :   0.9977 B( 19-C , 20-C ) :   1.6215 B( 19-C , 22-C ) :   1.0619
B( 22-C , 23-H ) :   0.9222 B( 22-C , 24-H ) :   0.9276 B( 22-C , 25-C ) :   1.0709
B( 25-C , 26-H ) :   0.9575 B( 25-C , 27-H ) :   0.9547 B( 25-C , 28-C ) :   1.0562
B( 28-C , 29-H ) :   0.9763 B( 28-C , 30-H ) :   0.9760 B( 28-C , 31-H ) :   0.9757

Dispersion correction           -0.015967407
FINAL SINGLE POINT ENERGY     -1339.873288054896

DIPOLE MOMENT
-------------
                                X             Y             Z
Electronic contribution:     -4.33923     -18.07697       3.41538
Nuclear contribution   :      4.53060      18.45481      -3.57221
                        -----------------------------------------
Total Dipole Moment    :      0.19136       0.37785      -0.15683
                        -----------------------------------------
Magnitude (a.u.)       :      0.45165
Magnitude (Debye)      :      1.14799

Rotational constants in cm-1:     0.019291     0.009120     0.008158
Rotational constants in MHz :   578.328764   273.416407   244.585324

                             ****ORCA TERMINATED NORMALLY****
TOTAL RUN TIME: 0 days 0 hours 0 minutes 30 seconds 348 msec
