                         Program Version 4.2.1 -  RELEASE  -
|  1> ! wB97X-D3 SP def2-SVP
|  2> %pal
|  3> nprocs 16
|  4> end
|  5>
|  6> * xyz 0 1
|  7> S 	 8.35898 	 -15.4365 	 100.764
|  8> C 	 9.02525 	 -14.4048 	 99.5757
|  9> C 	 8.06888 	 -13.987 	 98.6043
| 10> C 	 6.78785 	 -14.6068 	 98.8365
| 11> C 	 6.75822 	 -15.3795 	 100.006
| 12> H 	 5.99692 	 -14.5574 	 98.1907
| 13> C 	 8.29469 	 -13.05 	 97.4651
| 14> H 	 7.6633 	 -13.3206 	 96.6321
| 15> H 	 9.30451 	 -13.0789 	 97.1073
| 16> C 	 7.96667 	 -11.579 	 97.8572
| 17> H 	 7.76963 	 -10.8681 	 97.0598
| 18> H 	 7.01925 	 -11.615 	 98.4125
| 19> C 	 9.00579 	 -10.8772 	 98.8293
| 20> H 	 9.88549 	 -10.6528 	 98.246
| 21> H 	 8.69733 	 -9.92703 	 99.3366
| 22> H 	 9.42212 	 -11.4812 	 99.6524
| 23> S 	 4.16242 	 -15.0911 	 101.014
| 24> C 	 3.46414 	 -16.4313 	 101.858
| 25> C 	 4.26457 	 -17.5281 	 101.772
| 26> C 	 5.46816 	 -17.325 	 101.114
| 27> C 	 5.61739 	 -16.0162 	 100.604
| 28> H 	 3.95671 	 -18.4122 	 102.21
| 29> C 	 6.59613 	 -18.3114 	 101.027
| 30> H 	 7.38336 	 -18.0061 	 100.333
| 31> H 	 6.39982 	 -19.3018 	 100.601
| 32> C 	 7.18605 	 -18.6359 	 102.381
| 33> H 	 6.38671 	 -18.9693 	 103.068
| 34> H 	 7.76937 	 -17.7959 	 102.721
| 35> C 	 8.19397 	 -19.8279 	 102.363
| 36> H 	 8.89763 	 -19.7977 	 103.16
| 37> H 	 8.75976 	 -19.9204 	 101.405
| 38> H 	 7.56207 	 -20.6803 	 102.516
| 39> H 	 10.06 	 -13.9624 	 99.6372
| 40> H 	 2.54832 	 -16.4098 	 102.418
| 41> *
| 42>
| 43>                          ****END OF INPUT****

CARTESIAN COORDINATES (ANGSTROEM)
---------------------------------
  S      8.358980  -15.436500  100.764000
  C      9.025250  -14.404800   99.575700
  C      8.068880  -13.987000   98.604300
  C      6.787850  -14.606800   98.836500
  C      6.758220  -15.379500  100.006000
  H      5.996920  -14.557400   98.190700
  C      8.294690  -13.050000   97.465100
  H      7.663300  -13.320600   96.632100
  H      9.304510  -13.078900   97.107300
  C      7.966670  -11.579000   97.857200
  H      7.769630  -10.868100   97.059800
  H      7.019250  -11.615000   98.412500
  C      9.005790  -10.877200   98.829300
  H      9.885490  -10.652800   98.246000
  H      8.697330   -9.927030   99.336600
  H      9.422120  -11.481200   99.652400
  S      4.162420  -15.091100  101.014000
  C      3.464140  -16.431300  101.858000
  C      4.264570  -17.528100  101.772000
  C      5.468160  -17.325000  101.114000
  C      5.617390  -16.016200  100.604000
  H      3.956710  -18.412200  102.210000
  C      6.596130  -18.311400  101.027000
  H      7.383360  -18.006100  100.333000
  H      6.399820  -19.301800  100.601000
  C      7.186050  -18.635900  102.381000
  H      6.386710  -18.969300  103.068000
  H      7.769370  -17.795900  102.721000
  C      8.193970  -19.827900  102.363000
  H      8.897630  -19.797700  103.160000
  H      8.759760  -19.920400  101.405000
  H      7.562070  -20.680300  102.516000
  H     10.060000  -13.962400   99.637200
  H      2.548320  -16.409800  102.418000

 Total Charge           Charge          ....    0
 Multiplicity           Mult            ....    1
 Number of Electrons    NEL             ....  134
 Basis Dimension        Dim             ....  322

ORBITAL ENERGIES
----------------

  NO   OCC          E(Eh)            E(eV)
   0   2.0000     -88.971942     -2421.0496
   1   2.0000     -88.966685     -2420.9066
   2   2.0000     -10.331553      -281.1358
   3   2.0000     -10.326305      -280.9930
   4   2.0000     -10.319694      -280.8131
   5   2.0000     -10.314275      -280.6657
   6   2.0000     -10.305478      -280.4263
   7   2.0000     -10.300872      -280.3010
   8   2.0000     -10.292713      -280.0790
   9   2.0000     -10.292500      -280.0732
  10   2.0000     -10.291029      -280.0331
  11   2.0000     -10.284769      -279.8628
  12   2.0000     -10.283783      -279.8359
  13   2.0000     -10.281077      -279.7623
  14   2.0000     -10.279734      -279.7258
  15   2.0000     -10.272753      -279.5358
  16   2.0000      -8.086161      -220.0356
  17   2.0000      -8.081250      -219.9020
  18   2.0000      -6.044629      -164.4827
  19   2.0000      -6.040622      -164.3737
  20   2.0000      -6.039685      -164.3482
  21   2.0000      -6.037129      -164.2786
  22   2.0000      -6.035676      -164.2391
  23   2.0000      -6.032204      -164.1446
  24   2.0000      -1.007124       -27.4052
  25   2.0000      -0.985073       -26.8052
  26   2.0000      -0.911765       -24.8104
  27   2.0000      -0.907595       -24.6969
  28   2.0000      -0.870743       -23.6941
  29   2.0000      -0.850597       -23.1459
  30   2.0000      -0.845196       -22.9989
  31   2.0000      -0.812429       -22.1073
  32   2.0000      -0.782977       -21.3059
  33   2.0000      -0.770291       -20.9607
  34   2.0000      -0.709421       -19.3043
  35   2.0000      -0.695512       -18.9259
  36   2.0000      -0.691806       -18.8250
  37   2.0000      -0.663048       -18.0425
  38   2.0000      -0.645231       -17.5576
  39   2.0000      -0.621676       -16.9167
  40   2.0000      -0.606940       -16.5157
  41   2.0000      -0.571520       -15.5518
  42   2.0000      -0.570647       -15.5281
  43   2.0000      -0.543075       -14.7778
  44   2.0000      -0.542297       -14.7567
  45   2.0000      -0.525041       -14.2871
  46   2.0000      -0.515833       -14.0365
  47   2.0000      -0.510346       -13.8872
  48   2.0000      -0.505519       -13.7559
  49   2.0000      -0.496924       -13.5220
  50   2.0000      -0.488798       -13.3009
  51   2.0000      -0.473597       -12.8872
  52   2.0000      -0.470231       -12.7956
  53   2.0000      -0.468478       -12.7479
  54   2.0000      -0.461152       -12.5486
  55   2.0000      -0.449621       -12.2348
  56   2.0000      -0.442625       -12.0444
  57   2.0000      -0.438290       -11.9265
  58   2.0000      -0.429184       -11.6787
  59   2.0000      -0.423268       -11.5177
  60   2.0000      -0.422585       -11.4991
  61   2.0000      -0.415961       -11.3189
  62   2.0000      -0.408393       -11.1129
  63   2.0000      -0.348434        -9.4814
  64   2.0000      -0.335006        -9.1160
  65   2.0000      -0.328532        -8.9398
  66   2.0000      -0.286765        -7.8033
  67   0.0000       0.027180         0.7396
  68   0.0000       0.064071         1.7435
  69   0.0000       0.107661         2.9296
  70   0.0000       0.116128         3.1600
  71   0.0000       0.137212         3.7337

MULLIKEN ATOMIC CHARGES
-----------------------
   0 S :    0.124812
   1 C :   -0.131724
   2 C :   -0.112126
   3 C :    0.062619
   4 C :   -0.170515
   5 H :   -0.020005
   6 C :    0.101647
   7 H :    0.025230
   8 H :    0.019085
   9 C :   -0.070955
  10 H :    0.035440
  11 H :    0.028442
  12 C :   -0.087394
  13 H :    0.019770
  14 H :    0.044395
  15 H :    0.027873
  16 S :    0.116718
  17 C :   -0.087829
  18 C :   -0.009405
  19 C :    0.020959
  20 C :   -0.145815
  21 H :   -0.014666
  22 C :    0.040934
  23 H :    0.024656
  24 H :    0.015602
  25 C :   -0.093494
  26 H :    0.035010
  27 H :    0.026365
  28 C :   -0.040543
  29 H :    0.028245
  30 H :    0.035819
  31 H :    0.023352
  32 H :    0.073453
  33 H :    0.054048
Sum of atomic charges:    0.0000000

LOEWDIN ATOMIC CHARGES
----------------------
   0 S :    0.436111
   1 C :   -0.224210
   2 C :   -0.057950
   3 C :   -0.045451
   4 C :   -0.186639
   5 H :    0.016712
   6 C :   -0.028200
   7 H :    0.033568
   8 H :    0.026705
   9 C :   -0.037871
  10 H :    0.023914
  11 H :    0.024490
  12 C :   -0.079009
  13 H :    0.018146
  14 H :    0.032759
  15 H :    0.023355
  16 S :    0.412841
  17 C :   -0.182233
  18 C :   -0.065618
  19 C :   -0.049453
  20 C :   -0.199177
  21 H :    0.020396
  22 C :   -0.046060
  23 H :    0.023825
  24 H :    0.029767
  25 C :   -0.037008
  26 H :    0.025867
  27 H :    0.014502
  28 C :   -0.063963
  29 H :    0.020976
  30 H :    0.028028
  31 H :    0.021090
  32 H :    0.039235
  33 H :    0.030554

  Mayer bond orders larger than 0.100000
B(  0-S ,  1-C ) :   1.1605 B(  0-S ,  4-C ) :   1.1510 B(  1-C ,  2-C ) :   1.5754
B(  1-C , 32-H ) :   0.9554 B(  2-C ,  3-C ) :   1.2575 B(  2-C ,  6-C ) :   1.0437
B(  3-C ,  4-C ) :   1.5374 B(  3-C ,  5-H ) :   1.0097 B(  4-C , 20-C ) :   1.0689
B(  6-C ,  7-H ) :   0.9363 B(  6-C ,  8-H ) :   0.9445 B(  6-C ,  9-C ) :   1.0523
B(  9-C , 10-H ) :   0.9613 B(  9-C , 11-H ) :   0.9600 B(  9-C , 12-C ) :   1.0593
B( 12-C , 13-H ) :   0.9773 B( 12-C , 14-H ) :   0.9771 B( 12-C , 15-H ) :   0.9767
B( 16-S , 17-C ) :   1.1697 B( 16-S , 20-C ) :   1.1415 B( 17-C , 18-C ) :   1.5758
B( 17-C , 20-C ) :   0.1019 B( 17-C , 33-H ) :   0.9679 B( 18-C , 19-C ) :   1.2688
B( 18-C , 21-H ) :   1.0059 B( 19-C , 20-C ) :   1.5368 B( 19-C , 22-C ) :   1.0548
B( 22-C , 23-H ) :   0.9233 B( 22-C , 24-H ) :   0.9338 B( 22-C , 25-C ) :   1.0615
B( 25-C , 26-H ) :   0.9638 B( 25-C , 27-H ) :   0.9549 B( 25-C , 28-C ) :   1.0712
B( 28-C , 29-H ) :   0.9776 B( 28-C , 30-H ) :   0.9753 B( 28-C , 31-H ) :   0.9795

Dispersion correction           -0.014578508
FINAL SINGLE POINT ENERGY     -1339.879813516389

DIPOLE MOMENT
-------------
                                X             Y             Z
Electronic contribution:    -12.46063      -0.04084       3.29754
Nuclear contribution   :     12.53345      -0.04494      -3.37739
                        -----------------------------------------
Total Dipole Moment    :      0.07283      -0.08578      -0.07984
                        -----------------------------------------
Magnitude (a.u.)       :      0.13797
Magnitude (Debye)      :      0.35070

Rotational constants in cm-1:     0.022009     0.008190     0.006434
Rotational constants in MHz :   659.821576   245.528693   192.874183

                             ****ORCA TERMINATED NORMALLY****
TOTAL RUN TIME: 0 days 0 hours 0 minutes 31 seconds 138 msec
