                         Program Version 4.2.1 -  RELEASE  -
|  1> ! wB97X-D3 SP def2-SVP
|  2> %pal
|  3> nprocs 16
|  4> end
|  5>
|  6> * xyz 0 1
|  7> S 	 52.1328 	 -3.14038 	 82.9741
|  8> C 	 50.5725 	 -2.67937 	 83.5294
|  9> C 	 50.6202 	 -1.41921 	 84.0687
| 10> C 	 51.802 	 -0.722045 	 83.8083
| 11> C 	 52.7679 	 -1.51761 	 83.1538
| 12> H 	 51.9687 	 0.315745 	 84.0109
| 13> C 	 49.4583 	 -0.773551 	 84.6432
| 14> H 	 48.5371 	 -1.0381 	 84.1237
| 15> H 	 49.5273 	 0.308715 	 84.425
| 16> C 	 49.3188 	 -1.24467 	 86.0995
| 17> H 	 49.231 	 -2.38984 	 86.2709
| 18> H 	 50.3236 	 -1.07833 	 86.5242
| 19> C 	 48.329 	 -0.385841 	 86.8757
| 20> H 	 48.8831 	 0.539535 	 87.0471
| 21> H 	 47.3521 	 -0.151627 	 86.4426
| 22> H 	 48.0142 	 -0.787267 	 87.7534
| 23> S 	 55.3798 	 -2.13742 	 83.4361
| 24> C 	 56.4815 	 -1.60725 	 82.1328
| 25> C 	 55.8934 	 -0.868337 	 81.1402
| 26> C 	 54.5453 	 -0.615051 	 81.4921
| 27> C 	 54.0885 	 -1.24537 	 82.6712
| 28> H 	 56.4251 	 -0.46019 	 80.2996
| 29> C 	 53.6109 	 0.296362 	 80.6293
| 30> H 	 54.2858 	 0.635373 	 79.8458
| 31> H 	 53.2934 	 1.13228 	 81.2195
| 32> C 	 52.3901 	 -0.330352 	 79.9982
| 33> H 	 51.8152 	 -0.761884 	 80.7938
| 34> H 	 52.6791 	 -1.19088 	 79.4085
| 35> C 	 51.6336 	 0.505906 	 78.969
| 36> H 	 50.8417 	 -0.0680629 	 78.4842
| 37> H 	 52.3923 	 0.747124 	 78.315
| 38> H 	 51.1949 	 1.38288 	 79.4362
| 39> H 	 49.7341 	 -3.31444 	 83.6653
| 40> H 	 57.6163 	 -1.79164 	 82.2459
| 41> *
| 42>
| 43>                          ****END OF INPUT****

CARTESIAN COORDINATES (ANGSTROEM)
---------------------------------
  S     52.132800   -3.140380   82.974100
  C     50.572500   -2.679370   83.529400
  C     50.620200   -1.419210   84.068700
  C     51.802000   -0.722045   83.808300
  C     52.767900   -1.517610   83.153800
  H     51.968700    0.315745   84.010900
  C     49.458300   -0.773551   84.643200
  H     48.537100   -1.038100   84.123700
  H     49.527300    0.308715   84.425000
  C     49.318800   -1.244670   86.099500
  H     49.231000   -2.389840   86.270900
  H     50.323600   -1.078330   86.524200
  C     48.329000   -0.385841   86.875700
  H     48.883100    0.539535   87.047100
  H     47.352100   -0.151627   86.442600
  H     48.014200   -0.787267   87.753400
  S     55.379800   -2.137420   83.436100
  C     56.481500   -1.607250   82.132800
  C     55.893400   -0.868337   81.140200
  C     54.545300   -0.615051   81.492100
  C     54.088500   -1.245370   82.671200
  H     56.425100   -0.460190   80.299600
  C     53.610900    0.296362   80.629300
  H     54.285800    0.635373   79.845800
  H     53.293400    1.132280   81.219500
  C     52.390100   -0.330352   79.998200
  H     51.815200   -0.761884   80.793800
  H     52.679100   -1.190880   79.408500
  C     51.633600    0.505906   78.969000
  H     50.841700   -0.068063   78.484200
  H     52.392300    0.747124   78.315000
  H     51.194900    1.382880   79.436200
  H     49.734100   -3.314440   83.665300
  H     57.616300   -1.791640   82.245900

 Total Charge           Charge          ....    0
 Multiplicity           Mult            ....    1
 Number of Electrons    NEL             ....  134
 Basis Dimension        Dim             ....  322

ORBITAL ENERGIES
----------------

  NO   OCC          E(Eh)            E(eV)
   0   2.0000     -88.966949     -2420.9138
   1   2.0000     -88.964188     -2420.8386
   2   2.0000     -10.328479      -281.0522
   3   2.0000     -10.327025      -281.0126
   4   2.0000     -10.323042      -280.9043
   5   2.0000     -10.307463      -280.4803
   6   2.0000     -10.304794      -280.4077
   7   2.0000     -10.297260      -280.2027
   8   2.0000     -10.293779      -280.1080
   9   2.0000     -10.292326      -280.0684
  10   2.0000     -10.288009      -279.9510
  11   2.0000     -10.286976      -279.9228
  12   2.0000     -10.285763      -279.8898
  13   2.0000     -10.270371      -279.4710
  14   2.0000     -10.269223      -279.4398
  15   2.0000     -10.268435      -279.4183
  16   2.0000      -8.081342      -219.9045
  17   2.0000      -8.079179      -219.8456
  18   2.0000      -6.039766      -164.3504
  19   2.0000      -6.037580      -164.2909
  20   2.0000      -6.035934      -164.2461
  21   2.0000      -6.033484      -164.1794
  22   2.0000      -6.032171      -164.1437
  23   2.0000      -6.030194      -164.0899
  24   2.0000      -1.009328       -27.4652
  25   2.0000      -0.985689       -26.8220
  26   2.0000      -0.918622       -24.9970
  27   2.0000      -0.906585       -24.6694
  28   2.0000      -0.873324       -23.7643
  29   2.0000      -0.851966       -23.1832
  30   2.0000      -0.848731       -23.0951
  31   2.0000      -0.816971       -22.2309
  32   2.0000      -0.784064       -21.3355
  33   2.0000      -0.765731       -20.8366
  34   2.0000      -0.707443       -19.2505
  35   2.0000      -0.703053       -19.1310
  36   2.0000      -0.686836       -18.6898
  37   2.0000      -0.662469       -18.0267
  38   2.0000      -0.644291       -17.5321
  39   2.0000      -0.622053       -16.9269
  40   2.0000      -0.592535       -16.1237
  41   2.0000      -0.575708       -15.6658
  42   2.0000      -0.568784       -15.4774
  43   2.0000      -0.555353       -15.1119
  44   2.0000      -0.527974       -14.3669
  45   2.0000      -0.523129       -14.2351
  46   2.0000      -0.520653       -14.1677
  47   2.0000      -0.511553       -13.9201
  48   2.0000      -0.507116       -13.7993
  49   2.0000      -0.499504       -13.5922
  50   2.0000      -0.493677       -13.4336
  51   2.0000      -0.484234       -13.1767
  52   2.0000      -0.471666       -12.8347
  53   2.0000      -0.462413       -12.5829
  54   2.0000      -0.457774       -12.4567
  55   2.0000      -0.452265       -12.3068
  56   2.0000      -0.446449       -12.1485
  57   2.0000      -0.441191       -12.0054
  58   2.0000      -0.432783       -11.7766
  59   2.0000      -0.423941       -11.5360
  60   2.0000      -0.413990       -11.2652
  61   2.0000      -0.408916       -11.1272
  62   2.0000      -0.399965       -10.8836
  63   2.0000      -0.343248        -9.3402
  64   2.0000      -0.331473        -9.0198
  65   2.0000      -0.326365        -8.8809
  66   2.0000      -0.291852        -7.9417
  67   0.0000       0.035980         0.9791
  68   0.0000       0.049848         1.3564
  69   0.0000       0.111962         3.0466
  70   0.0000       0.127717         3.4754
  71   0.0000       0.131769         3.5856

MULLIKEN ATOMIC CHARGES
-----------------------
   0 S :    0.129039
   1 C :   -0.093128
   2 C :   -0.090525
   3 C :    0.052968
   4 C :   -0.186246
   5 H :    0.002857
   6 C :    0.057795
   7 H :    0.021437
   8 H :    0.027405
   9 C :   -0.125076
  10 H :    0.045385
  11 H :    0.029530
  12 C :    0.020311
  13 H :    0.030730
  14 H :    0.021184
  15 H :    0.003265
  16 S :    0.107232
  17 C :   -0.128144
  18 C :   -0.009057
  19 C :   -0.050550
  20 C :   -0.169573
  21 H :    0.023177
  22 C :    0.102487
  23 H :   -0.003266
  24 H :    0.027743
  25 C :   -0.092525
  26 H :    0.037174
  27 H :    0.013734
  28 C :    0.001587
  29 H :    0.039026
  30 H :    0.011293
  31 H :    0.024854
  32 H :    0.032021
  33 H :    0.085854
Sum of atomic charges:   -0.0000000

LOEWDIN ATOMIC CHARGES
----------------------
   0 S :    0.428498
   1 C :   -0.201471
   2 C :   -0.072484
   3 C :   -0.058886
   4 C :   -0.199864
   5 H :    0.029124
   6 C :   -0.036709
   7 H :    0.029251
   8 H :    0.034443
   9 C :   -0.045493
  10 H :    0.033377
  11 H :    0.026278
  12 C :   -0.063493
  13 H :    0.031711
  14 H :    0.025938
  15 H :    0.011120
  16 S :    0.399731
  17 C :   -0.177890
  18 C :   -0.073432
  19 C :   -0.042811
  20 C :   -0.217364
  21 H :    0.036518
  22 C :   -0.025500
  23 H :    0.022865
  24 H :    0.027630
  25 C :   -0.045232
  26 H :    0.019369
  27 H :    0.022987
  28 C :   -0.051191
  29 H :    0.030955
  30 H :    0.015127
  31 H :    0.021286
  32 H :    0.022589
  33 H :    0.043024

  Mayer bond orders larger than 0.100000
B(  0-S ,  1-C ) :   1.1513 B(  0-S ,  4-C ) :   1.1718 B(  1-C ,  2-C ) :   1.5756
B(  1-C ,  4-C ) :   0.1116 B(  1-C , 32-H ) :   0.9691 B(  2-C ,  3-C ) :   1.2696
B(  2-C ,  6-C ) :   1.0329 B(  3-C ,  4-C ) :   1.5307 B(  3-C ,  5-H ) :   1.0049
B(  4-C , 20-C ) :   1.0387 B(  6-C ,  7-H ) :   0.9373 B(  6-C ,  8-H ) :   0.9509
B(  6-C ,  9-C ) :   1.0293 B(  9-C , 10-H ) :   0.9591 B(  9-C , 11-H ) :   0.9606
B(  9-C , 12-C ) :   1.0681 B( 12-C , 13-H ) :   0.9762 B( 12-C , 14-H ) :   0.9728
B( 12-C , 15-H ) :   0.9706 B( 16-S , 17-C ) :   1.1627 B( 16-S , 20-C ) :   1.1454
B( 17-C , 18-C ) :   1.5917 B( 17-C , 20-C ) :   0.1051 B( 17-C , 33-H ) :   0.9519
B( 18-C , 19-C ) :   1.2726 B( 18-C , 21-H ) :   0.9906 B( 19-C , 20-C ) :   1.5743
B( 19-C , 22-C ) :   1.0223 B( 22-C , 23-H ) :   0.9286 B( 22-C , 24-H ) :   0.9374
B( 22-C , 25-C ) :   1.0714 B( 25-C , 26-H ) :   0.9528 B( 25-C , 27-H ) :   0.9525
B( 25-C , 28-C ) :   1.0781 B( 28-C , 29-H ) :   0.9742 B( 28-C , 30-H ) :   0.9746
B( 28-C , 31-H ) :   0.9761

Dispersion correction           -0.014546569
FINAL SINGLE POINT ENERGY     -1339.856950337117

DIPOLE MOMENT
-------------
                                X             Y             Z
Electronic contribution:     20.59682     -14.37518       1.77202
Nuclear contribution   :    -20.84986      14.76219      -1.85525
                        -----------------------------------------
Total Dipole Moment    :     -0.25304       0.38701      -0.08322
                        -----------------------------------------
Magnitude (a.u.)       :      0.46983
Magnitude (Debye)      :      1.19421

Rotational constants in cm-1:     0.019958     0.008293     0.006791
Rotational constants in MHz :   598.337785   248.606778   203.593443

                             ****ORCA TERMINATED NORMALLY****
TOTAL RUN TIME: 0 days 0 hours 0 minutes 30 seconds 226 msec
