                         Program Version 4.2.1 -  RELEASE  -
|  1> ! wB97X-D3 SP def2-SVP
|  2> %pal
|  3> nprocs 16
|  4> end
|  5>
|  6> * xyz 0 1
|  7> S 	 -17.1284 	 -1.99138 	 79.7634
|  8> C 	 -16.2013 	 -1.73002 	 81.1941
|  9> C 	 -16.9338 	 -0.983019 	 82.1324
| 10> C 	 -18.2792 	 -0.690444 	 81.63
| 11> C 	 -18.5516 	 -1.31232 	 80.4591
| 12> H 	 -19.1023 	 -0.17534 	 82.1838
| 13> C 	 -16.3088 	 -0.390087 	 83.362
| 14> H 	 -16.4791 	 0.724659 	 83.376
| 15> H 	 -15.2718 	 -0.484865 	 83.2134
| 16> C 	 -16.8063 	 -0.814717 	 84.7845
| 17> H 	 -17.8815 	 -0.72833 	 84.8786
| 18> H 	 -16.6242 	 -1.94308 	 85.0467
| 19> C 	 -16.2372 	 0.0247727 	 85.8999
| 20> H 	 -16.5391 	 -0.367176 	 86.9338
| 21> H 	 -15.1288 	 0.0865707 	 85.7233
| 22> H 	 -16.6949 	 0.990659 	 85.7734
| 23> S 	 -19.7257 	 -0.983134 	 77.9506
| 24> C 	 -21.4256 	 -1.26636 	 77.8644
| 25> C 	 -22.0175 	 -1.16367 	 79.0975
| 26> C 	 -21.1216 	 -1.2318 	 80.2049
| 27> C 	 -19.8046 	 -1.16989 	 79.7008
| 28> H 	 -23.1092 	 -1.25587 	 79.1423
| 29> C 	 -21.6493 	 -1.37022 	 81.6194
| 30> H 	 -20.8581 	 -1.75555 	 82.3004
| 31> H 	 -22.308 	 -2.13792 	 81.4212
| 32> C 	 -22.2799 	 -0.109383 	 82.2433
| 33> H 	 -23.1334 	 0.137399 	 81.7257
| 34> H 	 -21.5082 	 0.613798 	 82.1088
| 35> C 	 -22.7188 	 -0.370671 	 83.7134
| 36> H 	 -23.4391 	 0.369639 	 84.1569
| 37> H 	 -21.838 	 -0.3538 	 84.2994
| 38> H 	 -23.2036 	 -1.36136 	 83.8795
| 39> H 	 -15.2111 	 -2.15427 	 81.3346
| 40> H 	 -22.0865 	 -1.18715 	 77.0028
| 41> *
| 42>
| 43>                          ****END OF INPUT****

CARTESIAN COORDINATES (ANGSTROEM)
---------------------------------
  S    -17.128400   -1.991380   79.763400
  C    -16.201300   -1.730020   81.194100
  C    -16.933800   -0.983019   82.132400
  C    -18.279200   -0.690444   81.630000
  C    -18.551600   -1.312320   80.459100
  H    -19.102300   -0.175340   82.183800
  C    -16.308800   -0.390087   83.362000
  H    -16.479100    0.724659   83.376000
  H    -15.271800   -0.484865   83.213400
  C    -16.806300   -0.814717   84.784500
  H    -17.881500   -0.728330   84.878600
  H    -16.624200   -1.943080   85.046700
  C    -16.237200    0.024773   85.899900
  H    -16.539100   -0.367176   86.933800
  H    -15.128800    0.086571   85.723300
  H    -16.694900    0.990659   85.773400
  S    -19.725700   -0.983134   77.950600
  C    -21.425600   -1.266360   77.864400
  C    -22.017500   -1.163670   79.097500
  C    -21.121600   -1.231800   80.204900
  C    -19.804600   -1.169890   79.700800
  H    -23.109200   -1.255870   79.142300
  C    -21.649300   -1.370220   81.619400
  H    -20.858100   -1.755550   82.300400
  H    -22.308000   -2.137920   81.421200
  C    -22.279900   -0.109383   82.243300
  H    -23.133400    0.137399   81.725700
  H    -21.508200    0.613798   82.108800
  C    -22.718800   -0.370671   83.713400
  H    -23.439100    0.369639   84.156900
  H    -21.838000   -0.353800   84.299400
  H    -23.203600   -1.361360   83.879500
  H    -15.211100   -2.154270   81.334600
  H    -22.086500   -1.187150   77.002800

 Total Charge           Charge          ....    0
 Multiplicity           Mult            ....    1
 Number of Electrons    NEL             ....  134
 Basis Dimension        Dim             ....  322

ORBITAL ENERGIES
----------------

  NO   OCC          E(Eh)            E(eV)
   0   2.0000     -88.969052     -2420.9710
   1   2.0000     -88.964052     -2420.8349
   2   2.0000     -10.329683      -281.0850
   3   2.0000     -10.324503      -280.9440
   4   2.0000     -10.315244      -280.6921
   5   2.0000     -10.311886      -280.6007
   6   2.0000     -10.307612      -280.4844
   7   2.0000     -10.304937      -280.4116
   8   2.0000     -10.296115      -280.1715
   9   2.0000     -10.295752      -280.1616
  10   2.0000     -10.293042      -280.0879
  11   2.0000     -10.291083      -280.0346
  12   2.0000     -10.290028      -280.0059
  13   2.0000     -10.285693      -279.8879
  14   2.0000     -10.285512      -279.8830
  15   2.0000     -10.285258      -279.8761
  16   2.0000      -8.083819      -219.9719
  17   2.0000      -8.079877      -219.8646
  18   2.0000      -6.042307      -164.4195
  19   2.0000      -6.038545      -164.3172
  20   2.0000      -6.038343      -164.3117
  21   2.0000      -6.034385      -164.2040
  22   2.0000      -6.034263      -164.2006
  23   2.0000      -6.030582      -164.1005
  24   2.0000      -1.009916       -27.4812
  25   2.0000      -0.987030       -26.8584
  26   2.0000      -0.915092       -24.9009
  27   2.0000      -0.910348       -24.7718
  28   2.0000      -0.870193       -23.6792
  29   2.0000      -0.856246       -23.2996
  30   2.0000      -0.847992       -23.0750
  31   2.0000      -0.816427       -22.2161
  32   2.0000      -0.783748       -21.3269
  33   2.0000      -0.768211       -20.9041
  34   2.0000      -0.714029       -19.4297
  35   2.0000      -0.697252       -18.9732
  36   2.0000      -0.689514       -18.7626
  37   2.0000      -0.658734       -17.9251
  38   2.0000      -0.640836       -17.4380
  39   2.0000      -0.618766       -16.8375
  40   2.0000      -0.593166       -16.1409
  41   2.0000      -0.578489       -15.7415
  42   2.0000      -0.567555       -15.4440
  43   2.0000      -0.558106       -15.1868
  44   2.0000      -0.531446       -14.4614
  45   2.0000      -0.518923       -14.1206
  46   2.0000      -0.516887       -14.0652
  47   2.0000      -0.509441       -13.8626
  48   2.0000      -0.504375       -13.7247
  49   2.0000      -0.498535       -13.5658
  50   2.0000      -0.494523       -13.4566
  51   2.0000      -0.486774       -13.2458
  52   2.0000      -0.467090       -12.7102
  53   2.0000      -0.465223       -12.6594
  54   2.0000      -0.455479       -12.3942
  55   2.0000      -0.452633       -12.3168
  56   2.0000      -0.447422       -12.1750
  57   2.0000      -0.437360       -11.9012
  58   2.0000      -0.435170       -11.8416
  59   2.0000      -0.429500       -11.6873
  60   2.0000      -0.428420       -11.6579
  61   2.0000      -0.421545       -11.4708
  62   2.0000      -0.410744       -11.1769
  63   2.0000      -0.355308        -9.6684
  64   2.0000      -0.332367        -9.0442
  65   2.0000      -0.325950        -8.8695
  66   2.0000      -0.286924        -7.8076
  67   0.0000       0.027699         0.7537
  68   0.0000       0.076954         2.0940
  69   0.0000       0.103341         2.8121
  70   0.0000       0.121143         3.2965
  71   0.0000       0.124163         3.3786

MULLIKEN ATOMIC CHARGES
-----------------------
   0 S :    0.106199
   1 C :   -0.131366
   2 C :   -0.072276
   3 C :    0.000522
   4 C :   -0.126598
   5 H :    0.026827
   6 C :    0.056721
   7 H :    0.033804
   8 H :    0.007269
   9 C :   -0.095026
  10 H :    0.021692
  11 H :    0.038181
  12 C :   -0.069751
  13 H :    0.053046
  14 H :    0.043995
  15 H :    0.027229
  16 S :    0.119828
  17 C :   -0.087362
  18 C :   -0.058432
  19 C :   -0.056746
  20 C :   -0.151419
  21 H :    0.023189
  22 C :    0.054813
  23 H :    0.031404
  24 H :    0.012320
  25 C :   -0.007439
  26 H :    0.011562
  27 H :    0.028597
  28 C :   -0.061559
  29 H :    0.045183
  30 H :    0.022369
  31 H :    0.037919
  32 H :    0.058633
  33 H :    0.056669
Sum of atomic charges:    0.0000000

LOEWDIN ATOMIC CHARGES
----------------------
   0 S :    0.419796
   1 C :   -0.206090
   2 C :   -0.058389
   3 C :   -0.070426
   4 C :   -0.199835
   5 H :    0.037275
   6 C :   -0.036671
   7 H :    0.041101
   8 H :    0.023533
   9 C :   -0.052675
  10 H :    0.018034
  11 H :    0.028559
  12 C :   -0.072247
  13 H :    0.037759
  14 H :    0.030021
  15 H :    0.019854
  16 S :    0.407437
  17 C :   -0.200104
  18 C :   -0.073469
  19 C :   -0.053252
  20 C :   -0.190317
  21 H :    0.031387
  22 C :   -0.027475
  23 H :    0.033400
  24 H :    0.022258
  25 C :   -0.022738
  26 H :    0.013467
  27 H :    0.022157
  28 C :   -0.067735
  29 H :    0.032458
  30 H :    0.018005
  31 H :    0.031395
  32 H :    0.030790
  33 H :    0.032737

  Mayer bond orders larger than 0.100000
B(  0-S ,  1-C ) :   1.1457 B(  0-S ,  4-C ) :   1.1506 B(  1-C ,  2-C ) :   1.5947
B(  1-C , 32-H ) :   0.9691 B(  2-C ,  3-C ) :   1.2258 B(  2-C ,  6-C ) :   1.0425
B(  3-C ,  4-C ) :   1.5835 B(  3-C ,  5-H ) :   0.9830 B(  4-C , 20-C ) :   1.0450
B(  6-C ,  7-H ) :   0.9405 B(  6-C ,  8-H ) :   0.9386 B(  6-C ,  9-C ) :   1.0415
B(  9-C , 10-H ) :   0.9581 B(  9-C , 11-H ) :   0.9548 B(  9-C , 12-C ) :   1.0774
B( 12-C , 13-H ) :   0.9718 B( 12-C , 14-H ) :   0.9754 B( 12-C , 15-H ) :   0.9741
B( 16-S , 17-C ) :   1.1408 B( 16-S , 20-C ) :   1.1455 B( 17-C , 18-C ) :   1.6436
B( 17-C , 33-H ) :   0.9595 B( 18-C , 19-C ) :   1.2449 B( 18-C , 21-H ) :   0.9775
B( 19-C , 20-C ) :   1.5807 B( 19-C , 22-C ) :   1.0286 B( 22-C , 23-H ) :   0.9358
B( 22-C , 24-H ) :   0.9223 B( 22-C , 25-C ) :   1.0618 B( 25-C , 26-H ) :   0.9524
B( 25-C , 27-H ) :   0.9594 B( 25-C , 28-C ) :   1.0721 B( 28-C , 29-H ) :   0.9768
B( 28-C , 30-H ) :   0.9767 B( 28-C , 31-H ) :   0.9743

Dispersion correction           -0.013635460
FINAL SINGLE POINT ENERGY     -1339.865495494917

DIPOLE MOMENT
-------------
                                X             Y             Z
Electronic contribution:      5.97843      -6.90362     -32.54578
Nuclear contribution   :     -6.32887       7.08863      33.13415
                        -----------------------------------------
Total Dipole Moment    :     -0.35044       0.18501       0.58836
                        -----------------------------------------
Magnitude (a.u.)       :      0.70937
Magnitude (Debye)      :      1.80308

Rotational constants in cm-1:     0.016730     0.009198     0.006156
Rotational constants in MHz :   501.546913   275.740143   184.554583

                             ****ORCA TERMINATED NORMALLY****
TOTAL RUN TIME: 0 days 0 hours 0 minutes 31 seconds 542 msec
