                         Program Version 4.2.1 -  RELEASE  -
|  1> ! wB97X-D3 SP def2-SVP
|  2> %pal
|  3> nprocs 16
|  4> end
|  5>
|  6> * xyz 0 1
|  7> S 	 -33.2541 	 63.7813 	 111.577
|  8> C 	 -33.4208 	 62.2107 	 112.35
|  9> C 	 -34.3121 	 61.2973 	 111.689
| 10> C 	 -35.0597 	 62.0551 	 110.712
| 11> C 	 -34.5715 	 63.3435 	 110.608
| 12> H 	 -35.8659 	 61.5912 	 110.048
| 13> C 	 -34.6616 	 59.8679 	 112.121
| 14> H 	 -35.3442 	 59.4579 	 111.384
| 15> H 	 -35.186 	 59.9192 	 113.077
| 16> C 	 -33.5741 	 58.9514 	 112.576
| 17> H 	 -32.7879 	 59.5404 	 113.116
| 18> H 	 -34.055 	 58.194 	 113.162
| 19> C 	 -32.8452 	 58.4013 	 111.399
| 20> H 	 -31.9648 	 57.7061 	 111.69
| 21> H 	 -33.5727 	 57.8375 	 110.717
| 22> H 	 -32.507 	 59.2667 	 110.778
| 23> S 	 -34.4841 	 64.2147 	 107.973
| 24> C 	 -35.6425 	 65.4077 	 107.457
| 25> C 	 -36.523 	 65.6901 	 108.458
| 26> C 	 -36.2653 	 65.0024 	 109.689
| 27> C 	 -35.0926 	 64.2716 	 109.632
| 28> H 	 -37.44 	 66.3112 	 108.189
| 29> C 	 -37.2442 	 64.9951 	 110.873
| 30> H 	 -36.5911 	 65.0165 	 111.715
| 31> H 	 -37.6185 	 64.0204 	 111.113
| 32> C 	 -38.3726 	 66.0805 	 110.984
| 33> H 	 -38.0107 	 67.0196 	 110.559
| 34> H 	 -38.6881 	 66.1834 	 111.994
| 35> C 	 -39.6734 	 65.6379 	 110.154
| 36> H 	 -39.9895 	 64.6238 	 110.396
| 37> H 	 -39.4815 	 65.7721 	 109.034
| 38> H 	 -40.5884 	 66.1396 	 110.451
| 39> H 	 -32.8566 	 62.0034 	 113.215
| 40> H 	 -35.7959 	 65.6292 	 106.421
| 41> *
| 42>
| 43>                          ****END OF INPUT****

CARTESIAN COORDINATES (ANGSTROEM)
---------------------------------
  S    -33.254100   63.781300  111.577000
  C    -33.420800   62.210700  112.350000
  C    -34.312100   61.297300  111.689000
  C    -35.059700   62.055100  110.712000
  C    -34.571500   63.343500  110.608000
  H    -35.865900   61.591200  110.048000
  C    -34.661600   59.867900  112.121000
  H    -35.344200   59.457900  111.384000
  H    -35.186000   59.919200  113.077000
  C    -33.574100   58.951400  112.576000
  H    -32.787900   59.540400  113.116000
  H    -34.055000   58.194000  113.162000
  C    -32.845200   58.401300  111.399000
  H    -31.964800   57.706100  111.690000
  H    -33.572700   57.837500  110.717000
  H    -32.507000   59.266700  110.778000
  S    -34.484100   64.214700  107.973000
  C    -35.642500   65.407700  107.457000
  C    -36.523000   65.690100  108.458000
  C    -36.265300   65.002400  109.689000
  C    -35.092600   64.271600  109.632000
  H    -37.440000   66.311200  108.189000
  C    -37.244200   64.995100  110.873000
  H    -36.591100   65.016500  111.715000
  H    -37.618500   64.020400  111.113000
  C    -38.372600   66.080500  110.984000
  H    -38.010700   67.019600  110.559000
  H    -38.688100   66.183400  111.994000
  C    -39.673400   65.637900  110.154000
  H    -39.989500   64.623800  110.396000
  H    -39.481500   65.772100  109.034000
  H    -40.588400   66.139600  110.451000
  H    -32.856600   62.003400  113.215000
  H    -35.795900   65.629200  106.421000

 Total Charge           Charge          ....    0
 Multiplicity           Mult            ....    1
 Number of Electrons    NEL             ....  134
 Basis Dimension        Dim             ....  322

ORBITAL ENERGIES
----------------

  NO   OCC          E(Eh)            E(eV)
   0   2.0000     -88.974201     -2421.1111
   1   2.0000     -88.959426     -2420.7090
   2   2.0000     -10.321037      -280.8497
   3   2.0000     -10.316952      -280.7385
   4   2.0000     -10.315358      -280.6952
   5   2.0000     -10.312181      -280.6087
   6   2.0000     -10.310512      -280.5633
   7   2.0000     -10.303737      -280.3790
   8   2.0000     -10.302065      -280.3334
   9   2.0000     -10.294182      -280.1189
  10   2.0000     -10.293762      -280.1075
  11   2.0000     -10.293095      -280.0894
  12   2.0000     -10.287402      -279.9344
  13   2.0000     -10.284880      -279.8658
  14   2.0000     -10.284566      -279.8573
  15   2.0000     -10.284381      -279.8522
  16   2.0000      -8.089503      -220.1266
  17   2.0000      -8.074317      -219.7133
  18   2.0000      -6.047586      -164.5632
  19   2.0000      -6.044182      -164.4705
  20   2.0000      -6.040432      -164.3685
  21   2.0000      -6.032837      -164.1618
  22   2.0000      -6.028876      -164.0541
  23   2.0000      -6.024993      -163.9484
  24   2.0000      -1.008626       -27.4461
  25   2.0000      -0.982436       -26.7334
  26   2.0000      -0.924719       -25.1629
  27   2.0000      -0.897701       -24.4277
  28   2.0000      -0.866801       -23.5869
  29   2.0000      -0.855288       -23.2736
  30   2.0000      -0.838765       -22.8239
  31   2.0000      -0.806190       -21.9376
  32   2.0000      -0.783762       -21.3273
  33   2.0000      -0.771041       -20.9811
  34   2.0000      -0.705123       -19.1874
  35   2.0000      -0.701606       -19.0917
  36   2.0000      -0.691717       -18.8226
  37   2.0000      -0.646291       -17.5865
  38   2.0000      -0.642865       -17.4933
  39   2.0000      -0.611839       -16.6490
  40   2.0000      -0.602525       -16.3955
  41   2.0000      -0.577238       -15.7074
  42   2.0000      -0.553569       -15.0634
  43   2.0000      -0.543265       -14.7830
  44   2.0000      -0.538351       -14.6493
  45   2.0000      -0.535984       -14.5849
  46   2.0000      -0.517685       -14.0869
  47   2.0000      -0.510555       -13.8929
  48   2.0000      -0.501392       -13.6436
  49   2.0000      -0.487134       -13.2556
  50   2.0000      -0.481570       -13.1042
  51   2.0000      -0.474315       -12.9068
  52   2.0000      -0.468577       -12.7506
  53   2.0000      -0.465262       -12.6604
  54   2.0000      -0.459910       -12.5148
  55   2.0000      -0.449467       -12.2306
  56   2.0000      -0.445348       -12.1185
  57   2.0000      -0.432828       -11.7778
  58   2.0000      -0.428144       -11.6504
  59   2.0000      -0.425959       -11.5909
  60   2.0000      -0.421707       -11.4752
  61   2.0000      -0.419857       -11.4249
  62   2.0000      -0.417340       -11.3564
  63   2.0000      -0.337946        -9.1960
  64   2.0000      -0.326592        -8.8870
  65   2.0000      -0.313379        -8.5275
  66   2.0000      -0.305555        -8.3146
  67   0.0000       0.043350         1.1796
  68   0.0000       0.052553         1.4300
  69   0.0000       0.105002         2.8573
  70   0.0000       0.115887         3.1534
  71   0.0000       0.122487         3.3330

MULLIKEN ATOMIC CHARGES
-----------------------
   0 S :    0.151645
   1 C :   -0.131982
   2 C :   -0.084029
   3 C :    0.008446
   4 C :   -0.196485
   5 H :    0.049899
   6 C :    0.056484
   7 H :    0.020464
   8 H :    0.041794
   9 C :   -0.049669
  10 H :    0.037975
  11 H :    0.028735
  12 C :   -0.102808
  13 H :    0.052154
  14 H :    0.026936
  15 H :    0.044171
  16 S :    0.100120
  17 C :   -0.085611
  18 C :   -0.073031
  19 C :   -0.014817
  20 C :   -0.177665
  21 H :    0.039669
  22 C :    0.103900
  23 H :    0.009989
  24 H :    0.011301
  25 C :   -0.035937
  26 H :    0.039440
  27 H :    0.028985
  28 C :   -0.083882
  29 H :    0.023027
  30 H :    0.045382
  31 H :    0.028625
  32 H :    0.033460
  33 H :    0.053314
Sum of atomic charges:   -0.0000000

LOEWDIN ATOMIC CHARGES
----------------------
   0 S :    0.446286
   1 C :   -0.197178
   2 C :   -0.052483
   3 C :   -0.065316
   4 C :   -0.223974
   5 H :    0.048217
   6 C :   -0.035739
   7 H :    0.028475
   8 H :    0.042809
   9 C :   -0.046790
  10 H :    0.034054
  11 H :    0.023079
  12 C :   -0.080395
  13 H :    0.031955
  14 H :    0.024639
  15 H :    0.030919
  16 S :    0.396431
  17 C :   -0.186250
  18 C :   -0.086921
  19 C :   -0.046855
  20 C :   -0.209310
  21 H :    0.041184
  22 C :   -0.036446
  23 H :    0.032448
  24 H :    0.030947
  25 C :   -0.027423
  26 H :    0.026118
  27 H :    0.024045
  28 C :   -0.076274
  29 H :    0.022089
  30 H :    0.029720
  31 H :    0.022614
  32 H :    0.008798
  33 H :    0.026526

  Mayer bond orders larger than 0.100000
B(  0-S ,  1-C ) :   1.1554 B(  0-S ,  4-C ) :   1.1789 B(  1-C ,  2-C ) :   1.5711
B(  1-C , 32-H ) :   0.9751 B(  2-C ,  3-C ) :   1.2485 B(  2-C ,  6-C ) :   1.0234
B(  3-C ,  4-C ) :   1.5751 B(  3-C ,  5-H ) :   0.9803 B(  4-C , 20-C ) :   1.0043
B(  6-C ,  7-H ) :   0.9431 B(  6-C ,  8-H ) :   0.9341 B(  6-C ,  9-C ) :   1.0648
B(  9-C , 10-H ) :   0.9490 B(  9-C , 11-H ) :   0.9534 B(  9-C , 12-C ) :   1.0805
B( 12-C , 13-H ) :   0.9725 B( 12-C , 14-H ) :   0.9720 B( 12-C , 15-H ) :   0.9730
B( 16-S , 17-C ) :   1.1568 B( 16-S , 20-C ) :   1.1424 B( 17-C , 18-C ) :   1.6251
B( 17-C , 33-H ) :   0.9652 B( 18-C , 19-C ) :   1.2423 B( 18-C , 21-H ) :   0.9710
B( 19-C , 20-C ) :   1.6100 B( 19-C , 22-C ) :   1.0299 B( 22-C , 23-H ) :   0.9108
B( 22-C , 24-H ) :   0.9248 B( 22-C , 25-C ) :   1.0657 B( 25-C , 26-H ) :   0.9612
B( 25-C , 27-H ) :   0.9557 B( 25-C , 28-C ) :   1.0655 B( 28-C , 29-H ) :   0.9751
B( 28-C , 30-H ) :   0.9781 B( 28-C , 31-H ) :   0.9757

Dispersion correction           -0.014234480
FINAL SINGLE POINT ENERGY     -1339.852053198049

DIPOLE MOMENT
-------------
                                X             Y             Z
Electronic contribution:     14.49431      11.72026      -8.43956
Nuclear contribution   :    -15.04667     -12.09842       8.80710
                        -----------------------------------------
Total Dipole Moment    :     -0.55236      -0.37815       0.36754
                        -----------------------------------------
Magnitude (a.u.)       :      0.76367
Magnitude (Debye)      :      1.94109

Rotational constants in cm-1:     0.021786     0.007246     0.006471
Rotational constants in MHz :   653.116078   217.219107   194.000420

                             ****ORCA TERMINATED NORMALLY****
TOTAL RUN TIME: 0 days 0 hours 0 minutes 27 seconds 796 msec
