                         Program Version 4.2.1 -  RELEASE  -
|  1> ! wB97X-D3 SP def2-SVP
|  2> %pal
|  3> nprocs 16
|  4> end
|  5>
|  6> * xyz 0 1
|  7> S 	 -26.2743 	 43.9729 	 58.0664
|  8> C 	 -26.2536 	 45.7036 	 58.0084
|  9> C 	 -25.0418 	 46.2107 	 57.6105
| 10> C 	 -24.239 	 45.1677 	 57.038
| 11> C 	 -24.7647 	 43.9138 	 57.2117
| 12> H 	 -23.3445 	 45.1582 	 56.5953
| 13> C 	 -24.686 	 47.6495 	 57.4338
| 14> H 	 -24.6103 	 47.7017 	 56.3131
| 15> H 	 -23.6217 	 47.8206 	 57.7943
| 16> C 	 -25.5469 	 48.7636 	 58.0311
| 17> H 	 -25.0996 	 49.7028 	 57.638
| 18> H 	 -26.5849 	 48.5998 	 57.8614
| 19> C 	 -25.4987 	 48.7507 	 59.5808
| 20> H 	 -24.5242 	 49.1916 	 59.9558
| 21> H 	 -26.3514 	 49.2888 	 60.0111
| 22> H 	 -25.5678 	 47.8069 	 60.0818
| 23> S 	 -23.6451 	 41.6693 	 58.3813
| 24> C 	 -22.7645 	 40.5037 	 57.3197
| 25> C 	 -22.826 	 40.8963 	 55.9969
| 26> C 	 -23.5968 	 42.107 	 55.8215
| 27> C 	 -24.0105 	 42.7213 	 56.9985
| 28> H 	 -22.4678 	 40.2553 	 55.1954
| 29> C 	 -23.996 	 42.6406 	 54.4622
| 30> H 	 -23.2941 	 42.0858 	 53.8333
| 31> H 	 -23.6937 	 43.6953 	 54.4798
| 32> C 	 -25.438 	 42.3157 	 53.9941
| 33> H 	 -25.5651 	 42.6395 	 52.9627
| 34> H 	 -26.0861 	 42.9916 	 54.6376
| 35> C 	 -25.8647 	 40.8931 	 54.2328
| 36> H 	 -26.7771 	 40.8627 	 53.7362
| 37> H 	 -26.0885 	 40.6411 	 55.3096
| 38> H 	 -25.0714 	 40.2465 	 53.8622
| 39> H 	 -27.0494 	 46.2605 	 58.3928
| 40> H 	 -22.451 	 39.5372 	 57.7486
| 41> *
| 42>
| 43>                          ****END OF INPUT****

CARTESIAN COORDINATES (ANGSTROEM)
---------------------------------
  S    -26.274300   43.972900   58.066400
  C    -26.253600   45.703600   58.008400
  C    -25.041800   46.210700   57.610500
  C    -24.239000   45.167700   57.038000
  C    -24.764700   43.913800   57.211700
  H    -23.344500   45.158200   56.595300
  C    -24.686000   47.649500   57.433800
  H    -24.610300   47.701700   56.313100
  H    -23.621700   47.820600   57.794300
  C    -25.546900   48.763600   58.031100
  H    -25.099600   49.702800   57.638000
  H    -26.584900   48.599800   57.861400
  C    -25.498700   48.750700   59.580800
  H    -24.524200   49.191600   59.955800
  H    -26.351400   49.288800   60.011100
  H    -25.567800   47.806900   60.081800
  S    -23.645100   41.669300   58.381300
  C    -22.764500   40.503700   57.319700
  C    -22.826000   40.896300   55.996900
  C    -23.596800   42.107000   55.821500
  C    -24.010500   42.721300   56.998500
  H    -22.467800   40.255300   55.195400
  C    -23.996000   42.640600   54.462200
  H    -23.294100   42.085800   53.833300
  H    -23.693700   43.695300   54.479800
  C    -25.438000   42.315700   53.994100
  H    -25.565100   42.639500   52.962700
  H    -26.086100   42.991600   54.637600
  C    -25.864700   40.893100   54.232800
  H    -26.777100   40.862700   53.736200
  H    -26.088500   40.641100   55.309600
  H    -25.071400   40.246500   53.862200
  H    -27.049400   46.260500   58.392800
  H    -22.451000   39.537200   57.748600

 Total Charge           Charge          ....    0
 Multiplicity           Mult            ....    1
 Number of Electrons    NEL             ....  134
 Basis Dimension        Dim             ....  322

ORBITAL ENERGIES
----------------

  NO   OCC          E(Eh)            E(eV)
   0   2.0000     -88.964816     -2420.8557
   1   2.0000     -88.961154     -2420.7561
   2   2.0000     -10.324617      -280.9471
   3   2.0000     -10.322217      -280.8818
   4   2.0000     -10.321933      -280.8741
   5   2.0000     -10.308737      -280.5150
   6   2.0000     -10.303435      -280.3707
   7   2.0000     -10.300588      -280.2932
   8   2.0000     -10.300088      -280.2796
   9   2.0000     -10.299075      -280.2521
  10   2.0000     -10.293551      -280.1018
  11   2.0000     -10.286657      -279.9142
  12   2.0000     -10.285439      -279.8810
  13   2.0000     -10.284442      -279.8539
  14   2.0000     -10.280578      -279.7488
  15   2.0000     -10.270673      -279.4792
  16   2.0000      -8.080319      -219.8767
  17   2.0000      -8.074942      -219.7303
  18   2.0000      -6.038746      -164.3226
  19   2.0000      -6.034824      -164.2159
  20   2.0000      -6.033537      -164.1809
  21   2.0000      -6.031017      -164.1123
  22   2.0000      -6.029601      -164.0738
  23   2.0000      -6.025650      -163.9663
  24   2.0000      -1.009773       -27.4773
  25   2.0000      -0.979327       -26.6488
  26   2.0000      -0.915042       -24.8996
  27   2.0000      -0.905298       -24.6344
  28   2.0000      -0.872850       -23.7515
  29   2.0000      -0.855800       -23.2875
  30   2.0000      -0.844065       -22.9682
  31   2.0000      -0.814733       -22.1700
  32   2.0000      -0.782536       -21.2939
  33   2.0000      -0.770107       -20.9557
  34   2.0000      -0.710818       -19.3423
  35   2.0000      -0.704400       -19.1677
  36   2.0000      -0.682492       -18.5716
  37   2.0000      -0.665773       -18.1166
  38   2.0000      -0.654810       -17.8183
  39   2.0000      -0.605492       -16.4763
  40   2.0000      -0.584420       -15.9029
  41   2.0000      -0.576275       -15.6812
  42   2.0000      -0.560102       -15.2411
  43   2.0000      -0.551931       -15.0188
  44   2.0000      -0.550566       -14.9817
  45   2.0000      -0.537870       -14.6362
  46   2.0000      -0.522004       -14.2044
  47   2.0000      -0.513050       -13.9608
  48   2.0000      -0.503577       -13.7030
  49   2.0000      -0.490398       -13.3444
  50   2.0000      -0.485363       -13.2074
  51   2.0000      -0.481829       -13.1112
  52   2.0000      -0.479619       -13.0511
  53   2.0000      -0.462082       -12.5739
  54   2.0000      -0.461148       -12.5485
  55   2.0000      -0.444885       -12.1059
  56   2.0000      -0.439329       -11.9548
  57   2.0000      -0.431447       -11.7403
  58   2.0000      -0.429399       -11.6845
  59   2.0000      -0.427004       -11.6194
  60   2.0000      -0.423626       -11.5275
  61   2.0000      -0.418202       -11.3798
  62   2.0000      -0.402097       -10.9416
  63   2.0000      -0.344673        -9.3790
  64   2.0000      -0.328144        -8.9293
  65   2.0000      -0.325694        -8.8626
  66   2.0000      -0.293352        -7.9825
  67   0.0000       0.034313         0.9337
  68   0.0000       0.062031         1.6880
  69   0.0000       0.111996         3.0476
  70   0.0000       0.120662         3.2834
  71   0.0000       0.126693         3.4475

MULLIKEN ATOMIC CHARGES
-----------------------
   0 S :    0.114478
   1 C :   -0.111611
   2 C :   -0.041768
   3 C :    0.080365
   4 C :   -0.165515
   5 H :   -0.041870
   6 C :   -0.003539
   7 H :    0.051708
   8 H :    0.038956
   9 C :   -0.018489
  10 H :    0.047566
  11 H :    0.025014
  12 C :   -0.096491
  13 H :    0.035231
  14 H :    0.034966
  15 H :    0.034935
  16 S :    0.081206
  17 C :   -0.115805
  18 C :   -0.006551
  19 C :   -0.113122
  20 C :   -0.153876
  21 H :    0.026771
  22 C :    0.094318
  23 H :    0.004275
  24 H :    0.029706
  25 C :   -0.087407
  26 H :    0.035834
  27 H :    0.036135
  28 C :   -0.016788
  29 H :    0.024824
  30 H :    0.050463
  31 H :    0.026180
  32 H :    0.025911
  33 H :    0.073992
Sum of atomic charges:    0.0000000

LOEWDIN ATOMIC CHARGES
----------------------
   0 S :    0.412235
   1 C :   -0.193200
   2 C :   -0.057689
   3 C :   -0.036883
   4 C :   -0.198447
   5 H :    0.010225
   6 C :   -0.044546
   7 H :    0.042841
   8 H :    0.039344
   9 C :   -0.038478
  10 H :    0.038076
  11 H :    0.020220
  12 C :   -0.074675
  13 H :    0.029514
  14 H :    0.026655
  15 H :    0.021874
  16 S :    0.364880
  17 C :   -0.167755
  18 C :   -0.072917
  19 C :   -0.059719
  20 C :   -0.193672
  21 H :    0.034351
  22 C :   -0.037933
  23 H :    0.023129
  24 H :    0.032340
  25 C :   -0.040099
  26 H :    0.023830
  27 H :    0.029799
  28 C :   -0.061508
  29 H :    0.021526
  30 H :    0.037584
  31 H :    0.022647
  32 H :    0.012624
  33 H :    0.033825

  Mayer bond orders larger than 0.100000
B(  0-S ,  1-C ) :   1.1339 B(  0-S ,  4-C ) :   1.1325 B(  1-C ,  2-C ) :   1.6126
B(  1-C , 32-H ) :   0.9732 B(  2-C ,  3-C ) :   1.2042 B(  2-C ,  6-C ) :   1.0175
B(  3-C ,  4-C ) :   1.6000 B(  3-C ,  5-H ) :   1.0076 B(  4-C , 20-C ) :   1.0624
B(  6-C ,  7-H ) :   0.9406 B(  6-C ,  8-H ) :   0.9349 B(  6-C ,  9-C ) :   1.0822
B(  9-C , 10-H ) :   0.9530 B(  9-C , 11-H ) :   0.9538 B(  9-C , 12-C ) :   1.0658
B( 12-C , 13-H ) :   0.9750 B( 12-C , 14-H ) :   0.9786 B( 12-C , 15-H ) :   0.9779
B( 16-S , 17-C ) :   1.1453 B( 16-S , 20-C ) :   1.1174 B( 17-C , 18-C ) :   1.6108
B( 17-C , 33-H ) :   0.9639 B( 18-C , 19-C ) :   1.2400 B( 18-C , 21-H ) :   0.9835
B( 19-C , 20-C ) :   1.6054 B( 19-C , 22-C ) :   1.0315 B( 22-C , 23-H ) :   0.9272
B( 22-C , 24-H ) :   0.9313 B( 22-C , 25-C ) :   1.0655 B( 25-C , 26-H ) :   0.9602
B( 25-C , 27-H ) :   0.9509 B( 25-C , 28-C ) :   1.0785 B( 28-C , 29-H ) :   0.9699
B( 28-C , 30-H ) :   0.9655 B( 28-C , 31-H ) :   0.9770

Dispersion correction           -0.015359672
FINAL SINGLE POINT ENERGY     -1339.865321916170

DIPOLE MOMENT
-------------
                                X             Y             Z
Electronic contribution:      3.08678     -13.88839       9.87231
Nuclear contribution   :     -3.06914      14.21055     -10.25431
                        -----------------------------------------
Total Dipole Moment    :      0.01764       0.32216      -0.38200
                        -----------------------------------------
Magnitude (a.u.)       :      0.50002
Magnitude (Debye)      :      1.27095

Rotational constants in cm-1:     0.025287     0.007589     0.006883
Rotational constants in MHz :   758.084212   227.503239   206.348187

                             ****ORCA TERMINATED NORMALLY****
TOTAL RUN TIME: 0 days 0 hours 0 minutes 35 seconds 584 msec
