                         Program Version 4.2.1 -  RELEASE  -
|  1> ! wB97X-D3 SP def2-SVP
|  2> %pal
|  3> nprocs 16
|  4> end
|  5>
|  6> * xyz 0 1
|  7> S 	 -37.3617 	 48.8348 	 97.0459
|  8> C 	 -36.0379 	 48.6965 	 95.9408
|  9> C 	 -35.7989 	 49.9026 	 95.3404
| 10> C 	 -36.425 	 50.9891 	 96.0643
| 11> C 	 -37.2384 	 50.5802 	 97.0491
| 12> H 	 -36.3262 	 52.0243 	 95.859
| 13> C 	 -34.8739 	 50.232 	 94.1528
| 14> H 	 -35.2793 	 51.2259 	 93.8762
| 15> H 	 -35.0419 	 49.4981 	 93.3798
| 16> C 	 -33.3736 	 50.3552 	 94.3651
| 17> H 	 -32.8504 	 49.3713 	 94.4634
| 18> H 	 -32.9426 	 50.7654 	 93.4853
| 19> C 	 -33.0373 	 51.2135 	 95.5831
| 20> H 	 -31.9629 	 51.3224 	 95.6829
| 21> H 	 -33.6116 	 52.1193 	 95.5335
| 22> H 	 -33.2706 	 50.6427 	 96.4992
| 23> S 	 -39.8226 	 51.3139 	 97.8842
| 24> C 	 -40.0432 	 52.4277 	 99.2142
| 25> C 	 -38.8817 	 53.1299 	 99.4055
| 26> C 	 -37.7712 	 52.4123 	 98.8218
| 27> C 	 -38.1073 	 51.4254 	 97.8987
| 28> H 	 -38.7683 	 53.8853 	 100.131
| 29> C 	 -36.3634 	 52.7518 	 99.2074
| 30> H 	 -35.5706 	 51.9853 	 99.1165
| 31> H 	 -36.5053 	 52.7522 	 100.283
| 32> C 	 -35.667 	 53.9931 	 98.6784
| 33> H 	 -36.2902 	 54.8539 	 98.8223
| 34> H 	 -35.6604 	 53.9254 	 97.5741
| 35> C 	 -34.1904 	 54.2489 	 99.2306
| 36> H 	 -33.9052 	 53.6502 	 100.1
| 37> H 	 -34.1759 	 55.2743 	 99.5926
| 38> H 	 -33.5367 	 54.0173 	 98.3802
| 39> H 	 -35.6354 	 47.7374 	 95.4948
| 40> H 	 -40.968 	 52.6133 	 99.7513
| 41> *
| 42>
| 43>                          ****END OF INPUT****

CARTESIAN COORDINATES (ANGSTROEM)
---------------------------------
  S    -37.361700   48.834800   97.045900
  C    -36.037900   48.696500   95.940800
  C    -35.798900   49.902600   95.340400
  C    -36.425000   50.989100   96.064300
  C    -37.238400   50.580200   97.049100
  H    -36.326200   52.024300   95.859000
  C    -34.873900   50.232000   94.152800
  H    -35.279300   51.225900   93.876200
  H    -35.041900   49.498100   93.379800
  C    -33.373600   50.355200   94.365100
  H    -32.850400   49.371300   94.463400
  H    -32.942600   50.765400   93.485300
  C    -33.037300   51.213500   95.583100
  H    -31.962900   51.322400   95.682900
  H    -33.611600   52.119300   95.533500
  H    -33.270600   50.642700   96.499200
  S    -39.822600   51.313900   97.884200
  C    -40.043200   52.427700   99.214200
  C    -38.881700   53.129900   99.405500
  C    -37.771200   52.412300   98.821800
  C    -38.107300   51.425400   97.898700
  H    -38.768300   53.885300  100.131000
  C    -36.363400   52.751800   99.207400
  H    -35.570600   51.985300   99.116500
  H    -36.505300   52.752200  100.283000
  C    -35.667000   53.993100   98.678400
  H    -36.290200   54.853900   98.822300
  H    -35.660400   53.925400   97.574100
  C    -34.190400   54.248900   99.230600
  H    -33.905200   53.650200  100.100000
  H    -34.175900   55.274300   99.592600
  H    -33.536700   54.017300   98.380200
  H    -35.635400   47.737400   95.494800
  H    -40.968000   52.613300   99.751300

 Total Charge           Charge          ....    0
 Multiplicity           Mult            ....    1
 Number of Electrons    NEL             ....  134
 Basis Dimension        Dim             ....  322

ORBITAL ENERGIES
----------------

  NO   OCC          E(Eh)            E(eV)
   0   2.0000     -88.963421     -2420.8178
   1   2.0000     -88.961189     -2420.7570
   2   2.0000     -10.327097      -281.0146
   3   2.0000     -10.323577      -280.9188
   4   2.0000     -10.319602      -280.8106
   5   2.0000     -10.316912      -280.7375
   6   2.0000     -10.301607      -280.3210
   7   2.0000     -10.301022      -280.3051
   8   2.0000     -10.294044      -280.1152
   9   2.0000     -10.292845      -280.0825
  10   2.0000     -10.289786      -279.9993
  11   2.0000     -10.286441      -279.9083
  12   2.0000     -10.285533      -279.8836
  13   2.0000     -10.283589      -279.8307
  14   2.0000     -10.283555      -279.8298
  15   2.0000     -10.274825      -279.5922
  16   2.0000      -8.078751      -219.8340
  17   2.0000      -8.076681      -219.7777
  18   2.0000      -6.037313      -164.2836
  19   2.0000      -6.035224      -164.2268
  20   2.0000      -6.033296      -164.1743
  21   2.0000      -6.031045      -164.1131
  22   2.0000      -6.029279      -164.0650
  23   2.0000      -6.027382      -164.0134
  24   2.0000      -1.011083       -27.5130
  25   2.0000      -0.990882       -26.9633
  26   2.0000      -0.913198       -24.8494
  27   2.0000      -0.904027       -24.5998
  28   2.0000      -0.872029       -23.7291
  29   2.0000      -0.847978       -23.0747
  30   2.0000      -0.843530       -22.9536
  31   2.0000      -0.820353       -22.3229
  32   2.0000      -0.782575       -21.2950
  33   2.0000      -0.770477       -20.9657
  34   2.0000      -0.704652       -19.1746
  35   2.0000      -0.703320       -19.1383
  36   2.0000      -0.693452       -18.8698
  37   2.0000      -0.663768       -18.0620
  38   2.0000      -0.641320       -17.4512
  39   2.0000      -0.615618       -16.7518
  40   2.0000      -0.598916       -16.2973
  41   2.0000      -0.572945       -15.5906
  42   2.0000      -0.561160       -15.2699
  43   2.0000      -0.555786       -15.1237
  44   2.0000      -0.544945       -14.8287
  45   2.0000      -0.520645       -14.1675
  46   2.0000      -0.516016       -14.0415
  47   2.0000      -0.515591       -14.0299
  48   2.0000      -0.508292       -13.8313
  49   2.0000      -0.497489       -13.5374
  50   2.0000      -0.490713       -13.3530
  51   2.0000      -0.475052       -12.9268
  52   2.0000      -0.470298       -12.7975
  53   2.0000      -0.469791       -12.7837
  54   2.0000      -0.462543       -12.5864
  55   2.0000      -0.447606       -12.1800
  56   2.0000      -0.443472       -12.0675
  57   2.0000      -0.438308       -11.9270
  58   2.0000      -0.436586       -11.8801
  59   2.0000      -0.425795       -11.5865
  60   2.0000      -0.416801       -11.3417
  61   2.0000      -0.409300       -11.1376
  62   2.0000      -0.398208       -10.8358
  63   2.0000      -0.346287        -9.4229
  64   2.0000      -0.328186        -8.9304
  65   2.0000      -0.325452        -8.8560
  66   2.0000      -0.299952        -8.1621
  67   0.0000       0.035552         0.9674
  68   0.0000       0.067951         1.8491
  69   0.0000       0.108741         2.9590
  70   0.0000       0.117806         3.2057
  71   0.0000       0.123594         3.3632

MULLIKEN ATOMIC CHARGES
-----------------------
   0 S :    0.113810
   1 C :   -0.126818
   2 C :   -0.114379
   3 C :    0.039949
   4 C :   -0.142703
   5 H :   -0.001127
   6 C :    0.068370
   7 H :    0.025022
   8 H :    0.028401
   9 C :   -0.054922
  10 H :    0.026380
  11 H :    0.022535
  12 C :   -0.051252
  13 H :    0.030311
  14 H :    0.028354
  15 H :    0.043043
  16 S :    0.098957
  17 C :   -0.102787
  18 C :    0.017556
  19 C :   -0.079185
  20 C :   -0.123968
  21 H :    0.008641
  22 C :    0.029081
  23 H :    0.027748
  24 H :    0.018651
  25 C :   -0.065855
  26 H :    0.010184
  27 H :    0.019408
  28 C :   -0.055618
  29 H :    0.036448
  30 H :    0.039540
  31 H :    0.051719
  32 H :    0.068447
  33 H :    0.066058
Sum of atomic charges:   -0.0000000

LOEWDIN ATOMIC CHARGES
----------------------
   0 S :    0.408913
   1 C :   -0.208147
   2 C :   -0.066118
   3 C :   -0.054533
   4 C :   -0.188264
   5 H :    0.025257
   6 C :   -0.030581
   7 H :    0.033823
   8 H :    0.029723
   9 C :   -0.040808
  10 H :    0.026128
  11 H :    0.019463
  12 C :   -0.065099
  13 H :    0.025714
  14 H :    0.019231
  15 H :    0.031809
  16 S :    0.409848
  17 C :   -0.176466
  18 C :   -0.063871
  19 C :   -0.057588
  20 C :   -0.213811
  21 H :    0.024248
  22 C :   -0.048013
  23 H :    0.033413
  24 H :    0.029663
  25 C :   -0.040544
  26 H :    0.013547
  27 H :    0.021893
  28 C :   -0.065243
  29 H :    0.026524
  30 H :    0.030212
  31 H :    0.032978
  32 H :    0.043093
  33 H :    0.033605

  Mayer bond orders larger than 0.100000
B(  0-S ,  1-C ) :   1.1382 B(  0-S ,  4-C ) :   1.1368 B(  1-C ,  2-C ) :   1.6367
B(  1-C , 32-H ) :   0.9598 B(  2-C ,  3-C ) :   1.2021 B(  2-C ,  6-C ) :   1.0129
B(  3-C ,  4-C ) :   1.6202 B(  3-C ,  5-H ) :   0.9978 B(  4-C , 20-C ) :   1.0186
B(  6-C ,  7-H ) :   0.9392 B(  6-C ,  8-H ) :   0.9382 B(  6-C ,  9-C ) :   1.0847
B(  9-C , 10-H ) :   0.9517 B(  9-C , 11-H ) :   0.9526 B(  9-C , 12-C ) :   1.0873
B( 12-C , 13-H ) :   0.9713 B( 12-C , 14-H ) :   0.9764 B( 12-C , 15-H ) :   0.9676
B( 16-S , 17-C ) :   1.1650 B( 16-S , 20-C ) :   1.1290 B( 17-C , 18-C ) :   1.5957
B( 17-C , 33-H ) :   0.9700 B( 18-C , 19-C ) :   1.2478 B( 18-C , 21-H ) :   0.9890
B( 19-C , 20-C ) :   1.6036 B( 19-C , 22-C ) :   1.0373 B( 22-C , 23-H ) :   0.9405
B( 22-C , 24-H ) :   0.9293 B( 22-C , 25-C ) :   1.0616 B( 25-C , 26-H ) :   0.9604
B( 25-C , 27-H ) :   0.9586 B( 25-C , 28-C ) :   1.0490 B( 28-C , 29-H ) :   0.9819
B( 28-C , 30-H ) :   0.9795 B( 28-C , 31-H ) :   0.9805

Dispersion correction           -0.015078132
FINAL SINGLE POINT ENERGY     -1339.863343362717

DIPOLE MOMENT
-------------
                                X             Y             Z
Electronic contribution:    -27.52466     -14.04625       2.59414
Nuclear contribution   :     28.05937      14.41188      -2.65119
                        -----------------------------------------
Total Dipole Moment    :      0.53471       0.36563      -0.05705
                        -----------------------------------------
Magnitude (a.u.)       :      0.65027
Magnitude (Debye)      :      1.65286

Rotational constants in cm-1:     0.017202     0.010162     0.006965
Rotational constants in MHz :   515.699910   304.653055   208.799775

                             ****ORCA TERMINATED NORMALLY****
TOTAL RUN TIME: 0 days 0 hours 0 minutes 31 seconds 98 msec
