                         Program Version 4.2.1 -  RELEASE  -
|  1> ! wB97X-D3 SP def2-SVP
|  2> %pal
|  3> nprocs 16
|  4> end
|  5>
|  6> * xyz 0 1
|  7> S 	 -48.1385 	 -1.0582 	 96.3275
|  8> C 	 -49.1472 	 -2.4207 	 96.4508
|  9> C 	 -48.8769 	 -3.02442 	 97.6495
| 10> C 	 -47.8707 	 -2.39692 	 98.4638
| 11> C 	 -47.3454 	 -1.24074 	 97.8718
| 12> H 	 -47.5197 	 -2.71615 	 99.4431
| 13> C 	 -49.7097 	 -4.22935 	 98.0761
| 14> H 	 -48.9194 	 -4.95468 	 98.2372
| 15> H 	 -50.3486 	 -4.59631 	 97.2462
| 16> C 	 -50.5226 	 -4.09594 	 99.36
| 17> H 	 -50.7377 	 -5.05871 	 99.8554
| 18> H 	 -49.9634 	 -3.46595 	 100.075
| 19> C 	 -51.855 	 -3.44358 	 99.1656
| 20> H 	 -51.8557 	 -2.49054 	 98.6237
| 21> H 	 -52.5182 	 -4.155 	 98.6897
| 22> H 	 -52.3485 	 -3.20349 	 100.127
| 23> S 	 -45.1275 	 -0.846157 	 99.3427
| 24> C 	 -44.2798 	 0.692708 	 99.3207
| 25> C 	 -45.1131 	 1.65044 	 98.756
| 26> C 	 -46.261 	 1.06676 	 98.179
| 27> C 	 -46.3589 	 -0.315001 	 98.3538
| 28> H 	 -44.874 	 2.72725 	 98.6885
| 29> C 	 -47.2503 	 1.87681 	 97.3891
| 30> H 	 -47.2128 	 1.70526 	 96.3207
| 31> H 	 -46.7618 	 2.83629 	 97.3611
| 32> C 	 -48.6997 	 1.94914 	 97.8537
| 33> H 	 -48.7093 	 2.61963 	 98.7462
| 34> H 	 -49.0627 	 0.978198 	 98.1829
| 35> C 	 -49.6724 	 2.64319 	 96.852
| 36> H 	 -49.7042 	 2.27531 	 95.8316
| 37> H 	 -49.4932 	 3.72231 	 96.9247
| 38> H 	 -50.6779 	 2.45805 	 97.1593
| 39> H 	 -50.0115 	 -2.70329 	 95.8401
| 40> H 	 -43.4583 	 1.02321 	 99.8654
| 41> *
| 42>
| 43>                          ****END OF INPUT****

CARTESIAN COORDINATES (ANGSTROEM)
---------------------------------
  S    -48.138500   -1.058200   96.327500
  C    -49.147200   -2.420700   96.450800
  C    -48.876900   -3.024420   97.649500
  C    -47.870700   -2.396920   98.463800
  C    -47.345400   -1.240740   97.871800
  H    -47.519700   -2.716150   99.443100
  C    -49.709700   -4.229350   98.076100
  H    -48.919400   -4.954680   98.237200
  H    -50.348600   -4.596310   97.246200
  C    -50.522600   -4.095940   99.360000
  H    -50.737700   -5.058710   99.855400
  H    -49.963400   -3.465950  100.075000
  C    -51.855000   -3.443580   99.165600
  H    -51.855700   -2.490540   98.623700
  H    -52.518200   -4.155000   98.689700
  H    -52.348500   -3.203490  100.127000
  S    -45.127500   -0.846157   99.342700
  C    -44.279800    0.692708   99.320700
  C    -45.113100    1.650440   98.756000
  C    -46.261000    1.066760   98.179000
  C    -46.358900   -0.315001   98.353800
  H    -44.874000    2.727250   98.688500
  C    -47.250300    1.876810   97.389100
  H    -47.212800    1.705260   96.320700
  H    -46.761800    2.836290   97.361100
  C    -48.699700    1.949140   97.853700
  H    -48.709300    2.619630   98.746200
  H    -49.062700    0.978198   98.182900
  C    -49.672400    2.643190   96.852000
  H    -49.704200    2.275310   95.831600
  H    -49.493200    3.722310   96.924700
  H    -50.677900    2.458050   97.159300
  H    -50.011500   -2.703290   95.840100
  H    -43.458300    1.023210   99.865400

 Total Charge           Charge          ....    0
 Multiplicity           Mult            ....    1
 Number of Electrons    NEL             ....  134
 Basis Dimension        Dim             ....  322

ORBITAL ENERGIES
----------------

  NO   OCC          E(Eh)            E(eV)
   0   2.0000     -88.970927     -2421.0220
   1   2.0000     -88.964031     -2420.8343
   2   2.0000     -10.334757      -281.2230
   3   2.0000     -10.322974      -280.9024
   4   2.0000     -10.315677      -280.7038
   5   2.0000     -10.309708      -280.5414
   6   2.0000     -10.300481      -280.2903
   7   2.0000     -10.299730      -280.2699
   8   2.0000     -10.299392      -280.2607
   9   2.0000     -10.297828      -280.2181
  10   2.0000     -10.290647      -280.0227
  11   2.0000     -10.285323      -279.8779
  12   2.0000     -10.284118      -279.8451
  13   2.0000     -10.281403      -279.7712
  14   2.0000     -10.273125      -279.5459
  15   2.0000     -10.273039      -279.5436
  16   2.0000      -8.086662      -220.0493
  17   2.0000      -8.079033      -219.8417
  18   2.0000      -6.045079      -164.4950
  19   2.0000      -6.040940      -164.3823
  20   2.0000      -6.037528      -164.2895
  21   2.0000      -6.037507      -164.2889
  22   2.0000      -6.033266      -164.1735
  23   2.0000      -6.030005      -164.0848
  24   2.0000      -1.019327       -27.7373
  25   2.0000      -0.994788       -27.0695
  26   2.0000      -0.913772       -24.8650
  27   2.0000      -0.906463       -24.6661
  28   2.0000      -0.880727       -23.9658
  29   2.0000      -0.852010       -23.1844
  30   2.0000      -0.844747       -22.9867
  31   2.0000      -0.822008       -22.3680
  32   2.0000      -0.782346       -21.2887
  33   2.0000      -0.770873       -20.9765
  34   2.0000      -0.716177       -19.4882
  35   2.0000      -0.695393       -18.9226
  36   2.0000      -0.687334       -18.7033
  37   2.0000      -0.673391       -18.3239
  38   2.0000      -0.637462       -17.3462
  39   2.0000      -0.619654       -16.8616
  40   2.0000      -0.597354       -16.2548
  41   2.0000      -0.578029       -15.7290
  42   2.0000      -0.560690       -15.2572
  43   2.0000      -0.555296       -15.1104
  44   2.0000      -0.541829       -14.7439
  45   2.0000      -0.522652       -14.2221
  46   2.0000      -0.519243       -14.1293
  47   2.0000      -0.517944       -14.0940
  48   2.0000      -0.505613       -13.7584
  49   2.0000      -0.500127       -13.6092
  50   2.0000      -0.495901       -13.4941
  51   2.0000      -0.479312       -13.0427
  52   2.0000      -0.476711       -12.9720
  53   2.0000      -0.471803       -12.8384
  54   2.0000      -0.464414       -12.6373
  55   2.0000      -0.444707       -12.1011
  56   2.0000      -0.438980       -11.9453
  57   2.0000      -0.435746       -11.8572
  58   2.0000      -0.430888       -11.7251
  59   2.0000      -0.423692       -11.5292
  60   2.0000      -0.420407       -11.4399
  61   2.0000      -0.408437       -11.1141
  62   2.0000      -0.399357       -10.8670
  63   2.0000      -0.362446        -9.8627
  64   2.0000      -0.333177        -9.0662
  65   2.0000      -0.326397        -8.8817
  66   2.0000      -0.288024        -7.8375
  67   0.0000       0.019274         0.5245
  68   0.0000       0.084836         2.3085
  69   0.0000       0.110520         3.0074
  70   0.0000       0.129039         3.5113
  71   0.0000       0.136666         3.7189

MULLIKEN ATOMIC CHARGES
-----------------------
   0 S :    0.101524
   1 C :   -0.108369
   2 C :   -0.121456
   3 C :    0.020819
   4 C :   -0.158793
   5 H :    0.014922
   6 C :    0.076765
   7 H :    0.030514
   8 H :    0.017947
   9 C :   -0.068245
  10 H :    0.032899
  11 H :    0.028191
  12 C :   -0.063333
  13 H :    0.035348
  14 H :    0.022582
  15 H :    0.030082
  16 S :    0.118717
  17 C :   -0.053751
  18 C :   -0.056000
  19 C :   -0.066824
  20 C :   -0.100024
  21 H :    0.034305
  22 C :    0.071613
  23 H :    0.029966
  24 H :   -0.011876
  25 C :   -0.073344
  26 H :    0.027158
  27 H :    0.043540
  28 C :   -0.038060
  29 H :    0.030859
  30 H :    0.036056
  31 H :    0.020123
  32 H :    0.061119
  33 H :    0.035027
Sum of atomic charges:   -0.0000000

LOEWDIN ATOMIC CHARGES
----------------------
   0 S :    0.445095
   1 C :   -0.224316
   2 C :   -0.066110
   3 C :   -0.074837
   4 C :   -0.185506
   5 H :    0.028607
   6 C :   -0.032052
   7 H :    0.034004
   8 H :    0.029333
   9 C :   -0.047181
  10 H :    0.028662
  11 H :    0.025145
  12 C :   -0.070343
  13 H :    0.024821
  14 H :    0.020268
  15 H :    0.028598
  16 S :    0.455879
  17 C :   -0.182706
  18 C :   -0.065935
  19 C :   -0.061478
  20 C :   -0.226886
  21 H :    0.038846
  22 C :   -0.052040
  23 H :    0.026511
  24 H :    0.027247
  25 C :   -0.040543
  26 H :    0.028604
  27 H :    0.018276
  28 C :   -0.065179
  29 H :    0.022902
  30 H :    0.027701
  31 H :    0.024162
  32 H :    0.040361
  33 H :    0.020088

  Mayer bond orders larger than 0.100000
B(  0-S ,  1-C ) :   1.1389 B(  0-S ,  4-C ) :   1.1747 B(  1-C ,  2-C ) :   1.5938
B(  1-C , 32-H ) :   0.9667 B(  2-C ,  3-C ) :   1.2588 B(  2-C ,  6-C ) :   1.0235
B(  3-C ,  4-C ) :   1.5296 B(  3-C ,  5-H ) :   0.9903 B(  4-C , 20-C ) :   1.0620
B(  6-C ,  7-H ) :   0.9287 B(  6-C ,  8-H ) :   0.9484 B(  6-C ,  9-C ) :   1.0654
B(  9-C , 10-H ) :   0.9539 B(  9-C , 11-H ) :   0.9565 B(  9-C , 12-C ) :   1.0846
B( 12-C , 13-H ) :   0.9762 B( 12-C , 14-H ) :   0.9739 B( 12-C , 15-H ) :   0.9714
B( 16-S , 17-C ) :   1.1677 B( 16-S , 20-C ) :   1.1688 B( 17-C , 18-C ) :   1.5620
B( 17-C , 20-C ) :   0.1004 B( 17-C , 33-H ) :   0.9718 B( 18-C , 19-C ) :   1.3206
B( 18-C , 21-H ) :   0.9782 B( 19-C , 20-C ) :   1.5022 B( 19-C , 22-C ) :   1.0460
B( 22-C , 23-H ) :   0.9321 B( 22-C , 24-H ) :   0.9134 B( 22-C , 25-C ) :   1.0415
B( 25-C , 26-H ) :   0.9530 B( 25-C , 27-H ) :   0.9653 B( 25-C , 28-C ) :   1.0787
B( 28-C , 29-H ) :   0.9749 B( 28-C , 30-H ) :   0.9784 B( 28-C , 31-H ) :   0.9728

Dispersion correction           -0.014695176
FINAL SINGLE POINT ENERGY     -1339.879596105170

DIPOLE MOMENT
-------------
                                X             Y             Z
Electronic contribution:     22.45055      -1.81979      -1.89243
Nuclear contribution   :    -22.75535       1.95510       2.11496
                        -----------------------------------------
Total Dipole Moment    :     -0.30480       0.13531       0.22252
                        -----------------------------------------
Magnitude (a.u.)       :      0.40091
Magnitude (Debye)      :      1.01903

Rotational constants in cm-1:     0.019340     0.009198     0.007329
Rotational constants in MHz :   579.792583   275.739921   219.720904

                             ****ORCA TERMINATED NORMALLY****
TOTAL RUN TIME: 0 days 0 hours 0 minutes 29 seconds 77 msec
