                         Program Version 4.2.1 -  RELEASE  -
|  1> ! wB97X-D3 SP def2-SVP
|  2> %pal
|  3> nprocs 16
|  4> end
|  5>
|  6> * xyz 0 1
|  7> S 	 6.08343 	 25.4409 	 67.4686
|  8> C 	 6.00881 	 24.3789 	 66.0055
|  9> C 	 6.94576 	 23.3743 	 66.075
| 10> C 	 7.74968 	 23.5186 	 67.2029
| 11> C 	 7.38725 	 24.5334 	 68.0954
| 12> H 	 8.36298 	 22.7401 	 67.4912
| 13> C 	 6.9824 	 22.0415 	 65.1763
| 14> H 	 8.04333 	 21.7245 	 65.2497
| 15> H 	 6.9256 	 22.3774 	 64.1036
| 16> C 	 6.13477 	 20.8375 	 65.6504
| 17> H 	 6.30174 	 20.1116 	 64.7978
| 18> H 	 6.54756 	 20.4997 	 66.5352
| 19> C 	 4.65499 	 20.9969 	 65.8027
| 20> H 	 4.19503 	 20.1495 	 66.3035
| 21> H 	 4.37078 	 21.7589 	 66.5219
| 22> H 	 4.12908 	 21.2273 	 64.8661
| 23> S 	 7.23894 	 24.1614 	 70.8064
| 24> C 	 8.40968 	 24.951 	 71.8337
| 25> C 	 9.30605 	 25.7354 	 71.125
| 26> C 	 9.11232 	 25.6452 	 69.692
| 27> C 	 7.93904 	 24.8689 	 69.405
| 28> H 	 10.0575 	 26.1685 	 71.743
| 29> C 	 10.001 	 26.2791 	 68.6605
| 30> H 	 10.4092 	 27.2655 	 69.1062
| 31> H 	 9.37087 	 26.5766 	 67.7621
| 32> C 	 11.3055 	 25.567 	 68.2263
| 33> H 	 11.9068 	 26.2026 	 67.5449
| 34> H 	 10.9566 	 24.6924 	 67.6719
| 35> C 	 12.3421 	 25.189 	 69.3911
| 36> H 	 12.7152 	 26.156 	 69.7914
| 37> H 	 13.1022 	 24.5528 	 69.0929
| 38> H 	 11.7894 	 24.7768 	 70.1931
| 39> H 	 5.42044 	 24.4659 	 65.1188
| 40> H 	 8.55434 	 24.8917 	 72.8987
| 41> *
| 42>
| 43>                          ****END OF INPUT****

CARTESIAN COORDINATES (ANGSTROEM)
---------------------------------
  S      6.083430   25.440900   67.468600
  C      6.008810   24.378900   66.005500
  C      6.945760   23.374300   66.075000
  C      7.749680   23.518600   67.202900
  C      7.387250   24.533400   68.095400
  H      8.362980   22.740100   67.491200
  C      6.982400   22.041500   65.176300
  H      8.043330   21.724500   65.249700
  H      6.925600   22.377400   64.103600
  C      6.134770   20.837500   65.650400
  H      6.301740   20.111600   64.797800
  H      6.547560   20.499700   66.535200
  C      4.654990   20.996900   65.802700
  H      4.195030   20.149500   66.303500
  H      4.370780   21.758900   66.521900
  H      4.129080   21.227300   64.866100
  S      7.238940   24.161400   70.806400
  C      8.409680   24.951000   71.833700
  C      9.306050   25.735400   71.125000
  C      9.112320   25.645200   69.692000
  C      7.939040   24.868900   69.405000
  H     10.057500   26.168500   71.743000
  C     10.001000   26.279100   68.660500
  H     10.409200   27.265500   69.106200
  H      9.370870   26.576600   67.762100
  C     11.305500   25.567000   68.226300
  H     11.906800   26.202600   67.544900
  H     10.956600   24.692400   67.671900
  C     12.342100   25.189000   69.391100
  H     12.715200   26.156000   69.791400
  H     13.102200   24.552800   69.092900
  H     11.789400   24.776800   70.193100
  H      5.420440   24.465900   65.118800
  H      8.554340   24.891700   72.898700

 Total Charge           Charge          ....    0
 Multiplicity           Mult            ....    1
 Number of Electrons    NEL             ....  134
 Basis Dimension        Dim             ....  322

ORBITAL ENERGIES
----------------

  NO   OCC          E(Eh)            E(eV)
   0   2.0000     -88.971147     -2421.0280
   1   2.0000     -88.970078     -2420.9989
   2   2.0000     -10.327856      -281.0352
   3   2.0000     -10.327679      -281.0304
   4   2.0000     -10.315682      -280.7040
   5   2.0000     -10.313545      -280.6458
   6   2.0000     -10.312121      -280.6071
   7   2.0000     -10.306437      -280.4524
   8   2.0000     -10.300233      -280.2836
   9   2.0000     -10.297819      -280.2179
  10   2.0000     -10.294539      -280.1286
  11   2.0000     -10.290424      -280.0167
  12   2.0000     -10.289920      -280.0030
  13   2.0000     -10.284442      -279.8539
  14   2.0000     -10.273425      -279.5541
  15   2.0000     -10.273186      -279.5476
  16   2.0000      -8.086020      -220.0318
  17   2.0000      -8.084221      -219.9828
  18   2.0000      -6.044448      -164.4778
  19   2.0000      -6.042652      -164.4289
  20   2.0000      -6.040416      -164.3681
  21   2.0000      -6.038678      -164.3208
  22   2.0000      -6.036959      -164.2740
  23   2.0000      -6.035213      -164.2265
  24   2.0000      -1.006529       -27.3890
  25   2.0000      -0.982641       -26.7390
  26   2.0000      -0.908198       -24.7133
  27   2.0000      -0.899261       -24.4701
  28   2.0000      -0.870936       -23.6994
  29   2.0000      -0.847700       -23.0671
  30   2.0000      -0.842162       -22.9164
  31   2.0000      -0.812000       -22.0956
  32   2.0000      -0.789279       -21.4774
  33   2.0000      -0.773598       -21.0507
  34   2.0000      -0.711303       -19.3555
  35   2.0000      -0.697181       -18.9713
  36   2.0000      -0.686713       -18.6864
  37   2.0000      -0.655503       -17.8372
  38   2.0000      -0.636628       -17.3235
  39   2.0000      -0.622479       -16.9385
  40   2.0000      -0.582401       -15.8479
  41   2.0000      -0.572681       -15.5834
  42   2.0000      -0.557926       -15.1819
  43   2.0000      -0.549094       -14.9416
  44   2.0000      -0.543750       -14.7962
  45   2.0000      -0.537543       -14.6273
  46   2.0000      -0.518302       -14.1037
  47   2.0000      -0.512950       -13.9581
  48   2.0000      -0.497921       -13.5491
  49   2.0000      -0.485112       -13.2006
  50   2.0000      -0.482006       -13.1160
  51   2.0000      -0.477853       -13.0030
  52   2.0000      -0.469968       -12.7885
  53   2.0000      -0.465435       -12.6651
  54   2.0000      -0.460989       -12.5441
  55   2.0000      -0.450365       -12.2551
  56   2.0000      -0.447079       -12.1656
  57   2.0000      -0.440266       -11.9802
  58   2.0000      -0.435978       -11.8636
  59   2.0000      -0.425841       -11.5877
  60   2.0000      -0.415927       -11.3180
  61   2.0000      -0.408553       -11.1173
  62   2.0000      -0.406354       -11.0575
  63   2.0000      -0.339717        -9.2442
  64   2.0000      -0.334848        -9.1117
  65   2.0000      -0.315470        -8.5844
  66   2.0000      -0.307503        -8.3676
  67   0.0000       0.042807         1.1648
  68   0.0000       0.049563         1.3487
  69   0.0000       0.111415         3.0317
  70   0.0000       0.118154         3.2151
  71   0.0000       0.125285         3.4092

MULLIKEN ATOMIC CHARGES
-----------------------
   0 S :    0.127232
   1 C :   -0.115677
   2 C :   -0.111474
   3 C :    0.089669
   4 C :   -0.197168
   5 H :   -0.019946
   6 C :    0.016047
   7 H :    0.027588
   8 H :    0.038882
   9 C :   -0.014856
  10 H :    0.042924
  11 H :    0.014430
  12 C :   -0.047723
  13 H :    0.027773
  14 H :    0.029921
  15 H :    0.032665
  16 S :    0.140054
  17 C :   -0.099495
  18 C :   -0.037058
  19 C :    0.007938
  20 C :   -0.181093
  21 H :    0.013017
  22 C :    0.013594
  23 H :    0.028774
  24 H :    0.053343
  25 C :   -0.078582
  26 H :    0.038473
  27 H :    0.029686
  28 C :   -0.031687
  29 H :    0.023278
  30 H :    0.033593
  31 H :    0.025198
  32 H :    0.032257
  33 H :    0.048426
Sum of atomic charges:   -0.0000000

LOEWDIN ATOMIC CHARGES
----------------------
   0 S :    0.417388
   1 C :   -0.184153
   2 C :   -0.068439
   3 C :   -0.062602
   4 C :   -0.212517
   5 H :    0.016429
   6 C :   -0.031741
   7 H :    0.033403
   8 H :    0.033249
   9 C :   -0.034536
  10 H :    0.038536
  11 H :    0.017177
  12 C :   -0.072352
  13 H :    0.029544
  14 H :    0.026577
  15 H :    0.026539
  16 S :    0.432934
  17 C :   -0.192710
  18 C :   -0.069682
  19 C :   -0.048787
  20 C :   -0.224127
  21 H :    0.029294
  22 C :   -0.047316
  23 H :    0.036042
  24 H :    0.042915
  25 C :   -0.036923
  26 H :    0.026680
  27 H :    0.019369
  28 C :   -0.057057
  29 H :    0.027308
  30 H :    0.017821
  31 H :    0.018228
  32 H :    0.023866
  33 H :    0.029644

  Mayer bond orders larger than 0.100000
B(  0-S ,  1-C ) :   1.1388 B(  0-S ,  4-C ) :   1.1756 B(  1-C ,  2-C ) :   1.6107
B(  1-C ,  4-C ) :   0.1097 B(  1-C , 32-H ) :   0.9682 B(  2-C ,  3-C ) :   1.2897
B(  2-C ,  6-C ) :   0.9976 B(  3-C ,  4-C ) :   1.5539 B(  3-C ,  5-H ) :   0.9968
B(  4-C , 20-C ) :   1.0024 B(  6-C ,  7-H ) :   0.9436 B(  6-C ,  8-H ) :   0.9479
B(  6-C ,  9-C ) :   1.0578 B(  9-C , 10-H ) :   0.9512 B(  9-C , 11-H ) :   0.9521
B(  9-C , 12-C ) :   1.0973 B( 12-C , 13-H ) :   0.9684 B( 12-C , 14-H ) :   0.9672
B( 12-C , 15-H ) :   0.9749 B( 16-S , 17-C ) :   1.1554 B( 16-S , 20-C ) :   1.1695
B( 17-C , 18-C ) :   1.6323 B( 17-C , 33-H ) :   0.9639 B( 18-C , 19-C ) :   1.2283
B( 18-C , 21-H ) :   0.9895 B( 19-C , 20-C ) :   1.5622 B( 19-C , 22-C ) :   1.0538
B( 22-C , 23-H ) :   0.9371 B( 22-C , 24-H ) :   0.9279 B( 22-C , 25-C ) :   1.0633
B( 25-C , 26-H ) :   0.9598 B( 25-C , 27-H ) :   0.9563 B( 25-C , 28-C ) :   1.0638
B( 28-C , 29-H ) :   0.9753 B( 28-C , 30-H ) :   0.9768 B( 28-C , 31-H ) :   0.9775

Dispersion correction           -0.014913250
FINAL SINGLE POINT ENERGY     -1339.857367686889

DIPOLE MOMENT
-------------
                                X             Y             Z
Electronic contribution:    -11.64999       9.61379      11.40144
Nuclear contribution   :     11.97881      -9.97440     -11.51753
                        -----------------------------------------
Total Dipole Moment    :      0.32882      -0.36061      -0.11608
                        -----------------------------------------
Magnitude (a.u.)       :      0.50164
Magnitude (Debye)      :      1.27506

Rotational constants in cm-1:     0.021089     0.007881     0.007055
Rotational constants in MHz :   632.227201   236.256077   211.494597

                             ****ORCA TERMINATED NORMALLY****
TOTAL RUN TIME: 0 days 0 hours 0 minutes 34 seconds 493 msec
