                         Program Version 4.2.1 -  RELEASE  -
|  1> ! wB97X-D3 SP def2-SVP
|  2> %pal
|  3> nprocs 16
|  4> end
|  5>
|  6> * xyz 0 1
|  7> S 	 -13.3329 	 41.2997 	 31.0109
|  8> C 	 -14.3779 	 40.0193 	 31.5538
|  9> C 	 -15.7435 	 40.2697 	 31.419
| 10> C 	 -15.9232 	 41.5521 	 30.753
| 11> C 	 -14.7394 	 42.2472 	 30.4988
| 12> H 	 -16.8691 	 42.0616 	 30.5645
| 13> C 	 -16.8532 	 39.284 	 31.7346
| 14> H 	 -16.4377 	 38.273 	 32.1621
| 15> H 	 -17.3446 	 38.9266 	 30.7948
| 16> C 	 -18.0425 	 39.7228 	 32.6521
| 17> H 	 -18.4078 	 38.9934 	 33.3224
| 18> H 	 -17.8391 	 40.5572 	 33.2435
| 19> C 	 -19.2012 	 40.1243 	 31.706
| 20> H 	 -18.9912 	 40.9306 	 30.9734
| 21> H 	 -19.6344 	 39.2316 	 31.1755
| 22> H 	 -20.0017 	 40.4561 	 32.2716
| 23> S 	 -13.6001 	 43.8701 	 28.5836
| 24> C 	 -13.9506 	 45.6219 	 28.5865
| 25> C 	 -14.8508 	 45.9465 	 29.63
| 26> C 	 -15.3444 	 44.8503 	 30.3581
| 27> C 	 -14.7411 	 43.6202 	 29.9611
| 28> H 	 -15.051 	 46.971 	 29.6782
| 29> C 	 -16.3604 	 45.0241 	 31.4604
| 30> H 	 -16.0878 	 45.9353 	 32.0319
| 31> H 	 -16.1129 	 44.261 	 32.1518
| 32> C 	 -17.8332 	 45.0361 	 31.1502
| 33> H 	 -18.4313 	 45.3645 	 31.9647
| 34> H 	 -18.2046 	 44.0066 	 30.7719
| 35> C 	 -18.1893 	 46.1508 	 30.1299
| 36> H 	 -19.2328 	 46.4251 	 30.1502
| 37> H 	 -17.8899 	 45.8183 	 29.1157
| 38> H 	 -17.6252 	 47.0363 	 30.3271
| 39> H 	 -14.0685 	 39.1457 	 32.0437
| 40> H 	 -13.4508 	 46.4734 	 28.0311
| 41> *
| 42>
| 43>                          ****END OF INPUT****

CARTESIAN COORDINATES (ANGSTROEM)
---------------------------------
  S    -13.332900   41.299700   31.010900
  C    -14.377900   40.019300   31.553800
  C    -15.743500   40.269700   31.419000
  C    -15.923200   41.552100   30.753000
  C    -14.739400   42.247200   30.498800
  H    -16.869100   42.061600   30.564500
  C    -16.853200   39.284000   31.734600
  H    -16.437700   38.273000   32.162100
  H    -17.344600   38.926600   30.794800
  C    -18.042500   39.722800   32.652100
  H    -18.407800   38.993400   33.322400
  H    -17.839100   40.557200   33.243500
  C    -19.201200   40.124300   31.706000
  H    -18.991200   40.930600   30.973400
  H    -19.634400   39.231600   31.175500
  H    -20.001700   40.456100   32.271600
  S    -13.600100   43.870100   28.583600
  C    -13.950600   45.621900   28.586500
  C    -14.850800   45.946500   29.630000
  C    -15.344400   44.850300   30.358100
  C    -14.741100   43.620200   29.961100
  H    -15.051000   46.971000   29.678200
  C    -16.360400   45.024100   31.460400
  H    -16.087800   45.935300   32.031900
  H    -16.112900   44.261000   32.151800
  C    -17.833200   45.036100   31.150200
  H    -18.431300   45.364500   31.964700
  H    -18.204600   44.006600   30.771900
  C    -18.189300   46.150800   30.129900
  H    -19.232800   46.425100   30.150200
  H    -17.889900   45.818300   29.115700
  H    -17.625200   47.036300   30.327100
  H    -14.068500   39.145700   32.043700
  H    -13.450800   46.473400   28.031100

 Total Charge           Charge          ....    0
 Multiplicity           Mult            ....    1
 Number of Electrons    NEL             ....  134
 Basis Dimension        Dim             ....  322

ORBITAL ENERGIES
----------------

  NO   OCC          E(Eh)            E(eV)
   0   2.0000     -88.973229     -2421.0846
   1   2.0000     -88.968805     -2420.9643
   2   2.0000     -10.337455      -281.2965
   3   2.0000     -10.333960      -281.2013
   4   2.0000     -10.325898      -280.9820
   5   2.0000     -10.313827      -280.6535
   6   2.0000     -10.310575      -280.5650
   7   2.0000     -10.308723      -280.5146
   8   2.0000     -10.306387      -280.4510
   9   2.0000     -10.299332      -280.2591
  10   2.0000     -10.292377      -280.0698
  11   2.0000     -10.291722      -280.0520
  12   2.0000     -10.288826      -279.9732
  13   2.0000     -10.283956      -279.8407
  14   2.0000     -10.277856      -279.6747
  15   2.0000     -10.274190      -279.5749
  16   2.0000      -8.087314      -220.0670
  17   2.0000      -8.081760      -219.9159
  18   2.0000      -6.045922      -164.5179
  19   2.0000      -6.041957      -164.4100
  20   2.0000      -6.040298      -164.3649
  21   2.0000      -6.037953      -164.3010
  22   2.0000      -6.036446      -164.2601
  23   2.0000      -6.032661      -164.1570
  24   2.0000      -0.997986       -27.1566
  25   2.0000      -0.975465       -26.5438
  26   2.0000      -0.911691       -24.8084
  27   2.0000      -0.907407       -24.6918
  28   2.0000      -0.867136       -23.5960
  29   2.0000      -0.849954       -23.1284
  30   2.0000      -0.845611       -23.0102
  31   2.0000      -0.812300       -22.1038
  32   2.0000      -0.781948       -21.2779
  33   2.0000      -0.769353       -20.9352
  34   2.0000      -0.710585       -19.3360
  35   2.0000      -0.706058       -19.2128
  36   2.0000      -0.689132       -18.7522
  37   2.0000      -0.659655       -17.9501
  38   2.0000      -0.642061       -17.4714
  39   2.0000      -0.617728       -16.8092
  40   2.0000      -0.586682       -15.9644
  41   2.0000      -0.574301       -15.6275
  42   2.0000      -0.555911       -15.1271
  43   2.0000      -0.553676       -15.0663
  44   2.0000      -0.549446       -14.9512
  45   2.0000      -0.532677       -14.4949
  46   2.0000      -0.511881       -13.9290
  47   2.0000      -0.505753       -13.7622
  48   2.0000      -0.497784       -13.5454
  49   2.0000      -0.493267       -13.4225
  50   2.0000      -0.487344       -13.2613
  51   2.0000      -0.477156       -12.9841
  52   2.0000      -0.476111       -12.9556
  53   2.0000      -0.464613       -12.6428
  54   2.0000      -0.458538       -12.4774
  55   2.0000      -0.447606       -12.1800
  56   2.0000      -0.444110       -12.0848
  57   2.0000      -0.441774       -12.0213
  58   2.0000      -0.435575       -11.8526
  59   2.0000      -0.431628       -11.7452
  60   2.0000      -0.418713       -11.3938
  61   2.0000      -0.412031       -11.2119
  62   2.0000      -0.408642       -11.1197
  63   2.0000      -0.343587        -9.3495
  64   2.0000      -0.334207        -9.0942
  65   2.0000      -0.331141        -9.0108
  66   2.0000      -0.290211        -7.8970
  67   0.0000       0.023481         0.6390
  68   0.0000       0.064009         1.7418
  69   0.0000       0.110155         2.9975
  70   0.0000       0.115278         3.1369
  71   0.0000       0.120107         3.2683

MULLIKEN ATOMIC CHARGES
-----------------------
   0 S :    0.134325
   1 C :   -0.096926
   2 C :   -0.040802
   3 C :    0.027731
   4 C :   -0.136481
   5 H :   -0.001134
   6 C :   -0.009988
   7 H :    0.030864
   8 H :    0.049980
   9 C :   -0.013845
  10 H :    0.024994
  11 H :    0.021645
  12 C :   -0.086577
  13 H :    0.041391
  14 H :    0.037441
  15 H :    0.009114
  16 S :    0.098077
  17 C :   -0.121910
  18 C :   -0.046635
  19 C :   -0.001106
  20 C :   -0.190576
  21 H :    0.001760
  22 C :    0.070639
  23 H :    0.026739
  24 H :    0.018657
  25 C :   -0.049032
  26 H :    0.025987
  27 H :    0.043139
  28 C :   -0.067376
  29 H :    0.033730
  30 H :    0.044795
  31 H :    0.015524
  32 H :    0.026476
  33 H :    0.079380
Sum of atomic charges:   -0.0000000

LOEWDIN ATOMIC CHARGES
----------------------
   0 S :    0.408151
   1 C :   -0.187556
   2 C :   -0.060803
   3 C :   -0.055982
   4 C :   -0.201520
   5 H :    0.027645
   6 C :   -0.039772
   7 H :    0.037986
   8 H :    0.038873
   9 C :   -0.031087
  10 H :    0.023623
  11 H :    0.018190
  12 C :   -0.067429
  13 H :    0.025664
  14 H :    0.029412
  15 H :    0.011685
  16 S :    0.377705
  17 C :   -0.192525
  18 C :   -0.068197
  19 C :   -0.051213
  20 C :   -0.176818
  21 H :    0.023144
  22 C :   -0.037891
  23 H :    0.037510
  24 H :    0.028074
  25 C :   -0.037485
  26 H :    0.023469
  27 H :    0.028898
  28 C :   -0.064434
  29 H :    0.023189
  30 H :    0.028760
  31 H :    0.016984
  32 H :    0.017891
  33 H :    0.045860

  Mayer bond orders larger than 0.100000
B(  0-S ,  1-C ) :   1.1405 B(  0-S ,  4-C ) :   1.1314 B(  1-C ,  2-C ) :   1.6230
B(  1-C , 32-H ) :   0.9654 B(  2-C ,  3-C ) :   1.2142 B(  2-C ,  6-C ) :   1.0358
B(  3-C ,  4-C ) :   1.5827 B(  3-C ,  5-H ) :   0.9897 B(  4-C , 20-C ) :   1.0586
B(  6-C ,  7-H ) :   0.9456 B(  6-C ,  8-H ) :   0.9481 B(  6-C ,  9-C ) :   1.0339
B(  9-C , 10-H ) :   0.9575 B(  9-C , 11-H ) :   0.9642 B(  9-C , 12-C ) :   1.0819
B( 12-C , 13-H ) :   0.9767 B( 12-C , 14-H ) :   0.9730 B( 12-C , 15-H ) :   0.9699
B( 16-S , 17-C ) :   1.1473 B( 16-S , 20-C ) :   1.1413 B( 17-C , 18-C ) :   1.6159
B( 17-C , 20-C ) :   0.1136 B( 17-C , 33-H ) :   0.9550 B( 18-C , 19-C ) :   1.2418
B( 18-C , 21-H ) :   0.9973 B( 19-C , 20-C ) :   1.5549 B( 19-C , 22-C ) :   1.0331
B( 22-C , 23-H ) :   0.9325 B( 22-C , 24-H ) :   0.9237 B( 22-C , 25-C ) :   1.0900
B( 25-C , 26-H ) :   0.9526 B( 25-C , 27-H ) :   0.9498 B( 25-C , 28-C ) :   1.0708
B( 28-C , 29-H ) :   0.9765 B( 28-C , 30-H ) :   0.9733 B( 28-C , 31-H ) :   0.9738

Dispersion correction           -0.014851434
FINAL SINGLE POINT ENERGY     -1339.857988747797

DIPOLE MOMENT
-------------
                                X             Y             Z
Electronic contribution:     29.31154      -0.99630      -9.15404
Nuclear contribution   :    -29.94015       1.12873       9.60968
                        -----------------------------------------
Total Dipole Moment    :     -0.62861       0.13243       0.45564
                        -----------------------------------------
Magnitude (a.u.)       :      0.78759
Magnitude (Debye)      :      2.00189

Rotational constants in cm-1:     0.017090     0.009891     0.006774
Rotational constants in MHz :   512.345416   296.522172   203.067745

                             ****ORCA TERMINATED NORMALLY****
TOTAL RUN TIME: 0 days 0 hours 0 minutes 35 seconds 98 msec
