                         Program Version 4.2.1 -  RELEASE  -
|  1> ! wB97X-D3 SP def2-SVP
|  2> %pal
|  3> nprocs 16
|  4> end
|  5>
|  6> * xyz 0 1
|  7> S 	 -39.1667 	 18.5224 	 73.6834
|  8> C 	 -37.4548 	 18.4439 	 73.3425
|  9> C 	 -36.9253 	 17.1513 	 73.3843
| 10> C 	 -38.0276 	 16.2249 	 73.4803
| 11> C 	 -39.2626 	 16.7881 	 73.6828
| 12> H 	 -37.8091 	 15.1038 	 73.4519
| 13> C 	 -35.4609 	 16.7832 	 73.3007
| 14> H 	 -35.3608 	 15.8291 	 73.8243
| 15> H 	 -34.8908 	 17.4037 	 73.917
| 16> C 	 -34.9594 	 16.5773 	 71.8593
| 17> H 	 -34.9783 	 17.6122 	 71.3752
| 18> H 	 -33.9051 	 16.4143 	 71.9192
| 19> C 	 -35.6341 	 15.3974 	 71.1866
| 20> H 	 -35.4706 	 14.5415 	 71.8112
| 21> H 	 -36.7605 	 15.4544 	 71.1136
| 22> H 	 -35.1869 	 15.113 	 70.276
| 23> S 	 -41.5004 	 16.6512 	 75.263
| 24> C 	 -42.7288 	 15.4373 	 74.8264
| 25> C 	 -42.3442 	 14.6566 	 73.7773
| 26> C 	 -41.0147 	 14.9716 	 73.3164
| 27> C 	 -40.4611 	 16.0512 	 73.981
| 28> H 	 -42.9899 	 13.9045 	 73.42
| 29> C 	 -40.3944 	 14.1483 	 72.1308
| 30> H 	 -39.8955 	 14.8371 	 71.3485
| 31> H 	 -41.2894 	 13.6787 	 71.6399
| 32> C 	 -39.5917 	 12.9482 	 72.5105
| 33> H 	 -40.114 	 12.4644 	 73.3909
| 34> H 	 -38.5595 	 13.4111 	 72.7331
| 35> C 	 -39.376 	 11.9544 	 71.3794
| 36> H 	 -40.2334 	 11.3765 	 71.2577
| 37> H 	 -38.4888 	 11.3327 	 71.554
| 38> H 	 -39.211 	 12.4214 	 70.3751
| 39> H 	 -36.8131 	 19.328 	 73.2958
| 40> H 	 -43.6239 	 15.3686 	 75.2512
| 41> *
| 42>
| 43>                          ****END OF INPUT****

CARTESIAN COORDINATES (ANGSTROEM)
---------------------------------
  S    -39.166700   18.522400   73.683400
  C    -37.454800   18.443900   73.342500
  C    -36.925300   17.151300   73.384300
  C    -38.027600   16.224900   73.480300
  C    -39.262600   16.788100   73.682800
  H    -37.809100   15.103800   73.451900
  C    -35.460900   16.783200   73.300700
  H    -35.360800   15.829100   73.824300
  H    -34.890800   17.403700   73.917000
  C    -34.959400   16.577300   71.859300
  H    -34.978300   17.612200   71.375200
  H    -33.905100   16.414300   71.919200
  C    -35.634100   15.397400   71.186600
  H    -35.470600   14.541500   71.811200
  H    -36.760500   15.454400   71.113600
  H    -35.186900   15.113000   70.276000
  S    -41.500400   16.651200   75.263000
  C    -42.728800   15.437300   74.826400
  C    -42.344200   14.656600   73.777300
  C    -41.014700   14.971600   73.316400
  C    -40.461100   16.051200   73.981000
  H    -42.989900   13.904500   73.420000
  C    -40.394400   14.148300   72.130800
  H    -39.895500   14.837100   71.348500
  H    -41.289400   13.678700   71.639900
  C    -39.591700   12.948200   72.510500
  H    -40.114000   12.464400   73.390900
  H    -38.559500   13.411100   72.733100
  C    -39.376000   11.954400   71.379400
  H    -40.233400   11.376500   71.257700
  H    -38.488800   11.332700   71.554000
  H    -39.211000   12.421400   70.375100
  H    -36.813100   19.328000   73.295800
  H    -43.623900   15.368600   75.251200

 Total Charge           Charge          ....    0
 Multiplicity           Mult            ....    1
 Number of Electrons    NEL             ....  134
 Basis Dimension        Dim             ....  322

ORBITAL ENERGIES
----------------

  NO   OCC          E(Eh)            E(eV)
   0   2.0000     -88.968869     -2420.9660
   1   2.0000     -88.965058     -2420.8623
   2   2.0000     -10.325353      -280.9671
   3   2.0000     -10.325048      -280.9588
   4   2.0000     -10.313955      -280.6570
   5   2.0000     -10.308367      -280.5049
   6   2.0000     -10.304821      -280.4084
   7   2.0000     -10.301672      -280.3227
   8   2.0000     -10.300272      -280.2847
   9   2.0000     -10.297120      -280.1989
  10   2.0000     -10.294674      -280.1323
  11   2.0000     -10.292258      -280.0666
  12   2.0000     -10.291556      -280.0475
  13   2.0000     -10.289640      -279.9953
  14   2.0000     -10.278964      -279.7048
  15   2.0000     -10.277945      -279.6771
  16   2.0000      -8.083648      -219.9673
  17   2.0000      -8.079432      -219.8525
  18   2.0000      -6.042191      -164.4164
  19   2.0000      -6.038236      -164.3088
  20   2.0000      -6.038018      -164.3028
  21   2.0000      -6.034298      -164.2016
  22   2.0000      -6.034102      -164.1963
  23   2.0000      -6.030033      -164.0855
  24   2.0000      -1.006666       -27.3928
  25   2.0000      -0.981380       -26.7047
  26   2.0000      -0.916861       -24.9491
  27   2.0000      -0.910701       -24.7814
  28   2.0000      -0.871839       -23.7239
  29   2.0000      -0.850276       -23.1372
  30   2.0000      -0.844235       -22.9728
  31   2.0000      -0.815277       -22.1848
  32   2.0000      -0.787334       -21.4244
  33   2.0000      -0.774512       -21.0755
  34   2.0000      -0.708455       -19.2780
  35   2.0000      -0.704408       -19.1679
  36   2.0000      -0.683761       -18.6061
  37   2.0000      -0.668583       -18.1931
  38   2.0000      -0.635708       -17.2985
  39   2.0000      -0.617595       -16.8056
  40   2.0000      -0.594959       -16.1896
  41   2.0000      -0.573157       -15.5964
  42   2.0000      -0.571664       -15.5558
  43   2.0000      -0.556354       -15.1392
  44   2.0000      -0.541797       -14.7431
  45   2.0000      -0.516801       -14.0629
  46   2.0000      -0.516027       -14.0418
  47   2.0000      -0.512905       -13.9569
  48   2.0000      -0.507225       -13.8023
  49   2.0000      -0.494925       -13.4676
  50   2.0000      -0.491792       -13.3823
  51   2.0000      -0.481107       -13.0916
  52   2.0000      -0.469177       -12.7670
  53   2.0000      -0.467370       -12.7178
  54   2.0000      -0.461785       -12.5658
  55   2.0000      -0.452208       -12.3052
  56   2.0000      -0.442158       -12.0317
  57   2.0000      -0.436980       -11.8908
  58   2.0000      -0.433602       -11.7989
  59   2.0000      -0.431552       -11.7431
  60   2.0000      -0.419730       -11.4214
  61   2.0000      -0.414363       -11.2754
  62   2.0000      -0.403244       -10.9728
  63   2.0000      -0.352011        -9.5787
  64   2.0000      -0.332487        -9.0474
  65   2.0000      -0.331123        -9.0103
  66   2.0000      -0.287462        -7.8222
  67   0.0000       0.030351         0.8259
  68   0.0000       0.071566         1.9474
  69   0.0000       0.109106         2.9689
  70   0.0000       0.118170         3.2156
  71   0.0000       0.125520         3.4156

MULLIKEN ATOMIC CHARGES
-----------------------
   0 S :    0.122684
   1 C :   -0.125195
   2 C :   -0.111837
   3 C :   -0.013069
   4 C :   -0.127211
   5 H :    0.024964
   6 C :    0.080973
   7 H :    0.013407
   8 H :    0.012952
   9 C :   -0.053220
  10 H :    0.036026
  11 H :    0.020823
  12 C :   -0.026965
  13 H :    0.009538
  14 H :    0.052424
  15 H :    0.027052
  16 S :    0.094603
  17 C :   -0.034024
  18 C :   -0.010666
  19 C :   -0.036321
  20 C :   -0.145321
  21 H :    0.005655
  22 C :    0.009281
  23 H :    0.058574
  24 H :    0.012148
  25 C :   -0.094100
  26 H :    0.049009
  27 H :    0.036078
  28 C :   -0.025662
  29 H :    0.020005
  30 H :    0.040367
  31 H :    0.029312
  32 H :    0.048051
  33 H :   -0.000336
Sum of atomic charges:   -0.0000000

LOEWDIN ATOMIC CHARGES
----------------------
   0 S :    0.414467
   1 C :   -0.199417
   2 C :   -0.059762
   3 C :   -0.070185
   4 C :   -0.204670
   5 H :    0.037115
   6 C :   -0.029681
   7 H :    0.030660
   8 H :    0.023710
   9 C :   -0.038259
  10 H :    0.030096
  11 H :    0.020771
  12 C :   -0.063523
  13 H :    0.023082
  14 H :    0.034995
  15 H :    0.022107
  16 S :    0.383698
  17 C :   -0.150368
  18 C :   -0.058496
  19 C :   -0.055861
  20 C :   -0.189966
  21 H :    0.026786
  22 C :   -0.042810
  23 H :    0.039288
  24 H :    0.028101
  25 C :   -0.052452
  26 H :    0.035952
  27 H :    0.026081
  28 C :   -0.065722
  29 H :    0.015025
  30 H :    0.031191
  31 H :    0.030995
  32 H :    0.026994
  33 H :    0.000055

  Mayer bond orders larger than 0.100000
B(  0-S ,  1-C ) :   1.1423 B(  0-S ,  4-C ) :   1.1410 B(  1-C ,  2-C ) :   1.6104
B(  1-C , 32-H ) :   0.9627 B(  2-C ,  3-C ) :   1.2576 B(  2-C ,  6-C ) :   1.0223
B(  3-C ,  4-C ) :   1.5626 B(  3-C ,  5-H ) :   0.9726 B(  4-C , 20-C ) :   1.0657
B(  6-C ,  7-H ) :   0.9352 B(  6-C ,  8-H ) :   0.9361 B(  6-C ,  9-C ) :   1.0750
B(  9-C , 10-H ) :   0.9553 B(  9-C , 11-H ) :   0.9518 B(  9-C , 12-C ) :   1.0706
B( 12-C , 13-H ) :   0.9671 B( 12-C , 14-H ) :   0.9717 B( 12-C , 15-H ) :   0.9708
B( 16-S , 17-C ) :   1.1288 B( 16-S , 20-C ) :   1.1257 B( 17-C , 18-C ) :   1.6429
B( 17-C , 33-H ) :   0.9806 B( 18-C , 19-C ) :   1.2227 B( 18-C , 21-H ) :   0.9945
B( 19-C , 20-C ) :   1.6201 B( 19-C , 22-C ) :   1.0303 B( 22-C , 23-H ) :   0.9325
B( 22-C , 24-H ) :   0.9375 B( 22-C , 25-C ) :   1.0640 B( 25-C , 26-H ) :   0.9514
B( 25-C , 27-H ) :   0.9434 B( 25-C , 28-C ) :   1.0815 B( 28-C , 29-H ) :   0.9727
B( 28-C , 30-H ) :   0.9741 B( 28-C , 31-H ) :   0.9705

Dispersion correction           -0.015127827
FINAL SINGLE POINT ENERGY     -1339.868895214318

DIPOLE MOMENT
-------------
                                X             Y             Z
Electronic contribution:    -17.81380      20.67344      16.75785
Nuclear contribution   :     18.20717     -21.21216     -17.04607
                        -----------------------------------------
Total Dipole Moment    :      0.39337      -0.53872      -0.28822
                        -----------------------------------------
Magnitude (a.u.)       :      0.72666
Magnitude (Debye)      :      1.84702

Rotational constants in cm-1:     0.016872     0.010591     0.006882
Rotational constants in MHz :   505.824760   317.507842   206.328507

                             ****ORCA TERMINATED NORMALLY****
TOTAL RUN TIME: 0 days 0 hours 0 minutes 33 seconds 746 msec
