                         Program Version 4.2.1 -  RELEASE  -
|  1> ! wB97X-D3 SP def2-SVP
|  2> %pal
|  3> nprocs 16
|  4> end
|  5>
|  6> * xyz 0 1
|  7> S 	 33.8928 	 -5.08487 	 71.6192
|  8> C 	 34.2458 	 -4.19175 	 73.0551
|  9> C 	 33.8077 	 -2.84189 	 72.9555
| 10> C 	 33.4197 	 -2.51175 	 71.6276
| 11> C 	 33.4764 	 -3.60239 	 70.7387
| 12> H 	 33.1345 	 -1.57951 	 71.2471
| 13> C 	 33.9999 	 -1.78182 	 74.0857
| 14> H 	 34.5037 	 -2.35742 	 74.8575
| 15> H 	 33.0561 	 -1.47494 	 74.5235
| 16> C 	 34.7995 	 -0.535706 	 73.6319
| 17> H 	 35.6896 	 -0.894632 	 73.1109
| 18> H 	 34.1842 	 -0.103312 	 72.8191
| 19> C 	 35.2236 	 0.47379 	 74.7572
| 20> H 	 36.1202 	 0.0486513 	 75.2485
| 21> H 	 35.6743 	 1.42191 	 74.3696
| 22> H 	 34.4499 	 0.796676 	 75.4275
| 23> S 	 32.1808 	 -4.97475 	 68.6998
| 24> C 	 32.117 	 -4.24281 	 67.1257
| 25> C 	 32.7367 	 -3.04191 	 67.1227
| 26> C 	 33.1847 	 -2.58222 	 68.4256
| 27> C 	 33.0429 	 -3.6464 	 69.3378
| 28> H 	 32.8544 	 -2.46884 	 66.2906
| 29> C 	 33.8063 	 -1.313 	 68.6656
| 30> H 	 34.5086 	 -1.17757 	 67.8517
| 31> H 	 34.4409 	 -1.4763 	 69.5262
| 32> C 	 32.7748 	 -0.14835 	 68.7707
| 33> H 	 33.3185 	 0.739487 	 69.1731
| 34> H 	 32.0401 	 -0.409098 	 69.5065
| 35> C 	 32.2149 	 0.378548 	 67.4311
| 36> H 	 31.4785 	 -0.255891 	 66.9626
| 37> H 	 33.0915 	 0.482237 	 66.7973
| 38> H 	 31.7729 	 1.41437 	 67.5883
| 39> H 	 34.6495 	 -4.59438 	 73.9768
| 40> H 	 31.7642 	 -4.72009 	 66.1983
| 41> *
| 42>
| 43>                          ****END OF INPUT****

CARTESIAN COORDINATES (ANGSTROEM)
---------------------------------
  S     33.892800   -5.084870   71.619200
  C     34.245800   -4.191750   73.055100
  C     33.807700   -2.841890   72.955500
  C     33.419700   -2.511750   71.627600
  C     33.476400   -3.602390   70.738700
  H     33.134500   -1.579510   71.247100
  C     33.999900   -1.781820   74.085700
  H     34.503700   -2.357420   74.857500
  H     33.056100   -1.474940   74.523500
  C     34.799500   -0.535706   73.631900
  H     35.689600   -0.894632   73.110900
  H     34.184200   -0.103312   72.819100
  C     35.223600    0.473790   74.757200
  H     36.120200    0.048651   75.248500
  H     35.674300    1.421910   74.369600
  H     34.449900    0.796676   75.427500
  S     32.180800   -4.974750   68.699800
  C     32.117000   -4.242810   67.125700
  C     32.736700   -3.041910   67.122700
  C     33.184700   -2.582220   68.425600
  C     33.042900   -3.646400   69.337800
  H     32.854400   -2.468840   66.290600
  C     33.806300   -1.313000   68.665600
  H     34.508600   -1.177570   67.851700
  H     34.440900   -1.476300   69.526200
  C     32.774800   -0.148350   68.770700
  H     33.318500    0.739487   69.173100
  H     32.040100   -0.409098   69.506500
  C     32.214900    0.378548   67.431100
  H     31.478500   -0.255891   66.962600
  H     33.091500    0.482237   66.797300
  H     31.772900    1.414370   67.588300
  H     34.649500   -4.594380   73.976800
  H     31.764200   -4.720090   66.198300

 Total Charge           Charge          ....    0
 Multiplicity           Mult            ....    1
 Number of Electrons    NEL             ....  134
 Basis Dimension        Dim             ....  322

ORBITAL ENERGIES
----------------

  NO   OCC          E(Eh)            E(eV)
   0   2.0000     -88.969724     -2420.9893
   1   2.0000     -88.965816     -2420.8829
   2   2.0000     -10.333225      -281.1813
   3   2.0000     -10.323584      -280.9190
   4   2.0000     -10.317247      -280.7466
   5   2.0000     -10.313045      -280.6322
   6   2.0000     -10.307496      -280.4812
   7   2.0000     -10.295539      -280.1559
   8   2.0000     -10.295388      -280.1518
   9   2.0000     -10.293839      -280.1096
  10   2.0000     -10.293676      -280.1052
  11   2.0000     -10.293457      -280.0992
  12   2.0000     -10.287195      -279.9288
  13   2.0000     -10.286085      -279.8986
  14   2.0000     -10.285287      -279.8769
  15   2.0000     -10.283541      -279.8294
  16   2.0000      -8.084089      -219.9792
  17   2.0000      -8.081490      -219.9085
  18   2.0000      -6.042545      -164.4260
  19   2.0000      -6.040084      -164.3590
  20   2.0000      -6.038642      -164.3198
  21   2.0000      -6.035889      -164.2449
  22   2.0000      -6.034962      -164.2197
  23   2.0000      -6.032089      -164.1415
  24   2.0000      -1.008853       -27.4523
  25   2.0000      -0.983452       -26.7611
  26   2.0000      -0.917662       -24.9709
  27   2.0000      -0.903185       -24.5769
  28   2.0000      -0.868585       -23.6354
  29   2.0000      -0.853935       -23.2368
  30   2.0000      -0.844474       -22.9793
  31   2.0000      -0.816834       -22.2272
  32   2.0000      -0.785084       -21.3632
  33   2.0000      -0.769307       -20.9339
  34   2.0000      -0.711532       -19.3618
  35   2.0000      -0.702043       -19.1036
  36   2.0000      -0.690094       -18.7784
  37   2.0000      -0.666808       -18.1448
  38   2.0000      -0.641981       -17.4692
  39   2.0000      -0.620770       -16.8920
  40   2.0000      -0.597421       -16.2567
  41   2.0000      -0.570026       -15.5112
  42   2.0000      -0.559970       -15.2375
  43   2.0000      -0.553387       -15.0584
  44   2.0000      -0.547484       -14.8978
  45   2.0000      -0.520062       -14.1516
  46   2.0000      -0.514875       -14.0104
  47   2.0000      -0.507459       -13.8087
  48   2.0000      -0.502436       -13.6720
  49   2.0000      -0.498005       -13.5514
  50   2.0000      -0.496736       -13.5169
  51   2.0000      -0.485039       -13.1986
  52   2.0000      -0.476635       -12.9699
  53   2.0000      -0.465211       -12.6590
  54   2.0000      -0.461729       -12.5643
  55   2.0000      -0.446322       -12.1450
  56   2.0000      -0.443970       -12.0810
  57   2.0000      -0.441322       -12.0090
  58   2.0000      -0.434936       -11.8352
  59   2.0000      -0.428302       -11.6547
  60   2.0000      -0.420918       -11.4538
  61   2.0000      -0.420347       -11.4382
  62   2.0000      -0.415955       -11.3187
  63   2.0000      -0.356774        -9.7083
  64   2.0000      -0.334139        -9.0924
  65   2.0000      -0.326461        -8.8835
  66   2.0000      -0.280788        -7.6406
  67   0.0000       0.024909         0.6778
  68   0.0000       0.078529         2.1369
  69   0.0000       0.113105         3.0777
  70   0.0000       0.120561         3.2806
  71   0.0000       0.130601         3.5538

MULLIKEN ATOMIC CHARGES
-----------------------
   0 S :    0.116328
   1 C :   -0.116089
   2 C :   -0.098240
   3 C :    0.042497
   4 C :   -0.170047
   5 H :   -0.024483
   6 C :    0.093484
   7 H :    0.007160
   8 H :    0.033848
   9 C :   -0.105417
  10 H :    0.034038
  11 H :    0.034416
  12 C :   -0.052298
  13 H :    0.038787
  14 H :    0.032896
  15 H :    0.040536
  16 S :    0.115756
  17 C :   -0.086625
  18 C :    0.019923
  19 C :   -0.081120
  20 C :   -0.116742
  21 H :   -0.029000
  22 C :    0.041882
  23 H :    0.021043
  24 H :    0.028525
  25 C :   -0.077408
  26 H :    0.033195
  27 H :    0.039492
  28 C :   -0.050843
  29 H :    0.046203
  30 H :    0.027076
  31 H :    0.047822
  32 H :    0.050610
  33 H :    0.062795
Sum of atomic charges:    0.0000000

LOEWDIN ATOMIC CHARGES
----------------------
   0 S :    0.410555
   1 C :   -0.209107
   2 C :   -0.057345
   3 C :   -0.060344
   4 C :   -0.179352
   5 H :    0.018510
   6 C :   -0.028079
   7 H :    0.024370
   8 H :    0.028713
   9 C :   -0.044475
  10 H :    0.026732
  11 H :    0.022560
  12 C :   -0.072189
  13 H :    0.032222
  14 H :    0.032652
  15 H :    0.022895
  16 S :    0.421399
  17 C :   -0.195284
  18 C :   -0.056768
  19 C :   -0.055209
  20 C :   -0.214871
  21 H :    0.012024
  22 C :   -0.043233
  23 H :    0.032652
  24 H :    0.034052
  25 C :   -0.035901
  26 H :    0.029665
  27 H :    0.019103
  28 C :   -0.065419
  29 H :    0.021806
  30 H :    0.024700
  31 H :    0.037334
  32 H :    0.028158
  33 H :    0.037473

  Mayer bond orders larger than 0.100000
B(  0-S ,  1-C ) :   1.1561 B(  0-S ,  4-C ) :   1.1542 B(  1-C ,  2-C ) :   1.5805
B(  1-C ,  4-C ) :   0.1063 B(  1-C , 32-H ) :   0.9642 B(  2-C ,  3-C ) :   1.2592
B(  2-C ,  6-C ) :   1.0237 B(  3-C ,  4-C ) :   1.5313 B(  3-C ,  5-H ) :   0.9987
B(  4-C , 20-C ) :   1.0635 B(  6-C ,  7-H ) :   0.9440 B(  6-C ,  8-H ) :   0.9350
B(  6-C ,  9-C ) :   1.0543 B(  9-C , 10-H ) :   0.9609 B(  9-C , 11-H ) :   0.9555
B(  9-C , 12-C ) :   1.0731 B( 12-C , 13-H ) :   0.9759 B( 12-C , 14-H ) :   0.9741
B( 12-C , 15-H ) :   0.9781 B( 16-S , 17-C ) :   1.1318 B( 16-S , 20-C ) :   1.1522
B( 17-C , 18-C ) :   1.6165 B( 17-C , 33-H ) :   0.9633 B( 18-C , 19-C ) :   1.2399
B( 18-C , 21-H ) :   1.0009 B( 19-C , 20-C ) :   1.5575 B( 19-C , 22-C ) :   1.0592
B( 22-C , 23-H ) :   0.9296 B( 22-C , 24-H ) :   0.9247 B( 22-C , 25-C ) :   1.0557
B( 25-C , 26-H ) :   0.9571 B( 25-C , 27-H ) :   0.9522 B( 25-C , 28-C ) :   1.0728
B( 28-C , 29-H ) :   0.9738 B( 28-C , 30-H ) :   0.9732 B( 28-C , 31-H ) :   0.9731

Dispersion correction           -0.014509245
FINAL SINGLE POINT ENERGY     -1339.879103250101

DIPOLE MOMENT
-------------
                                X             Y             Z
Electronic contribution:     -5.23044     -30.65673      -6.53179
Nuclear contribution   :      5.39210      31.39182       6.53315
                        -----------------------------------------
Total Dipole Moment    :      0.16166       0.73509       0.00136
                        -----------------------------------------
Magnitude (a.u.)       :      0.75266
Magnitude (Debye)      :      1.91311

Rotational constants in cm-1:     0.018058     0.009301     0.006364
Rotational constants in MHz :   541.379779   278.824418   190.799557

                             ****ORCA TERMINATED NORMALLY****
TOTAL RUN TIME: 0 days 0 hours 0 minutes 30 seconds 951 msec
