                         Program Version 4.2.1 -  RELEASE  -
|  1> ! wB97X-D3 SP def2-SVP
|  2> %pal
|  3> nprocs 16
|  4> end
|  5>
|  6> * xyz 0 1
|  7> S 	 43.8499 	 8.46303 	 85.7736
|  8> C 	 45.1959 	 9.62281 	 85.968
|  9> C 	 45.4805 	 9.69172 	 87.3023
| 10> C 	 44.6276 	 8.88149 	 88.1266
| 11> C 	 43.7139 	 8.15891 	 87.4389
| 12> H 	 44.5976 	 8.81093 	 89.1794
| 13> C 	 46.645 	 10.3955 	 87.9464
| 14> H 	 46.48 	 10.3379 	 89.0126
| 15> H 	 46.6441 	 11.4461 	 87.5854
| 16> C 	 48.0291 	 9.82224 	 87.5777
| 17> H 	 48.2291 	 9.98517 	 86.4567
| 18> H 	 48.7989 	 10.3809 	 88.1594
| 19> C 	 48.0721 	 8.38044 	 88.0403
| 20> H 	 47.2733 	 7.81008 	 87.6349
| 21> H 	 49.0489 	 8.04085 	 87.8452
| 22> H 	 48.2002 	 8.3942 	 89.1052
| 23> S 	 41.0794 	 7.49448 	 87.284
| 24> C 	 40.5356 	 6.02227 	 88.0046
| 25> C 	 41.4521 	 5.3909 	 88.7982
| 26> C 	 42.6909 	 6.1531 	 88.8454
| 27> C 	 42.6511 	 7.26813 	 87.9943
| 28> H 	 41.2896 	 4.41777 	 89.3635
| 29> C 	 43.8565 	 5.64425 	 89.6321
| 30> H 	 43.5605 	 5.44041 	 90.6031
| 31> H 	 44.5186 	 6.44473 	 89.7434
| 32> C 	 44.5344 	 4.46012 	 88.9346
| 33> H 	 44.8415 	 4.73762 	 87.8902
| 34> H 	 43.8507 	 3.62766 	 88.7992
| 35> C 	 45.7152 	 3.87439 	 89.6812
| 36> H 	 46.2597 	 4.64297 	 90.2223
| 37> H 	 46.3809 	 3.38084 	 89.0876
| 38> H 	 45.3529 	 3.20102 	 90.476
| 39> H 	 45.6817 	 10.3041 	 85.284
| 40> H 	 39.5398 	 5.62379 	 87.9531
| 41> *
| 42>
| 43>                          ****END OF INPUT****

CARTESIAN COORDINATES (ANGSTROEM)
---------------------------------
  S     43.849900    8.463030   85.773600
  C     45.195900    9.622810   85.968000
  C     45.480500    9.691720   87.302300
  C     44.627600    8.881490   88.126600
  C     43.713900    8.158910   87.438900
  H     44.597600    8.810930   89.179400
  C     46.645000   10.395500   87.946400
  H     46.480000   10.337900   89.012600
  H     46.644100   11.446100   87.585400
  C     48.029100    9.822240   87.577700
  H     48.229100    9.985170   86.456700
  H     48.798900   10.380900   88.159400
  C     48.072100    8.380440   88.040300
  H     47.273300    7.810080   87.634900
  H     49.048900    8.040850   87.845200
  H     48.200200    8.394200   89.105200
  S     41.079400    7.494480   87.284000
  C     40.535600    6.022270   88.004600
  C     41.452100    5.390900   88.798200
  C     42.690900    6.153100   88.845400
  C     42.651100    7.268130   87.994300
  H     41.289600    4.417770   89.363500
  C     43.856500    5.644250   89.632100
  H     43.560500    5.440410   90.603100
  H     44.518600    6.444730   89.743400
  C     44.534400    4.460120   88.934600
  H     44.841500    4.737620   87.890200
  H     43.850700    3.627660   88.799200
  C     45.715200    3.874390   89.681200
  H     46.259700    4.642970   90.222300
  H     46.380900    3.380840   89.087600
  H     45.352900    3.201020   90.476000
  H     45.681700   10.304100   85.284000
  H     39.539800    5.623790   87.953100

 Total Charge           Charge          ....    0
 Multiplicity           Mult            ....    1
 Number of Electrons    NEL             ....  134
 Basis Dimension        Dim             ....  322

ORBITAL ENERGIES
----------------

  NO   OCC          E(Eh)            E(eV)
   0   2.0000     -88.967638     -2420.9325
   1   2.0000     -88.965129     -2420.8642
   2   2.0000     -10.329348      -281.0758
   3   2.0000     -10.325666      -280.9757
   4   2.0000     -10.314023      -280.6588
   5   2.0000     -10.312829      -280.6263
   6   2.0000     -10.306228      -280.4467
   7   2.0000     -10.299177      -280.2549
   8   2.0000     -10.296509      -280.1823
   9   2.0000     -10.292089      -280.0620
  10   2.0000     -10.287834      -279.9462
  11   2.0000     -10.285703      -279.8882
  12   2.0000     -10.283322      -279.8234
  13   2.0000     -10.281179      -279.7651
  14   2.0000     -10.268424      -279.4180
  15   2.0000     -10.264256      -279.3046
  16   2.0000      -8.082926      -219.9476
  17   2.0000      -8.080017      -219.8684
  18   2.0000      -6.041387      -164.3945
  19   2.0000      -6.038643      -164.3198
  20   2.0000      -6.037390      -164.2857
  21   2.0000      -6.034383      -164.2039
  22   2.0000      -6.033668      -164.1845
  23   2.0000      -6.030708      -164.1039
  24   2.0000      -1.011299       -27.5189
  25   2.0000      -0.988198       -26.8902
  26   2.0000      -0.916660       -24.9436
  27   2.0000      -0.914513       -24.8852
  28   2.0000      -0.868356       -23.6292
  29   2.0000      -0.854836       -23.2613
  30   2.0000      -0.843780       -22.9604
  31   2.0000      -0.819507       -22.2999
  32   2.0000      -0.785829       -21.3835
  33   2.0000      -0.775764       -21.1096
  34   2.0000      -0.705533       -19.1985
  35   2.0000      -0.701787       -19.0966
  36   2.0000      -0.691330       -18.8120
  37   2.0000      -0.660080       -17.9617
  38   2.0000      -0.638604       -17.3773
  39   2.0000      -0.613530       -16.6950
  40   2.0000      -0.596205       -16.2236
  41   2.0000      -0.578027       -15.7289
  42   2.0000      -0.564822       -15.3696
  43   2.0000      -0.558400       -15.1948
  44   2.0000      -0.547020       -14.8852
  45   2.0000      -0.533869       -14.5273
  46   2.0000      -0.514380       -13.9970
  47   2.0000      -0.510805       -13.8997
  48   2.0000      -0.506615       -13.7857
  49   2.0000      -0.498480       -13.5643
  50   2.0000      -0.493371       -13.4253
  51   2.0000      -0.483811       -13.1652
  52   2.0000      -0.469987       -12.7890
  53   2.0000      -0.466596       -12.6967
  54   2.0000      -0.458451       -12.4751
  55   2.0000      -0.451631       -12.2895
  56   2.0000      -0.443232       -12.0610
  57   2.0000      -0.438683       -11.9372
  58   2.0000      -0.430319       -11.7096
  59   2.0000      -0.425301       -11.5730
  60   2.0000      -0.420285       -11.4365
  61   2.0000      -0.415432       -11.3045
  62   2.0000      -0.409434       -11.1413
  63   2.0000      -0.347155        -9.4466
  64   2.0000      -0.333291        -9.0693
  65   2.0000      -0.326202        -8.8764
  66   2.0000      -0.296158        -8.0589
  67   0.0000       0.034101         0.9279
  68   0.0000       0.074883         2.0377
  69   0.0000       0.113236         3.0813
  70   0.0000       0.116930         3.1818
  71   0.0000       0.131653         3.5825

MULLIKEN ATOMIC CHARGES
-----------------------
   0 S :    0.107287
   1 C :   -0.116032
   2 C :   -0.107827
   3 C :    0.020568
   4 C :   -0.120977
   5 H :   -0.003490
   6 C :    0.073044
   7 H :    0.016543
   8 H :    0.032547
   9 C :   -0.111954
  10 H :    0.040454
  11 H :    0.032241
  12 C :    0.005391
  13 H :    0.061417
  14 H :    0.006200
  15 H :    0.009039
  16 S :    0.119422
  17 C :   -0.075254
  18 C :   -0.056482
  19 C :   -0.077596
  20 C :   -0.171813
  21 H :    0.046994
  22 C :    0.173662
  23 H :    0.002867
  24 H :   -0.017490
  25 C :   -0.112689
  26 H :    0.039120
  27 H :    0.023371
  28 C :    0.011446
  29 H :    0.015515
  30 H :    0.017061
  31 H :    0.024703
  32 H :    0.043862
  33 H :    0.048849
Sum of atomic charges:   -0.0000000

LOEWDIN ATOMIC CHARGES
----------------------
   0 S :    0.412634
   1 C :   -0.197106
   2 C :   -0.063058
   3 C :   -0.076612
   4 C :   -0.204135
   5 H :    0.022981
   6 C :   -0.035783
   7 H :    0.026137
   8 H :    0.033172
   9 C :   -0.040486
  10 H :    0.026813
  11 H :    0.026434
  12 C :   -0.062012
  13 H :    0.026436
  14 H :    0.021528
  15 H :    0.026525
  16 S :    0.421568
  17 C :   -0.189516
  18 C :   -0.076803
  19 C :   -0.044410
  20 C :   -0.204415
  21 H :    0.045561
  22 C :   -0.023394
  23 H :    0.023086
  24 H :    0.020871
  25 C :   -0.036674
  26 H :    0.031746
  27 H :    0.021276
  28 C :   -0.057910
  29 H :    0.022987
  30 H :    0.014000
  31 H :    0.027765
  32 H :    0.033953
  33 H :    0.026843

  Mayer bond orders larger than 0.100000
B(  0-S ,  1-C ) :   1.1109 B(  0-S ,  4-C ) :   1.1615 B(  1-C ,  2-C ) :   1.6244
B(  1-C , 32-H ) :   0.9715 B(  2-C ,  3-C ) :   1.2172 B(  2-C ,  6-C ) :   1.0284
B(  3-C ,  4-C ) :   1.5964 B(  3-C ,  5-H ) :   1.0011 B(  4-C , 20-C ) :   1.0027
B(  6-C ,  7-H ) :   0.9425 B(  6-C ,  8-H ) :   0.9313 B(  6-C ,  9-C ) :   1.0763
B(  9-C , 10-H ) :   0.9545 B(  9-C , 11-H ) :   0.9552 B(  9-C , 12-C ) :   1.0774
B( 12-C , 13-H ) :   0.9758 B( 12-C , 14-H ) :   0.9632 B( 12-C , 15-H ) :   0.9657
B( 16-S , 17-C ) :   1.1543 B( 16-S , 20-C ) :   1.1443 B( 17-C , 18-C ) :   1.6252
B( 17-C , 33-H ) :   0.9643 B( 18-C , 19-C ) :   1.2369 B( 18-C , 21-H ) :   0.9771
B( 19-C , 20-C ) :   1.6024 B( 19-C , 22-C ) :   1.0558 B( 22-C , 23-H ) :   0.9193
B( 22-C , 24-H ) :   0.9143 B( 22-C , 25-C ) :   1.0613 B( 25-C , 26-H ) :   0.9566
B( 25-C , 27-H ) :   0.9599 B( 25-C , 28-C ) :   1.0830 B( 28-C , 29-H ) :   0.9723
B( 28-C , 30-H ) :   0.9735 B( 28-C , 31-H ) :   0.9727

Dispersion correction           -0.014787222
FINAL SINGLE POINT ENERGY     -1339.869899596044

DIPOLE MOMENT
-------------
                                X             Y             Z
Electronic contribution:    -25.31780       7.81491     -13.11856
Nuclear contribution   :     25.74239      -8.03483      13.62942
                        -----------------------------------------
Total Dipole Moment    :      0.42459      -0.21992       0.51086
                        -----------------------------------------
Magnitude (a.u.)       :      0.69973
Magnitude (Debye)      :      1.77857

Rotational constants in cm-1:     0.018080     0.009986     0.007060
Rotational constants in MHz :   542.021980   299.376345   211.660395

                             ****ORCA TERMINATED NORMALLY****
TOTAL RUN TIME: 0 days 0 hours 0 minutes 31 seconds 324 msec
