                         Program Version 4.2.1 -  RELEASE  -
|  1> ! wB97X-D3 SP def2-SVP
|  2> %pal
|  3> nprocs 16
|  4> end
|  5>
|  6> * xyz 0 1
|  7> S 	 -12.4248 	 40.8483 	 29.8728
|  8> C 	 -13.4555 	 39.4907 	 29.6362
|  9> C 	 -14.521 	 39.5524 	 30.5455
| 10> C 	 -14.3059 	 40.5121 	 31.6247
| 11> C 	 -13.1418 	 41.2375 	 31.4817
| 12> H 	 -14.9604 	 40.8133 	 32.4434
| 13> C 	 -15.7647 	 38.7612 	 30.284
| 14> H 	 -15.4862 	 37.7889 	 30.7037
| 15> H 	 -15.8863 	 38.5497 	 29.1901
| 16> C 	 -17.0685 	 39.0951 	 31.0193
| 17> H 	 -17.756 	 38.3086 	 30.6041
| 18> H 	 -17.0088 	 38.9848 	 32.0962
| 19> C 	 -17.6658 	 40.4554 	 30.6335
| 20> H 	 -17.0924 	 41.3396 	 31.0139
| 21> H 	 -17.8746 	 40.5721 	 29.5798
| 22> H 	 -18.6255 	 40.4252 	 31.142
| 23> S 	 -11.9987 	 43.699 	 31.568
| 24> C 	 -11.3408 	 44.325 	 32.9631
| 25> C 	 -11.4316 	 43.431 	 34.027
| 26> C 	 -12.3049 	 42.3516 	 33.6899
| 27> C 	 -12.5927 	 42.2669 	 32.3467
| 28> H 	 -11.275 	 43.7393 	 35.0105
| 29> C 	 -12.8104 	 41.2501 	 34.6346
| 30> H 	 -12.0064 	 40.953 	 35.2979
| 31> H 	 -13.0735 	 40.2691 	 34.1726
| 32> C 	 -14.0522 	 41.6826 	 35.3975
| 33> H 	 -14.3205 	 40.8832 	 36.1256
| 34> H 	 -14.8251 	 41.7507 	 34.6707
| 35> C 	 -14.022 	 43.0237 	 36.0536
| 36> H 	 -14.8777 	 43.1844 	 36.7078
| 37> H 	 -14.2292 	 43.8399 	 35.4263
| 38> H 	 -13.1143 	 43.1861 	 36.7217
| 39> H 	 -13.6103 	 39.0539 	 28.677
| 40> H 	 -10.7841 	 45.2192 	 33.0185
| 41> *
| 42>
| 43>                          ****END OF INPUT****

CARTESIAN COORDINATES (ANGSTROEM)
---------------------------------
  S    -12.424800   40.848300   29.872800
  C    -13.455500   39.490700   29.636200
  C    -14.521000   39.552400   30.545500
  C    -14.305900   40.512100   31.624700
  C    -13.141800   41.237500   31.481700
  H    -14.960400   40.813300   32.443400
  C    -15.764700   38.761200   30.284000
  H    -15.486200   37.788900   30.703700
  H    -15.886300   38.549700   29.190100
  C    -17.068500   39.095100   31.019300
  H    -17.756000   38.308600   30.604100
  H    -17.008800   38.984800   32.096200
  C    -17.665800   40.455400   30.633500
  H    -17.092400   41.339600   31.013900
  H    -17.874600   40.572100   29.579800
  H    -18.625500   40.425200   31.142000
  S    -11.998700   43.699000   31.568000
  C    -11.340800   44.325000   32.963100
  C    -11.431600   43.431000   34.027000
  C    -12.304900   42.351600   33.689900
  C    -12.592700   42.266900   32.346700
  H    -11.275000   43.739300   35.010500
  C    -12.810400   41.250100   34.634600
  H    -12.006400   40.953000   35.297900
  H    -13.073500   40.269100   34.172600
  C    -14.052200   41.682600   35.397500
  H    -14.320500   40.883200   36.125600
  H    -14.825100   41.750700   34.670700
  C    -14.022000   43.023700   36.053600
  H    -14.877700   43.184400   36.707800
  H    -14.229200   43.839900   35.426300
  H    -13.114300   43.186100   36.721700
  H    -13.610300   39.053900   28.677000
  H    -10.784100   45.219200   33.018500

 Total Charge           Charge          ....    0
 Multiplicity           Mult            ....    1
 Number of Electrons    NEL             ....  134
 Basis Dimension        Dim             ....  322

ORBITAL ENERGIES
----------------

  NO   OCC          E(Eh)            E(eV)
   0   2.0000     -88.963801     -2420.8281
   1   2.0000     -88.961481     -2420.7650
   2   2.0000     -10.333936      -281.2007
   3   2.0000     -10.322023      -280.8765
   4   2.0000     -10.313239      -280.6375
   5   2.0000     -10.306207      -280.4461
   6   2.0000     -10.305713      -280.4327
   7   2.0000     -10.303892      -280.3832
   8   2.0000     -10.298914      -280.2477
   9   2.0000     -10.293988      -280.1137
  10   2.0000     -10.292319      -280.0682
  11   2.0000     -10.289957      -280.0040
  12   2.0000     -10.289718      -279.9975
  13   2.0000     -10.283251      -279.8215
  14   2.0000     -10.277388      -279.6619
  15   2.0000     -10.273985      -279.5693
  16   2.0000      -8.080769      -219.8889
  17   2.0000      -8.075857      -219.7552
  18   2.0000      -6.038949      -164.3282
  19   2.0000      -6.034787      -164.2149
  20   2.0000      -6.034501      -164.2071
  21   2.0000      -6.031906      -164.1365
  22   2.0000      -6.030537      -164.0992
  23   2.0000      -6.026358      -163.9856
  24   2.0000      -1.014297       -27.6004
  25   2.0000      -0.985269       -26.8105
  26   2.0000      -0.915310       -24.9069
  27   2.0000      -0.911041       -24.7907
  28   2.0000      -0.874591       -23.7988
  29   2.0000      -0.852461       -23.1967
  30   2.0000      -0.840967       -22.8839
  31   2.0000      -0.821941       -22.3662
  32   2.0000      -0.789993       -21.4968
  33   2.0000      -0.772139       -21.0110
  34   2.0000      -0.709951       -19.3187
  35   2.0000      -0.693419       -18.8689
  36   2.0000      -0.689335       -18.7578
  37   2.0000      -0.665937       -18.1211
  38   2.0000      -0.641028       -17.4432
  39   2.0000      -0.618590       -16.8327
  40   2.0000      -0.599968       -16.3259
  41   2.0000      -0.570761       -15.5312
  42   2.0000      -0.562136       -15.2965
  43   2.0000      -0.549438       -14.9510
  44   2.0000      -0.541385       -14.7318
  45   2.0000      -0.534293       -14.5389
  46   2.0000      -0.523635       -14.2488
  47   2.0000      -0.516571       -14.0566
  48   2.0000      -0.504827       -13.7371
  49   2.0000      -0.495354       -13.4793
  50   2.0000      -0.492302       -13.3962
  51   2.0000      -0.483666       -13.1612
  52   2.0000      -0.476818       -12.9749
  53   2.0000      -0.467931       -12.7330
  54   2.0000      -0.463614       -12.6156
  55   2.0000      -0.446735       -12.1563
  56   2.0000      -0.440798       -11.9947
  57   2.0000      -0.439765       -11.9666
  58   2.0000      -0.430571       -11.7164
  59   2.0000      -0.421403       -11.4669
  60   2.0000      -0.418954       -11.4003
  61   2.0000      -0.410597       -11.1729
  62   2.0000      -0.404218       -10.9993
  63   2.0000      -0.353848        -9.6287
  64   2.0000      -0.333248        -9.0682
  65   2.0000      -0.320324        -8.7165
  66   2.0000      -0.286725        -7.8022
  67   0.0000       0.026253         0.7144
  68   0.0000       0.066464         1.8086
  69   0.0000       0.109600         2.9824
  70   0.0000       0.122544         3.3346
  71   0.0000       0.132727         3.6117

MULLIKEN ATOMIC CHARGES
-----------------------
   0 S :    0.097478
   1 C :   -0.095334
   2 C :   -0.112853
   3 C :    0.015618
   4 C :   -0.116789
   5 H :    0.017246
   6 C :    0.034959
   7 H :    0.038894
   8 H :    0.034251
   9 C :   -0.087715
  10 H :    0.037534
  11 H :    0.036899
  12 C :   -0.051510
  13 H :    0.047351
  14 H :    0.031835
  15 H :    0.029270
  16 S :    0.118161
  17 C :   -0.082574
  18 C :    0.015298
  19 C :   -0.076745
  20 C :   -0.165357
  21 H :    0.005422
  22 C :    0.046138
  23 H :    0.020408
  24 H :    0.036933
  25 C :   -0.050303
  26 H :    0.037515
  27 H :    0.008160
  28 C :   -0.050393
  29 H :    0.017992
  30 H :    0.026355
  31 H :    0.037663
  32 H :    0.048338
  33 H :    0.049854
Sum of atomic charges:    0.0000000

LOEWDIN ATOMIC CHARGES
----------------------
   0 S :    0.390614
   1 C :   -0.217777
   2 C :   -0.053940
   3 C :   -0.073827
   4 C :   -0.169710
   5 H :    0.032095
   6 C :   -0.048136
   7 H :    0.040982
   8 H :    0.035597
   9 C :   -0.043597
  10 H :    0.036610
  11 H :    0.024852
  12 C :   -0.070450
  13 H :    0.029617
  14 H :    0.024069
  15 H :    0.026847
  16 S :    0.451370
  17 C :   -0.194643
  18 C :   -0.069238
  19 C :   -0.048038
  20 C :   -0.210518
  21 H :    0.020875
  22 C :   -0.034586
  23 H :    0.026032
  24 H :    0.036921
  25 C :   -0.042226
  26 H :    0.029655
  27 H :    0.016748
  28 C :   -0.074627
  29 H :    0.029151
  30 H :    0.022236
  31 H :    0.029323
  32 H :    0.023539
  33 H :    0.024179

  Mayer bond orders larger than 0.100000
B(  0-S ,  1-C ) :   1.1335 B(  0-S ,  4-C ) :   1.1438 B(  1-C ,  2-C ) :   1.6082
B(  1-C ,  4-C ) :   0.1004 B(  1-C , 32-H ) :   0.9657 B(  2-C ,  3-C ) :   1.2214
B(  2-C ,  6-C ) :   1.0165 B(  3-C ,  4-C ) :   1.5680 B(  3-C ,  5-H ) :   0.9907
B(  4-C , 20-C ) :   1.0589 B(  6-C ,  7-H ) :   0.9252 B(  6-C ,  8-H ) :   0.9448
B(  6-C ,  9-C ) :   1.0907 B(  9-C , 10-H ) :   0.9498 B(  9-C , 11-H ) :   0.9487
B(  9-C , 12-C ) :   1.0822 B( 12-C , 13-H ) :   0.9739 B( 12-C , 14-H ) :   0.9742
B( 12-C , 15-H ) :   0.9741 B( 16-S , 17-C ) :   1.2082 B( 16-S , 20-C ) :   1.1439
B( 17-C , 18-C ) :   1.5637 B( 17-C , 33-H ) :   0.9711 B( 18-C , 19-C ) :   1.2884
B( 18-C , 21-H ) :   0.9820 B( 19-C , 20-C ) :   1.5727 B( 19-C , 22-C ) :   1.0323
B( 22-C , 23-H ) :   0.9365 B( 22-C , 24-H ) :   0.9411 B( 22-C , 25-C ) :   1.0728
B( 25-C , 26-H ) :   0.9538 B( 25-C , 27-H ) :   0.9448 B( 25-C , 28-C ) :   1.1012
B( 28-C , 29-H ) :   0.9626 B( 28-C , 30-H ) :   0.9643 B( 28-C , 31-H ) :   0.9724

Dispersion correction           -0.014970953
FINAL SINGLE POINT ENERGY     -1339.861747446615

DIPOLE MOMENT
-------------
                                X             Y             Z
Electronic contribution:     21.29627       7.50699     -14.53672
Nuclear contribution   :    -21.92603      -7.58563      14.92343
                        -----------------------------------------
Total Dipole Moment    :     -0.62976      -0.07864       0.38671
                        -----------------------------------------
Magnitude (a.u.)       :      0.74319
Magnitude (Debye)      :      1.88903

Rotational constants in cm-1:     0.018969     0.009434     0.007212
Rotational constants in MHz :   568.685569   282.824131   216.212427

                             ****ORCA TERMINATED NORMALLY****
TOTAL RUN TIME: 0 days 0 hours 0 minutes 33 seconds 635 msec
