                         Program Version 4.2.1 -  RELEASE  -
|  1> ! wB97X-D3 SP def2-SVP
|  2> %pal
|  3> nprocs 16
|  4> end
|  5>
|  6> * xyz 0 1
|  7> S 	 47.1831 	 11.4958 	 84.283
|  8> C 	 46.8256 	 13.2148 	 84.2462
|  9> C 	 45.9512 	 13.5161 	 83.2073
| 10> C 	 45.7418 	 12.3967 	 82.3598
| 11> C 	 46.4015 	 11.2365 	 82.6903
| 12> H 	 45.0707 	 12.3735 	 81.5052
| 13> C 	 45.1983 	 14.8252 	 83.0041
| 14> H 	 45.8316 	 15.5564 	 82.5176
| 15> H 	 45.1416 	 15.32 	 83.983
| 16> C 	 43.858 	 14.8189 	 82.203
| 17> H 	 44.0123 	 14.6311 	 81.1845
| 18> H 	 43.1717 	 14.0142 	 82.508
| 19> C 	 43.115 	 16.1061 	 82.2669
| 20> H 	 43.799 	 17.0365 	 82.1868
| 21> H 	 42.3937 	 16.1923 	 81.4753
| 22> H 	 42.5761 	 16.2378 	 83.1871
| 23> S 	 46.0454 	 9.9977 	 80.2729
| 24> C 	 46.4951 	 8.37056 	 80.054
| 25> C 	 46.8316 	 7.75581 	 81.2046
| 26> C 	 46.8111 	 8.64733 	 82.3594
| 27> C 	 46.4269 	 9.95261 	 82.0009
| 28> H 	 47.0793 	 6.70914 	 81.2451
| 29> C 	 47.1175 	 8.09759 	 83.7212
| 30> H 	 47.9926 	 8.69046 	 84.0974
| 31> H 	 47.4257 	 7.01996 	 83.718
| 32> C 	 45.9229 	 7.97482 	 84.7058
| 33> H 	 45.266 	 7.34861 	 84.3218
| 34> H 	 45.6456 	 8.96424 	 84.8536
| 35> C 	 46.3929 	 7.39039 	 86.0608
| 36> H 	 47.1651 	 8.05444 	 86.5151
| 37> H 	 46.8871 	 6.47938 	 85.9812
| 38> H 	 45.6042 	 7.34931 	 86.841
| 39> H 	 47.0845 	 13.8844 	 84.9988
| 40> H 	 46.5863 	 7.91054 	 79.0906
| 41> *
| 42>
| 43>                          ****END OF INPUT****

CARTESIAN COORDINATES (ANGSTROEM)
---------------------------------
  S     47.183100   11.495800   84.283000
  C     46.825600   13.214800   84.246200
  C     45.951200   13.516100   83.207300
  C     45.741800   12.396700   82.359800
  C     46.401500   11.236500   82.690300
  H     45.070700   12.373500   81.505200
  C     45.198300   14.825200   83.004100
  H     45.831600   15.556400   82.517600
  H     45.141600   15.320000   83.983000
  C     43.858000   14.818900   82.203000
  H     44.012300   14.631100   81.184500
  H     43.171700   14.014200   82.508000
  C     43.115000   16.106100   82.266900
  H     43.799000   17.036500   82.186800
  H     42.393700   16.192300   81.475300
  H     42.576100   16.237800   83.187100
  S     46.045400    9.997700   80.272900
  C     46.495100    8.370560   80.054000
  C     46.831600    7.755810   81.204600
  C     46.811100    8.647330   82.359400
  C     46.426900    9.952610   82.000900
  H     47.079300    6.709140   81.245100
  C     47.117500    8.097590   83.721200
  H     47.992600    8.690460   84.097400
  H     47.425700    7.019960   83.718000
  C     45.922900    7.974820   84.705800
  H     45.266000    7.348610   84.321800
  H     45.645600    8.964240   84.853600
  C     46.392900    7.390390   86.060800
  H     47.165100    8.054440   86.515100
  H     46.887100    6.479380   85.981200
  H     45.604200    7.349310   86.841000
  H     47.084500   13.884400   84.998800
  H     46.586300    7.910540   79.090600

 Total Charge           Charge          ....    0
 Multiplicity           Mult            ....    1
 Number of Electrons    NEL             ....  134
 Basis Dimension        Dim             ....  322

ORBITAL ENERGIES
----------------

  NO   OCC          E(Eh)            E(eV)
   0   2.0000     -88.967361     -2420.9250
   1   2.0000     -88.964864     -2420.8570
   2   2.0000     -10.335507      -281.2434
   3   2.0000     -10.333487      -281.1885
   4   2.0000     -10.311570      -280.5921
   5   2.0000     -10.311398      -280.5874
   6   2.0000     -10.308531      -280.5094
   7   2.0000     -10.304347      -280.3955
   8   2.0000     -10.296384      -280.1789
   9   2.0000     -10.294646      -280.1316
  10   2.0000     -10.291653      -280.0501
  11   2.0000     -10.291055      -280.0338
  12   2.0000     -10.286028      -279.8970
  13   2.0000     -10.280172      -279.7377
  14   2.0000     -10.274005      -279.5699
  15   2.0000     -10.270434      -279.4727
  16   2.0000      -8.080754      -219.8885
  17   2.0000      -8.080334      -219.8771
  18   2.0000      -6.039448      -164.3417
  19   2.0000      -6.038892      -164.3266
  20   2.0000      -6.035536      -164.2353
  21   2.0000      -6.034802      -164.2153
  22   2.0000      -6.031338      -164.1210
  23   2.0000      -6.030955      -164.1106
  24   2.0000      -1.006457       -27.3871
  25   2.0000      -0.984659       -26.7939
  26   2.0000      -0.912893       -24.8411
  27   2.0000      -0.910517       -24.7764
  28   2.0000      -0.875225       -23.8161
  29   2.0000      -0.853882       -23.2353
  30   2.0000      -0.846830       -23.0434
  31   2.0000      -0.816998       -22.2316
  32   2.0000      -0.781784       -21.2734
  33   2.0000      -0.769782       -20.9468
  34   2.0000      -0.716680       -19.5018
  35   2.0000      -0.704608       -19.1734
  36   2.0000      -0.692132       -18.8339
  37   2.0000      -0.671568       -18.2743
  38   2.0000      -0.634411       -17.2632
  39   2.0000      -0.621752       -16.9187
  40   2.0000      -0.597200       -16.2506
  41   2.0000      -0.581816       -15.8320
  42   2.0000      -0.571627       -15.5548
  43   2.0000      -0.564816       -15.3694
  44   2.0000      -0.531141       -14.4531
  45   2.0000      -0.521422       -14.1886
  46   2.0000      -0.517132       -14.0719
  47   2.0000      -0.511339       -13.9142
  48   2.0000      -0.505213       -13.7475
  49   2.0000      -0.500117       -13.6089
  50   2.0000      -0.485964       -13.2238
  51   2.0000      -0.484093       -13.1729
  52   2.0000      -0.480302       -13.0697
  53   2.0000      -0.466973       -12.7070
  54   2.0000      -0.457865       -12.4591
  55   2.0000      -0.453368       -12.3368
  56   2.0000      -0.445986       -12.1359
  57   2.0000      -0.437912       -11.9162
  58   2.0000      -0.434083       -11.8120
  59   2.0000      -0.422708       -11.5025
  60   2.0000      -0.420754       -11.4493
  61   2.0000      -0.417095       -11.3497
  62   2.0000      -0.408301       -11.1104
  63   2.0000      -0.365364        -9.9421
  64   2.0000      -0.330469        -8.9925
  65   2.0000      -0.328521        -8.9395
  66   2.0000      -0.280119        -7.6224
  67   0.0000       0.018014         0.4902
  68   0.0000       0.081740         2.2243
  69   0.0000       0.101534         2.7629
  70   0.0000       0.119905         3.2628
  71   0.0000       0.133676         3.6375

MULLIKEN ATOMIC CHARGES
-----------------------
   0 S :    0.085934
   1 C :   -0.100494
   2 C :   -0.053369
   3 C :   -0.030627
   4 C :   -0.091899
   5 H :    0.015850
   6 C :    0.062505
   7 H :    0.030083
   8 H :    0.016509
   9 C :   -0.056103
  10 H :    0.023763
  11 H :    0.036418
  12 C :   -0.055287
  13 H :    0.031869
  14 H :    0.028330
  15 H :    0.030055
  16 S :    0.090521
  17 C :   -0.062299
  18 C :   -0.023788
  19 C :   -0.058602
  20 C :   -0.122461
  21 H :    0.014228
  22 C :   -0.033546
  23 H :    0.049480
  24 H :    0.016807
  25 C :    0.045095
  26 H :    0.001974
  27 H :    0.014427
  28 C :   -0.054937
  29 H :    0.020974
  30 H :    0.013072
  31 H :    0.040309
  32 H :    0.022798
  33 H :    0.052413
Sum of atomic charges:   -0.0000000

LOEWDIN ATOMIC CHARGES
----------------------
   0 S :    0.390054
   1 C :   -0.186902
   2 C :   -0.055982
   3 C :   -0.077182
   4 C :   -0.170067
   5 H :    0.026238
   6 C :   -0.033848
   7 H :    0.034306
   8 H :    0.031989
   9 C :   -0.042282
  10 H :    0.019008
  11 H :    0.029704
  12 C :   -0.063806
  13 H :    0.031895
  14 H :    0.024561
  15 H :    0.021638
  16 S :    0.416554
  17 C :   -0.190870
  18 C :   -0.071125
  19 C :   -0.054607
  20 C :   -0.188700
  21 H :    0.030962
  22 C :   -0.043696
  23 H :    0.032018
  24 H :    0.032163
  25 C :   -0.010841
  26 H :    0.005392
  27 H :    0.011250
  28 C :   -0.062829
  29 H :    0.028809
  30 H :    0.011362
  31 H :    0.030112
  32 H :    0.015225
  33 H :    0.029496

  Mayer bond orders larger than 0.100000
B(  0-S ,  1-C ) :   1.1329 B(  0-S ,  4-C ) :   1.1261 B(  1-C ,  2-C ) :   1.6029
B(  1-C , 32-H ) :   0.9768 B(  2-C ,  3-C ) :   1.2603 B(  2-C ,  6-C ) :   1.0138
B(  3-C ,  4-C ) :   1.5588 B(  3-C ,  5-H ) :   0.9824 B(  4-C , 20-C ) :   1.0983
B(  6-C ,  7-H ) :   0.9239 B(  6-C ,  8-H ) :   0.9443 B(  6-C ,  9-C ) :   1.0666
B(  9-C , 10-H ) :   0.9441 B(  9-C , 11-H ) :   0.9553 B(  9-C , 12-C ) :   1.0949
B( 12-C , 13-H ) :   0.9711 B( 12-C , 14-H ) :   0.9723 B( 12-C , 15-H ) :   0.9749
B( 16-S , 17-C ) :   1.1580 B( 16-S , 20-C ) :   1.1300 B( 17-C , 18-C ) :   1.6145
B( 17-C , 33-H ) :   0.9659 B( 18-C , 19-C ) :   1.2443 B( 18-C , 21-H ) :   0.9933
B( 19-C , 20-C ) :   1.5571 B( 19-C , 22-C ) :   1.0482 B( 22-C , 23-H ) :   0.9314
B( 22-C , 24-H ) :   0.9401 B( 22-C , 25-C ) :   1.0565 B( 25-C , 26-H ) :   0.9552
B( 25-C , 27-H ) :   0.9527 B( 25-C , 28-C ) :   1.0882 B( 28-C , 29-H ) :   0.9733
B( 28-C , 30-H ) :   0.9746 B( 28-C , 31-H ) :   0.9748

Dispersion correction           -0.013702893
FINAL SINGLE POINT ENERGY     -1339.867069605805

DIPOLE MOMENT
-------------
                                X             Y             Z
Electronic contribution:      9.77174      -5.85036     -10.10496
Nuclear contribution   :    -10.01366       5.88544      10.10507
                        -----------------------------------------
Total Dipole Moment    :     -0.24193       0.03507       0.00011
                        -----------------------------------------
Magnitude (a.u.)       :      0.24446
Magnitude (Debye)      :      0.62136

Rotational constants in cm-1:     0.019532     0.008060     0.006331
Rotational constants in MHz :   585.561878   241.631833   189.812426

                             ****ORCA TERMINATED NORMALLY****
TOTAL RUN TIME: 0 days 0 hours 0 minutes 30 seconds 894 msec
