                         Program Version 4.2.1 -  RELEASE  -
|  1> ! wB97X-D3 SP def2-SVP
|  2> %pal
|  3> nprocs 16
|  4> end
|  5>
|  6> * xyz 0 1
|  7> S 	 -32.4983 	 28.5157 	 43.1246
|  8> C 	 -34.0854 	 28.082 	 42.8778
|  9> C 	 -34.9457 	 29.1863 	 42.9665
| 10> C 	 -34.2079 	 30.3725 	 43.3284
| 11> C 	 -32.8315 	 30.1948 	 43.4792
| 12> H 	 -34.7615 	 31.265 	 43.4481
| 13> C 	 -36.4464 	 29.0999 	 42.7282
| 14> H 	 -36.5598 	 28.4688 	 41.8843
| 15> H 	 -36.7253 	 30.0807 	 42.2655
| 16> C 	 -37.2905 	 28.6916 	 43.9424
| 17> H 	 -36.9695 	 29.3617 	 44.7098
| 18> H 	 -38.375 	 28.7894 	 43.8347
| 19> C 	 -37.099 	 27.2544 	 44.4208
| 20> H 	 -37.9977 	 27.0226 	 45.0251
| 21> H 	 -37.039 	 26.5919 	 43.58
| 22> H 	 -36.1198 	 27.2469 	 44.9735
| 23> S 	 -30.2419 	 30.396 	 44.3219
| 24> C 	 -29.4364 	 31.9405 	 44.2722
| 25> C 	 -30.2816 	 32.9212 	 43.8325
| 26> C 	 -31.5981 	 32.4669 	 43.5783
| 27> C 	 -31.7189 	 31.1118 	 43.7276
| 28> H 	 -29.8604 	 33.9347 	 43.8185
| 29> C 	 -32.7787 	 33.3578 	 43.1731
| 30> H 	 -33.4693 	 32.7593 	 42.6013
| 31> H 	 -32.4512 	 34.0892 	 42.5331
| 32> C 	 -33.6059 	 33.9648 	 44.3552
| 33> H 	 -33.7086 	 33.2949 	 45.2282
| 34> H 	 -34.6261 	 34.0935 	 44.0324
| 35> C 	 -33.1704 	 35.3927 	 44.8636
| 36> H 	 -32.3086 	 35.3002 	 45.494
| 37> H 	 -33.9998 	 35.9206 	 45.2928
| 38> H 	 -32.8 	 35.9754 	 44.0639
| 39> H 	 -34.465 	 27.1163 	 42.7741
| 40> H 	 -28.4319 	 32.164 	 44.7027
| 41> *
| 42>
| 43>                          ****END OF INPUT****

CARTESIAN COORDINATES (ANGSTROEM)
---------------------------------
  S    -32.498300   28.515700   43.124600
  C    -34.085400   28.082000   42.877800
  C    -34.945700   29.186300   42.966500
  C    -34.207900   30.372500   43.328400
  C    -32.831500   30.194800   43.479200
  H    -34.761500   31.265000   43.448100
  C    -36.446400   29.099900   42.728200
  H    -36.559800   28.468800   41.884300
  H    -36.725300   30.080700   42.265500
  C    -37.290500   28.691600   43.942400
  H    -36.969500   29.361700   44.709800
  H    -38.375000   28.789400   43.834700
  C    -37.099000   27.254400   44.420800
  H    -37.997700   27.022600   45.025100
  H    -37.039000   26.591900   43.580000
  H    -36.119800   27.246900   44.973500
  S    -30.241900   30.396000   44.321900
  C    -29.436400   31.940500   44.272200
  C    -30.281600   32.921200   43.832500
  C    -31.598100   32.466900   43.578300
  C    -31.718900   31.111800   43.727600
  H    -29.860400   33.934700   43.818500
  C    -32.778700   33.357800   43.173100
  H    -33.469300   32.759300   42.601300
  H    -32.451200   34.089200   42.533100
  C    -33.605900   33.964800   44.355200
  H    -33.708600   33.294900   45.228200
  H    -34.626100   34.093500   44.032400
  C    -33.170400   35.392700   44.863600
  H    -32.308600   35.300200   45.494000
  H    -33.999800   35.920600   45.292800
  H    -32.800000   35.975400   44.063900
  H    -34.465000   27.116300   42.774100
  H    -28.431900   32.164000   44.702700

 Total Charge           Charge          ....    0
 Multiplicity           Mult            ....    1
 Number of Electrons    NEL             ....  134
 Basis Dimension        Dim             ....  322

ORBITAL ENERGIES
----------------

  NO   OCC          E(Eh)            E(eV)
   0   2.0000     -88.965524     -2420.8750
   1   2.0000     -88.964875     -2420.8573
   2   2.0000     -10.333732      -281.1951
   3   2.0000     -10.327228      -281.0182
   4   2.0000     -10.318214      -280.7729
   5   2.0000     -10.305294      -280.4213
   6   2.0000     -10.302382      -280.3421
   7   2.0000     -10.300052      -280.2787
   8   2.0000     -10.294704      -280.1331
   9   2.0000     -10.294078      -280.1161
  10   2.0000     -10.292160      -280.0639
  11   2.0000     -10.290005      -280.0053
  12   2.0000     -10.287788      -279.9449
  13   2.0000     -10.283455      -279.8270
  14   2.0000     -10.279776      -279.7269
  15   2.0000     -10.272284      -279.5231
  16   2.0000      -8.081809      -219.9172
  17   2.0000      -8.080090      -219.8704
  18   2.0000      -6.040214      -164.3626
  19   2.0000      -6.038578      -164.3181
  20   2.0000      -6.035872      -164.2444
  21   2.0000      -6.034608      -164.2100
  22   2.0000      -6.032805      -164.1610
  23   2.0000      -6.030752      -164.1051
  24   2.0000      -1.013908       -27.5898
  25   2.0000      -0.991507       -26.9803
  26   2.0000      -0.913147       -24.8480
  27   2.0000      -0.903778       -24.5930
  28   2.0000      -0.872236       -23.7348
  29   2.0000      -0.853916       -23.2362
  30   2.0000      -0.846046       -23.0221
  31   2.0000      -0.818201       -22.2644
  32   2.0000      -0.787502       -21.4290
  33   2.0000      -0.775236       -21.0952
  34   2.0000      -0.711617       -19.3641
  35   2.0000      -0.700638       -19.0653
  36   2.0000      -0.692832       -18.8529
  37   2.0000      -0.664451       -18.0806
  38   2.0000      -0.639524       -17.4023
  39   2.0000      -0.628358       -17.0985
  40   2.0000      -0.595128       -16.1943
  41   2.0000      -0.576732       -15.6937
  42   2.0000      -0.554637       -15.0924
  43   2.0000      -0.550190       -14.9714
  44   2.0000      -0.541607       -14.7379
  45   2.0000      -0.537966       -14.6388
  46   2.0000      -0.518067       -14.0973
  47   2.0000      -0.513108       -13.9624
  48   2.0000      -0.506890       -13.7932
  49   2.0000      -0.504669       -13.7327
  50   2.0000      -0.492308       -13.3964
  51   2.0000      -0.482205       -13.1215
  52   2.0000      -0.473725       -12.8907
  53   2.0000      -0.467164       -12.7122
  54   2.0000      -0.462690       -12.5904
  55   2.0000      -0.448694       -12.2096
  56   2.0000      -0.441027       -12.0009
  57   2.0000      -0.440711       -11.9924
  58   2.0000      -0.433982       -11.8093
  59   2.0000      -0.425501       -11.5785
  60   2.0000      -0.420512       -11.4427
  61   2.0000      -0.415336       -11.3019
  62   2.0000      -0.407750       -11.0955
  63   2.0000      -0.363273        -9.8851
  64   2.0000      -0.335530        -9.1302
  65   2.0000      -0.329367        -8.9625
  66   2.0000      -0.284026        -7.7288
  67   0.0000       0.023949         0.6517
  68   0.0000       0.084701         2.3048
  69   0.0000       0.106463         2.8970
  70   0.0000       0.118453         3.2233
  71   0.0000       0.136810         3.7228

MULLIKEN ATOMIC CHARGES
-----------------------
   0 S :    0.114700
   1 C :   -0.073325
   2 C :   -0.165929
   3 C :    0.016992
   4 C :   -0.101331
   5 H :   -0.013361
   6 C :    0.073364
   7 H :    0.014617
   8 H :    0.022970
   9 C :   -0.045150
  10 H :    0.022437
  11 H :    0.030908
  12 C :   -0.072306
  13 H :    0.046040
  14 H :    0.024104
  15 H :    0.054557
  16 S :    0.099260
  17 C :   -0.106615
  18 C :   -0.045017
  19 C :   -0.057869
  20 C :   -0.112532
  21 H :    0.023357
  22 C :    0.121569
  23 H :    0.012967
  24 H :   -0.000480
  25 C :   -0.102020
  26 H :    0.040662
  27 H :    0.022455
  28 C :   -0.016560
  29 H :    0.029390
  30 H :    0.037632
  31 H :    0.007928
  32 H :    0.024288
  33 H :    0.072296
Sum of atomic charges:    0.0000000

LOEWDIN ATOMIC CHARGES
----------------------
   0 S :    0.447451
   1 C :   -0.216513
   2 C :   -0.064685
   3 C :   -0.069246
   4 C :   -0.191035
   5 H :    0.021018
   6 C :   -0.035545
   7 H :    0.023161
   8 H :    0.035893
   9 C :   -0.041276
  10 H :    0.022513
  11 H :    0.024120
  12 C :   -0.067193
  13 H :    0.033419
  14 H :    0.016408
  15 H :    0.034036
  16 S :    0.403128
  17 C :   -0.192790
  18 C :   -0.076818
  19 C :   -0.056291
  20 C :   -0.193037
  21 H :    0.036843
  22 C :   -0.017594
  23 H :    0.030665
  24 H :    0.018123
  25 C :   -0.037931
  26 H :    0.028469
  27 H :    0.019583
  28 C :   -0.060370
  29 H :    0.023086
  30 H :    0.026497
  31 H :    0.016976
  32 H :    0.017974
  33 H :    0.040959

  Mayer bond orders larger than 0.100000
B(  0-S ,  1-C ) :   1.1778 B(  0-S ,  4-C ) :   1.1679 B(  1-C ,  2-C ) :   1.5598
B(  1-C ,  4-C ) :   0.1006 B(  1-C , 32-H ) :   0.9733 B(  2-C ,  3-C ) :   1.3073
B(  2-C ,  6-C ) :   1.0149 B(  3-C ,  4-C ) :   1.5040 B(  3-C ,  5-H ) :   1.0006
B(  4-C , 20-C ) :   1.0605 B(  6-C ,  7-H ) :   0.9441 B(  6-C ,  8-H ) :   0.9382
B(  6-C ,  9-C ) :   1.0582 B(  9-C , 10-H ) :   0.9557 B(  9-C , 11-H ) :   0.9622
B(  9-C , 12-C ) :   1.0756 B( 12-C , 13-H ) :   0.9752 B( 12-C , 14-H ) :   0.9767
B( 12-C , 15-H ) :   0.9738 B( 16-S , 17-C ) :   1.1477 B( 16-S , 20-C ) :   1.1373
B( 17-C , 18-C ) :   1.6248 B( 17-C , 33-H ) :   0.9604 B( 18-C , 19-C ) :   1.2304
B( 18-C , 21-H ) :   0.9916 B( 19-C , 20-C ) :   1.6037 B( 19-C , 22-C ) :   1.0470
B( 22-C , 23-H ) :   0.9301 B( 22-C , 24-H ) :   0.9321 B( 22-C , 25-C ) :   1.0570
B( 25-C , 26-H ) :   0.9602 B( 25-C , 27-H ) :   0.9604 B( 25-C , 28-C ) :   1.0738
B( 28-C , 29-H ) :   0.9773 B( 28-C , 30-H ) :   0.9770 B( 28-C , 31-H ) :   0.9750

Dispersion correction           -0.014463153
FINAL SINGLE POINT ENERGY     -1339.878612386496

DIPOLE MOMENT
-------------
                                X             Y             Z
Electronic contribution:     23.79029     -11.02917      -3.29975
Nuclear contribution   :    -24.27999      11.47909       3.29118
                        -----------------------------------------
Total Dipole Moment    :     -0.48969       0.44992      -0.00856
                        -----------------------------------------
Magnitude (a.u.)       :      0.66506
Magnitude (Debye)      :      1.69045

Rotational constants in cm-1:     0.020240     0.008471     0.006369
Rotational constants in MHz :   606.766970   253.939552   190.936424

                             ****ORCA TERMINATED NORMALLY****
TOTAL RUN TIME: 0 days 0 hours 0 minutes 34 seconds 988 msec
