                         Program Version 4.2.1 -  RELEASE  -
|  1> ! wB97X-D3 SP def2-SVP
|  2> %pal
|  3> nprocs 16
|  4> end
|  5>
|  6> * xyz 0 1
|  7> S 	 6.82169 	 -4.09186 	 89.4226
|  8> C 	 7.37452 	 -3.10309 	 90.672
|  9> C 	 7.5485 	 -1.77403 	 90.3043
| 10> C 	 7.13745 	 -1.59532 	 88.9243
| 11> C 	 6.8197 	 -2.79972 	 88.3037
| 12> H 	 7.15809 	 -0.744097 	 88.2822
| 13> C 	 7.78389 	 -0.612288 	 91.2141
| 14> H 	 6.92321 	 -0.651495 	 91.9004
| 15> H 	 7.74954 	 0.310506 	 90.5996
| 16> C 	 9.09224 	 -0.793939 	 92.0304
| 17> H 	 9.17023 	 -1.88959 	 92.2925
| 18> H 	 9.96099 	 -0.582858 	 91.4264
| 19> C 	 9.26841 	 0.0919174 	 93.322
| 20> H 	 9.15192 	 1.10921 	 93.03
| 21> H 	 8.50648 	 0.0245033 	 94.0236
| 22> H 	 10.2828 	 0.0639266 	 93.7783
| 23> S 	 7.30168 	 -4.2805 	 85.9003
| 24> C 	 6.36742 	 -3.9512 	 84.4864
| 25> C 	 5.37676 	 -3.05702 	 84.8216
| 26> C 	 5.44381 	 -2.52048 	 86.1491
| 27> C 	 6.43809 	 -3.10422 	 86.9177
| 28> H 	 4.80591 	 -2.72305 	 83.9495
| 29> C 	 4.46623 	 -1.45355 	 86.6722
| 30> H 	 4.10147 	 -0.842607 	 85.8295
| 31> H 	 5.02484 	 -0.698498 	 87.3082
| 32> C 	 3.24111 	 -1.92806 	 87.3938
| 33> H 	 3.63914 	 -2.4609 	 88.3127
| 34> H 	 2.58947 	 -2.65917 	 86.8791
| 35> C 	 2.40612 	 -0.703154 	 87.9154
| 36> H 	 1.49983 	 -1.12809 	 88.4557
| 37> H 	 2.04725 	 -0.0316193 	 87.1399
| 38> H 	 3.16445 	 -0.123724 	 88.5182
| 39> H 	 7.38396 	 -3.41483 	 91.6851
| 40> H 	 6.70931 	 -4.34231 	 83.5316
| 41> *
| 42>
| 43>                          ****END OF INPUT****

CARTESIAN COORDINATES (ANGSTROEM)
---------------------------------
  S      6.821690   -4.091860   89.422600
  C      7.374520   -3.103090   90.672000
  C      7.548500   -1.774030   90.304300
  C      7.137450   -1.595320   88.924300
  C      6.819700   -2.799720   88.303700
  H      7.158090   -0.744097   88.282200
  C      7.783890   -0.612288   91.214100
  H      6.923210   -0.651495   91.900400
  H      7.749540    0.310506   90.599600
  C      9.092240   -0.793939   92.030400
  H      9.170230   -1.889590   92.292500
  H      9.960990   -0.582858   91.426400
  C      9.268410    0.091917   93.322000
  H      9.151920    1.109210   93.030000
  H      8.506480    0.024503   94.023600
  H     10.282800    0.063927   93.778300
  S      7.301680   -4.280500   85.900300
  C      6.367420   -3.951200   84.486400
  C      5.376760   -3.057020   84.821600
  C      5.443810   -2.520480   86.149100
  C      6.438090   -3.104220   86.917700
  H      4.805910   -2.723050   83.949500
  C      4.466230   -1.453550   86.672200
  H      4.101470   -0.842607   85.829500
  H      5.024840   -0.698498   87.308200
  C      3.241110   -1.928060   87.393800
  H      3.639140   -2.460900   88.312700
  H      2.589470   -2.659170   86.879100
  C      2.406120   -0.703154   87.915400
  H      1.499830   -1.128090   88.455700
  H      2.047250   -0.031619   87.139900
  H      3.164450   -0.123724   88.518200
  H      7.383960   -3.414830   91.685100
  H      6.709310   -4.342310   83.531600

 Total Charge           Charge          ....    0
 Multiplicity           Mult            ....    1
 Number of Electrons    NEL             ....  134
 Basis Dimension        Dim             ....  322

ORBITAL ENERGIES
----------------

  NO   OCC          E(Eh)            E(eV)
   0   2.0000     -88.966595     -2420.9041
   1   2.0000     -88.961724     -2420.7716
   2   2.0000     -10.329375      -281.0766
   3   2.0000     -10.327685      -281.0306
   4   2.0000     -10.318355      -280.7767
   5   2.0000     -10.306540      -280.4552
   6   2.0000     -10.306530      -280.4550
   7   2.0000     -10.303654      -280.3767
   8   2.0000     -10.298569      -280.2383
   9   2.0000     -10.296022      -280.1690
  10   2.0000     -10.295711      -280.1606
  11   2.0000     -10.295502      -280.1548
  12   2.0000     -10.293908      -280.1115
  13   2.0000     -10.288245      -279.9574
  14   2.0000     -10.287158      -279.9278
  15   2.0000     -10.274871      -279.5934
  16   2.0000      -8.083131      -219.9532
  17   2.0000      -8.076736      -219.7792
  18   2.0000      -6.041382      -164.3944
  19   2.0000      -6.037217      -164.2810
  20   2.0000      -6.035245      -164.2274
  21   2.0000      -6.034231      -164.1998
  22   2.0000      -6.030984      -164.1114
  23   2.0000      -6.027680      -164.0215
  24   2.0000      -1.012240       -27.5444
  25   2.0000      -0.989067       -26.9139
  26   2.0000      -0.911660       -24.8075
  27   2.0000      -0.906709       -24.6728
  28   2.0000      -0.868265       -23.6267
  29   2.0000      -0.852418       -23.1955
  30   2.0000      -0.842237       -22.9184
  31   2.0000      -0.816073       -22.2065
  32   2.0000      -0.782424       -21.2908
  33   2.0000      -0.769165       -20.9301
  34   2.0000      -0.708750       -19.2861
  35   2.0000      -0.700279       -19.0556
  36   2.0000      -0.687320       -18.7029
  37   2.0000      -0.661546       -18.0016
  38   2.0000      -0.647615       -17.6225
  39   2.0000      -0.615232       -16.7413
  40   2.0000      -0.596280       -16.2256
  41   2.0000      -0.572589       -15.5809
  42   2.0000      -0.561118       -15.2688
  43   2.0000      -0.554408       -15.0862
  44   2.0000      -0.526541       -14.3279
  45   2.0000      -0.525254       -14.2929
  46   2.0000      -0.518917       -14.1204
  47   2.0000      -0.511056       -13.9065
  48   2.0000      -0.507948       -13.8220
  49   2.0000      -0.500239       -13.6122
  50   2.0000      -0.493813       -13.4373
  51   2.0000      -0.478137       -13.0108
  52   2.0000      -0.474092       -12.9007
  53   2.0000      -0.464256       -12.6331
  54   2.0000      -0.455428       -12.3928
  55   2.0000      -0.447104       -12.1663
  56   2.0000      -0.444086       -12.0842
  57   2.0000      -0.439224       -11.9519
  58   2.0000      -0.432207       -11.7609
  59   2.0000      -0.428150       -11.6506
  60   2.0000      -0.420887       -11.4529
  61   2.0000      -0.409921       -11.1545
  62   2.0000      -0.406535       -11.0624
  63   2.0000      -0.348574        -9.4852
  64   2.0000      -0.331597        -9.0232
  65   2.0000      -0.328557        -8.9405
  66   2.0000      -0.294705        -8.0193
  67   0.0000       0.036275         0.9871
  68   0.0000       0.063631         1.7315
  69   0.0000       0.111192         3.0257
  70   0.0000       0.126740         3.4488
  71   0.0000       0.135690         3.6923

MULLIKEN ATOMIC CHARGES
-----------------------
   0 S :    0.137829
   1 C :   -0.106958
   2 C :   -0.105042
   3 C :    0.042928
   4 C :   -0.198791
   5 H :    0.008987
   6 C :    0.076135
   7 H :    0.043615
   8 H :    0.032874
   9 C :   -0.106209
  10 H :    0.037136
  11 H :    0.031805
  12 C :   -0.018420
  13 H :    0.008326
  14 H :    0.013116
  15 H :    0.044621
  16 S :    0.097178
  17 C :   -0.117245
  18 C :   -0.030796
  19 C :   -0.008456
  20 C :   -0.144977
  21 H :    0.027572
  22 C :    0.048698
  23 H :    0.014390
  24 H :    0.018805
  25 C :   -0.086618
  26 H :    0.038623
  27 H :    0.038145
  28 C :   -0.074613
  29 H :    0.054146
  30 H :    0.032184
  31 H :    0.038820
  32 H :    0.040774
  33 H :    0.071419
Sum of atomic charges:   -0.0000000

LOEWDIN ATOMIC CHARGES
----------------------
   0 S :    0.460429
   1 C :   -0.218347
   2 C :   -0.060960
   3 C :   -0.062706
   4 C :   -0.205151
   5 H :    0.026490
   6 C :   -0.032403
   7 H :    0.038185
   8 H :    0.033573
   9 C :   -0.038853
  10 H :    0.027248
  11 H :    0.025231
  12 C :   -0.068069
  13 H :    0.021491
  14 H :    0.013051
  15 H :    0.034750
  16 S :    0.399266
  17 C :   -0.188503
  18 C :   -0.079777
  19 C :   -0.056321
  20 C :   -0.200563
  21 H :    0.035083
  22 C :   -0.040115
  23 H :    0.027733
  24 H :    0.033193
  25 C :   -0.047833
  26 H :    0.030725
  27 H :    0.024635
  28 C :   -0.071880
  29 H :    0.036227
  30 H :    0.019125
  31 H :    0.031166
  32 H :    0.019931
  33 H :    0.033950

  Mayer bond orders larger than 0.100000
B(  0-S ,  1-C ) :   1.1682 B(  0-S ,  4-C ) :   1.1868 B(  1-C ,  2-C ) :   1.5815
B(  1-C , 32-H ) :   0.9676 B(  2-C ,  3-C ) :   1.2486 B(  2-C ,  6-C ) :   1.0202
B(  3-C ,  4-C ) :   1.5728 B(  3-C ,  5-H ) :   0.9912 B(  4-C , 20-C ) :   1.0191
B(  6-C ,  7-H ) :   0.9412 B(  6-C ,  8-H ) :   0.9431 B(  6-C ,  9-C ) :   1.0434
B(  9-C , 10-H ) :   0.9648 B(  9-C , 11-H ) :   0.9569 B(  9-C , 12-C ) :   1.0718
B( 12-C , 13-H ) :   0.9685 B( 12-C , 14-H ) :   0.9773 B( 12-C , 15-H ) :   0.9764
B( 16-S , 17-C ) :   1.1702 B( 16-S , 20-C ) :   1.1424 B( 17-C , 18-C ) :   1.5859
B( 17-C , 33-H ) :   0.9698 B( 18-C , 19-C ) :   1.2458 B( 18-C , 21-H ) :   0.9894
B( 19-C , 20-C ) :   1.5849 B( 19-C , 22-C ) :   1.0391 B( 22-C , 23-H ) :   0.9310
B( 22-C , 24-H ) :   0.9322 B( 22-C , 25-C ) :   1.0691 B( 25-C , 26-H ) :   0.9532
B( 25-C , 27-H ) :   0.9559 B( 25-C , 28-C ) :   1.0652 B( 28-C , 29-H ) :   0.9741
B( 28-C , 30-H ) :   0.9772 B( 28-C , 31-H ) :   0.9744

Dispersion correction           -0.013886115
FINAL SINGLE POINT ENERGY     -1339.878442477848

DIPOLE MOMENT
-------------
                                X             Y             Z
Electronic contribution:      6.64995     -21.65174     -15.63733
Nuclear contribution   :     -6.85539      22.22943      15.69552
                        -----------------------------------------
Total Dipole Moment    :     -0.20544       0.57769       0.05819
                        -----------------------------------------
Magnitude (a.u.)       :      0.61589
Magnitude (Debye)      :      1.56546

Rotational constants in cm-1:     0.020087     0.007665     0.006263
Rotational constants in MHz :   602.192886   229.776982   187.746342

                             ****ORCA TERMINATED NORMALLY****
TOTAL RUN TIME: 0 days 0 hours 0 minutes 32 seconds 974 msec
