                         Program Version 4.2.1 -  RELEASE  -
|  1> ! wB97X-D3 SP def2-SVP
|  2> %pal
|  3> nprocs 16
|  4> end
|  5>
|  6> * xyz 0 1
|  7> S 	 -91.9341 	 42.0251 	 120.092
|  8> C 	 -91.5216 	 43.7313 	 120.241
|  9> C 	 -92.3733 	 44.5804 	 119.538
| 10> C 	 -93.3913 	 43.7738 	 118.881
| 11> C 	 -93.2903 	 42.4062 	 119.017
| 12> H 	 -94.2679 	 44.1083 	 118.346
| 13> C 	 -92.1764 	 46.0773 	 119.413
| 14> H 	 -92.3453 	 46.5042 	 118.418
| 15> H 	 -91.1327 	 46.1364 	 119.661
| 16> C 	 -92.9632 	 46.7699 	 120.556
| 17> H 	 -94.0399 	 46.4946 	 120.63
| 18> H 	 -92.5908 	 46.3488 	 121.478
| 19> C 	 -92.722 	 48.2705 	 120.554
| 20> H 	 -92.9394 	 48.6383 	 119.605
| 21> H 	 -93.3937 	 48.7037 	 121.26
| 22> H 	 -91.7383 	 48.6337 	 120.834
| 23> S 	 -93.9714 	 40.8159 	 116.875
| 24> C 	 -95.068 	 39.4434 	 117.168
| 25> C 	 -95.72 	 39.5722 	 118.35
| 26> C 	 -95.212 	 40.6834 	 119.1
| 27> C 	 -94.1864 	 41.3696 	 118.508
| 28> H 	 -96.5168 	 38.9137 	 118.751
| 29> C 	 -95.5516 	 40.8594 	 120.577
| 30> H 	 -94.584 	 40.7839 	 121.155
| 31> H 	 -96.1795 	 39.9512 	 120.841
| 32> C 	 -96.3263 	 42.1338 	 120.925
| 33> H 	 -95.9187 	 43.0182 	 120.517
| 34> H 	 -96.307 	 42.3509 	 122.008
| 35> C 	 -97.8413 	 42.0558 	 120.53
| 36> H 	 -97.8707 	 42.0978 	 119.443
| 37> H 	 -98.4464 	 42.8254 	 120.924
| 38> H 	 -98.3666 	 41.1725 	 120.888
| 39> H 	 -90.739 	 44.0868 	 120.902
| 40> H 	 -95.316 	 38.7015 	 116.446
| 41> *
| 42>
| 43>                          ****END OF INPUT****

CARTESIAN COORDINATES (ANGSTROEM)
---------------------------------
  S    -91.934100   42.025100  120.092000
  C    -91.521600   43.731300  120.241000
  C    -92.373300   44.580400  119.538000
  C    -93.391300   43.773800  118.881000
  C    -93.290300   42.406200  119.017000
  H    -94.267900   44.108300  118.346000
  C    -92.176400   46.077300  119.413000
  H    -92.345300   46.504200  118.418000
  H    -91.132700   46.136400  119.661000
  C    -92.963200   46.769900  120.556000
  H    -94.039900   46.494600  120.630000
  H    -92.590800   46.348800  121.478000
  C    -92.722000   48.270500  120.554000
  H    -92.939400   48.638300  119.605000
  H    -93.393700   48.703700  121.260000
  H    -91.738300   48.633700  120.834000
  S    -93.971400   40.815900  116.875000
  C    -95.068000   39.443400  117.168000
  C    -95.720000   39.572200  118.350000
  C    -95.212000   40.683400  119.100000
  C    -94.186400   41.369600  118.508000
  H    -96.516800   38.913700  118.751000
  C    -95.551600   40.859400  120.577000
  H    -94.584000   40.783900  121.155000
  H    -96.179500   39.951200  120.841000
  C    -96.326300   42.133800  120.925000
  H    -95.918700   43.018200  120.517000
  H    -96.307000   42.350900  122.008000
  C    -97.841300   42.055800  120.530000
  H    -97.870700   42.097800  119.443000
  H    -98.446400   42.825400  120.924000
  H    -98.366600   41.172500  120.888000
  H    -90.739000   44.086800  120.902000
  H    -95.316000   38.701500  116.446000

 Total Charge           Charge          ....    0
 Multiplicity           Mult            ....    1
 Number of Electrons    NEL             ....  134
 Basis Dimension        Dim             ....  322

ORBITAL ENERGIES
----------------

  NO   OCC          E(Eh)            E(eV)
   0   2.0000     -88.966537     -2420.9025
   1   2.0000     -88.962913     -2420.8039
   2   2.0000     -10.329524      -281.0806
   3   2.0000     -10.321561      -280.8639
   4   2.0000     -10.318033      -280.7680
   5   2.0000     -10.317098      -280.7425
   6   2.0000     -10.307198      -280.4731
   7   2.0000     -10.298455      -280.2352
   8   2.0000     -10.296392      -280.1791
   9   2.0000     -10.296023      -280.1690
  10   2.0000     -10.295743      -280.1614
  11   2.0000     -10.295511      -280.1551
  12   2.0000     -10.288710      -279.9700
  13   2.0000     -10.281318      -279.7689
  14   2.0000     -10.270461      -279.4734
  15   2.0000     -10.270076      -279.4630
  16   2.0000      -8.080488      -219.8813
  17   2.0000      -8.077679      -219.8048
  18   2.0000      -6.039004      -164.3297
  19   2.0000      -6.036283      -164.2556
  20   2.0000      -6.035117      -164.2239
  21   2.0000      -6.032202      -164.1446
  22   2.0000      -6.031273      -164.1193
  23   2.0000      -6.028306      -164.0386
  24   2.0000      -1.005142       -27.3513
  25   2.0000      -0.981973       -26.7208
  26   2.0000      -0.915083       -24.9007
  27   2.0000      -0.900327       -24.4991
  28   2.0000      -0.871389       -23.7117
  29   2.0000      -0.848074       -23.0773
  30   2.0000      -0.842004       -22.9121
  31   2.0000      -0.818978       -22.2855
  32   2.0000      -0.781502       -21.2658
  33   2.0000      -0.768358       -20.9081
  34   2.0000      -0.709318       -19.3015
  35   2.0000      -0.703887       -19.1537
  36   2.0000      -0.689089       -18.7511
  37   2.0000      -0.665757       -18.1162
  38   2.0000      -0.645923       -17.5765
  39   2.0000      -0.612598       -16.6697
  40   2.0000      -0.589175       -16.0323
  41   2.0000      -0.577042       -15.7021
  42   2.0000      -0.556959       -15.1556
  43   2.0000      -0.549256       -14.9460
  44   2.0000      -0.539726       -14.6867
  45   2.0000      -0.530671       -14.4403
  46   2.0000      -0.518247       -14.1022
  47   2.0000      -0.509696       -13.8695
  48   2.0000      -0.504617       -13.7313
  49   2.0000      -0.498274       -13.5587
  50   2.0000      -0.483891       -13.1673
  51   2.0000      -0.474212       -12.9040
  52   2.0000      -0.470199       -12.7948
  53   2.0000      -0.464323       -12.6349
  54   2.0000      -0.463809       -12.6209
  55   2.0000      -0.449278       -12.2255
  56   2.0000      -0.447371       -12.1736
  57   2.0000      -0.439959       -11.9719
  58   2.0000      -0.433489       -11.7958
  59   2.0000      -0.423573       -11.5260
  60   2.0000      -0.421241       -11.4626
  61   2.0000      -0.417244       -11.3538
  62   2.0000      -0.405831       -11.0432
  63   2.0000      -0.335994        -9.1429
  64   2.0000      -0.331860        -9.0304
  65   2.0000      -0.319256        -8.6874
  66   2.0000      -0.311233        -8.4691
  67   0.0000       0.044047         1.1986
  68   0.0000       0.051788         1.4092
  69   0.0000       0.111757         3.0411
  70   0.0000       0.118398         3.2218
  71   0.0000       0.125399         3.4123

MULLIKEN ATOMIC CHARGES
-----------------------
   0 S :    0.111477
   1 C :   -0.125139
   2 C :   -0.102129
   3 C :    0.058253
   4 C :   -0.179213
   5 H :    0.009384
   6 C :    0.089661
   7 H :    0.042139
   8 H :    0.017307
   9 C :   -0.104386
  10 H :    0.036923
  11 H :    0.012459
  12 C :    0.023728
  13 H :    0.010658
  14 H :    0.021892
  15 H :    0.027034
  16 S :    0.107262
  17 C :   -0.080439
  18 C :   -0.026063
  19 C :   -0.032933
  20 C :   -0.184204
  21 H :    0.035435
  22 C :    0.039712
  23 H :    0.047539
  24 H :    0.021258
  25 C :   -0.041894
  26 H :    0.019081
  27 H :    0.024457
  28 C :   -0.055403
  29 H :    0.035120
  30 H :    0.021841
  31 H :    0.020649
  32 H :    0.050295
  33 H :    0.048241
Sum of atomic charges:    0.0000000

LOEWDIN ATOMIC CHARGES
----------------------
   0 S :    0.393675
   1 C :   -0.191828
   2 C :   -0.058357
   3 C :   -0.057952
   4 C :   -0.193589
   5 H :    0.029837
   6 C :   -0.026376
   7 H :    0.032677
   8 H :    0.032525
   9 C :   -0.039453
  10 H :    0.028626
  11 H :    0.021073
  12 C :   -0.057818
  13 H :    0.015195
  14 H :    0.025210
  15 H :    0.025794
  16 S :    0.398378
  17 C :   -0.164492
  18 C :   -0.073411
  19 C :   -0.059890
  20 C :   -0.210597
  21 H :    0.040350
  22 C :   -0.034714
  23 H :    0.036552
  24 H :    0.031612
  25 C :   -0.037599
  26 H :    0.017669
  27 H :    0.025181
  28 C :   -0.065047
  29 H :    0.025026
  30 H :    0.019120
  31 H :    0.021621
  32 H :    0.026602
  33 H :    0.024399

  Mayer bond orders larger than 0.100000
B(  0-S ,  1-C ) :   1.1453 B(  0-S ,  4-C ) :   1.1287 B(  1-C ,  2-C ) :   1.6272
B(  1-C , 32-H ) :   0.9612 B(  2-C ,  3-C ) :   1.2122 B(  2-C ,  6-C ) :   1.0133
B(  3-C ,  4-C ) :   1.6283 B(  3-C ,  5-H ) :   0.9900 B(  4-C , 20-C ) :   1.0093
B(  6-C ,  7-H ) :   0.9508 B(  6-C ,  8-H ) :   0.9356 B(  6-C ,  9-C ) :   1.0518
B(  9-C , 10-H ) :   0.9617 B(  9-C , 11-H ) :   0.9522 B(  9-C , 12-C ) :   1.0814
B( 12-C , 13-H ) :   0.9717 B( 12-C , 14-H ) :   0.9703 B( 12-C , 15-H ) :   0.9741
B( 16-S , 17-C ) :   1.1478 B( 16-S , 20-C ) :   1.1334 B( 17-C , 18-C ) :   1.6197
B( 17-C , 33-H ) :   0.9697 B( 18-C , 19-C ) :   1.2403 B( 18-C , 21-H ) :   0.9812
B( 19-C , 20-C ) :   1.6245 B( 19-C , 22-C ) :   1.0310 B( 22-C , 23-H ) :   0.9370
B( 22-C , 24-H ) :   0.9430 B( 22-C , 25-C ) :   1.0598 B( 25-C , 26-H ) :   0.9596
B( 25-C , 27-H ) :   0.9564 B( 25-C , 28-C ) :   1.0700 B( 28-C , 29-H ) :   0.9797
B( 28-C , 30-H ) :   0.9760 B( 28-C , 31-H ) :   0.9758

Dispersion correction           -0.014786164
FINAL SINGLE POINT ENERGY     -1339.881412610430

DIPOLE MOMENT
-------------
                                X             Y             Z
Electronic contribution:     11.70636     -20.17407     -13.50287
Nuclear contribution   :    -11.98887      20.58367      13.81806
                        -----------------------------------------
Total Dipole Moment    :     -0.28251       0.40961       0.31519
                        -----------------------------------------
Magnitude (a.u.)       :      0.58901
Magnitude (Debye)      :      1.49715

Rotational constants in cm-1:     0.020413     0.007992     0.006845
Rotational constants in MHz :   611.961727   239.590703   205.201967

                             ****ORCA TERMINATED NORMALLY****
TOTAL RUN TIME: 0 days 0 hours 0 minutes 34 seconds 93 msec
