                         Program Version 4.2.1 -  RELEASE  -
|  1> ! wB97X-D3 SP def2-SVP
|  2> %pal
|  3> nprocs 16
|  4> end
|  5>
|  6> * xyz 0 1
|  7> S 	 15.4461 	 24.4541 	 62.8795
|  8> C 	 16.1109 	 23.2359 	 61.7221
|  9> C 	 15.1258 	 22.2863 	 61.3407
| 10> C 	 13.8845 	 22.7818 	 61.7523
| 11> C 	 13.7919 	 23.8732 	 62.5814
| 12> H 	 13.0057 	 22.2526 	 61.4669
| 13> C 	 15.3207 	 20.9215 	 60.5666
| 14> H 	 15.9497 	 21.2695 	 59.6687
| 15> H 	 14.3939 	 20.5441 	 60.1542
| 16> C 	 16.0371 	 19.8061 	 61.4167
| 17> H 	 16.3557 	 19.053 	 60.7389
| 18> H 	 16.9471 	 20.2667 	 61.9328
| 19> C 	 15.1685 	 19.1715 	 62.5639
| 20> H 	 14.9153 	 19.8946 	 63.3928
| 21> H 	 14.2411 	 18.7343 	 62.165
| 22> H 	 15.7501 	 18.3464 	 62.9653
| 23> S 	 12.8855 	 25.4089 	 64.7862
| 24> C 	 11.2274 	 25.8591 	 64.9347
| 25> C 	 10.5171 	 25.2298 	 63.9088
| 26> C 	 11.2714 	 24.5107 	 62.9233
| 27> C 	 12.6449 	 24.5101 	 63.2444
| 28> H 	 9.45079 	 25.4734 	 63.8276
| 29> C 	 10.5661 	 23.7995 	 61.718
| 30> H 	 11.2625 	 23.8171 	 60.9278
| 31> H 	 9.87113 	 24.6439 	 61.4456
| 32> C 	 9.7616 	 22.5013 	 61.998
| 33> H 	 9.17099 	 22.3518 	 61.1325
| 34> H 	 9.056 	 22.5802 	 62.8147
| 35> C 	 10.5819 	 21.2538 	 62.2268
| 36> H 	 11.305 	 21.4821 	 63.0241
| 37> H 	 11.0968 	 20.9228 	 61.2866
| 38> H 	 9.88402 	 20.4793 	 62.4267
| 39> H 	 17.114 	 22.9281 	 61.5729
| 40> H 	 10.7803 	 26.3498 	 65.8109
| 41> *
| 42>
| 43>                          ****END OF INPUT****

CARTESIAN COORDINATES (ANGSTROEM)
---------------------------------
  S     15.446100   24.454100   62.879500
  C     16.110900   23.235900   61.722100
  C     15.125800   22.286300   61.340700
  C     13.884500   22.781800   61.752300
  C     13.791900   23.873200   62.581400
  H     13.005700   22.252600   61.466900
  C     15.320700   20.921500   60.566600
  H     15.949700   21.269500   59.668700
  H     14.393900   20.544100   60.154200
  C     16.037100   19.806100   61.416700
  H     16.355700   19.053000   60.738900
  H     16.947100   20.266700   61.932800
  C     15.168500   19.171500   62.563900
  H     14.915300   19.894600   63.392800
  H     14.241100   18.734300   62.165000
  H     15.750100   18.346400   62.965300
  S     12.885500   25.408900   64.786200
  C     11.227400   25.859100   64.934700
  C     10.517100   25.229800   63.908800
  C     11.271400   24.510700   62.923300
  C     12.644900   24.510100   63.244400
  H      9.450790   25.473400   63.827600
  C     10.566100   23.799500   61.718000
  H     11.262500   23.817100   60.927800
  H      9.871130   24.643900   61.445600
  C      9.761600   22.501300   61.998000
  H      9.170990   22.351800   61.132500
  H      9.056000   22.580200   62.814700
  C     10.581900   21.253800   62.226800
  H     11.305000   21.482100   63.024100
  H     11.096800   20.922800   61.286600
  H      9.884020   20.479300   62.426700
  H     17.114000   22.928100   61.572900
  H     10.780300   26.349800   65.810900

 Total Charge           Charge          ....    0
 Multiplicity           Mult            ....    1
 Number of Electrons    NEL             ....  134
 Basis Dimension        Dim             ....  322

ORBITAL ENERGIES
----------------

  NO   OCC          E(Eh)            E(eV)
   0   2.0000     -88.968811     -2420.9644
   1   2.0000     -88.966632     -2420.9051
   2   2.0000     -10.337641      -281.3015
   3   2.0000     -10.334642      -281.2199
   4   2.0000     -10.321451      -280.8610
   5   2.0000     -10.316909      -280.7374
   6   2.0000     -10.310424      -280.5609
   7   2.0000     -10.310287      -280.5572
   8   2.0000     -10.306116      -280.4437
   9   2.0000     -10.299366      -280.2600
  10   2.0000     -10.298842      -280.2457
  11   2.0000     -10.296648      -280.1860
  12   2.0000     -10.287284      -279.9312
  13   2.0000     -10.286497      -279.9098
  14   2.0000     -10.285343      -279.8784
  15   2.0000     -10.279011      -279.7061
  16   2.0000      -8.081800      -219.9170
  17   2.0000      -8.080914      -219.8928
  18   2.0000      -6.040580      -164.3725
  19   2.0000      -6.039461      -164.3421
  20   2.0000      -6.036607      -164.2644
  21   2.0000      -6.035433      -164.2325
  22   2.0000      -6.032321      -164.1478
  23   2.0000      -6.031708      -164.1311
  24   2.0000      -0.998990       -27.1839
  25   2.0000      -0.977349       -26.5950
  26   2.0000      -0.909387       -24.7457
  27   2.0000      -0.899933       -24.4884
  28   2.0000      -0.863350       -23.4929
  29   2.0000      -0.853225       -23.2174
  30   2.0000      -0.839041       -22.8315
  31   2.0000      -0.809179       -22.0189
  32   2.0000      -0.785135       -21.3646
  33   2.0000      -0.774792       -21.0832
  34   2.0000      -0.708167       -19.2702
  35   2.0000      -0.701573       -19.0908
  36   2.0000      -0.694432       -18.8964
  37   2.0000      -0.654275       -17.8037
  38   2.0000      -0.633232       -17.2311
  39   2.0000      -0.618036       -16.8176
  40   2.0000      -0.593310       -16.1448
  41   2.0000      -0.571490       -15.5510
  42   2.0000      -0.560904       -15.2630
  43   2.0000      -0.543953       -14.8017
  44   2.0000      -0.541330       -14.7303
  45   2.0000      -0.535681       -14.5766
  46   2.0000      -0.519349       -14.1322
  47   2.0000      -0.506963       -13.7952
  48   2.0000      -0.502627       -13.6772
  49   2.0000      -0.497347       -13.5335
  50   2.0000      -0.484621       -13.1872
  51   2.0000      -0.473362       -12.8808
  52   2.0000      -0.469530       -12.7765
  53   2.0000      -0.462984       -12.5984
  54   2.0000      -0.461281       -12.5521
  55   2.0000      -0.444104       -12.0847
  56   2.0000      -0.442506       -12.0412
  57   2.0000      -0.436503       -11.8778
  58   2.0000      -0.432219       -11.7613
  59   2.0000      -0.427210       -11.6250
  60   2.0000      -0.423273       -11.5178
  61   2.0000      -0.420437       -11.4407
  62   2.0000      -0.406384       -11.0583
  63   2.0000      -0.356975        -9.7138
  64   2.0000      -0.334206        -9.0942
  65   2.0000      -0.328792        -8.9469
  66   2.0000      -0.280655        -7.6370
  67   0.0000       0.015694         0.4271
  68   0.0000       0.072607         1.9757
  69   0.0000       0.099106         2.6968
  70   0.0000       0.120013         3.2657
  71   0.0000       0.130943         3.5631

MULLIKEN ATOMIC CHARGES
-----------------------
   0 S :    0.096574
   1 C :   -0.089204
   2 C :   -0.125484
   3 C :    0.026958
   4 C :   -0.103391
   5 H :   -0.057348
   6 C :    0.040686
   7 H :    0.054370
   8 H :    0.025238
   9 C :   -0.079466
  10 H :    0.032849
  11 H :    0.041989
  12 C :   -0.073861
  13 H :    0.061443
  14 H :    0.030566
  15 H :    0.038099
  16 S :    0.093005
  17 C :   -0.100256
  18 C :   -0.055139
  19 C :   -0.079728
  20 C :   -0.121966
  21 H :    0.025300
  22 C :    0.059905
  23 H :    0.020756
  24 H :    0.032069
  25 C :   -0.026892
  26 H :    0.019632
  27 H :    0.026867
  28 C :   -0.048688
  29 H :    0.056763
  30 H :    0.039427
  31 H :    0.028254
  32 H :    0.033302
  33 H :    0.077372
Sum of atomic charges:    0.0000000

LOEWDIN ATOMIC CHARGES
----------------------
   0 S :    0.377585
   1 C :   -0.184271
   2 C :   -0.056382
   3 C :   -0.072967
   4 C :   -0.178919
   5 H :    0.018783
   6 C :   -0.030739
   7 H :    0.045016
   8 H :    0.025177
   9 C :   -0.039673
  10 H :    0.019581
  11 H :    0.032082
  12 C :   -0.070436
  13 H :    0.036712
  14 H :    0.022783
  15 H :    0.027195
  16 S :    0.394270
  17 C :   -0.200331
  18 C :   -0.080196
  19 C :   -0.060249
  20 C :   -0.184346
  21 H :    0.031031
  22 C :   -0.028521
  23 H :    0.023522
  24 H :    0.042059
  25 C :   -0.033745
  26 H :    0.021541
  27 H :    0.026300
  28 C :   -0.064381
  29 H :    0.032423
  30 H :    0.025783
  31 H :    0.023932
  32 H :    0.018576
  33 H :    0.040806

  Mayer bond orders larger than 0.100000
B(  0-S ,  1-C ) :   1.1365 B(  0-S ,  4-C ) :   1.1243 B(  1-C ,  2-C ) :   1.6042
B(  1-C ,  4-C ) :   0.1103 B(  1-C , 32-H ) :   0.9601 B(  2-C ,  3-C ) :   1.2837
B(  2-C ,  6-C ) :   0.9968 B(  3-C ,  4-C ) :   1.5575 B(  3-C ,  5-H ) :   0.9881
B(  4-C , 20-C ) :   1.0782 B(  6-C ,  7-H ) :   0.9453 B(  6-C ,  8-H ) :   0.9491
B(  6-C ,  9-C ) :   1.0572 B(  9-C , 10-H ) :   0.9576 B(  9-C , 11-H ) :   0.9597
B(  9-C , 12-C ) :   1.0684 B( 12-C , 13-H ) :   0.9763 B( 12-C , 14-H ) :   0.9762
B( 12-C , 15-H ) :   0.9746 B( 16-S , 17-C ) :   1.1575 B( 16-S , 20-C ) :   1.1389
B( 17-C , 18-C ) :   1.5915 B( 17-C , 20-C ) :   0.1029 B( 17-C , 33-H ) :   0.9652
B( 18-C , 19-C ) :   1.2673 B( 18-C , 21-H ) :   0.9816 B( 19-C , 20-C ) :   1.5614
B( 19-C , 22-C ) :   1.0193 B( 22-C , 23-H ) :   0.9363 B( 22-C , 24-H ) :   0.9328
B( 22-C , 25-C ) :   1.0632 B( 25-C , 26-H ) :   0.9490 B( 25-C , 27-H ) :   0.9561
B( 25-C , 28-C ) :   1.0957 B( 28-C , 29-H ) :   0.9712 B( 28-C , 30-H ) :   0.9624
B( 28-C , 31-H ) :   0.9667

Dispersion correction           -0.015071479
FINAL SINGLE POINT ENERGY     -1339.863928738756

DIPOLE MOMENT
-------------
                                X             Y             Z
Electronic contribution:      7.56725      25.58001      10.99864
Nuclear contribution   :     -8.10192     -26.29198     -11.30128
                        -----------------------------------------
Total Dipole Moment    :     -0.53467      -0.71197      -0.30264
                        -----------------------------------------
Magnitude (a.u.)       :      0.94041
Magnitude (Debye)      :      2.39033

Rotational constants in cm-1:     0.018571     0.009444     0.007089
Rotational constants in MHz :   556.735708   283.136208   212.517448

                             ****ORCA TERMINATED NORMALLY****
TOTAL RUN TIME: 0 days 0 hours 0 minutes 37 seconds 990 msec
