                         Program Version 4.2.1 -  RELEASE  -
|  1> ! wB97X-D3 SP def2-SVP
|  2> %pal
|  3> nprocs 16
|  4> end
|  5>
|  6> * xyz 0 1
|  7> S 	 45.8391 	 12.6545 	 47.5975
|  8> C 	 44.5081 	 11.4992 	 47.5515
|  9> C 	 43.3583 	 11.9228 	 48.2339
| 10> C 	 43.579 	 13.2219 	 48.8321
| 11> C 	 44.8833 	 13.7546 	 48.6298
| 12> H 	 42.8396 	 13.793 	 49.4007
| 13> C 	 42.0854 	 11.1179 	 48.3247
| 14> H 	 42.2814 	 10.265 	 47.7216
| 15> H 	 41.3696 	 11.6765 	 47.8659
| 16> C 	 41.5884 	 10.7905 	 49.7139
| 17> H 	 41.5669 	 11.7442 	 50.2771
| 18> H 	 40.5875 	 10.3652 	 49.6785
| 19> C 	 42.405 	 9.66544 	 50.3098
| 20> H 	 42.1766 	 9.69701 	 51.3524
| 21> H 	 42.0769 	 8.72358 	 49.759
| 22> H 	 43.5231 	 9.84656 	 50.1402
| 23> S 	 44.7808 	 16.4786 	 48.5137
| 24> C 	 45.7956 	 17.4278 	 49.5382
| 25> C 	 46.6344 	 16.6254 	 50.209
| 26> C 	 46.447 	 15.2103 	 50.0389
| 27> C 	 45.3957 	 14.9455 	 49.2298
| 28> H 	 47.4189 	 17.1424 	 50.8002
| 29> C 	 47.2413 	 14.1562 	 50.7991
| 30> H 	 47.9613 	 14.7323 	 51.3657
| 31> H 	 47.8583 	 13.5673 	 50.0768
| 32> C 	 46.3147 	 13.1736 	 51.6006
| 33> H 	 46.0641 	 12.4113 	 50.8765
| 34> H 	 45.4761 	 13.7042 	 52.0743
| 35> C 	 47.0745 	 12.5158 	 52.8094
| 36> H 	 47.051 	 13.2506 	 53.65
| 37> H 	 48.04 	 12.1224 	 52.5534
| 38> H 	 46.5099 	 11.6986 	 53.2557
| 39> H 	 44.5539 	 10.5278 	 47.1402
| 40> H 	 45.8253 	 18.5095 	 49.5885
| 41> *
| 42>
| 43>                          ****END OF INPUT****

CARTESIAN COORDINATES (ANGSTROEM)
---------------------------------
  S     45.839100   12.654500   47.597500
  C     44.508100   11.499200   47.551500
  C     43.358300   11.922800   48.233900
  C     43.579000   13.221900   48.832100
  C     44.883300   13.754600   48.629800
  H     42.839600   13.793000   49.400700
  C     42.085400   11.117900   48.324700
  H     42.281400   10.265000   47.721600
  H     41.369600   11.676500   47.865900
  C     41.588400   10.790500   49.713900
  H     41.566900   11.744200   50.277100
  H     40.587500   10.365200   49.678500
  C     42.405000    9.665440   50.309800
  H     42.176600    9.697010   51.352400
  H     42.076900    8.723580   49.759000
  H     43.523100    9.846560   50.140200
  S     44.780800   16.478600   48.513700
  C     45.795600   17.427800   49.538200
  C     46.634400   16.625400   50.209000
  C     46.447000   15.210300   50.038900
  C     45.395700   14.945500   49.229800
  H     47.418900   17.142400   50.800200
  C     47.241300   14.156200   50.799100
  H     47.961300   14.732300   51.365700
  H     47.858300   13.567300   50.076800
  C     46.314700   13.173600   51.600600
  H     46.064100   12.411300   50.876500
  H     45.476100   13.704200   52.074300
  C     47.074500   12.515800   52.809400
  H     47.051000   13.250600   53.650000
  H     48.040000   12.122400   52.553400
  H     46.509900   11.698600   53.255700
  H     44.553900   10.527800   47.140200
  H     45.825300   18.509500   49.588500

 Total Charge           Charge          ....    0
 Multiplicity           Mult            ....    1
 Number of Electrons    NEL             ....  134
 Basis Dimension        Dim             ....  322

ORBITAL ENERGIES
----------------

  NO   OCC          E(Eh)            E(eV)
   0   2.0000     -88.971271     -2421.0314
   1   2.0000     -88.956635     -2420.6331
   2   2.0000     -10.333234      -281.1816
   3   2.0000     -10.320584      -280.8374
   4   2.0000     -10.315291      -280.6933
   5   2.0000     -10.311411      -280.5878
   6   2.0000     -10.304974      -280.4126
   7   2.0000     -10.302103      -280.3345
   8   2.0000     -10.301025      -280.3051
   9   2.0000     -10.293805      -280.1087
  10   2.0000     -10.289894      -280.0023
  11   2.0000     -10.287829      -279.9461
  12   2.0000     -10.285037      -279.8701
  13   2.0000     -10.282313      -279.7960
  14   2.0000     -10.280074      -279.7350
  15   2.0000     -10.276943      -279.6498
  16   2.0000      -8.084542      -219.9916
  17   2.0000      -8.071687      -219.6418
  18   2.0000      -6.043111      -164.4414
  19   2.0000      -6.039173      -164.3343
  20   2.0000      -6.035418      -164.2321
  21   2.0000      -6.030258      -164.0917
  22   2.0000      -6.026188      -163.9809
  23   2.0000      -6.022292      -163.8749
  24   2.0000      -1.004107       -27.3231
  25   2.0000      -0.978966       -26.6390
  26   2.0000      -0.920785       -25.0558
  27   2.0000      -0.901041       -24.5186
  28   2.0000      -0.871363       -23.7110
  29   2.0000      -0.846669       -23.0390
  30   2.0000      -0.843921       -22.9643
  31   2.0000      -0.811596       -22.0847
  32   2.0000      -0.783110       -21.3095
  33   2.0000      -0.771723       -20.9996
  34   2.0000      -0.714056       -19.4304
  35   2.0000      -0.694561       -18.9000
  36   2.0000      -0.687423       -18.7057
  37   2.0000      -0.659405       -17.9433
  38   2.0000      -0.635185       -17.2843
  39   2.0000      -0.616675       -16.7806
  40   2.0000      -0.591773       -16.1030
  41   2.0000      -0.570567       -15.5259
  42   2.0000      -0.562553       -15.3078
  43   2.0000      -0.560075       -15.2404
  44   2.0000      -0.547266       -14.8919
  45   2.0000      -0.524553       -14.2738
  46   2.0000      -0.520188       -14.1550
  47   2.0000      -0.513425       -13.9710
  48   2.0000      -0.508051       -13.8248
  49   2.0000      -0.488970       -13.3055
  50   2.0000      -0.485082       -13.1997
  51   2.0000      -0.477170       -12.9844
  52   2.0000      -0.471946       -12.8423
  53   2.0000      -0.461007       -12.5446
  54   2.0000      -0.456336       -12.4175
  55   2.0000      -0.445036       -12.1101
  56   2.0000      -0.438540       -11.9333
  57   2.0000      -0.434697       -11.8287
  58   2.0000      -0.432284       -11.7631
  59   2.0000      -0.430508       -11.7147
  60   2.0000      -0.417953       -11.3731
  61   2.0000      -0.415840       -11.3156
  62   2.0000      -0.411538       -11.1985
  63   2.0000      -0.335796        -9.1375
  64   2.0000      -0.330128        -8.9832
  65   2.0000      -0.325473        -8.8566
  66   2.0000      -0.300868        -8.1870
  67   0.0000       0.030260         0.8234
  68   0.0000       0.064398         1.7523
  69   0.0000       0.109554         2.9811
  70   0.0000       0.118040         3.2120
  71   0.0000       0.128542         3.4978

MULLIKEN ATOMIC CHARGES
-----------------------
   0 S :    0.122743
   1 C :   -0.113867
   2 C :   -0.119256
   3 C :    0.024588
   4 C :   -0.168720
   5 H :    0.023165
   6 C :    0.155396
   7 H :   -0.006431
   8 H :    0.009795
   9 C :   -0.087939
  10 H :    0.034865
  11 H :    0.030058
  12 C :   -0.071815
  13 H :    0.036893
  14 H :    0.042764
  15 H :    0.048642
  16 S :    0.089935
  17 C :   -0.076361
  18 C :   -0.062622
  19 C :   -0.028358
  20 C :   -0.181020
  21 H :    0.024510
  22 C :    0.087748
  23 H :    0.006619
  24 H :    0.037466
  25 C :   -0.078680
  26 H :    0.050319
  27 H :    0.045164
  28 C :   -0.055424
  29 H :    0.032649
  30 H :    0.032974
  31 H :    0.026618
  32 H :    0.032999
  33 H :    0.054582
Sum of atomic charges:    0.0000000

LOEWDIN ATOMIC CHARGES
----------------------
   0 S :    0.392619
   1 C :   -0.192653
   2 C :   -0.055296
   3 C :   -0.052787
   4 C :   -0.192999
   5 H :    0.032063
   6 C :   -0.022686
   7 H :    0.024518
   8 H :    0.022330
   9 C :   -0.043000
  10 H :    0.025026
  11 H :    0.026540
  12 C :   -0.069127
  13 H :    0.022711
  14 H :    0.034000
  15 H :    0.031090
  16 S :    0.385756
  17 C :   -0.185579
  18 C :   -0.084315
  19 C :   -0.055171
  20 C :   -0.188245
  21 H :    0.035536
  22 C :   -0.030306
  23 H :    0.023516
  24 H :    0.036120
  25 C :   -0.031669
  26 H :    0.026354
  27 H :    0.029781
  28 C :   -0.068860
  29 H :    0.028691
  30 H :    0.019591
  31 H :    0.024257
  32 H :    0.018646
  33 H :    0.033549

  Mayer bond orders larger than 0.100000
B(  0-S ,  1-C ) :   1.1386 B(  0-S ,  4-C ) :   1.1263 B(  1-C ,  2-C ) :   1.6074
B(  1-C , 32-H ) :   0.9638 B(  2-C ,  3-C ) :   1.2354 B(  2-C ,  6-C ) :   1.0250
B(  3-C ,  4-C ) :   1.5681 B(  3-C ,  5-H ) :   0.9854 B(  4-C , 20-C ) :   1.0681
B(  6-C ,  7-H ) :   0.9310 B(  6-C ,  8-H ) :   0.9208 B(  6-C ,  9-C ) :   1.0798
B(  9-C , 10-H ) :   0.9549 B(  9-C , 11-H ) :   0.9532 B(  9-C , 12-C ) :   1.0658
B( 12-C , 13-H ) :   0.9732 B( 12-C , 14-H ) :   0.9737 B( 12-C , 15-H ) :   0.9785
B( 16-S , 17-C ) :   1.1418 B( 16-S , 20-C ) :   1.1223 B( 17-C , 18-C ) :   1.6503
B( 17-C , 33-H ) :   0.9639 B( 18-C , 19-C ) :   1.2109 B( 18-C , 21-H ) :   0.9829
B( 19-C , 20-C ) :   1.6185 B( 19-C , 22-C ) :   1.0404 B( 22-C , 23-H ) :   0.9387
B( 22-C , 24-H ) :   0.9246 B( 22-C , 25-C ) :   1.0502 B( 25-C , 26-H ) :   0.9492
B( 25-C , 27-H ) :   0.9666 B( 25-C , 28-C ) :   1.0861 B( 28-C , 29-H ) :   0.9781
B( 28-C , 30-H ) :   0.9754 B( 28-C , 31-H ) :   0.9751

Dispersion correction           -0.015114581
FINAL SINGLE POINT ENERGY     -1339.873831780532

DIPOLE MOMENT
-------------
                                X             Y             Z
Electronic contribution:      4.96581      18.72829     -18.05492
Nuclear contribution   :     -5.11879     -18.98981      18.45986
                        -----------------------------------------
Total Dipole Moment    :     -0.15298      -0.26153       0.40493
                        -----------------------------------------
Magnitude (a.u.)       :      0.50574
Magnitude (Debye)      :      1.28548

Rotational constants in cm-1:     0.018420     0.009154     0.007609
Rotational constants in MHz :   552.210653   274.425751   228.103342

                             ****ORCA TERMINATED NORMALLY****
TOTAL RUN TIME: 0 days 0 hours 0 minutes 34 seconds 198 msec
