                         Program Version 4.2.1 -  RELEASE  -
|  1> ! wB97X-D3 SP def2-SVP
|  2> %pal
|  3> nprocs 16
|  4> end
|  5>
|  6> * xyz 0 1
|  7> S 	 69.4164 	 17.493 	 73.7671
|  8> C 	 68.4324 	 18.6953 	 72.9812
|  9> C 	 67.9659 	 19.6333 	 73.8543
| 10> C 	 68.5518 	 19.4871 	 75.1632
| 11> C 	 69.4025 	 18.411 	 75.2439
| 12> H 	 68.4463 	 20.1217 	 76.0839
| 13> C 	 66.9126 	 20.7118 	 73.512
| 14> H 	 67.1422 	 20.9619 	 72.4913
| 15> H 	 67.1645 	 21.5657 	 74.177
| 16> C 	 65.4875 	 20.2397 	 73.5831
| 17> H 	 65.2788 	 19.776 	 74.5662
| 18> H 	 64.8104 	 21.1171 	 73.4613
| 19> C 	 65.0527 	 19.2729 	 72.4536
| 20> H 	 65.4359 	 18.2605 	 72.4782
| 21> H 	 63.9937 	 19.3958 	 72.2992
| 22> H 	 65.4303 	 19.5665 	 71.4766
| 23> S 	 71.845 	 17.8239 	 76.577
| 24> C 	 71.7484 	 17.1419 	 78.0924
| 25> C 	 70.4734 	 16.8473 	 78.4555
| 26> C 	 69.5017 	 17.2175 	 77.4717
| 27> C 	 70.1191 	 17.8877 	 76.4084
| 28> H 	 70.2236 	 16.3076 	 79.3457
| 29> C 	 68.0504 	 17.1088 	 77.6919
| 30> H 	 67.6003 	 17.1593 	 76.6892
| 31> H 	 67.7379 	 17.9896 	 78.2341
| 32> C 	 67.5559 	 15.8949 	 78.4921
| 33> H 	 66.4951 	 15.8765 	 78.5742
| 34> H 	 67.8516 	 15.8864 	 79.4871
| 35> C 	 67.9701 	 14.4897 	 77.8748
| 36> H 	 68.9374 	 14.3164 	 78.2657
| 37> H 	 67.9624 	 14.4727 	 76.8178
| 38> H 	 67.322 	 13.7869 	 78.3096
| 39> H 	 68.1684 	 18.7465 	 71.9044
| 40> H 	 72.5034 	 16.7292 	 78.7433
| 41> *
| 42>
| 43>                          ****END OF INPUT****

CARTESIAN COORDINATES (ANGSTROEM)
---------------------------------
  S     69.416400   17.493000   73.767100
  C     68.432400   18.695300   72.981200
  C     67.965900   19.633300   73.854300
  C     68.551800   19.487100   75.163200
  C     69.402500   18.411000   75.243900
  H     68.446300   20.121700   76.083900
  C     66.912600   20.711800   73.512000
  H     67.142200   20.961900   72.491300
  H     67.164500   21.565700   74.177000
  C     65.487500   20.239700   73.583100
  H     65.278800   19.776000   74.566200
  H     64.810400   21.117100   73.461300
  C     65.052700   19.272900   72.453600
  H     65.435900   18.260500   72.478200
  H     63.993700   19.395800   72.299200
  H     65.430300   19.566500   71.476600
  S     71.845000   17.823900   76.577000
  C     71.748400   17.141900   78.092400
  C     70.473400   16.847300   78.455500
  C     69.501700   17.217500   77.471700
  C     70.119100   17.887700   76.408400
  H     70.223600   16.307600   79.345700
  C     68.050400   17.108800   77.691900
  H     67.600300   17.159300   76.689200
  H     67.737900   17.989600   78.234100
  C     67.555900   15.894900   78.492100
  H     66.495100   15.876500   78.574200
  H     67.851600   15.886400   79.487100
  C     67.970100   14.489700   77.874800
  H     68.937400   14.316400   78.265700
  H     67.962400   14.472700   76.817800
  H     67.322000   13.786900   78.309600
  H     68.168400   18.746500   71.904400
  H     72.503400   16.729200   78.743300

 Total Charge           Charge          ....    0
 Multiplicity           Mult            ....    1
 Number of Electrons    NEL             ....  134
 Basis Dimension        Dim             ....  322

ORBITAL ENERGIES
----------------

  NO   OCC          E(Eh)            E(eV)
   0   2.0000     -88.966909     -2420.9127
   1   2.0000     -88.963846     -2420.8293
   2   2.0000     -10.324656      -280.9482
   3   2.0000     -10.319294      -280.8023
   4   2.0000     -10.312083      -280.6061
   5   2.0000     -10.306920      -280.4656
   6   2.0000     -10.299465      -280.2627
   7   2.0000     -10.297257      -280.2026
   8   2.0000     -10.296715      -280.1879
   9   2.0000     -10.292611      -280.0762
  10   2.0000     -10.292118      -280.0628
  11   2.0000     -10.285191      -279.8743
  12   2.0000     -10.283195      -279.8200
  13   2.0000     -10.278840      -279.7015
  14   2.0000     -10.276036      -279.6252
  15   2.0000     -10.264974      -279.3241
  16   2.0000      -8.083132      -219.9532
  17   2.0000      -8.078989      -219.8405
  18   2.0000      -6.041505      -164.3977
  19   2.0000      -6.037450      -164.2874
  20   2.0000      -6.037386      -164.2856
  21   2.0000      -6.033987      -164.1931
  22   2.0000      -6.033497      -164.1798
  23   2.0000      -6.029717      -164.0769
  24   2.0000      -1.012974       -27.5644
  25   2.0000      -0.990945       -26.9650
  26   2.0000      -0.913494       -24.8574
  27   2.0000      -0.911084       -24.7918
  28   2.0000      -0.869316       -23.6553
  29   2.0000      -0.849231       -23.1088
  30   2.0000      -0.843809       -22.9612
  31   2.0000      -0.815465       -22.1899
  32   2.0000      -0.788477       -21.4555
  33   2.0000      -0.776045       -21.1172
  34   2.0000      -0.711961       -19.3734
  35   2.0000      -0.701996       -19.1023
  36   2.0000      -0.693175       -18.8623
  37   2.0000      -0.650883       -17.7114
  38   2.0000      -0.639942       -17.4137
  39   2.0000      -0.615174       -16.7397
  40   2.0000      -0.596471       -16.2308
  41   2.0000      -0.570580       -15.5263
  42   2.0000      -0.555952       -15.1282
  43   2.0000      -0.550961       -14.9924
  44   2.0000      -0.542170       -14.7532
  45   2.0000      -0.539449       -14.6791
  46   2.0000      -0.522106       -14.2072
  47   2.0000      -0.509211       -13.8563
  48   2.0000      -0.506460       -13.7815
  49   2.0000      -0.497156       -13.5283
  50   2.0000      -0.486046       -13.2260
  51   2.0000      -0.480132       -13.0651
  52   2.0000      -0.475146       -12.9294
  53   2.0000      -0.469007       -12.7623
  54   2.0000      -0.459342       -12.4993
  55   2.0000      -0.448434       -12.2025
  56   2.0000      -0.446141       -12.1401
  57   2.0000      -0.434084       -11.8120
  58   2.0000      -0.430735       -11.7209
  59   2.0000      -0.427857       -11.6426
  60   2.0000      -0.425251       -11.5717
  61   2.0000      -0.415510       -11.3066
  62   2.0000      -0.411990       -11.2108
  63   2.0000      -0.334849        -9.1117
  64   2.0000      -0.327598        -8.9144
  65   2.0000      -0.325294        -8.8517
  66   2.0000      -0.307586        -8.3698
  67   0.0000       0.042121         1.1462
  68   0.0000       0.067670         1.8414
  69   0.0000       0.122389         3.3304
  70   0.0000       0.124752         3.3947
  71   0.0000       0.130421         3.5489

MULLIKEN ATOMIC CHARGES
-----------------------
   0 S :    0.119402
   1 C :   -0.128880
   2 C :   -0.117509
   3 C :    0.018185
   4 C :   -0.192884
   5 H :    0.032897
   6 C :    0.088160
   7 H :    0.013232
   8 H :    0.032712
   9 C :   -0.056458
  10 H :    0.036054
  11 H :    0.036219
  12 C :   -0.048813
  13 H :    0.044720
  14 H :    0.032777
  15 H :    0.000415
  16 S :    0.145716
  17 C :   -0.058744
  18 C :   -0.052256
  19 C :   -0.039506
  20 C :   -0.193621
  21 H :    0.006323
  22 C :    0.092292
  23 H :    0.039225
  24 H :    0.038944
  25 C :   -0.080388
  26 H :    0.016611
  27 H :    0.009542
  28 C :   -0.009906
  29 H :    0.016931
  30 H :    0.035452
  31 H :    0.020130
  32 H :    0.053819
  33 H :    0.049205
Sum of atomic charges:   -0.0000000

LOEWDIN ATOMIC CHARGES
----------------------
   0 S :    0.409914
   1 C :   -0.207697
   2 C :   -0.066502
   3 C :   -0.069354
   4 C :   -0.196496
   5 H :    0.042893
   6 C :   -0.030068
   7 H :    0.026040
   8 H :    0.034573
   9 C :   -0.040602
  10 H :    0.028138
  11 H :    0.030733
  12 C :   -0.070967
  13 H :    0.025847
  14 H :    0.028538
  15 H :    0.020094
  16 S :    0.454013
  17 C :   -0.213433
  18 C :   -0.077641
  19 C :   -0.046588
  20 C :   -0.229312
  21 H :    0.024477
  22 C :   -0.034453
  23 H :    0.036064
  24 H :    0.037231
  25 C :   -0.031926
  26 H :    0.020678
  27 H :    0.012051
  28 C :   -0.048096
  29 H :    0.018887
  30 H :    0.021697
  31 H :    0.020037
  32 H :    0.035221
  33 H :    0.036010

  Mayer bond orders larger than 0.100000
B(  0-S ,  1-C ) :   1.1301 B(  0-S ,  4-C ) :   1.1584 B(  1-C ,  2-C ) :   1.6491
B(  1-C , 32-H ) :   0.9580 B(  2-C ,  3-C ) :   1.2176 B(  2-C ,  6-C ) :   1.0075
B(  3-C ,  4-C ) :   1.6101 B(  3-C ,  5-H ) :   0.9892 B(  4-C , 20-C ) :   1.0259
B(  6-C ,  7-H ) :   0.9382 B(  6-C ,  8-H ) :   0.9417 B(  6-C ,  9-C ) :   1.0790
B(  9-C , 10-H ) :   0.9532 B(  9-C , 11-H ) :   0.9552 B(  9-C , 12-C ) :   1.0743
B( 12-C , 13-H ) :   0.9730 B( 12-C , 14-H ) :   0.9740 B( 12-C , 15-H ) :   0.9692
B( 16-S , 17-C ) :   1.1802 B( 16-S , 20-C ) :   1.1501 B( 17-C , 18-C ) :   1.5934
B( 17-C , 33-H ) :   0.9588 B( 18-C , 19-C ) :   1.2708 B( 18-C , 21-H ) :   0.9871
B( 19-C , 20-C ) :   1.5559 B( 19-C , 22-C ) :   1.0513 B( 22-C , 23-H ) :   0.9196
B( 22-C , 24-H ) :   0.9303 B( 22-C , 25-C ) :   1.0813 B( 25-C , 26-H ) :   0.9571
B( 25-C , 27-H ) :   0.9499 B( 25-C , 28-C ) :   1.0736 B( 28-C , 29-H ) :   0.9756
B( 28-C , 30-H ) :   0.9808 B( 28-C , 31-H ) :   0.9761

Dispersion correction           -0.015033430
FINAL SINGLE POINT ENERGY     -1339.879164066660

DIPOLE MOMENT
-------------
                                X             Y             Z
Electronic contribution:     25.12653       1.13264      -1.55073
Nuclear contribution   :    -25.71189      -1.05630       1.81300
                        -----------------------------------------
Total Dipole Moment    :     -0.58537       0.07635       0.26227
                        -----------------------------------------
Magnitude (a.u.)       :      0.64596
Magnitude (Debye)      :      1.64191

Rotational constants in cm-1:     0.021294     0.008310     0.006953
Rotational constants in MHz :   638.383536   249.123941   208.454098

                             ****ORCA TERMINATED NORMALLY****
TOTAL RUN TIME: 0 days 0 hours 0 minutes 31 seconds 80 msec
