                         Program Version 4.2.1 -  RELEASE  -
|  1> ! wB97X-D3 SP def2-SVP
|  2> %pal
|  3> nprocs 16
|  4> end
|  5>
|  6> * xyz 0 1
|  7> S 	 57.8937 	 0.213456 	 85.8338
|  8> C 	 57.6271 	 1.08277 	 84.3332
|  9> C 	 57.5507 	 0.247008 	 83.2582
| 10> C 	 57.6633 	 -1.13792 	 83.6833
| 11> C 	 57.7607 	 -1.34657 	 85.0407
| 12> H 	 57.5086 	 -1.98672 	 83.0119
| 13> C 	 57.5231 	 0.731321 	 81.8487
| 14> H 	 57.2402 	 -0.107055 	 81.1936
| 15> H 	 58.4827 	 0.915308 	 81.408
| 16> C 	 56.6145 	 2.0071 	 81.6565
| 17> H 	 55.5417 	 1.79983 	 82.0568
| 18> H 	 56.8624 	 2.84979 	 82.2337
| 19> C 	 56.4612 	 2.35666 	 80.1759
| 20> H 	 55.8852 	 3.22997 	 79.967
| 21> H 	 57.4608 	 2.47735 	 79.7232
| 22> H 	 55.961 	 1.5383 	 79.5942
| 23> S 	 56.6681 	 -2.70457 	 87.1546
| 24> C 	 56.7565 	 -4.43149 	 87.2742
| 25> C 	 57.7093 	 -4.90142 	 86.3768
| 26> C 	 58.1236 	 -3.87231 	 85.4867
| 27> C 	 57.6138 	 -2.59721 	 85.7029
| 28> H 	 57.9145 	 -5.93422 	 86.3907
| 29> C 	 59.1031 	 -4.21207 	 84.4113
| 30> H 	 59.9 	 -4.72155 	 84.8758
| 31> H 	 59.5063 	 -3.23371 	 84.1218
| 32> C 	 58.6165 	 -5.01881 	 83.2919
| 33> H 	 57.6486 	 -4.67685 	 83.0433
| 34> H 	 58.5883 	 -6.10257 	 83.5995
| 35> C 	 59.5382 	 -5.00925 	 82.0177
| 36> H 	 58.9924 	 -5.33215 	 81.0759
| 37> H 	 60.4542 	 -5.60663 	 82.0973
| 38> H 	 59.8057 	 -4.00095 	 81.8198
| 39> H 	 57.5069 	 2.14509 	 84.2819
| 40> H 	 56.1301 	 -5.05931 	 87.8656
| 41> *
| 42>
| 43>                          ****END OF INPUT****

CARTESIAN COORDINATES (ANGSTROEM)
---------------------------------
  S     57.893700    0.213456   85.833800
  C     57.627100    1.082770   84.333200
  C     57.550700    0.247008   83.258200
  C     57.663300   -1.137920   83.683300
  C     57.760700   -1.346570   85.040700
  H     57.508600   -1.986720   83.011900
  C     57.523100    0.731321   81.848700
  H     57.240200   -0.107055   81.193600
  H     58.482700    0.915308   81.408000
  C     56.614500    2.007100   81.656500
  H     55.541700    1.799830   82.056800
  H     56.862400    2.849790   82.233700
  C     56.461200    2.356660   80.175900
  H     55.885200    3.229970   79.967000
  H     57.460800    2.477350   79.723200
  H     55.961000    1.538300   79.594200
  S     56.668100   -2.704570   87.154600
  C     56.756500   -4.431490   87.274200
  C     57.709300   -4.901420   86.376800
  C     58.123600   -3.872310   85.486700
  C     57.613800   -2.597210   85.702900
  H     57.914500   -5.934220   86.390700
  C     59.103100   -4.212070   84.411300
  H     59.900000   -4.721550   84.875800
  H     59.506300   -3.233710   84.121800
  C     58.616500   -5.018810   83.291900
  H     57.648600   -4.676850   83.043300
  H     58.588300   -6.102570   83.599500
  C     59.538200   -5.009250   82.017700
  H     58.992400   -5.332150   81.075900
  H     60.454200   -5.606630   82.097300
  H     59.805700   -4.000950   81.819800
  H     57.506900    2.145090   84.281900
  H     56.130100   -5.059310   87.865600

 Total Charge           Charge          ....    0
 Multiplicity           Mult            ....    1
 Number of Electrons    NEL             ....  134
 Basis Dimension        Dim             ....  322

ORBITAL ENERGIES
----------------

  NO   OCC          E(Eh)            E(eV)
   0   2.0000     -88.966334     -2420.8970
   1   2.0000     -88.962468     -2420.7918
   2   2.0000     -10.331430      -281.1325
   3   2.0000     -10.326039      -280.9858
   4   2.0000     -10.317494      -280.7533
   5   2.0000     -10.312041      -280.6049
   6   2.0000     -10.301651      -280.3222
   7   2.0000     -10.300719      -280.2968
   8   2.0000     -10.297119      -280.1989
   9   2.0000     -10.296970      -280.1948
  10   2.0000     -10.296244      -280.1750
  11   2.0000     -10.291493      -280.0458
  12   2.0000     -10.284048      -279.8432
  13   2.0000     -10.281732      -279.7801
  14   2.0000     -10.281241      -279.7668
  15   2.0000     -10.275278      -279.6045
  16   2.0000      -8.081016      -219.8956
  17   2.0000      -8.077938      -219.8119
  18   2.0000      -6.039721      -164.3492
  19   2.0000      -6.036439      -164.2599
  20   2.0000      -6.035545      -164.2355
  21   2.0000      -6.032191      -164.1443
  22   2.0000      -6.031554      -164.1269
  23   2.0000      -6.028784      -164.0516
  24   2.0000      -1.012383       -27.5483
  25   2.0000      -0.988222       -26.8909
  26   2.0000      -0.917298       -24.9610
  27   2.0000      -0.912686       -24.8355
  28   2.0000      -0.875782       -23.8312
  29   2.0000      -0.850638       -23.1470
  30   2.0000      -0.845067       -22.9955
  31   2.0000      -0.819099       -22.2888
  32   2.0000      -0.781629       -21.2692
  33   2.0000      -0.772715       -21.0266
  34   2.0000      -0.717513       -19.5245
  35   2.0000      -0.705063       -19.1857
  36   2.0000      -0.697140       -18.9702
  37   2.0000      -0.668453       -18.1895
  38   2.0000      -0.642228       -17.4759
  39   2.0000      -0.618944       -16.8423
  40   2.0000      -0.595519       -16.2049
  41   2.0000      -0.580009       -15.7829
  42   2.0000      -0.572822       -15.5873
  43   2.0000      -0.556937       -15.1550
  44   2.0000      -0.534695       -14.5498
  45   2.0000      -0.528064       -14.3694
  46   2.0000      -0.525012       -14.2863
  47   2.0000      -0.516153       -14.0453
  48   2.0000      -0.505932       -13.7671
  49   2.0000      -0.500533       -13.6202
  50   2.0000      -0.495577       -13.4853
  51   2.0000      -0.480892       -13.0857
  52   2.0000      -0.473118       -12.8742
  53   2.0000      -0.465969       -12.6797
  54   2.0000      -0.461311       -12.5529
  55   2.0000      -0.452660       -12.3175
  56   2.0000      -0.442799       -12.0492
  57   2.0000      -0.437123       -11.8947
  58   2.0000      -0.436221       -11.8702
  59   2.0000      -0.426985       -11.6189
  60   2.0000      -0.415033       -11.2936
  61   2.0000      -0.411591       -11.1999
  62   2.0000      -0.409551       -11.1445
  63   2.0000      -0.357020        -9.7150
  64   2.0000      -0.329553        -8.9676
  65   2.0000      -0.327893        -8.9224
  66   2.0000      -0.288946        -7.8626
  67   0.0000       0.025846         0.7033
  68   0.0000       0.070038         1.9058
  69   0.0000       0.111476         3.0334
  70   0.0000       0.124319         3.3829
  71   0.0000       0.128674         3.5014

MULLIKEN ATOMIC CHARGES
-----------------------
   0 S :    0.110799
   1 C :   -0.128046
   2 C :   -0.056828
   3 C :    0.006212
   4 C :   -0.136428
   5 H :    0.013546
   6 C :    0.081284
   7 H :    0.012554
   8 H :    0.034597
   9 C :   -0.116141
  10 H :    0.041369
  11 H :    0.028127
  12 C :   -0.044507
  13 H :    0.031186
  14 H :    0.027421
  15 H :    0.035495
  16 S :    0.101507
  17 C :   -0.090572
  18 C :   -0.011915
  19 C :   -0.070686
  20 C :   -0.121174
  21 H :    0.007611
  22 C :    0.092635
  23 H :    0.009596
  24 H :    0.014603
  25 C :   -0.061950
  26 H :    0.020214
  27 H :    0.034836
  28 C :   -0.056422
  29 H :    0.039579
  30 H :    0.038643
  31 H :    0.015039
  32 H :    0.044647
  33 H :    0.053168
Sum of atomic charges:   -0.0000000

LOEWDIN ATOMIC CHARGES
----------------------
   0 S :    0.397539
   1 C :   -0.184913
   2 C :   -0.063896
   3 C :   -0.063957
   4 C :   -0.191404
   5 H :    0.030257
   6 C :   -0.030702
   7 H :    0.032892
   8 H :    0.031806
   9 C :   -0.041142
  10 H :    0.035113
  11 H :    0.014085
  12 C :   -0.068899
  13 H :    0.021972
  14 H :    0.024460
  15 H :    0.030410
  16 S :    0.419218
  17 C :   -0.178028
  18 C :   -0.066120
  19 C :   -0.052945
  20 C :   -0.205802
  21 H :    0.026586
  22 C :   -0.038723
  23 H :    0.026617
  24 H :    0.028250
  25 C :   -0.038763
  26 H :    0.016084
  27 H :    0.030616
  28 C :   -0.066673
  29 H :    0.033718
  30 H :    0.026126
  31 H :    0.015235
  32 H :    0.023852
  33 H :    0.027128

  Mayer bond orders larger than 0.100000
B(  0-S ,  1-C ) :   1.1256 B(  0-S ,  4-C ) :   1.1301 B(  1-C ,  2-C ) :   1.6223
B(  1-C , 32-H ) :   0.9710 B(  2-C ,  3-C ) :   1.2338 B(  2-C ,  6-C ) :   1.0284
B(  3-C ,  4-C ) :   1.5718 B(  3-C ,  5-H ) :   0.9903 B(  4-C , 20-C ) :   1.0891
B(  6-C ,  7-H ) :   0.9390 B(  6-C ,  8-H ) :   0.9338 B(  6-C ,  9-C ) :   1.0403
B(  9-C , 10-H ) :   0.9611 B(  9-C , 11-H ) :   0.9565 B(  9-C , 12-C ) :   1.0867
B( 12-C , 13-H ) :   0.9737 B( 12-C , 14-H ) :   0.9725 B( 12-C , 15-H ) :   0.9756
B( 16-S , 17-C ) :   1.1823 B( 16-S , 20-C ) :   1.1253 B( 17-C , 18-C ) :   1.5673
B( 17-C , 20-C ) :   0.1015 B( 17-C , 33-H ) :   0.9721 B( 18-C , 19-C ) :   1.2509
B( 18-C , 21-H ) :   1.0052 B( 19-C , 20-C ) :   1.5542 B( 19-C , 22-C ) :   1.0606
B( 22-C , 23-H ) :   0.9210 B( 22-C , 24-H ) :   0.9271 B( 22-C , 25-C ) :   1.0723
B( 25-C , 26-H ) :   0.9554 B( 25-C , 27-H ) :   0.9492 B( 25-C , 28-C ) :   1.0814
B( 28-C , 29-H ) :   0.9765 B( 28-C , 30-H ) :   0.9768 B( 28-C , 31-H ) :   0.9765

Dispersion correction           -0.013770541
FINAL SINGLE POINT ENERGY     -1339.873070037856

DIPOLE MOMENT
-------------
                                X             Y             Z
Electronic contribution:     -3.53893       0.96239      29.67574
Nuclear contribution   :      3.56292      -1.17607     -30.30542
                        -----------------------------------------
Total Dipole Moment    :      0.02399      -0.21368      -0.62968
                        -----------------------------------------
Magnitude (a.u.)       :      0.66538
Magnitude (Debye)      :      1.69126

Rotational constants in cm-1:     0.018914     0.008064     0.006099
Rotational constants in MHz :   567.033451   241.741957   182.829123

                             ****ORCA TERMINATED NORMALLY****
TOTAL RUN TIME: 0 days 0 hours 0 minutes 29 seconds 372 msec
