                         Program Version 4.2.1 -  RELEASE  -
|  1> ! wB97X-D3 SP def2-SVP
|  2> %pal
|  3> nprocs 16
|  4> end
|  5>
|  6> * xyz 0 1
|  7> S 	 -55.8359 	 24.6798 	 94.935
|  8> C 	 -54.3237 	 23.7762 	 94.6505
|  9> C 	 -53.4572 	 24.4087 	 93.7255
| 10> C 	 -54.0242 	 25.6506 	 93.2806
| 11> C 	 -55.3016 	 25.893 	 93.7701
| 12> H 	 -53.4966 	 26.2018 	 92.5089
| 13> C 	 -52.1397 	 23.8312 	 93.2196
| 14> H 	 -52.2467 	 23.245 	 92.2867
| 15> H 	 -51.7714 	 23.0145 	 93.8041
| 16> C 	 -50.9796 	 24.795 	 93.1263
| 17> H 	 -51.0702 	 25.4736 	 92.2037
| 18> H 	 -50.8324 	 25.4463 	 94.0156
| 19> C 	 -49.7143 	 24.0158 	 92.802
| 20> H 	 -48.93 	 24.7464 	 92.6197
| 21> H 	 -49.5194 	 23.3642 	 93.6649
| 22> H 	 -49.7835 	 23.5094 	 91.8568
| 23> S 	 -57.3593 	 26.8537 	 92.3093
| 24> C 	 -57.6152 	 28.5908 	 92.208
| 25> C 	 -56.6018 	 29.3226 	 92.819
| 26> C 	 -55.6675 	 28.4788 	 93.4837
| 27> C 	 -56.0184 	 27.1446 	 93.3672
| 28> H 	 -56.6205 	 30.4164 	 92.806
| 29> C 	 -54.5601 	 28.9897 	 94.3949
| 30> H 	 -54.049 	 29.7916 	 93.7917
| 31> H 	 -53.7691 	 28.2377 	 94.5211
| 32> C 	 -54.8633 	 29.6439 	 95.7077
| 33> H 	 -55.508 	 29.0565 	 96.3902
| 34> H 	 -55.5855 	 30.4582 	 95.5051
| 35> C 	 -53.5991 	 30.09 	 96.5205
| 36> H 	 -53.4253 	 29.3055 	 97.2269
| 37> H 	 -53.7328 	 30.981 	 97.1254
| 38> H 	 -52.6571 	 30.306 	 96.0178
| 39> H 	 -54.3153 	 22.7651 	 95.0309
| 40> H 	 -58.4625 	 29.1029 	 91.7404
| 41> *
| 42>
| 43>                          ****END OF INPUT****

CARTESIAN COORDINATES (ANGSTROEM)
---------------------------------
  S    -55.835900   24.679800   94.935000
  C    -54.323700   23.776200   94.650500
  C    -53.457200   24.408700   93.725500
  C    -54.024200   25.650600   93.280600
  C    -55.301600   25.893000   93.770100
  H    -53.496600   26.201800   92.508900
  C    -52.139700   23.831200   93.219600
  H    -52.246700   23.245000   92.286700
  H    -51.771400   23.014500   93.804100
  C    -50.979600   24.795000   93.126300
  H    -51.070200   25.473600   92.203700
  H    -50.832400   25.446300   94.015600
  C    -49.714300   24.015800   92.802000
  H    -48.930000   24.746400   92.619700
  H    -49.519400   23.364200   93.664900
  H    -49.783500   23.509400   91.856800
  S    -57.359300   26.853700   92.309300
  C    -57.615200   28.590800   92.208000
  C    -56.601800   29.322600   92.819000
  C    -55.667500   28.478800   93.483700
  C    -56.018400   27.144600   93.367200
  H    -56.620500   30.416400   92.806000
  C    -54.560100   28.989700   94.394900
  H    -54.049000   29.791600   93.791700
  H    -53.769100   28.237700   94.521100
  C    -54.863300   29.643900   95.707700
  H    -55.508000   29.056500   96.390200
  H    -55.585500   30.458200   95.505100
  C    -53.599100   30.090000   96.520500
  H    -53.425300   29.305500   97.226900
  H    -53.732800   30.981000   97.125400
  H    -52.657100   30.306000   96.017800
  H    -54.315300   22.765100   95.030900
  H    -58.462500   29.102900   91.740400

 Total Charge           Charge          ....    0
 Multiplicity           Mult            ....    1
 Number of Electrons    NEL             ....  134
 Basis Dimension        Dim             ....  322

ORBITAL ENERGIES
----------------

  NO   OCC          E(Eh)            E(eV)
   0   2.0000     -88.969592     -2420.9857
   1   2.0000     -88.965443     -2420.8728
   2   2.0000     -10.331303      -281.1290
   3   2.0000     -10.323358      -280.9128
   4   2.0000     -10.318864      -280.7906
   5   2.0000     -10.316682      -280.7312
   6   2.0000     -10.307763      -280.4885
   7   2.0000     -10.302269      -280.3390
   8   2.0000     -10.295260      -280.1483
   9   2.0000     -10.294625      -280.1310
  10   2.0000     -10.293218      -280.0927
  11   2.0000     -10.293055      -280.0883
  12   2.0000     -10.290653      -280.0229
  13   2.0000     -10.288129      -279.9542
  14   2.0000     -10.278344      -279.6880
  15   2.0000     -10.276129      -279.6277
  16   2.0000      -8.083360      -219.9594
  17   2.0000      -8.080370      -219.8781
  18   2.0000      -6.041812      -164.4061
  19   2.0000      -6.038730      -164.3222
  20   2.0000      -6.038086      -164.3047
  21   2.0000      -6.034925      -164.2187
  22   2.0000      -6.034179      -164.1984
  23   2.0000      -6.031197      -164.1172
  24   2.0000      -1.001308       -27.2470
  25   2.0000      -0.977189       -26.5907
  26   2.0000      -0.916656       -24.9435
  27   2.0000      -0.904490       -24.6124
  28   2.0000      -0.863094       -23.4860
  29   2.0000      -0.849621       -23.1194
  30   2.0000      -0.847477       -23.0610
  31   2.0000      -0.809309       -22.0224
  32   2.0000      -0.781751       -21.2725
  33   2.0000      -0.769556       -20.9407
  34   2.0000      -0.704189       -19.1620
  35   2.0000      -0.695841       -18.9348
  36   2.0000      -0.685347       -18.6492
  37   2.0000      -0.658255       -17.9120
  38   2.0000      -0.641756       -17.4631
  39   2.0000      -0.624299       -16.9881
  40   2.0000      -0.594831       -16.1862
  41   2.0000      -0.572796       -15.5866
  42   2.0000      -0.562761       -15.3135
  43   2.0000      -0.552668       -15.0389
  44   2.0000      -0.524811       -14.2808
  45   2.0000      -0.515452       -14.0262
  46   2.0000      -0.514159       -13.9910
  47   2.0000      -0.508129       -13.8269
  48   2.0000      -0.504405       -13.7256
  49   2.0000      -0.494772       -13.4634
  50   2.0000      -0.485671       -13.2158
  51   2.0000      -0.478062       -13.0087
  52   2.0000      -0.463864       -12.6224
  53   2.0000      -0.462282       -12.5793
  54   2.0000      -0.455244       -12.3878
  55   2.0000      -0.452329       -12.3085
  56   2.0000      -0.448704       -12.2098
  57   2.0000      -0.442399       -12.0383
  58   2.0000      -0.441168       -12.0048
  59   2.0000      -0.424180       -11.5425
  60   2.0000      -0.421808       -11.4780
  61   2.0000      -0.411258       -11.1909
  62   2.0000      -0.399204       -10.8629
  63   2.0000      -0.338658        -9.2153
  64   2.0000      -0.330620        -8.9966
  65   2.0000      -0.324126        -8.8199
  66   2.0000      -0.299371        -8.1463
  67   0.0000       0.035225         0.9585
  68   0.0000       0.063964         1.7406
  69   0.0000       0.114087         3.1045
  70   0.0000       0.117667         3.2019
  71   0.0000       0.123298         3.3551

MULLIKEN ATOMIC CHARGES
-----------------------
   0 S :    0.108388
   1 C :   -0.142884
   2 C :   -0.054787
   3 C :    0.040706
   4 C :   -0.148467
   5 H :    0.020386
   6 C :    0.085322
   7 H :    0.034635
   8 H :   -0.004609
   9 C :   -0.138564
  10 H :    0.035760
  11 H :    0.049699
  12 C :   -0.040621
  13 H :    0.029805
  14 H :    0.041635
  15 H :    0.028904
  16 S :    0.117928
  17 C :   -0.098701
  18 C :   -0.050821
  19 C :   -0.004776
  20 C :   -0.179728
  21 H :    0.026001
  22 C :    0.053930
  23 H :    0.023084
  24 H :    0.024664
  25 C :   -0.057168
  26 H :    0.028286
  27 H :    0.015277
  28 C :   -0.048403
  29 H :    0.033907
  30 H :    0.027738
  31 H :    0.030468
  32 H :    0.055107
  33 H :    0.057900
Sum of atomic charges:   -0.0000000

LOEWDIN ATOMIC CHARGES
----------------------
   0 S :    0.389589
   1 C :   -0.187464
   2 C :   -0.055763
   3 C :   -0.056179
   4 C :   -0.200353
   5 H :    0.034132
   6 C :   -0.041816
   7 H :    0.039735
   8 H :    0.025957
   9 C :   -0.049417
  10 H :    0.027541
  11 H :    0.029948
  12 C :   -0.062343
  13 H :    0.027274
  14 H :    0.025979
  15 H :    0.023489
  16 S :    0.414979
  17 C :   -0.187993
  18 C :   -0.069856
  19 C :   -0.059476
  20 C :   -0.198902
  21 H :    0.035154
  22 C :   -0.038470
  23 H :    0.036234
  24 H :    0.028721
  25 C :   -0.044835
  26 H :    0.026826
  27 H :    0.021140
  28 C :   -0.068359
  29 H :    0.027084
  30 H :    0.028354
  31 H :    0.025617
  32 H :    0.022505
  33 H :    0.030969

  Mayer bond orders larger than 0.100000
B(  0-S ,  1-C ) :   1.1401 B(  0-S ,  4-C ) :   1.1527 B(  1-C ,  2-C ) :   1.5930
B(  1-C , 32-H ) :   0.9696 B(  2-C ,  3-C ) :   1.2584 B(  2-C ,  6-C ) :   1.0179
B(  3-C ,  4-C ) :   1.5631 B(  3-C ,  5-H ) :   0.9933 B(  4-C , 20-C ) :   0.9920
B(  6-C ,  7-H ) :   0.9276 B(  6-C ,  8-H ) :   0.9405 B(  6-C ,  9-C ) :   1.0616
B(  9-C , 10-H ) :   0.9467 B(  9-C , 11-H ) :   0.9606 B(  9-C , 12-C ) :   1.0883
B( 12-C , 13-H ) :   0.9724 B( 12-C , 14-H ) :   0.9744 B( 12-C , 15-H ) :   0.9724
B( 16-S , 17-C ) :   1.1505 B( 16-S , 20-C ) :   1.1616 B( 17-C , 18-C ) :   1.6204
B( 17-C , 33-H ) :   0.9651 B( 18-C , 19-C ) :   1.2287 B( 18-C , 21-H ) :   0.9890
B( 19-C , 20-C ) :   1.6123 B( 19-C , 22-C ) :   1.0454 B( 22-C , 23-H ) :   0.9245
B( 22-C , 24-H ) :   0.9355 B( 22-C , 25-C ) :   1.0693 B( 25-C , 26-H ) :   0.9572
B( 25-C , 27-H ) :   0.9541 B( 25-C , 28-C ) :   1.0542 B( 28-C , 29-H ) :   0.9795
B( 28-C , 30-H ) :   0.9758 B( 28-C , 31-H ) :   0.9807

Dispersion correction           -0.013658393
FINAL SINGLE POINT ENERGY     -1339.873467901657

DIPOLE MOMENT
-------------
                                X             Y             Z
Electronic contribution:    -27.19373      -7.45788      -5.06764
Nuclear contribution   :     27.77961       7.60219       4.98198
                        -----------------------------------------
Total Dipole Moment    :      0.58587       0.14431      -0.08566
                        -----------------------------------------
Magnitude (a.u.)       :      0.60943
Magnitude (Debye)      :      1.54906

Rotational constants in cm-1:     0.016055     0.008383     0.006931
Rotational constants in MHz :   481.325419   251.320951   207.796606

                             ****ORCA TERMINATED NORMALLY****
TOTAL RUN TIME: 0 days 0 hours 0 minutes 29 seconds 252 msec
