                         Program Version 4.2.1 -  RELEASE  -
|  1> ! wB97X-D3 SP def2-SVP
|  2> %pal
|  3> nprocs 16
|  4> end
|  5>
|  6> * xyz 0 1
|  7> S 	 26.9482 	 5.24284 	 74.3918
|  8> C 	 27.5483 	 3.59458 	 74.3826
|  9> C 	 27.5332 	 3.01759 	 75.6713
| 10> C 	 27.2461 	 4.03726 	 76.6199
| 11> C 	 27.015 	 5.3014 	 76.149
| 12> H 	 27.0833 	 3.88357 	 77.6955
| 13> C 	 27.8469 	 1.60087 	 76.0221
| 14> H 	 28.8835 	 1.51934 	 76.2667
| 15> H 	 27.6451 	 1.0764 	 75.0905
| 16> C 	 27.0223 	 0.87962 	 77.105
| 17> H 	 27.6222 	 -0.033064 	 77.4001
| 18> H 	 26.8908 	 1.59276 	 77.9342
| 19> C 	 25.5916 	 0.431888 	 76.8729
| 20> H 	 25.4406 	 -0.560755 	 76.4889
| 21> H 	 25.0047 	 0.455324 	 77.751
| 22> H 	 25.0687 	 1.10834 	 76.2282
| 23> S 	 24.828 	 6.70347 	 76.8319
| 24> C 	 24.8251 	 7.82053 	 78.1749
| 25> C 	 26.0406 	 7.73545 	 78.8369
| 26> C 	 26.9915 	 6.89199 	 78.1711
| 27> C 	 26.5494 	 6.42188 	 76.9484
| 28> H 	 26.1638 	 8.21476 	 79.7877
| 29> C 	 28.342 	 6.53614 	 78.7979
| 30> H 	 29.1125 	 6.86696 	 78.1392
| 31> H 	 28.4554 	 5.42189 	 78.818
| 32> C 	 28.5994 	 7.14977 	 80.1735
| 33> H 	 27.8639 	 6.8456 	 80.9389
| 34> H 	 28.5057 	 8.23766 	 80.2423
| 35> C 	 29.9863 	 6.71583 	 80.6378
| 36> H 	 30.2127 	 7.02881 	 81.6677
| 37> H 	 30.7872 	 7.20265 	 80.0305
| 38> H 	 29.9868 	 5.6209 	 80.6159
| 39> H 	 27.5226 	 3.01722 	 73.4566
| 40> H 	 24.0031 	 8.37381 	 78.5959
| 41> *
| 42>
| 43>                          ****END OF INPUT****

CARTESIAN COORDINATES (ANGSTROEM)
---------------------------------
  S     26.948200    5.242840   74.391800
  C     27.548300    3.594580   74.382600
  C     27.533200    3.017590   75.671300
  C     27.246100    4.037260   76.619900
  C     27.015000    5.301400   76.149000
  H     27.083300    3.883570   77.695500
  C     27.846900    1.600870   76.022100
  H     28.883500    1.519340   76.266700
  H     27.645100    1.076400   75.090500
  C     27.022300    0.879620   77.105000
  H     27.622200   -0.033064   77.400100
  H     26.890800    1.592760   77.934200
  C     25.591600    0.431888   76.872900
  H     25.440600   -0.560755   76.488900
  H     25.004700    0.455324   77.751000
  H     25.068700    1.108340   76.228200
  S     24.828000    6.703470   76.831900
  C     24.825100    7.820530   78.174900
  C     26.040600    7.735450   78.836900
  C     26.991500    6.891990   78.171100
  C     26.549400    6.421880   76.948400
  H     26.163800    8.214760   79.787700
  C     28.342000    6.536140   78.797900
  H     29.112500    6.866960   78.139200
  H     28.455400    5.421890   78.818000
  C     28.599400    7.149770   80.173500
  H     27.863900    6.845600   80.938900
  H     28.505700    8.237660   80.242300
  C     29.986300    6.715830   80.637800
  H     30.212700    7.028810   81.667700
  H     30.787200    7.202650   80.030500
  H     29.986800    5.620900   80.615900
  H     27.522600    3.017220   73.456600
  H     24.003100    8.373810   78.595900

 Total Charge           Charge          ....    0
 Multiplicity           Mult            ....    1
 Number of Electrons    NEL             ....  134
 Basis Dimension        Dim             ....  322

ORBITAL ENERGIES
----------------

  NO   OCC          E(Eh)            E(eV)
   0   2.0000     -88.966355     -2420.8976
   1   2.0000     -88.962720     -2420.7987
   2   2.0000     -10.326789      -281.0062
   3   2.0000     -10.321850      -280.8718
   4   2.0000     -10.318188      -280.7722
   5   2.0000     -10.317345      -280.7492
   6   2.0000     -10.304974      -280.4126
   7   2.0000     -10.304827      -280.4086
   8   2.0000     -10.294069      -280.1159
   9   2.0000     -10.293433      -280.0985
  10   2.0000     -10.292440      -280.0715
  11   2.0000     -10.292296      -280.0676
  12   2.0000     -10.291695      -280.0513
  13   2.0000     -10.288474      -279.9636
  14   2.0000     -10.282126      -279.7909
  15   2.0000     -10.268820      -279.4288
  16   2.0000      -8.080838      -219.8908
  17   2.0000      -8.077575      -219.8020
  18   2.0000      -6.039266      -164.3368
  19   2.0000      -6.036162      -164.2523
  20   2.0000      -6.035445      -164.2328
  21   2.0000      -6.032062      -164.1408
  22   2.0000      -6.031638      -164.1292
  23   2.0000      -6.028222      -164.0363
  24   2.0000      -1.008299       -27.4372
  25   2.0000      -0.983824       -26.7712
  26   2.0000      -0.914210       -24.8769
  27   2.0000      -0.911223       -24.7956
  28   2.0000      -0.872379       -23.7386
  29   2.0000      -0.851860       -23.1803
  30   2.0000      -0.845510       -23.0075
  31   2.0000      -0.816653       -22.2223
  32   2.0000      -0.786359       -21.3979
  33   2.0000      -0.770249       -20.9595
  34   2.0000      -0.709449       -19.3051
  35   2.0000      -0.704593       -19.1730
  36   2.0000      -0.691200       -18.8085
  37   2.0000      -0.651176       -17.7194
  38   2.0000      -0.641516       -17.4565
  39   2.0000      -0.622869       -16.9491
  40   2.0000      -0.598603       -16.2888
  41   2.0000      -0.571554       -15.5528
  42   2.0000      -0.569879       -15.5072
  43   2.0000      -0.556950       -15.1554
  44   2.0000      -0.541303       -14.7296
  45   2.0000      -0.529668       -14.4130
  46   2.0000      -0.519652       -14.1404
  47   2.0000      -0.513047       -13.9607
  48   2.0000      -0.505000       -13.7417
  49   2.0000      -0.492387       -13.3985
  50   2.0000      -0.485331       -13.2065
  51   2.0000      -0.478504       -13.0208
  52   2.0000      -0.473052       -12.8724
  53   2.0000      -0.464949       -12.6519
  54   2.0000      -0.462689       -12.5904
  55   2.0000      -0.450604       -12.2616
  56   2.0000      -0.448361       -12.2005
  57   2.0000      -0.441465       -12.0129
  58   2.0000      -0.435699       -11.8560
  59   2.0000      -0.424050       -11.5390
  60   2.0000      -0.420578       -11.4445
  61   2.0000      -0.414776       -11.2866
  62   2.0000      -0.406648       -11.0655
  63   2.0000      -0.344111        -9.3637
  64   2.0000      -0.327943        -8.9238
  65   2.0000      -0.324308        -8.8249
  66   2.0000      -0.297938        -8.1073
  67   0.0000       0.027841         0.7576
  68   0.0000       0.059832         1.6281
  69   0.0000       0.109629         2.9832
  70   0.0000       0.120038         3.2664
  71   0.0000       0.129351         3.5198

MULLIKEN ATOMIC CHARGES
-----------------------
   0 S :    0.109077
   1 C :   -0.123092
   2 C :   -0.106568
   3 C :    0.004115
   4 C :   -0.173825
   5 H :    0.027906
   6 C :    0.109939
   7 H :    0.046004
   8 H :    0.014663
   9 C :   -0.114518
  10 H :    0.042639
  11 H :    0.028978
  12 C :   -0.014492
  13 H :    0.024193
  14 H :    0.017850
  15 H :    0.021160
  16 S :    0.098986
  17 C :   -0.067925
  18 C :   -0.046427
  19 C :   -0.068427
  20 C :   -0.112628
  21 H :    0.013998
  22 C :    0.082944
  23 H :    0.032712
  24 H :    0.029621
  25 C :   -0.116886
  26 H :    0.029833
  27 H :    0.033803
  28 C :   -0.037299
  29 H :    0.027378
  30 H :    0.041914
  31 H :    0.032409
  32 H :    0.059726
  33 H :    0.052237
Sum of atomic charges:   -0.0000000

LOEWDIN ATOMIC CHARGES
----------------------
   0 S :    0.405061
   1 C :   -0.197769
   2 C :   -0.063456
   3 C :   -0.065418
   4 C :   -0.203134
   5 H :    0.031309
   6 C :   -0.032187
   7 H :    0.036853
   8 H :    0.031798
   9 C :   -0.044566
  10 H :    0.035433
  11 H :    0.025198
  12 C :   -0.066385
  13 H :    0.022080
  14 H :    0.024696
  15 H :    0.025191
  16 S :    0.413217
  17 C :   -0.182971
  18 C :   -0.074860
  19 C :   -0.051046
  20 C :   -0.208180
  21 H :    0.028255
  22 C :   -0.030988
  23 H :    0.034481
  24 H :    0.035966
  25 C :   -0.051405
  26 H :    0.024149
  27 H :    0.023385
  28 C :   -0.064210
  29 H :    0.024792
  30 H :    0.030102
  31 H :    0.025653
  32 H :    0.027974
  33 H :    0.030981

  Mayer bond orders larger than 0.100000
B(  0-S ,  1-C ) :   1.1599 B(  0-S ,  4-C ) :   1.1454 B(  1-C ,  2-C ) :   1.5830
B(  1-C , 32-H ) :   0.9618 B(  2-C ,  3-C ) :   1.2578 B(  2-C ,  6-C ) :   1.0195
B(  3-C ,  4-C ) :   1.5828 B(  3-C ,  5-H ) :   0.9779 B(  4-C , 20-C ) :   1.0224
B(  6-C ,  7-H ) :   0.9352 B(  6-C ,  8-H ) :   0.9366 B(  6-C ,  9-C ) :   1.0739
B(  9-C , 10-H ) :   0.9553 B(  9-C , 11-H ) :   0.9608 B(  9-C , 12-C ) :   1.0774
B( 12-C , 13-H ) :   0.9743 B( 12-C , 14-H ) :   0.9734 B( 12-C , 15-H ) :   0.9721
B( 16-S , 17-C ) :   1.1684 B( 16-S , 20-C ) :   1.1466 B( 17-C , 18-C ) :   1.5820
B( 17-C , 33-H ) :   0.9645 B( 18-C , 19-C ) :   1.2671 B( 18-C , 21-H ) :   0.9894
B( 19-C , 20-C ) :   1.5908 B( 19-C , 22-C ) :   1.0198 B( 22-C , 23-H ) :   0.9310
B( 22-C , 24-H ) :   0.9284 B( 22-C , 25-C ) :   1.0817 B( 25-C , 26-H ) :   0.9484
B( 25-C , 27-H ) :   0.9471 B( 25-C , 28-C ) :   1.0883 B( 28-C , 29-H ) :   0.9711
B( 28-C , 30-H ) :   0.9744 B( 28-C , 31-H ) :   0.9739

Dispersion correction           -0.013689632
FINAL SINGLE POINT ENERGY     -1339.871114422655

DIPOLE MOMENT
-------------
                                X             Y             Z
Electronic contribution:    -11.15528      14.59429     -18.49623
Nuclear contribution   :     11.24721     -15.04159      19.17204
                        -----------------------------------------
Total Dipole Moment    :      0.09193      -0.44730       0.67580
                        -----------------------------------------
Magnitude (a.u.)       :      0.81562
Magnitude (Debye)      :      2.07315

Rotational constants in cm-1:     0.016220     0.008687     0.007225
Rotational constants in MHz :   486.268208   260.426288   216.599584

                             ****ORCA TERMINATED NORMALLY****
TOTAL RUN TIME: 0 days 0 hours 0 minutes 34 seconds 885 msec
