                         Program Version 4.2.1 -  RELEASE  -
|  1> ! wB97X-D3 SP def2-SVP
|  2> %pal
|  3> nprocs 16
|  4> end
|  5>
|  6> * xyz 0 1
|  7> S 	 46.3322 	 3.26265 	 90.9547
|  8> C 	 45.7079 	 4.54852 	 89.9487
|  9> C 	 45.6413 	 4.04365 	 88.6529
| 10> C 	 46.2967 	 2.76249 	 88.4842
| 11> C 	 46.8051 	 2.22861 	 89.6301
| 12> H 	 46.42 	 2.15276 	 87.6634
| 13> C 	 45.2112 	 4.85461 	 87.4441
| 14> H 	 45.3046 	 4.33537 	 86.4928
| 15> H 	 46.0338 	 5.66526 	 87.2789
| 16> C 	 43.7674 	 5.3749 	 87.5449
| 17> H 	 43.1357 	 4.55426 	 87.6451
| 18> H 	 43.6976 	 5.90537 	 88.4325
| 19> C 	 43.3245 	 6.4251 	 86.4208
| 20> H 	 43.264 	 5.92262 	 85.4699
| 21> H 	 42.3569 	 6.87891 	 86.5388
| 22> H 	 43.9685 	 7.30393 	 86.4985
| 23> S 	 47.2907 	 0.0190502 	 91.2644
| 24> C 	 48.3094 	 -1.20651 	 90.5895
| 25> C 	 48.9334 	 -0.82357 	 89.4423
| 26> C 	 48.4908 	 0.430466 	 88.9857
| 27> C 	 47.4893 	 0.962357 	 89.8192
| 28> H 	 49.802 	 -1.34947 	 88.9405
| 29> C 	 49.1284 	 0.985699 	 87.7583
| 30> H 	 48.3096 	 1.34945 	 87.1525
| 31> H 	 49.6538 	 0.217625 	 87.2203
| 32> C 	 50.0453 	 2.20472 	 88.0107
| 33> H 	 50.7363 	 2.10873 	 88.8137
| 34> H 	 49.5196 	 3.11651 	 88.2588
| 35> C 	 50.9274 	 2.40881 	 86.753
| 36> H 	 51.3119 	 1.47041 	 86.3557
| 37> H 	 51.7021 	 3.13791 	 87.0608
| 38> H 	 50.3317 	 2.93115 	 85.9721
| 39> H 	 45.2751 	 5.45867 	 90.3035
| 40> H 	 48.627 	 -2.07841 	 91.1908
| 41> *
| 42>
| 43>                          ****END OF INPUT****

CARTESIAN COORDINATES (ANGSTROEM)
---------------------------------
  S     46.332200    3.262650   90.954700
  C     45.707900    4.548520   89.948700
  C     45.641300    4.043650   88.652900
  C     46.296700    2.762490   88.484200
  C     46.805100    2.228610   89.630100
  H     46.420000    2.152760   87.663400
  C     45.211200    4.854610   87.444100
  H     45.304600    4.335370   86.492800
  H     46.033800    5.665260   87.278900
  C     43.767400    5.374900   87.544900
  H     43.135700    4.554260   87.645100
  H     43.697600    5.905370   88.432500
  C     43.324500    6.425100   86.420800
  H     43.264000    5.922620   85.469900
  H     42.356900    6.878910   86.538800
  H     43.968500    7.303930   86.498500
  S     47.290700    0.019050   91.264400
  C     48.309400   -1.206510   90.589500
  C     48.933400   -0.823570   89.442300
  C     48.490800    0.430466   88.985700
  C     47.489300    0.962357   89.819200
  H     49.802000   -1.349470   88.940500
  C     49.128400    0.985699   87.758300
  H     48.309600    1.349450   87.152500
  H     49.653800    0.217625   87.220300
  C     50.045300    2.204720   88.010700
  H     50.736300    2.108730   88.813700
  H     49.519600    3.116510   88.258800
  C     50.927400    2.408810   86.753000
  H     51.311900    1.470410   86.355700
  H     51.702100    3.137910   87.060800
  H     50.331700    2.931150   85.972100
  H     45.275100    5.458670   90.303500
  H     48.627000   -2.078410   91.190800

 Total Charge           Charge          ....    0
 Multiplicity           Mult            ....    1
 Number of Electrons    NEL             ....  134
 Basis Dimension        Dim             ....  322

ORBITAL ENERGIES
----------------

  NO   OCC          E(Eh)            E(eV)
   0   2.0000     -88.971241     -2421.0305
   1   2.0000     -88.960784     -2420.7460
   2   2.0000     -10.327215      -281.0178
   3   2.0000     -10.326551      -280.9997
   4   2.0000     -10.316840      -280.7355
   5   2.0000     -10.315401      -280.6963
   6   2.0000     -10.306332      -280.4496
   7   2.0000     -10.299922      -280.2751
   8   2.0000     -10.296471      -280.1812
   9   2.0000     -10.294134      -280.1176
  10   2.0000     -10.290000      -280.0051
  11   2.0000     -10.286039      -279.8973
  12   2.0000     -10.280802      -279.7548
  13   2.0000     -10.280614      -279.7497
  14   2.0000     -10.279894      -279.7301
  15   2.0000     -10.279845      -279.7288
  16   2.0000      -8.086377      -220.0415
  17   2.0000      -8.075896      -219.7563
  18   2.0000      -6.044795      -164.4872
  19   2.0000      -6.040995      -164.3838
  20   2.0000      -6.037058      -164.2767
  21   2.0000      -6.034498      -164.2071
  22   2.0000      -6.030288      -164.0925
  23   2.0000      -6.026598      -163.9921
  24   2.0000      -1.012243       -27.5445
  25   2.0000      -0.988724       -26.9046
  26   2.0000      -0.913469       -24.8568
  27   2.0000      -0.906528       -24.6679
  28   2.0000      -0.870571       -23.6894
  29   2.0000      -0.857183       -23.3251
  30   2.0000      -0.842247       -22.9187
  31   2.0000      -0.816142       -22.2084
  32   2.0000      -0.781321       -21.2608
  33   2.0000      -0.769013       -20.9259
  34   2.0000      -0.712022       -19.3751
  35   2.0000      -0.707009       -19.2387
  36   2.0000      -0.692280       -18.8379
  37   2.0000      -0.665593       -18.1117
  38   2.0000      -0.646776       -17.5997
  39   2.0000      -0.615256       -16.7420
  40   2.0000      -0.598516       -16.2864
  41   2.0000      -0.572656       -15.5828
  42   2.0000      -0.567029       -15.4296
  43   2.0000      -0.557314       -15.1653
  44   2.0000      -0.530049       -14.4234
  45   2.0000      -0.523120       -14.2348
  46   2.0000      -0.514406       -13.9977
  47   2.0000      -0.510469       -13.8906
  48   2.0000      -0.507386       -13.8067
  49   2.0000      -0.500649       -13.6234
  50   2.0000      -0.490515       -13.3476
  51   2.0000      -0.489260       -13.3134
  52   2.0000      -0.479463       -13.0468
  53   2.0000      -0.465205       -12.6589
  54   2.0000      -0.456988       -12.4353
  55   2.0000      -0.454388       -12.3645
  56   2.0000      -0.448026       -12.1914
  57   2.0000      -0.441586       -12.0162
  58   2.0000      -0.428607       -11.6630
  59   2.0000      -0.423089       -11.5128
  60   2.0000      -0.418638       -11.3917
  61   2.0000      -0.414113       -11.2686
  62   2.0000      -0.408941       -11.1279
  63   2.0000      -0.357887        -9.7386
  64   2.0000      -0.336182        -9.1480
  65   2.0000      -0.324127        -8.8200
  66   2.0000      -0.285170        -7.7599
  67   0.0000       0.023093         0.6284
  68   0.0000       0.073417         1.9978
  69   0.0000       0.104268         2.8373
  70   0.0000       0.121683         3.3112
  71   0.0000       0.139629         3.7995

MULLIKEN ATOMIC CHARGES
-----------------------
   0 S :    0.084815
   1 C :   -0.108396
   2 C :   -0.062251
   3 C :    0.030365
   4 C :   -0.133291
   5 H :   -0.024119
   6 C :    0.017145
   7 H :    0.014478
   8 H :    0.049704
   9 C :   -0.042514
  10 H :    0.022118
  11 H :    0.005538
  12 C :   -0.045090
  13 H :    0.034904
  14 H :    0.025179
  15 H :    0.032609
  16 S :    0.126935
  17 C :   -0.096099
  18 C :   -0.043463
  19 C :   -0.061362
  20 C :   -0.143520
  21 H :    0.039882
  22 C :    0.095719
  23 H :    0.015315
  24 H :    0.011385
  25 C :   -0.060757
  26 H :    0.019535
  27 H :    0.037839
  28 C :   -0.067553
  29 H :    0.034700
  30 H :    0.039159
  31 H :    0.032132
  32 H :    0.052136
  33 H :    0.066822
Sum of atomic charges:   -0.0000000

LOEWDIN ATOMIC CHARGES
----------------------
   0 S :    0.395989
   1 C :   -0.194200
   2 C :   -0.059018
   3 C :   -0.067017
   4 C :   -0.182267
   5 H :    0.016851
   6 C :   -0.040623
   7 H :    0.023858
   8 H :    0.042286
   9 C :   -0.028630
  10 H :    0.018689
  11 H :    0.011176
  12 C :   -0.064336
  13 H :    0.022759
  14 H :    0.024396
  15 H :    0.027967
  16 S :    0.426470
  17 C :   -0.194272
  18 C :   -0.078529
  19 C :   -0.051553
  20 C :   -0.210322
  21 H :    0.044064
  22 C :   -0.026878
  23 H :    0.031474
  24 H :    0.026571
  25 C :   -0.032743
  26 H :    0.017692
  27 H :    0.027507
  28 C :   -0.066279
  29 H :    0.021276
  30 H :    0.029951
  31 H :    0.025906
  32 H :    0.027582
  33 H :    0.034203

  Mayer bond orders larger than 0.100000
B(  0-S ,  1-C ) :   1.1344 B(  0-S ,  4-C ) :   1.1407 B(  1-C ,  2-C ) :   1.5887
B(  1-C , 32-H ) :   0.9777 B(  2-C ,  3-C ) :   1.2170 B(  2-C ,  6-C ) :   1.0234
B(  3-C ,  4-C ) :   1.5792 B(  3-C ,  5-H ) :   1.0119 B(  4-C , 20-C ) :   1.0749
B(  6-C ,  7-H ) :   0.9498 B(  6-C ,  8-H ) :   0.9444 B(  6-C ,  9-C ) :   1.0426
B(  9-C , 10-H ) :   0.9602 B(  9-C , 11-H ) :   0.9623 B(  9-C , 12-C ) :   1.0740
B( 12-C , 13-H ) :   0.9791 B( 12-C , 14-H ) :   0.9763 B( 12-C , 15-H ) :   0.9761
B( 16-S , 17-C ) :   1.1653 B( 16-S , 20-C ) :   1.1443 B( 17-C , 18-C ) :   1.5824
B( 17-C , 33-H ) :   0.9606 B( 18-C , 19-C ) :   1.2954 B( 18-C , 21-H ) :   0.9787
B( 19-C , 20-C ) :   1.5414 B( 19-C , 22-C ) :   1.0498 B( 22-C , 23-H ) :   0.9186
B( 22-C , 24-H ) :   0.9401 B( 22-C , 25-C ) :   1.0564 B( 25-C , 26-H ) :   0.9634
B( 25-C , 27-H ) :   0.9506 B( 25-C , 28-C ) :   1.0821 B( 28-C , 29-H ) :   0.9762
B( 28-C , 30-H ) :   0.9763 B( 28-C , 31-H ) :   0.9765

Dispersion correction           -0.013914420
FINAL SINGLE POINT ENERGY     -1339.864658426372

DIPOLE MOMENT
-------------
                                X             Y             Z
Electronic contribution:     -1.90596     -15.72101      24.93922
Nuclear contribution   :      2.14915      15.84727     -25.46282
                        -----------------------------------------
Total Dipole Moment    :      0.24319       0.12627      -0.52360
                        -----------------------------------------
Magnitude (a.u.)       :      0.59097
Magnitude (Debye)      :      1.50211

Rotational constants in cm-1:     0.019706     0.007926     0.006277
Rotational constants in MHz :   590.769859   237.609555   188.175132

                             ****ORCA TERMINATED NORMALLY****
TOTAL RUN TIME: 0 days 0 hours 0 minutes 29 seconds 679 msec
