                         Program Version 4.2.1 -  RELEASE  -
|  1> ! wB97X-D3 SP def2-SVP
|  2> %pal
|  3> nprocs 16
|  4> end
|  5>
|  6> * xyz 0 1
|  7> S 	 -74.283 	 50.6826 	 138.005
|  8> C 	 -73.2627 	 51.8675 	 138.952
|  9> C 	 -73.7117 	 53.1727 	 138.822
| 10> C 	 -74.8925 	 53.2908 	 138.045
| 11> C 	 -75.2557 	 52.0504 	 137.543
| 12> H 	 -75.5272 	 54.0995 	 137.991
| 13> C 	 -73.1668 	 54.4208 	 139.57
| 14> H 	 -73.0634 	 55.2488 	 138.846
| 15> H 	 -72.1341 	 54.2501 	 139.922
| 16> C 	 -73.9918 	 54.7621 	 140.869
| 17> H 	 -74.997 	 54.9379 	 140.387
| 18> H 	 -74.0565 	 54.0276 	 141.583
| 19> C 	 -73.4409 	 55.9414 	 141.683
| 20> H 	 -72.5508 	 55.64 	 142.336
| 21> H 	 -73.0538 	 56.6911 	 141.051
| 22> H 	 -74.2745 	 56.2963 	 142.364
| 23> S 	 -76.727 	 51.1625 	 135.392
| 24> C 	 -78.4735 	 51.0014 	 135.525
| 25> C 	 -78.8963 	 51.6612 	 136.607
| 26> C 	 -77.8375 	 52.1001 	 137.507
| 27> C 	 -76.6022 	 51.8109 	 137.045
| 28> H 	 -79.9667 	 51.7018 	 136.751
| 29> C 	 -78.191 	 52.7508 	 138.83
| 30> H 	 -79.2733 	 52.9408 	 138.829
| 31> H 	 -77.6752 	 53.7586 	 138.872
| 32> C 	 -77.694 	 52.1199 	 140.108
| 33> H 	 -78.0777 	 52.6716 	 140.974
| 34> H 	 -76.5945 	 52.0736 	 140.225
| 35> C 	 -78.1608 	 50.6289 	 140.2
| 36> H 	 -77.7916 	 50.0884 	 139.308
| 37> H 	 -79.2282 	 50.4606 	 140.04
| 38> H 	 -77.793 	 50.2534 	 141.153
| 39> H 	 -72.3697 	 51.6549 	 139.48
| 40> H 	 -79.1308 	 50.4453 	 134.902
| 41> *
| 42>
| 43>                          ****END OF INPUT****

CARTESIAN COORDINATES (ANGSTROEM)
---------------------------------
  S    -74.283000   50.682600  138.005000
  C    -73.262700   51.867500  138.952000
  C    -73.711700   53.172700  138.822000
  C    -74.892500   53.290800  138.045000
  C    -75.255700   52.050400  137.543000
  H    -75.527200   54.099500  137.991000
  C    -73.166800   54.420800  139.570000
  H    -73.063400   55.248800  138.846000
  H    -72.134100   54.250100  139.922000
  C    -73.991800   54.762100  140.869000
  H    -74.997000   54.937900  140.387000
  H    -74.056500   54.027600  141.583000
  C    -73.440900   55.941400  141.683000
  H    -72.550800   55.640000  142.336000
  H    -73.053800   56.691100  141.051000
  H    -74.274500   56.296300  142.364000
  S    -76.727000   51.162500  135.392000
  C    -78.473500   51.001400  135.525000
  C    -78.896300   51.661200  136.607000
  C    -77.837500   52.100100  137.507000
  C    -76.602200   51.810900  137.045000
  H    -79.966700   51.701800  136.751000
  C    -78.191000   52.750800  138.830000
  H    -79.273300   52.940800  138.829000
  H    -77.675200   53.758600  138.872000
  C    -77.694000   52.119900  140.108000
  H    -78.077700   52.671600  140.974000
  H    -76.594500   52.073600  140.225000
  C    -78.160800   50.628900  140.200000
  H    -77.791600   50.088400  139.308000
  H    -79.228200   50.460600  140.040000
  H    -77.793000   50.253400  141.153000
  H    -72.369700   51.654900  139.480000
  H    -79.130800   50.445300  134.902000

 Total Charge           Charge          ....    0
 Multiplicity           Mult            ....    1
 Number of Electrons    NEL             ....  134
 Basis Dimension        Dim             ....  322

ORBITAL ENERGIES
----------------

  NO   OCC          E(Eh)            E(eV)
   0   2.0000     -88.976037     -2421.1611
   1   2.0000     -88.955112     -2420.5917
   2   2.0000     -10.329552      -281.0814
   3   2.0000     -10.321216      -280.8546
   4   2.0000     -10.320658      -280.8394
   5   2.0000     -10.309990      -280.5491
   6   2.0000     -10.307370      -280.4778
   7   2.0000     -10.303015      -280.3593
   8   2.0000     -10.301876      -280.3283
   9   2.0000     -10.293927      -280.1120
  10   2.0000     -10.292820      -280.0819
  11   2.0000     -10.291013      -280.0327
  12   2.0000     -10.289022      -279.9785
  13   2.0000     -10.288304      -279.9590
  14   2.0000     -10.285128      -279.8726
  15   2.0000     -10.270302      -279.4691
  16   2.0000      -8.089320      -220.1216
  17   2.0000      -8.070019      -219.5964
  18   2.0000      -6.047807      -164.5692
  19   2.0000      -6.044227      -164.4718
  20   2.0000      -6.039956      -164.3556
  21   2.0000      -6.028707      -164.0494
  22   2.0000      -6.024611      -163.9380
  23   2.0000      -6.020468      -163.8253
  24   2.0000      -1.006858       -27.3980
  25   2.0000      -0.981785       -26.7157
  26   2.0000      -0.908890       -24.7321
  27   2.0000      -0.906198       -24.6589
  28   2.0000      -0.870949       -23.6997
  29   2.0000      -0.854162       -23.2429
  30   2.0000      -0.837062       -22.7776
  31   2.0000      -0.815954       -22.2032
  32   2.0000      -0.781272       -21.2595
  33   2.0000      -0.772513       -21.0211
  34   2.0000      -0.711004       -19.3474
  35   2.0000      -0.701841       -19.0981
  36   2.0000      -0.687114       -18.6973
  37   2.0000      -0.662140       -18.0178
  38   2.0000      -0.646316       -17.5871
  39   2.0000      -0.623164       -16.9572
  40   2.0000      -0.585697       -15.9376
  41   2.0000      -0.571418       -15.5491
  42   2.0000      -0.561195       -15.2709
  43   2.0000      -0.550411       -14.9774
  44   2.0000      -0.547123       -14.8880
  45   2.0000      -0.532395       -14.4872
  46   2.0000      -0.515889       -14.0380
  47   2.0000      -0.507619       -13.8130
  48   2.0000      -0.502945       -13.6858
  49   2.0000      -0.497622       -13.5410
  50   2.0000      -0.490439       -13.3455
  51   2.0000      -0.483353       -13.1527
  52   2.0000      -0.471769       -12.8375
  53   2.0000      -0.466090       -12.6829
  54   2.0000      -0.462265       -12.5789
  55   2.0000      -0.448699       -12.2097
  56   2.0000      -0.443959       -12.0808
  57   2.0000      -0.441182       -12.0052
  58   2.0000      -0.430272       -11.7083
  59   2.0000      -0.425656       -11.5827
  60   2.0000      -0.410882       -11.1807
  61   2.0000      -0.407410       -11.0862
  62   2.0000      -0.404585       -11.0093
  63   2.0000      -0.341465        -9.2917
  64   2.0000      -0.335709        -9.1351
  65   2.0000      -0.323456        -8.8017
  66   2.0000      -0.303283        -8.2527
  67   0.0000       0.027675         0.7531
  68   0.0000       0.067008         1.8234
  69   0.0000       0.098592         2.6828
  70   0.0000       0.109916         2.9910
  71   0.0000       0.126240         3.4352

MULLIKEN ATOMIC CHARGES
-----------------------
   0 S :    0.127836
   1 C :   -0.105941
   2 C :   -0.071771
   3 C :    0.049979
   4 C :   -0.121602
   5 H :   -0.009929
   6 C :    0.030692
   7 H :    0.043042
   8 H :    0.014276
   9 C :   -0.058734
  10 H :    0.029353
  11 H :    0.021625
  12 C :   -0.064615
  13 H :    0.042813
  14 H :    0.023444
  15 H :    0.054038
  16 S :    0.075921
  17 C :   -0.068831
  18 C :   -0.039994
  19 C :   -0.036659
  20 C :   -0.177436
  21 H :    0.014959
  22 C :    0.064278
  23 H :    0.023493
  24 H :    0.031516
  25 C :   -0.074986
  26 H :    0.030909
  27 H :    0.047531
  28 C :   -0.065616
  29 H :    0.039635
  30 H :    0.019503
  31 H :    0.038442
  32 H :    0.029898
  33 H :    0.042934
Sum of atomic charges:    0.0000000

LOEWDIN ATOMIC CHARGES
----------------------
   0 S :    0.397239
   1 C :   -0.170699
   2 C :   -0.054257
   3 C :   -0.043183
   4 C :   -0.192526
   5 H :    0.019778
   6 C :   -0.032961
   7 H :    0.033691
   8 H :    0.024346
   9 C :   -0.035880
  10 H :    0.026368
  11 H :    0.015013
  12 C :   -0.068580
  13 H :    0.033794
  14 H :    0.014646
  15 H :    0.038518
  16 S :    0.368123
  17 C :   -0.169927
  18 C :   -0.075069
  19 C :   -0.061504
  20 C :   -0.188870
  21 H :    0.030689
  22 C :   -0.037452
  23 H :    0.031732
  24 H :    0.036099
  25 C :   -0.042064
  26 H :    0.025162
  27 H :    0.029994
  28 C :   -0.072268
  29 H :    0.028540
  30 H :    0.020081
  31 H :    0.024145
  32 H :    0.019990
  33 H :    0.027293

  Mayer bond orders larger than 0.100000
B(  0-S ,  1-C ) :   1.1123 B(  0-S ,  4-C ) :   1.1626 B(  1-C ,  2-C ) :   1.6452
B(  1-C , 32-H ) :   0.9694 B(  2-C ,  3-C ) :   1.2061 B(  2-C ,  6-C ) :   1.0259
B(  3-C ,  4-C ) :   1.5789 B(  3-C ,  5-H ) :   1.0136 B(  4-C , 20-C ) :   1.0051
B(  6-C ,  7-H ) :   0.9453 B(  6-C ,  8-H ) :   0.9428 B(  6-C ,  9-C ) :   1.0481
B(  9-C , 10-H ) :   0.9597 B(  9-C , 11-H ) :   0.9596 B(  9-C , 12-C ) :   1.0753
B( 12-C , 13-H ) :   0.9743 B( 12-C , 14-H ) :   0.9769 B( 12-C , 15-H ) :   0.9727
B( 16-S , 17-C ) :   1.1261 B( 16-S , 20-C ) :   1.1146 B( 17-C , 18-C ) :   1.6741
B( 17-C , 33-H ) :   0.9683 B( 18-C , 19-C ) :   1.1798 B( 18-C , 21-H ) :   0.9898
B( 19-C , 20-C ) :   1.6611 B( 19-C , 22-C ) :   1.0414 B( 22-C , 23-H ) :   0.9349
B( 22-C , 24-H ) :   0.9284 B( 22-C , 25-C ) :   1.0812 B( 25-C , 26-H ) :   0.9536
B( 25-C , 27-H ) :   0.9510 B( 25-C , 28-C ) :   1.0703 B( 28-C , 29-H ) :   0.9704
B( 28-C , 30-H ) :   0.9766 B( 28-C , 31-H ) :   0.9769

Dispersion correction           -0.016227520
FINAL SINGLE POINT ENERGY     -1339.859328889138

DIPOLE MOMENT
-------------
                                X             Y             Z
Electronic contribution:      1.97525     -14.99823     -24.51588
Nuclear contribution   :     -2.11809      15.46152      25.16761
                        -----------------------------------------
Total Dipole Moment    :     -0.14283       0.46330       0.65173
                        -----------------------------------------
Magnitude (a.u.)       :      0.81228
Magnitude (Debye)      :      2.06465

Rotational constants in cm-1:     0.021248     0.008873     0.007619
Rotational constants in MHz :   636.988536   265.993562   228.412856

                             ****ORCA TERMINATED NORMALLY****
TOTAL RUN TIME: 0 days 0 hours 0 minutes 37 seconds 635 msec
