                         Program Version 4.2.1 -  RELEASE  -
|  1> ! wB97X-D3 SP def2-SVP
|  2> %pal
|  3> nprocs 16
|  4> end
|  5>
|  6> * xyz 0 1
|  7> S 	 41.1935 	 22.4942 	 81.9686
|  8> C 	 39.7887 	 23.3719 	 82.6545
|  9> C 	 39.9666 	 23.7185 	 83.9475
| 10> C 	 41.3386 	 23.4236 	 84.3687
| 11> C 	 42.0841 	 22.7632 	 83.4338
| 12> H 	 41.7648 	 23.7396 	 85.2823
| 13> C 	 38.7867 	 24.2354 	 84.7539
| 14> H 	 39.0252 	 23.9506 	 85.7854
| 15> H 	 37.817 	 23.6833 	 84.4299
| 16> C 	 38.5695 	 25.7391 	 84.8418
| 17> H 	 39.489 	 26.2523 	 85.1204
| 18> H 	 38.2268 	 26.0771 	 83.8315
| 19> C 	 37.3858 	 26.0122 	 85.7467
| 20> H 	 37.0813 	 27.1129 	 85.9441
| 21> H 	 36.5473 	 25.5005 	 85.3557
| 22> H 	 37.5462 	 25.7087 	 86.8121
| 23> S 	 44.3583 	 22.1952 	 82.0166
| 24> C 	 45.4597 	 21.0724 	 82.7452
| 25> C 	 45.3817 	 21.0697 	 84.1322
| 26> C 	 44.2304 	 21.7954 	 84.5777
| 27> C 	 43.4555 	 22.2494 	 83.4841
| 28> H 	 46.154 	 20.6198 	 84.6518
| 29> C 	 43.7897 	 21.6403 	 86.0383
| 30> H 	 43.9175 	 20.5937 	 86.4198
| 31> H 	 42.7049 	 21.7776 	 86.1309
| 32> C 	 44.3424 	 22.5755 	 87.0452
| 33> H 	 44.0321 	 23.6595 	 86.9355
| 34> H 	 45.4273 	 22.5981 	 87.0169
| 35> C 	 43.9391 	 22.0767 	 88.4157
| 36> H 	 42.8584 	 21.9411 	 88.5773
| 37> H 	 44.2941 	 22.7665 	 89.2035
| 38> H 	 44.4175 	 21.0562 	 88.6007
| 39> H 	 38.8311 	 23.3426 	 82.2778
| 40> H 	 46.3085 	 20.5949 	 82.3322
| 41> *
| 42>
| 43>                          ****END OF INPUT****

CARTESIAN COORDINATES (ANGSTROEM)
---------------------------------
  S     41.193500   22.494200   81.968600
  C     39.788700   23.371900   82.654500
  C     39.966600   23.718500   83.947500
  C     41.338600   23.423600   84.368700
  C     42.084100   22.763200   83.433800
  H     41.764800   23.739600   85.282300
  C     38.786700   24.235400   84.753900
  H     39.025200   23.950600   85.785400
  H     37.817000   23.683300   84.429900
  C     38.569500   25.739100   84.841800
  H     39.489000   26.252300   85.120400
  H     38.226800   26.077100   83.831500
  C     37.385800   26.012200   85.746700
  H     37.081300   27.112900   85.944100
  H     36.547300   25.500500   85.355700
  H     37.546200   25.708700   86.812100
  S     44.358300   22.195200   82.016600
  C     45.459700   21.072400   82.745200
  C     45.381700   21.069700   84.132200
  C     44.230400   21.795400   84.577700
  C     43.455500   22.249400   83.484100
  H     46.154000   20.619800   84.651800
  C     43.789700   21.640300   86.038300
  H     43.917500   20.593700   86.419800
  H     42.704900   21.777600   86.130900
  C     44.342400   22.575500   87.045200
  H     44.032100   23.659500   86.935500
  H     45.427300   22.598100   87.016900
  C     43.939100   22.076700   88.415700
  H     42.858400   21.941100   88.577300
  H     44.294100   22.766500   89.203500
  H     44.417500   21.056200   88.600700
  H     38.831100   23.342600   82.277800
  H     46.308500   20.594900   82.332200

 Total Charge           Charge          ....    0
 Multiplicity           Mult            ....    1
 Number of Electrons    NEL             ....  134
 Basis Dimension        Dim             ....  322

ORBITAL ENERGIES
----------------

  NO   OCC          E(Eh)            E(eV)
   0   2.0000     -88.970416     -2421.0081
   1   2.0000     -88.963768     -2420.8272
   2   2.0000     -10.330797      -281.1153
   3   2.0000     -10.330622      -281.1105
   4   2.0000     -10.311872      -280.6003
   5   2.0000     -10.307974      -280.4942
   6   2.0000     -10.304425      -280.3977
   7   2.0000     -10.302349      -280.3412
   8   2.0000     -10.301726      -280.3242
   9   2.0000     -10.294426      -280.1256
  10   2.0000     -10.291947      -280.0581
  11   2.0000     -10.291261      -280.0395
  12   2.0000     -10.290321      -280.0139
  13   2.0000     -10.286961      -279.9224
  14   2.0000     -10.284844      -279.8648
  15   2.0000     -10.284662      -279.8599
  16   2.0000      -8.085674      -220.0224
  17   2.0000      -8.078314      -219.8221
  18   2.0000      -6.044117      -164.4688
  19   2.0000      -6.040282      -164.3644
  20   2.0000      -6.036951      -164.2738
  21   2.0000      -6.036282      -164.2556
  22   2.0000      -6.032965      -164.1653
  23   2.0000      -6.028806      -164.0522
  24   2.0000      -1.010688       -27.5022
  25   2.0000      -0.985253       -26.8101
  26   2.0000      -0.919347       -25.0167
  27   2.0000      -0.916923       -24.9507
  28   2.0000      -0.874596       -23.7990
  29   2.0000      -0.854496       -23.2520
  30   2.0000      -0.842484       -22.9251
  31   2.0000      -0.819017       -22.2866
  32   2.0000      -0.779825       -21.2201
  33   2.0000      -0.769367       -20.9355
  34   2.0000      -0.708091       -19.2681
  35   2.0000      -0.697788       -18.9878
  36   2.0000      -0.692514       -18.8443
  37   2.0000      -0.664952       -18.0943
  38   2.0000      -0.641791       -17.4640
  39   2.0000      -0.623679       -16.9712
  40   2.0000      -0.600946       -16.3526
  41   2.0000      -0.574655       -15.6372
  42   2.0000      -0.573981       -15.6188
  43   2.0000      -0.565156       -15.3787
  44   2.0000      -0.530400       -14.4329
  45   2.0000      -0.522636       -14.2216
  46   2.0000      -0.513462       -13.9720
  47   2.0000      -0.507893       -13.8205
  48   2.0000      -0.502879       -13.6840
  49   2.0000      -0.501695       -13.6518
  50   2.0000      -0.492272       -13.3954
  51   2.0000      -0.479839       -13.0571
  52   2.0000      -0.464255       -12.6330
  53   2.0000      -0.463249       -12.6057
  54   2.0000      -0.458574       -12.4784
  55   2.0000      -0.458228       -12.4690
  56   2.0000      -0.446634       -12.1535
  57   2.0000      -0.441718       -12.0198
  58   2.0000      -0.438312       -11.9271
  59   2.0000      -0.425793       -11.5864
  60   2.0000      -0.420023       -11.4294
  61   2.0000      -0.412520       -11.2252
  62   2.0000      -0.411348       -11.1934
  63   2.0000      -0.355326        -9.6689
  64   2.0000      -0.333822        -9.0838
  65   2.0000      -0.328892        -8.9496
  66   2.0000      -0.287584        -7.8256
  67   0.0000       0.020056         0.5457
  68   0.0000       0.079857         2.1730
  69   0.0000       0.100045         2.7224
  70   0.0000       0.106032         2.8853
  71   0.0000       0.129997         3.5374

MULLIKEN ATOMIC CHARGES
-----------------------
   0 S :    0.089845
   1 C :   -0.072710
   2 C :   -0.079380
   3 C :    0.027884
   4 C :   -0.111052
   5 H :   -0.013993
   6 C :   -0.006602
   7 H :    0.018448
   8 H :    0.048685
   9 C :   -0.031178
  10 H :    0.036377
  11 H :    0.029734
  12 C :   -0.070072
  13 H :    0.045005
  14 H :    0.023476
  15 H :    0.028287
  16 S :    0.128727
  17 C :   -0.070458
  18 C :   -0.028445
  19 C :    0.036349
  20 C :   -0.144484
  21 H :   -0.004042
  22 C :   -0.010127
  23 H :    0.033763
  24 H :    0.015924
  25 C :   -0.057785
  26 H :    0.038693
  27 H :    0.021870
  28 C :   -0.082019
  29 H :    0.033210
  30 H :    0.038390
  31 H :    0.036330
  32 H :    0.014351
  33 H :    0.036999
Sum of atomic charges:   -0.0000000

LOEWDIN ATOMIC CHARGES
----------------------
   0 S :    0.385009
   1 C :   -0.171605
   2 C :   -0.056611
   3 C :   -0.066395
   4 C :   -0.182812
   5 H :    0.020792
   6 C :   -0.036842
   7 H :    0.029215
   8 H :    0.042247
   9 C :   -0.041146
  10 H :    0.026143
  11 H :    0.028056
  12 C :   -0.074181
  13 H :    0.035619
  14 H :    0.018537
  15 H :    0.024819
  16 S :    0.425309
  17 C :   -0.185815
  18 C :   -0.054651
  19 C :   -0.052194
  20 C :   -0.201455
  21 H :    0.021120
  22 C :   -0.041511
  23 H :    0.035723
  24 H :    0.029270
  25 C :   -0.048599
  26 H :    0.028572
  27 H :    0.020978
  28 C :   -0.070882
  29 H :    0.023529
  30 H :    0.027258
  31 H :    0.030631
  32 H :    0.010517
  33 H :    0.021355

  Mayer bond orders larger than 0.100000
B(  0-S ,  1-C ) :   1.1030 B(  0-S ,  4-C ) :   1.1400 B(  1-C ,  2-C ) :   1.6760
B(  1-C , 32-H ) :   0.9692 B(  2-C ,  3-C ) :   1.1985 B(  2-C ,  6-C ) :   1.0129
B(  3-C ,  4-C ) :   1.6012 B(  3-C ,  5-H ) :   0.9979 B(  4-C , 20-C ) :   1.0551
B(  6-C ,  7-H ) :   0.9378 B(  6-C ,  8-H ) :   0.9452 B(  6-C ,  9-C ) :   1.0649
B(  9-C , 10-H ) :   0.9550 B(  9-C , 11-H ) :   0.9521 B(  9-C , 12-C ) :   1.0749
B( 12-C , 13-H ) :   0.9734 B( 12-C , 14-H ) :   0.9725 B( 12-C , 15-H ) :   0.9739
B( 16-S , 17-C ) :   1.1421 B( 16-S , 20-C ) :   1.1571 B( 17-C , 18-C ) :   1.6226
B( 17-C , 33-H ) :   0.9693 B( 18-C , 19-C ) :   1.2323 B( 18-C , 21-H ) :   1.0036
B( 19-C , 20-C ) :   1.5560 B( 19-C , 22-C ) :   1.0283 B( 22-C , 23-H ) :   0.9513
B( 22-C , 24-H ) :   0.9349 B( 22-C , 25-C ) :   1.0631 B( 25-C , 26-H ) :   0.9465
B( 25-C , 27-H ) :   0.9502 B( 25-C , 28-C ) :   1.0842 B( 28-C , 29-H ) :   0.9740
B( 28-C , 30-H ) :   0.9723 B( 28-C , 31-H ) :   0.9713

Dispersion correction           -0.013257443
FINAL SINGLE POINT ENERGY     -1339.862206198441

DIPOLE MOMENT
-------------
                                X             Y             Z
Electronic contribution:     12.05577      -9.12323     -28.32994
Nuclear contribution   :    -12.12568       9.14022      29.01490
                        -----------------------------------------
Total Dipole Moment    :     -0.06990       0.01699       0.68495
                        -----------------------------------------
Magnitude (a.u.)       :      0.68872
Magnitude (Debye)      :      1.75059

Rotational constants in cm-1:     0.017791     0.008371     0.005942
Rotational constants in MHz :   533.362213   250.964309   178.129601

                             ****ORCA TERMINATED NORMALLY****
TOTAL RUN TIME: 0 days 0 hours 0 minutes 29 seconds 295 msec
