                         Program Version 4.2.1 -  RELEASE  -
|  1> ! wB97X-D3 SP def2-SVP
|  2> %pal
|  3> nprocs 16
|  4> end
|  5>
|  6> * xyz 0 1
|  7> S 	 -59.3491 	 17.5043 	 84.4553
|  8> C 	 -57.6806 	 17.1434 	 84.0572
|  9> C 	 -56.8391 	 17.5881 	 85.0163
| 10> C 	 -57.5525 	 18.1005 	 86.1348
| 11> C 	 -58.8694 	 17.9467 	 86.0549
| 12> H 	 -57.1171 	 18.5177 	 87.0414
| 13> C 	 -55.3025 	 17.3062 	 85.0222
| 14> H 	 -55.1565 	 16.3534 	 84.604
| 15> H 	 -54.9029 	 17.1338 	 86.0629
| 16> C 	 -54.5373 	 18.5234 	 84.3744
| 17> H 	 -53.5385 	 18.2219 	 84.3386
| 18> H 	 -54.8421 	 18.6915 	 83.3322
| 19> C 	 -54.6341 	 19.8664 	 85.1733
| 20> H 	 -54.3698 	 19.7139 	 86.2252
| 21> H 	 -54.0643 	 20.6484 	 84.6688
| 22> H 	 -55.697 	 20.1509 	 85.2427
| 23> S 	 -60.7242 	 19.9339 	 86.193
| 24> C 	 -61.3905 	 20.4402 	 87.7259
| 25> C 	 -60.773 	 19.8469 	 88.8236
| 26> C 	 -59.8163 	 18.8523 	 88.3709
| 27> C 	 -59.7322 	 18.691 	 86.9435
| 28> H 	 -61.2497 	 20.1042 	 89.7699
| 29> C 	 -59.0102 	 17.9986 	 89.4072
| 30> H 	 -58.4093 	 18.6503 	 89.9895
| 31> H 	 -58.2414 	 17.3591 	 88.9268
| 32> C 	 -60.0009 	 17.1555 	 90.3741
| 33> H 	 -60.8048 	 16.7547 	 89.8258
| 34> H 	 -60.445 	 17.9679 	 90.8885
| 35> C 	 -59.3747 	 16.2142 	 91.403
| 36> H 	 -60.0983 	 15.8397 	 92.0912
| 37> H 	 -58.5981 	 16.6051 	 92.0346
| 38> H 	 -58.9607 	 15.3854 	 90.7595
| 39> H 	 -57.5019 	 16.6114 	 83.2168
| 40> H 	 -62.2849 	 21.0294 	 87.9493
| 41> *
| 42>
| 43>                          ****END OF INPUT****

CARTESIAN COORDINATES (ANGSTROEM)
---------------------------------
  S    -59.349100   17.504300   84.455300
  C    -57.680600   17.143400   84.057200
  C    -56.839100   17.588100   85.016300
  C    -57.552500   18.100500   86.134800
  C    -58.869400   17.946700   86.054900
  H    -57.117100   18.517700   87.041400
  C    -55.302500   17.306200   85.022200
  H    -55.156500   16.353400   84.604000
  H    -54.902900   17.133800   86.062900
  C    -54.537300   18.523400   84.374400
  H    -53.538500   18.221900   84.338600
  H    -54.842100   18.691500   83.332200
  C    -54.634100   19.866400   85.173300
  H    -54.369800   19.713900   86.225200
  H    -54.064300   20.648400   84.668800
  H    -55.697000   20.150900   85.242700
  S    -60.724200   19.933900   86.193000
  C    -61.390500   20.440200   87.725900
  C    -60.773000   19.846900   88.823600
  C    -59.816300   18.852300   88.370900
  C    -59.732200   18.691000   86.943500
  H    -61.249700   20.104200   89.769900
  C    -59.010200   17.998600   89.407200
  H    -58.409300   18.650300   89.989500
  H    -58.241400   17.359100   88.926800
  C    -60.000900   17.155500   90.374100
  H    -60.804800   16.754700   89.825800
  H    -60.445000   17.967900   90.888500
  C    -59.374700   16.214200   91.403000
  H    -60.098300   15.839700   92.091200
  H    -58.598100   16.605100   92.034600
  H    -58.960700   15.385400   90.759500
  H    -57.501900   16.611400   83.216800
  H    -62.284900   21.029400   87.949300

 Total Charge           Charge          ....    0
 Multiplicity           Mult            ....    1
 Number of Electrons    NEL             ....  134
 Basis Dimension        Dim             ....  322

ORBITAL ENERGIES
----------------

  NO   OCC          E(Eh)            E(eV)
   0   2.0000     -88.964019     -2420.8340
   1   2.0000     -88.963949     -2420.8321
   2   2.0000     -10.330318      -281.1023
   3   2.0000     -10.320994      -280.8485
   4   2.0000     -10.313763      -280.6518
   5   2.0000     -10.313536      -280.6456
   6   2.0000     -10.309089      -280.5246
   7   2.0000     -10.302011      -280.3320
   8   2.0000     -10.299944      -280.2757
   9   2.0000     -10.296413      -280.1796
  10   2.0000     -10.294478      -280.1270
  11   2.0000     -10.289752      -279.9984
  12   2.0000     -10.287909      -279.9482
  13   2.0000     -10.281447      -279.7724
  14   2.0000     -10.280397      -279.7438
  15   2.0000     -10.277718      -279.6709
  16   2.0000      -8.079760      -219.8614
  17   2.0000      -8.078406      -219.8246
  18   2.0000      -6.038233      -164.3087
  19   2.0000      -6.036997      -164.2750
  20   2.0000      -6.034310      -164.2019
  21   2.0000      -6.032871      -164.1628
  22   2.0000      -6.030299      -164.0928
  23   2.0000      -6.029178      -164.0623
  24   2.0000      -1.016361       -27.6566
  25   2.0000      -0.980152       -26.6713
  26   2.0000      -0.905747       -24.6466
  27   2.0000      -0.894292       -24.3349
  28   2.0000      -0.874389       -23.7933
  29   2.0000      -0.850034       -23.1306
  30   2.0000      -0.840471       -22.8704
  31   2.0000      -0.817301       -22.2399
  32   2.0000      -0.783233       -21.3129
  33   2.0000      -0.768191       -20.9035
  34   2.0000      -0.707822       -19.2608
  35   2.0000      -0.704597       -19.1731
  36   2.0000      -0.697865       -18.9899
  37   2.0000      -0.660786       -17.9809
  38   2.0000      -0.643071       -17.4988
  39   2.0000      -0.621775       -16.9194
  40   2.0000      -0.585001       -15.9187
  41   2.0000      -0.571996       -15.5648
  42   2.0000      -0.556295       -15.1376
  43   2.0000      -0.549318       -14.9477
  44   2.0000      -0.542409       -14.7597
  45   2.0000      -0.524677       -14.2772
  46   2.0000      -0.516681       -14.0596
  47   2.0000      -0.514388       -13.9972
  48   2.0000      -0.503031       -13.6882
  49   2.0000      -0.498991       -13.5782
  50   2.0000      -0.488148       -13.2832
  51   2.0000      -0.475023       -12.9260
  52   2.0000      -0.471819       -12.8389
  53   2.0000      -0.466779       -12.7017
  54   2.0000      -0.457542       -12.4504
  55   2.0000      -0.448215       -12.1965
  56   2.0000      -0.444281       -12.0895
  57   2.0000      -0.439737       -11.9659
  58   2.0000      -0.431591       -11.7442
  59   2.0000      -0.427365       -11.6292
  60   2.0000      -0.417284       -11.3549
  61   2.0000      -0.413201       -11.2438
  62   2.0000      -0.406250       -11.0546
  63   2.0000      -0.352701        -9.5975
  64   2.0000      -0.331678        -9.0254
  65   2.0000      -0.327564        -8.9135
  66   2.0000      -0.290337        -7.9005
  67   0.0000       0.028824         0.7843
  68   0.0000       0.071064         1.9337
  69   0.0000       0.109469         2.9788
  70   0.0000       0.118712         3.2303
  71   0.0000       0.132316         3.6005

MULLIKEN ATOMIC CHARGES
-----------------------
   0 S :    0.086724
   1 C :   -0.089530
   2 C :   -0.044278
   3 C :    0.010632
   4 C :   -0.114194
   5 H :    0.023237
   6 C :    0.047558
   7 H :    0.018432
   8 H :    0.030990
   9 C :   -0.051372
  10 H :    0.017225
  11 H :    0.033783
  12 C :   -0.066354
  13 H :    0.028623
  14 H :    0.049154
  15 H :    0.042735
  16 S :    0.101778
  17 C :   -0.105806
  18 C :   -0.049037
  19 C :   -0.068477
  20 C :   -0.140111
  21 H :    0.034124
  22 C :    0.067623
  23 H :    0.017536
  24 H :    0.017051
  25 C :   -0.071627
  26 H :    0.030322
  27 H :    0.009254
  28 C :   -0.033242
  29 H :    0.031969
  30 H :    0.027317
  31 H :    0.040981
  32 H :    0.008610
  33 H :    0.058368
Sum of atomic charges:   -0.0000000

LOEWDIN ATOMIC CHARGES
----------------------
   0 S :    0.401973
   1 C :   -0.159635
   2 C :   -0.059803
   3 C :   -0.051760
   4 C :   -0.207057
   5 H :    0.034234
   6 C :   -0.023783
   7 H :    0.022991
   8 H :    0.034092
   9 C :   -0.033358
  10 H :    0.012760
  11 H :    0.025441
  12 C :   -0.066180
  13 H :    0.023823
  14 H :    0.030274
  15 H :    0.028748
  16 S :    0.401445
  17 C :   -0.197586
  18 C :   -0.078116
  19 C :   -0.058173
  20 C :   -0.190036
  21 H :    0.038097
  22 C :   -0.028920
  23 H :    0.021940
  24 H :    0.022339
  25 C :   -0.034937
  26 H :    0.021067
  27 H :    0.014544
  28 C :   -0.065340
  29 H :    0.025188
  30 H :    0.023067
  31 H :    0.033831
  32 H :    0.004638
  33 H :    0.034192

  Mayer bond orders larger than 0.100000
B(  0-S ,  1-C ) :   1.1375 B(  0-S ,  4-C ) :   1.1390 B(  1-C ,  2-C ) :   1.6149
B(  1-C , 32-H ) :   0.9913 B(  2-C ,  3-C ) :   1.2261 B(  2-C ,  6-C ) :   0.9957
B(  3-C ,  4-C ) :   1.5865 B(  3-C ,  5-H ) :   0.9932 B(  4-C , 20-C ) :   1.0365
B(  6-C ,  7-H ) :   0.9514 B(  6-C ,  8-H ) :   0.9527 B(  6-C ,  9-C ) :   1.0584
B(  9-C , 10-H ) :   0.9586 B(  9-C , 11-H ) :   0.9600 B(  9-C , 12-C ) :   1.0719
B( 12-C , 13-H ) :   0.9748 B( 12-C , 14-H ) :   0.9744 B( 12-C , 15-H ) :   0.9742
B( 16-S , 17-C ) :   1.1514 B( 16-S , 20-C ) :   1.1394 B( 17-C , 18-C ) :   1.6408
B( 17-C , 33-H ) :   0.9590 B( 18-C , 19-C ) :   1.2199 B( 18-C , 21-H ) :   0.9864
B( 19-C , 20-C ) :   1.5979 B( 19-C , 22-C ) :   1.0398 B( 22-C , 23-H ) :   0.9401
B( 22-C , 24-H ) :   0.9452 B( 22-C , 25-C ) :   1.0355 B( 25-C , 26-H ) :   0.9641
B( 25-C , 27-H ) :   0.9551 B( 25-C , 28-C ) :   1.0841 B( 28-C , 29-H ) :   0.9726
B( 28-C , 30-H ) :   0.9742 B( 28-C , 31-H ) :   0.9773

Dispersion correction           -0.013997576
FINAL SINGLE POINT ENERGY     -1339.847086265490

DIPOLE MOMENT
-------------
                                X             Y             Z
Electronic contribution:    -17.93709       4.47414     -15.81784
Nuclear contribution   :     18.44786      -4.59209      16.15383
                        -----------------------------------------
Total Dipole Moment    :      0.51076      -0.11795       0.33599
                        -----------------------------------------
Magnitude (a.u.)       :      0.62264
Magnitude (Debye)      :      1.58262

Rotational constants in cm-1:     0.017337     0.008345     0.007029
Rotational constants in MHz :   519.739747   250.175803   210.738354

                             ****ORCA TERMINATED NORMALLY****
TOTAL RUN TIME: 0 days 0 hours 0 minutes 29 seconds 504 msec
