                         Program Version 4.2.1 -  RELEASE  -
|  1> ! wB97X-D3 SP def2-SVP
|  2> %pal
|  3> nprocs 16
|  4> end
|  5>
|  6> * xyz 0 1
|  7> S 	 42.6274 	 8.69397 	 80.2673
|  8> C 	 43.5566 	 8.45884 	 81.7271
|  9> C 	 44.0663 	 9.67013 	 82.2948
| 10> C 	 43.714 	 10.7563 	 81.404
| 11> C 	 43.0176 	 10.4388 	 80.2512
| 12> H 	 43.8268 	 11.7728 	 81.527
| 13> C 	 44.8669 	 9.81286 	 83.615
| 14> H 	 44.9892 	 10.8335 	 83.9218
| 15> H 	 45.8971 	 9.45487 	 83.4094
| 16> C 	 44.31 	 9.14219 	 84.8375
| 17> H 	 44.1417 	 8.07158 	 84.5794
| 18> H 	 45.076 	 9.03305 	 85.6189
| 19> C 	 43.0162 	 9.76136 	 85.4249
| 20> H 	 43.1954 	 10.7797 	 85.6831
| 21> H 	 42.1864 	 9.9153 	 84.6981
| 22> H 	 42.7166 	 9.17165 	 86.3149
| 23> S 	 43.6483 	 12.432 	 78.4262
| 24> C 	 42.4325 	 13.1933 	 77.4662
| 25> C 	 41.2082 	 12.8164 	 77.9081
| 26> C 	 41.2805 	 11.752 	 78.8719
| 27> C 	 42.5705 	 11.3679 	 79.2041
| 28> H 	 40.2555 	 13.3494 	 77.6161
| 29> C 	 40.0373 	 11.1967 	 79.4048
| 30> H 	 39.8711 	 10.1322 	 79.165
| 31> H 	 39.1771 	 11.658 	 78.8901
| 32> C 	 39.7834 	 11.2822 	 80.9951
| 33> H 	 40.5839 	 10.8313 	 81.525
| 34> H 	 38.9182 	 10.6827 	 81.1848
| 35> C 	 39.4841 	 12.7449 	 81.4351
| 36> H 	 40.4727 	 13.2579 	 81.4532
| 37> H 	 39.0601 	 12.7889 	 82.4623
| 38> H 	 38.8484 	 13.2612 	 80.7303
| 39> H 	 43.6893 	 7.52195 	 82.3321
| 40> H 	 42.5065 	 14.0789 	 76.8426
| 41> *
| 42>
| 43>                          ****END OF INPUT****

CARTESIAN COORDINATES (ANGSTROEM)
---------------------------------
  S     42.627400    8.693970   80.267300
  C     43.556600    8.458840   81.727100
  C     44.066300    9.670130   82.294800
  C     43.714000   10.756300   81.404000
  C     43.017600   10.438800   80.251200
  H     43.826800   11.772800   81.527000
  C     44.866900    9.812860   83.615000
  H     44.989200   10.833500   83.921800
  H     45.897100    9.454870   83.409400
  C     44.310000    9.142190   84.837500
  H     44.141700    8.071580   84.579400
  H     45.076000    9.033050   85.618900
  C     43.016200    9.761360   85.424900
  H     43.195400   10.779700   85.683100
  H     42.186400    9.915300   84.698100
  H     42.716600    9.171650   86.314900
  S     43.648300   12.432000   78.426200
  C     42.432500   13.193300   77.466200
  C     41.208200   12.816400   77.908100
  C     41.280500   11.752000   78.871900
  C     42.570500   11.367900   79.204100
  H     40.255500   13.349400   77.616100
  C     40.037300   11.196700   79.404800
  H     39.871100   10.132200   79.165000
  H     39.177100   11.658000   78.890100
  C     39.783400   11.282200   80.995100
  H     40.583900   10.831300   81.525000
  H     38.918200   10.682700   81.184800
  C     39.484100   12.744900   81.435100
  H     40.472700   13.257900   81.453200
  H     39.060100   12.788900   82.462300
  H     38.848400   13.261200   80.730300
  H     43.689300    7.521950   82.332100
  H     42.506500   14.078900   76.842600

 Total Charge           Charge          ....    0
 Multiplicity           Mult            ....    1
 Number of Electrons    NEL             ....  134
 Basis Dimension        Dim             ....  322

ORBITAL ENERGIES
----------------

  NO   OCC          E(Eh)            E(eV)
   0   2.0000     -88.973151     -2421.0825
   1   2.0000     -88.966506     -2420.9017
   2   2.0000     -10.334041      -281.2036
   3   2.0000     -10.324767      -280.9512
   4   2.0000     -10.324625      -280.9473
   5   2.0000     -10.314040      -280.6593
   6   2.0000     -10.313235      -280.6374
   7   2.0000     -10.298151      -280.2269
   8   2.0000     -10.298134      -280.2265
   9   2.0000     -10.294943      -280.1396
  10   2.0000     -10.293450      -280.0990
  11   2.0000     -10.291986      -280.0592
  12   2.0000     -10.288095      -279.9533
  13   2.0000     -10.281634      -279.7775
  14   2.0000     -10.280274      -279.7405
  15   2.0000     -10.276934      -279.6496
  16   2.0000      -8.086441      -220.0432
  17   2.0000      -8.082192      -219.9276
  18   2.0000      -6.045030      -164.4936
  19   2.0000      -6.041097      -164.3866
  20   2.0000      -6.040627      -164.3738
  21   2.0000      -6.037254      -164.2820
  22   2.0000      -6.036500      -164.2615
  23   2.0000      -6.033006      -164.1664
  24   2.0000      -1.012537       -27.5525
  25   2.0000      -0.982765       -26.7424
  26   2.0000      -0.912796       -24.8384
  27   2.0000      -0.900883       -24.5143
  28   2.0000      -0.871547       -23.7160
  29   2.0000      -0.847420       -23.0595
  30   2.0000      -0.843395       -22.9500
  31   2.0000      -0.816320       -22.2132
  32   2.0000      -0.784349       -21.3432
  33   2.0000      -0.767840       -20.8940
  34   2.0000      -0.708575       -19.2813
  35   2.0000      -0.704526       -19.1711
  36   2.0000      -0.687549       -18.7092
  37   2.0000      -0.661287       -17.9945
  38   2.0000      -0.641233       -17.4488
  39   2.0000      -0.610673       -16.6173
  40   2.0000      -0.593246       -16.1430
  41   2.0000      -0.579616       -15.7722
  42   2.0000      -0.556081       -15.1317
  43   2.0000      -0.542379       -14.7589
  44   2.0000      -0.540677       -14.7126
  45   2.0000      -0.536069       -14.5872
  46   2.0000      -0.513706       -13.9786
  47   2.0000      -0.509464       -13.8632
  48   2.0000      -0.499574       -13.5941
  49   2.0000      -0.496042       -13.4980
  50   2.0000      -0.485601       -13.2139
  51   2.0000      -0.479722       -13.0539
  52   2.0000      -0.471644       -12.8341
  53   2.0000      -0.469582       -12.7780
  54   2.0000      -0.466341       -12.6898
  55   2.0000      -0.444315       -12.0904
  56   2.0000      -0.440314       -11.9816
  57   2.0000      -0.437856       -11.9147
  58   2.0000      -0.430765       -11.7217
  59   2.0000      -0.423899       -11.5349
  60   2.0000      -0.418140       -11.3782
  61   2.0000      -0.415718       -11.3123
  62   2.0000      -0.412538       -11.2257
  63   2.0000      -0.347236        -9.4488
  64   2.0000      -0.334374        -9.0988
  65   2.0000      -0.324004        -8.8166
  66   2.0000      -0.295552        -8.0424
  67   0.0000       0.029901         0.8136
  68   0.0000       0.064306         1.7499
  69   0.0000       0.106548         2.8993
  70   0.0000       0.119047         3.2394
  71   0.0000       0.127519         3.4700

MULLIKEN ATOMIC CHARGES
-----------------------
   0 S :    0.125714
   1 C :   -0.134036
   2 C :   -0.091706
   3 C :    0.054685
   4 C :   -0.193386
   5 H :   -0.021209
   6 C :    0.081856
   7 H :    0.014570
   8 H :    0.048963
   9 C :   -0.093885
  10 H :    0.018104
  11 H :    0.029235
  12 C :   -0.045092
  13 H :    0.014833
  14 H :    0.042798
  15 H :    0.048403
  16 S :    0.117454
  17 C :   -0.078708
  18 C :   -0.055892
  19 C :   -0.027757
  20 C :   -0.128937
  21 H :    0.042530
  22 C :    0.008833
  23 H :    0.036427
  24 H :    0.010505
  25 C :   -0.048678
  26 H :    0.037941
  27 H :    0.017989
  28 C :   -0.065794
  29 H :    0.038834
  30 H :    0.042289
  31 H :    0.025948
  32 H :    0.067862
  33 H :    0.059308
Sum of atomic charges:    0.0000000

LOEWDIN ATOMIC CHARGES
----------------------
   0 S :    0.403544
   1 C :   -0.208226
   2 C :   -0.059162
   3 C :   -0.054487
   4 C :   -0.184021
   5 H :    0.016130
   6 C :   -0.033558
   7 H :    0.026961
   8 H :    0.042360
   9 C :   -0.048406
  10 H :    0.020023
  11 H :    0.027633
  12 C :   -0.067474
  13 H :    0.018418
  14 H :    0.032092
  15 H :    0.033548
  16 S :    0.443785
  17 C :   -0.199981
  18 C :   -0.077075
  19 C :   -0.064863
  20 C :   -0.220747
  21 H :    0.042415
  22 C :   -0.041020
  23 H :    0.033746
  24 H :    0.028484
  25 C :   -0.028308
  26 H :    0.017841
  27 H :    0.018120
  28 C :   -0.070248
  29 H :    0.029573
  30 H :    0.028638
  31 H :    0.019211
  32 H :    0.038852
  33 H :    0.036203

  Mayer bond orders larger than 0.100000
B(  0-S ,  1-C ) :   1.1579 B(  0-S ,  4-C ) :   1.1258 B(  1-C ,  2-C ) :   1.5965
B(  1-C , 32-H ) :   0.9568 B(  2-C ,  3-C ) :   1.2307 B(  2-C ,  6-C ) :   1.0089
B(  3-C ,  4-C ) :   1.6068 B(  3-C ,  5-H ) :   1.0014 B(  4-C , 20-C ) :   1.0266
B(  6-C ,  7-H ) :   0.9479 B(  6-C ,  8-H ) :   0.9328 B(  6-C ,  9-C ) :   1.0833
B(  9-C , 10-H ) :   0.9532 B(  9-C , 11-H ) :   0.9507 B(  9-C , 12-C ) :   1.0681
B( 12-C , 13-H ) :   0.9718 B( 12-C , 14-H ) :   0.9759 B( 12-C , 15-H ) :   0.9741
B( 16-S , 17-C ) :   1.1698 B( 16-S , 20-C ) :   1.1493 B( 17-C , 18-C ) :   1.5938
B( 17-C , 33-H ) :   0.9619 B( 18-C , 19-C ) :   1.2846 B( 18-C , 21-H ) :   0.9759
B( 19-C , 20-C ) :   1.5421 B( 19-C , 22-C ) :   1.0596 B( 22-C , 23-H ) :   0.9341
B( 22-C , 24-H ) :   0.9366 B( 22-C , 25-C ) :   1.0633 B( 25-C , 26-H ) :   0.9602
B( 25-C , 27-H ) :   0.9565 B( 25-C , 28-C ) :   1.0645 B( 28-C , 29-H ) :   0.9781
B( 28-C , 30-H ) :   0.9763 B( 28-C , 31-H ) :   0.9778

Dispersion correction           -0.015544420
FINAL SINGLE POINT ENERGY     -1339.874673682003

DIPOLE MOMENT
-------------
                                X             Y             Z
Electronic contribution:      9.59459      -1.74727     -23.36435
Nuclear contribution   :     -9.79462       1.98188      23.91070
                        -----------------------------------------
Total Dipole Moment    :     -0.20003       0.23461       0.54634
                        -----------------------------------------
Magnitude (a.u.)       :      0.62733
Magnitude (Debye)      :      1.59455

Rotational constants in cm-1:     0.021166     0.008442     0.007504
Rotational constants in MHz :   634.552539   253.096004   224.971080

                             ****ORCA TERMINATED NORMALLY****
TOTAL RUN TIME: 0 days 0 hours 0 minutes 29 seconds 449 msec
