                         Program Version 4.2.1 -  RELEASE  -
|  1> ! wB97X-D3 SP def2-SVP
|  2> %pal
|  3> nprocs 16
|  4> end
|  5>
|  6> * xyz 0 1
|  7> S 	 55.8363 	 -4.80009 	 87.6635
|  8> C 	 54.3536 	 -5.13903 	 88.5599
|  9> C 	 53.3345 	 -4.31044 	 88.1667
| 10> C 	 53.7953 	 -3.41266 	 87.147
| 11> C 	 55.1226 	 -3.51567 	 86.7881
| 12> H 	 53.1624 	 -2.6517 	 86.7494
| 13> C 	 52.0127 	 -4.14413 	 88.9107
| 14> H 	 51.746 	 -5.15984 	 89.2018
| 15> H 	 51.1772 	 -3.78992 	 88.2813
| 16> C 	 52.0424 	 -3.3032 	 90.1714
| 17> H 	 52.6291 	 -3.7093 	 90.9773
| 18> H 	 52.4802 	 -2.31652 	 90.0577
| 19> C 	 50.6021 	 -3.08286 	 90.7169
| 20> H 	 50.0126 	 -2.62681 	 89.9217
| 21> H 	 50.1747 	 -4.08203 	 91.0006
| 22> H 	 50.6362 	 -2.36504 	 91.5459
| 23> S 	 56.6369 	 -3.47196 	 84.5402
| 24> C 	 57.0442 	 -1.98547 	 83.7441
| 25> C 	 56.5903 	 -0.924372 	 84.4368
| 26> C 	 55.8508 	 -1.29014 	 85.6206
| 27> C 	 55.8121 	 -2.68192 	 85.8308
| 28> H 	 56.7946 	 0.0621179 	 84.1389
| 29> C 	 55.1074 	 -0.23585 	 86.4924
| 30> H 	 55.6633 	 -0.111478 	 87.3264
| 31> H 	 54.1039 	 -0.528152 	 86.8822
| 32> C 	 54.8815 	 1.12551 	 85.7973
| 33> H 	 54.2341 	 1.01865 	 84.9017
| 34> H 	 55.7724 	 1.52546 	 85.4185
| 35> C 	 54.2711 	 2.07372 	 86.8425
| 36> H 	 54.094 	 3.08406 	 86.4389
| 37> H 	 54.855 	 2.12431 	 87.8141
| 38> H 	 53.2116 	 1.92641 	 87.0586
| 39> H 	 54.1406 	 -5.81201 	 89.2872
| 40> H 	 57.6502 	 -1.87164 	 82.8565
| 41> *
| 42>
| 43>                          ****END OF INPUT****

CARTESIAN COORDINATES (ANGSTROEM)
---------------------------------
  S     55.836300   -4.800090   87.663500
  C     54.353600   -5.139030   88.559900
  C     53.334500   -4.310440   88.166700
  C     53.795300   -3.412660   87.147000
  C     55.122600   -3.515670   86.788100
  H     53.162400   -2.651700   86.749400
  C     52.012700   -4.144130   88.910700
  H     51.746000   -5.159840   89.201800
  H     51.177200   -3.789920   88.281300
  C     52.042400   -3.303200   90.171400
  H     52.629100   -3.709300   90.977300
  H     52.480200   -2.316520   90.057700
  C     50.602100   -3.082860   90.716900
  H     50.012600   -2.626810   89.921700
  H     50.174700   -4.082030   91.000600
  H     50.636200   -2.365040   91.545900
  S     56.636900   -3.471960   84.540200
  C     57.044200   -1.985470   83.744100
  C     56.590300   -0.924372   84.436800
  C     55.850800   -1.290140   85.620600
  C     55.812100   -2.681920   85.830800
  H     56.794600    0.062118   84.138900
  C     55.107400   -0.235850   86.492400
  H     55.663300   -0.111478   87.326400
  H     54.103900   -0.528152   86.882200
  C     54.881500    1.125510   85.797300
  H     54.234100    1.018650   84.901700
  H     55.772400    1.525460   85.418500
  C     54.271100    2.073720   86.842500
  H     54.094000    3.084060   86.438900
  H     54.855000    2.124310   87.814100
  H     53.211600    1.926410   87.058600
  H     54.140600   -5.812010   89.287200
  H     57.650200   -1.871640   82.856500

 Total Charge           Charge          ....    0
 Multiplicity           Mult            ....    1
 Number of Electrons    NEL             ....  134
 Basis Dimension        Dim             ....  322

ORBITAL ENERGIES
----------------

  NO   OCC          E(Eh)            E(eV)
   0   2.0000     -88.968469     -2420.9551
   1   2.0000     -88.963088     -2420.8087
   2   2.0000     -10.326049      -280.9861
   3   2.0000     -10.325528      -280.9719
   4   2.0000     -10.312530      -280.6182
   5   2.0000     -10.307772      -280.4887
   6   2.0000     -10.306610      -280.4571
   7   2.0000     -10.298234      -280.2292
   8   2.0000     -10.296683      -280.1870
   9   2.0000     -10.288612      -279.9674
  10   2.0000     -10.288024      -279.9514
  11   2.0000     -10.287833      -279.9462
  12   2.0000     -10.287756      -279.9441
  13   2.0000     -10.285107      -279.8720
  14   2.0000     -10.284691      -279.8607
  15   2.0000     -10.284617      -279.8586
  16   2.0000      -8.083287      -219.9574
  17   2.0000      -8.078698      -219.8325
  18   2.0000      -6.041901      -164.4085
  19   2.0000      -6.037660      -164.2931
  20   2.0000      -6.037197      -164.2805
  21   2.0000      -6.034042      -164.1946
  22   2.0000      -6.032926      -164.1643
  23   2.0000      -6.029569      -164.0729
  24   2.0000      -1.011407       -27.5218
  25   2.0000      -0.988469       -26.8976
  26   2.0000      -0.915381       -24.9088
  27   2.0000      -0.909078       -24.7373
  28   2.0000      -0.876028       -23.8379
  29   2.0000      -0.848285       -23.0830
  30   2.0000      -0.844041       -22.9675
  31   2.0000      -0.817948       -22.2575
  32   2.0000      -0.781451       -21.2644
  33   2.0000      -0.772128       -21.0107
  34   2.0000      -0.713447       -19.4139
  35   2.0000      -0.706606       -19.2277
  36   2.0000      -0.701554       -19.0903
  37   2.0000      -0.656726       -17.8704
  38   2.0000      -0.641572       -17.4581
  39   2.0000      -0.623076       -16.9548
  40   2.0000      -0.602205       -16.3868
  41   2.0000      -0.579170       -15.7600
  42   2.0000      -0.569014       -15.4837
  43   2.0000      -0.563568       -15.3355
  44   2.0000      -0.529301       -14.4030
  45   2.0000      -0.524837       -14.2815
  46   2.0000      -0.520506       -14.1637
  47   2.0000      -0.515441       -14.0259
  48   2.0000      -0.502984       -13.6869
  49   2.0000      -0.495750       -13.4900
  50   2.0000      -0.492365       -13.3979
  51   2.0000      -0.480950       -13.0873
  52   2.0000      -0.469287       -12.7699
  53   2.0000      -0.461367       -12.5544
  54   2.0000      -0.459489       -12.5033
  55   2.0000      -0.454494       -12.3674
  56   2.0000      -0.447910       -12.1883
  57   2.0000      -0.441768       -12.0211
  58   2.0000      -0.439861       -11.9692
  59   2.0000      -0.425663       -11.5829
  60   2.0000      -0.422178       -11.4880
  61   2.0000      -0.418155       -11.3786
  62   2.0000      -0.408787       -11.1237
  63   2.0000      -0.350084        -9.5263
  64   2.0000      -0.331130        -9.0105
  65   2.0000      -0.328306        -8.9337
  66   2.0000      -0.294962        -8.0263
  67   0.0000       0.033636         0.9153
  68   0.0000       0.075151         2.0450
  69   0.0000       0.117720         3.2033
  70   0.0000       0.125628         3.4185
  71   0.0000       0.135155         3.6777

MULLIKEN ATOMIC CHARGES
-----------------------
   0 S :    0.125964
   1 C :   -0.066858
   2 C :   -0.079595
   3 C :    0.029502
   4 C :   -0.142464
   5 H :   -0.004916
   6 C :    0.053526
   7 H :    0.018828
   8 H :    0.026339
   9 C :   -0.056315
  10 H :    0.020530
  11 H :    0.022467
  12 C :   -0.068496
  13 H :    0.030891
  14 H :    0.040700
  15 H :    0.039570
  16 S :    0.108394
  17 C :   -0.071268
  18 C :   -0.028544
  19 C :   -0.030768
  20 C :   -0.154806
  21 H :   -0.002932
  22 C :    0.097710
  23 H :    0.005776
  24 H :    0.025884
  25 C :   -0.074327
  26 H :    0.037527
  27 H :    0.022174
  28 C :   -0.070376
  29 H :    0.023553
  30 H :    0.049645
  31 H :    0.025767
  32 H :   -0.005685
  33 H :    0.052606
Sum of atomic charges:    0.0000000

LOEWDIN ATOMIC CHARGES
----------------------
   0 S :    0.422147
   1 C :   -0.178031
   2 C :   -0.059458
   3 C :   -0.059109
   4 C :   -0.212313
   5 H :    0.022324
   6 C :   -0.032491
   7 H :    0.031183
   8 H :    0.032563
   9 C :   -0.041355
  10 H :    0.020716
  11 H :    0.022033
  12 C :   -0.063812
  13 H :    0.021676
  14 H :    0.028690
  15 H :    0.027488
  16 S :    0.424838
  17 C :   -0.187028
  18 C :   -0.071183
  19 C :   -0.048166
  20 C :   -0.210249
  21 H :    0.023665
  22 C :   -0.022380
  23 H :    0.016922
  24 H :    0.033917
  25 C :   -0.036847
  26 H :    0.030446
  27 H :    0.012246
  28 C :   -0.077919
  29 H :    0.027945
  30 H :    0.034629
  31 H :    0.025739
  32 H :    0.008650
  33 H :    0.032522

  Mayer bond orders larger than 0.100000
B(  0-S ,  1-C ) :   1.1325 B(  0-S ,  4-C ) :   1.1523 B(  1-C ,  2-C ) :   1.6162
B(  1-C , 32-H ) :   0.9754 B(  2-C ,  3-C ) :   1.2525 B(  2-C ,  6-C ) :   1.0293
B(  3-C ,  4-C ) :   1.5611 B(  3-C ,  5-H ) :   1.0009 B(  4-C , 20-C ) :   1.0362
B(  6-C ,  7-H ) :   0.9312 B(  6-C ,  8-H ) :   0.9456 B(  6-C ,  9-C ) :   1.0651
B(  9-C , 10-H ) :   0.9519 B(  9-C , 11-H ) :   0.9564 B(  9-C , 12-C ) :   1.0792
B( 12-C , 13-H ) :   0.9765 B( 12-C , 14-H ) :   0.9766 B( 12-C , 15-H ) :   0.9744
B( 16-S , 17-C ) :   1.1587 B( 16-S , 20-C ) :   1.1565 B( 17-C , 18-C ) :   1.6049
B( 17-C , 33-H ) :   0.9635 B( 18-C , 19-C ) :   1.2581 B( 18-C , 21-H ) :   0.9964
B( 19-C , 20-C ) :   1.5893 B( 19-C , 22-C ) :   1.0079 B( 22-C , 23-H ) :   0.9246
B( 22-C , 24-H ) :   0.9457 B( 22-C , 25-C ) :   1.0760 B( 25-C , 26-H ) :   0.9560
B( 25-C , 27-H ) :   0.9462 B( 25-C , 28-C ) :   1.0856 B( 28-C , 29-H ) :   0.9681
B( 28-C , 30-H ) :   0.9739 B( 28-C , 31-H ) :   0.9706

Dispersion correction           -0.013370395
FINAL SINGLE POINT ENERGY     -1339.873693638523

DIPOLE MOMENT
-------------
                                X             Y             Z
Electronic contribution:     21.44451     -20.29763     -14.77162
Nuclear contribution   :    -21.89451      20.93778      14.99639
                        -----------------------------------------
Total Dipole Moment    :     -0.45000       0.64015       0.22477
                        -----------------------------------------
Magnitude (a.u.)       :      0.81413
Magnitude (Debye)      :      2.06936

Rotational constants in cm-1:     0.016617     0.008878     0.006101
Rotational constants in MHz :   498.172433   266.150898   182.898938

                             ****ORCA TERMINATED NORMALLY****
TOTAL RUN TIME: 0 days 0 hours 0 minutes 29 seconds 279 msec
