                         Program Version 4.2.1 -  RELEASE  -
|  1> ! wB97X-D3 SP def2-SVP
|  2> %pal
|  3> nprocs 16
|  4> end
|  5>
|  6> * xyz 0 1
|  7> S 	 70.9757 	 28.2935 	 73.1293
|  8> C 	 70.2778 	 28.6001 	 71.5678
|  9> C 	 70.4792 	 27.4857 	 70.7681
| 10> C 	 71.2377 	 26.4315 	 71.3263
| 11> C 	 71.6525 	 26.7276 	 72.6073
| 12> H 	 71.3941 	 25.4667 	 70.8233
| 13> C 	 69.8654 	 27.3303 	 69.3968
| 14> H 	 69.9213 	 28.3598 	 68.9857
| 15> H 	 68.826 	 26.9791 	 69.4722
| 16> C 	 70.735 	 26.5778 	 68.3345
| 17> H 	 71.7944 	 26.8323 	 68.396
| 18> H 	 70.6883 	 25.5287 	 68.6695
| 19> C 	 70.2683 	 26.7981 	 66.8569
| 20> H 	 71.0496 	 26.5528 	 66.1976
| 21> H 	 69.3328 	 26.4048 	 66.6166
| 22> H 	 70.0417 	 27.9316 	 66.7617
| 23> S 	 73.3983 	 26.6294 	 74.5972
| 24> C 	 73.8712 	 25.0799 	 75.2745
| 25> C 	 73.1301 	 24.0287 	 74.8047
| 26> C 	 72.201 	 24.4924 	 73.7656
| 27> C 	 72.2371 	 25.8354 	 73.5983
| 28> H 	 73.3061 	 22.9596 	 75.0672
| 29> C 	 71.1651 	 23.4794 	 73.2007
| 30> H 	 70.5661 	 24.0997 	 72.5567
| 31> H 	 70.5616 	 23.2172 	 74.0791
| 32> C 	 71.6363 	 22.2129 	 72.487
| 33> H 	 70.74 	 21.9861 	 71.8912
| 34> H 	 71.7225 	 21.3753 	 73.2264
| 35> C 	 72.9795 	 22.4531 	 71.7107
| 36> H 	 72.9595 	 23.3811 	 71.1335
| 37> H 	 73.1868 	 21.6639 	 70.9474
| 38> H 	 73.8214 	 22.4299 	 72.4061
| 39> H 	 69.5135 	 29.3378 	 71.321
| 40> H 	 74.7182 	 24.9168 	 75.9241
| 41> *
| 42>
| 43>                          ****END OF INPUT****

CARTESIAN COORDINATES (ANGSTROEM)
---------------------------------
  S     70.975700   28.293500   73.129300
  C     70.277800   28.600100   71.567800
  C     70.479200   27.485700   70.768100
  C     71.237700   26.431500   71.326300
  C     71.652500   26.727600   72.607300
  H     71.394100   25.466700   70.823300
  C     69.865400   27.330300   69.396800
  H     69.921300   28.359800   68.985700
  H     68.826000   26.979100   69.472200
  C     70.735000   26.577800   68.334500
  H     71.794400   26.832300   68.396000
  H     70.688300   25.528700   68.669500
  C     70.268300   26.798100   66.856900
  H     71.049600   26.552800   66.197600
  H     69.332800   26.404800   66.616600
  H     70.041700   27.931600   66.761700
  S     73.398300   26.629400   74.597200
  C     73.871200   25.079900   75.274500
  C     73.130100   24.028700   74.804700
  C     72.201000   24.492400   73.765600
  C     72.237100   25.835400   73.598300
  H     73.306100   22.959600   75.067200
  C     71.165100   23.479400   73.200700
  H     70.566100   24.099700   72.556700
  H     70.561600   23.217200   74.079100
  C     71.636300   22.212900   72.487000
  H     70.740000   21.986100   71.891200
  H     71.722500   21.375300   73.226400
  C     72.979500   22.453100   71.710700
  H     72.959500   23.381100   71.133500
  H     73.186800   21.663900   70.947400
  H     73.821400   22.429900   72.406100
  H     69.513500   29.337800   71.321000
  H     74.718200   24.916800   75.924100

 Total Charge           Charge          ....    0
 Multiplicity           Mult            ....    1
 Number of Electrons    NEL             ....  134
 Basis Dimension        Dim             ....  322

ORBITAL ENERGIES
----------------

  NO   OCC          E(Eh)            E(eV)
   0   2.0000     -88.966676     -2420.9063
   1   2.0000     -88.963296     -2420.8144
   2   2.0000     -10.332342      -281.1573
   3   2.0000     -10.321397      -280.8595
   4   2.0000     -10.316209      -280.7183
   5   2.0000     -10.311558      -280.5918
   6   2.0000     -10.302995      -280.3587
   7   2.0000     -10.297914      -280.2205
   8   2.0000     -10.297416      -280.2069
   9   2.0000     -10.296378      -280.1787
  10   2.0000     -10.293777      -280.1079
  11   2.0000     -10.292786      -280.0809
  12   2.0000     -10.292589      -280.0756
  13   2.0000     -10.291084      -280.0346
  14   2.0000     -10.285974      -279.8956
  15   2.0000     -10.281240      -279.7668
  16   2.0000      -8.080897      -219.8924
  17   2.0000      -8.078789      -219.8350
  18   2.0000      -6.039466      -164.3422
  19   2.0000      -6.037402      -164.2861
  20   2.0000      -6.035449      -164.2329
  21   2.0000      -6.033262      -164.1734
  22   2.0000      -6.031640      -164.1293
  23   2.0000      -6.029318      -164.0661
  24   2.0000      -1.009709       -27.4756
  25   2.0000      -0.984636       -26.7933
  26   2.0000      -0.907585       -24.6966
  27   2.0000      -0.904975       -24.6256
  28   2.0000      -0.870713       -23.6933
  29   2.0000      -0.849229       -23.1087
  30   2.0000      -0.840161       -22.8620
  31   2.0000      -0.817270       -22.2390
  32   2.0000      -0.782968       -21.3056
  33   2.0000      -0.770817       -20.9750
  34   2.0000      -0.714592       -19.4450
  35   2.0000      -0.697092       -18.9688
  36   2.0000      -0.689053       -18.7501
  37   2.0000      -0.662425       -18.0255
  38   2.0000      -0.634816       -17.2742
  39   2.0000      -0.623158       -16.9570
  40   2.0000      -0.587062       -15.9748
  41   2.0000      -0.569587       -15.4993
  42   2.0000      -0.559961       -15.2373
  43   2.0000      -0.555653       -15.1201
  44   2.0000      -0.538742       -14.6599
  45   2.0000      -0.531207       -14.4549
  46   2.0000      -0.513541       -13.9742
  47   2.0000      -0.510348       -13.8873
  48   2.0000      -0.503950       -13.7132
  49   2.0000      -0.496364       -13.5067
  50   2.0000      -0.492190       -13.3932
  51   2.0000      -0.483993       -13.1701
  52   2.0000      -0.467412       -12.7189
  53   2.0000      -0.462585       -12.5876
  54   2.0000      -0.458603       -12.4792
  55   2.0000      -0.451645       -12.2899
  56   2.0000      -0.449809       -12.2399
  57   2.0000      -0.439607       -11.9623
  58   2.0000      -0.432247       -11.7620
  59   2.0000      -0.425824       -11.5873
  60   2.0000      -0.417801       -11.3689
  61   2.0000      -0.409464       -11.1421
  62   2.0000      -0.404784       -11.0147
  63   2.0000      -0.356502        -9.7009
  64   2.0000      -0.333126        -9.0648
  65   2.0000      -0.328213        -8.9311
  66   2.0000      -0.288044        -7.8381
  67   0.0000       0.029452         0.8014
  68   0.0000       0.072145         1.9632
  69   0.0000       0.105725         2.8769
  70   0.0000       0.118327         3.2199
  71   0.0000       0.121071         3.2945

MULLIKEN ATOMIC CHARGES
-----------------------
   0 S :    0.098007
   1 C :   -0.103212
   2 C :   -0.127815
   3 C :    0.002705
   4 C :   -0.096295
   5 H :    0.021271
   6 C :    0.030623
   7 H :    0.025830
   8 H :    0.056824
   9 C :   -0.123382
  10 H :    0.037677
  11 H :    0.032159
  12 C :   -0.010963
  13 H :    0.038304
  14 H :    0.022931
  15 H :    0.025224
  16 S :    0.099427
  17 C :   -0.078225
  18 C :   -0.039424
  19 C :   -0.101403
  20 C :   -0.128556
  21 H :    0.037180
  22 C :    0.051023
  23 H :    0.012191
  24 H :    0.046076
  25 C :   -0.076580
  26 H :    0.038463
  27 H :    0.034353
  28 C :   -0.052197
  29 H :    0.038903
  30 H :    0.038601
  31 H :    0.040224
  32 H :    0.057228
  33 H :    0.052827
Sum of atomic charges:    0.0000000

LOEWDIN ATOMIC CHARGES
----------------------
   0 S :    0.398827
   1 C :   -0.213710
   2 C :   -0.066520
   3 C :   -0.072762
   4 C :   -0.174811
   5 H :    0.034521
   6 C :   -0.039941
   7 H :    0.032434
   8 H :    0.035245
   9 C :   -0.044785
  10 H :    0.027769
  11 H :    0.017971
  12 C :   -0.057341
  13 H :    0.022651
  14 H :    0.016241
  15 H :    0.034852
  16 S :    0.406096
  17 C :   -0.177281
  18 C :   -0.073081
  19 C :   -0.057832
  20 C :   -0.207753
  21 H :    0.039176
  22 C :   -0.032492
  23 H :    0.022173
  24 H :    0.039039
  25 C :   -0.046985
  26 H :    0.031129
  27 H :    0.026198
  28 C :   -0.067933
  29 H :    0.026242
  30 H :    0.029621
  31 H :    0.029201
  32 H :    0.036207
  33 H :    0.027636

  Mayer bond orders larger than 0.100000
B(  0-S ,  1-C ) :   1.1247 B(  0-S ,  4-C ) :   1.1600 B(  1-C ,  2-C ) :   1.6177
B(  1-C , 32-H ) :   0.9664 B(  2-C ,  3-C ) :   1.2625 B(  2-C ,  6-C ) :   1.0127
B(  3-C ,  4-C ) :   1.5579 B(  3-C ,  5-H ) :   0.9885 B(  4-C , 20-C ) :   1.0069
B(  6-C ,  7-H ) :   0.9468 B(  6-C ,  8-H ) :   0.9381 B(  6-C ,  9-C ) :   1.0619
B(  9-C , 10-H ) :   0.9631 B(  9-C , 11-H ) :   0.9480 B(  9-C , 12-C ) :   1.0765
B( 12-C , 13-H ) :   0.9765 B( 12-C , 14-H ) :   0.9759 B( 12-C , 15-H ) :   0.9727
B( 16-S , 17-C ) :   1.1391 B( 16-S , 20-C ) :   1.1187 B( 17-C , 18-C ) :   1.6530
B( 17-C , 33-H ) :   0.9666 B( 18-C , 19-C ) :   1.1879 B( 18-C , 21-H ) :   0.9812
B( 19-C , 20-C ) :   1.6775 B( 19-C , 22-C ) :   1.0231 B( 22-C , 23-H ) :   0.9409
B( 22-C , 24-H ) :   0.9397 B( 22-C , 25-C ) :   1.0566 B( 25-C , 26-H ) :   0.9595
B( 25-C , 27-H ) :   0.9544 B( 25-C , 28-C ) :   1.0800 B( 28-C , 29-H ) :   0.9755
B( 28-C , 30-H ) :   0.9748 B( 28-C , 31-H ) :   0.9668

Dispersion correction           -0.014629018
FINAL SINGLE POINT ENERGY     -1339.871175059408

DIPOLE MOMENT
-------------
                                X             Y             Z
Electronic contribution:      5.82678      16.67454      24.58555
Nuclear contribution   :     -6.08048     -17.33191     -25.01557
                        -----------------------------------------
Total Dipole Moment    :     -0.25370      -0.65737      -0.43002
                        -----------------------------------------
Magnitude (a.u.)       :      0.82548
Magnitude (Debye)      :      2.09819

Rotational constants in cm-1:     0.018081     0.009258     0.006702
Rotational constants in MHz :   542.044297   277.550228   200.932620

                             ****ORCA TERMINATED NORMALLY****
TOTAL RUN TIME: 0 days 0 hours 0 minutes 29 seconds 361 msec
