                         Program Version 4.2.1 -  RELEASE  -
|  1> ! wB97X-D3 SP def2-SVP
|  2> %pal
|  3> nprocs 16
|  4> end
|  5>
|  6> * xyz 0 1
|  7> S 	 -59.7796 	 38.7724 	 92.5123
|  8> C 	 -60.7796 	 37.3831 	 91.996
|  9> C 	 -61.0556 	 37.3573 	 90.6343
| 10> C 	 -60.3083 	 38.3096 	 89.9712
| 11> C 	 -59.5584 	 39.1196 	 90.8212
| 12> H 	 -60.3589 	 38.4407 	 88.9143
| 13> C 	 -61.9333 	 36.2793 	 89.8738
| 14> H 	 -62.1606 	 36.5263 	 88.8204
| 15> H 	 -62.8897 	 36.293 	 90.4305
| 16> C 	 -61.4001 	 34.8047 	 89.863
| 17> H 	 -61.2161 	 34.5625 	 90.8395
| 18> H 	 -62.2637 	 34.1942 	 89.5492
| 19> C 	 -60.2225 	 34.5477 	 88.9787
| 20> H 	 -59.4612 	 35.2593 	 89.1883
| 21> H 	 -59.907 	 33.5404 	 89.0823
| 22> H 	 -60.5054 	 34.6219 	 87.8891
| 23> S 	 -58.4796 	 41.7325 	 91.1508
| 24> C 	 -57.1182 	 42.2157 	 90.136
| 25> C 	 -56.9519 	 41.2651 	 89.109
| 26> C 	 -57.7366 	 40.1152 	 89.2722
| 27> C 	 -58.6074 	 40.1528 	 90.3152
| 28> H 	 -56.2585 	 41.4904 	 88.3401
| 29> C 	 -57.5391 	 38.9952 	 88.3134
| 30> H 	 -56.8902 	 39.4576 	 87.5671
| 31> H 	 -58.4164 	 38.8314 	 87.7243
| 32> C 	 -57.1283 	 37.5959 	 88.7756
| 33> H 	 -56.848 	 36.9747 	 87.8903
| 34> H 	 -57.9576 	 37.0722 	 89.2466
| 35> C 	 -55.9409 	 37.5531 	 89.8098
| 36> H 	 -56.2873 	 37.9021 	 90.7848
| 37> H 	 -55.2252 	 38.1531 	 89.3759
| 38> H 	 -55.6438 	 36.5684 	 89.7601
| 39> H 	 -61.2176 	 36.7151 	 92.7364
| 40> H 	 -56.5208 	 43.1122 	 90.2553
| 41> *
| 42>
| 43>                          ****END OF INPUT****

CARTESIAN COORDINATES (ANGSTROEM)
---------------------------------
  S    -59.779600   38.772400   92.512300
  C    -60.779600   37.383100   91.996000
  C    -61.055600   37.357300   90.634300
  C    -60.308300   38.309600   89.971200
  C    -59.558400   39.119600   90.821200
  H    -60.358900   38.440700   88.914300
  C    -61.933300   36.279300   89.873800
  H    -62.160600   36.526300   88.820400
  H    -62.889700   36.293000   90.430500
  C    -61.400100   34.804700   89.863000
  H    -61.216100   34.562500   90.839500
  H    -62.263700   34.194200   89.549200
  C    -60.222500   34.547700   88.978700
  H    -59.461200   35.259300   89.188300
  H    -59.907000   33.540400   89.082300
  H    -60.505400   34.621900   87.889100
  S    -58.479600   41.732500   91.150800
  C    -57.118200   42.215700   90.136000
  C    -56.951900   41.265100   89.109000
  C    -57.736600   40.115200   89.272200
  C    -58.607400   40.152800   90.315200
  H    -56.258500   41.490400   88.340100
  C    -57.539100   38.995200   88.313400
  H    -56.890200   39.457600   87.567100
  H    -58.416400   38.831400   87.724300
  C    -57.128300   37.595900   88.775600
  H    -56.848000   36.974700   87.890300
  H    -57.957600   37.072200   89.246600
  C    -55.940900   37.553100   89.809800
  H    -56.287300   37.902100   90.784800
  H    -55.225200   38.153100   89.375900
  H    -55.643800   36.568400   89.760100
  H    -61.217600   36.715100   92.736400
  H    -56.520800   43.112200   90.255300

 Total Charge           Charge          ....    0
 Multiplicity           Mult            ....    1
 Number of Electrons    NEL             ....  134
 Basis Dimension        Dim             ....  322

ORBITAL ENERGIES
----------------

  NO   OCC          E(Eh)            E(eV)
   0   2.0000     -88.976093     -2421.1626
   1   2.0000     -88.964174     -2420.8383
   2   2.0000     -10.333229      -281.1814
   3   2.0000     -10.326746      -281.0050
   4   2.0000     -10.320353      -280.8311
   5   2.0000     -10.318835      -280.7898
   6   2.0000     -10.304601      -280.4024
   7   2.0000     -10.303107      -280.3618
   8   2.0000     -10.294701      -280.1330
   9   2.0000     -10.290819      -280.0274
  10   2.0000     -10.290012      -280.0055
  11   2.0000     -10.284101      -279.8446
  12   2.0000     -10.283087      -279.8170
  13   2.0000     -10.281700      -279.7793
  14   2.0000     -10.274609      -279.5863
  15   2.0000     -10.259328      -279.1705
  16   2.0000      -8.089998      -220.1400
  17   2.0000      -8.078051      -219.8149
  18   2.0000      -6.048306      -164.5828
  19   2.0000      -6.044834      -164.4883
  20   2.0000      -6.040808      -164.3787
  21   2.0000      -6.036629      -164.2650
  22   2.0000      -6.032642      -164.1565
  23   2.0000      -6.028848      -164.0533
  24   2.0000      -1.005140       -27.3512
  25   2.0000      -0.983604       -26.7652
  26   2.0000      -0.909741       -24.7553
  27   2.0000      -0.905424       -24.6378
  28   2.0000      -0.865461       -23.5504
  29   2.0000      -0.854203       -23.2440
  30   2.0000      -0.847801       -23.0699
  31   2.0000      -0.809427       -22.0256
  32   2.0000      -0.786941       -21.4138
  33   2.0000      -0.776744       -21.1363
  34   2.0000      -0.707372       -19.2486
  35   2.0000      -0.702230       -19.1087
  36   2.0000      -0.685038       -18.6408
  37   2.0000      -0.666823       -18.1452
  38   2.0000      -0.639814       -17.4102
  39   2.0000      -0.618983       -16.8434
  40   2.0000      -0.586550       -15.9608
  41   2.0000      -0.574820       -15.6416
  42   2.0000      -0.557287       -15.1645
  43   2.0000      -0.553354       -15.0575
  44   2.0000      -0.550999       -14.9935
  45   2.0000      -0.541911       -14.7462
  46   2.0000      -0.513620       -13.9763
  47   2.0000      -0.506681       -13.7875
  48   2.0000      -0.497705       -13.5433
  49   2.0000      -0.492181       -13.3929
  50   2.0000      -0.486405       -13.2358
  51   2.0000      -0.481765       -13.1095
  52   2.0000      -0.475606       -12.9419
  53   2.0000      -0.468985       -12.7617
  54   2.0000      -0.461902       -12.5690
  55   2.0000      -0.451973       -12.2988
  56   2.0000      -0.446717       -12.1558
  57   2.0000      -0.436823       -11.8866
  58   2.0000      -0.436051       -11.8656
  59   2.0000      -0.425018       -11.5653
  60   2.0000      -0.420139       -11.4326
  61   2.0000      -0.412585       -11.2270
  62   2.0000      -0.404850       -11.0165
  63   2.0000      -0.343924        -9.3586
  64   2.0000      -0.342322        -9.3151
  65   2.0000      -0.330743        -9.0000
  66   2.0000      -0.285450        -7.7675
  67   0.0000       0.020628         0.5613
  68   0.0000       0.068354         1.8600
  69   0.0000       0.097423         2.6510
  70   0.0000       0.121522         3.3068
  71   0.0000       0.133016         3.6196

MULLIKEN ATOMIC CHARGES
-----------------------
   0 S :    0.131100
   1 C :   -0.157895
   2 C :   -0.037596
   3 C :    0.000676
   4 C :   -0.127240
   5 H :   -0.000417
   6 C :    0.027856
   7 H :    0.027031
   8 H :    0.037867
   9 C :   -0.035832
  10 H :    0.002163
  11 H :    0.028329
  12 C :   -0.024380
  13 H :    0.029244
  14 H :    0.029252
  15 H :    0.026627
  16 S :    0.086838
  17 C :   -0.102154
  18 C :   -0.036541
  19 C :   -0.040253
  20 C :   -0.143083
  21 H :    0.010227
  22 C :    0.091641
  23 H :    0.001266
  24 H :    0.017977
  25 C :   -0.131694
  26 H :    0.030805
  27 H :    0.053786
  28 C :    0.023189
  29 H :    0.048528
  30 H :    0.007654
  31 H :    0.014815
  32 H :    0.048688
  33 H :    0.061524
Sum of atomic charges:    0.0000000

LOEWDIN ATOMIC CHARGES
----------------------
   0 S :    0.408793
   1 C :   -0.188433
   2 C :   -0.062635
   3 C :   -0.059726
   4 C :   -0.191150
   5 H :    0.028788
   6 C :   -0.026434
   7 H :    0.028893
   8 H :    0.035781
   9 C :   -0.033511
  10 H :    0.008648
  11 H :    0.028099
  12 C :   -0.060171
  13 H :    0.021023
  14 H :    0.024531
  15 H :    0.030497
  16 S :    0.375774
  17 C :   -0.177771
  18 C :   -0.068304
  19 C :   -0.067624
  20 C :   -0.181299
  21 H :    0.026478
  22 C :   -0.037519
  23 H :    0.030172
  24 H :    0.028082
  25 C :   -0.037604
  26 H :    0.027811
  27 H :    0.019262
  28 C :   -0.045343
  29 H :    0.030763
  30 H :    0.012817
  31 H :    0.016553
  32 H :    0.023600
  33 H :    0.031160

  Mayer bond orders larger than 0.100000
B(  0-S ,  1-C ) :   1.1428 B(  0-S ,  4-C ) :   1.1628 B(  1-C ,  2-C ) :   1.5809
B(  1-C ,  4-C ) :   0.1079 B(  1-C , 32-H ) :   0.9672 B(  2-C ,  3-C ) :   1.2795
B(  2-C ,  6-C ) :   1.0039 B(  3-C ,  4-C ) :   1.5267 B(  3-C ,  5-H ) :   1.0034
B(  4-C , 20-C ) :   1.0438 B(  6-C ,  7-H ) :   0.9521 B(  6-C ,  8-H ) :   0.9369
B(  6-C ,  9-C ) :   1.0751 B(  9-C , 10-H ) :   0.9530 B(  9-C , 11-H ) :   0.9516
B(  9-C , 12-C ) :   1.0871 B( 12-C , 13-H ) :   0.9773 B( 12-C , 14-H ) :   0.9671
B( 12-C , 15-H ) :   0.9699 B( 16-S , 17-C ) :   1.1578 B( 16-S , 20-C ) :   1.1203
B( 17-C , 18-C ) :   1.5898 B( 17-C , 20-C ) :   0.1015 B( 17-C , 33-H ) :   0.9682
B( 18-C , 19-C ) :   1.2525 B( 18-C , 21-H ) :   0.9939 B( 19-C , 20-C ) :   1.6009
B( 19-C , 22-C ) :   1.0385 B( 22-C , 23-H ) :   0.9234 B( 22-C , 24-H ) :   0.9231
B( 22-C , 25-C ) :   1.0709 B( 25-C , 26-H ) :   0.9559 B( 25-C , 27-H ) :   0.9422
B( 25-C , 28-C ) :   1.0774 B( 28-C , 29-H ) :   0.9726 B( 28-C , 30-H ) :   0.9800
B( 28-C , 31-H ) :   0.9737

Dispersion correction           -0.016214981
FINAL SINGLE POINT ENERGY     -1339.866340465897

DIPOLE MOMENT
-------------
                                X             Y             Z
Electronic contribution:     -2.55061      24.72398      15.87616
Nuclear contribution   :      2.50864     -25.25234     -16.38051
                        -----------------------------------------
Total Dipole Moment    :     -0.04196      -0.52835      -0.50435
                        -----------------------------------------
Magnitude (a.u.)       :      0.73163
Magnitude (Debye)      :      1.85966

Rotational constants in cm-1:     0.021245     0.009566     0.007572
Rotational constants in MHz :   636.922445   286.795942   227.002288

                             ****ORCA TERMINATED NORMALLY****
TOTAL RUN TIME: 0 days 0 hours 0 minutes 31 seconds 756 msec
