                         Program Version 4.2.1 -  RELEASE  -
|  1> ! wB97X-D3 SP def2-SVP
|  2> %pal
|  3> nprocs 16
|  4> end
|  5>
|  6> * xyz 0 1
|  7> S 	 43.3878 	 21.5036 	 82.0682
|  8> C 	 41.6805 	 21.802 	 82.4094
|  9> C 	 40.9343 	 21.5594 	 81.2603
| 10> C 	 41.757 	 20.9902 	 80.2342
| 11> C 	 43.063 	 20.8273 	 80.5277
| 12> H 	 41.3525 	 20.6369 	 79.2897
| 13> C 	 39.4216 	 21.8058 	 81.1692
| 14> H 	 38.9004 	 20.9449 	 81.6568
| 15> H 	 38.9668 	 21.7514 	 80.2027
| 16> C 	 39.0622 	 23.1226 	 81.821
| 17> H 	 38.6519 	 23.0396 	 82.8259
| 18> H 	 40.0317 	 23.6264 	 81.8838
| 19> C 	 37.9252 	 23.8757 	 81.1666
| 20> H 	 38.1559 	 24.4064 	 80.2098
| 21> H 	 37.0611 	 23.2235 	 81.0995
| 22> H 	 37.6822 	 24.7722 	 81.8089
| 23> S 	 45.4734 	 21.4909 	 79.4089
| 24> C 	 46.2299 	 20.4221 	 78.3572
| 25> C 	 45.4182 	 19.3194 	 78.0642
| 26> C 	 44.2182 	 19.2593 	 78.7886
| 27> C 	 44.1382 	 20.3731 	 79.617
| 28> H 	 45.7288 	 18.6206 	 77.3551
| 29> C 	 43.2302 	 18.0788 	 78.7792
| 30> H 	 43.5423 	 17.346 	 78.1396
| 31> H 	 42.2955 	 18.4122 	 78.3191
| 32> C 	 42.9723 	 17.3786 	 80.1461
| 33> H 	 42.1439 	 16.6528 	 80.0164
| 34> H 	 42.7216 	 18.0834 	 80.9129
| 35> C 	 44.1027 	 16.4812 	 80.7405
| 36> H 	 43.6287 	 15.9356 	 81.5532
| 37> H 	 44.8829 	 17.0766 	 81.1024
| 38> H 	 44.436 	 15.7518 	 79.9436
| 39> H 	 41.3284 	 22.3388 	 83.2589
| 40> H 	 47.2164 	 20.7187 	 77.8995
| 41> *
| 42>
| 43>                          ****END OF INPUT****

CARTESIAN COORDINATES (ANGSTROEM)
---------------------------------
  S     43.387800   21.503600   82.068200
  C     41.680500   21.802000   82.409400
  C     40.934300   21.559400   81.260300
  C     41.757000   20.990200   80.234200
  C     43.063000   20.827300   80.527700
  H     41.352500   20.636900   79.289700
  C     39.421600   21.805800   81.169200
  H     38.900400   20.944900   81.656800
  H     38.966800   21.751400   80.202700
  C     39.062200   23.122600   81.821000
  H     38.651900   23.039600   82.825900
  H     40.031700   23.626400   81.883800
  C     37.925200   23.875700   81.166600
  H     38.155900   24.406400   80.209800
  H     37.061100   23.223500   81.099500
  H     37.682200   24.772200   81.808900
  S     45.473400   21.490900   79.408900
  C     46.229900   20.422100   78.357200
  C     45.418200   19.319400   78.064200
  C     44.218200   19.259300   78.788600
  C     44.138200   20.373100   79.617000
  H     45.728800   18.620600   77.355100
  C     43.230200   18.078800   78.779200
  H     43.542300   17.346000   78.139600
  H     42.295500   18.412200   78.319100
  C     42.972300   17.378600   80.146100
  H     42.143900   16.652800   80.016400
  H     42.721600   18.083400   80.912900
  C     44.102700   16.481200   80.740500
  H     43.628700   15.935600   81.553200
  H     44.882900   17.076600   81.102400
  H     44.436000   15.751800   79.943600
  H     41.328400   22.338800   83.258900
  H     47.216400   20.718700   77.899500

 Total Charge           Charge          ....    0
 Multiplicity           Mult            ....    1
 Number of Electrons    NEL             ....  134
 Basis Dimension        Dim             ....  322

ORBITAL ENERGIES
----------------

  NO   OCC          E(Eh)            E(eV)
   0   2.0000     -88.967281     -2420.9228
   1   2.0000     -88.963292     -2420.8142
   2   2.0000     -10.325629      -280.9747
   3   2.0000     -10.323464      -280.9157
   4   2.0000     -10.316785      -280.7340
   5   2.0000     -10.312227      -280.6100
   6   2.0000     -10.304006      -280.3863
   7   2.0000     -10.303940      -280.3845
   8   2.0000     -10.291671      -280.0506
   9   2.0000     -10.290570      -280.0206
  10   2.0000     -10.288923      -279.9758
  11   2.0000     -10.287720      -279.9431
  12   2.0000     -10.283506      -279.8284
  13   2.0000     -10.283157      -279.8189
  14   2.0000     -10.281061      -279.7619
  15   2.0000     -10.273101      -279.5453
  16   2.0000      -8.083304      -219.9579
  17   2.0000      -8.078446      -219.8257
  18   2.0000      -6.041412      -164.3952
  19   2.0000      -6.037579      -164.2909
  20   2.0000      -6.036955      -164.2739
  21   2.0000      -6.034471      -164.2063
  22   2.0000      -6.032852      -164.1623
  23   2.0000      -6.029225      -164.0636
  24   2.0000      -1.012530       -27.5523
  25   2.0000      -0.990215       -26.9451
  26   2.0000      -0.916565       -24.9410
  27   2.0000      -0.905256       -24.6333
  28   2.0000      -0.865612       -23.5545
  29   2.0000      -0.854072       -23.2405
  30   2.0000      -0.844004       -22.9665
  31   2.0000      -0.811750       -22.0888
  32   2.0000      -0.789246       -21.4765
  33   2.0000      -0.773774       -21.0555
  34   2.0000      -0.706637       -19.2286
  35   2.0000      -0.695783       -18.9332
  36   2.0000      -0.680115       -18.5069
  37   2.0000      -0.666574       -18.1384
  38   2.0000      -0.641792       -17.4641
  39   2.0000      -0.615196       -16.7403
  40   2.0000      -0.600653       -16.3446
  41   2.0000      -0.577796       -15.7226
  42   2.0000      -0.562627       -15.3099
  43   2.0000      -0.551883       -15.0175
  44   2.0000      -0.546383       -14.8678
  45   2.0000      -0.527550       -14.3554
  46   2.0000      -0.520020       -14.1505
  47   2.0000      -0.508475       -13.8363
  48   2.0000      -0.503019       -13.6878
  49   2.0000      -0.493689       -13.4340
  50   2.0000      -0.487350       -13.2615
  51   2.0000      -0.484153       -13.1745
  52   2.0000      -0.472241       -12.8503
  53   2.0000      -0.463116       -12.6020
  54   2.0000      -0.457601       -12.4520
  55   2.0000      -0.449687       -12.2366
  56   2.0000      -0.442561       -12.0427
  57   2.0000      -0.438765       -11.9394
  58   2.0000      -0.429096       -11.6763
  59   2.0000      -0.428269       -11.6538
  60   2.0000      -0.419121       -11.4049
  61   2.0000      -0.411507       -11.1977
  62   2.0000      -0.409104       -11.1323
  63   2.0000      -0.344241        -9.3673
  64   2.0000      -0.336860        -9.1664
  65   2.0000      -0.327871        -8.9218
  66   2.0000      -0.292687        -7.9644
  67   0.0000       0.032579         0.8865
  68   0.0000       0.070713         1.9242
  69   0.0000       0.115413         3.1406
  70   0.0000       0.127206         3.4615
  71   0.0000       0.134273         3.6538

MULLIKEN ATOMIC CHARGES
-----------------------
   0 S :    0.097434
   1 C :   -0.119455
   2 C :   -0.113681
   3 C :    0.034756
   4 C :   -0.145523
   5 H :    0.000583
   6 C :    0.106386
   7 H :    0.043729
   8 H :    0.010341
   9 C :   -0.112358
  10 H :    0.030075
  11 H :    0.046162
  12 C :   -0.073302
  13 H :    0.038889
  14 H :    0.038989
  15 H :    0.033192
  16 S :    0.130462
  17 C :   -0.114873
  18 C :   -0.031526
  19 C :   -0.017229
  20 C :   -0.186156
  21 H :   -0.009157
  22 C :    0.148514
  23 H :   -0.019145
  24 H :    0.029607
  25 C :   -0.106090
  26 H :    0.028130
  27 H :    0.045186
  28 C :   -0.048085
  29 H :    0.036166
  30 H :    0.038140
  31 H :    0.032201
  32 H :    0.048975
  33 H :    0.078667
Sum of atomic charges:    0.0000000

LOEWDIN ATOMIC CHARGES
----------------------
   0 S :    0.409640
   1 C :   -0.193838
   2 C :   -0.056364
   3 C :   -0.069861
   4 C :   -0.208937
   5 H :    0.028731
   6 C :   -0.035164
   7 H :    0.042533
   8 H :    0.025506
   9 C :   -0.054798
  10 H :    0.027025
  11 H :    0.027293
  12 C :   -0.070675
  13 H :    0.026570
  14 H :    0.024837
  15 H :    0.032252
  16 S :    0.443383
  17 C :   -0.216885
  18 C :   -0.069052
  19 C :   -0.053407
  20 C :   -0.197356
  21 H :    0.020060
  22 C :   -0.021637
  23 H :    0.015852
  24 H :    0.034921
  25 C :   -0.035453
  26 H :    0.026491
  27 H :    0.022013
  28 C :   -0.058757
  29 H :    0.028312
  30 H :    0.016992
  31 H :    0.027519
  32 H :    0.023021
  33 H :    0.039233

  Mayer bond orders larger than 0.100000
B(  0-S ,  1-C ) :   1.1350 B(  0-S ,  4-C ) :   1.1553 B(  1-C ,  2-C ) :   1.5935
B(  1-C , 32-H ) :   0.9707 B(  2-C ,  3-C ) :   1.2598 B(  2-C ,  6-C ) :   1.0221
B(  3-C ,  4-C ) :   1.5731 B(  3-C ,  5-H ) :   0.9979 B(  4-C , 20-C ) :   1.0128
B(  6-C ,  7-H ) :   0.9260 B(  6-C ,  8-H ) :   0.9495 B(  6-C ,  9-C ) :   1.0450
B(  9-C , 10-H ) :   0.9472 B(  9-C , 11-H ) :   0.9675 B(  9-C , 12-C ) :   1.0930
B( 12-C , 13-H ) :   0.9730 B( 12-C , 14-H ) :   0.9718 B( 12-C , 15-H ) :   0.9741
B( 16-S , 17-C ) :   1.1872 B( 16-S , 20-C ) :   1.1841 B( 17-C , 18-C ) :   1.5473
B( 17-C , 20-C ) :   0.1061 B( 17-C , 33-H ) :   0.9629 B( 18-C , 19-C ) :   1.2803
B( 18-C , 21-H ) :   1.0038 B( 19-C , 20-C ) :   1.5564 B( 19-C , 22-C ) :   1.0346
B( 22-C , 23-H ) :   0.9251 B( 22-C , 24-H ) :   0.9260 B( 22-C , 25-C ) :   1.0679
B( 25-C , 26-H ) :   0.9582 B( 25-C , 27-H ) :   0.9595 B( 25-C , 28-C ) :   1.0733
B( 28-C , 29-H ) :   0.9757 B( 28-C , 30-H ) :   0.9799 B( 28-C , 31-H ) :   0.9755

Dispersion correction           -0.014300678
FINAL SINGLE POINT ENERGY     -1339.873619690906

DIPOLE MOMENT
-------------
                                X             Y             Z
Electronic contribution:     21.41987       7.72251      -1.05562
Nuclear contribution   :    -21.91234      -7.90776       0.79650
                        -----------------------------------------
Total Dipole Moment    :     -0.49247      -0.18526      -0.25912
                        -----------------------------------------
Magnitude (a.u.)       :      0.58651
Magnitude (Debye)      :      1.49078

Rotational constants in cm-1:     0.021883     0.007655     0.006755
Rotational constants in MHz :   656.046300   229.490279   202.510510

                             ****ORCA TERMINATED NORMALLY****
TOTAL RUN TIME: 0 days 0 hours 0 minutes 28 seconds 667 msec
