                         Program Version 4.2.1 -  RELEASE  -
|  1> ! wB97X-D3 SP def2-SVP
|  2> %pal
|  3> nprocs 16
|  4> end
|  5>
|  6> * xyz 0 1
|  7> S 	 -33.7923 	 58.2586 	 113.994
|  8> C 	 -35.348 	 59.0156 	 113.509
|  9> C 	 -36.2279 	 58.0725 	 113.096
| 10> C 	 -35.6256 	 56.7698 	 112.996
| 11> C 	 -34.3343 	 56.6442 	 113.473
| 12> H 	 -36.1735 	 55.861 	 112.677
| 13> C 	 -37.6495 	 58.3141 	 112.494
| 14> H 	 -38.0101 	 59.2754 	 112.886
| 15> H 	 -38.3378 	 57.4529 	 112.811
| 16> C 	 -37.7597 	 58.5385 	 110.963
| 17> H 	 -37.5035 	 57.6876 	 110.363
| 18> H 	 -38.7444 	 58.7287 	 110.643
| 19> C 	 -37.1925 	 59.809 	 110.471
| 20> H 	 -37.7507 	 60.5523 	 111.063
| 21> H 	 -36.1331 	 59.9519 	 110.64
| 22> H 	 -37.3932 	 59.9873 	 109.384
| 23> S 	 -33.0956 	 54.4249 	 112.375
| 24> C 	 -32.1869 	 53.3744 	 113.482
| 25> C 	 -32.2611 	 53.6918 	 114.814
| 26> C 	 -32.9202 	 54.9272 	 114.973
| 27> C 	 -33.5346 	 55.4247 	 113.738
| 28> H 	 -31.8178 	 53.0085 	 115.493
| 29> C 	 -33.0985 	 55.5337 	 116.354
| 30> H 	 -32.6179 	 56.4729 	 116.326
| 31> H 	 -32.4135 	 54.992 	 117.046
| 32> C 	 -34.523 	 55.6716 	 116.845
| 33> H 	 -34.9256 	 54.6284 	 116.595
| 34> H 	 -35.1773 	 56.3637 	 116.312
| 35> C 	 -34.6185 	 55.7182 	 118.388
| 36> H 	 -35.6646 	 55.4837 	 118.749
| 37> H 	 -34.3342 	 56.6933 	 118.782
| 38> H 	 -33.9826 	 54.9544 	 118.755
| 39> H 	 -35.628 	 60.0682 	 113.557
| 40> H 	 -31.9085 	 52.3518 	 113.217
| 41> *
| 42>
| 43>                          ****END OF INPUT****

CARTESIAN COORDINATES (ANGSTROEM)
---------------------------------
  S    -33.792300   58.258600  113.994000
  C    -35.348000   59.015600  113.509000
  C    -36.227900   58.072500  113.096000
  C    -35.625600   56.769800  112.996000
  C    -34.334300   56.644200  113.473000
  H    -36.173500   55.861000  112.677000
  C    -37.649500   58.314100  112.494000
  H    -38.010100   59.275400  112.886000
  H    -38.337800   57.452900  112.811000
  C    -37.759700   58.538500  110.963000
  H    -37.503500   57.687600  110.363000
  H    -38.744400   58.728700  110.643000
  C    -37.192500   59.809000  110.471000
  H    -37.750700   60.552300  111.063000
  H    -36.133100   59.951900  110.640000
  H    -37.393200   59.987300  109.384000
  S    -33.095600   54.424900  112.375000
  C    -32.186900   53.374400  113.482000
  C    -32.261100   53.691800  114.814000
  C    -32.920200   54.927200  114.973000
  C    -33.534600   55.424700  113.738000
  H    -31.817800   53.008500  115.493000
  C    -33.098500   55.533700  116.354000
  H    -32.617900   56.472900  116.326000
  H    -32.413500   54.992000  117.046000
  C    -34.523000   55.671600  116.845000
  H    -34.925600   54.628400  116.595000
  H    -35.177300   56.363700  116.312000
  C    -34.618500   55.718200  118.388000
  H    -35.664600   55.483700  118.749000
  H    -34.334200   56.693300  118.782000
  H    -33.982600   54.954400  118.755000
  H    -35.628000   60.068200  113.557000
  H    -31.908500   52.351800  113.217000

 Total Charge           Charge          ....    0
 Multiplicity           Mult            ....    1
 Number of Electrons    NEL             ....  134
 Basis Dimension        Dim             ....  322

ORBITAL ENERGIES
----------------

  NO   OCC          E(Eh)            E(eV)
   0   2.0000     -88.972917     -2421.0761
   1   2.0000     -88.966246     -2420.8946
   2   2.0000     -10.336704      -281.2760
   3   2.0000     -10.336352      -281.2664
   4   2.0000     -10.320138      -280.8252
   5   2.0000     -10.316280      -280.7203
   6   2.0000     -10.311628      -280.5937
   7   2.0000     -10.307190      -280.4729
   8   2.0000     -10.304406      -280.3971
   9   2.0000     -10.298409      -280.2340
  10   2.0000     -10.293579      -280.1025
  11   2.0000     -10.285742      -279.8893
  12   2.0000     -10.285229      -279.8753
  13   2.0000     -10.277839      -279.6742
  14   2.0000     -10.276761      -279.6449
  15   2.0000     -10.276464      -279.6368
  16   2.0000      -8.086796      -220.0529
  17   2.0000      -8.079542      -219.8555
  18   2.0000      -6.045156      -164.4970
  19   2.0000      -6.041429      -164.3956
  20   2.0000      -6.038367      -164.3123
  21   2.0000      -6.037771      -164.2961
  22   2.0000      -6.034185      -164.1985
  23   2.0000      -6.030099      -164.0873
  24   2.0000      -0.999678       -27.2026
  25   2.0000      -0.980422       -26.6786
  26   2.0000      -0.914797       -24.8929
  27   2.0000      -0.907008       -24.6809
  28   2.0000      -0.873777       -23.7767
  29   2.0000      -0.851319       -23.1656
  30   2.0000      -0.839614       -22.8471
  31   2.0000      -0.815692       -22.1961
  32   2.0000      -0.781154       -21.2563
  33   2.0000      -0.767194       -20.8764
  34   2.0000      -0.709073       -19.2949
  35   2.0000      -0.695372       -18.9220
  36   2.0000      -0.687981       -18.7209
  37   2.0000      -0.659780       -17.9535
  38   2.0000      -0.634572       -17.2676
  39   2.0000      -0.619919       -16.8689
  40   2.0000      -0.592164       -16.1136
  41   2.0000      -0.572218       -15.5708
  42   2.0000      -0.563939       -15.3456
  43   2.0000      -0.552028       -15.0214
  44   2.0000      -0.550555       -14.9814
  45   2.0000      -0.520674       -14.1682
  46   2.0000      -0.513235       -13.9658
  47   2.0000      -0.509599       -13.8669
  48   2.0000      -0.497914       -13.5489
  49   2.0000      -0.495681       -13.4882
  50   2.0000      -0.486672       -13.2430
  51   2.0000      -0.474301       -12.9064
  52   2.0000      -0.469306       -12.7705
  53   2.0000      -0.465621       -12.6702
  54   2.0000      -0.454629       -12.3711
  55   2.0000      -0.451608       -12.2889
  56   2.0000      -0.443836       -12.0774
  57   2.0000      -0.438047       -11.9199
  58   2.0000      -0.433529       -11.7969
  59   2.0000      -0.426567       -11.6075
  60   2.0000      -0.422039       -11.4843
  61   2.0000      -0.407088       -11.0774
  62   2.0000      -0.399923       -10.8825
  63   2.0000      -0.349180        -9.5017
  64   2.0000      -0.333277        -9.0689
  65   2.0000      -0.330936        -9.0052
  66   2.0000      -0.292707        -7.9650
  67   0.0000       0.024627         0.6701
  68   0.0000       0.065106         1.7716
  69   0.0000       0.105818         2.8794
  70   0.0000       0.114581         3.1179
  71   0.0000       0.123705         3.3662

MULLIKEN ATOMIC CHARGES
-----------------------
   0 S :    0.094886
   1 C :   -0.124769
   2 C :   -0.073022
   3 C :    0.017979
   4 C :   -0.141909
   5 H :    0.022502
   6 C :    0.036141
   7 H :    0.014053
   8 H :    0.051228
   9 C :   -0.019283
  10 H :    0.019152
  11 H :    0.012138
  12 C :   -0.078378
  13 H :    0.014556
  14 H :    0.037681
  15 H :    0.043443
  16 S :    0.124156
  17 C :   -0.093163
  18 C :   -0.040005
  19 C :   -0.043479
  20 C :   -0.166516
  21 H :    0.017384
  22 C :    0.100159
  23 H :    0.014949
  24 H :    0.010323
  25 C :   -0.091332
  26 H :    0.027075
  27 H :    0.051966
  28 C :   -0.037983
  29 H :    0.039486
  30 H :    0.034485
  31 H :    0.018556
  32 H :    0.051500
  33 H :    0.056041
Sum of atomic charges:   -0.0000000

LOEWDIN ATOMIC CHARGES
----------------------
   0 S :    0.374427
   1 C :   -0.179435
   2 C :   -0.071625
   3 C :   -0.065809
   4 C :   -0.187359
   5 H :    0.034880
   6 C :   -0.027194
   7 H :    0.026643
   8 H :    0.042133
   9 C :   -0.047254
  10 H :    0.017729
  11 H :    0.024918
  12 C :   -0.064021
  13 H :    0.023173
  14 H :    0.018143
  15 H :    0.033898
  16 S :    0.415165
  17 C :   -0.182307
  18 C :   -0.065750
  19 C :   -0.043795
  20 C :   -0.210380
  21 H :    0.034406
  22 C :   -0.040315
  23 H :    0.022164
  24 H :    0.033259
  25 C :   -0.044338
  26 H :    0.030302
  27 H :    0.027119
  28 C :   -0.061677
  29 H :    0.032289
  30 H :    0.021665
  31 H :    0.017831
  32 H :    0.034001
  33 H :    0.027114

  Mayer bond orders larger than 0.100000
B(  0-S ,  1-C ) :   1.1196 B(  0-S ,  4-C ) :   1.1195 B(  1-C ,  2-C ) :   1.6513
B(  1-C , 32-H ) :   0.9633 B(  2-C ,  3-C ) :   1.2159 B(  2-C ,  6-C ) :   1.0235
B(  3-C ,  4-C ) :   1.6132 B(  3-C ,  5-H ) :   0.9853 B(  4-C , 20-C ) :   1.0296
B(  6-C ,  7-H ) :   0.9406 B(  6-C ,  8-H ) :   0.9426 B(  6-C ,  9-C ) :   1.0720
B(  9-C , 10-H ) :   0.9527 B(  9-C , 11-H ) :   0.9524 B(  9-C , 12-C ) :   1.0665
B( 12-C , 13-H ) :   0.9753 B( 12-C , 14-H ) :   0.9766 B( 12-C , 15-H ) :   0.9723
B( 16-S , 17-C ) :   1.1614 B( 16-S , 20-C ) :   1.1657 B( 17-C , 18-C ) :   1.6135
B( 17-C , 20-C ) :   0.1096 B( 17-C , 33-H ) :   0.9541 B( 18-C , 19-C ) :   1.2666
B( 18-C , 21-H ) :   0.9937 B( 19-C , 20-C ) :   1.5222 B( 19-C , 22-C ) :   1.0482
B( 22-C , 23-H ) :   0.9116 B( 22-C , 24-H ) :   0.9347 B( 22-C , 25-C ) :   1.0488
B( 25-C , 26-H ) :   0.9599 B( 25-C , 27-H ) :   0.9546 B( 25-C , 28-C ) :   1.0785
B( 28-C , 29-H ) :   0.9764 B( 28-C , 30-H ) :   0.9773 B( 28-C , 31-H ) :   0.9749

Dispersion correction           -0.014754959
FINAL SINGLE POINT ENERGY     -1339.859963884473

DIPOLE MOMENT
-------------
                                X             Y             Z
Electronic contribution:     15.95124      -6.97242      -6.61951
Nuclear contribution   :    -16.40358       6.82365       6.75901
                        -----------------------------------------
Total Dipole Moment    :     -0.45234      -0.14876       0.13950
                        -----------------------------------------
Magnitude (a.u.)       :      0.49619
Magnitude (Debye)      :      1.26121

Rotational constants in cm-1:     0.020103     0.008257     0.006693
Rotational constants in MHz :   602.675335   247.543317   200.657001

                             ****ORCA TERMINATED NORMALLY****
TOTAL RUN TIME: 0 days 0 hours 0 minutes 29 seconds 543 msec
