                         Program Version 4.2.1 -  RELEASE  -
|  1> ! wB97X-D3 SP def2-SVP
|  2> %pal
|  3> nprocs 16
|  4> end
|  5>
|  6> * xyz 0 1
|  7> S 	 -5.50228 	 -8.51561 	 83.1546
|  8> C 	 -5.14918 	 -10.2023 	 83.1012
|  9> C 	 -5.09885 	 -10.7498 	 84.3823
| 10> C 	 -5.23888 	 -9.69968 	 85.4134
| 11> C 	 -5.29241 	 -8.42984 	 84.8866
| 12> H 	 -5.27232 	 -9.74843 	 86.4973
| 13> C 	 -5.06475 	 -12.1983 	 84.7396
| 14> H 	 -5.71024 	 -12.6493 	 83.9695
| 15> H 	 -5.59326 	 -12.2108 	 85.6666
| 16> C 	 -3.64131 	 -12.9008 	 84.9679
| 17> H 	 -3.87284 	 -13.9574 	 84.9316
| 18> H 	 -3.02175 	 -12.591 	 84.1308
| 19> C 	 -2.96297 	 -12.6488 	 86.3315
| 20> H 	 -2.08861 	 -13.2871 	 86.4759
| 21> H 	 -2.54138 	 -11.6134 	 86.3499
| 22> H 	 -3.67769 	 -12.7692 	 87.1401
| 23> S 	 -6.72175 	 -6.07727 	 84.993
| 24> C 	 -6.59527 	 -5.1831 	 86.4036
| 25> C 	 -5.66506 	 -5.61059 	 87.2468
| 26> C 	 -4.94577 	 -6.78465 	 86.779
| 27> C 	 -5.43396 	 -7.15373 	 85.5779
| 28> H 	 -5.51514 	 -5.08459 	 88.2274
| 29> C 	 -3.93251 	 -7.62261 	 87.5276
| 30> H 	 -3.19706 	 -6.94631 	 87.9273
| 31> H 	 -3.35076 	 -8.20499 	 86.859
| 32> C 	 -4.47772 	 -8.34145 	 88.7602
| 33> H 	 -5.47487 	 -8.74039 	 88.5407
| 34> H 	 -4.55779 	 -7.59612 	 89.5676
| 35> C 	 -3.45586 	 -9.42306 	 89.244
| 36> H 	 -3.29367 	 -10.1867 	 88.4373
| 37> H 	 -3.85486 	 -9.94073 	 90.1278
| 38> H 	 -2.55071 	 -8.89862 	 89.654
| 39> H 	 -5.01742 	 -10.881 	 82.2398
| 40> H 	 -7.28571 	 -4.291 	 86.5209
| 41> *
| 42>
| 43>                          ****END OF INPUT****

CARTESIAN COORDINATES (ANGSTROEM)
---------------------------------
  S     -5.502280   -8.515610   83.154600
  C     -5.149180  -10.202300   83.101200
  C     -5.098850  -10.749800   84.382300
  C     -5.238880   -9.699680   85.413400
  C     -5.292410   -8.429840   84.886600
  H     -5.272320   -9.748430   86.497300
  C     -5.064750  -12.198300   84.739600
  H     -5.710240  -12.649300   83.969500
  H     -5.593260  -12.210800   85.666600
  C     -3.641310  -12.900800   84.967900
  H     -3.872840  -13.957400   84.931600
  H     -3.021750  -12.591000   84.130800
  C     -2.962970  -12.648800   86.331500
  H     -2.088610  -13.287100   86.475900
  H     -2.541380  -11.613400   86.349900
  H     -3.677690  -12.769200   87.140100
  S     -6.721750   -6.077270   84.993000
  C     -6.595270   -5.183100   86.403600
  C     -5.665060   -5.610590   87.246800
  C     -4.945770   -6.784650   86.779000
  C     -5.433960   -7.153730   85.577900
  H     -5.515140   -5.084590   88.227400
  C     -3.932510   -7.622610   87.527600
  H     -3.197060   -6.946310   87.927300
  H     -3.350760   -8.204990   86.859000
  C     -4.477720   -8.341450   88.760200
  H     -5.474870   -8.740390   88.540700
  H     -4.557790   -7.596120   89.567600
  C     -3.455860   -9.423060   89.244000
  H     -3.293670  -10.186700   88.437300
  H     -3.854860   -9.940730   90.127800
  H     -2.550710   -8.898620   89.654000
  H     -5.017420  -10.881000   82.239800
  H     -7.285710   -4.291000   86.520900

 Total Charge           Charge          ....    0
 Multiplicity           Mult            ....    1
 Number of Electrons    NEL             ....  134
 Basis Dimension        Dim             ....  322

ORBITAL ENERGIES
----------------

  NO   OCC          E(Eh)            E(eV)
   0   2.0000     -88.962236     -2420.7855
   1   2.0000     -88.959506     -2420.7112
   2   2.0000     -10.324833      -280.9530
   3   2.0000     -10.320449      -280.8337
   4   2.0000     -10.312827      -280.6263
   5   2.0000     -10.312719      -280.6233
   6   2.0000     -10.302132      -280.3353
   7   2.0000     -10.301704      -280.3236
   8   2.0000     -10.294104      -280.1168
   9   2.0000     -10.294050      -280.1153
  10   2.0000     -10.293481      -280.0999
  11   2.0000     -10.292874      -280.0834
  12   2.0000     -10.291694      -280.0512
  13   2.0000     -10.290848      -280.0282
  14   2.0000     -10.286455      -279.9087
  15   2.0000     -10.284878      -279.8657
  16   2.0000      -8.077491      -219.7997
  17   2.0000      -8.076280      -219.7667
  18   2.0000      -6.036088      -164.2503
  19   2.0000      -6.034631      -164.2106
  20   2.0000      -6.032013      -164.1394
  21   2.0000      -6.030753      -164.1051
  22   2.0000      -6.028058      -164.0318
  23   2.0000      -6.026811      -163.9979
  24   2.0000      -1.013983       -27.5919
  25   2.0000      -0.986946       -26.8562
  26   2.0000      -0.915441       -24.9104
  27   2.0000      -0.905913       -24.6511
  28   2.0000      -0.870816       -23.6961
  29   2.0000      -0.853228       -23.2175
  30   2.0000      -0.842740       -22.9321
  31   2.0000      -0.815913       -22.2021
  32   2.0000      -0.784594       -21.3499
  33   2.0000      -0.771341       -20.9892
  34   2.0000      -0.705676       -19.2024
  35   2.0000      -0.702006       -19.1025
  36   2.0000      -0.693829       -18.8800
  37   2.0000      -0.659613       -17.9490
  38   2.0000      -0.633739       -17.2449
  39   2.0000      -0.613219       -16.6866
  40   2.0000      -0.598114       -16.2755
  41   2.0000      -0.572323       -15.5737
  42   2.0000      -0.569422       -15.4947
  43   2.0000      -0.544295       -14.8110
  44   2.0000      -0.538945       -14.6654
  45   2.0000      -0.523672       -14.2499
  46   2.0000      -0.519713       -14.1421
  47   2.0000      -0.511302       -13.9132
  48   2.0000      -0.504388       -13.7251
  49   2.0000      -0.495267       -13.4769
  50   2.0000      -0.489208       -13.3120
  51   2.0000      -0.481255       -13.0956
  52   2.0000      -0.472698       -12.8628
  53   2.0000      -0.462654       -12.5895
  54   2.0000      -0.461027       -12.5452
  55   2.0000      -0.452034       -12.3005
  56   2.0000      -0.444933       -12.1072
  57   2.0000      -0.439471       -11.9586
  58   2.0000      -0.436935       -11.8896
  59   2.0000      -0.429359       -11.6834
  60   2.0000      -0.422128       -11.4867
  61   2.0000      -0.415747       -11.3131
  62   2.0000      -0.413177       -11.2431
  63   2.0000      -0.357735        -9.7345
  64   2.0000      -0.332029        -9.0350
  65   2.0000      -0.322289        -8.7699
  66   2.0000      -0.288668        -7.8551
  67   0.0000       0.033863         0.9215
  68   0.0000       0.078115         2.1256
  69   0.0000       0.108877         2.9627
  70   0.0000       0.119838         3.2610
  71   0.0000       0.128611         3.4997

MULLIKEN ATOMIC CHARGES
-----------------------
   0 S :    0.100855
   1 C :   -0.104626
   2 C :   -0.122090
   3 C :    0.030885
   4 C :   -0.154359
   5 H :   -0.010578
   6 C :    0.049802
   7 H :    0.035138
   8 H :    0.014282
   9 C :   -0.049284
  10 H :    0.034398
  11 H :    0.033975
  12 C :   -0.074222
  13 H :    0.042215
  14 H :    0.047970
  15 H :    0.035982
  16 S :    0.095842
  17 C :   -0.102659
  18 C :   -0.043638
  19 C :   -0.066003
  20 C :   -0.111184
  21 H :    0.030822
  22 C :    0.085171
  23 H :    0.011139
  24 H :    0.023420
  25 C :   -0.098130
  26 H :    0.044831
  27 H :    0.032499
  28 C :   -0.068535
  29 H :    0.047406
  30 H :    0.035361
  31 H :    0.042519
  32 H :    0.052477
  33 H :    0.078318
Sum of atomic charges:    0.0000000

LOEWDIN ATOMIC CHARGES
----------------------
   0 S :    0.406352
   1 C :   -0.216435
   2 C :   -0.064654
   3 C :   -0.069254
   4 C :   -0.188341
   5 H :    0.029351
   6 C :   -0.036551
   7 H :    0.036403
   8 H :    0.027436
   9 C :   -0.032283
  10 H :    0.024092
  11 H :    0.024084
  12 C :   -0.069105
  13 H :    0.030088
  14 H :    0.029643
  15 H :    0.022925
  16 S :    0.406131
  17 C :   -0.205188
  18 C :   -0.085322
  19 C :   -0.050499
  20 C :   -0.187274
  21 H :    0.039642
  22 C :   -0.033402
  23 H :    0.031650
  24 H :    0.025871
  25 C :   -0.039583
  26 H :    0.019477
  27 H :    0.026830
  28 C :   -0.071041
  29 H :    0.029845
  30 H :    0.026395
  31 H :    0.033129
  32 H :    0.037222
  33 H :    0.042365

  Mayer bond orders larger than 0.100000
B(  0-S ,  1-C ) :   1.1324 B(  0-S ,  4-C ) :   1.1429 B(  1-C ,  2-C ) :   1.6273
B(  1-C , 32-H ) :   0.9637 B(  2-C ,  3-C ) :   1.2025 B(  2-C ,  6-C ) :   1.0219
B(  3-C ,  4-C ) :   1.5964 B(  3-C ,  5-H ) :   0.9884 B(  4-C , 20-C ) :   1.0276
B(  6-C ,  7-H ) :   0.9441 B(  6-C ,  8-H ) :   0.9404 B(  6-C ,  9-C ) :   1.0478
B(  9-C , 10-H ) :   0.9572 B(  9-C , 11-H ) :   0.9602 B(  9-C , 12-C ) :   1.0787
B( 12-C , 13-H ) :   0.9713 B( 12-C , 14-H ) :   0.9723 B( 12-C , 15-H ) :   0.9747
B( 16-S , 17-C ) :   1.1597 B( 16-S , 20-C ) :   1.1176 B( 17-C , 18-C ) :   1.6485
B( 17-C , 33-H ) :   0.9552 B( 18-C , 19-C ) :   1.1852 B( 18-C , 21-H ) :   0.9893
B( 19-C , 20-C ) :   1.6679 B( 19-C , 22-C ) :   1.0585 B( 22-C , 23-H ) :   0.9151
B( 22-C , 24-H ) :   0.9396 B( 22-C , 25-C ) :   1.0420 B( 25-C , 26-H ) :   0.9597
B( 25-C , 27-H ) :   0.9503 B( 25-C , 28-C ) :   1.0819 B( 28-C , 29-H ) :   0.9734
B( 28-C , 30-H ) :   0.9735 B( 28-C , 31-H ) :   0.9716

Dispersion correction           -0.015299435
FINAL SINGLE POINT ENERGY     -1339.879294428502

DIPOLE MOMENT
-------------
                                X             Y             Z
Electronic contribution:    -14.52853      21.59544     -19.92557
Nuclear contribution   :     14.69187     -21.99086      20.59864
                        -----------------------------------------
Total Dipole Moment    :      0.16333      -0.39542       0.67306
                        -----------------------------------------
Magnitude (a.u.)       :      0.79753
Magnitude (Debye)      :      2.02715

Rotational constants in cm-1:     0.018020     0.010436     0.006912
Rotational constants in MHz :   540.220094   312.854418   207.227739

                             ****ORCA TERMINATED NORMALLY****
TOTAL RUN TIME: 0 days 0 hours 0 minutes 35 seconds 724 msec
