                         Program Version 4.2.1 -  RELEASE  -
|  1> ! wB97X-D3 SP def2-SVP
|  2> %pal
|  3> nprocs 16
|  4> end
|  5>
|  6> * xyz 0 1
|  7> S 	 57.4557 	 25.729 	 39.164
|  8> C 	 57.6987 	 27.4414 	 39.0959
|  9> C 	 56.7899 	 28.1389 	 39.8391
| 10> C 	 56.144 	 27.1576 	 40.6723
| 11> C 	 56.5422 	 25.8493 	 40.5716
| 12> H 	 55.5805 	 27.3708 	 41.5896
| 13> C 	 56.6588 	 29.6605 	 39.8985
| 14> H 	 57.6595 	 30.1424 	 39.9775
| 15> H 	 56.1414 	 29.8491 	 40.8086
| 16> C 	 55.8032 	 30.3959 	 38.7893
| 17> H 	 56.166 	 30.114 	 37.8136
| 18> H 	 54.7502 	 30.0475 	 38.8906
| 19> C 	 55.9407 	 31.9819 	 38.8265
| 20> H 	 55.6002 	 32.4094 	 39.7897
| 21> H 	 56.9538 	 32.2835 	 38.6751
| 22> H 	 55.2893 	 32.5423 	 38.135
| 23> S 	 57.1706 	 23.9113 	 42.4741
| 24> C 	 55.9886 	 22.694 	 42.7491
| 25> C 	 54.7134 	 23.0065 	 42.2836
| 26> C 	 54.715 	 24.2731 	 41.5826
| 27> C 	 56.0274 	 24.7516 	 41.3812
| 28> H 	 53.8627 	 22.3305 	 42.4086
| 29> C 	 53.3944 	 24.8134 	 41.0289
| 30> H 	 52.7339 	 23.9467 	 40.8522
| 31> H 	 53.5996 	 25.1356 	 40.0259
| 32> C 	 52.7925 	 25.8848 	 41.8444
| 33> H 	 53.6697 	 26.5795 	 41.9862
| 34> H 	 52.5562 	 25.5874 	 42.8403
| 35> C 	 51.5802 	 26.6628 	 41.2485
| 36> H 	 50.7027 	 26.0706 	 41.0547
| 37> H 	 51.9105 	 26.9621 	 40.2555
| 38> H 	 51.3462 	 27.6011 	 41.8723
| 39> H 	 58.2454 	 27.9476 	 38.3662
| 40> H 	 56.1942 	 21.8571 	 43.4427
| 41> *
| 42>
| 43>                          ****END OF INPUT****

CARTESIAN COORDINATES (ANGSTROEM)
---------------------------------
  S     57.455700   25.729000   39.164000
  C     57.698700   27.441400   39.095900
  C     56.789900   28.138900   39.839100
  C     56.144000   27.157600   40.672300
  C     56.542200   25.849300   40.571600
  H     55.580500   27.370800   41.589600
  C     56.658800   29.660500   39.898500
  H     57.659500   30.142400   39.977500
  H     56.141400   29.849100   40.808600
  C     55.803200   30.395900   38.789300
  H     56.166000   30.114000   37.813600
  H     54.750200   30.047500   38.890600
  C     55.940700   31.981900   38.826500
  H     55.600200   32.409400   39.789700
  H     56.953800   32.283500   38.675100
  H     55.289300   32.542300   38.135000
  S     57.170600   23.911300   42.474100
  C     55.988600   22.694000   42.749100
  C     54.713400   23.006500   42.283600
  C     54.715000   24.273100   41.582600
  C     56.027400   24.751600   41.381200
  H     53.862700   22.330500   42.408600
  C     53.394400   24.813400   41.028900
  H     52.733900   23.946700   40.852200
  H     53.599600   25.135600   40.025900
  C     52.792500   25.884800   41.844400
  H     53.669700   26.579500   41.986200
  H     52.556200   25.587400   42.840300
  C     51.580200   26.662800   41.248500
  H     50.702700   26.070600   41.054700
  H     51.910500   26.962100   40.255500
  H     51.346200   27.601100   41.872300
  H     58.245400   27.947600   38.366200
  H     56.194200   21.857100   43.442700

 Total Charge           Charge          ....    0
 Multiplicity           Mult            ....    1
 Number of Electrons    NEL             ....  134
 Basis Dimension        Dim             ....  322

ORBITAL ENERGIES
----------------

  NO   OCC          E(Eh)            E(eV)
   0   2.0000     -88.965840     -2420.8836
   1   2.0000     -88.963418     -2420.8177
   2   2.0000     -10.330662      -281.1116
   3   2.0000     -10.320146      -280.8255
   4   2.0000     -10.318835      -280.7898
   5   2.0000     -10.311142      -280.5804
   6   2.0000     -10.305338      -280.4225
   7   2.0000     -10.302457      -280.3441
   8   2.0000     -10.299673      -280.2683
   9   2.0000     -10.298543      -280.2376
  10   2.0000     -10.297248      -280.2024
  11   2.0000     -10.290677      -280.0235
  12   2.0000     -10.289030      -279.9787
  13   2.0000     -10.286068      -279.8981
  14   2.0000     -10.284640      -279.8593
  15   2.0000     -10.284452      -279.8542
  16   2.0000      -8.080705      -219.8872
  17   2.0000      -8.079865      -219.8643
  18   2.0000      -6.039041      -164.3307
  19   2.0000      -6.038159      -164.3066
  20   2.0000      -6.035367      -164.2307
  21   2.0000      -6.034302      -164.2017
  22   2.0000      -6.031470      -164.1246
  23   2.0000      -6.030544      -164.0995
  24   2.0000      -1.014029       -27.5931
  25   2.0000      -0.986101       -26.8332
  26   2.0000      -0.913531       -24.8584
  27   2.0000      -0.905121       -24.6296
  28   2.0000      -0.867402       -23.6032
  29   2.0000      -0.848374       -23.0854
  30   2.0000      -0.844952       -22.9923
  31   2.0000      -0.809679       -22.0325
  32   2.0000      -0.786228       -21.3943
  33   2.0000      -0.775693       -21.1077
  34   2.0000      -0.705815       -19.2062
  35   2.0000      -0.705153       -19.1882
  36   2.0000      -0.691689       -18.8218
  37   2.0000      -0.658530       -17.9195
  38   2.0000      -0.644373       -17.5343
  39   2.0000      -0.614051       -16.7092
  40   2.0000      -0.594891       -16.1878
  41   2.0000      -0.571255       -15.5446
  42   2.0000      -0.564609       -15.3638
  43   2.0000      -0.558208       -15.1896
  44   2.0000      -0.528028       -14.3684
  45   2.0000      -0.521472       -14.1900
  46   2.0000      -0.515674       -14.0322
  47   2.0000      -0.509184       -13.8556
  48   2.0000      -0.502249       -13.6669
  49   2.0000      -0.500292       -13.6136
  50   2.0000      -0.492882       -13.4120
  51   2.0000      -0.477244       -12.9865
  52   2.0000      -0.471084       -12.8189
  53   2.0000      -0.463750       -12.6193
  54   2.0000      -0.459859       -12.5134
  55   2.0000      -0.450267       -12.2524
  56   2.0000      -0.444109       -12.0848
  57   2.0000      -0.440889       -11.9972
  58   2.0000      -0.436710       -11.8835
  59   2.0000      -0.428177       -11.6513
  60   2.0000      -0.421030       -11.4568
  61   2.0000      -0.419238       -11.4080
  62   2.0000      -0.406697       -11.0668
  63   2.0000      -0.334531        -9.1031
  64   2.0000      -0.333443        -9.0734
  65   2.0000      -0.325423        -8.8552
  66   2.0000      -0.301763        -8.2114
  67   0.0000       0.030764         0.8371
  68   0.0000       0.064136         1.7452
  69   0.0000       0.107252         2.9185
  70   0.0000       0.115074         3.1313
  71   0.0000       0.130472         3.5503

MULLIKEN ATOMIC CHARGES
-----------------------
   0 S :    0.128616
   1 C :   -0.086294
   2 C :   -0.079248
   3 C :   -0.001714
   4 C :   -0.156807
   5 H :    0.029467
   6 C :    0.060077
   7 H :    0.041244
   8 H :    0.012873
   9 C :   -0.069400
  10 H :    0.027311
  11 H :    0.041828
  12 C :   -0.063635
  13 H :    0.026603
  14 H :    0.031613
  15 H :    0.039579
  16 S :    0.117576
  17 C :   -0.096756
  18 C :   -0.044348
  19 C :   -0.034461
  20 C :   -0.205670
  21 H :    0.030435
  22 C :    0.097845
  23 H :    0.015770
  24 H :    0.017177
  25 C :   -0.064835
  26 H :    0.015080
  27 H :    0.017093
  28 C :   -0.040778
  29 H :    0.033178
  30 H :    0.019472
  31 H :    0.053731
  32 H :    0.018955
  33 H :    0.068422
Sum of atomic charges:   -0.0000000

LOEWDIN ATOMIC CHARGES
----------------------
   0 S :    0.441134
   1 C :   -0.184434
   2 C :   -0.064480
   3 C :   -0.069383
   4 C :   -0.231340
   5 H :    0.026440
   6 C :   -0.030754
   7 H :    0.037705
   8 H :    0.026171
   9 C :   -0.033590
  10 H :    0.017952
  11 H :    0.028930
  12 C :   -0.069936
  13 H :    0.025058
  14 H :    0.020640
  15 H :    0.030600
  16 S :    0.405679
  17 C :   -0.193850
  18 C :   -0.076976
  19 C :   -0.035720
  20 C :   -0.195532
  21 H :    0.035650
  22 C :   -0.032943
  23 H :    0.028353
  24 H :    0.029280
  25 C :   -0.045484
  26 H :    0.029391
  27 H :    0.017614
  28 C :   -0.066367
  29 H :    0.021479
  30 H :    0.022690
  31 H :    0.039581
  32 H :    0.013835
  33 H :    0.032605

  Mayer bond orders larger than 0.100000
B(  0-S ,  1-C ) :   1.1599 B(  0-S ,  4-C ) :   1.1565 B(  1-C ,  2-C ) :   1.6051
B(  1-C , 32-H ) :   0.9727 B(  2-C ,  3-C ) :   1.2487 B(  2-C ,  6-C ) :   1.0188
B(  3-C ,  4-C ) :   1.5832 B(  3-C ,  5-H ) :   0.9773 B(  4-C , 20-C ) :   1.0406
B(  6-C ,  7-H ) :   0.9489 B(  6-C ,  8-H ) :   0.9376 B(  6-C ,  9-C ) :   1.0503
B(  9-C , 10-H ) :   0.9638 B(  9-C , 11-H ) :   0.9590 B(  9-C , 12-C ) :   1.0665
B( 12-C , 13-H ) :   0.9776 B( 12-C , 14-H ) :   0.9777 B( 12-C , 15-H ) :   0.9770
B( 16-S , 17-C ) :   1.1693 B( 16-S , 20-C ) :   1.1383 B( 17-C , 18-C ) :   1.6018
B( 17-C , 20-C ) :   0.1004 B( 17-C , 33-H ) :   0.9610 B( 18-C , 19-C ) :   1.2398
B( 18-C , 21-H ) :   0.9881 B( 19-C , 20-C ) :   1.5902 B( 19-C , 22-C ) :   1.0410
B( 22-C , 23-H ) :   0.9337 B( 22-C , 24-H ) :   0.9231 B( 22-C , 25-C ) :   1.0647
B( 25-C , 26-H ) :   0.9479 B( 25-C , 27-H ) :   0.9503 B( 25-C , 28-C ) :   1.0765
B( 28-C , 29-H ) :   0.9760 B( 28-C , 30-H ) :   0.9727 B( 28-C , 31-H ) :   0.9741

Dispersion correction           -0.014044007
FINAL SINGLE POINT ENERGY     -1339.860597931685

DIPOLE MOMENT
-------------
                                X             Y             Z
Electronic contribution:     19.60479     -24.50369       3.87127
Nuclear contribution   :    -20.09346      24.90996      -3.85050
                        -----------------------------------------
Total Dipole Moment    :     -0.48866       0.40627       0.02077
                        -----------------------------------------
Magnitude (a.u.)       :      0.63583
Magnitude (Debye)      :      1.61615

Rotational constants in cm-1:     0.018927     0.008182     0.006254
Rotational constants in MHz :   567.417840   245.284180   187.503635

                             ****ORCA TERMINATED NORMALLY****
TOTAL RUN TIME: 0 days 0 hours 0 minutes 29 seconds 338 msec
