                         Program Version 4.2.1 -  RELEASE  -
|  1> ! wB97X-D3 SP def2-SVP
|  2> %pal
|  3> nprocs 16
|  4> end
|  5>
|  6> * xyz 0 1
|  7> S 	 -2.85513 	 -12.0053 	 86.404
|  8> C 	 -2.40052 	 -13.4915 	 87.2097
|  9> C 	 -1.40435 	 -13.2708 	 88.1521
| 10> C 	 -1.06974 	 -11.8576 	 88.3042
| 11> C 	 -1.6693 	 -11.0652 	 87.3376
| 12> H 	 -0.486546 	 -11.4194 	 89.1157
| 13> C 	 -0.771751 	 -14.3783 	 89.0203
| 14> H 	 0.0304911 	 -14.758 	 88.4092
| 15> H 	 -1.4527 	 -15.1785 	 89.1149
| 16> C 	 -0.188143 	 -13.956 	 90.3838
| 17> H 	 0.526457 	 -13.1292 	 90.3315
| 18> H 	 -0.953009 	 -13.6365 	 91.1318
| 19> C 	 0.531101 	 -15.201 	 90.9697
| 20> H 	 1.48931 	 -15.2863 	 90.3906
| 21> H 	 0.781211 	 -15.0204 	 91.9916
| 22> H 	 -0.0768164 	 -15.9988 	 90.9715
| 23> S 	 0.187091 	 -9.01306 	 87.2925
| 24> C 	 -0.341867 	 -7.37507 	 87.4747
| 25> C 	 -1.67615 	 -7.28088 	 87.1199
| 26> C 	 -2.34482 	 -8.55974 	 86.8997
| 27> C 	 -1.46745 	 -9.62352 	 87.1215
| 28> H 	 -2.18647 	 -6.34102 	 87.1284
| 29> C 	 -3.76866 	 -8.63774 	 86.5348
| 30> H 	 -4.02303 	 -9.52646 	 85.9444
| 31> H 	 -3.84168 	 -7.78376 	 85.7372
| 32> C 	 -4.87417 	 -8.46825 	 87.6282
| 33> H 	 -4.4792 	 -7.59936 	 88.2057
| 34> H 	 -4.79238 	 -9.26145 	 88.3901
| 35> C 	 -6.29668 	 -8.09251 	 87.1575
| 36> H 	 -7.00988 	 -7.92674 	 88.0081
| 37> H 	 -6.81226 	 -8.79332 	 86.5484
| 38> H 	 -6.37688 	 -7.21603 	 86.5333
| 39> H 	 -2.66545 	 -14.4323 	 86.8625
| 40> H 	 0.28306 	 -6.48589 	 87.6998
| 41> *
| 42>
| 43>                          ****END OF INPUT****

CARTESIAN COORDINATES (ANGSTROEM)
---------------------------------
  S     -2.855130  -12.005300   86.404000
  C     -2.400520  -13.491500   87.209700
  C     -1.404350  -13.270800   88.152100
  C     -1.069740  -11.857600   88.304200
  C     -1.669300  -11.065200   87.337600
  H     -0.486546  -11.419400   89.115700
  C     -0.771751  -14.378300   89.020300
  H      0.030491  -14.758000   88.409200
  H     -1.452700  -15.178500   89.114900
  C     -0.188143  -13.956000   90.383800
  H      0.526457  -13.129200   90.331500
  H     -0.953009  -13.636500   91.131800
  C      0.531101  -15.201000   90.969700
  H      1.489310  -15.286300   90.390600
  H      0.781211  -15.020400   91.991600
  H     -0.076816  -15.998800   90.971500
  S      0.187091   -9.013060   87.292500
  C     -0.341867   -7.375070   87.474700
  C     -1.676150   -7.280880   87.119900
  C     -2.344820   -8.559740   86.899700
  C     -1.467450   -9.623520   87.121500
  H     -2.186470   -6.341020   87.128400
  C     -3.768660   -8.637740   86.534800
  H     -4.023030   -9.526460   85.944400
  H     -3.841680   -7.783760   85.737200
  C     -4.874170   -8.468250   87.628200
  H     -4.479200   -7.599360   88.205700
  H     -4.792380   -9.261450   88.390100
  C     -6.296680   -8.092510   87.157500
  H     -7.009880   -7.926740   88.008100
  H     -6.812260   -8.793320   86.548400
  H     -6.376880   -7.216030   86.533300
  H     -2.665450  -14.432300   86.862500
  H      0.283060   -6.485890   87.699800

 Total Charge           Charge          ....    0
 Multiplicity           Mult            ....    1
 Number of Electrons    NEL             ....  134
 Basis Dimension        Dim             ....  322

ORBITAL ENERGIES
----------------

  NO   OCC          E(Eh)            E(eV)
   0   2.0000     -88.965183     -2420.8657
   1   2.0000     -88.964949     -2420.8593
   2   2.0000     -10.335029      -281.2304
   3   2.0000     -10.330593      -281.1097
   4   2.0000     -10.319618      -280.8111
   5   2.0000     -10.308561      -280.5102
   6   2.0000     -10.306195      -280.4458
   7   2.0000     -10.305275      -280.4208
   8   2.0000     -10.297997      -280.2228
   9   2.0000     -10.297968      -280.2220
  10   2.0000     -10.294869      -280.1376
  11   2.0000     -10.293875      -280.1106
  12   2.0000     -10.291721      -280.0520
  13   2.0000     -10.290771      -280.0261
  14   2.0000     -10.279523      -279.7200
  15   2.0000     -10.271452      -279.5004
  16   2.0000      -8.079523      -219.8550
  17   2.0000      -8.079099      -219.8435
  18   2.0000      -6.038145      -164.3063
  19   2.0000      -6.037747      -164.2954
  20   2.0000      -6.034053      -164.1949
  21   2.0000      -6.033696      -164.1852
  22   2.0000      -6.030163      -164.0891
  23   2.0000      -6.029810      -164.0795
  24   2.0000      -1.001443       -27.2507
  25   2.0000      -0.979327       -26.6488
  26   2.0000      -0.909841       -24.7580
  27   2.0000      -0.903439       -24.5838
  28   2.0000      -0.868689       -23.6382
  29   2.0000      -0.849763       -23.1232
  30   2.0000      -0.843294       -22.9472
  31   2.0000      -0.813542       -22.1376
  32   2.0000      -0.782123       -21.2826
  33   2.0000      -0.770528       -20.9671
  34   2.0000      -0.713766       -19.4226
  35   2.0000      -0.703235       -19.1360
  36   2.0000      -0.687359       -18.7040
  37   2.0000      -0.665727       -18.1153
  38   2.0000      -0.636060       -17.3081
  39   2.0000      -0.616302       -16.7704
  40   2.0000      -0.595171       -16.1954
  41   2.0000      -0.573380       -15.6025
  42   2.0000      -0.565367       -15.3844
  43   2.0000      -0.549093       -14.9416
  44   2.0000      -0.528346       -14.3770
  45   2.0000      -0.521389       -14.1877
  46   2.0000      -0.515746       -14.0342
  47   2.0000      -0.514530       -14.0011
  48   2.0000      -0.505720       -13.7613
  49   2.0000      -0.496430       -13.5085
  50   2.0000      -0.491603       -13.3772
  51   2.0000      -0.481213       -13.0945
  52   2.0000      -0.471401       -12.8275
  53   2.0000      -0.459984       -12.5168
  54   2.0000      -0.457762       -12.4563
  55   2.0000      -0.452825       -12.3220
  56   2.0000      -0.447631       -12.1807
  57   2.0000      -0.439986       -11.9726
  58   2.0000      -0.435918       -11.8619
  59   2.0000      -0.428462       -11.6591
  60   2.0000      -0.418785       -11.3957
  61   2.0000      -0.413692       -11.2571
  62   2.0000      -0.400827       -10.9071
  63   2.0000      -0.351394        -9.5619
  64   2.0000      -0.328954        -8.9513
  65   2.0000      -0.325040        -8.8448
  66   2.0000      -0.286792        -7.8040
  67   0.0000       0.022550         0.6136
  68   0.0000       0.080024         2.1776
  69   0.0000       0.104259         2.8370
  70   0.0000       0.114515         3.1161
  71   0.0000       0.127579         3.4716

MULLIKEN ATOMIC CHARGES
-----------------------
   0 S :    0.090348
   1 C :   -0.088816
   2 C :   -0.092510
   3 C :   -0.007186
   4 C :   -0.124527
   5 H :    0.030889
   6 C :    0.089371
   7 H :    0.033377
   8 H :    0.013430
   9 C :   -0.126075
  10 H :    0.037927
  11 H :    0.040379
  12 C :   -0.001843
  13 H :    0.041769
  14 H :    0.019514
  15 H :    0.009051
  16 S :    0.106177
  17 C :   -0.106707
  18 C :   -0.029451
  19 C :   -0.015548
  20 C :   -0.148107
  21 H :    0.014163
  22 C :   -0.015139
  23 H :    0.033072
  24 H :    0.040323
  25 C :   -0.046398
  26 H :    0.020113
  27 H :    0.040135
  28 C :   -0.037987
  29 H :    0.039829
  30 H :    0.020146
  31 H :    0.022501
  32 H :    0.023584
  33 H :    0.074194
Sum of atomic charges:    0.0000000

LOEWDIN ATOMIC CHARGES
----------------------
   0 S :    0.394913
   1 C :   -0.192807
   2 C :   -0.052746
   3 C :   -0.070121
   4 C :   -0.179717
   5 H :    0.033468
   6 C :   -0.027660
   7 H :    0.035288
   8 H :    0.024360
   9 C :   -0.040256
  10 H :    0.022453
  11 H :    0.027064
  12 C :   -0.049357
  13 H :    0.034154
  14 H :    0.022707
  15 H :    0.006239
  16 S :    0.406734
  17 C :   -0.199728
  18 C :   -0.068681
  19 C :   -0.061544
  20 C :   -0.186760
  21 H :    0.026379
  22 C :   -0.049553
  23 H :    0.020155
  24 H :    0.045738
  25 C :   -0.043068
  26 H :    0.026871
  27 H :    0.030404
  28 C :   -0.071004
  29 H :    0.036203
  30 H :    0.019321
  31 H :    0.024979
  32 H :    0.013979
  33 H :    0.041592

  Mayer bond orders larger than 0.100000
B(  0-S ,  1-C ) :   1.1221 B(  0-S ,  4-C ) :   1.1447 B(  1-C ,  2-C ) :   1.6398
B(  1-C , 32-H ) :   0.9764 B(  2-C ,  3-C ) :   1.2209 B(  2-C ,  6-C ) :   1.0032
B(  3-C ,  4-C ) :   1.5786 B(  3-C ,  5-H ) :   0.9846 B(  4-C , 20-C ) :   1.0525
B(  6-C ,  7-H ) :   0.9321 B(  6-C ,  8-H ) :   0.9461 B(  6-C ,  9-C ) :   1.0705
B(  9-C , 10-H ) :   0.9511 B(  9-C , 11-H ) :   0.9594 B(  9-C , 12-C ) :   1.0848
B( 12-C , 13-H ) :   0.9777 B( 12-C , 14-H ) :   0.9713 B( 12-C , 15-H ) :   0.9755
B( 16-S , 17-C ) :   1.1468 B( 16-S , 20-C ) :   1.1388 B( 17-C , 18-C ) :   1.6101
B( 17-C , 33-H ) :   0.9638 B( 18-C , 19-C ) :   1.2349 B( 18-C , 21-H ) :   0.9898
B( 19-C , 20-C ) :   1.5670 B( 19-C , 22-C ) :   1.0520 B( 22-C , 23-H ) :   0.9368
B( 22-C , 24-H ) :   0.9340 B( 22-C , 25-C ) :   1.0439 B( 25-C , 26-H ) :   0.9561
B( 25-C , 27-H ) :   0.9553 B( 25-C , 28-C ) :   1.0690 B( 28-C , 29-H ) :   0.9740
B( 28-C , 30-H ) :   0.9769 B( 28-C , 31-H ) :   0.9735

Dispersion correction           -0.013571356
FINAL SINGLE POINT ENERGY     -1339.868899298858

DIPOLE MOMENT
-------------
                                X             Y             Z
Electronic contribution:      8.28062       5.87762     -12.62285
Nuclear contribution   :     -8.37868      -5.91775      12.99523
                        -----------------------------------------
Total Dipole Moment    :     -0.09806      -0.04013       0.37239
                        -----------------------------------------
Magnitude (a.u.)       :      0.38717
Magnitude (Debye)      :      0.98410

Rotational constants in cm-1:     0.019229     0.007651     0.006249
Rotational constants in MHz :   576.463017   229.383287   187.348937

                             ****ORCA TERMINATED NORMALLY****
TOTAL RUN TIME: 0 days 0 hours 0 minutes 30 seconds 771 msec
