                         Program Version 4.2.1 -  RELEASE  -
|  1> ! wB97X-D3 SP def2-SVP
|  2> %pal
|  3> nprocs 16
|  4> end
|  5>
|  6> * xyz 0 1
|  7> S 	 -104.82 	 51.6026 	 115.865
|  8> C 	 -106.195 	 50.6913 	 116.364
|  9> C 	 -106.753 	 51.2161 	 117.501
| 10> C 	 -106.106 	 52.3869 	 117.917
| 11> C 	 -105.096 	 52.8434 	 117.076
| 12> H 	 -106.435 	 52.8973 	 118.833
| 13> C 	 -107.944 	 50.5657 	 118.23
| 14> H 	 -108.066 	 51.082 	 119.249
| 15> H 	 -107.664 	 49.516 	 118.433
| 16> C 	 -109.26 	 50.6662 	 117.45
| 17> H 	 -109.141 	 50.127 	 116.57
| 18> H 	 -110.051 	 50.0678 	 118.047
| 19> C 	 -109.86 	 52.1157 	 117.281
| 20> H 	 -110.835 	 51.8754 	 116.735
| 21> H 	 -110.053 	 52.5277 	 118.325
| 22> H 	 -109.313 	 52.8856 	 116.677
| 23> S 	 -102.571 	 53.7942 	 117.143
| 24> C 	 -102.196 	 55.3801 	 117.734
| 25> C 	 -103.331 	 56.1164 	 117.865
| 26> C 	 -104.575 	 55.402 	 117.595
| 27> C 	 -104.309 	 54.076 	 117.245
| 28> H 	 -103.295 	 57.1415 	 118.306
| 29> C 	 -105.943 	 55.9311 	 117.822
| 30> H 	 -105.985 	 56.0128 	 118.97
| 31> H 	 -106.697 	 55.2038 	 117.435
| 32> C 	 -106.33 	 57.3523 	 117.366
| 33> H 	 -105.928 	 58.2078 	 117.903
| 34> H 	 -107.398 	 57.4048 	 117.382
| 35> C 	 -105.734 	 57.562 	 115.973
| 36> H 	 -106.017 	 56.7368 	 115.422
| 37> H 	 -104.629 	 57.5199 	 115.973
| 38> H 	 -106.183 	 58.3295 	 115.344
| 39> H 	 -106.427 	 49.721 	 115.938
| 40> H 	 -101.229 	 55.6997 	 117.997
| 41> *
| 42>
| 43>                          ****END OF INPUT****

CARTESIAN COORDINATES (ANGSTROEM)
---------------------------------
  S    -104.820000   51.602600  115.865000
  C    -106.195000   50.691300  116.364000
  C    -106.753000   51.216100  117.501000
  C    -106.106000   52.386900  117.917000
  C    -105.096000   52.843400  117.076000
  H    -106.435000   52.897300  118.833000
  C    -107.944000   50.565700  118.230000
  H    -108.066000   51.082000  119.249000
  H    -107.664000   49.516000  118.433000
  C    -109.260000   50.666200  117.450000
  H    -109.141000   50.127000  116.570000
  H    -110.051000   50.067800  118.047000
  C    -109.860000   52.115700  117.281000
  H    -110.835000   51.875400  116.735000
  H    -110.053000   52.527700  118.325000
  H    -109.313000   52.885600  116.677000
  S    -102.571000   53.794200  117.143000
  C    -102.196000   55.380100  117.734000
  C    -103.331000   56.116400  117.865000
  C    -104.575000   55.402000  117.595000
  C    -104.309000   54.076000  117.245000
  H    -103.295000   57.141500  118.306000
  C    -105.943000   55.931100  117.822000
  H    -105.985000   56.012800  118.970000
  H    -106.697000   55.203800  117.435000
  C    -106.330000   57.352300  117.366000
  H    -105.928000   58.207800  117.903000
  H    -107.398000   57.404800  117.382000
  C    -105.734000   57.562000  115.973000
  H    -106.017000   56.736800  115.422000
  H    -104.629000   57.519900  115.973000
  H    -106.183000   58.329500  115.344000
  H    -106.427000   49.721000  115.938000
  H    -101.229000   55.699700  117.997000

 Total Charge           Charge          ....    0
 Multiplicity           Mult            ....    1
 Number of Electrons    NEL             ....  134
 Basis Dimension        Dim             ....  322

ORBITAL ENERGIES
----------------

  NO   OCC          E(Eh)            E(eV)
   0   2.0000     -88.967246     -2420.9218
   1   2.0000     -88.960293     -2420.7326
   2   2.0000     -10.333244      -281.1819
   3   2.0000     -10.330347      -281.1030
   4   2.0000     -10.314827      -280.6807
   5   2.0000     -10.310567      -280.5648
   6   2.0000     -10.309961      -280.5483
   7   2.0000     -10.300384      -280.2877
   8   2.0000     -10.300301      -280.2854
   9   2.0000     -10.299043      -280.2512
  10   2.0000     -10.295867      -280.1648
  11   2.0000     -10.295768      -280.1621
  12   2.0000     -10.294024      -280.1146
  13   2.0000     -10.293000      -280.0868
  14   2.0000     -10.285160      -279.8734
  15   2.0000     -10.263717      -279.2900
  16   2.0000      -8.082231      -219.9287
  17   2.0000      -8.075674      -219.7503
  18   2.0000      -6.040754      -164.3773
  19   2.0000      -6.036599      -164.2642
  20   2.0000      -6.034220      -164.1995
  21   2.0000      -6.033065      -164.1680
  22   2.0000      -6.030097      -164.0873
  23   2.0000      -6.026340      -163.9851
  24   2.0000      -1.008688       -27.4478
  25   2.0000      -0.988045       -26.8861
  26   2.0000      -0.914236       -24.8776
  27   2.0000      -0.906078       -24.6556
  28   2.0000      -0.869037       -23.6477
  29   2.0000      -0.849604       -23.1189
  30   2.0000      -0.842213       -22.9178
  31   2.0000      -0.813902       -22.1474
  32   2.0000      -0.779978       -21.2243
  33   2.0000      -0.771092       -20.9825
  34   2.0000      -0.709386       -19.3034
  35   2.0000      -0.700229       -19.0542
  36   2.0000      -0.693837       -18.8803
  37   2.0000      -0.658585       -17.9210
  38   2.0000      -0.637862       -17.3571
  39   2.0000      -0.616470       -16.7750
  40   2.0000      -0.598981       -16.2991
  41   2.0000      -0.570824       -15.5329
  42   2.0000      -0.551800       -15.0152
  43   2.0000      -0.549095       -14.9416
  44   2.0000      -0.544972       -14.8294
  45   2.0000      -0.535394       -14.5688
  46   2.0000      -0.521448       -14.1893
  47   2.0000      -0.504882       -13.7385
  48   2.0000      -0.503249       -13.6941
  49   2.0000      -0.496955       -13.5228
  50   2.0000      -0.494306       -13.4507
  51   2.0000      -0.473491       -12.8843
  52   2.0000      -0.472449       -12.8560
  53   2.0000      -0.466419       -12.6919
  54   2.0000      -0.459399       -12.5009
  55   2.0000      -0.446620       -12.1531
  56   2.0000      -0.440438       -11.9849
  57   2.0000      -0.431385       -11.7386
  58   2.0000      -0.428603       -11.6629
  59   2.0000      -0.421536       -11.4706
  60   2.0000      -0.419607       -11.4181
  61   2.0000      -0.416742       -11.3401
  62   2.0000      -0.412617       -11.2279
  63   2.0000      -0.352446        -9.5906
  64   2.0000      -0.333358        -9.0711
  65   2.0000      -0.323891        -8.8135
  66   2.0000      -0.289893        -7.8884
  67   0.0000       0.029320         0.7978
  68   0.0000       0.070668         1.9230
  69   0.0000       0.109629         2.9832
  70   0.0000       0.119375         3.2484
  71   0.0000       0.128339         3.4923

MULLIKEN ATOMIC CHARGES
-----------------------
   0 S :    0.119039
   1 C :   -0.131592
   2 C :   -0.087385
   3 C :    0.018691
   4 C :   -0.140403
   5 H :    0.015159
   6 C :    0.043462
   7 H :    0.026823
   8 H :    0.040629
   9 C :   -0.070645
  10 H :    0.016647
  11 H :    0.039220
  12 C :   -0.101591
  13 H :    0.050414
  14 H :    0.043439
  15 H :    0.061530
  16 S :    0.084340
  17 C :   -0.059046
  18 C :   -0.048770
  19 C :   -0.046276
  20 C :   -0.154906
  21 H :    0.036688
  22 C :    0.002090
  23 H :    0.053594
  24 H :    0.052071
  25 C :   -0.046557
  26 H :    0.030019
  27 H :    0.028221
  28 C :   -0.037700
  29 H :   -0.002222
  30 H :    0.045039
  31 H :    0.028042
  32 H :    0.050871
  33 H :    0.041065
Sum of atomic charges:   -0.0000000

LOEWDIN ATOMIC CHARGES
----------------------
   0 S :    0.418598
   1 C :   -0.204645
   2 C :   -0.073110
   3 C :   -0.067771
   4 C :   -0.200207
   5 H :    0.033373
   6 C :   -0.036154
   7 H :    0.032460
   8 H :    0.033747
   9 C :   -0.042117
  10 H :    0.010568
  11 H :    0.034324
  12 C :   -0.078231
  13 H :    0.037454
  14 H :    0.031296
  15 H :    0.029933
  16 S :    0.396725
  17 C :   -0.175453
  18 C :   -0.080014
  19 C :   -0.057616
  20 C :   -0.187786
  21 H :    0.038388
  22 C :   -0.042127
  23 H :    0.047273
  24 H :    0.040116
  25 C :   -0.038799
  26 H :    0.022490
  27 H :    0.025252
  28 C :   -0.071486
  29 H :    0.014554
  30 H :    0.032512
  31 H :    0.025260
  32 H :    0.028355
  33 H :    0.022841

  Mayer bond orders larger than 0.100000
B(  0-S ,  1-C ) :   1.1541 B(  0-S ,  4-C ) :   1.1642 B(  1-C ,  2-C ) :   1.5756
B(  1-C ,  4-C ) :   0.1046 B(  1-C , 32-H ) :   0.9682 B(  2-C ,  3-C ) :   1.3035
B(  2-C ,  6-C ) :   1.0037 B(  3-C ,  4-C ) :   1.5173 B(  3-C ,  5-H ) :   0.9927
B(  4-C , 20-C ) :   1.0389 B(  6-C ,  7-H ) :   0.9452 B(  6-C ,  8-H ) :   0.9411
B(  6-C ,  9-C ) :   1.0762 B(  9-C , 10-H ) :   0.9586 B(  9-C , 11-H ) :   0.9551
B(  9-C , 12-C ) :   1.0559 B( 12-C , 13-H ) :   0.9746 B( 12-C , 14-H ) :   0.9743
B( 12-C , 15-H ) :   0.9761 B( 16-S , 17-C ) :   1.1496 B( 16-S , 20-C ) :   1.1352
B( 17-C , 18-C ) :   1.6290 B( 17-C , 33-H ) :   0.9759 B( 18-C , 19-C ) :   1.2029
B( 18-C , 21-H ) :   0.9792 B( 19-C , 20-C ) :   1.6085 B( 19-C , 22-C ) :   1.0584
B( 22-C , 23-H ) :   0.9246 B( 22-C , 24-H ) :   0.9351 B( 22-C , 25-C ) :   1.0690
B( 25-C , 26-H ) :   0.9538 B( 25-C , 27-H ) :   0.9549 B( 25-C , 28-C ) :   1.0908
B( 28-C , 29-H ) :   0.9677 B( 28-C , 30-H ) :   0.9626 B( 28-C , 31-H ) :   0.9711

Dispersion correction           -0.014566694
FINAL SINGLE POINT ENERGY     -1339.871177223846

DIPOLE MOMENT
-------------
                                X             Y             Z
Electronic contribution:     24.93453      -9.38183      -3.95698
Nuclear contribution   :    -25.45950       9.49909       4.35407
                        -----------------------------------------
Total Dipole Moment    :     -0.52497       0.11726       0.39709
                        -----------------------------------------
Magnitude (a.u.)       :      0.66860
Magnitude (Debye)      :      1.69945

Rotational constants in cm-1:     0.019430     0.008894     0.006789
Rotational constants in MHz :   582.496441   266.648498   203.539673

                             ****ORCA TERMINATED NORMALLY****
TOTAL RUN TIME: 0 days 0 hours 0 minutes 33 seconds 960 msec
