                         Program Version 4.2.1 -  RELEASE  -
|  1> ! wB97X-D3 SP def2-SVP
|  2> %pal
|  3> nprocs 16
|  4> end
|  5>
|  6> * xyz 0 1
|  7> S 	 -67.7344 	 38.6853 	 127.407
|  8> C 	 -67.5861 	 38.7469 	 129.239
|  9> C 	 -68.6985 	 39.3223 	 129.756
| 10> C 	 -69.777 	 39.444 	 128.846
| 11> C 	 -69.4096 	 39.0633 	 127.576
| 12> H 	 -70.7793 	 39.6993 	 129.107
| 13> C 	 -68.8511 	 39.5136 	 131.241
| 14> H 	 -69.8085 	 39.1195 	 131.428
| 15> H 	 -68.9056 	 40.5622 	 131.36
| 16> C 	 -67.853 	 38.7688 	 132.154
| 17> H 	 -67.8812 	 37.7163 	 131.937
| 18> H 	 -66.9255 	 39.141 	 131.936
| 19> C 	 -68.0603 	 39.02 	 133.635
| 20> H 	 -68.9668 	 38.6466 	 134.129
| 21> H 	 -67.3002 	 38.5565 	 134.215
| 22> H 	 -68.0572 	 40.1404 	 133.71
| 23> S 	 -71.1519 	 40.556 	 126.029
| 24> C 	 -71.9574 	 39.7156 	 124.728
| 25> C 	 -71.659 	 38.3864 	 124.616
| 26> C 	 -70.7496 	 37.9608 	 125.631
| 27> C 	 -70.3525 	 39.0469 	 126.457
| 28> H 	 -72.1789 	 37.748 	 123.853
| 29> C 	 -70.3347 	 36.5235 	 125.913
| 30> H 	 -71.3117 	 36.1533 	 126.298
| 31> H 	 -69.6325 	 36.4773 	 126.779
| 32> C 	 -69.5978 	 35.8109 	 124.832
| 33> H 	 -68.6573 	 36.3421 	 124.835
| 34> H 	 -70.0432 	 35.9604 	 123.879
| 35> C 	 -69.3573 	 34.2677 	 125.252
| 36> H 	 -70.2974 	 33.8025 	 125.664
| 37> H 	 -68.65 	 34.1492 	 126.04
| 38> H 	 -69.007 	 33.5429 	 124.506
| 39> H 	 -66.6214 	 38.691 	 129.773
| 40> H 	 -72.7783 	 40.189 	 124.194
| 41> *
| 42>
| 43>                          ****END OF INPUT****

CARTESIAN COORDINATES (ANGSTROEM)
---------------------------------
  S    -67.734400   38.685300  127.407000
  C    -67.586100   38.746900  129.239000
  C    -68.698500   39.322300  129.756000
  C    -69.777000   39.444000  128.846000
  C    -69.409600   39.063300  127.576000
  H    -70.779300   39.699300  129.107000
  C    -68.851100   39.513600  131.241000
  H    -69.808500   39.119500  131.428000
  H    -68.905600   40.562200  131.360000
  C    -67.853000   38.768800  132.154000
  H    -67.881200   37.716300  131.937000
  H    -66.925500   39.141000  131.936000
  C    -68.060300   39.020000  133.635000
  H    -68.966800   38.646600  134.129000
  H    -67.300200   38.556500  134.215000
  H    -68.057200   40.140400  133.710000
  S    -71.151900   40.556000  126.029000
  C    -71.957400   39.715600  124.728000
  C    -71.659000   38.386400  124.616000
  C    -70.749600   37.960800  125.631000
  C    -70.352500   39.046900  126.457000
  H    -72.178900   37.748000  123.853000
  C    -70.334700   36.523500  125.913000
  H    -71.311700   36.153300  126.298000
  H    -69.632500   36.477300  126.779000
  C    -69.597800   35.810900  124.832000
  H    -68.657300   36.342100  124.835000
  H    -70.043200   35.960400  123.879000
  C    -69.357300   34.267700  125.252000
  H    -70.297400   33.802500  125.664000
  H    -68.650000   34.149200  126.040000
  H    -69.007000   33.542900  124.506000
  H    -66.621400   38.691000  129.773000
  H    -72.778300   40.189000  124.194000

 Total Charge           Charge          ....    0
 Multiplicity           Mult            ....    1
 Number of Electrons    NEL             ....  134
 Basis Dimension        Dim             ....  322

ORBITAL ENERGIES
----------------

  NO   OCC          E(Eh)            E(eV)
   0   2.0000     -88.967074     -2420.9172
   1   2.0000     -88.964701     -2420.8526
   2   2.0000     -10.327000      -281.0120
   3   2.0000     -10.324114      -280.9334
   4   2.0000     -10.315322      -280.6942
   5   2.0000     -10.312798      -280.6255
   6   2.0000     -10.305864      -280.4368
   7   2.0000     -10.297998      -280.2228
   8   2.0000     -10.295892      -280.1655
   9   2.0000     -10.289933      -280.0033
  10   2.0000     -10.288723      -279.9704
  11   2.0000     -10.286711      -279.9156
  12   2.0000     -10.283353      -279.8243
  13   2.0000     -10.282890      -279.8117
  14   2.0000     -10.281123      -279.7636
  15   2.0000     -10.279932      -279.7312
  16   2.0000      -8.081603      -219.9116
  17   2.0000      -8.078451      -219.8258
  18   2.0000      -6.039938      -164.3551
  19   2.0000      -6.037032      -164.2760
  20   2.0000      -6.036243      -164.2545
  21   2.0000      -6.033312      -164.1748
  22   2.0000      -6.032475      -164.1520
  23   2.0000      -6.028979      -164.0569
  24   2.0000      -1.004332       -27.3293
  25   2.0000      -0.982124       -26.7250
  26   2.0000      -0.918418       -24.9914
  27   2.0000      -0.908203       -24.7135
  28   2.0000      -0.868969       -23.6459
  29   2.0000      -0.851147       -23.1609
  30   2.0000      -0.841832       -22.9074
  31   2.0000      -0.812030       -22.0965
  32   2.0000      -0.783858       -21.3298
  33   2.0000      -0.769023       -20.9262
  34   2.0000      -0.719184       -19.5700
  35   2.0000      -0.706601       -19.2276
  36   2.0000      -0.691840       -18.8259
  37   2.0000      -0.653486       -17.7823
  38   2.0000      -0.633288       -17.2327
  39   2.0000      -0.610198       -16.6043
  40   2.0000      -0.596949       -16.2438
  41   2.0000      -0.583236       -15.8706
  42   2.0000      -0.564202       -15.3527
  43   2.0000      -0.560881       -15.2623
  44   2.0000      -0.529915       -14.4197
  45   2.0000      -0.517963       -14.0945
  46   2.0000      -0.514505       -14.0004
  47   2.0000      -0.512133       -13.9359
  48   2.0000      -0.501235       -13.6393
  49   2.0000      -0.497011       -13.5244
  50   2.0000      -0.493036       -13.4162
  51   2.0000      -0.474205       -12.9038
  52   2.0000      -0.466819       -12.7028
  53   2.0000      -0.464393       -12.6368
  54   2.0000      -0.457483       -12.4487
  55   2.0000      -0.454684       -12.3726
  56   2.0000      -0.446856       -12.1596
  57   2.0000      -0.437631       -11.9085
  58   2.0000      -0.434541       -11.8245
  59   2.0000      -0.426493       -11.6055
  60   2.0000      -0.422611       -11.4998
  61   2.0000      -0.418483       -11.3875
  62   2.0000      -0.410123       -11.1600
  63   2.0000      -0.339235        -9.2310
  64   2.0000      -0.331978        -9.0336
  65   2.0000      -0.329641        -8.9700
  66   2.0000      -0.295232        -8.0337
  67   0.0000       0.032755         0.8913
  68   0.0000       0.070690         1.9236
  69   0.0000       0.104228         2.8362
  70   0.0000       0.113997         3.1020
  71   0.0000       0.130552         3.5525

MULLIKEN ATOMIC CHARGES
-----------------------
   0 S :    0.101529
   1 C :   -0.156782
   2 C :   -0.083466
   3 C :    0.018234
   4 C :   -0.135979
   5 H :    0.003918
   6 C :    0.097236
   7 H :    0.011628
   8 H :    0.024979
   9 C :   -0.051574
  10 H :    0.032849
  11 H :    0.010599
  12 C :   -0.038460
  13 H :    0.030869
  14 H :    0.026607
  15 H :    0.031408
  16 S :    0.117828
  17 C :   -0.098687
  18 C :   -0.045176
  19 C :   -0.032539
  20 C :   -0.185356
  21 H :    0.040279
  22 C :    0.028753
  23 H :    0.041552
  24 H :    0.033801
  25 C :   -0.025541
  26 H :    0.028590
  27 H :    0.025616
  28 C :   -0.065256
  29 H :    0.030163
  30 H :    0.026025
  31 H :    0.037624
  32 H :    0.060399
  33 H :    0.058326
Sum of atomic charges:    0.0000000

LOEWDIN ATOMIC CHARGES
----------------------
   0 S :    0.376456
   1 C :   -0.187637
   2 C :   -0.056662
   3 C :   -0.066151
   4 C :   -0.188786
   5 H :    0.027729
   6 C :   -0.021675
   7 H :    0.026448
   8 H :    0.029083
   9 C :   -0.030928
  10 H :    0.025777
  11 H :    0.011508
  12 C :   -0.062012
  13 H :    0.024488
  14 H :    0.022633
  15 H :    0.031509
  16 S :    0.406209
  17 C :   -0.185375
  18 C :   -0.079250
  19 C :   -0.050147
  20 C :   -0.204456
  21 H :    0.043301
  22 C :   -0.040526
  23 H :    0.036001
  24 H :    0.032055
  25 C :   -0.030544
  26 H :    0.029067
  27 H :    0.016108
  28 C :   -0.072538
  29 H :    0.029482
  30 H :    0.021382
  31 H :    0.027203
  32 H :    0.032598
  33 H :    0.027651

  Mayer bond orders larger than 0.100000
B(  0-S ,  1-C ) :   1.0834 B(  0-S ,  4-C ) :   1.1550 B(  1-C ,  2-C ) :   1.6693
B(  1-C , 32-H ) :   0.9537 B(  2-C ,  3-C ) :   1.2125 B(  2-C ,  6-C ) :   1.0023
B(  3-C ,  4-C ) :   1.5793 B(  3-C ,  5-H ) :   1.0026 B(  4-C , 20-C ) :   1.0328
B(  6-C ,  7-H ) :   0.9425 B(  6-C ,  8-H ) :   0.9187 B(  6-C ,  9-C ) :   1.0969
B(  9-C , 10-H ) :   0.9512 B(  9-C , 11-H ) :   0.9424 B(  9-C , 12-C ) :   1.0875
B( 12-C , 13-H ) :   0.9766 B( 12-C , 14-H ) :   0.9713 B( 12-C , 15-H ) :   0.9750
B( 16-S , 17-C ) :   1.1577 B( 16-S , 20-C ) :   1.1429 B( 17-C , 18-C ) :   1.6186
B( 17-C , 33-H ) :   0.9626 B( 18-C , 19-C ) :   1.2392 B( 18-C , 21-H ) :   0.9821
B( 19-C , 20-C ) :   1.5780 B( 19-C , 22-C ) :   1.0311 B( 22-C , 23-H ) :   0.9338
B( 22-C , 24-H ) :   0.9382 B( 22-C , 25-C ) :   1.0404 B( 25-C , 26-H ) :   0.9523
B( 25-C , 27-H ) :   0.9697 B( 25-C , 28-C ) :   1.0562 B( 28-C , 29-H ) :   0.9791
B( 28-C , 30-H ) :   0.9773 B( 28-C , 31-H ) :   0.9793

Dispersion correction           -0.013862380
FINAL SINGLE POINT ENERGY     -1339.865105303285

DIPOLE MOMENT
-------------
                                X             Y             Z
Electronic contribution:     -3.75107      16.14206     -15.28551
Nuclear contribution   :      3.53945     -16.38446      15.70666
                        -----------------------------------------
Total Dipole Moment    :     -0.21162      -0.24240       0.42115
                        -----------------------------------------
Magnitude (a.u.)       :      0.53001
Magnitude (Debye)      :      1.34718

Rotational constants in cm-1:     0.019927     0.007526     0.006094
Rotational constants in MHz :   597.391566   225.622503   182.693055

                             ****ORCA TERMINATED NORMALLY****
TOTAL RUN TIME: 0 days 0 hours 0 minutes 33 seconds 468 msec
