                         Program Version 4.2.1 -  RELEASE  -
|  1> ! wB97X-D3 SP def2-SVP
|  2> %pal
|  3> nprocs 16
|  4> end
|  5>
|  6> * xyz 0 1
|  7> S 	 45.5042 	 16.4485 	 49.7976
|  8> C 	 45.1103 	 15.8012 	 48.1749
|  9> C 	 44.8087 	 16.8376 	 47.3564
| 10> C 	 45.2133 	 18.1383 	 47.8729
| 11> C 	 45.5825 	 18.0986 	 49.2385
| 12> H 	 45.1947 	 19.0819 	 47.2631
| 13> C 	 44.373 	 16.6941 	 45.9363
| 14> H 	 44.2224 	 15.6233 	 45.6725
| 15> H 	 45.0502 	 17.028 	 45.2038
| 16> C 	 43.0055 	 17.3677 	 45.6707
| 17> H 	 43.042 	 18.4032 	 45.853
| 18> H 	 42.6349 	 17.2996 	 44.6087
| 19> C 	 41.7814 	 16.8323 	 46.5628
| 20> H 	 41.9712 	 17.0865 	 47.5672
| 21> H 	 40.8504 	 17.298 	 46.2263
| 22> H 	 41.7016 	 15.7124 	 46.4922
| 23> S 	 47.1307 	 20.3 	 49.5353
| 24> C 	 47.0426 	 21.2703 	 51.0273
| 25> C 	 46.1704 	 20.678 	 51.8938
| 26> C 	 45.4833 	 19.5326 	 51.3894
| 27> C 	 45.9041 	 19.2115 	 50.0733
| 28> H 	 45.9456 	 21.1021 	 52.8858
| 29> C 	 44.5786 	 18.6551 	 52.2461
| 30> H 	 45.1957 	 18.3783 	 53.1641
| 31> H 	 44.3342 	 17.6786 	 51.8119
| 32> C 	 43.321 	 19.4018 	 52.6765
| 33> H 	 43.6613 	 20.2359 	 53.2311
| 34> H 	 42.8625 	 18.7489 	 53.4559
| 35> C 	 42.3728 	 19.838 	 51.5139
| 36> H 	 41.9659 	 18.9839 	 50.9778
| 37> H 	 42.7521 	 20.5455 	 50.7571
| 38> H 	 41.613 	 20.426 	 51.9548
| 39> H 	 45.0039 	 14.7794 	 47.8952
| 40> H 	 47.5416 	 22.176 	 51.246
| 41> *
| 42>
| 43>                          ****END OF INPUT****

CARTESIAN COORDINATES (ANGSTROEM)
---------------------------------
  S     45.504200   16.448500   49.797600
  C     45.110300   15.801200   48.174900
  C     44.808700   16.837600   47.356400
  C     45.213300   18.138300   47.872900
  C     45.582500   18.098600   49.238500
  H     45.194700   19.081900   47.263100
  C     44.373000   16.694100   45.936300
  H     44.222400   15.623300   45.672500
  H     45.050200   17.028000   45.203800
  C     43.005500   17.367700   45.670700
  H     43.042000   18.403200   45.853000
  H     42.634900   17.299600   44.608700
  C     41.781400   16.832300   46.562800
  H     41.971200   17.086500   47.567200
  H     40.850400   17.298000   46.226300
  H     41.701600   15.712400   46.492200
  S     47.130700   20.300000   49.535300
  C     47.042600   21.270300   51.027300
  C     46.170400   20.678000   51.893800
  C     45.483300   19.532600   51.389400
  C     45.904100   19.211500   50.073300
  H     45.945600   21.102100   52.885800
  C     44.578600   18.655100   52.246100
  H     45.195700   18.378300   53.164100
  H     44.334200   17.678600   51.811900
  C     43.321000   19.401800   52.676500
  H     43.661300   20.235900   53.231100
  H     42.862500   18.748900   53.455900
  C     42.372800   19.838000   51.513900
  H     41.965900   18.983900   50.977800
  H     42.752100   20.545500   50.757100
  H     41.613000   20.426000   51.954800
  H     45.003900   14.779400   47.895200
  H     47.541600   22.176000   51.246000

 Total Charge           Charge          ....    0
 Multiplicity           Mult            ....    1
 Number of Electrons    NEL             ....  134
 Basis Dimension        Dim             ....  322

ORBITAL ENERGIES
----------------

  NO   OCC          E(Eh)            E(eV)
   0   2.0000     -88.967796     -2420.9368
   1   2.0000     -88.967136     -2420.9188
   2   2.0000     -10.334445      -281.2145
   3   2.0000     -10.326365      -280.9947
   4   2.0000     -10.316513      -280.7266
   5   2.0000     -10.315781      -280.7067
   6   2.0000     -10.303950      -280.3847
   7   2.0000     -10.303783      -280.3802
   8   2.0000     -10.302423      -280.3432
   9   2.0000     -10.295474      -280.1541
  10   2.0000     -10.292651      -280.0773
  11   2.0000     -10.291300      -280.0405
  12   2.0000     -10.288621      -279.9676
  13   2.0000     -10.285650      -279.8868
  14   2.0000     -10.277392      -279.6620
  15   2.0000     -10.273595      -279.5587
  16   2.0000      -8.081562      -219.9105
  17   2.0000      -8.081503      -219.9089
  18   2.0000      -6.040320      -164.3655
  19   2.0000      -6.040093      -164.3593
  20   2.0000      -6.036152      -164.2520
  21   2.0000      -6.036014      -164.2483
  22   2.0000      -6.032234      -164.1454
  23   2.0000      -6.032138      -164.1428
  24   2.0000      -1.006240       -27.3812
  25   2.0000      -0.982513       -26.7355
  26   2.0000      -0.909986       -24.7620
  27   2.0000      -0.905710       -24.6456
  28   2.0000      -0.871877       -23.7250
  29   2.0000      -0.843368       -22.9492
  30   2.0000      -0.834237       -22.7007
  31   2.0000      -0.813637       -22.1402
  32   2.0000      -0.783804       -21.3284
  33   2.0000      -0.775797       -21.1105
  34   2.0000      -0.714755       -19.4495
  35   2.0000      -0.699582       -19.0366
  36   2.0000      -0.691474       -18.8160
  37   2.0000      -0.660521       -17.9737
  38   2.0000      -0.632848       -17.2207
  39   2.0000      -0.618119       -16.8199
  40   2.0000      -0.599967       -16.3259
  41   2.0000      -0.573206       -15.5977
  42   2.0000      -0.551774       -15.0145
  43   2.0000      -0.545914       -14.8551
  44   2.0000      -0.539254       -14.6738
  45   2.0000      -0.532705       -14.4956
  46   2.0000      -0.518634       -14.1127
  47   2.0000      -0.510485       -13.8910
  48   2.0000      -0.507662       -13.8142
  49   2.0000      -0.498240       -13.5578
  50   2.0000      -0.489663       -13.3244
  51   2.0000      -0.479069       -13.0361
  52   2.0000      -0.465226       -12.6594
  53   2.0000      -0.463869       -12.6225
  54   2.0000      -0.458954       -12.4888
  55   2.0000      -0.449641       -12.2353
  56   2.0000      -0.443996       -12.0817
  57   2.0000      -0.434231       -11.8160
  58   2.0000      -0.429779       -11.6949
  59   2.0000      -0.421581       -11.4718
  60   2.0000      -0.419033       -11.4025
  61   2.0000      -0.412486       -11.2243
  62   2.0000      -0.409563       -11.1448
  63   2.0000      -0.352991        -9.6054
  64   2.0000      -0.329335        -8.9617
  65   2.0000      -0.328774        -8.9464
  66   2.0000      -0.290276        -7.8988
  67   0.0000       0.025456         0.6927
  68   0.0000       0.072582         1.9750
  69   0.0000       0.109179         2.9709
  70   0.0000       0.114134         3.1057
  71   0.0000       0.127556         3.4710

MULLIKEN ATOMIC CHARGES
-----------------------
   0 S :    0.101026
   1 C :   -0.108195
   2 C :   -0.072561
   3 C :   -0.004565
   4 C :   -0.130549
   5 H :    0.040784
   6 C :    0.088416
   7 H :    0.015294
   8 H :    0.031894
   9 C :   -0.117131
  10 H :    0.019903
  11 H :    0.036639
  12 C :   -0.066869
  13 H :    0.037173
  14 H :    0.038234
  15 H :    0.033110
  16 S :    0.109156
  17 C :   -0.076054
  18 C :   -0.042033
  19 C :   -0.040223
  20 C :   -0.150529
  21 H :    0.029497
  22 C :    0.029438
  23 H :    0.043850
  24 H :    0.024105
  25 C :   -0.065077
  26 H :    0.008778
  27 H :    0.031474
  28 C :   -0.032892
  29 H :    0.038809
  30 H :    0.042453
  31 H :    0.021818
  32 H :    0.040826
  33 H :    0.044001
Sum of atomic charges:   -0.0000000

LOEWDIN ATOMIC CHARGES
----------------------
   0 S :    0.403348
   1 C :   -0.177071
   2 C :   -0.064122
   3 C :   -0.066927
   4 C :   -0.192876
   5 H :    0.039230
   6 C :   -0.030347
   7 H :    0.031519
   8 H :    0.028144
   9 C :   -0.040088
  10 H :    0.011996
  11 H :    0.027845
  12 C :   -0.063047
  13 H :    0.016923
  14 H :    0.026832
  15 H :    0.026330
  16 S :    0.411773
  17 C :   -0.175706
  18 C :   -0.069328
  19 C :   -0.058894
  20 C :   -0.208339
  21 H :    0.034644
  22 C :   -0.042700
  23 H :    0.040984
  24 H :    0.014849
  25 C :   -0.039246
  26 H :    0.013763
  27 H :    0.029716
  28 C :   -0.064997
  29 H :    0.027323
  30 H :    0.033209
  31 H :    0.022171
  32 H :    0.027365
  33 H :    0.025722

  Mayer bond orders larger than 0.100000
B(  0-S ,  1-C ) :   1.1140 B(  0-S ,  4-C ) :   1.1425 B(  1-C ,  2-C ) :   1.6326
B(  1-C , 32-H ) :   0.9727 B(  2-C ,  3-C ) :   1.2091 B(  2-C ,  6-C ) :   1.0368
B(  3-C ,  4-C ) :   1.5564 B(  3-C ,  5-H ) :   0.9845 B(  4-C , 20-C ) :   1.0679
B(  6-C ,  7-H ) :   0.9436 B(  6-C ,  8-H ) :   0.9446 B(  6-C ,  9-C ) :   1.0555
B(  9-C , 10-H ) :   0.9610 B(  9-C , 11-H ) :   0.9627 B(  9-C , 12-C ) :   1.0649
B( 12-C , 13-H ) :   0.9775 B( 12-C , 14-H ) :   0.9773 B( 12-C , 15-H ) :   0.9790
B( 16-S , 17-C ) :   1.1359 B( 16-S , 20-C ) :   1.1551 B( 17-C , 18-C ) :   1.6110
B( 17-C , 33-H ) :   0.9741 B( 18-C , 19-C ) :   1.2601 B( 18-C , 21-H ) :   0.9776
B( 19-C , 20-C ) :   1.5429 B( 19-C , 22-C ) :   1.0353 B( 22-C , 23-H ) :   0.9380
B( 22-C , 24-H ) :   0.9353 B( 22-C , 25-C ) :   1.0718 B( 25-C , 26-H ) :   0.9578
B( 25-C , 27-H ) :   0.9540 B( 25-C , 28-C ) :   1.0664 B( 28-C , 29-H ) :   0.9773
B( 28-C , 30-H ) :   0.9726 B( 28-C , 31-H ) :   0.9723

Dispersion correction           -0.015049410
FINAL SINGLE POINT ENERGY     -1339.880453241014

DIPOLE MOMENT
-------------
                                X             Y             Z
Electronic contribution:     22.45807       1.14544       3.70676
Nuclear contribution   :    -22.80163      -1.03182      -3.74350
                        -----------------------------------------
Total Dipole Moment    :     -0.34356       0.11362      -0.03674
                        -----------------------------------------
Magnitude (a.u.)       :      0.36372
Magnitude (Debye)      :      0.92450

Rotational constants in cm-1:     0.019818     0.008820     0.007780
Rotational constants in MHz :   594.118481   264.412548   233.250456

                             ****ORCA TERMINATED NORMALLY****
TOTAL RUN TIME: 0 days 0 hours 0 minutes 33 seconds 911 msec
