                         Program Version 4.2.1 -  RELEASE  -
|  1> ! wB97X-D3 SP def2-SVP
|  2> %pal
|  3> nprocs 16
|  4> end
|  5>
|  6> * xyz 0 1
|  7> S 	 -5.11213 	 74.3844 	 45.8194
|  8> C 	 -4.57835 	 75.6426 	 46.9548
|  9> C 	 -5.41376 	 75.6398 	 48.0686
| 10> C 	 -6.42078 	 74.6004 	 47.9858
| 11> C 	 -6.40282 	 73.8418 	 46.8212
| 12> H 	 -7.05801 	 74.3704 	 48.8114
| 13> C 	 -5.24334 	 76.6643 	 49.2004
| 14> H 	 -4.14269 	 76.7858 	 49.3397
| 15> H 	 -5.61421 	 76.1876 	 50.0891
| 16> C 	 -5.98001 	 77.9731 	 48.9607
| 17> H 	 -6.08887 	 78.1302 	 47.8635
| 18> H 	 -6.9875 	 77.8989 	 49.2085
| 19> C 	 -5.43391 	 79.2402 	 49.7001
| 20> H 	 -5.77494 	 79.272 	 50.761
| 21> H 	 -4.35894 	 79.4086 	 49.6108
| 22> H 	 -5.99898 	 80.1067 	 49.3048
| 23> S 	 -6.42346 	 71.1453 	 46.7173
| 24> C 	 -7.84699 	 70.4128 	 46.2267
| 25> C 	 -8.85012 	 71.3139 	 45.9332
| 26> C 	 -8.56331 	 72.6585 	 46.2845
| 27> C 	 -7.26747 	 72.7231 	 46.6477
| 28> H 	 -9.83694 	 70.8952 	 45.6416
| 29> C 	 -9.58614 	 73.7646 	 46.1882
| 30> H 	 -9.17674 	 74.6966 	 45.715
| 31> H 	 -9.82371 	 74.0183 	 47.1868
| 32> C 	 -10.9006 	 73.3571 	 45.4516
| 33> H 	 -11.3396 	 72.5354 	 45.9353
| 34> H 	 -10.6192 	 73.0123 	 44.4521
| 35> C 	 -11.8532 	 74.528 	 45.2601
| 36> H 	 -11.96 	 75.1384 	 46.1517
| 37> H 	 -12.781 	 74.1672 	 44.8714
| 38> H 	 -11.5119 	 75.1902 	 44.4542
| 39> H 	 -3.88416 	 76.4921 	 46.8895
| 40> H 	 -7.7713 	 69.3634 	 45.9249
| 41> *
| 42>
| 43>                          ****END OF INPUT****

CARTESIAN COORDINATES (ANGSTROEM)
---------------------------------
  S     -5.112130   74.384400   45.819400
  C     -4.578350   75.642600   46.954800
  C     -5.413760   75.639800   48.068600
  C     -6.420780   74.600400   47.985800
  C     -6.402820   73.841800   46.821200
  H     -7.058010   74.370400   48.811400
  C     -5.243340   76.664300   49.200400
  H     -4.142690   76.785800   49.339700
  H     -5.614210   76.187600   50.089100
  C     -5.980010   77.973100   48.960700
  H     -6.088870   78.130200   47.863500
  H     -6.987500   77.898900   49.208500
  C     -5.433910   79.240200   49.700100
  H     -5.774940   79.272000   50.761000
  H     -4.358940   79.408600   49.610800
  H     -5.998980   80.106700   49.304800
  S     -6.423460   71.145300   46.717300
  C     -7.846990   70.412800   46.226700
  C     -8.850120   71.313900   45.933200
  C     -8.563310   72.658500   46.284500
  C     -7.267470   72.723100   46.647700
  H     -9.836940   70.895200   45.641600
  C     -9.586140   73.764600   46.188200
  H     -9.176740   74.696600   45.715000
  H     -9.823710   74.018300   47.186800
  C    -10.900600   73.357100   45.451600
  H    -11.339600   72.535400   45.935300
  H    -10.619200   73.012300   44.452100
  C    -11.853200   74.528000   45.260100
  H    -11.960000   75.138400   46.151700
  H    -12.781000   74.167200   44.871400
  H    -11.511900   75.190200   44.454200
  H     -3.884160   76.492100   46.889500
  H     -7.771300   69.363400   45.924900

 Total Charge           Charge          ....    0
 Multiplicity           Mult            ....    1
 Number of Electrons    NEL             ....  134
 Basis Dimension        Dim             ....  322

ORBITAL ENERGIES
----------------

  NO   OCC          E(Eh)            E(eV)
   0   2.0000     -88.967567     -2420.9306
   1   2.0000     -88.961069     -2420.7538
   2   2.0000     -10.321311      -280.8572
   3   2.0000     -10.317768      -280.7607
   4   2.0000     -10.313974      -280.6575
   5   2.0000     -10.310365      -280.5593
   6   2.0000     -10.301328      -280.3134
   7   2.0000     -10.298914      -280.2477
   8   2.0000     -10.294805      -280.1359
   9   2.0000     -10.292733      -280.0795
  10   2.0000     -10.291324      -280.0412
  11   2.0000     -10.288876      -279.9746
  12   2.0000     -10.285851      -279.8922
  13   2.0000     -10.284884      -279.8659
  14   2.0000     -10.284359      -279.8516
  15   2.0000     -10.277174      -279.6561
  16   2.0000      -8.081677      -219.9136
  17   2.0000      -8.077430      -219.7980
  18   2.0000      -6.040344      -164.3661
  19   2.0000      -6.036104      -164.2507
  20   2.0000      -6.035651      -164.2384
  21   2.0000      -6.032434      -164.1509
  22   2.0000      -6.031805      -164.1338
  23   2.0000      -6.028288      -164.0380
  24   2.0000      -1.011638       -27.5281
  25   2.0000      -0.983838       -26.7716
  26   2.0000      -0.913711       -24.8633
  27   2.0000      -0.908891       -24.7322
  28   2.0000      -0.870874       -23.6977
  29   2.0000      -0.857122       -23.3235
  30   2.0000      -0.840817       -22.8798
  31   2.0000      -0.806250       -21.9392
  32   2.0000      -0.787996       -21.4425
  33   2.0000      -0.773633       -21.0516
  34   2.0000      -0.711299       -19.3554
  35   2.0000      -0.702842       -19.1253
  36   2.0000      -0.698347       -19.0030
  37   2.0000      -0.651817       -17.7369
  38   2.0000      -0.632683       -17.2162
  39   2.0000      -0.616951       -16.7881
  40   2.0000      -0.601692       -16.3729
  41   2.0000      -0.572919       -15.5899
  42   2.0000      -0.567733       -15.4488
  43   2.0000      -0.554167       -15.0797
  44   2.0000      -0.533554       -14.5187
  45   2.0000      -0.520929       -14.1752
  46   2.0000      -0.517506       -14.0821
  47   2.0000      -0.511285       -13.9128
  48   2.0000      -0.501026       -13.6336
  49   2.0000      -0.497759       -13.5447
  50   2.0000      -0.485681       -13.2161
  51   2.0000      -0.480545       -13.0763
  52   2.0000      -0.474392       -12.9089
  53   2.0000      -0.464313       -12.6346
  54   2.0000      -0.459407       -12.5011
  55   2.0000      -0.454768       -12.3749
  56   2.0000      -0.445228       -12.1153
  57   2.0000      -0.438881       -11.9426
  58   2.0000      -0.430781       -11.7222
  59   2.0000      -0.427976       -11.6458
  60   2.0000      -0.422429       -11.4949
  61   2.0000      -0.419130       -11.4051
  62   2.0000      -0.408382       -11.1126
  63   2.0000      -0.337867        -9.1938
  64   2.0000      -0.329970        -8.9789
  65   2.0000      -0.322901        -8.7866
  66   2.0000      -0.300642        -8.1809
  67   0.0000       0.040457         1.1009
  68   0.0000       0.060808         1.6547
  69   0.0000       0.120560         3.2806
  70   0.0000       0.123628         3.3641
  71   0.0000       0.135048         3.6748

MULLIKEN ATOMIC CHARGES
-----------------------
   0 S :    0.127822
   1 C :   -0.115766
   2 C :   -0.138138
   3 C :    0.035385
   4 C :   -0.152612
   5 H :    0.001110
   6 C :    0.079798
   7 H :    0.034560
   8 H :    0.016978
   9 C :   -0.054222
  10 H :    0.031342
  11 H :    0.008088
  12 C :   -0.066167
  13 H :    0.036999
  14 H :    0.044702
  15 H :    0.032093
  16 S :    0.116862
  17 C :   -0.088199
  18 C :   -0.075153
  19 C :    0.005355
  20 C :   -0.224826
  21 H :    0.027813
  22 C :    0.101621
  23 H :    0.042681
  24 H :    0.022485
  25 C :   -0.106990
  26 H :    0.026342
  27 H :    0.030413
  28 C :   -0.003029
  29 H :    0.031529
  30 H :    0.024238
  31 H :    0.028716
  32 H :    0.052326
  33 H :    0.065844
Sum of atomic charges:   -0.0000000

LOEWDIN ATOMIC CHARGES
----------------------
   0 S :    0.414112
   1 C :   -0.206546
   2 C :   -0.062136
   3 C :   -0.063861
   4 C :   -0.216564
   5 H :    0.024083
   6 C :   -0.032335
   7 H :    0.035127
   8 H :    0.026919
   9 C :   -0.045160
  10 H :    0.028090
  11 H :    0.018116
  12 C :   -0.069891
  13 H :    0.029579
  14 H :    0.023814
  15 H :    0.031442
  16 S :    0.421825
  17 C :   -0.207260
  18 C :   -0.083667
  19 C :   -0.047610
  20 C :   -0.188559
  21 H :    0.034429
  22 C :   -0.023090
  23 H :    0.040321
  24 H :    0.029273
  25 C :   -0.036926
  26 H :    0.014388
  27 H :    0.026696
  28 C :   -0.060471
  29 H :    0.024064
  30 H :    0.024744
  31 H :    0.029092
  32 H :    0.038025
  33 H :    0.029938

  Mayer bond orders larger than 0.100000
B(  0-S ,  1-C ) :   1.1288 B(  0-S ,  4-C ) :   1.1528 B(  1-C ,  2-C ) :   1.6132
B(  1-C , 32-H ) :   0.9605 B(  2-C ,  3-C ) :   1.2584 B(  2-C ,  6-C ) :   1.0249
B(  3-C ,  4-C ) :   1.5511 B(  3-C ,  5-H ) :   0.9961 B(  4-C , 20-C ) :   1.0489
B(  6-C ,  7-H ) :   0.9497 B(  6-C ,  8-H ) :   0.9363 B(  6-C ,  9-C ) :   1.0480
B(  9-C , 10-H ) :   0.9638 B(  9-C , 11-H ) :   0.9470 B(  9-C , 12-C ) :   1.0770
B( 12-C , 13-H ) :   0.9758 B( 12-C , 14-H ) :   0.9798 B( 12-C , 15-H ) :   0.9726
B( 16-S , 17-C ) :   1.1781 B( 16-S , 20-C ) :   1.1457 B( 17-C , 18-C ) :   1.6017
B( 17-C , 33-H ) :   0.9582 B( 18-C , 19-C ) :   1.2380 B( 18-C , 21-H ) :   0.9788
B( 19-C , 20-C ) :   1.6369 B( 19-C , 22-C ) :   1.0256 B( 22-C , 23-H ) :   0.9328
B( 22-C , 24-H ) :   0.9157 B( 22-C , 25-C ) :   1.0869 B( 25-C , 26-H ) :   0.9475
B( 25-C , 27-H ) :   0.9543 B( 25-C , 28-C ) :   1.0878 B( 28-C , 29-H ) :   0.9741
B( 28-C , 30-H ) :   0.9694 B( 28-C , 31-H ) :   0.9720

Dispersion correction           -0.013371218
FINAL SINGLE POINT ENERGY     -1339.870741451399

DIPOLE MOMENT
-------------
                                X             Y             Z
Electronic contribution:     16.01175     -22.24601      -7.04350
Nuclear contribution   :    -16.56494      22.60349       7.24270
                        -----------------------------------------
Total Dipole Moment    :     -0.55319       0.35748       0.19920
                        -----------------------------------------
Magnitude (a.u.)       :      0.68810
Magnitude (Debye)      :      1.74902

Rotational constants in cm-1:     0.017966     0.007762     0.006024
Rotational constants in MHz :   538.617919   232.706232   180.588265

                             ****ORCA TERMINATED NORMALLY****
TOTAL RUN TIME: 0 days 0 hours 0 minutes 32 seconds 703 msec
