                         Program Version 4.2.1 -  RELEASE  -
|  1> ! wB97X-D3 SP def2-SVP
|  2> %pal
|  3> nprocs 16
|  4> end
|  5>
|  6> * xyz 0 1
|  7> S 	 -87.5619 	 51.1335 	 131.252
|  8> C 	 -87.6506 	 49.5286 	 131.974
|  9> C 	 -86.634 	 48.7319 	 131.58
| 10> C 	 -85.8125 	 49.3076 	 130.653
| 11> C 	 -86.122 	 50.6245 	 130.414
| 12> H 	 -84.9073 	 48.9565 	 130.227
| 13> C 	 -86.4522 	 47.3092 	 132.166
| 14> H 	 -86.2161 	 46.6263 	 131.393
| 15> H 	 -87.3924 	 46.9316 	 132.399
| 16> C 	 -85.5174 	 47.1626 	 133.363
| 17> H 	 -85.7492 	 47.8353 	 134.144
| 18> H 	 -85.7263 	 46.2364 	 133.939
| 19> C 	 -84.0242 	 47.2547 	 133.022
| 20> H 	 -83.781 	 48.3066 	 132.814
| 21> H 	 -83.4396 	 46.988 	 133.896
| 22> H 	 -83.8659 	 46.6741 	 132.119
| 23> S 	 -83.7893 	 52.0524 	 130.266
| 24> C 	 -83.5142 	 53.0638 	 128.874
| 25> C 	 -84.5448 	 53.0053 	 127.944
| 26> C 	 -85.5311 	 52.0396 	 128.424
| 27> C 	 -85.2976 	 51.4885 	 129.612
| 28> H 	 -84.569 	 53.4885 	 126.962
| 29> C 	 -86.7816 	 51.7317 	 127.572
| 30> H 	 -87.4802 	 51.014 	 128.068
| 31> H 	 -86.5167 	 51.1782 	 126.746
| 32> C 	 -87.5819 	 52.8482 	 126.984
| 33> H 	 -88.0968 	 52.4737 	 126.096
| 34> H 	 -86.9491 	 53.6097 	 126.703
| 35> C 	 -88.754 	 53.2405 	 127.94
| 36> H 	 -88.4575 	 53.2032 	 128.959
| 37> H 	 -89.5606 	 52.4511 	 127.976
| 38> H 	 -89.1795 	 54.201 	 127.828
| 39> H 	 -88.4757 	 49.0897 	 132.574
| 40> H 	 -82.6458 	 53.659 	 128.721
| 41> *
| 42>
| 43>                          ****END OF INPUT****

CARTESIAN COORDINATES (ANGSTROEM)
---------------------------------
  S    -87.561900   51.133500  131.252000
  C    -87.650600   49.528600  131.974000
  C    -86.634000   48.731900  131.580000
  C    -85.812500   49.307600  130.653000
  C    -86.122000   50.624500  130.414000
  H    -84.907300   48.956500  130.227000
  C    -86.452200   47.309200  132.166000
  H    -86.216100   46.626300  131.393000
  H    -87.392400   46.931600  132.399000
  C    -85.517400   47.162600  133.363000
  H    -85.749200   47.835300  134.144000
  H    -85.726300   46.236400  133.939000
  C    -84.024200   47.254700  133.022000
  H    -83.781000   48.306600  132.814000
  H    -83.439600   46.988000  133.896000
  H    -83.865900   46.674100  132.119000
  S    -83.789300   52.052400  130.266000
  C    -83.514200   53.063800  128.874000
  C    -84.544800   53.005300  127.944000
  C    -85.531100   52.039600  128.424000
  C    -85.297600   51.488500  129.612000
  H    -84.569000   53.488500  126.962000
  C    -86.781600   51.731700  127.572000
  H    -87.480200   51.014000  128.068000
  H    -86.516700   51.178200  126.746000
  C    -87.581900   52.848200  126.984000
  H    -88.096800   52.473700  126.096000
  H    -86.949100   53.609700  126.703000
  C    -88.754000   53.240500  127.940000
  H    -88.457500   53.203200  128.959000
  H    -89.560600   52.451100  127.976000
  H    -89.179500   54.201000  127.828000
  H    -88.475700   49.089700  132.574000
  H    -82.645800   53.659000  128.721000

 Total Charge           Charge          ....    0
 Multiplicity           Mult            ....    1
 Number of Electrons    NEL             ....  134
 Basis Dimension        Dim             ....  322

ORBITAL ENERGIES
----------------

  NO   OCC          E(Eh)            E(eV)
   0   2.0000     -88.971092     -2421.0265
   1   2.0000     -88.964023     -2420.8342
   2   2.0000     -10.322643      -280.8934
   3   2.0000     -10.319095      -280.7969
   4   2.0000     -10.314753      -280.6787
   5   2.0000     -10.311233      -280.5829
   6   2.0000     -10.299784      -280.2714
   7   2.0000     -10.299452      -280.2623
   8   2.0000     -10.292108      -280.0625
   9   2.0000     -10.283788      -279.8361
  10   2.0000     -10.283692      -279.8335
  11   2.0000     -10.281132      -279.7638
  12   2.0000     -10.278410      -279.6898
  13   2.0000     -10.277159      -279.6557
  14   2.0000     -10.274822      -279.5921
  15   2.0000     -10.268287      -279.4143
  16   2.0000      -8.085125      -220.0074
  17   2.0000      -8.079350      -219.8503
  18   2.0000      -6.043514      -164.4524
  19   2.0000      -6.039784      -164.3509
  20   2.0000      -6.037865      -164.2987
  21   2.0000      -6.036001      -164.2479
  22   2.0000      -6.033794      -164.1879
  23   2.0000      -6.030036      -164.0856
  24   2.0000      -1.014489       -27.6056
  25   2.0000      -0.990332       -26.9483
  26   2.0000      -0.911235       -24.7960
  27   2.0000      -0.909937       -24.7606
  28   2.0000      -0.872945       -23.7540
  29   2.0000      -0.852385       -23.1946
  30   2.0000      -0.843455       -22.9516
  31   2.0000      -0.817522       -22.2459
  32   2.0000      -0.786371       -21.3982
  33   2.0000      -0.775730       -21.1087
  34   2.0000      -0.707308       -19.2468
  35   2.0000      -0.702783       -19.1237
  36   2.0000      -0.699414       -19.0320
  37   2.0000      -0.664768       -18.0893
  38   2.0000      -0.642190       -17.4749
  39   2.0000      -0.617544       -16.8042
  40   2.0000      -0.605341       -16.4722
  41   2.0000      -0.574076       -15.6214
  42   2.0000      -0.554258       -15.0821
  43   2.0000      -0.550912       -14.9911
  44   2.0000      -0.540346       -14.7036
  45   2.0000      -0.537283       -14.6202
  46   2.0000      -0.517255       -14.0752
  47   2.0000      -0.511230       -13.9113
  48   2.0000      -0.499475       -13.5914
  49   2.0000      -0.496322       -13.5056
  50   2.0000      -0.486249       -13.2315
  51   2.0000      -0.478589       -13.0231
  52   2.0000      -0.475597       -12.9416
  53   2.0000      -0.463577       -12.6146
  54   2.0000      -0.461235       -12.5508
  55   2.0000      -0.447591       -12.1796
  56   2.0000      -0.443677       -12.0731
  57   2.0000      -0.439486       -11.9590
  58   2.0000      -0.435036       -11.8379
  59   2.0000      -0.426390       -11.6026
  60   2.0000      -0.421773       -11.4770
  61   2.0000      -0.409446       -11.1416
  62   2.0000      -0.406347       -11.0573
  63   2.0000      -0.341864        -9.3026
  64   2.0000      -0.332536        -9.0488
  65   2.0000      -0.327699        -8.9171
  66   2.0000      -0.308747        -8.4014
  67   0.0000       0.042405         1.1539
  68   0.0000       0.062538         1.7017
  69   0.0000       0.109043         2.9672
  70   0.0000       0.120447         3.2775
  71   0.0000       0.132134         3.5955

MULLIKEN ATOMIC CHARGES
-----------------------
   0 S :    0.134401
   1 C :   -0.135606
   2 C :   -0.061880
   3 C :    0.042585
   4 C :   -0.188966
   5 H :   -0.003422
   6 C :    0.125124
   7 H :    0.007379
   8 H :   -0.013992
   9 C :   -0.058316
  10 H :    0.008280
  11 H :    0.021602
  12 C :   -0.040888
  13 H :    0.036809
  14 H :    0.037716
  15 H :    0.030243
  16 S :    0.115492
  17 C :   -0.080703
  18 C :   -0.033589
  19 C :   -0.012687
  20 C :   -0.181835
  21 H :    0.036666
  22 C :    0.065651
  23 H :    0.021929
  24 H :    0.003494
  25 C :   -0.025555
  26 H :    0.026630
  27 H :    0.005041
  28 C :   -0.044530
  29 H :    0.008105
  30 H :    0.028804
  31 H :    0.024420
  32 H :    0.053059
  33 H :    0.048541
Sum of atomic charges:    0.0000000

LOEWDIN ATOMIC CHARGES
----------------------
   0 S :    0.416313
   1 C :   -0.197792
   2 C :   -0.066532
   3 C :   -0.056471
   4 C :   -0.191873
   5 H :    0.028365
   6 C :   -0.021741
   7 H :    0.025319
   8 H :    0.021447
   9 C :   -0.042660
  10 H :    0.018090
  11 H :    0.026661
  12 C :   -0.062471
  13 H :    0.027526
  14 H :    0.028070
  15 H :    0.022883
  16 S :    0.410144
  17 C :   -0.173815
  18 C :   -0.072147
  19 C :   -0.049625
  20 C :   -0.213115
  21 H :    0.036613
  22 C :   -0.032639
  23 H :    0.032234
  24 H :    0.022799
  25 C :   -0.029326
  26 H :    0.028992
  27 H :    0.009665
  28 C :   -0.066942
  29 H :    0.013071
  30 H :    0.031467
  31 H :    0.017222
  32 H :    0.036939
  33 H :    0.023325

  Mayer bond orders larger than 0.100000
B(  0-S ,  1-C ) :   1.1335 B(  0-S ,  4-C ) :   1.1558 B(  1-C ,  2-C ) :   1.6294
B(  1-C ,  4-C ) :   0.1010 B(  1-C , 32-H ) :   0.9557 B(  2-C ,  3-C ) :   1.2484
B(  2-C ,  6-C ) :   1.0104 B(  3-C ,  4-C ) :   1.5670 B(  3-C ,  5-H ) :   1.0065
B(  4-C , 20-C ) :   1.0265 B(  6-C ,  7-H ) :   0.9384 B(  6-C ,  8-H ) :   0.9247
B(  6-C ,  9-C ) :   1.0760 B(  9-C , 10-H ) :   0.9494 B(  9-C , 11-H ) :   0.9528
B(  9-C , 12-C ) :   1.0789 B( 12-C , 13-H ) :   0.9746 B( 12-C , 14-H ) :   0.9719
B( 12-C , 15-H ) :   0.9776 B( 16-S , 17-C ) :   1.1630 B( 16-S , 20-C ) :   1.1095
B( 17-C , 18-C ) :   1.6183 B( 17-C , 33-H ) :   0.9690 B( 18-C , 19-C ) :   1.2088
B( 18-C , 21-H ) :   0.9850 B( 19-C , 20-C ) :   1.6747 B( 19-C , 22-C ) :   1.0356
B( 22-C , 23-H ) :   0.9347 B( 22-C , 24-H ) :   0.9245 B( 22-C , 25-C ) :   1.0759
B( 25-C , 26-H ) :   0.9544 B( 25-C , 27-H ) :   0.9566 B( 25-C , 28-C ) :   1.0692
B( 28-C , 29-H ) :   0.9775 B( 28-C , 30-H ) :   0.9729 B( 28-C , 31-H ) :   0.9761

Dispersion correction           -0.015087034
FINAL SINGLE POINT ENERGY     -1339.864249903895

DIPOLE MOMENT
-------------
                                X             Y             Z
Electronic contribution:      5.57899      10.02867       2.17188
Nuclear contribution   :     -5.60037     -10.33448      -2.37460
                        -----------------------------------------
Total Dipole Moment    :     -0.02138      -0.30581      -0.20272
                        -----------------------------------------
Magnitude (a.u.)       :      0.36752
Magnitude (Debye)      :      0.93417

Rotational constants in cm-1:     0.021795     0.008741     0.006935
Rotational constants in MHz :   653.394266   262.053099   207.917657

                             ****ORCA TERMINATED NORMALLY****
TOTAL RUN TIME: 0 days 0 hours 0 minutes 33 seconds 915 msec
