                         Program Version 4.2.1 -  RELEASE  -
|  1> ! wB97X-D3 SP def2-SVP
|  2> %pal
|  3> nprocs 16
|  4> end
|  5>
|  6> * xyz 0 1
|  7> S 	 22.4266 	 1.32267 	 88.0153
|  8> C 	 23.2398 	 2.85115 	 87.822
|  9> C 	 23.7375 	 3.13121 	 86.5964
| 10> C 	 23.4312 	 2.06744 	 85.6965
| 11> C 	 22.6346 	 1.0153 	 86.2646
| 12> H 	 23.664 	 1.94615 	 84.6684
| 13> C 	 24.488 	 4.42001 	 86.2535
| 14> H 	 25.2437 	 4.06657 	 85.5473
| 15> H 	 24.9861 	 4.81429 	 87.1521
| 16> C 	 23.811 	 5.64284 	 85.5686
| 17> H 	 23.3736 	 5.25896 	 84.6813
| 18> H 	 22.9662 	 6.01214 	 86.1553
| 19> C 	 24.775 	 6.72728 	 85.1333
| 20> H 	 25.2417 	 7.24324 	 86.0298
| 21> H 	 25.5706 	 6.40092 	 84.442
| 22> H 	 24.2248 	 7.47904 	 84.6131
| 23> S 	 21.4946 	 -1.3424 	 86.8425
| 24> C 	 21.182 	 -2.51864 	 85.6231
| 25> C 	 21.5303 	 -2.05224 	 84.3675
| 26> C 	 22.105 	 -0.705821 	 84.3507
| 27> C 	 22.1443 	 -0.203571 	 85.6687
| 28> H 	 21.4354 	 -2.63315 	 83.4896
| 29> C 	 22.5311 	 -0.0688407 	 83.066
| 30> H 	 22.3644 	 1.0096 	 83.0065
| 31> H 	 21.793 	 -0.411684 	 82.3339
| 32> C 	 23.9499 	 -0.36826 	 82.5593
| 33> H 	 24.0071 	 -1.45992 	 82.4049
| 34> H 	 24.5525 	 -0.144192 	 83.4324
| 35> C 	 24.3081 	 0.44717 	 81.3976
| 36> H 	 25.2531 	 0.141631 	 81.0162
| 37> H 	 24.3687 	 1.53511 	 81.5651
| 38> H 	 23.5911 	 0.309309 	 80.5927
| 39> H 	 23.455 	 3.52606 	 88.5886
| 40> H 	 20.7785 	 -3.47038 	 85.7338
| 41> *
| 42>
| 43>                          ****END OF INPUT****

CARTESIAN COORDINATES (ANGSTROEM)
---------------------------------
  S     22.426600    1.322670   88.015300
  C     23.239800    2.851150   87.822000
  C     23.737500    3.131210   86.596400
  C     23.431200    2.067440   85.696500
  C     22.634600    1.015300   86.264600
  H     23.664000    1.946150   84.668400
  C     24.488000    4.420010   86.253500
  H     25.243700    4.066570   85.547300
  H     24.986100    4.814290   87.152100
  C     23.811000    5.642840   85.568600
  H     23.373600    5.258960   84.681300
  H     22.966200    6.012140   86.155300
  C     24.775000    6.727280   85.133300
  H     25.241700    7.243240   86.029800
  H     25.570600    6.400920   84.442000
  H     24.224800    7.479040   84.613100
  S     21.494600   -1.342400   86.842500
  C     21.182000   -2.518640   85.623100
  C     21.530300   -2.052240   84.367500
  C     22.105000   -0.705821   84.350700
  C     22.144300   -0.203571   85.668700
  H     21.435400   -2.633150   83.489600
  C     22.531100   -0.068841   83.066000
  H     22.364400    1.009600   83.006500
  H     21.793000   -0.411684   82.333900
  C     23.949900   -0.368260   82.559300
  H     24.007100   -1.459920   82.404900
  H     24.552500   -0.144192   83.432400
  C     24.308100    0.447170   81.397600
  H     25.253100    0.141631   81.016200
  H     24.368700    1.535110   81.565100
  H     23.591100    0.309309   80.592700
  H     23.455000    3.526060   88.588600
  H     20.778500   -3.470380   85.733800

 Total Charge           Charge          ....    0
 Multiplicity           Mult            ....    1
 Number of Electrons    NEL             ....  134
 Basis Dimension        Dim             ....  322

ORBITAL ENERGIES
----------------

  NO   OCC          E(Eh)            E(eV)
   0   2.0000     -88.968421     -2420.9538
   1   2.0000     -88.967097     -2420.9178
   2   2.0000     -10.335977      -281.2562
   3   2.0000     -10.331674      -281.1392
   4   2.0000     -10.313361      -280.6408
   5   2.0000     -10.308771      -280.5159
   6   2.0000     -10.304440      -280.3981
   7   2.0000     -10.299897      -280.2744
   8   2.0000     -10.297274      -280.2031
   9   2.0000     -10.296143      -280.1723
  10   2.0000     -10.294081      -280.1162
  11   2.0000     -10.291925      -280.0575
  12   2.0000     -10.285640      -279.8865
  13   2.0000     -10.285545      -279.8839
  14   2.0000     -10.283921      -279.8397
  15   2.0000     -10.277078      -279.6535
  16   2.0000      -8.082528      -219.9368
  17   2.0000      -8.082290      -219.9303
  18   2.0000      -6.041134      -164.3876
  19   2.0000      -6.040921      -164.3818
  20   2.0000      -6.037294      -164.2831
  21   2.0000      -6.036762      -164.2686
  22   2.0000      -6.033068      -164.1681
  23   2.0000      -6.032884      -164.1631
  24   2.0000      -1.004937       -27.3457
  25   2.0000      -0.980985       -26.6940
  26   2.0000      -0.921113       -25.0648
  27   2.0000      -0.909468       -24.7479
  28   2.0000      -0.873975       -23.7821
  29   2.0000      -0.860780       -23.4230
  30   2.0000      -0.846404       -23.0318
  31   2.0000      -0.814090       -22.1525
  32   2.0000      -0.785361       -21.3708
  33   2.0000      -0.774777       -21.0827
  34   2.0000      -0.712351       -19.3841
  35   2.0000      -0.701206       -19.0808
  36   2.0000      -0.698186       -18.9986
  37   2.0000      -0.670440       -18.2436
  38   2.0000      -0.639743       -17.4083
  39   2.0000      -0.618868       -16.8403
  40   2.0000      -0.602482       -16.3944
  41   2.0000      -0.572425       -15.5765
  42   2.0000      -0.568165       -15.4606
  43   2.0000      -0.560274       -15.2458
  44   2.0000      -0.530826       -14.4445
  45   2.0000      -0.525226       -14.2921
  46   2.0000      -0.517403       -14.0793
  47   2.0000      -0.511458       -13.9175
  48   2.0000      -0.510373       -13.8879
  49   2.0000      -0.497810       -13.5461
  50   2.0000      -0.492977       -13.4146
  51   2.0000      -0.491566       -13.3762
  52   2.0000      -0.469752       -12.7826
  53   2.0000      -0.468186       -12.7400
  54   2.0000      -0.464205       -12.6317
  55   2.0000      -0.457247       -12.4423
  56   2.0000      -0.441443       -12.0123
  57   2.0000      -0.439331       -11.9548
  58   2.0000      -0.434274       -11.8172
  59   2.0000      -0.432539       -11.7700
  60   2.0000      -0.422048       -11.4845
  61   2.0000      -0.419554       -11.4167
  62   2.0000      -0.410742       -11.1769
  63   2.0000      -0.364139        -9.9087
  64   2.0000      -0.337765        -9.1911
  65   2.0000      -0.326548        -8.8858
  66   2.0000      -0.275591        -7.4992
  67   0.0000       0.014609         0.3975
  68   0.0000       0.082147         2.2353
  69   0.0000       0.095706         2.6043
  70   0.0000       0.114831         3.1247
  71   0.0000       0.136206         3.7063

MULLIKEN ATOMIC CHARGES
-----------------------
   0 S :    0.098473
   1 C :   -0.076964
   2 C :   -0.050642
   3 C :    0.011680
   4 C :   -0.133638
   5 H :   -0.022371
   6 C :    0.045727
   7 H :    0.021858
   8 H :    0.021585
   9 C :   -0.035410
  10 H :    0.009561
  11 H :    0.031313
  12 C :   -0.059371
  13 H :    0.037605
  14 H :    0.037441
  15 H :    0.030870
  16 S :    0.091817
  17 C :   -0.039904
  18 C :   -0.024165
  19 C :   -0.052117
  20 C :   -0.113686
  21 H :    0.000086
  22 C :   -0.001869
  23 H :    0.022651
  24 H :    0.017624
  25 C :   -0.045968
  26 H :    0.028985
  27 H :    0.026878
  28 C :   -0.003305
  29 H :    0.026191
  30 H :    0.031395
  31 H :    0.021436
  32 H :    0.013436
  33 H :    0.032798
Sum of atomic charges:   -0.0000000

LOEWDIN ATOMIC CHARGES
----------------------
   0 S :    0.385155
   1 C :   -0.184447
   2 C :   -0.065178
   3 C :   -0.060089
   4 C :   -0.175085
   5 H :    0.019825
   6 C :   -0.030754
   7 H :    0.031986
   8 H :    0.028870
   9 C :   -0.039725
  10 H :    0.018274
  11 H :    0.026020
  12 C :   -0.066254
  13 H :    0.030365
  14 H :    0.028531
  15 H :    0.025151
  16 S :    0.408966
  17 C :   -0.184439
  18 C :   -0.060139
  19 C :   -0.054512
  20 C :   -0.187302
  21 H :    0.022351
  22 C :   -0.042911
  23 H :    0.027372
  24 H :    0.031166
  25 C :   -0.040326
  26 H :    0.028608
  27 H :    0.024506
  28 C :   -0.062188
  29 H :    0.025372
  30 H :    0.029045
  31 H :    0.025940
  32 H :    0.015756
  33 H :    0.020091

  Mayer bond orders larger than 0.100000
B(  0-S ,  1-C ) :   1.1283 B(  0-S ,  4-C ) :   1.1300 B(  1-C ,  2-C ) :   1.6473
B(  1-C , 32-H ) :   0.9626 B(  2-C ,  3-C ) :   1.2267 B(  2-C ,  6-C ) :   1.0190
B(  3-C ,  4-C ) :   1.5626 B(  3-C ,  5-H ) :   0.9934 B(  4-C , 20-C ) :   1.1213
B(  6-C ,  7-H ) :   0.9371 B(  6-C ,  8-H ) :   0.9418 B(  6-C ,  9-C ) :   1.0647
B(  9-C , 10-H ) :   0.9491 B(  9-C , 11-H ) :   0.9536 B(  9-C , 12-C ) :   1.0886
B( 12-C , 13-H ) :   0.9742 B( 12-C , 14-H ) :   0.9731 B( 12-C , 15-H ) :   0.9716
B( 16-S , 17-C ) :   1.1447 B( 16-S , 20-C ) :   1.1335 B( 17-C , 18-C ) :   1.6133
B( 17-C , 33-H ) :   0.9747 B( 18-C , 19-C ) :   1.2435 B( 18-C , 21-H ) :   0.9899
B( 19-C , 20-C ) :   1.5643 B( 19-C , 22-C ) :   1.0499 B( 22-C , 23-H ) :   0.9380
B( 22-C , 24-H ) :   0.9209 B( 22-C , 25-C ) :   1.0569 B( 25-C , 26-H ) :   0.9483
B( 25-C , 27-H ) :   0.9516 B( 25-C , 28-C ) :   1.0966 B( 28-C , 29-H ) :   0.9671
B( 28-C , 30-H ) :   0.9689 B( 28-C , 31-H ) :   0.9679

Dispersion correction           -0.013481776
FINAL SINGLE POINT ENERGY     -1339.881663500683

DIPOLE MOMENT
-------------
                                X             Y             Z
Electronic contribution:    -13.96670     -19.58740      22.87174
Nuclear contribution   :     14.23350      19.81905     -23.56626
                        -----------------------------------------
Total Dipole Moment    :      0.26680       0.23165      -0.69452
                        -----------------------------------------
Magnitude (a.u.)       :      0.77923
Magnitude (Debye)      :      1.98065

Rotational constants in cm-1:     0.017511     0.008676     0.005997
Rotational constants in MHz :   524.956387   260.092138   179.794632

                             ****ORCA TERMINATED NORMALLY****
TOTAL RUN TIME: 0 days 0 hours 0 minutes 34 seconds 412 msec
