                         Program Version 4.2.1 -  RELEASE  -
|  1> ! wB97X-D3 SP def2-SVP
|  2> %pal
|  3> nprocs 16
|  4> end
|  5>
|  6> * xyz 0 1
|  7> S 	 -37.3253 	 39.5799 	 93.055
|  8> C 	 -38.2717 	 41.0125 	 92.8008
|  9> C 	 -39.5908 	 40.8958 	 93.0468
| 10> C 	 -39.9108 	 39.5852 	 93.5468
| 11> C 	 -38.8072 	 38.7327 	 93.5943
| 12> H 	 -40.9051 	 39.2353 	 93.838
| 13> C 	 -40.5613 	 42.0245 	 93.0416
| 14> H 	 -40.6722 	 42.4007 	 92.0461
| 15> H 	 -40.0488 	 42.9059 	 93.5204
| 16> C 	 -42.0029 	 41.8577 	 93.6559
| 17> H 	 -42.5115 	 41.0594 	 93.1877
| 18> H 	 -41.9146 	 41.59 	 94.6272
| 19> C 	 -42.8183 	 43.0775 	 93.3529
| 20> H 	 -42.8375 	 43.1379 	 92.2504
| 21> H 	 -43.8184 	 42.888 	 93.6145
| 22> H 	 -42.2864 	 43.882 	 93.7495
| 23> S 	 -37.2454 	 36.7877 	 94.7826
| 24> C 	 -37.7954 	 35.1647 	 94.8984
| 25> C 	 -39.1251 	 35.1127 	 94.7305
| 26> C 	 -39.6879 	 36.3324 	 94.1703
| 27> C 	 -38.736 	 37.391 	 94.1601
| 28> H 	 -39.6714 	 34.2299 	 94.922
| 29> C 	 -41.1154 	 36.4639 	 93.7289
| 30> H 	 -41.5754 	 35.5192 	 93.433
| 31> H 	 -41.171 	 37.1013 	 92.7618
| 32> C 	 -42.0164 	 36.9951 	 94.8307
| 33> H 	 -41.496 	 37.6492 	 95.4834
| 34> H 	 -42.412 	 36.1521 	 95.4465
| 35> C 	 -43.2465 	 37.6259 	 94.2713
| 36> H 	 -42.9891 	 38.579 	 93.8008
| 37> H 	 -43.9713 	 37.7004 	 95.0015
| 38> H 	 -43.6459 	 36.994 	 93.483
| 39> H 	 -37.6804 	 41.8958 	 92.5461
| 40> H 	 -37.0992 	 34.4627 	 95.3624
| 41> *
| 42>
| 43>                          ****END OF INPUT****

CARTESIAN COORDINATES (ANGSTROEM)
---------------------------------
  S    -37.325300   39.579900   93.055000
  C    -38.271700   41.012500   92.800800
  C    -39.590800   40.895800   93.046800
  C    -39.910800   39.585200   93.546800
  C    -38.807200   38.732700   93.594300
  H    -40.905100   39.235300   93.838000
  C    -40.561300   42.024500   93.041600
  H    -40.672200   42.400700   92.046100
  H    -40.048800   42.905900   93.520400
  C    -42.002900   41.857700   93.655900
  H    -42.511500   41.059400   93.187700
  H    -41.914600   41.590000   94.627200
  C    -42.818300   43.077500   93.352900
  H    -42.837500   43.137900   92.250400
  H    -43.818400   42.888000   93.614500
  H    -42.286400   43.882000   93.749500
  S    -37.245400   36.787700   94.782600
  C    -37.795400   35.164700   94.898400
  C    -39.125100   35.112700   94.730500
  C    -39.687900   36.332400   94.170300
  C    -38.736000   37.391000   94.160100
  H    -39.671400   34.229900   94.922000
  C    -41.115400   36.463900   93.728900
  H    -41.575400   35.519200   93.433000
  H    -41.171000   37.101300   92.761800
  C    -42.016400   36.995100   94.830700
  H    -41.496000   37.649200   95.483400
  H    -42.412000   36.152100   95.446500
  C    -43.246500   37.625900   94.271300
  H    -42.989100   38.579000   93.800800
  H    -43.971300   37.700400   95.001500
  H    -43.645900   36.994000   93.483000
  H    -37.680400   41.895800   92.546100
  H    -37.099200   34.462700   95.362400

 Total Charge           Charge          ....    0
 Multiplicity           Mult            ....    1
 Number of Electrons    NEL             ....  134
 Basis Dimension        Dim             ....  322

ORBITAL ENERGIES
----------------

  NO   OCC          E(Eh)            E(eV)
   0   2.0000     -88.964433     -2420.8453
   1   2.0000     -88.958753     -2420.6907
   2   2.0000     -10.333086      -281.1776
   3   2.0000     -10.326651      -281.0025
   4   2.0000     -10.312024      -280.6044
   5   2.0000     -10.308724      -280.5146
   6   2.0000     -10.305295      -280.4213
   7   2.0000     -10.298940      -280.2484
   8   2.0000     -10.297664      -280.2137
   9   2.0000     -10.294942      -280.1396
  10   2.0000     -10.292414      -280.0708
  11   2.0000     -10.290763      -280.0259
  12   2.0000     -10.280792      -279.7546
  13   2.0000     -10.276710      -279.6435
  14   2.0000     -10.272074      -279.5174
  15   2.0000     -10.271364      -279.4980
  16   2.0000      -8.079065      -219.8425
  17   2.0000      -8.075071      -219.7338
  18   2.0000      -6.037611      -164.2917
  19   2.0000      -6.033696      -164.1852
  20   2.0000      -6.033515      -164.1803
  21   2.0000      -6.029695      -164.0764
  22   2.0000      -6.029320      -164.0661
  23   2.0000      -6.025846      -163.9716
  24   2.0000      -1.007797       -27.4236
  25   2.0000      -0.986707       -26.8497
  26   2.0000      -0.919755       -25.0278
  27   2.0000      -0.917511       -24.9667
  28   2.0000      -0.876732       -23.8571
  29   2.0000      -0.856380       -23.3033
  30   2.0000      -0.849774       -23.1235
  31   2.0000      -0.819463       -22.2987
  32   2.0000      -0.781622       -21.2690
  33   2.0000      -0.769043       -20.9267
  34   2.0000      -0.718326       -19.5466
  35   2.0000      -0.698352       -19.0031
  36   2.0000      -0.689322       -18.7574
  37   2.0000      -0.666057       -18.1243
  38   2.0000      -0.639105       -17.3909
  39   2.0000      -0.624022       -16.9805
  40   2.0000      -0.604766       -16.4565
  41   2.0000      -0.580963       -15.8088
  42   2.0000      -0.574388       -15.6299
  43   2.0000      -0.568531       -15.4705
  44   2.0000      -0.537140       -14.6163
  45   2.0000      -0.530415       -14.4333
  46   2.0000      -0.518995       -14.1226
  47   2.0000      -0.508956       -13.8494
  48   2.0000      -0.507655       -13.8140
  49   2.0000      -0.498639       -13.5687
  50   2.0000      -0.488884       -13.3032
  51   2.0000      -0.486702       -13.2438
  52   2.0000      -0.473021       -12.8716
  53   2.0000      -0.466323       -12.6893
  54   2.0000      -0.461196       -12.5498
  55   2.0000      -0.449809       -12.2399
  56   2.0000      -0.445380       -12.1194
  57   2.0000      -0.442438       -12.0394
  58   2.0000      -0.437454       -11.9037
  59   2.0000      -0.430137       -11.7046
  60   2.0000      -0.424333       -11.5467
  61   2.0000      -0.415600       -11.3090
  62   2.0000      -0.410064       -11.1584
  63   2.0000      -0.359246        -9.7756
  64   2.0000      -0.331165        -9.0114
  65   2.0000      -0.325053        -8.8451
  66   2.0000      -0.282640        -7.6910
  67   0.0000       0.022311         0.6071
  68   0.0000       0.086471         2.3530
  69   0.0000       0.104834         2.8527
  70   0.0000       0.124087         3.3766
  71   0.0000       0.131001         3.5647

MULLIKEN ATOMIC CHARGES
-----------------------
   0 S :    0.102787
   1 C :   -0.164976
   2 C :    0.010793
   3 C :   -0.006766
   4 C :   -0.105404
   5 H :   -0.022724
   6 C :    0.002837
   7 H :    0.017943
   8 H :    0.031956
   9 C :   -0.050158
  10 H :    0.020821
  11 H :    0.012214
  12 C :    0.026841
  13 H :    0.021208
  14 H :    0.025146
  15 H :    0.022182
  16 S :    0.083846
  17 C :   -0.097933
  18 C :    0.012825
  19 C :   -0.067990
  20 C :   -0.124908
  21 H :    0.004460
  22 C :    0.003483
  23 H :    0.019421
  24 H :    0.052297
  25 C :   -0.077714
  26 H :    0.033747
  27 H :    0.028236
  28 C :    0.001149
  29 H :    0.026593
  30 H :    0.017947
  31 H :    0.019258
  32 H :    0.051873
  33 H :    0.068712
Sum of atomic charges:   -0.0000000

LOEWDIN ATOMIC CHARGES
----------------------
   0 S :    0.389906
   1 C :   -0.194237
   2 C :   -0.067566
   3 C :   -0.061474
   4 C :   -0.173314
   5 H :    0.029947
   6 C :   -0.035230
   7 H :    0.027827
   8 H :    0.038388
   9 C :   -0.027698
  10 H :    0.017503
  11 H :    0.007773
  12 C :   -0.043933
  13 H :    0.030299
  14 H :    0.023068
  15 H :    0.018194
  16 S :    0.417513
  17 C :   -0.191686
  18 C :   -0.066476
  19 C :   -0.053658
  20 C :   -0.207047
  21 H :    0.025498
  22 C :   -0.044222
  23 H :    0.029866
  24 H :    0.040890
  25 C :   -0.043048
  26 H :    0.015897
  27 H :    0.030272
  28 C :   -0.053075
  29 H :    0.019679
  30 H :    0.015759
  31 H :    0.025932
  32 H :    0.026583
  33 H :    0.031870

  Mayer bond orders larger than 0.100000
B(  0-S ,  1-C ) :   1.1363 B(  0-S ,  4-C ) :   1.1369 B(  1-C ,  2-C ) :   1.6149
B(  1-C , 32-H ) :   0.9707 B(  2-C ,  3-C ) :   1.2368 B(  2-C ,  6-C ) :   1.0099
B(  3-C ,  4-C ) :   1.5595 B(  3-C ,  5-H ) :   0.9852 B(  4-C , 20-C ) :   1.0885
B(  6-C ,  7-H ) :   0.9306 B(  6-C ,  8-H ) :   0.9405 B(  6-C ,  9-C ) :   1.0777
B(  9-C , 10-H ) :   0.9437 B(  9-C , 11-H ) :   0.9509 B(  9-C , 12-C ) :   1.0869
B( 12-C , 13-H ) :   0.9728 B( 12-C , 14-H ) :   0.9685 B( 12-C , 15-H ) :   0.9762
B( 16-S , 17-C ) :   1.1645 B( 16-S , 20-C ) :   1.1460 B( 17-C , 18-C ) :   1.5868
B( 17-C , 33-H ) :   0.9667 B( 18-C , 19-C ) :   1.2547 B( 18-C , 21-H ) :   0.9982
B( 19-C , 20-C ) :   1.5414 B( 19-C , 22-C ) :   1.0622 B( 22-C , 23-H ) :   0.9245
B( 22-C , 24-H ) :   0.9441 B( 22-C , 25-C ) :   1.0437 B( 25-C , 26-H ) :   0.9619
B( 25-C , 27-H ) :   0.9473 B( 25-C , 28-C ) :   1.0907 B( 28-C , 29-H ) :   0.9721
B( 28-C , 30-H ) :   0.9665 B( 28-C , 31-H ) :   0.9614

Dispersion correction           -0.014663813
FINAL SINGLE POINT ENERGY     -1339.870541865013

DIPOLE MOMENT
-------------
                                X             Y             Z
Electronic contribution:     31.38686     -11.18389       0.55847
Nuclear contribution   :    -32.12596      11.25932      -0.43984
                        -----------------------------------------
Total Dipole Moment    :     -0.73910       0.07543       0.11863
                        -----------------------------------------
Magnitude (a.u.)       :      0.75235
Magnitude (Debye)      :      1.91232

Rotational constants in cm-1:     0.018951     0.009618     0.006610
Rotational constants in MHz :   568.139893   288.333073   198.163849

                             ****ORCA TERMINATED NORMALLY****
TOTAL RUN TIME: 0 days 0 hours 0 minutes 31 seconds 517 msec
