                         Program Version 4.2.1 -  RELEASE  -
|  1> ! wB97X-D3 SP def2-SVP
|  2> %pal
|  3> nprocs 16
|  4> end
|  5>
|  6> * xyz 0 1
|  7> S 	 -66.723 	 61.1068 	 124.766
|  8> C 	 -66.0832 	 61.0114 	 123.112
|  9> C 	 -66.4537 	 59.8318 	 122.509
| 10> C 	 -67.1522 	 58.9317 	 123.379
| 11> C 	 -67.2701 	 59.4383 	 124.633
| 12> H 	 -67.6112 	 58.038 	 123.097
| 13> C 	 -66.2585 	 59.5087 	 120.966
| 14> H 	 -67.0723 	 59.898 	 120.353
| 15> H 	 -66.3826 	 58.4054 	 120.851
| 16> C 	 -64.9683 	 60.0135 	 120.285
| 17> H 	 -64.7923 	 61.0041 	 120.553
| 18> H 	 -64.0676 	 59.5094 	 120.637
| 19> C 	 -64.9288 	 59.9488 	 118.808
| 20> H 	 -65.7378 	 60.4718 	 118.424
| 21> H 	 -63.9579 	 60.3076 	 118.531
| 22> H 	 -64.9812 	 58.895 	 118.456
| 23> S 	 -68.8251 	 59.5072 	 126.969
| 24> C 	 -68.6657 	 58.2862 	 128.121
| 25> C 	 -67.8272 	 57.2958 	 127.647
| 26> C 	 -67.2361 	 57.551 	 126.338
| 27> C 	 -67.6505 	 58.7675 	 125.856
| 28> H 	 -67.5851 	 56.3295 	 128.097
| 29> C 	 -66.1796 	 56.6513 	 125.683
| 30> H 	 -66.3776 	 56.5548 	 124.628
| 31> H 	 -66.3186 	 55.6516 	 126.097
| 32> C 	 -64.7289 	 57.1325 	 125.816
| 33> H 	 -64.457 	 57.2514 	 126.824
| 34> H 	 -64.5976 	 58.1068 	 125.376
| 35> C 	 -63.7203 	 56.1252 	 125.195
| 36> H 	 -62.6591 	 56.5153 	 124.97
| 37> H 	 -64.1108 	 55.744 	 124.318
| 38> H 	 -63.6581 	 55.2525 	 125.84
| 39> H 	 -65.6116 	 61.8576 	 122.697
| 40> H 	 -69.1372 	 58.2384 	 129.108
| 41> *
| 42>
| 43>                          ****END OF INPUT****

CARTESIAN COORDINATES (ANGSTROEM)
---------------------------------
  S    -66.723000   61.106800  124.766000
  C    -66.083200   61.011400  123.112000
  C    -66.453700   59.831800  122.509000
  C    -67.152200   58.931700  123.379000
  C    -67.270100   59.438300  124.633000
  H    -67.611200   58.038000  123.097000
  C    -66.258500   59.508700  120.966000
  H    -67.072300   59.898000  120.353000
  H    -66.382600   58.405400  120.851000
  C    -64.968300   60.013500  120.285000
  H    -64.792300   61.004100  120.553000
  H    -64.067600   59.509400  120.637000
  C    -64.928800   59.948800  118.808000
  H    -65.737800   60.471800  118.424000
  H    -63.957900   60.307600  118.531000
  H    -64.981200   58.895000  118.456000
  S    -68.825100   59.507200  126.969000
  C    -68.665700   58.286200  128.121000
  C    -67.827200   57.295800  127.647000
  C    -67.236100   57.551000  126.338000
  C    -67.650500   58.767500  125.856000
  H    -67.585100   56.329500  128.097000
  C    -66.179600   56.651300  125.683000
  H    -66.377600   56.554800  124.628000
  H    -66.318600   55.651600  126.097000
  C    -64.728900   57.132500  125.816000
  H    -64.457000   57.251400  126.824000
  H    -64.597600   58.106800  125.376000
  C    -63.720300   56.125200  125.195000
  H    -62.659100   56.515300  124.970000
  H    -64.110800   55.744000  124.318000
  H    -63.658100   55.252500  125.840000
  H    -65.611600   61.857600  122.697000
  H    -69.137200   58.238400  129.108000

 Total Charge           Charge          ....    0
 Multiplicity           Mult            ....    1
 Number of Electrons    NEL             ....  134
 Basis Dimension        Dim             ....  322

ORBITAL ENERGIES
----------------

  NO   OCC          E(Eh)            E(eV)
   0   2.0000     -88.964400     -2420.8444
   1   2.0000     -88.963915     -2420.8312
   2   2.0000     -10.328051      -281.0406
   3   2.0000     -10.323285      -280.9109
   4   2.0000     -10.317338      -280.7490
   5   2.0000     -10.313725      -280.6507
   6   2.0000     -10.308531      -280.5094
   7   2.0000     -10.302349      -280.3412
   8   2.0000     -10.300543      -280.2920
   9   2.0000     -10.294770      -280.1349
  10   2.0000     -10.292746      -280.0799
  11   2.0000     -10.291597      -280.0486
  12   2.0000     -10.277838      -279.6742
  13   2.0000     -10.277262      -279.6585
  14   2.0000     -10.275466      -279.6097
  15   2.0000     -10.271116      -279.4913
  16   2.0000      -8.079915      -219.8657
  17   2.0000      -8.078562      -219.8289
  18   2.0000      -6.038434      -164.3142
  19   2.0000      -6.037054      -164.2766
  20   2.0000      -6.034193      -164.1987
  21   2.0000      -6.033244      -164.1729
  22   2.0000      -6.030750      -164.1050
  23   2.0000      -6.029180      -164.0623
  24   2.0000      -1.008443       -27.4411
  25   2.0000      -0.984527       -26.7903
  26   2.0000      -0.913455       -24.8564
  27   2.0000      -0.908152       -24.7121
  28   2.0000      -0.872504       -23.7420
  29   2.0000      -0.854523       -23.2528
  30   2.0000      -0.844829       -22.9890
  31   2.0000      -0.813636       -22.1402
  32   2.0000      -0.782939       -21.3049
  33   2.0000      -0.772054       -21.0087
  34   2.0000      -0.709066       -19.2947
  35   2.0000      -0.704304       -19.1651
  36   2.0000      -0.692296       -18.8383
  37   2.0000      -0.663685       -18.0598
  38   2.0000      -0.649293       -17.6682
  39   2.0000      -0.621579       -16.9140
  40   2.0000      -0.598444       -16.2845
  41   2.0000      -0.571556       -15.5528
  42   2.0000      -0.563393       -15.3307
  43   2.0000      -0.558652       -15.2017
  44   2.0000      -0.531126       -14.4527
  45   2.0000      -0.523203       -14.2371
  46   2.0000      -0.517913       -14.0931
  47   2.0000      -0.511769       -13.9259
  48   2.0000      -0.510095       -13.8804
  49   2.0000      -0.500720       -13.6253
  50   2.0000      -0.488023       -13.2798
  51   2.0000      -0.485415       -13.2088
  52   2.0000      -0.476888       -12.9768
  53   2.0000      -0.461570       -12.5600
  54   2.0000      -0.456394       -12.4191
  55   2.0000      -0.451165       -12.2768
  56   2.0000      -0.445240       -12.1156
  57   2.0000      -0.438792       -11.9401
  58   2.0000      -0.433892       -11.8068
  59   2.0000      -0.423101       -11.5132
  60   2.0000      -0.421233       -11.4623
  61   2.0000      -0.418266       -11.3816
  62   2.0000      -0.416121       -11.3232
  63   2.0000      -0.348724        -9.4893
  64   2.0000      -0.333749        -9.0818
  65   2.0000      -0.328475        -8.9383
  66   2.0000      -0.293348        -7.9824
  67   0.0000       0.028759         0.7826
  68   0.0000       0.071360         1.9418
  69   0.0000       0.108193         2.9441
  70   0.0000       0.122834         3.3425
  71   0.0000       0.132540         3.6066

MULLIKEN ATOMIC CHARGES
-----------------------
   0 S :    0.098844
   1 C :   -0.134833
   2 C :   -0.047159
   3 C :    0.036211
   4 C :   -0.137799
   5 H :    0.001306
   6 C :    0.053489
   7 H :    0.033981
   8 H :    0.020999
   9 C :   -0.069615
  10 H :    0.004628
  11 H :    0.021307
  12 C :   -0.010721
  13 H :    0.018333
  14 H :    0.028398
  15 H :    0.026627
  16 S :    0.111543
  17 C :   -0.079115
  18 C :   -0.038947
  19 C :   -0.055387
  20 C :   -0.161008
  21 H :    0.014057
  22 C :    0.078134
  23 H :    0.011585
  24 H :    0.012144
  25 C :   -0.033613
  26 H :    0.015339
  27 H :    0.035857
  28 C :   -0.039156
  29 H :    0.050446
  30 H :    0.002704
  31 H :    0.021723
  32 H :    0.039484
  33 H :    0.070215
Sum of atomic charges:    0.0000000

LOEWDIN ATOMIC CHARGES
----------------------
   0 S :    0.387690
   1 C :   -0.180864
   2 C :   -0.054827
   3 C :   -0.057322
   4 C :   -0.176826
   5 H :    0.025803
   6 C :   -0.029928
   7 H :    0.030995
   8 H :    0.029035
   9 C :   -0.043118
  10 H :    0.012984
  11 H :    0.024979
  12 C :   -0.051331
  13 H :    0.013745
  14 H :    0.028443
  15 H :    0.027628
  16 S :    0.415269
  17 C :   -0.208147
  18 C :   -0.076994
  19 C :   -0.052674
  20 C :   -0.197500
  21 H :    0.028510
  22 C :   -0.026274
  23 H :    0.025798
  24 H :    0.028155
  25 C :   -0.029767
  26 H :    0.017053
  27 H :    0.026336
  28 C :   -0.064108
  29 H :    0.038004
  30 H :    0.009228
  31 H :    0.023161
  32 H :    0.016750
  33 H :    0.040115

  Mayer bond orders larger than 0.100000
B(  0-S ,  1-C ) :   1.1223 B(  0-S ,  4-C ) :   1.1466 B(  1-C ,  2-C ) :   1.6283
B(  1-C , 32-H ) :   0.9805 B(  2-C ,  3-C ) :   1.2153 B(  2-C ,  6-C ) :   0.9987
B(  3-C ,  4-C ) :   1.5980 B(  3-C ,  5-H ) :   1.0081 B(  4-C , 20-C ) :   1.0283
B(  6-C ,  7-H ) :   0.9435 B(  6-C ,  8-H ) :   0.9459 B(  6-C ,  9-C ) :   1.0620
B(  9-C , 10-H ) :   0.9499 B(  9-C , 11-H ) :   0.9530 B(  9-C , 12-C ) :   1.1015
B( 12-C , 13-H ) :   0.9735 B( 12-C , 14-H ) :   0.9696 B( 12-C , 15-H ) :   0.9744
B( 16-S , 17-C ) :   1.1613 B( 16-S , 20-C ) :   1.1357 B( 17-C , 18-C ) :   1.5818
B( 17-C , 33-H ) :   0.9670 B( 18-C , 19-C ) :   1.2607 B( 18-C , 21-H ) :   0.9833
B( 19-C , 20-C ) :   1.6039 B( 19-C , 22-C ) :   1.0494 B( 22-C , 23-H ) :   0.9274
B( 22-C , 24-H ) :   0.9299 B( 22-C , 25-C ) :   1.0665 B( 25-C , 26-H ) :   0.9568
B( 25-C , 27-H ) :   0.9555 B( 25-C , 28-C ) :   1.0742 B( 28-C , 29-H ) :   0.9751
B( 28-C , 30-H ) :   0.9740 B( 28-C , 31-H ) :   0.9751

Dispersion correction           -0.014098172
FINAL SINGLE POINT ENERGY     -1339.879273469875

DIPOLE MOMENT
-------------
                                X             Y             Z
Electronic contribution:    -19.33639      13.01872      21.09654
Nuclear contribution   :     19.61603     -13.42201     -21.49091
                        -----------------------------------------
Total Dipole Moment    :      0.27963      -0.40329      -0.39437
                        -----------------------------------------
Magnitude (a.u.)       :      0.62958
Magnitude (Debye)      :      1.60026

Rotational constants in cm-1:     0.020752     0.008052     0.006411
Rotational constants in MHz :   622.115771   241.392014   192.210643

                             ****ORCA TERMINATED NORMALLY****
TOTAL RUN TIME: 0 days 0 hours 0 minutes 31 seconds 403 msec
