                         Program Version 4.2.1 -  RELEASE  -
|  1> ! wB97X-D3 SP def2-SVP
|  2> %pal
|  3> nprocs 16
|  4> end
|  5>
|  6> * xyz 0 1
|  7> S 	 -7.71402 	 -18.9986 	 79.8459
|  8> C 	 -7.50819 	 -19.932 	 81.258
|  9> C 	 -7.46398 	 -19.2097 	 82.4261
| 10> C 	 -7.70941 	 -17.8284 	 82.1483
| 11> C 	 -8.08894 	 -17.5841 	 80.8523
| 12> H 	 -7.83036 	 -17.0585 	 82.8992
| 13> C 	 -7.34647 	 -19.642 	 83.8498
| 14> H 	 -6.90742 	 -20.5837 	 83.8163
| 15> H 	 -8.29833 	 -19.652 	 84.4101
| 16> C 	 -6.28054 	 -18.9365 	 84.6825
| 17> H 	 -5.44917 	 -19.5623 	 84.8803
| 18> H 	 -5.83973 	 -18.2137 	 84.1018
| 19> C 	 -6.76225 	 -18.3071 	 86.0374
| 20> H 	 -7.45615 	 -17.5187 	 85.7963
| 21> H 	 -7.24842 	 -19.0464 	 86.6549
| 22> H 	 -5.94853 	 -17.8307 	 86.5823
| 23> S 	 -7.33175 	 -15.7908 	 78.9127
| 24> C 	 -8.29073 	 -14.2378 	 78.8296
| 25> C 	 -9.2656 	 -14.227 	 79.7622
| 26> C 	 -9.40285 	 -15.407 	 80.5236
| 27> C 	 -8.31951 	 -16.2894 	 80.2804
| 28> H 	 -9.77792 	 -13.2801 	 79.8008
| 29> C 	 -10.3676 	 -15.4737 	 81.7151
| 30> H 	 -9.97528 	 -16.3279 	 82.2786
| 31> H 	 -11.2831 	 -15.7143 	 81.2882
| 32> C 	 -10.3739 	 -14.2389 	 82.6861
| 33> H 	 -11.1607 	 -14.5181 	 83.4136
| 34> H 	 -10.6612 	 -13.2446 	 82.2069
| 35> C 	 -8.98908 	 -13.9076 	 83.4536
| 36> H 	 -9.25777 	 -12.9883 	 84.0321
| 37> H 	 -8.19988 	 -13.6964 	 82.7878
| 38> H 	 -8.64097 	 -14.6614 	 84.1585
| 39> H 	 -7.27158 	 -20.9541 	 81.2601
| 40> H 	 -8.10451 	 -13.3795 	 78.1116
| 41> *
| 42>
| 43>                          ****END OF INPUT****

CARTESIAN COORDINATES (ANGSTROEM)
---------------------------------
  S     -7.714020  -18.998600   79.845900
  C     -7.508190  -19.932000   81.258000
  C     -7.463980  -19.209700   82.426100
  C     -7.709410  -17.828400   82.148300
  C     -8.088940  -17.584100   80.852300
  H     -7.830360  -17.058500   82.899200
  C     -7.346470  -19.642000   83.849800
  H     -6.907420  -20.583700   83.816300
  H     -8.298330  -19.652000   84.410100
  C     -6.280540  -18.936500   84.682500
  H     -5.449170  -19.562300   84.880300
  H     -5.839730  -18.213700   84.101800
  C     -6.762250  -18.307100   86.037400
  H     -7.456150  -17.518700   85.796300
  H     -7.248420  -19.046400   86.654900
  H     -5.948530  -17.830700   86.582300
  S     -7.331750  -15.790800   78.912700
  C     -8.290730  -14.237800   78.829600
  C     -9.265600  -14.227000   79.762200
  C     -9.402850  -15.407000   80.523600
  C     -8.319510  -16.289400   80.280400
  H     -9.777920  -13.280100   79.800800
  C    -10.367600  -15.473700   81.715100
  H     -9.975280  -16.327900   82.278600
  H    -11.283100  -15.714300   81.288200
  C    -10.373900  -14.238900   82.686100
  H    -11.160700  -14.518100   83.413600
  H    -10.661200  -13.244600   82.206900
  C     -8.989080  -13.907600   83.453600
  H     -9.257770  -12.988300   84.032100
  H     -8.199880  -13.696400   82.787800
  H     -8.640970  -14.661400   84.158500
  H     -7.271580  -20.954100   81.260100
  H     -8.104510  -13.379500   78.111600

 Total Charge           Charge          ....    0
 Multiplicity           Mult            ....    1
 Number of Electrons    NEL             ....  134
 Basis Dimension        Dim             ....  322

ORBITAL ENERGIES
----------------

  NO   OCC          E(Eh)            E(eV)
   0   2.0000     -88.966890     -2420.9122
   1   2.0000     -88.964764     -2420.8543
   2   2.0000     -10.326547      -280.9996
   3   2.0000     -10.324934      -280.9557
   4   2.0000     -10.320508      -280.8353
   5   2.0000     -10.307884      -280.4918
   6   2.0000     -10.304574      -280.4017
   7   2.0000     -10.301987      -280.3313
   8   2.0000     -10.297004      -280.1957
   9   2.0000     -10.290990      -280.0321
  10   2.0000     -10.289417      -279.9893
  11   2.0000     -10.287545      -279.9383
  12   2.0000     -10.285383      -279.8795
  13   2.0000     -10.283772      -279.8357
  14   2.0000     -10.279193      -279.7111
  15   2.0000     -10.275422      -279.6085
  16   2.0000      -8.082143      -219.9263
  17   2.0000      -8.078264      -219.8207
  18   2.0000      -6.040624      -164.3737
  19   2.0000      -6.036875      -164.2717
  20   2.0000      -6.036748      -164.2683
  21   2.0000      -6.033075      -164.1683
  22   2.0000      -6.032729      -164.1589
  23   2.0000      -6.028861      -164.0536
  24   2.0000      -1.008075       -27.4311
  25   2.0000      -0.981178       -26.6992
  26   2.0000      -0.916662       -24.9436
  27   2.0000      -0.895923       -24.3793
  28   2.0000      -0.874616       -23.7995
  29   2.0000      -0.850771       -23.1507
  30   2.0000      -0.838577       -22.8188
  31   2.0000      -0.817603       -22.2481
  32   2.0000      -0.786072       -21.3901
  33   2.0000      -0.772652       -21.0249
  34   2.0000      -0.713255       -19.4086
  35   2.0000      -0.703177       -19.1344
  36   2.0000      -0.694446       -18.8968
  37   2.0000      -0.653573       -17.7846
  38   2.0000      -0.642586       -17.4857
  39   2.0000      -0.627123       -17.0649
  40   2.0000      -0.587118       -15.9763
  41   2.0000      -0.570002       -15.5106
  42   2.0000      -0.559295       -15.2192
  43   2.0000      -0.550690       -14.9850
  44   2.0000      -0.533770       -14.5246
  45   2.0000      -0.530228       -14.4282
  46   2.0000      -0.524131       -14.2623
  47   2.0000      -0.513209       -13.9651
  48   2.0000      -0.499854       -13.6017
  49   2.0000      -0.495563       -13.4850
  50   2.0000      -0.494786       -13.4638
  51   2.0000      -0.482741       -13.1361
  52   2.0000      -0.467308       -12.7161
  53   2.0000      -0.465251       -12.6601
  54   2.0000      -0.458691       -12.4816
  55   2.0000      -0.451980       -12.2990
  56   2.0000      -0.441124       -12.0036
  57   2.0000      -0.436968       -11.8905
  58   2.0000      -0.433865       -11.8061
  59   2.0000      -0.429059       -11.6753
  60   2.0000      -0.423028       -11.5112
  61   2.0000      -0.415720       -11.3123
  62   2.0000      -0.408583       -11.1181
  63   2.0000      -0.349395        -9.5075
  64   2.0000      -0.333117        -9.0646
  65   2.0000      -0.326433        -8.8827
  66   2.0000      -0.289560        -7.8793
  67   0.0000       0.030072         0.8183
  68   0.0000       0.064733         1.7615
  69   0.0000       0.101402         2.7593
  70   0.0000       0.117376         3.1940
  71   0.0000       0.129188         3.5154

MULLIKEN ATOMIC CHARGES
-----------------------
   0 S :    0.116849
   1 C :   -0.085969
   2 C :   -0.118628
   3 C :    0.035262
   4 C :   -0.155717
   5 H :    0.013433
   6 C :    0.125043
   7 H :   -0.003303
   8 H :    0.052258
   9 C :   -0.057913
  10 H :    0.015313
  11 H :    0.002362
  12 C :   -0.058641
  13 H :    0.024221
  14 H :    0.037173
  15 H :    0.036080
  16 S :    0.087967
  17 C :   -0.130060
  18 C :   -0.021283
  19 C :   -0.054859
  20 C :   -0.163445
  21 H :    0.015737
  22 C :    0.128254
  23 H :    0.015774
  24 H :    0.023929
  25 C :   -0.121482
  26 H :    0.043812
  27 H :    0.045740
  28 C :   -0.070860
  29 H :    0.043001
  30 H :    0.045163
  31 H :    0.039290
  32 H :    0.020392
  33 H :    0.075108
Sum of atomic charges:    0.0000000

LOEWDIN ATOMIC CHARGES
----------------------
   0 S :    0.411479
   1 C :   -0.195678
   2 C :   -0.066881
   3 C :   -0.051934
   4 C :   -0.188628
   5 H :    0.028143
   6 C :   -0.030342
   7 H :    0.027214
   8 H :    0.038714
   9 C :   -0.032373
  10 H :    0.019948
  11 H :    0.012298
  12 C :   -0.059147
  13 H :    0.020001
  14 H :    0.021987
  15 H :    0.028170
  16 S :    0.363116
  17 C :   -0.172979
  18 C :   -0.075809
  19 C :   -0.057692
  20 C :   -0.193490
  21 H :    0.033997
  22 C :   -0.027673
  23 H :    0.032286
  24 H :    0.024864
  25 C :   -0.040167
  26 H :    0.029642
  27 H :    0.028222
  28 C :   -0.066115
  29 H :    0.035014
  30 H :    0.021134
  31 H :    0.021472
  32 H :    0.017489
  33 H :    0.043719

  Mayer bond orders larger than 0.100000
B(  0-S ,  1-C ) :   1.1473 B(  0-S ,  4-C ) :   1.1315 B(  1-C ,  2-C ) :   1.6272
B(  1-C , 32-H ) :   0.9659 B(  2-C ,  3-C ) :   1.2287 B(  2-C ,  6-C ) :   1.0406
B(  3-C ,  4-C ) :   1.5876 B(  3-C ,  5-H ) :   0.9851 B(  4-C , 20-C ) :   1.0623
B(  6-C ,  7-H ) :   0.9180 B(  6-C ,  8-H ) :   0.9500 B(  6-C ,  9-C ) :   1.0411
B(  9-C , 10-H ) :   0.9597 B(  9-C , 11-H ) :   0.9585 B(  9-C , 12-C ) :   1.0768
B( 12-C , 13-H ) :   0.9800 B( 12-C , 14-H ) :   0.9781 B( 12-C , 15-H ) :   0.9734
B( 16-S , 17-C ) :   1.1127 B( 16-S , 20-C ) :   1.1385 B( 17-C , 18-C ) :   1.6689
B( 17-C , 33-H ) :   0.9564 B( 18-C , 19-C ) :   1.2046 B( 18-C , 21-H ) :   0.9872
B( 19-C , 20-C ) :   1.5887 B( 19-C , 22-C ) :   1.0298 B( 22-C , 23-H ) :   0.9362
B( 22-C , 24-H ) :   0.9250 B( 22-C , 25-C ) :   1.0624 B( 25-C , 26-H ) :   0.9570
B( 25-C , 27-H ) :   0.9571 B( 25-C , 28-C ) :   1.0595 B( 28-C , 29-H ) :   0.9759
B( 28-C , 30-H ) :   0.9787 B( 28-C , 31-H ) :   0.9761

Dispersion correction           -0.014842053
FINAL SINGLE POINT ENERGY     -1339.850931884545

DIPOLE MOMENT
-------------
                                X             Y             Z
Electronic contribution:      3.21443      -6.03594     -29.94766
Nuclear contribution   :     -3.34124       6.24331      30.60397
                        -----------------------------------------
Total Dipole Moment    :     -0.12682       0.20736       0.65631
                        -----------------------------------------
Magnitude (a.u.)       :      0.69988
Magnitude (Debye)      :      1.77894

Rotational constants in cm-1:     0.016989     0.009998     0.007107
Rotational constants in MHz :   509.328039   299.720080   213.069569

                             ****ORCA TERMINATED NORMALLY****
TOTAL RUN TIME: 0 days 0 hours 0 minutes 33 seconds 823 msec
