                         Program Version 4.2.1 -  RELEASE  -
|  1> ! wB97X-D3 SP def2-SVP
|  2> %pal
|  3> nprocs 16
|  4> end
|  5>
|  6> * xyz 0 1
|  7> S 	 -27.1164 	 31.7747 	 39.9852
|  8> C 	 -25.9367 	 32.9915 	 39.483
|  9> C 	 -24.7809 	 32.8727 	 40.2724
| 10> C 	 -24.7981 	 31.7108 	 41.0883
| 11> C 	 -25.9876 	 31.0335 	 41.0758
| 12> H 	 -23.9825 	 31.4533 	 41.7452
| 13> C 	 -23.5964 	 33.8087 	 40.194
| 14> H 	 -23.2503 	 33.9083 	 39.2023
| 15> H 	 -22.6726 	 33.3775 	 40.6283
| 16> C 	 -23.8452 	 35.1957 	 40.715
| 17> H 	 -24.8452 	 35.5913 	 40.5214
| 18> H 	 -23.8175 	 35.1938 	 41.7982
| 19> C 	 -22.8193 	 36.212 	 40.2769
| 20> H 	 -22.9662 	 37.1713 	 40.8062
| 21> H 	 -21.7691 	 35.9246 	 40.3452
| 22> H 	 -22.9875 	 36.542 	 39.2764
| 23> S 	 -26.8075 	 28.3709 	 41.4193
| 24> C 	 -27.0724 	 27.7804 	 43.052
| 25> C 	 -26.7794 	 28.6779 	 44.0049
| 26> C 	 -26.35 	 29.9508 	 43.4319
| 27> C 	 -26.3406 	 29.9577 	 42.0356
| 28> H 	 -26.7556 	 28.482 	 45.0106
| 29> C 	 -26.0234 	 31.1226 	 44.3068
| 30> H 	 -25.0267 	 31.4342 	 44.2297
| 31> H 	 -25.9779 	 30.8185 	 45.3838
| 32> C 	 -27.0216 	 32.3213 	 44.106
| 33> H 	 -27.0366 	 32.6782 	 43.1052
| 34> H 	 -26.6139 	 33.1874 	 44.668
| 35> C 	 -28.4223 	 32.0643 	 44.397
| 36> H 	 -28.5715 	 31.882 	 45.4659
| 37> H 	 -28.6797 	 31.1368 	 43.9012
| 38> H 	 -29.1562 	 32.8731 	 44.1744
| 39> H 	 -26.075 	 33.7106 	 38.6976
| 40> H 	 -27.4164 	 26.8522 	 43.4721
| 41> *
| 42>
| 43>                          ****END OF INPUT****

CARTESIAN COORDINATES (ANGSTROEM)
---------------------------------
  S    -27.116400   31.774700   39.985200
  C    -25.936700   32.991500   39.483000
  C    -24.780900   32.872700   40.272400
  C    -24.798100   31.710800   41.088300
  C    -25.987600   31.033500   41.075800
  H    -23.982500   31.453300   41.745200
  C    -23.596400   33.808700   40.194000
  H    -23.250300   33.908300   39.202300
  H    -22.672600   33.377500   40.628300
  C    -23.845200   35.195700   40.715000
  H    -24.845200   35.591300   40.521400
  H    -23.817500   35.193800   41.798200
  C    -22.819300   36.212000   40.276900
  H    -22.966200   37.171300   40.806200
  H    -21.769100   35.924600   40.345200
  H    -22.987500   36.542000   39.276400
  S    -26.807500   28.370900   41.419300
  C    -27.072400   27.780400   43.052000
  C    -26.779400   28.677900   44.004900
  C    -26.350000   29.950800   43.431900
  C    -26.340600   29.957700   42.035600
  H    -26.755600   28.482000   45.010600
  C    -26.023400   31.122600   44.306800
  H    -25.026700   31.434200   44.229700
  H    -25.977900   30.818500   45.383800
  C    -27.021600   32.321300   44.106000
  H    -27.036600   32.678200   43.105200
  H    -26.613900   33.187400   44.668000
  C    -28.422300   32.064300   44.397000
  H    -28.571500   31.882000   45.465900
  H    -28.679700   31.136800   43.901200
  H    -29.156200   32.873100   44.174400
  H    -26.075000   33.710600   38.697600
  H    -27.416400   26.852200   43.472100

 Total Charge           Charge          ....    0
 Multiplicity           Mult            ....    1
 Number of Electrons    NEL             ....  134
 Basis Dimension        Dim             ....  322

ORBITAL ENERGIES
----------------

  NO   OCC          E(Eh)            E(eV)
   0   2.0000     -88.970057     -2420.9983
   1   2.0000     -88.967292     -2420.9231
   2   2.0000     -10.329341      -281.0756
   3   2.0000     -10.329224      -281.0725
   4   2.0000     -10.318656      -280.7849
   5   2.0000     -10.313146      -280.6350
   6   2.0000     -10.304252      -280.3930
   7   2.0000     -10.303568      -280.3743
   8   2.0000     -10.291455      -280.0447
   9   2.0000     -10.289667      -279.9961
  10   2.0000     -10.288383      -279.9611
  11   2.0000     -10.285264      -279.8763
  12   2.0000     -10.282669      -279.8056
  13   2.0000     -10.275779      -279.6182
  14   2.0000     -10.275187      -279.6021
  15   2.0000     -10.265383      -279.3353
  16   2.0000      -8.084261      -219.9839
  17   2.0000      -8.081452      -219.9075
  18   2.0000      -6.042755      -164.4317
  19   2.0000      -6.040166      -164.3613
  20   2.0000      -6.038733      -164.3223
  21   2.0000      -6.036033      -164.2488
  22   2.0000      -6.035163      -164.2251
  23   2.0000      -6.032034      -164.1400
  24   2.0000      -1.005131       -27.3510
  25   2.0000      -0.984259       -26.7831
  26   2.0000      -0.917866       -24.9764
  27   2.0000      -0.909229       -24.7414
  28   2.0000      -0.870386       -23.6844
  29   2.0000      -0.852508       -23.1979
  30   2.0000      -0.848362       -23.0851
  31   2.0000      -0.820403       -22.3243
  32   2.0000      -0.785487       -21.3742
  33   2.0000      -0.771248       -20.9867
  34   2.0000      -0.707337       -19.2476
  35   2.0000      -0.705036       -19.1850
  36   2.0000      -0.684913       -18.6374
  37   2.0000      -0.663092       -18.0437
  38   2.0000      -0.645838       -17.5741
  39   2.0000      -0.624045       -16.9811
  40   2.0000      -0.597788       -16.2666
  41   2.0000      -0.578183       -15.7332
  42   2.0000      -0.559453       -15.2235
  43   2.0000      -0.552110       -15.0237
  44   2.0000      -0.539982       -14.6937
  45   2.0000      -0.528228       -14.3738
  46   2.0000      -0.520770       -14.1709
  47   2.0000      -0.509817       -13.8728
  48   2.0000      -0.506394       -13.7797
  49   2.0000      -0.500859       -13.6291
  50   2.0000      -0.486434       -13.2365
  51   2.0000      -0.481392       -13.0993
  52   2.0000      -0.469502       -12.7758
  53   2.0000      -0.468856       -12.7582
  54   2.0000      -0.460287       -12.5250
  55   2.0000      -0.451013       -12.2727
  56   2.0000      -0.445064       -12.1108
  57   2.0000      -0.439937       -11.9713
  58   2.0000      -0.430786       -11.7223
  59   2.0000      -0.428360       -11.6563
  60   2.0000      -0.411603       -11.2003
  61   2.0000      -0.410390       -11.1673
  62   2.0000      -0.403874       -10.9900
  63   2.0000      -0.341164        -9.2836
  64   2.0000      -0.333989        -9.0883
  65   2.0000      -0.327375        -8.9083
  66   2.0000      -0.301711        -8.2100
  67   0.0000       0.032106         0.8736
  68   0.0000       0.066234         1.8023
  69   0.0000       0.114836         3.1248
  70   0.0000       0.119174         3.2429
  71   0.0000       0.130616         3.5542

MULLIKEN ATOMIC CHARGES
-----------------------
   0 S :    0.120396
   1 C :   -0.116204
   2 C :   -0.091341
   3 C :    0.048765
   4 C :   -0.145571
   5 H :    0.009455
   6 C :    0.088305
   7 H :    0.011113
   8 H :    0.015971
   9 C :   -0.062997
  10 H :    0.025826
  11 H :    0.020268
  12 C :   -0.052273
  13 H :    0.028774
  14 H :    0.034383
  15 H :    0.018150
  16 S :    0.114578
  17 C :   -0.045401
  18 C :   -0.012322
  19 C :   -0.057946
  20 C :   -0.175928
  21 H :   -0.012777
  22 C :    0.089773
  23 H :    0.010886
  24 H :    0.012325
  25 C :   -0.054342
  26 H :    0.028428
  27 H :    0.017667
  28 C :   -0.043809
  29 H :    0.010452
  30 H :    0.034916
  31 H :    0.041888
  32 H :    0.047600
  33 H :    0.040991
Sum of atomic charges:   -0.0000000

LOEWDIN ATOMIC CHARGES
----------------------
   0 S :    0.414395
   1 C :   -0.189579
   2 C :   -0.056421
   3 C :   -0.058763
   4 C :   -0.204159
   5 H :    0.031982
   6 C :   -0.035450
   7 H :    0.025655
   8 H :    0.033927
   9 C :   -0.042627
  10 H :    0.026067
  11 H :    0.022872
  12 C :   -0.068548
  13 H :    0.031431
  14 H :    0.024920
  15 H :    0.019044
  16 S :    0.398374
  17 C :   -0.179023
  18 C :   -0.062759
  19 C :   -0.049351
  20 C :   -0.198563
  21 H :    0.017935
  22 C :   -0.031700
  23 H :    0.023390
  24 H :    0.033386
  25 C :   -0.040703
  26 H :    0.021419
  27 H :    0.023072
  28 C :   -0.069506
  29 H :    0.018831
  30 H :    0.026781
  31 H :    0.032942
  32 H :    0.026729
  33 H :    0.034000

  Mayer bond orders larger than 0.100000
B(  0-S ,  1-C ) :   1.1414 B(  0-S ,  4-C ) :   1.1641 B(  1-C ,  2-C ) :   1.5762
B(  1-C ,  4-C ) :   0.1014 B(  1-C , 32-H ) :   0.9750 B(  2-C ,  3-C ) :   1.2715
B(  2-C ,  6-C ) :   1.0217 B(  3-C ,  4-C ) :   1.5545 B(  3-C ,  5-H ) :   1.0002
B(  4-C , 20-C ) :   1.0145 B(  6-C ,  7-H ) :   0.9414 B(  6-C ,  8-H ) :   0.9363
B(  6-C ,  9-C ) :   1.0546 B(  9-C , 10-H ) :   0.9583 B(  9-C , 11-H ) :   0.9522
B(  9-C , 12-C ) :   1.0880 B( 12-C , 13-H ) :   0.9705 B( 12-C , 14-H ) :   0.9744
B( 12-C , 15-H ) :   0.9722 B( 16-S , 17-C ) :   1.1358 B( 16-S , 20-C ) :   1.1264
B( 17-C , 18-C ) :   1.6519 B( 17-C , 33-H ) :   0.9574 B( 18-C , 19-C ) :   1.2220
B( 18-C , 21-H ) :   0.9985 B( 19-C , 20-C ) :   1.6138 B( 19-C , 22-C ) :   1.0471
B( 22-C , 23-H ) :   0.9269 B( 22-C , 24-H ) :   0.9346 B( 22-C , 25-C ) :   1.0618
B( 25-C , 26-H ) :   0.9547 B( 25-C , 27-H ) :   0.9514 B( 25-C , 28-C ) :   1.0841
B( 28-C , 29-H ) :   0.9710 B( 28-C , 30-H ) :   0.9692 B( 28-C , 31-H ) :   0.9705

Dispersion correction           -0.015393918
FINAL SINGLE POINT ENERGY     -1339.876737789345

DIPOLE MOMENT
-------------
                                X             Y             Z
Electronic contribution:     -9.41917     -23.92354     -10.51922
Nuclear contribution   :      9.84177      24.38876      10.91089
                        -----------------------------------------
Total Dipole Moment    :      0.42261       0.46522       0.39166
                        -----------------------------------------
Magnitude (a.u.)       :      0.74056
Magnitude (Debye)      :      1.88235

Rotational constants in cm-1:     0.022909     0.008018     0.007064
Rotational constants in MHz :   686.804652   240.372377   211.781466

                             ****ORCA TERMINATED NORMALLY****
TOTAL RUN TIME: 0 days 0 hours 0 minutes 35 seconds 409 msec
