                         Program Version 4.2.1 -  RELEASE  -
|  1> ! wB97X-D3 SP def2-SVP
|  2> %pal
|  3> nprocs 16
|  4> end
|  5>
|  6> * xyz 0 1
|  7> S 	 -2.12632 	 76.2494 	 47.6514
|  8> C 	 -0.45045 	 76.4148 	 48.2105
|  9> C 	 -0.22749 	 75.8581 	 49.4508
| 10> C 	 -1.37895 	 75.162 	 49.9131
| 11> C 	 -2.45421 	 75.1744 	 48.9682
| 12> H 	 -1.54945 	 74.6448 	 50.866
| 13> C 	 1.02871 	 75.944 	 50.2746
| 14> H 	 1.89157 	 75.5864 	 49.7875
| 15> H 	 1.01276 	 75.2352 	 51.1244
| 16> C 	 1.22322 	 77.3563 	 50.795
| 17> H 	 1.5516 	 78.0316 	 49.9991
| 18> H 	 0.275446 	 77.6915 	 51.1812
| 19> C 	 2.12281 	 77.526 	 52.1045
| 20> H 	 3.18867 	 77.1677 	 51.9976
| 21> H 	 2.06734 	 78.5455 	 52.4865
| 22> H 	 1.80726 	 76.9064 	 52.9264
| 23> S 	 -5.08487 	 75.3613 	 48.5436
| 24> C 	 -6.18117 	 73.997 	 48.8862
| 25> C 	 -5.41816 	 72.8929 	 49.2916
| 26> C 	 -4.00961 	 73.1662 	 49.4172
| 27> C 	 -3.68699 	 74.4862 	 49.1012
| 28> H 	 -5.84805 	 71.9226 	 49.2759
| 29> C 	 -2.98073 	 71.9956 	 49.7483
| 30> H 	 -3.56612 	 71.2033 	 50.257
| 31> H 	 -2.24931 	 72.3305 	 50.4661
| 32> C 	 -2.23786 	 71.4133 	 48.5344
| 33> H 	 -1.46314 	 70.8219 	 48.9706
| 34> H 	 -1.848 	 72.1639 	 47.8252
| 35> C 	 -3.03789 	 70.4056 	 47.67
| 36> H 	 -2.3333 	 69.6472 	 47.1928
| 37> H 	 -3.57434 	 70.963 	 46.9241
| 38> H 	 -3.60304 	 69.7672 	 48.3328
| 39> H 	 0.259071 	 77.0068 	 47.803
| 40> H 	 -7.20811 	 73.8936 	 48.533
| 41> *
| 42>
| 43>                          ****END OF INPUT****

CARTESIAN COORDINATES (ANGSTROEM)
---------------------------------
  S     -2.126320   76.249400   47.651400
  C     -0.450450   76.414800   48.210500
  C     -0.227490   75.858100   49.450800
  C     -1.378950   75.162000   49.913100
  C     -2.454210   75.174400   48.968200
  H     -1.549450   74.644800   50.866000
  C      1.028710   75.944000   50.274600
  H      1.891570   75.586400   49.787500
  H      1.012760   75.235200   51.124400
  C      1.223220   77.356300   50.795000
  H      1.551600   78.031600   49.999100
  H      0.275446   77.691500   51.181200
  C      2.122810   77.526000   52.104500
  H      3.188670   77.167700   51.997600
  H      2.067340   78.545500   52.486500
  H      1.807260   76.906400   52.926400
  S     -5.084870   75.361300   48.543600
  C     -6.181170   73.997000   48.886200
  C     -5.418160   72.892900   49.291600
  C     -4.009610   73.166200   49.417200
  C     -3.686990   74.486200   49.101200
  H     -5.848050   71.922600   49.275900
  C     -2.980730   71.995600   49.748300
  H     -3.566120   71.203300   50.257000
  H     -2.249310   72.330500   50.466100
  C     -2.237860   71.413300   48.534400
  H     -1.463140   70.821900   48.970600
  H     -1.848000   72.163900   47.825200
  C     -3.037890   70.405600   47.670000
  H     -2.333300   69.647200   47.192800
  H     -3.574340   70.963000   46.924100
  H     -3.603040   69.767200   48.332800
  H      0.259071   77.006800   47.803000
  H     -7.208110   73.893600   48.533000

 Total Charge           Charge          ....    0
 Multiplicity           Mult            ....    1
 Number of Electrons    NEL             ....  134
 Basis Dimension        Dim             ....  322

ORBITAL ENERGIES
----------------

  NO   OCC          E(Eh)            E(eV)
   0   2.0000     -88.972729     -2421.0710
   1   2.0000     -88.965706     -2420.8799
   2   2.0000     -10.329928      -281.0916
   3   2.0000     -10.325990      -280.9845
   4   2.0000     -10.322040      -280.8770
   5   2.0000     -10.309000      -280.5222
   6   2.0000     -10.307450      -280.4800
   7   2.0000     -10.302695      -280.3506
   8   2.0000     -10.298364      -280.2327
   9   2.0000     -10.298243      -280.2294
  10   2.0000     -10.296616      -280.1852
  11   2.0000     -10.290848      -280.0282
  12   2.0000     -10.290286      -280.0129
  13   2.0000     -10.284255      -279.8488
  14   2.0000     -10.282376      -279.7977
  15   2.0000     -10.276979      -279.6508
  16   2.0000      -8.087010      -220.0587
  17   2.0000      -8.080176      -219.8728
  18   2.0000      -6.045500      -164.5064
  19   2.0000      -6.041691      -164.4028
  20   2.0000      -6.038777      -164.3235
  21   2.0000      -6.037710      -164.2945
  22   2.0000      -6.034714      -164.2129
  23   2.0000      -6.030859      -164.1080
  24   2.0000      -1.007378       -27.4122
  25   2.0000      -0.979503       -26.6536
  26   2.0000      -0.914637       -24.8885
  27   2.0000      -0.901026       -24.5182
  28   2.0000      -0.870017       -23.6744
  29   2.0000      -0.848297       -23.0833
  30   2.0000      -0.840602       -22.8739
  31   2.0000      -0.809687       -22.0327
  32   2.0000      -0.784837       -21.3565
  33   2.0000      -0.774978       -21.0882
  34   2.0000      -0.712192       -19.3797
  35   2.0000      -0.704177       -19.1616
  36   2.0000      -0.684775       -18.6337
  37   2.0000      -0.667147       -18.1540
  38   2.0000      -0.642925       -17.4949
  39   2.0000      -0.617013       -16.7898
  40   2.0000      -0.592764       -16.1299
  41   2.0000      -0.568831       -15.4787
  42   2.0000      -0.559860       -15.2346
  43   2.0000      -0.552425       -15.0322
  44   2.0000      -0.539638       -14.6843
  45   2.0000      -0.526534       -14.3277
  46   2.0000      -0.517937       -14.0938
  47   2.0000      -0.514856       -14.0099
  48   2.0000      -0.505783       -13.7631
  49   2.0000      -0.497187       -13.5291
  50   2.0000      -0.487164       -13.2564
  51   2.0000      -0.474237       -12.9046
  52   2.0000      -0.472903       -12.8683
  53   2.0000      -0.465856       -12.6766
  54   2.0000      -0.457154       -12.4398
  55   2.0000      -0.450389       -12.2557
  56   2.0000      -0.443450       -12.0669
  57   2.0000      -0.440426       -11.9846
  58   2.0000      -0.434383       -11.8202
  59   2.0000      -0.426781       -11.6133
  60   2.0000      -0.417052       -11.3486
  61   2.0000      -0.415819       -11.3150
  62   2.0000      -0.406631       -11.0650
  63   2.0000      -0.350332        -9.5330
  64   2.0000      -0.335969        -9.1422
  65   2.0000      -0.330533        -8.9943
  66   2.0000      -0.283225        -7.7069
  67   0.0000       0.016723         0.4551
  68   0.0000       0.068910         1.8751
  69   0.0000       0.099634         2.7112
  70   0.0000       0.120872         3.2891
  71   0.0000       0.137281         3.7356

MULLIKEN ATOMIC CHARGES
-----------------------
   0 S :    0.121318
   1 C :   -0.064824
   2 C :   -0.077216
   3 C :   -0.000265
   4 C :   -0.147522
   5 H :    0.026224
   6 C :    0.107571
   7 H :    0.021638
   8 H :    0.010809
   9 C :   -0.083170
  10 H :    0.040157
  11 H :    0.032961
  12 C :   -0.076349
  13 H :    0.033249
  14 H :    0.043263
  15 H :    0.022046
  16 S :    0.084467
  17 C :   -0.098985
  18 C :   -0.029788
  19 C :   -0.049498
  20 C :   -0.152395
  21 H :    0.015583
  22 C :    0.072173
  23 H :    0.021523
  24 H :    0.022501
  25 C :   -0.069746
  26 H :    0.022152
  27 H :    0.050059
  28 C :   -0.061461
  29 H :    0.036756
  30 H :    0.047677
  31 H :    0.014729
  32 H :   -0.005119
  33 H :    0.069482
Sum of atomic charges:   -0.0000000

LOEWDIN ATOMIC CHARGES
----------------------
   0 S :    0.411701
   1 C :   -0.176463
   2 C :   -0.052385
   3 C :   -0.062431
   4 C :   -0.201305
   5 H :    0.033881
   6 C :   -0.031918
   7 H :    0.026298
   8 H :    0.032886
   9 C :   -0.034579
  10 H :    0.024840
  11 H :    0.026362
  12 C :   -0.074804
  13 H :    0.026493
  14 H :    0.028452
  15 H :    0.020408
  16 S :    0.394214
  17 C :   -0.185788
  18 C :   -0.065373
  19 C :   -0.057374
  20 C :   -0.201117
  21 H :    0.026998
  22 C :   -0.025282
  23 H :    0.030826
  24 H :    0.025907
  25 C :   -0.039811
  26 H :    0.021186
  27 H :    0.032378
  28 C :   -0.067151
  29 H :    0.033968
  30 H :    0.024045
  31 H :    0.017020
  32 H :    0.003424
  33 H :    0.034494

  Mayer bond orders larger than 0.100000
B(  0-S ,  1-C ) :   1.1275 B(  0-S ,  4-C ) :   1.1571 B(  1-C ,  2-C ) :   1.6044
B(  1-C ,  4-C ) :   0.1032 B(  1-C , 32-H ) :   0.9782 B(  2-C ,  3-C ) :   1.2556
B(  2-C ,  6-C ) :   1.0273 B(  3-C ,  4-C ) :   1.5275 B(  3-C ,  5-H ) :   0.9909
B(  4-C , 20-C ) :   1.0978 B(  6-C ,  7-H ) :   0.9328 B(  6-C ,  8-H ) :   0.9404
B(  6-C ,  9-C ) :   1.0537 B(  9-C , 10-H ) :   0.9590 B(  9-C , 11-H ) :   0.9593
B(  9-C , 12-C ) :   1.0743 B( 12-C , 13-H ) :   0.9759 B( 12-C , 14-H ) :   0.9782
B( 12-C , 15-H ) :   0.9749 B( 16-S , 17-C ) :   1.1423 B( 16-S , 20-C ) :   1.1363
B( 17-C , 18-C ) :   1.6068 B( 17-C , 20-C ) :   0.1028 B( 17-C , 33-H ) :   0.9643
B( 18-C , 19-C ) :   1.2631 B( 18-C , 21-H ) :   0.9857 B( 19-C , 20-C ) :   1.5747
B( 19-C , 22-C ) :   1.0230 B( 22-C , 23-H ) :   0.9380 B( 22-C , 24-H ) :   0.9407
B( 22-C , 25-C ) :   1.0716 B( 25-C , 26-H ) :   0.9558 B( 25-C , 27-H ) :   0.9604
B( 25-C , 28-C ) :   1.0757 B( 28-C , 29-H ) :   0.9767 B( 28-C , 30-H ) :   0.9810
B( 28-C , 31-H ) :   0.9738

Dispersion correction           -0.014236310
FINAL SINGLE POINT ENERGY     -1339.864354981137

DIPOLE MOMENT
-------------
                                X             Y             Z
Electronic contribution:    -19.24089      10.79873     -10.70300
Nuclear contribution   :     19.65239     -11.22871      10.94485
                        -----------------------------------------
Total Dipole Moment    :      0.41150      -0.42998       0.24185
                        -----------------------------------------
Magnitude (a.u.)       :      0.64242
Magnitude (Debye)      :      1.63291

Rotational constants in cm-1:     0.021014     0.007633     0.006591
Rotational constants in MHz :   629.993209   228.844072   197.604039

                             ****ORCA TERMINATED NORMALLY****
TOTAL RUN TIME: 0 days 0 hours 0 minutes 33 seconds 386 msec
