                         Program Version 4.2.1 -  RELEASE  -
|  1> ! wB97X-D3 SP def2-SVP
|  2> %pal
|  3> nprocs 16
|  4> end
|  5>
|  6> * xyz 0 1
|  7> S 	 -31.8833 	 62.9698 	 107.362
|  8> C 	 -30.3773 	 63.7369 	 107.828
|  9> C 	 -29.8958 	 64.6333 	 106.89
| 10> C 	 -30.7584 	 64.7198 	 105.735
| 11> C 	 -31.9531 	 64.0216 	 105.945
| 12> H 	 -30.7391 	 65.2772 	 104.774
| 13> C 	 -28.5669 	 65.3471 	 107.031
| 14> H 	 -28.4879 	 65.9214 	 106.079
| 15> H 	 -27.7602 	 64.6077 	 107.025
| 16> C 	 -28.3567 	 66.1975 	 108.265
| 17> H 	 -28.6931 	 65.6338 	 109.143
| 18> H 	 -27.285 	 66.3953 	 108.407
| 19> C 	 -29.1374 	 67.5148 	 108.185
| 20> H 	 -30.1599 	 67.255 	 107.968
| 21> H 	 -29.2112 	 68.031 	 109.187
| 22> H 	 -28.6875 	 68.113 	 107.337
| 23> S 	 -34.3426 	 65.2137 	 105.252
| 24> C 	 -35.3257 	 64.3799 	 104.102
| 25> C 	 -34.5902 	 63.3736 	 103.473
| 26> C 	 -33.2601 	 63.2442 	 103.954
| 27> C 	 -33.1255 	 63.9306 	 105.106
| 28> H 	 -35.0312 	 62.9587 	 102.582
| 29> C 	 -32.2666 	 62.2407 	 103.319
| 30> H 	 -32.7424 	 61.3255 	 103.422
| 31> H 	 -31.2565 	 62.3003 	 103.757
| 32> C 	 -32.0863 	 62.5572 	 101.815
| 33> H 	 -31.7032 	 63.6002 	 101.801
| 34> H 	 -32.9787 	 62.6688 	 101.169
| 35> C 	 -31.0931 	 61.5947 	 101.084
| 36> H 	 -31.6196 	 60.6002 	 100.904
| 37> H 	 -30.2336 	 61.3488 	 101.687
| 38> H 	 -30.939 	 62.0283 	 100.047
| 39> H 	 -29.964 	 63.5576 	 108.784
| 40> H 	 -36.3522 	 64.549 	 103.891
| 41> *
| 42>
| 43>                          ****END OF INPUT****

CARTESIAN COORDINATES (ANGSTROEM)
---------------------------------
  S    -31.883300   62.969800  107.362000
  C    -30.377300   63.736900  107.828000
  C    -29.895800   64.633300  106.890000
  C    -30.758400   64.719800  105.735000
  C    -31.953100   64.021600  105.945000
  H    -30.739100   65.277200  104.774000
  C    -28.566900   65.347100  107.031000
  H    -28.487900   65.921400  106.079000
  H    -27.760200   64.607700  107.025000
  C    -28.356700   66.197500  108.265000
  H    -28.693100   65.633800  109.143000
  H    -27.285000   66.395300  108.407000
  C    -29.137400   67.514800  108.185000
  H    -30.159900   67.255000  107.968000
  H    -29.211200   68.031000  109.187000
  H    -28.687500   68.113000  107.337000
  S    -34.342600   65.213700  105.252000
  C    -35.325700   64.379900  104.102000
  C    -34.590200   63.373600  103.473000
  C    -33.260100   63.244200  103.954000
  C    -33.125500   63.930600  105.106000
  H    -35.031200   62.958700  102.582000
  C    -32.266600   62.240700  103.319000
  H    -32.742400   61.325500  103.422000
  H    -31.256500   62.300300  103.757000
  C    -32.086300   62.557200  101.815000
  H    -31.703200   63.600200  101.801000
  H    -32.978700   62.668800  101.169000
  C    -31.093100   61.594700  101.084000
  H    -31.619600   60.600200  100.904000
  H    -30.233600   61.348800  101.687000
  H    -30.939000   62.028300  100.047000
  H    -29.964000   63.557600  108.784000
  H    -36.352200   64.549000  103.891000

 Total Charge           Charge          ....    0
 Multiplicity           Mult            ....    1
 Number of Electrons    NEL             ....  134
 Basis Dimension        Dim             ....  322

ORBITAL ENERGIES
----------------

  NO   OCC          E(Eh)            E(eV)
   0   2.0000     -88.963909     -2420.8310
   1   2.0000     -88.962323     -2420.7879
   2   2.0000     -10.324900      -280.9548
   3   2.0000     -10.316920      -280.7377
   4   2.0000     -10.313999      -280.6582
   5   2.0000     -10.309650      -280.5398
   6   2.0000     -10.304548      -280.4010
   7   2.0000     -10.302170      -280.3363
   8   2.0000     -10.301271      -280.3118
   9   2.0000     -10.293081      -280.0890
  10   2.0000     -10.292124      -280.0629
  11   2.0000     -10.292071      -280.0615
  12   2.0000     -10.290294      -280.0131
  13   2.0000     -10.289552      -279.9929
  14   2.0000     -10.285945      -279.8948
  15   2.0000     -10.280239      -279.7395
  16   2.0000      -8.078512      -219.8275
  17   2.0000      -8.077378      -219.7966
  18   2.0000      -6.036808      -164.2699
  19   2.0000      -6.035876      -164.2445
  20   2.0000      -6.033127      -164.1697
  21   2.0000      -6.032065      -164.1408
  22   2.0000      -6.029437      -164.0693
  23   2.0000      -6.027903      -164.0276
  24   2.0000      -1.007038       -27.4029
  25   2.0000      -0.982177       -26.7264
  26   2.0000      -0.913068       -24.8458
  27   2.0000      -0.906088       -24.6559
  28   2.0000      -0.866764       -23.5858
  29   2.0000      -0.846936       -23.0463
  30   2.0000      -0.845410       -23.0048
  31   2.0000      -0.808563       -22.0021
  32   2.0000      -0.782834       -21.3020
  33   2.0000      -0.770051       -20.9542
  34   2.0000      -0.702133       -19.1060
  35   2.0000      -0.697756       -18.9869
  36   2.0000      -0.695719       -18.9315
  37   2.0000      -0.657108       -17.8808
  38   2.0000      -0.645206       -17.5569
  39   2.0000      -0.604209       -16.4414
  40   2.0000      -0.594078       -16.1657
  41   2.0000      -0.573984       -15.6189
  42   2.0000      -0.567141       -15.4327
  43   2.0000      -0.550103       -14.9691
  44   2.0000      -0.539813       -14.6891
  45   2.0000      -0.528741       -14.3878
  46   2.0000      -0.517045       -14.0695
  47   2.0000      -0.510509       -13.8917
  48   2.0000      -0.506058       -13.7706
  49   2.0000      -0.488253       -13.2860
  50   2.0000      -0.484882       -13.1943
  51   2.0000      -0.477053       -12.9813
  52   2.0000      -0.468044       -12.7361
  53   2.0000      -0.466340       -12.6898
  54   2.0000      -0.456734       -12.4284
  55   2.0000      -0.445515       -12.1231
  56   2.0000      -0.440795       -11.9946
  57   2.0000      -0.440010       -11.9733
  58   2.0000      -0.431153       -11.7323
  59   2.0000      -0.426886       -11.6162
  60   2.0000      -0.419051       -11.4030
  61   2.0000      -0.417095       -11.3497
  62   2.0000      -0.411253       -11.1908
  63   2.0000      -0.335041        -9.1169
  64   2.0000      -0.326758        -8.8915
  65   2.0000      -0.315728        -8.5914
  66   2.0000      -0.310111        -8.4386
  67   0.0000       0.040772         1.1095
  68   0.0000       0.051648         1.4054
  69   0.0000       0.100993         2.7482
  70   0.0000       0.112942         3.0733
  71   0.0000       0.131292         3.5726

MULLIKEN ATOMIC CHARGES
-----------------------
   0 S :    0.112232
   1 C :   -0.114320
   2 C :   -0.088046
   3 C :    0.041133
   4 C :   -0.220449
   5 H :    0.031672
   6 C :    0.069065
   7 H :    0.018683
   8 H :    0.039038
   9 C :   -0.070399
  10 H :    0.023663
  11 H :    0.031455
  12 C :   -0.068563
  13 H :    0.033043
  14 H :    0.045149
  15 H :    0.042214
  16 S :    0.114382
  17 C :   -0.082192
  18 C :   -0.035082
  19 C :   -0.006858
  20 C :   -0.196942
  21 H :    0.015335
  22 C :    0.142473
  23 H :    0.022365
  24 H :    0.040276
  25 C :   -0.156527
  26 H :    0.028844
  27 H :    0.034435
  28 C :   -0.050849
  29 H :    0.034446
  30 H :    0.036434
  31 H :    0.050664
  32 H :    0.036707
  33 H :    0.046521
Sum of atomic charges:   -0.0000000

LOEWDIN ATOMIC CHARGES
----------------------
   0 S :    0.401032
   1 C :   -0.188351
   2 C :   -0.064978
   3 C :   -0.066493
   4 C :   -0.190466
   5 H :    0.042497
   6 C :   -0.034612
   7 H :    0.030760
   8 H :    0.034904
   9 C :   -0.044128
  10 H :    0.022545
  11 H :    0.024518
  12 C :   -0.071146
  13 H :    0.023007
  14 H :    0.032387
  15 H :    0.031807
  16 S :    0.401062
  17 C :   -0.181668
  18 C :   -0.072967
  19 C :   -0.046576
  20 C :   -0.209193
  21 H :    0.027460
  22 C :   -0.015238
  23 H :    0.023347
  24 H :    0.037148
  25 C :   -0.051031
  26 H :    0.024104
  27 H :    0.023799
  28 C :   -0.071751
  29 H :    0.029864
  30 H :    0.021726
  31 H :    0.036981
  32 H :    0.015728
  33 H :    0.023920

  Mayer bond orders larger than 0.100000
B(  0-S ,  1-C ) :   1.1419 B(  0-S ,  4-C ) :   1.1596 B(  1-C ,  2-C ) :   1.6148
B(  1-C ,  4-C ) :   0.1011 B(  1-C , 32-H ) :   0.9746 B(  2-C ,  3-C ) :   1.2027
B(  2-C ,  6-C ) :   1.0111 B(  3-C ,  4-C ) :   1.6088 B(  3-C ,  5-H ) :   0.9877
B(  4-C , 20-C ) :   1.0148 B(  6-C ,  7-H ) :   0.9439 B(  6-C ,  8-H ) :   0.9353
B(  6-C ,  9-C ) :   1.0737 B(  9-C , 10-H ) :   0.9548 B(  9-C , 11-H ) :   0.9547
B(  9-C , 12-C ) :   1.0716 B( 12-C , 13-H ) :   0.9778 B( 12-C , 14-H ) :   0.9733
B( 12-C , 15-H ) :   0.9737 B( 16-S , 17-C ) :   1.1557 B( 16-S , 20-C ) :   1.1288
B( 17-C , 18-C ) :   1.6289 B( 17-C , 20-C ) :   0.1001 B( 17-C , 33-H ) :   0.9712
B( 18-C , 19-C ) :   1.2055 B( 18-C , 21-H ) :   0.9879 B( 19-C , 20-C ) :   1.6254
B( 19-C , 22-C ) :   1.0408 B( 22-C , 23-H ) :   0.9368 B( 22-C , 24-H ) :   0.9329
B( 22-C , 25-C ) :   1.0454 B( 25-C , 26-H ) :   0.9576 B( 25-C , 27-H ) :   0.9585
B( 25-C , 28-C ) :   1.0795 B( 28-C , 29-H ) :   0.9745 B( 28-C , 30-H ) :   0.9739
B( 28-C , 31-H ) :   0.9731

Dispersion correction           -0.014278593
FINAL SINGLE POINT ENERGY     -1339.866082185799

DIPOLE MOMENT
-------------
                                X             Y             Z
Electronic contribution:    -18.01221      -2.09477       9.27720
Nuclear contribution   :     18.32802       2.02634      -9.68522
                        -----------------------------------------
Total Dipole Moment    :      0.31581      -0.06842      -0.40802
                        -----------------------------------------
Magnitude (a.u.)       :      0.52048
Magnitude (Debye)      :      1.32294

Rotational constants in cm-1:     0.019304     0.007857     0.006730
Rotational constants in MHz :   578.732977   235.547998   201.760153

                             ****ORCA TERMINATED NORMALLY****
TOTAL RUN TIME: 0 days 0 hours 0 minutes 30 seconds 647 msec
