                         Program Version 4.2.1 -  RELEASE  -
|  1> ! wB97X-D3 SP def2-SVP
|  2> %pal
|  3> nprocs 16
|  4> end
|  5>
|  6> * xyz 0 1
|  7> S 	 1.12812 	 -17.8971 	 78.1984
|  8> C 	 1.52221 	 -18.5076 	 79.852
|  9> C 	 2.39037 	 -17.5761 	 80.4283
| 10> C 	 2.68195 	 -16.4451 	 79.6022
| 11> C 	 2.05601 	 -16.4626 	 78.3615
| 12> H 	 3.29269 	 -15.5515 	 79.8581
| 13> C 	 2.87499 	 -17.6592 	 81.8779
| 14> H 	 3.81542 	 -17.1164 	 81.8311
| 15> H 	 3.16899 	 -18.6484 	 82.2519
| 16> C 	 1.98636 	 -16.8607 	 82.7996
| 17> H 	 1.92155 	 -15.8645 	 82.4188
| 18> H 	 1.01668 	 -17.3856 	 82.967
| 19> C 	 2.71131 	 -16.8015 	 84.1983
| 20> H 	 3.61803 	 -16.298 	 84.1065
| 21> H 	 2.08593 	 -16.2585 	 84.9388
| 22> H 	 2.95926 	 -17.7776 	 84.6291
| 23> S 	 0.4803 	 -14.9612 	 76.6671
| 24> C 	 1.10344 	 -13.397 	 76.0138
| 25> C 	 2.46275 	 -13.2991 	 76.2548
| 26> C 	 3.01937 	 -14.4456 	 76.9999
| 27> C 	 2.02273 	 -15.3972 	 77.3789
| 28> H 	 2.95617 	 -12.4197 	 75.8542
| 29> C 	 4.50413 	 -14.5325 	 77.3179
| 30> H 	 4.52551 	 -14.5461 	 78.4509
| 31> H 	 4.88551 	 -13.5283 	 77.0965
| 32> C 	 5.28421 	 -15.752 	 76.6175
| 33> H 	 5.26047 	 -15.6318 	 75.5722
| 34> H 	 4.862 	 -16.727 	 76.8406
| 35> C 	 6.78207 	 -15.7251 	 76.8736
| 36> H 	 7.06598 	 -14.6854 	 76.5826
| 37> H 	 7.35715 	 -16.3882 	 76.2746
| 38> H 	 7.04135 	 -15.9328 	 77.8104
| 39> H 	 1.10401 	 -19.3133 	 80.5081
| 40> H 	 0.571452 	 -12.7846 	 75.2682
| 41> *
| 42>
| 43>                          ****END OF INPUT****

CARTESIAN COORDINATES (ANGSTROEM)
---------------------------------
  S      1.128120  -17.897100   78.198400
  C      1.522210  -18.507600   79.852000
  C      2.390370  -17.576100   80.428300
  C      2.681950  -16.445100   79.602200
  C      2.056010  -16.462600   78.361500
  H      3.292690  -15.551500   79.858100
  C      2.874990  -17.659200   81.877900
  H      3.815420  -17.116400   81.831100
  H      3.168990  -18.648400   82.251900
  C      1.986360  -16.860700   82.799600
  H      1.921550  -15.864500   82.418800
  H      1.016680  -17.385600   82.967000
  C      2.711310  -16.801500   84.198300
  H      3.618030  -16.298000   84.106500
  H      2.085930  -16.258500   84.938800
  H      2.959260  -17.777600   84.629100
  S      0.480300  -14.961200   76.667100
  C      1.103440  -13.397000   76.013800
  C      2.462750  -13.299100   76.254800
  C      3.019370  -14.445600   76.999900
  C      2.022730  -15.397200   77.378900
  H      2.956170  -12.419700   75.854200
  C      4.504130  -14.532500   77.317900
  H      4.525510  -14.546100   78.450900
  H      4.885510  -13.528300   77.096500
  C      5.284210  -15.752000   76.617500
  H      5.260470  -15.631800   75.572200
  H      4.862000  -16.727000   76.840600
  C      6.782070  -15.725100   76.873600
  H      7.065980  -14.685400   76.582600
  H      7.357150  -16.388200   76.274600
  H      7.041350  -15.932800   77.810400
  H      1.104010  -19.313300   80.508100
  H      0.571452  -12.784600   75.268200

 Total Charge           Charge          ....    0
 Multiplicity           Mult            ....    1
 Number of Electrons    NEL             ....  134
 Basis Dimension        Dim             ....  322

ORBITAL ENERGIES
----------------

  NO   OCC          E(Eh)            E(eV)
   0   2.0000     -88.968292     -2420.9503
   1   2.0000     -88.965417     -2420.8721
   2   2.0000     -10.334451      -281.2147
   3   2.0000     -10.332334      -281.1571
   4   2.0000     -10.325393      -280.9682
   5   2.0000     -10.321896      -280.8731
   6   2.0000     -10.315252      -280.6923
   7   2.0000     -10.304545      -280.4009
   8   2.0000     -10.304425      -280.3977
   9   2.0000     -10.303335      -280.3680
  10   2.0000     -10.298136      -280.2265
  11   2.0000     -10.290914      -280.0300
  12   2.0000     -10.289376      -279.9882
  13   2.0000     -10.286354      -279.9059
  14   2.0000     -10.276577      -279.6399
  15   2.0000     -10.265195      -279.3301
  16   2.0000      -8.082382      -219.9328
  17   2.0000      -8.079240      -219.8473
  18   2.0000      -6.041075      -164.3860
  19   2.0000      -6.037927      -164.3004
  20   2.0000      -6.036811      -164.2700
  21   2.0000      -6.033789      -164.1877
  22   2.0000      -6.033122      -164.1696
  23   2.0000      -6.029927      -164.0826
  24   2.0000      -1.003344       -27.3024
  25   2.0000      -0.975140       -26.5349
  26   2.0000      -0.915959       -24.9245
  27   2.0000      -0.901478       -24.5305
  28   2.0000      -0.869429       -23.6584
  29   2.0000      -0.852449       -23.1963
  30   2.0000      -0.840779       -22.8788
  31   2.0000      -0.815128       -22.1808
  32   2.0000      -0.779125       -21.2011
  33   2.0000      -0.767014       -20.8715
  34   2.0000      -0.712791       -19.3960
  35   2.0000      -0.701642       -19.0926
  36   2.0000      -0.695331       -18.9209
  37   2.0000      -0.660330       -17.9685
  38   2.0000      -0.635086       -17.2816
  39   2.0000      -0.617549       -16.8044
  40   2.0000      -0.583424       -15.8758
  41   2.0000      -0.570546       -15.5253
  42   2.0000      -0.568951       -15.4819
  43   2.0000      -0.563994       -15.3470
  44   2.0000      -0.526984       -14.3400
  45   2.0000      -0.522371       -14.2144
  46   2.0000      -0.516562       -14.0564
  47   2.0000      -0.511583       -13.9209
  48   2.0000      -0.507167       -13.8007
  49   2.0000      -0.500699       -13.6247
  50   2.0000      -0.494675       -13.4608
  51   2.0000      -0.484931       -13.1957
  52   2.0000      -0.468589       -12.7510
  53   2.0000      -0.459087       -12.4924
  54   2.0000      -0.454197       -12.3593
  55   2.0000      -0.444609       -12.0984
  56   2.0000      -0.443938       -12.0802
  57   2.0000      -0.440637       -11.9903
  58   2.0000      -0.434217       -11.8157
  59   2.0000      -0.428970       -11.6729
  60   2.0000      -0.423698       -11.5294
  61   2.0000      -0.418723       -11.3940
  62   2.0000      -0.404492       -11.0068
  63   2.0000      -0.351653        -9.5690
  64   2.0000      -0.331583        -9.0228
  65   2.0000      -0.326004        -8.8710
  66   2.0000      -0.288517        -7.8510
  67   0.0000       0.016792         0.4569
  68   0.0000       0.074916         2.0386
  69   0.0000       0.103027         2.8035
  70   0.0000       0.119203         3.2437
  71   0.0000       0.130309         3.5459

MULLIKEN ATOMIC CHARGES
-----------------------
   0 S :    0.101552
   1 C :   -0.120290
   2 C :   -0.096065
   3 C :    0.004865
   4 C :   -0.133861
   5 H :    0.024250
   6 C :    0.036395
   7 H :    0.010954
   8 H :    0.029285
   9 C :   -0.052583
  10 H :    0.033520
  11 H :    0.040816
  12 C :   -0.045301
  13 H :    0.012949
  14 H :    0.038575
  15 H :    0.026440
  16 S :    0.088966
  17 C :   -0.109342
  18 C :   -0.035914
  19 C :   -0.075028
  20 C :   -0.118952
  21 H :    0.028718
  22 C :    0.050855
  23 H :    0.031680
  24 H :    0.013085
  25 C :   -0.037695
  26 H :    0.021720
  27 H :    0.042317
  28 C :    0.001906
  29 H :    0.020124
  30 H :    0.022272
  31 H :    0.001158
  32 H :    0.067646
  33 H :    0.074983
Sum of atomic charges:   -0.0000000

LOEWDIN ATOMIC CHARGES
----------------------
   0 S :    0.402876
   1 C :   -0.203488
   2 C :   -0.059774
   3 C :   -0.075330
   4 C :   -0.201747
   5 H :    0.035019
   6 C :   -0.036479
   7 H :    0.028718
   8 H :    0.029316
   9 C :   -0.029160
  10 H :    0.025159
  11 H :    0.028670
  12 C :   -0.063871
  13 H :    0.012717
  14 H :    0.028184
  15 H :    0.023816
  16 S :    0.382790
  17 C :   -0.176762
  18 C :   -0.072118
  19 C :   -0.053994
  20 C :   -0.199545
  21 H :    0.034510
  22 C :   -0.037186
  23 H :    0.034750
  24 H :    0.029002
  25 C :   -0.025794
  26 H :    0.022233
  27 H :    0.026578
  28 C :   -0.050280
  29 H :    0.030083
  30 H :    0.023721
  31 H :    0.002328
  32 H :    0.047219
  33 H :    0.037837

  Mayer bond orders larger than 0.100000
B(  0-S ,  1-C ) :   1.1161 B(  0-S ,  4-C ) :   1.1579 B(  1-C ,  2-C ) :   1.6123
B(  1-C , 32-H ) :   0.9625 B(  2-C ,  3-C ) :   1.2543 B(  2-C ,  6-C ) :   1.0171
B(  3-C ,  4-C ) :   1.5572 B(  3-C ,  5-H ) :   0.9787 B(  4-C , 20-C ) :   1.0600
B(  6-C ,  7-H ) :   0.9380 B(  6-C ,  8-H ) :   0.9491 B(  6-C ,  9-C ) :   1.0704
B(  9-C , 10-H ) :   0.9537 B(  9-C , 11-H ) :   0.9572 B(  9-C , 12-C ) :   1.0765
B( 12-C , 13-H ) :   0.9760 B( 12-C , 14-H ) :   0.9756 B( 12-C , 15-H ) :   0.9751
B( 16-S , 17-C ) :   1.1388 B( 16-S , 20-C ) :   1.1348 B( 17-C , 18-C ) :   1.6267
B( 17-C , 33-H ) :   0.9607 B( 18-C , 19-C ) :   1.2387 B( 18-C , 21-H ) :   0.9858
B( 19-C , 20-C ) :   1.5570 B( 19-C , 22-C ) :   1.0445 B( 22-C , 23-H ) :   0.9333
B( 22-C , 24-H ) :   0.9326 B( 22-C , 25-C ) :   1.0411 B( 25-C , 26-H ) :   0.9588
B( 25-C , 27-H ) :   0.9595 B( 25-C , 28-C ) :   1.0844 B( 28-C , 29-H ) :   0.9741
B( 28-C , 30-H ) :   0.9733 B( 28-C , 31-H ) :   0.9772

Dispersion correction           -0.013805358
FINAL SINGLE POINT ENERGY     -1339.855792500654

DIPOLE MOMENT
-------------
                                X             Y             Z
Electronic contribution:    -21.26302      -1.63455     -17.47165
Nuclear contribution   :     21.82990       1.94927      17.79431
                        -----------------------------------------
Total Dipole Moment    :      0.56688       0.31472       0.32266
                        -----------------------------------------
Magnitude (a.u.)       :      0.72423
Magnitude (Debye)      :      1.84086

Rotational constants in cm-1:     0.016821     0.008326     0.006941
Rotational constants in MHz :   504.274329   249.607021   208.093741

                             ****ORCA TERMINATED NORMALLY****
TOTAL RUN TIME: 0 days 0 hours 0 minutes 34 seconds 467 msec
