                         Program Version 4.2.1 -  RELEASE  -
|  1> ! wB97X-D3 SP def2-SVP
|  2> %pal
|  3> nprocs 16
|  4> end
|  5>
|  6> * xyz 0 1
|  7> S 	 -29.5519 	 59.734 	 111.674
|  8> C 	 -28.9814 	 60.8057 	 110.364
|  9> C 	 -29.7592 	 60.7093 	 109.244
| 10> C 	 -30.826 	 59.7676 	 109.444
| 11> C 	 -30.868 	 59.1343 	 110.674
| 12> H 	 -31.5334 	 59.5098 	 108.686
| 13> C 	 -29.6139 	 61.3648 	 107.905
| 14> H 	 -29.3169 	 62.4073 	 108.078
| 15> H 	 -30.5868 	 61.5945 	 107.507
| 16> C 	 -28.7876 	 60.5995 	 106.89
| 17> H 	 -27.748 	 60.8217 	 107.166
| 18> H 	 -28.9058 	 59.5016 	 106.969
| 19> C 	 -28.9405 	 60.986 	 105.429
| 20> H 	 -29.732 	 60.444 	 104.892
| 21> H 	 -28.9005 	 62.0659 	 105.188
| 22> H 	 -28.0309 	 60.5722 	 104.97
| 23> S 	 -33.0017 	 58.7518 	 112.251
| 24> C 	 -33.7952 	 57.1759 	 112.36
| 25> C 	 -33.3131 	 56.3835 	 111.346
| 26> C 	 -32.168 	 56.9128 	 110.655
| 27> C 	 -31.87 	 58.1781 	 111.096
| 28> H 	 -33.805 	 55.4762 	 111.073
| 29> C 	 -31.5172 	 56.1287 	 109.565
| 30> H 	 -31.7003 	 55.0636 	 109.716
| 31> H 	 -30.5026 	 56.2791 	 109.747
| 32> C 	 -31.9049 	 56.4674 	 108.12
| 33> H 	 -31.1922 	 56.0251 	 107.437
| 34> H 	 -31.8701 	 57.5666 	 107.905
| 35> C 	 -33.2923 	 55.8348 	 107.795
| 36> H 	 -34.183 	 56.3219 	 108.291
| 37> H 	 -33.3614 	 54.8018 	 108.168
| 38> H 	 -33.4731 	 55.7597 	 106.725
| 39> H 	 -28.1645 	 61.5333 	 110.395
| 40> H 	 -34.6906 	 57.0726 	 113.032
| 41> *
| 42>
| 43>                          ****END OF INPUT****

CARTESIAN COORDINATES (ANGSTROEM)
---------------------------------
  S    -29.551900   59.734000  111.674000
  C    -28.981400   60.805700  110.364000
  C    -29.759200   60.709300  109.244000
  C    -30.826000   59.767600  109.444000
  C    -30.868000   59.134300  110.674000
  H    -31.533400   59.509800  108.686000
  C    -29.613900   61.364800  107.905000
  H    -29.316900   62.407300  108.078000
  H    -30.586800   61.594500  107.507000
  C    -28.787600   60.599500  106.890000
  H    -27.748000   60.821700  107.166000
  H    -28.905800   59.501600  106.969000
  C    -28.940500   60.986000  105.429000
  H    -29.732000   60.444000  104.892000
  H    -28.900500   62.065900  105.188000
  H    -28.030900   60.572200  104.970000
  S    -33.001700   58.751800  112.251000
  C    -33.795200   57.175900  112.360000
  C    -33.313100   56.383500  111.346000
  C    -32.168000   56.912800  110.655000
  C    -31.870000   58.178100  111.096000
  H    -33.805000   55.476200  111.073000
  C    -31.517200   56.128700  109.565000
  H    -31.700300   55.063600  109.716000
  H    -30.502600   56.279100  109.747000
  C    -31.904900   56.467400  108.120000
  H    -31.192200   56.025100  107.437000
  H    -31.870100   57.566600  107.905000
  C    -33.292300   55.834800  107.795000
  H    -34.183000   56.321900  108.291000
  H    -33.361400   54.801800  108.168000
  H    -33.473100   55.759700  106.725000
  H    -28.164500   61.533300  110.395000
  H    -34.690600   57.072600  113.032000

 Total Charge           Charge          ....    0
 Multiplicity           Mult            ....    1
 Number of Electrons    NEL             ....  134
 Basis Dimension        Dim             ....  322

ORBITAL ENERGIES
----------------

  NO   OCC          E(Eh)            E(eV)
   0   2.0000     -88.967256     -2420.9221
   1   2.0000     -88.959775     -2420.7185
   2   2.0000     -10.327331      -281.0210
   3   2.0000     -10.321167      -280.8532
   4   2.0000     -10.320606      -280.8380
   5   2.0000     -10.317172      -280.7445
   6   2.0000     -10.299221      -280.2560
   7   2.0000     -10.297996      -280.2227
   8   2.0000     -10.293035      -280.0877
   9   2.0000     -10.292075      -280.0616
  10   2.0000     -10.290552      -280.0202
  11   2.0000     -10.289797      -279.9996
  12   2.0000     -10.289090      -279.9804
  13   2.0000     -10.284232      -279.8482
  14   2.0000     -10.283182      -279.8196
  15   2.0000     -10.282797      -279.8091
  16   2.0000      -8.081056      -219.8967
  17   2.0000      -8.075388      -219.7425
  18   2.0000      -6.039738      -164.3496
  19   2.0000      -6.035681      -164.2392
  20   2.0000      -6.033841      -164.1892
  21   2.0000      -6.031686      -164.1305
  22   2.0000      -6.029808      -164.0794
  23   2.0000      -6.026102      -163.9786
  24   2.0000      -1.007771       -27.4228
  25   2.0000      -0.982864       -26.7451
  26   2.0000      -0.915113       -24.9015
  27   2.0000      -0.910595       -24.7785
  28   2.0000      -0.871758       -23.7217
  29   2.0000      -0.848010       -23.0755
  30   2.0000      -0.845379       -23.0039
  31   2.0000      -0.813064       -22.1246
  32   2.0000      -0.784850       -21.3569
  33   2.0000      -0.774556       -21.0768
  34   2.0000      -0.709089       -19.2953
  35   2.0000      -0.701195       -19.0805
  36   2.0000      -0.694047       -18.8860
  37   2.0000      -0.666003       -18.1229
  38   2.0000      -0.640274       -17.4227
  39   2.0000      -0.617439       -16.8014
  40   2.0000      -0.595108       -16.1937
  41   2.0000      -0.568243       -15.4627
  42   2.0000      -0.560493       -15.2518
  43   2.0000      -0.556136       -15.1332
  44   2.0000      -0.546305       -14.8657
  45   2.0000      -0.530154       -14.4262
  46   2.0000      -0.525048       -14.2873
  47   2.0000      -0.506186       -13.7740
  48   2.0000      -0.499342       -13.5878
  49   2.0000      -0.497052       -13.5255
  50   2.0000      -0.488994       -13.3062
  51   2.0000      -0.479027       -13.0350
  52   2.0000      -0.472200       -12.8492
  53   2.0000      -0.462295       -12.5797
  54   2.0000      -0.458185       -12.4679
  55   2.0000      -0.448822       -12.2131
  56   2.0000      -0.442095       -12.0300
  57   2.0000      -0.438174       -11.9233
  58   2.0000      -0.435477       -11.8499
  59   2.0000      -0.427703       -11.6384
  60   2.0000      -0.423695       -11.5293
  61   2.0000      -0.417326       -11.3560
  62   2.0000      -0.406586       -11.0638
  63   2.0000      -0.336473        -9.1559
  64   2.0000      -0.330388        -8.9903
  65   2.0000      -0.323798        -8.8110
  66   2.0000      -0.306031        -8.3275
  67   0.0000       0.037458         1.0193
  68   0.0000       0.064176         1.7463
  69   0.0000       0.116182         3.1615
  70   0.0000       0.119941         3.2638
  71   0.0000       0.128351         3.4926

MULLIKEN ATOMIC CHARGES
-----------------------
   0 S :    0.116428
   1 C :   -0.123931
   2 C :   -0.091290
   3 C :    0.043906
   4 C :   -0.162611
   5 H :    0.000963
   6 C :    0.089595
   7 H :    0.015718
   8 H :    0.008069
   9 C :   -0.068706
  10 H :    0.025806
  11 H :    0.039068
  12 C :   -0.055623
  13 H :    0.039834
  14 H :    0.041026
  15 H :    0.026862
  16 S :    0.102395
  17 C :   -0.116269
  18 C :   -0.024901
  19 C :   -0.034873
  20 C :   -0.180325
  21 H :    0.009436
  22 C :    0.105249
  23 H :    0.015956
  24 H :    0.016753
  25 C :   -0.041589
  26 H :    0.028275
  27 H :    0.029173
  28 C :   -0.084614
  29 H :    0.048591
  30 H :    0.019311
  31 H :    0.035503
  32 H :    0.045029
  33 H :    0.081785
Sum of atomic charges:    0.0000000

LOEWDIN ATOMIC CHARGES
----------------------
   0 S :    0.390821
   1 C :   -0.186239
   2 C :   -0.065188
   3 C :   -0.053037
   4 C :   -0.200502
   5 H :    0.022399
   6 C :   -0.040152
   7 H :    0.032352
   8 H :    0.026796
   9 C :   -0.042807
  10 H :    0.026765
  11 H :    0.032067
  12 C :   -0.073882
  13 H :    0.026941
  14 H :    0.028980
  15 H :    0.032085
  16 S :    0.413317
  17 C :   -0.186856
  18 C :   -0.068870
  19 C :   -0.054473
  20 C :   -0.210517
  21 H :    0.025801
  22 C :   -0.028026
  23 H :    0.031775
  24 H :    0.027344
  25 C :   -0.034022
  26 H :    0.025007
  27 H :    0.026371
  28 C :   -0.075509
  29 H :    0.032033
  30 H :    0.022336
  31 H :    0.024149
  32 H :    0.032587
  33 H :    0.040155

  Mayer bond orders larger than 0.100000
B(  0-S ,  1-C ) :   1.1259 B(  0-S ,  4-C ) :   1.1326 B(  1-C ,  2-C ) :   1.6414
B(  1-C , 32-H ) :   0.9623 B(  2-C ,  3-C ) :   1.2304 B(  2-C ,  6-C ) :   1.0304
B(  3-C ,  4-C ) :   1.5969 B(  3-C ,  5-H ) :   0.9915 B(  4-C , 20-C ) :   1.0188
B(  6-C ,  7-H ) :   0.9272 B(  6-C ,  8-H ) :   0.9379 B(  6-C ,  9-C ) :   1.0499
B(  9-C , 10-H ) :   0.9562 B(  9-C , 11-H ) :   0.9573 B(  9-C , 12-C ) :   1.0859
B( 12-C , 13-H ) :   0.9747 B( 12-C , 14-H ) :   0.9735 B( 12-C , 15-H ) :   0.9711
B( 16-S , 17-C ) :   1.1506 B( 16-S , 20-C ) :   1.1673 B( 17-C , 18-C ) :   1.5910
B( 17-C , 33-H ) :   0.9650 B( 18-C , 19-C ) :   1.2407 B( 18-C , 21-H ) :   0.9916
B( 19-C , 20-C ) :   1.6016 B( 19-C , 22-C ) :   1.0481 B( 22-C , 23-H ) :   0.9352
B( 22-C , 24-H ) :   0.9140 B( 22-C , 25-C ) :   1.0800 B( 25-C , 26-H ) :   0.9511
B( 25-C , 27-H ) :   0.9532 B( 25-C , 28-C ) :   1.0659 B( 28-C , 29-H ) :   0.9757
B( 28-C , 30-H ) :   0.9738 B( 28-C , 31-H ) :   0.9758

Dispersion correction           -0.014789693
FINAL SINGLE POINT ENERGY     -1339.884675040978

DIPOLE MOMENT
-------------
                                X             Y             Z
Electronic contribution:     -2.81072       4.42920      30.06911
Nuclear contribution   :      2.79408      -4.57281     -30.85702
                        -----------------------------------------
Total Dipole Moment    :     -0.01664      -0.14361      -0.78791
                        -----------------------------------------
Magnitude (a.u.)       :      0.80106
Magnitude (Debye)      :      2.03614

Rotational constants in cm-1:     0.018362     0.009210     0.006767
Rotational constants in MHz :   550.484739   276.103018   202.882933

                             ****ORCA TERMINATED NORMALLY****
TOTAL RUN TIME: 0 days 0 hours 0 minutes 30 seconds 930 msec
