                         Program Version 4.2.1 -  RELEASE  -
|  1> ! wB97X-D3 SP def2-SVP
|  2> %pal
|  3> nprocs 16
|  4> end
|  5>
|  6> * xyz 0 1
|  7> S 	 -14.4304 	 -6.60857 	 82.5005
|  8> C 	 -14.7492 	 -8.24617 	 81.8971
|  9> C 	 -13.5543 	 -8.82126 	 81.5003
| 10> C 	 -12.4611 	 -7.93112 	 81.6289
| 11> C 	 -12.7438 	 -6.76754 	 82.2735
| 12> H 	 -11.3634 	 -8.17327 	 81.4748
| 13> C 	 -13.4814 	 -10.2599 	 81.0792
| 14> H 	 -12.5283 	 -10.3208 	 80.491
| 15> H 	 -14.3024 	 -10.4347 	 80.4458
| 16> C 	 -13.2854 	 -11.2247 	 82.2753
| 17> H 	 -12.3848 	 -10.8571 	 82.7796
| 18> H 	 -14.2032 	 -11.1891 	 82.9042
| 19> C 	 -13.1344 	 -12.6455 	 81.7428
| 20> H 	 -12.9461 	 -13.4206 	 82.4975
| 21> H 	 -14.0235 	 -13.0048 	 81.2028
| 22> H 	 -12.313 	 -12.6936 	 81.1164
| 23> S 	 -11.7411 	 -5.59976 	 84.6257
| 24> C 	 -10.1877 	 -4.76908 	 84.5193
| 25> C 	 -9.75887 	 -4.7105 	 83.2251
| 26> C 	 -10.6905 	 -5.23469 	 82.302
| 27> C 	 -11.7667 	 -5.85654 	 82.8663
| 28> H 	 -8.91878 	 -4.12782 	 82.9398
| 29> C 	 -10.3125 	 -5.36292 	 80.7986
| 30> H 	 -11.0471 	 -4.55428 	 80.4184
| 31> H 	 -10.6436 	 -6.27814 	 80.3197
| 32> C 	 -8.92401 	 -5.08359 	 80.3634
| 33> H 	 -8.47502 	 -4.17885 	 80.6221
| 34> H 	 -8.95308 	 -5.0372 	 79.2958
| 35> C 	 -8.07129 	 -6.2681 	 80.7146
| 36> H 	 -7.2072 	 -6.21619 	 80.1066
| 37> H 	 -8.55955 	 -7.22814 	 80.4641
| 38> H 	 -7.82511 	 -6.29978 	 81.7798
| 39> H 	 -15.6529 	 -8.80356 	 81.9998
| 40> H 	 -9.48548 	 -4.50083 	 85.3686
| 41> *
| 42>
| 43>                          ****END OF INPUT****

CARTESIAN COORDINATES (ANGSTROEM)
---------------------------------
  S    -14.430400   -6.608570   82.500500
  C    -14.749200   -8.246170   81.897100
  C    -13.554300   -8.821260   81.500300
  C    -12.461100   -7.931120   81.628900
  C    -12.743800   -6.767540   82.273500
  H    -11.363400   -8.173270   81.474800
  C    -13.481400  -10.259900   81.079200
  H    -12.528300  -10.320800   80.491000
  H    -14.302400  -10.434700   80.445800
  C    -13.285400  -11.224700   82.275300
  H    -12.384800  -10.857100   82.779600
  H    -14.203200  -11.189100   82.904200
  C    -13.134400  -12.645500   81.742800
  H    -12.946100  -13.420600   82.497500
  H    -14.023500  -13.004800   81.202800
  H    -12.313000  -12.693600   81.116400
  S    -11.741100   -5.599760   84.625700
  C    -10.187700   -4.769080   84.519300
  C     -9.758870   -4.710500   83.225100
  C    -10.690500   -5.234690   82.302000
  C    -11.766700   -5.856540   82.866300
  H     -8.918780   -4.127820   82.939800
  C    -10.312500   -5.362920   80.798600
  H    -11.047100   -4.554280   80.418400
  H    -10.643600   -6.278140   80.319700
  C     -8.924010   -5.083590   80.363400
  H     -8.475020   -4.178850   80.622100
  H     -8.953080   -5.037200   79.295800
  C     -8.071290   -6.268100   80.714600
  H     -7.207200   -6.216190   80.106600
  H     -8.559550   -7.228140   80.464100
  H     -7.825110   -6.299780   81.779800
  H    -15.652900   -8.803560   81.999800
  H     -9.485480   -4.500830   85.368600

 Total Charge           Charge          ....    0
 Multiplicity           Mult            ....    1
 Number of Electrons    NEL             ....  134
 Basis Dimension        Dim             ....  322

ORBITAL ENERGIES
----------------

  NO   OCC          E(Eh)            E(eV)
   0   2.0000     -88.965311     -2420.8692
   1   2.0000     -88.963974     -2420.8328
   2   2.0000     -10.324910      -280.9551
   3   2.0000     -10.324398      -280.9411
   4   2.0000     -10.322868      -280.8995
   5   2.0000     -10.310385      -280.5598
   6   2.0000     -10.300117      -280.2804
   7   2.0000     -10.297752      -280.2161
   8   2.0000     -10.293599      -280.1031
   9   2.0000     -10.293431      -280.0985
  10   2.0000     -10.291967      -280.0587
  11   2.0000     -10.289432      -279.9897
  12   2.0000     -10.288308      -279.9591
  13   2.0000     -10.276532      -279.6387
  14   2.0000     -10.273602      -279.5589
  15   2.0000     -10.272674      -279.5337
  16   2.0000      -8.079394      -219.8515
  17   2.0000      -8.079064      -219.8425
  18   2.0000      -6.038022      -164.3029
  19   2.0000      -6.037524      -164.2894
  20   2.0000      -6.034025      -164.1942
  21   2.0000      -6.033449      -164.1785
  22   2.0000      -6.030007      -164.0848
  23   2.0000      -6.029916      -164.0824
  24   2.0000      -1.010016       -27.4839
  25   2.0000      -0.987068       -26.8595
  26   2.0000      -0.920462       -25.0470
  27   2.0000      -0.915765       -24.9192
  28   2.0000      -0.871169       -23.7057
  29   2.0000      -0.851674       -23.1752
  30   2.0000      -0.844711       -22.9858
  31   2.0000      -0.817339       -22.2409
  32   2.0000      -0.782828       -21.3018
  33   2.0000      -0.772369       -21.0172
  34   2.0000      -0.708375       -19.2759
  35   2.0000      -0.701793       -19.0967
  36   2.0000      -0.698410       -19.0047
  37   2.0000      -0.658227       -17.9113
  38   2.0000      -0.640847       -17.4383
  39   2.0000      -0.617858       -16.8128
  40   2.0000      -0.602910       -16.4060
  41   2.0000      -0.573084       -15.5944
  42   2.0000      -0.567114       -15.4320
  43   2.0000      -0.558706       -15.2032
  44   2.0000      -0.541114       -14.7245
  45   2.0000      -0.524334       -14.2679
  46   2.0000      -0.516379       -14.0514
  47   2.0000      -0.510152       -13.8819
  48   2.0000      -0.508678       -13.8418
  49   2.0000      -0.501941       -13.6585
  50   2.0000      -0.496420       -13.5083
  51   2.0000      -0.477613       -12.9965
  52   2.0000      -0.468336       -12.7441
  53   2.0000      -0.464711       -12.6454
  54   2.0000      -0.461365       -12.5544
  55   2.0000      -0.450017       -12.2456
  56   2.0000      -0.444785       -12.1032
  57   2.0000      -0.439765       -11.9666
  58   2.0000      -0.436206       -11.8698
  59   2.0000      -0.427772       -11.6403
  60   2.0000      -0.425204       -11.5704
  61   2.0000      -0.414093       -11.2680
  62   2.0000      -0.404750       -11.0138
  63   2.0000      -0.345355        -9.3976
  64   2.0000      -0.330243        -8.9864
  65   2.0000      -0.328050        -8.9267
  66   2.0000      -0.294791        -8.0217
  67   0.0000       0.031712         0.8629
  68   0.0000       0.065754         1.7893
  69   0.0000       0.116934         3.1819
  70   0.0000       0.123439         3.3589
  71   0.0000       0.132070         3.5938

MULLIKEN ATOMIC CHARGES
-----------------------
   0 S :    0.110142
   1 C :   -0.111516
   2 C :   -0.104896
   3 C :    0.023992
   4 C :   -0.172565
   5 H :    0.033043
   6 C :    0.048917
   7 H :    0.021228
   8 H :    0.022783
   9 C :   -0.066255
  10 H :    0.038951
  11 H :    0.035474
  12 C :   -0.013839
  13 H :    0.031969
  14 H :    0.029173
  15 H :    0.007448
  16 S :    0.106847
  17 C :   -0.098085
  18 C :   -0.037539
  19 C :   -0.030327
  20 C :   -0.158971
  21 H :    0.014970
  22 C :    0.014500
  23 H :    0.046717
  24 H :    0.026706
  25 C :   -0.009594
  26 H :    0.010294
  27 H :    0.016288
  28 C :   -0.037543
  29 H :    0.021992
  30 H :    0.020348
  31 H :    0.038238
  32 H :    0.040194
  33 H :    0.080915
Sum of atomic charges:    0.0000000

LOEWDIN ATOMIC CHARGES
----------------------
   0 S :    0.413135
   1 C :   -0.192857
   2 C :   -0.061998
   3 C :   -0.077231
   4 C :   -0.204707
   5 H :    0.039980
   6 C :   -0.029340
   7 H :    0.033446
   8 H :    0.022808
   9 C :   -0.032524
  10 H :    0.029863
  11 H :    0.026426
  12 C :   -0.064737
  13 H :    0.027732
  14 H :    0.028515
  15 H :    0.012585
  16 S :    0.389205
  17 C :   -0.185293
  18 C :   -0.078862
  19 C :   -0.055285
  20 C :   -0.196467
  21 H :    0.027855
  22 C :   -0.034583
  23 H :    0.046104
  24 H :    0.027805
  25 C :   -0.043792
  26 H :    0.016013
  27 H :    0.029670
  28 C :   -0.057434
  29 H :    0.019934
  30 H :    0.025606
  31 H :    0.025583
  32 H :    0.024457
  33 H :    0.048389

  Mayer bond orders larger than 0.100000
B(  0-S ,  1-C ) :   1.1274 B(  0-S ,  4-C ) :   1.1670 B(  1-C ,  2-C ) :   1.6052
B(  1-C , 32-H ) :   0.9735 B(  2-C ,  3-C ) :   1.2601 B(  2-C ,  6-C ) :   1.0223
B(  3-C ,  4-C ) :   1.5780 B(  3-C ,  5-H ) :   0.9732 B(  4-C , 20-C ) :   1.0246
B(  6-C ,  7-H ) :   0.9412 B(  6-C ,  8-H ) :   0.9421 B(  6-C ,  9-C ) :   1.0586
B(  9-C , 10-H ) :   0.9551 B(  9-C , 11-H ) :   0.9578 B(  9-C , 12-C ) :   1.0837
B( 12-C , 13-H ) :   0.9728 B( 12-C , 14-H ) :   0.9731 B( 12-C , 15-H ) :   0.9724
B( 16-S , 17-C ) :   1.1522 B( 16-S , 20-C ) :   1.1202 B( 17-C , 18-C ) :   1.6206
B( 17-C , 33-H ) :   0.9519 B( 18-C , 19-C ) :   1.2630 B( 18-C , 21-H ) :   0.9781
B( 19-C , 20-C ) :   1.6194 B( 19-C , 22-C ) :   1.0097 B( 22-C , 23-H ) :   0.9193
B( 22-C , 24-H ) :   0.9467 B( 22-C , 25-C ) :   1.1049 B( 25-C , 26-H ) :   0.9408
B( 25-C , 27-H ) :   0.9381 B( 25-C , 28-C ) :   1.0818 B( 28-C , 29-H ) :   0.9714
B( 28-C , 30-H ) :   0.9722 B( 28-C , 31-H ) :   0.9743

Dispersion correction           -0.014254079
FINAL SINGLE POINT ENERGY     -1339.866769187517

DIPOLE MOMENT
-------------
                                X             Y             Z
Electronic contribution:    -13.44413      17.89001      14.32420
Nuclear contribution   :     14.00566     -18.28617     -14.67635
                        -----------------------------------------
Total Dipole Moment    :      0.56153      -0.39616      -0.35216
                        -----------------------------------------
Magnitude (a.u.)       :      0.77219
Magnitude (Debye)      :      1.96275

Rotational constants in cm-1:     0.018619     0.008142     0.006852
Rotational constants in MHz :   558.192361   244.089032   205.427469

                             ****ORCA TERMINATED NORMALLY****
TOTAL RUN TIME: 0 days 0 hours 0 minutes 32 seconds 944 msec
