                         Program Version 4.2.1 -  RELEASE  -
|  1> ! wB97X-D3 SP def2-SVP
|  2> %pal
|  3> nprocs 16
|  4> end
|  5>
|  6> * xyz 0 1
|  7> S 	 24.0369 	 2.75632 	 80.1358
|  8> C 	 24.9386 	 3.30904 	 81.465
|  9> C 	 24.2961 	 4.23136 	 82.2442
| 10> C 	 22.9582 	 4.43489 	 81.8316
| 11> C 	 22.6257 	 3.62276 	 80.7255
| 12> H 	 22.2257 	 5.05567 	 82.4012
| 13> C 	 24.8103 	 4.86486 	 83.4381
| 14> H 	 25.0756 	 5.86038 	 83.2045
| 15> H 	 25.7639 	 4.33952 	 83.5939
| 16> C 	 23.9161 	 4.76829 	 84.6585
| 17> H 	 23.1804 	 5.53153 	 84.5143
| 18> H 	 23.2588 	 3.92461 	 84.7486
| 19> C 	 24.4713 	 5.07609 	 86.1012
| 20> H 	 23.7552 	 5.01035 	 86.8365
| 21> H 	 25.1216 	 4.24096 	 86.4062
| 22> H 	 25.0205 	 6.08756 	 86.165
| 23> S 	 20.9507 	 1.96589 	 79.3038
| 24> C 	 19.2441 	 2.37551 	 79.0647
| 25> C 	 19.044 	 3.67584 	 79.5464
| 26> C 	 20.1746 	 4.29128 	 80.219
| 27> C 	 21.294 	 3.5203 	 80.1493
| 28> H 	 18.0557 	 4.07399 	 79.2952
| 29> C 	 19.9328 	 5.77696 	 80.6502
| 30> H 	 19.9174 	 6.44775 	 79.8323
| 31> H 	 20.7836 	 6.14327 	 81.2019
| 32> C 	 18.6558 	 5.93094 	 81.5434
| 33> H 	 18.7583 	 5.1191 	 82.2525
| 34> H 	 17.6375 	 5.74731 	 80.9871
| 35> C 	 18.663 	 7.13823 	 82.4321
| 36> H 	 19.4579 	 7.17364 	 83.1717
| 37> H 	 17.8815 	 7.04021 	 83.0833
| 38> H 	 18.616 	 8.12698 	 81.9785
| 39> H 	 26.0038 	 3.09395 	 81.6828
| 40> H 	 18.6219 	 1.65364 	 78.5064
| 41> *
| 42>
| 43>                          ****END OF INPUT****

CARTESIAN COORDINATES (ANGSTROEM)
---------------------------------
  S     24.036900    2.756320   80.135800
  C     24.938600    3.309040   81.465000
  C     24.296100    4.231360   82.244200
  C     22.958200    4.434890   81.831600
  C     22.625700    3.622760   80.725500
  H     22.225700    5.055670   82.401200
  C     24.810300    4.864860   83.438100
  H     25.075600    5.860380   83.204500
  H     25.763900    4.339520   83.593900
  C     23.916100    4.768290   84.658500
  H     23.180400    5.531530   84.514300
  H     23.258800    3.924610   84.748600
  C     24.471300    5.076090   86.101200
  H     23.755200    5.010350   86.836500
  H     25.121600    4.240960   86.406200
  H     25.020500    6.087560   86.165000
  S     20.950700    1.965890   79.303800
  C     19.244100    2.375510   79.064700
  C     19.044000    3.675840   79.546400
  C     20.174600    4.291280   80.219000
  C     21.294000    3.520300   80.149300
  H     18.055700    4.073990   79.295200
  C     19.932800    5.776960   80.650200
  H     19.917400    6.447750   79.832300
  H     20.783600    6.143270   81.201900
  C     18.655800    5.930940   81.543400
  H     18.758300    5.119100   82.252500
  H     17.637500    5.747310   80.987100
  C     18.663000    7.138230   82.432100
  H     19.457900    7.173640   83.171700
  H     17.881500    7.040210   83.083300
  H     18.616000    8.126980   81.978500
  H     26.003800    3.093950   81.682800
  H     18.621900    1.653640   78.506400

 Total Charge           Charge          ....    0
 Multiplicity           Mult            ....    1
 Number of Electrons    NEL             ....  134
 Basis Dimension        Dim             ....  322

ORBITAL ENERGIES
----------------

  NO   OCC          E(Eh)            E(eV)
   0   2.0000     -88.971948     -2421.0498
   1   2.0000     -88.958068     -2420.6721
   2   2.0000     -10.332819      -281.1703
   3   2.0000     -10.332136      -281.1517
   4   2.0000     -10.323440      -280.9151
   5   2.0000     -10.308643      -280.5124
   6   2.0000     -10.307942      -280.4934
   7   2.0000     -10.299416      -280.2614
   8   2.0000     -10.295644      -280.1587
   9   2.0000     -10.295355      -280.1509
  10   2.0000     -10.294259      -280.1210
  11   2.0000     -10.290466      -280.0178
  12   2.0000     -10.285725      -279.8888
  13   2.0000     -10.285307      -279.8774
  14   2.0000     -10.283688      -279.8334
  15   2.0000     -10.271138      -279.4919
  16   2.0000      -8.086929      -220.0565
  17   2.0000      -8.072389      -219.6609
  18   2.0000      -6.045463      -164.5054
  19   2.0000      -6.041444      -164.3960
  20   2.0000      -6.037618      -164.2919
  21   2.0000      -6.031014      -164.1122
  22   2.0000      -6.027005      -164.0032
  23   2.0000      -6.023006      -163.8943
  24   2.0000      -1.007845       -27.4249
  25   2.0000      -0.981291       -26.7023
  26   2.0000      -0.919530       -25.0217
  27   2.0000      -0.907183       -24.6857
  28   2.0000      -0.868763       -23.6402
  29   2.0000      -0.855724       -23.2854
  30   2.0000      -0.846073       -23.0228
  31   2.0000      -0.812407       -22.1067
  32   2.0000      -0.786074       -21.3902
  33   2.0000      -0.777855       -21.1665
  34   2.0000      -0.717223       -19.5166
  35   2.0000      -0.700776       -19.0691
  36   2.0000      -0.694080       -18.8869
  37   2.0000      -0.660839       -17.9823
  38   2.0000      -0.630524       -17.1574
  39   2.0000      -0.624090       -16.9824
  40   2.0000      -0.598328       -16.2813
  41   2.0000      -0.573657       -15.6100
  42   2.0000      -0.563655       -15.3378
  43   2.0000      -0.554629       -15.0922
  44   2.0000      -0.532817       -14.4987
  45   2.0000      -0.528624       -14.3846
  46   2.0000      -0.516875       -14.0649
  47   2.0000      -0.509851       -13.8738
  48   2.0000      -0.503891       -13.7116
  49   2.0000      -0.502314       -13.6686
  50   2.0000      -0.488949       -13.3050
  51   2.0000      -0.484692       -13.1891
  52   2.0000      -0.476054       -12.9541
  53   2.0000      -0.466304       -12.6888
  54   2.0000      -0.461438       -12.5564
  55   2.0000      -0.452069       -12.3014
  56   2.0000      -0.444585       -12.0978
  57   2.0000      -0.437572       -11.9069
  58   2.0000      -0.429284       -11.6814
  59   2.0000      -0.427084       -11.6215
  60   2.0000      -0.419634       -11.4188
  61   2.0000      -0.412305       -11.2194
  62   2.0000      -0.405719       -11.0402
  63   2.0000      -0.361376        -9.8335
  64   2.0000      -0.333805        -9.0833
  65   2.0000      -0.326435        -8.8828
  66   2.0000      -0.281100        -7.6491
  67   0.0000       0.020837         0.5670
  68   0.0000       0.080540         2.1916
  69   0.0000       0.104003         2.8301
  70   0.0000       0.121171         3.2972
  71   0.0000       0.124598         3.3905

MULLIKEN ATOMIC CHARGES
-----------------------
   0 S :    0.137049
   1 C :   -0.120465
   2 C :   -0.120055
   3 C :   -0.028601
   4 C :   -0.118223
   5 H :    0.031706
   6 C :    0.156032
   7 H :    0.027701
   8 H :    0.002719
   9 C :   -0.105925
  10 H :    0.015308
  11 H :    0.029672
  12 C :   -0.038114
  13 H :    0.013567
  14 H :    0.029462
  15 H :    0.046664
  16 S :    0.057844
  17 C :   -0.117789
  18 C :   -0.038596
  19 C :   -0.050855
  20 C :   -0.118401
  21 H :    0.031786
  22 C :    0.113672
  23 H :    0.033010
  24 H :   -0.009048
  25 C :   -0.130794
  26 H :    0.028638
  27 H :    0.055207
  28 C :    0.007445
  29 H :    0.012867
  30 H :    0.003752
  31 H :    0.033306
  32 H :    0.049903
  33 H :    0.079554
Sum of atomic charges:    0.0000000

LOEWDIN ATOMIC CHARGES
----------------------
   0 S :    0.429755
   1 C :   -0.222414
   2 C :   -0.069106
   3 C :   -0.064313
   4 C :   -0.187755
   5 H :    0.035592
   6 C :   -0.028945
   7 H :    0.032138
   8 H :    0.030053
   9 C :   -0.043209
  10 H :    0.019285
  11 H :    0.026309
  12 C :   -0.063441
  13 H :    0.014387
  14 H :    0.026604
  15 H :    0.035193
  16 S :    0.357359
  17 C :   -0.179727
  18 C :   -0.070372
  19 C :   -0.061462
  20 C :   -0.170885
  21 H :    0.033413
  22 C :   -0.021116
  23 H :    0.027530
  24 H :    0.022440
  25 C :   -0.046669
  26 H :    0.028003
  27 H :    0.035725
  28 C :   -0.064962
  29 H :    0.026338
  30 H :    0.018556
  31 H :    0.024333
  32 H :    0.035132
  33 H :    0.036229

  Mayer bond orders larger than 0.100000
B(  0-S ,  1-C ) :   1.1346 B(  0-S ,  4-C ) :   1.1585 B(  1-C ,  2-C ) :   1.6235
B(  1-C , 32-H ) :   0.9505 B(  2-C ,  3-C ) :   1.2640 B(  2-C ,  6-C ) :   1.0377
B(  3-C ,  4-C ) :   1.5440 B(  3-C ,  5-H ) :   0.9773 B(  4-C , 20-C ) :   1.0810
B(  6-C ,  7-H ) :   0.9146 B(  6-C ,  8-H ) :   0.9340 B(  6-C ,  9-C ) :   1.0483
B(  9-C , 10-H ) :   0.9435 B(  9-C , 11-H ) :   0.9644 B(  9-C , 12-C ) :   1.0925
B( 12-C , 13-H ) :   0.9723 B( 12-C , 14-H ) :   0.9742 B( 12-C , 15-H ) :   0.9746
B( 16-S , 17-C ) :   1.1398 B( 16-S , 20-C ) :   1.1134 B( 17-C , 18-C ) :   1.6193
B( 17-C , 33-H ) :   0.9682 B( 18-C , 19-C ) :   1.1922 B( 18-C , 21-H ) :   0.9880
B( 19-C , 20-C ) :   1.6502 B( 19-C , 22-C ) :   1.0285 B( 22-C , 23-H ) :   0.9371
B( 22-C , 24-H ) :   0.9369 B( 22-C , 25-C ) :   1.0468 B( 25-C , 26-H ) :   0.9556
B( 25-C , 27-H ) :   0.9510 B( 25-C , 28-C ) :   1.0992 B( 28-C , 29-H ) :   0.9645
B( 28-C , 30-H ) :   0.9645 B( 28-C , 31-H ) :   0.9724

Dispersion correction           -0.013500806
FINAL SINGLE POINT ENERGY     -1339.851534668032

DIPOLE MOMENT
-------------
                                X             Y             Z
Electronic contribution:      5.47154     -20.68767     -24.69350
Nuclear contribution   :     -5.72999      21.22670      25.19658
                        -----------------------------------------
Total Dipole Moment    :     -0.25846       0.53903       0.50308
                        -----------------------------------------
Magnitude (a.u.)       :      0.78131
Magnitude (Debye)      :      1.98593

Rotational constants in cm-1:     0.015526     0.009513     0.006335
Rotational constants in MHz :   465.448897   285.199153   189.909647

                             ****ORCA TERMINATED NORMALLY****
TOTAL RUN TIME: 0 days 0 hours 0 minutes 32 seconds 367 msec
