                         Program Version 4.2.1 -  RELEASE  -
|  1> ! wB97X-D3 SP def2-SVP
|  2> %pal
|  3> nprocs 16
|  4> end
|  5>
|  6> * xyz 0 1
|  7> S 	 -47.0667 	 -1.84563 	 95.3071
|  8> C 	 -48.4072 	 -2.97615 	 95.2692
|  9> C 	 -49.3952 	 -2.5666 	 94.431
| 10> C 	 -48.9969 	 -1.49543 	 93.5848
| 11> C 	 -47.8286 	 -0.912507 	 94.0659
| 12> H 	 -49.4811 	 -1.00966 	 92.7774
| 13> C 	 -50.6363 	 -3.38192 	 94.1615
| 14> H 	 -50.4902 	 -4.45486 	 94.2398
| 15> H 	 -50.9052 	 -3.21486 	 93.102
| 16> C 	 -51.8416 	 -3.05245 	 95.0574
| 17> H 	 -52.6219 	 -3.73302 	 94.7858
| 18> H 	 -51.6442 	 -3.24758 	 96.1037
| 19> C 	 -52.4229 	 -1.64386 	 94.8311
| 20> H 	 -51.6549 	 -0.914679 	 95.1809
| 21> H 	 -52.5365 	 -1.40091 	 93.826
| 22> H 	 -53.3086 	 -1.40236 	 95.3904
| 23> S 	 -48.0489 	 1.73293 	 93.3527
| 24> C 	 -46.7135 	 2.55613 	 92.5702
| 25> C 	 -45.7066 	 1.67185 	 92.2838
| 26> C 	 -46.0183 	 0.37865 	 92.742
| 27> C 	 -47.2185 	 0.285567 	 93.4365
| 28> H 	 -44.8598 	 2.02167 	 91.7643
| 29> C 	 -44.9073 	 -0.709831 	 92.5495
| 30> H 	 -44.8481 	 -1.26996 	 93.4856
| 31> H 	 -43.9645 	 -0.229447 	 92.2424
| 32> C 	 -45.3847 	 -1.91059 	 91.6528
| 33> H 	 -45.9885 	 -1.3902 	 90.8892
| 34> H 	 -46.234 	 -2.43936 	 92.1518
| 35> C 	 -44.242 	 -2.76941 	 91.1158
| 36> H 	 -43.2497 	 -2.60349 	 91.642
| 37> H 	 -44.0941 	 -2.63465 	 90.0713
| 38> H 	 -44.4196 	 -3.8437 	 91.2372
| 39> H 	 -48.3699 	 -3.95863 	 95.8421
| 40> H 	 -46.6099 	 3.64796 	 92.4538
| 41> *
| 42>
| 43>                          ****END OF INPUT****

CARTESIAN COORDINATES (ANGSTROEM)
---------------------------------
  S    -47.066700   -1.845630   95.307100
  C    -48.407200   -2.976150   95.269200
  C    -49.395200   -2.566600   94.431000
  C    -48.996900   -1.495430   93.584800
  C    -47.828600   -0.912507   94.065900
  H    -49.481100   -1.009660   92.777400
  C    -50.636300   -3.381920   94.161500
  H    -50.490200   -4.454860   94.239800
  H    -50.905200   -3.214860   93.102000
  C    -51.841600   -3.052450   95.057400
  H    -52.621900   -3.733020   94.785800
  H    -51.644200   -3.247580   96.103700
  C    -52.422900   -1.643860   94.831100
  H    -51.654900   -0.914679   95.180900
  H    -52.536500   -1.400910   93.826000
  H    -53.308600   -1.402360   95.390400
  S    -48.048900    1.732930   93.352700
  C    -46.713500    2.556130   92.570200
  C    -45.706600    1.671850   92.283800
  C    -46.018300    0.378650   92.742000
  C    -47.218500    0.285567   93.436500
  H    -44.859800    2.021670   91.764300
  C    -44.907300   -0.709831   92.549500
  H    -44.848100   -1.269960   93.485600
  H    -43.964500   -0.229447   92.242400
  C    -45.384700   -1.910590   91.652800
  H    -45.988500   -1.390200   90.889200
  H    -46.234000   -2.439360   92.151800
  C    -44.242000   -2.769410   91.115800
  H    -43.249700   -2.603490   91.642000
  H    -44.094100   -2.634650   90.071300
  H    -44.419600   -3.843700   91.237200
  H    -48.369900   -3.958630   95.842100
  H    -46.609900    3.647960   92.453800

 Total Charge           Charge          ....    0
 Multiplicity           Mult            ....    1
 Number of Electrons    NEL             ....  134
 Basis Dimension        Dim             ....  322

ORBITAL ENERGIES
----------------

  NO   OCC          E(Eh)            E(eV)
   0   2.0000     -88.970432     -2421.0085
   1   2.0000     -88.966483     -2420.9011
   2   2.0000     -10.329870      -281.0901
   3   2.0000     -10.320668      -280.8396
   4   2.0000     -10.317762      -280.7606
   5   2.0000     -10.315274      -280.6929
   6   2.0000     -10.300058      -280.2788
   7   2.0000     -10.298716      -280.2423
   8   2.0000     -10.293212      -280.0925
   9   2.0000     -10.291793      -280.0539
  10   2.0000     -10.290750      -280.0255
  11   2.0000     -10.286806      -279.9182
  12   2.0000     -10.283149      -279.8187
  13   2.0000     -10.282284      -279.7952
  14   2.0000     -10.277456      -279.6638
  15   2.0000     -10.268846      -279.4295
  16   2.0000      -8.085026      -220.0047
  17   2.0000      -8.082469      -219.9352
  18   2.0000      -6.043438      -164.4503
  19   2.0000      -6.040842      -164.3797
  20   2.0000      -6.039513      -164.3435
  21   2.0000      -6.036660      -164.2659
  22   2.0000      -6.035945      -164.2464
  23   2.0000      -6.033435      -164.1781
  24   2.0000      -1.014732       -27.6123
  25   2.0000      -0.993059       -27.0225
  26   2.0000      -0.911580       -24.8054
  27   2.0000      -0.897118       -24.4118
  28   2.0000      -0.871635       -23.7184
  29   2.0000      -0.852083       -23.1864
  30   2.0000      -0.843485       -22.9524
  31   2.0000      -0.815955       -22.2033
  32   2.0000      -0.782547       -21.2942
  33   2.0000      -0.768440       -20.9103
  34   2.0000      -0.703948       -19.1554
  35   2.0000      -0.701557       -19.0903
  36   2.0000      -0.684745       -18.6329
  37   2.0000      -0.664898       -18.0928
  38   2.0000      -0.645208       -17.5570
  39   2.0000      -0.614175       -16.7126
  40   2.0000      -0.591650       -16.0996
  41   2.0000      -0.575470       -15.6593
  42   2.0000      -0.554720       -15.0947
  43   2.0000      -0.546808       -14.8794
  44   2.0000      -0.541452       -14.7337
  45   2.0000      -0.518732       -14.1154
  46   2.0000      -0.518170       -14.1001
  47   2.0000      -0.512483       -13.9454
  48   2.0000      -0.505092       -13.7443
  49   2.0000      -0.491508       -13.3746
  50   2.0000      -0.486912       -13.2496
  51   2.0000      -0.482208       -13.1215
  52   2.0000      -0.476685       -12.9713
  53   2.0000      -0.472855       -12.8671
  54   2.0000      -0.462725       -12.5914
  55   2.0000      -0.447526       -12.1778
  56   2.0000      -0.446034       -12.1372
  57   2.0000      -0.441466       -12.0129
  58   2.0000      -0.429164       -11.6781
  59   2.0000      -0.424940       -11.5632
  60   2.0000      -0.414842       -11.2884
  61   2.0000      -0.411580       -11.1997
  62   2.0000      -0.393047       -10.6954
  63   2.0000      -0.343472        -9.3463
  64   2.0000      -0.336528        -9.1574
  65   2.0000      -0.328103        -8.9281
  66   2.0000      -0.297028        -8.0825
  67   0.0000       0.035278         0.9600
  68   0.0000       0.068148         1.8544
  69   0.0000       0.111219         3.0264
  70   0.0000       0.121671         3.3108
  71   0.0000       0.130076         3.5395

MULLIKEN ATOMIC CHARGES
-----------------------
   0 S :    0.126628
   1 C :   -0.168514
   2 C :   -0.025450
   3 C :    0.033500
   4 C :   -0.175761
   5 H :    0.006454
   6 C :    0.034448
   7 H :    0.026721
   8 H :    0.024709
   9 C :   -0.049638
  10 H :    0.019919
  11 H :    0.027891
  12 C :   -0.041159
  13 H :    0.032306
  14 H :    0.010814
  15 H :    0.034467
  16 S :    0.122150
  17 C :   -0.114696
  18 C :   -0.025051
  19 C :   -0.041446
  20 C :   -0.160199
  21 H :    0.005215
  22 C :    0.076423
  23 H :    0.024698
  24 H :    0.030869
  25 C :   -0.114185
  26 H :    0.022718
  27 H :    0.044855
  28 C :   -0.035919
  29 H :    0.038735
  30 H :    0.033445
  31 H :    0.032576
  32 H :    0.076915
  33 H :    0.065563
Sum of atomic charges:   -0.0000000

LOEWDIN ATOMIC CHARGES
----------------------
   0 S :    0.420162
   1 C :   -0.203560
   2 C :   -0.067000
   3 C :   -0.057873
   4 C :   -0.194390
   5 H :    0.027036
   6 C :   -0.029524
   7 H :    0.030291
   8 H :    0.031650
   9 C :   -0.035239
  10 H :    0.019705
  11 H :    0.022719
  12 C :   -0.064420
  13 H :    0.030749
  14 H :    0.013414
  15 H :    0.024882
  16 S :    0.445967
  17 C :   -0.191770
  18 C :   -0.067970
  19 C :   -0.059784
  20 C :   -0.234881
  21 H :    0.027478
  22 C :   -0.030414
  23 H :    0.024284
  24 H :    0.028564
  25 C :   -0.053329
  26 H :    0.020445
  27 H :    0.029511
  28 C :   -0.072560
  29 H :    0.033243
  30 H :    0.024201
  31 H :    0.029525
  32 H :    0.043231
  33 H :    0.035657

  Mayer bond orders larger than 0.100000
B(  0-S ,  1-C ) :   1.1335 B(  0-S ,  4-C ) :   1.1694 B(  1-C ,  2-C ) :   1.6177
B(  1-C , 32-H ) :   0.9593 B(  2-C ,  3-C ) :   1.2143 B(  2-C ,  6-C ) :   1.0160
B(  3-C ,  4-C ) :   1.5856 B(  3-C ,  5-H ) :   0.9980 B(  4-C , 20-C ) :   0.9977
B(  6-C ,  7-H ) :   0.9472 B(  6-C ,  8-H ) :   0.9465 B(  6-C ,  9-C ) :   1.0746
B(  9-C , 10-H ) :   0.9540 B(  9-C , 11-H ) :   0.9568 B(  9-C , 12-C ) :   1.0766
B( 12-C , 13-H ) :   0.9728 B( 12-C , 14-H ) :   0.9752 B( 12-C , 15-H ) :   0.9751
B( 16-S , 17-C ) :   1.1727 B( 16-S , 20-C ) :   1.1700 B( 17-C , 18-C ) :   1.5801
B( 17-C , 33-H ) :   0.9636 B( 18-C , 19-C ) :   1.2698 B( 18-C , 21-H ) :   1.0030
B( 19-C , 20-C ) :   1.5557 B( 19-C , 22-C ) :   1.0397 B( 22-C , 23-H ) :   0.9324
B( 22-C , 24-H ) :   0.9503 B( 22-C , 25-C ) :   1.0323 B( 25-C , 26-H ) :   0.9675
B( 25-C , 27-H ) :   0.9613 B( 25-C , 28-C ) :   1.0520 B( 28-C , 29-H ) :   0.9769
B( 28-C , 30-H ) :   0.9778 B( 28-C , 31-H ) :   0.9760

Dispersion correction           -0.015030440
FINAL SINGLE POINT ENERGY     -1339.870482856863

DIPOLE MOMENT
-------------
                                X             Y             Z
Electronic contribution:      4.86221      14.05644       7.41401
Nuclear contribution   :     -4.88661     -14.33530      -7.67741
                        -----------------------------------------
Total Dipole Moment    :     -0.02440      -0.27886      -0.26340
                        -----------------------------------------
Magnitude (a.u.)       :      0.38437
Magnitude (Debye)      :      0.97699

Rotational constants in cm-1:     0.019017     0.009043     0.007084
Rotational constants in MHz :   570.100733   271.099573   212.363006

                             ****ORCA TERMINATED NORMALLY****
TOTAL RUN TIME: 0 days 0 hours 0 minutes 30 seconds 641 msec
