                         Program Version 4.2.1 -  RELEASE  -
|  1> ! wB97X-D3 SP def2-SVP
|  2> %pal
|  3> nprocs 16
|  4> end
|  5>
|  6> * xyz 0 1
|  7> S 	 1.46215 	 -7.28566 	 90.236
|  8> C 	 -0.258571 	 -6.92707 	 90.3889
|  9> C 	 -0.957213 	 -7.5463 	 89.3324
| 10> C 	 -0.137326 	 -8.14599 	 88.3272
| 11> C 	 1.20257 	 -8.09074 	 88.7429
| 12> H 	 -0.542989 	 -8.59563 	 87.4335
| 13> C 	 -2.44414 	 -7.69596 	 89.1836
| 14> H 	 -2.67939 	 -7.71379 	 88.1711
| 15> H 	 -2.88976 	 -6.77364 	 89.5594
| 16> C 	 -2.99231 	 -8.88886 	 89.9651
| 17> H 	 -2.53333 	 -9.7622 	 89.4034
| 18> H 	 -2.6101 	 -8.92676 	 90.9239
| 19> C 	 -4.61982 	 -8.94076 	 90.0266
| 20> H 	 -4.91214 	 -9.89275 	 90.2869
| 21> H 	 -4.99257 	 -8.18628 	 90.7081
| 22> H 	 -5.23931 	 -8.83992 	 89.1268
| 23> S 	 3.18599 	 -7.54364 	 86.8777
| 24> C 	 4.1939 	 -8.78917 	 86.313
| 25> C 	 3.87823 	 -9.97494 	 86.9477
| 26> C 	 2.85578 	 -9.9251 	 87.9863
| 27> C 	 2.30621 	 -8.65686 	 88.0081
| 28> H 	 4.24781 	 -10.8531 	 86.5256
| 29> C 	 2.29148 	 -11.1389 	 88.6138
| 30> H 	 2.62148 	 -12.0271 	 88.1212
| 31> H 	 1.23349 	 -11.0674 	 88.5338
| 32> C 	 2.73179 	 -11.2544 	 90.1107
| 33> H 	 2.66935 	 -10.2876 	 90.5266
| 34> H 	 3.84185 	 -11.347 	 90.1445
| 35> C 	 1.90082 	 -12.2266 	 90.9158
| 36> H 	 2.22562 	 -13.2647 	 90.7708
| 37> H 	 0.834679 	 -12.2139 	 90.7225
| 38> H 	 2.01629 	 -11.9761 	 91.9976
| 39> H 	 -0.735572 	 -6.43053 	 91.1834
| 40> H 	 4.90033 	 -8.661 	 85.5344
| 41> *
| 42>
| 43>                          ****END OF INPUT****

CARTESIAN COORDINATES (ANGSTROEM)
---------------------------------
  S      1.462150   -7.285660   90.236000
  C     -0.258571   -6.927070   90.388900
  C     -0.957213   -7.546300   89.332400
  C     -0.137326   -8.145990   88.327200
  C      1.202570   -8.090740   88.742900
  H     -0.542989   -8.595630   87.433500
  C     -2.444140   -7.695960   89.183600
  H     -2.679390   -7.713790   88.171100
  H     -2.889760   -6.773640   89.559400
  C     -2.992310   -8.888860   89.965100
  H     -2.533330   -9.762200   89.403400
  H     -2.610100   -8.926760   90.923900
  C     -4.619820   -8.940760   90.026600
  H     -4.912140   -9.892750   90.286900
  H     -4.992570   -8.186280   90.708100
  H     -5.239310   -8.839920   89.126800
  S      3.185990   -7.543640   86.877700
  C      4.193900   -8.789170   86.313000
  C      3.878230   -9.974940   86.947700
  C      2.855780   -9.925100   87.986300
  C      2.306210   -8.656860   88.008100
  H      4.247810  -10.853100   86.525600
  C      2.291480  -11.138900   88.613800
  H      2.621480  -12.027100   88.121200
  H      1.233490  -11.067400   88.533800
  C      2.731790  -11.254400   90.110700
  H      2.669350  -10.287600   90.526600
  H      3.841850  -11.347000   90.144500
  C      1.900820  -12.226600   90.915800
  H      2.225620  -13.264700   90.770800
  H      0.834679  -12.213900   90.722500
  H      2.016290  -11.976100   91.997600
  H     -0.735572   -6.430530   91.183400
  H      4.900330   -8.661000   85.534400

 Total Charge           Charge          ....    0
 Multiplicity           Mult            ....    1
 Number of Electrons    NEL             ....  134
 Basis Dimension        Dim             ....  322

ORBITAL ENERGIES
----------------

  NO   OCC          E(Eh)            E(eV)
   0   2.0000     -88.972621     -2421.0681
   1   2.0000     -88.958774     -2420.6913
   2   2.0000     -10.327850      -281.0351
   3   2.0000     -10.323592      -280.9192
   4   2.0000     -10.313922      -280.6561
   5   2.0000     -10.309960      -280.5483
   6   2.0000     -10.302695      -280.3506
   7   2.0000     -10.300627      -280.2943
   8   2.0000     -10.296371      -280.1785
   9   2.0000     -10.293788      -280.1082
  10   2.0000     -10.285905      -279.8937
  11   2.0000     -10.283734      -279.8346
  12   2.0000     -10.282683      -279.8060
  13   2.0000     -10.280258      -279.7400
  14   2.0000     -10.279245      -279.7125
  15   2.0000     -10.277553      -279.6664
  16   2.0000      -8.086928      -220.0565
  17   2.0000      -8.073854      -219.7007
  18   2.0000      -6.045332      -164.5018
  19   2.0000      -6.041409      -164.3951
  20   2.0000      -6.037911      -164.2999
  21   2.0000      -6.032273      -164.1465
  22   2.0000      -6.028250      -164.0370
  23   2.0000      -6.024744      -163.9416
  24   2.0000      -1.005053       -27.3489
  25   2.0000      -0.981416       -26.7057
  26   2.0000      -0.912267       -24.8241
  27   2.0000      -0.910135       -24.7660
  28   2.0000      -0.864905       -23.5353
  29   2.0000      -0.849302       -23.1107
  30   2.0000      -0.847171       -23.0527
  31   2.0000      -0.808007       -21.9870
  32   2.0000      -0.786136       -21.3918
  33   2.0000      -0.773773       -21.0554
  34   2.0000      -0.712683       -19.3931
  35   2.0000      -0.707322       -19.2472
  36   2.0000      -0.697012       -18.9667
  37   2.0000      -0.662164       -18.0184
  38   2.0000      -0.644641       -17.5416
  39   2.0000      -0.617711       -16.8088
  40   2.0000      -0.596855       -16.2412
  41   2.0000      -0.569768       -15.5042
  42   2.0000      -0.563362       -15.3298
  43   2.0000      -0.555564       -15.1177
  44   2.0000      -0.524617       -14.2756
  45   2.0000      -0.520257       -14.1569
  46   2.0000      -0.517724       -14.0880
  47   2.0000      -0.512069       -13.9341
  48   2.0000      -0.509676       -13.8690
  49   2.0000      -0.504530       -13.7290
  50   2.0000      -0.495537       -13.4843
  51   2.0000      -0.483584       -13.1590
  52   2.0000      -0.470407       -12.8004
  53   2.0000      -0.467824       -12.7301
  54   2.0000      -0.458617       -12.4796
  55   2.0000      -0.452984       -12.3263
  56   2.0000      -0.449068       -12.2198
  57   2.0000      -0.442848       -12.0505
  58   2.0000      -0.429879       -11.6976
  59   2.0000      -0.422409       -11.4943
  60   2.0000      -0.419358       -11.4113
  61   2.0000      -0.413099       -11.2410
  62   2.0000      -0.410586       -11.1726
  63   2.0000      -0.335894        -9.1401
  64   2.0000      -0.324699        -8.8355
  65   2.0000      -0.312777        -8.5111
  66   2.0000      -0.311774        -8.4838
  67   0.0000       0.041834         1.1384
  68   0.0000       0.052926         1.4402
  69   0.0000       0.113226         3.0810
  70   0.0000       0.118485         3.2241
  71   0.0000       0.127444         3.4679

MULLIKEN ATOMIC CHARGES
-----------------------
   0 S :    0.142174
   1 C :   -0.105791
   2 C :   -0.124797
   3 C :    0.053499
   4 C :   -0.166113
   5 H :    0.019116
   6 C :    0.101025
   7 H :    0.005372
   8 H :    0.010093
   9 C :   -0.051235
  10 H :    0.026761
  11 H :    0.018074
  12 C :   -0.027796
  13 H :    0.014334
  14 H :    0.037115
  15 H :    0.024486
  16 S :    0.102852
  17 C :   -0.075763
  18 C :   -0.027946
  19 C :   -0.010854
  20 C :   -0.208428
  21 H :   -0.006320
  22 C :    0.126977
  23 H :    0.011779
  24 H :    0.015960
  25 C :   -0.087221
  26 H :    0.005897
  27 H :    0.027470
  28 C :   -0.028961
  29 H :    0.031645
  30 H :    0.030857
  31 H :    0.038863
  32 H :    0.028892
  33 H :    0.047985
Sum of atomic charges:    0.0000000

LOEWDIN ATOMIC CHARGES
----------------------
   0 S :    0.436633
   1 C :   -0.200892
   2 C :   -0.053311
   3 C :   -0.055310
   4 C :   -0.210457
   5 H :    0.034920
   6 C :   -0.031484
   7 H :    0.019571
   8 H :    0.026379
   9 C :   -0.022675
  10 H :    0.029386
  11 H :    0.014368
  12 C :   -0.065532
  13 H :    0.015508
  14 H :    0.026321
  15 H :    0.028897
  16 S :    0.397838
  17 C :   -0.192493
  18 C :   -0.071804
  19 C :   -0.045321
  20 C :   -0.189541
  21 H :    0.016631
  22 C :   -0.021593
  23 H :    0.026200
  24 H :    0.027382
  25 C :   -0.041776
  26 H :    0.011626
  27 H :    0.030612
  28 C :   -0.068203
  29 H :    0.025365
  30 H :    0.025431
  31 H :    0.034075
  32 H :    0.018765
  33 H :    0.024482

  Mayer bond orders larger than 0.100000
B(  0-S ,  1-C ) :   1.1335 B(  0-S ,  4-C ) :   1.1920 B(  1-C ,  2-C ) :   1.5841
B(  1-C ,  4-C ) :   0.1015 B(  1-C , 32-H ) :   0.9782 B(  2-C ,  3-C ) :   1.2634
B(  2-C ,  6-C ) :   1.0347 B(  3-C ,  4-C ) :   1.5337 B(  3-C ,  5-H ) :   0.9943
B(  4-C , 20-C ) :   1.0139 B(  6-C ,  7-H ) :   0.9386 B(  6-C ,  8-H ) :   0.9332
B(  6-C ,  9-C ) :   1.0573 B(  9-C , 10-H ) :   0.9578 B(  9-C , 11-H ) :   0.9598
B(  9-C , 12-C ) :   1.0587 B( 12-C , 13-H ) :   0.9763 B( 12-C , 14-H ) :   0.9786
B( 12-C , 15-H ) :   0.9781 B( 16-S , 17-C ) :   1.1626 B( 16-S , 20-C ) :   1.1371
B( 17-C , 18-C ) :   1.6142 B( 17-C , 33-H ) :   0.9724 B( 18-C , 19-C ) :   1.2159
B( 18-C , 21-H ) :   0.9937 B( 19-C , 20-C ) :   1.6106 B( 19-C , 22-C ) :   1.0554
B( 22-C , 23-H ) :   0.9308 B( 22-C , 24-H ) :   0.9318 B( 22-C , 25-C ) :   1.0499
B( 25-C , 26-H ) :   0.9609 B( 25-C , 27-H ) :   0.9501 B( 25-C , 28-C ) :   1.0753
B( 28-C , 29-H ) :   0.9742 B( 28-C , 30-H ) :   0.9740 B( 28-C , 31-H ) :   0.9739

Dispersion correction           -0.014521249
FINAL SINGLE POINT ENERGY     -1339.862945932613

DIPOLE MOMENT
-------------
                                X             Y             Z
Electronic contribution:     19.88171      17.57794      -9.53910
Nuclear contribution   :    -20.39671     -18.04548       9.53305
                        -----------------------------------------
Total Dipole Moment    :     -0.51500      -0.46754      -0.00605
                        -----------------------------------------
Magnitude (a.u.)       :      0.69560
Magnitude (Debye)      :      1.76806

Rotational constants in cm-1:     0.018673     0.008441     0.007065
Rotational constants in MHz :   559.793763   253.054082   211.790044

                             ****ORCA TERMINATED NORMALLY****
TOTAL RUN TIME: 0 days 0 hours 0 minutes 33 seconds 254 msec
