                         Program Version 4.2.1 -  RELEASE  -
|  1> ! wB97X-D3 SP def2-SVP
|  2> %pal
|  3> nprocs 16
|  4> end
|  5>
|  6> * xyz 0 1
|  7> S 	 -65.4498 	 44.304 	 126.524
|  8> C 	 -65.6667 	 45.9602 	 127.229
|  9> C 	 -65.6085 	 46.9312 	 126.207
| 10> C 	 -65.2466 	 46.3275 	 124.966
| 11> C 	 -64.9904 	 44.9267 	 124.928
| 12> H 	 -65.1189 	 46.8102 	 124.013
| 13> C 	 -65.6155 	 48.3983 	 126.493
| 14> H 	 -64.7424 	 48.6113 	 127.025
| 15> H 	 -66.4953 	 48.4741 	 127.142
| 16> C 	 -65.6955 	 49.3216 	 125.238
| 17> H 	 -64.7953 	 49.1529 	 124.599
| 18> H 	 -66.5116 	 49.1514 	 124.6
| 19> C 	 -65.6457 	 50.7903 	 125.599
| 20> H 	 -64.7706 	 50.8987 	 126.236
| 21> H 	 -65.6021 	 51.4756 	 124.799
| 22> H 	 -66.4763 	 51.1071 	 126.242
| 23> S 	 -63.1367 	 43.2444 	 123.945
| 24> C 	 -62.889 	 43.2299 	 122.185
| 25> C 	 -64.0259 	 43.7394 	 121.583
| 26> C 	 -64.9501 	 44.3307 	 122.511
| 27> C 	 -64.5101 	 44.3172 	 123.779
| 28> H 	 -64.1922 	 43.6642 	 120.527
| 29> C 	 -66.1558 	 45.0159 	 121.952
| 30> H 	 -66.6299 	 45.4937 	 122.829
| 31> H 	 -66.9217 	 44.2661 	 121.863
| 32> C 	 -66.082 	 45.991 	 120.783
| 33> H 	 -65.6892 	 45.4968 	 119.853
| 34> H 	 -65.2757 	 46.7025 	 121.035
| 35> C 	 -67.4365 	 46.5683 	 120.475
| 36> H 	 -68.0805 	 45.7734 	 120.184
| 37> H 	 -67.3878 	 47.4077 	 119.671
| 38> H 	 -67.9715 	 47.0557 	 121.356
| 39> H 	 -66.0993 	 46.0534 	 128.213
| 40> H 	 -62.0121 	 42.8898 	 121.669
| 41> *
| 42>
| 43>                          ****END OF INPUT****

CARTESIAN COORDINATES (ANGSTROEM)
---------------------------------
  S    -65.449800   44.304000  126.524000
  C    -65.666700   45.960200  127.229000
  C    -65.608500   46.931200  126.207000
  C    -65.246600   46.327500  124.966000
  C    -64.990400   44.926700  124.928000
  H    -65.118900   46.810200  124.013000
  C    -65.615500   48.398300  126.493000
  H    -64.742400   48.611300  127.025000
  H    -66.495300   48.474100  127.142000
  C    -65.695500   49.321600  125.238000
  H    -64.795300   49.152900  124.599000
  H    -66.511600   49.151400  124.600000
  C    -65.645700   50.790300  125.599000
  H    -64.770600   50.898700  126.236000
  H    -65.602100   51.475600  124.799000
  H    -66.476300   51.107100  126.242000
  S    -63.136700   43.244400  123.945000
  C    -62.889000   43.229900  122.185000
  C    -64.025900   43.739400  121.583000
  C    -64.950100   44.330700  122.511000
  C    -64.510100   44.317200  123.779000
  H    -64.192200   43.664200  120.527000
  C    -66.155800   45.015900  121.952000
  H    -66.629900   45.493700  122.829000
  H    -66.921700   44.266100  121.863000
  C    -66.082000   45.991000  120.783000
  H    -65.689200   45.496800  119.853000
  H    -65.275700   46.702500  121.035000
  C    -67.436500   46.568300  120.475000
  H    -68.080500   45.773400  120.184000
  H    -67.387800   47.407700  119.671000
  H    -67.971500   47.055700  121.356000
  H    -66.099300   46.053400  128.213000
  H    -62.012100   42.889800  121.669000

 Total Charge           Charge          ....    0
 Multiplicity           Mult            ....    1
 Number of Electrons    NEL             ....  134
 Basis Dimension        Dim             ....  322

ORBITAL ENERGIES
----------------

  NO   OCC          E(Eh)            E(eV)
   0   2.0000     -88.967184     -2420.9202
   1   2.0000     -88.960870     -2420.7484
   2   2.0000     -10.329531      -281.0808
   3   2.0000     -10.320474      -280.8344
   4   2.0000     -10.320094      -280.8240
   5   2.0000     -10.319031      -280.7951
   6   2.0000     -10.306426      -280.4521
   7   2.0000     -10.298813      -280.2450
   8   2.0000     -10.295164      -280.1456
   9   2.0000     -10.293130      -280.0903
  10   2.0000     -10.292889      -280.0838
  11   2.0000     -10.292847      -280.0826
  12   2.0000     -10.290277      -280.0127
  13   2.0000     -10.287731      -279.9434
  14   2.0000     -10.286274      -279.9037
  15   2.0000     -10.273885      -279.5666
  16   2.0000      -8.080066      -219.8698
  17   2.0000      -8.075806      -219.7538
  18   2.0000      -6.038707      -164.3216
  19   2.0000      -6.034750      -164.2139
  20   2.0000      -6.034462      -164.2061
  21   2.0000      -6.030876      -164.1085
  22   2.0000      -6.030461      -164.0972
  23   2.0000      -6.026192      -163.9810
  24   2.0000      -1.009216       -27.4622
  25   2.0000      -0.976219       -26.5643
  26   2.0000      -0.915747       -24.9187
  27   2.0000      -0.913530       -24.8584
  28   2.0000      -0.878052       -23.8930
  29   2.0000      -0.854619       -23.2554
  30   2.0000      -0.845569       -23.0091
  31   2.0000      -0.812041       -22.0968
  32   2.0000      -0.780975       -21.2514
  33   2.0000      -0.771401       -20.9909
  34   2.0000      -0.718681       -19.5563
  35   2.0000      -0.706223       -19.2173
  36   2.0000      -0.698250       -19.0003
  37   2.0000      -0.665451       -18.1079
  38   2.0000      -0.641060       -17.4441
  39   2.0000      -0.612005       -16.6535
  40   2.0000      -0.599080       -16.3018
  41   2.0000      -0.581598       -15.8261
  42   2.0000      -0.562772       -15.3138
  43   2.0000      -0.560816       -15.2606
  44   2.0000      -0.536509       -14.5991
  45   2.0000      -0.533983       -14.5304
  46   2.0000      -0.519731       -14.1426
  47   2.0000      -0.513901       -13.9840
  48   2.0000      -0.505374       -13.7519
  49   2.0000      -0.498466       -13.5639
  50   2.0000      -0.494167       -13.4470
  51   2.0000      -0.487407       -13.2630
  52   2.0000      -0.472159       -12.8481
  53   2.0000      -0.464794       -12.6477
  54   2.0000      -0.458160       -12.4672
  55   2.0000      -0.444154       -12.0860
  56   2.0000      -0.439629       -11.9629
  57   2.0000      -0.438086       -11.9209
  58   2.0000      -0.437043       -11.8925
  59   2.0000      -0.424201       -11.5431
  60   2.0000      -0.419757       -11.4222
  61   2.0000      -0.416024       -11.3206
  62   2.0000      -0.408276       -11.1098
  63   2.0000      -0.348016        -9.4700
  64   2.0000      -0.328491        -8.9387
  65   2.0000      -0.326991        -8.8979
  66   2.0000      -0.284543        -7.7428
  67   0.0000       0.022452         0.6110
  68   0.0000       0.059854         1.6287
  69   0.0000       0.109592         2.9822
  70   0.0000       0.118330         3.2199
  71   0.0000       0.127813         3.4780

MULLIKEN ATOMIC CHARGES
-----------------------
   0 S :    0.105044
   1 C :   -0.150051
   2 C :   -0.058675
   3 C :   -0.014286
   4 C :   -0.135691
   5 H :    0.009631
   6 C :    0.077759
   7 H :    0.040118
   8 H :    0.033730
   9 C :   -0.091209
  10 H :    0.038215
  11 H :    0.021359
  12 C :   -0.012985
  13 H :    0.016856
  14 H :    0.027757
  15 H :    0.022852
  16 S :    0.098214
  17 C :   -0.086188
  18 C :   -0.028497
  19 C :   -0.015011
  20 C :   -0.178276
  21 H :    0.014610
  22 C :    0.050282
  23 H :    0.006596
  24 H :    0.016677
  25 C :   -0.041642
  26 H :    0.033773
  27 H :    0.032828
  28 C :   -0.073025
  29 H :    0.031080
  30 H :    0.052379
  31 H :    0.038698
  32 H :    0.059888
  33 H :    0.057190
Sum of atomic charges:    0.0000000

LOEWDIN ATOMIC CHARGES
----------------------
   0 S :    0.375777
   1 C :   -0.186301
   2 C :   -0.058074
   3 C :   -0.063817
   4 C :   -0.191980
   5 H :    0.024325
   6 C :   -0.023180
   7 H :    0.031809
   8 H :    0.037694
   9 C :   -0.038558
  10 H :    0.030881
  11 H :    0.015343
  12 C :   -0.060748
  13 H :    0.024377
  14 H :    0.019961
  15 H :    0.024312
  16 S :    0.387627
  17 C :   -0.165423
  18 C :   -0.063778
  19 C :   -0.055397
  20 C :   -0.195893
  21 H :    0.027619
  22 C :   -0.047266
  23 H :    0.034056
  24 H :    0.032907
  25 C :   -0.045730
  26 H :    0.027836
  27 H :    0.026509
  28 C :   -0.071489
  29 H :    0.022627
  30 H :    0.037896
  31 H :    0.031143
  32 H :    0.026033
  33 H :    0.028902

  Mayer bond orders larger than 0.100000
B(  0-S ,  1-C ) :   1.1349 B(  0-S ,  4-C ) :   1.1349 B(  1-C ,  2-C ) :   1.5612
B(  1-C ,  4-C ) :   0.1134 B(  1-C , 32-H ) :   0.9724 B(  2-C ,  3-C ) :   1.2694
B(  2-C ,  6-C ) :   1.0083 B(  3-C ,  4-C ) :   1.5168 B(  3-C ,  5-H ) :   0.9922
B(  4-C , 20-C ) :   1.1227 B(  6-C ,  7-H ) :   0.9406 B(  6-C ,  8-H ) :   0.9344
B(  6-C ,  9-C ) :   1.0830 B(  9-C , 10-H ) :   0.9448 B(  9-C , 11-H ) :   0.9596
B(  9-C , 12-C ) :   1.0903 B( 12-C , 13-H ) :   0.9722 B( 12-C , 14-H ) :   0.9731
B( 12-C , 15-H ) :   0.9734 B( 16-S , 17-C ) :   1.1391 B( 16-S , 20-C ) :   1.0993
B( 17-C , 18-C ) :   1.6174 B( 17-C , 33-H ) :   0.9745 B( 18-C , 19-C ) :   1.2024
B( 18-C , 21-H ) :   0.9955 B( 19-C , 20-C ) :   1.6118 B( 19-C , 22-C ) :   1.0547
B( 22-C , 23-H ) :   0.9212 B( 22-C , 24-H ) :   0.9078 B( 22-C , 25-C ) :   1.0522
B( 25-C , 26-H ) :   0.9448 B( 25-C , 27-H ) :   0.9548 B( 25-C , 28-C ) :   1.0774
B( 28-C , 29-H ) :   0.9722 B( 28-C , 30-H ) :   0.9725 B( 28-C , 31-H ) :   0.9742

Dispersion correction           -0.013960266
FINAL SINGLE POINT ENERGY     -1339.854085710109

DIPOLE MOMENT
-------------
                                X             Y             Z
Electronic contribution:     12.02019     -27.16552      12.06675
Nuclear contribution   :    -12.29767      27.79972     -12.54832
                        -----------------------------------------
Total Dipole Moment    :     -0.27748       0.63420      -0.48157
                        -----------------------------------------
Magnitude (a.u.)       :      0.84328
Magnitude (Debye)      :      2.14344

Rotational constants in cm-1:     0.015270     0.009635     0.006839
Rotational constants in MHz :   457.792859   288.864560   205.039978

                             ****ORCA TERMINATED NORMALLY****
TOTAL RUN TIME: 0 days 0 hours 0 minutes 31 seconds 968 msec
