                         Program Version 4.2.1 -  RELEASE  -
|  1> ! wB97X-D3 SP def2-SVP
|  2> %pal
|  3> nprocs 16
|  4> end
|  5>
|  6> * xyz 0 1
|  7> S 	 -8.10774 	 50.7967 	 43.3022
|  8> C 	 -9.46588 	 50.8471 	 44.3549
|  9> C 	 -10.1735 	 49.6965 	 44.282
| 10> C 	 -9.61582 	 48.8174 	 43.2772
| 11> C 	 -8.52485 	 49.2994 	 42.5572
| 12> H 	 -10.1488 	 47.9011 	 43.0701
| 13> C 	 -11.4015 	 49.3507 	 45.1072
| 14> H 	 -12.1391 	 49.139 	 44.3103
| 15> H 	 -11.8296 	 50.2258 	 45.6117
| 16> C 	 -11.3553 	 48.1232 	 46.0075
| 17> H 	 -12.3786 	 47.6474 	 46.1365
| 18> H 	 -10.782 	 47.3821 	 45.4065
| 19> C 	 -10.7053 	 48.2694 	 47.4026
| 20> H 	 -9.63575 	 48.5887 	 47.2682
| 21> H 	 -11.3351 	 48.9655 	 48.033
| 22> H 	 -10.6715 	 47.2904 	 47.9732
| 23> S 	 -7.28032 	 49.4455 	 40.0935
| 24> C 	 -6.59026 	 48.0668 	 39.3376
| 25> C 	 -6.76353 	 47.0167 	 40.1392
| 26> C 	 -7.45522 	 47.2288 	 41.4039
| 27> C 	 -7.69232 	 48.5977 	 41.5566
| 28> H 	 -6.33145 	 46.058 	 39.7657
| 29> C 	 -7.80075 	 46.0917 	 42.4466
| 30> H 	 -7.45588 	 45.2269 	 41.9595
| 31> H 	 -8.86266 	 45.8594 	 42.4237
| 32> C 	 -7.22525 	 46.324 	 43.769
| 33> H 	 -7.52597 	 47.2832 	 44.1842
| 34> H 	 -6.10491 	 46.493 	 43.6815
| 35> C 	 -7.43647 	 45.1349 	 44.5719
| 36> H 	 -7.25764 	 44.2538 	 43.9782
| 37> H 	 -8.45576 	 45.1098 	 44.9955
| 38> H 	 -6.81267 	 45.085 	 45.4753
| 39> H 	 -9.84644 	 51.6658 	 44.9569
| 40> H 	 -6.00292 	 48.0208 	 38.4378
| 41> *
| 42>
| 43>                          ****END OF INPUT****

CARTESIAN COORDINATES (ANGSTROEM)
---------------------------------
  S     -8.107740   50.796700   43.302200
  C     -9.465880   50.847100   44.354900
  C    -10.173500   49.696500   44.282000
  C     -9.615820   48.817400   43.277200
  C     -8.524850   49.299400   42.557200
  H    -10.148800   47.901100   43.070100
  C    -11.401500   49.350700   45.107200
  H    -12.139100   49.139000   44.310300
  H    -11.829600   50.225800   45.611700
  C    -11.355300   48.123200   46.007500
  H    -12.378600   47.647400   46.136500
  H    -10.782000   47.382100   45.406500
  C    -10.705300   48.269400   47.402600
  H     -9.635750   48.588700   47.268200
  H    -11.335100   48.965500   48.033000
  H    -10.671500   47.290400   47.973200
  S     -7.280320   49.445500   40.093500
  C     -6.590260   48.066800   39.337600
  C     -6.763530   47.016700   40.139200
  C     -7.455220   47.228800   41.403900
  C     -7.692320   48.597700   41.556600
  H     -6.331450   46.058000   39.765700
  C     -7.800750   46.091700   42.446600
  H     -7.455880   45.226900   41.959500
  H     -8.862660   45.859400   42.423700
  C     -7.225250   46.324000   43.769000
  H     -7.525970   47.283200   44.184200
  H     -6.104910   46.493000   43.681500
  C     -7.436470   45.134900   44.571900
  H     -7.257640   44.253800   43.978200
  H     -8.455760   45.109800   44.995500
  H     -6.812670   45.085000   45.475300
  H     -9.846440   51.665800   44.956900
  H     -6.002920   48.020800   38.437800

 Total Charge           Charge          ....    0
 Multiplicity           Mult            ....    1
 Number of Electrons    NEL             ....  134
 Basis Dimension        Dim             ....  322

ORBITAL ENERGIES
----------------

  NO   OCC          E(Eh)            E(eV)
   0   2.0000     -88.964251     -2420.8403
   1   2.0000     -88.962250     -2420.7859
   2   2.0000     -10.333379      -281.1855
   3   2.0000     -10.330999      -281.1208
   4   2.0000     -10.311185      -280.5816
   5   2.0000     -10.311105      -280.5794
   6   2.0000     -10.309547      -280.5370
   7   2.0000     -10.298524      -280.2371
   8   2.0000     -10.296942      -280.1940
   9   2.0000     -10.296794      -280.1900
  10   2.0000     -10.295003      -280.1413
  11   2.0000     -10.294012      -280.1143
  12   2.0000     -10.291636      -280.0497
  13   2.0000     -10.289983      -280.0047
  14   2.0000     -10.276704      -279.6433
  15   2.0000     -10.272233      -279.5217
  16   2.0000      -8.079906      -219.8654
  17   2.0000      -8.078028      -219.8143
  18   2.0000      -6.038470      -164.3151
  19   2.0000      -6.036603      -164.2643
  20   2.0000      -6.034084      -164.1958
  21   2.0000      -6.032293      -164.1470
  22   2.0000      -6.030733      -164.1046
  23   2.0000      -6.028725      -164.0500
  24   2.0000      -1.012601       -27.5543
  25   2.0000      -0.993526       -27.0352
  26   2.0000      -0.926655       -25.2156
  27   2.0000      -0.911759       -24.8102
  28   2.0000      -0.873521       -23.7697
  29   2.0000      -0.850373       -23.1398
  30   2.0000      -0.841574       -22.9004
  31   2.0000      -0.818830       -22.2815
  32   2.0000      -0.783869       -21.3301
  33   2.0000      -0.777495       -21.1567
  34   2.0000      -0.712152       -19.3786
  35   2.0000      -0.699114       -19.0238
  36   2.0000      -0.687596       -18.7104
  37   2.0000      -0.655486       -17.8367
  38   2.0000      -0.633929       -17.2501
  39   2.0000      -0.628292       -17.0967
  40   2.0000      -0.598977       -16.2990
  41   2.0000      -0.574032       -15.6202
  42   2.0000      -0.570177       -15.5153
  43   2.0000      -0.550234       -14.9726
  44   2.0000      -0.537438       -14.6244
  45   2.0000      -0.533846       -14.5267
  46   2.0000      -0.523421       -14.2430
  47   2.0000      -0.512129       -13.9357
  48   2.0000      -0.507981       -13.8229
  49   2.0000      -0.497612       -13.5407
  50   2.0000      -0.495690       -13.4884
  51   2.0000      -0.482012       -13.1162
  52   2.0000      -0.473353       -12.8806
  53   2.0000      -0.465972       -12.6797
  54   2.0000      -0.461683       -12.5630
  55   2.0000      -0.451939       -12.2979
  56   2.0000      -0.442622       -12.0444
  57   2.0000      -0.436765       -11.8850
  58   2.0000      -0.432784       -11.7767
  59   2.0000      -0.419533       -11.4161
  60   2.0000      -0.416135       -11.3236
  61   2.0000      -0.409977       -11.1560
  62   2.0000      -0.403250       -10.9730
  63   2.0000      -0.354365        -9.6428
  64   2.0000      -0.328791        -8.9469
  65   2.0000      -0.326535        -8.8855
  66   2.0000      -0.300437        -8.1753
  67   0.0000       0.027982         0.7614
  68   0.0000       0.085454         2.3253
  69   0.0000       0.118550         3.2259
  70   0.0000       0.121537         3.3072
  71   0.0000       0.127277         3.4634

MULLIKEN ATOMIC CHARGES
-----------------------
   0 S :    0.110227
   1 C :   -0.110811
   2 C :   -0.110535
   3 C :   -0.007857
   4 C :   -0.115184
   5 H :    0.005131
   6 C :    0.077205
   7 H :    0.035650
   8 H :    0.015376
   9 C :   -0.096190
  10 H :    0.039133
  11 H :    0.022879
  12 C :   -0.082024
  13 H :    0.051658
  14 H :    0.041379
  15 H :    0.045463
  16 S :    0.101164
  17 C :   -0.070634
  18 C :   -0.060500
  19 C :   -0.057330
  20 C :   -0.141310
  21 H :    0.024742
  22 C :    0.104420
  23 H :   -0.013882
  24 H :    0.026330
  25 C :   -0.069890
  26 H :    0.044280
  27 H :    0.031733
  28 C :   -0.015542
  29 H :    0.021844
  30 H :    0.026016
  31 H :    0.028719
  32 H :    0.043797
  33 H :    0.054542
Sum of atomic charges:    0.0000000

LOEWDIN ATOMIC CHARGES
----------------------
   0 S :    0.427883
   1 C :   -0.206830
   2 C :   -0.071723
   3 C :   -0.066895
   4 C :   -0.205844
   5 H :    0.023768
   6 C :   -0.036707
   7 H :    0.041398
   8 H :    0.027568
   9 C :   -0.052846
  10 H :    0.030988
  11 H :    0.024043
  12 C :   -0.078375
  13 H :    0.032559
  14 H :    0.028696
  15 H :    0.032908
  16 S :    0.419938
  17 C :   -0.195211
  18 C :   -0.083480
  19 C :   -0.045637
  20 C :   -0.204106
  21 H :    0.034859
  22 C :   -0.024052
  23 H :    0.021947
  24 H :    0.030516
  25 C :   -0.053636
  26 H :    0.027847
  27 H :    0.034574
  28 C :   -0.062324
  29 H :    0.023915
  30 H :    0.026548
  31 H :    0.027348
  32 H :    0.034640
  33 H :    0.035720

  Mayer bond orders larger than 0.100000
B(  0-S ,  1-C ) :   1.1441 B(  0-S ,  4-C ) :   1.1615 B(  1-C ,  2-C ) :   1.6123
B(  1-C , 32-H ) :   0.9638 B(  2-C ,  3-C ) :   1.2652 B(  2-C ,  6-C ) :   1.0197
B(  3-C ,  4-C ) :   1.5434 B(  3-C ,  5-H ) :   0.9952 B(  4-C , 20-C ) :   1.0178
B(  6-C ,  7-H ) :   0.9305 B(  6-C ,  8-H ) :   0.9443 B(  6-C ,  9-C ) :   1.0661
B(  9-C , 10-H ) :   0.9540 B(  9-C , 11-H ) :   0.9536 B(  9-C , 12-C ) :   1.0753
B( 12-C , 13-H ) :   0.9751 B( 12-C , 14-H ) :   0.9740 B( 12-C , 15-H ) :   0.9731
B( 16-S , 17-C ) :   1.1433 B( 16-S , 20-C ) :   1.1565 B( 17-C , 18-C ) :   1.6398
B( 17-C , 33-H ) :   0.9650 B( 18-C , 19-C ) :   1.2400 B( 18-C , 21-H ) :   0.9797
B( 19-C , 20-C ) :   1.5883 B( 19-C , 22-C ) :   1.0136 B( 22-C , 23-H ) :   0.9202
B( 22-C , 24-H ) :   0.9289 B( 22-C , 25-C ) :   1.0701 B( 25-C , 26-H ) :   0.9475
B( 25-C , 27-H ) :   0.9448 B( 25-C , 28-C ) :   1.0978 B( 28-C , 29-H ) :   0.9684
B( 28-C , 30-H ) :   0.9675 B( 28-C , 31-H ) :   0.9691

Dispersion correction           -0.014983345
FINAL SINGLE POINT ENERGY     -1339.874934612548

DIPOLE MOMENT
-------------
                                X             Y             Z
Electronic contribution:      9.83280      19.60179     -22.64306
Nuclear contribution   :    -10.13826     -20.23551      22.88679
                        -----------------------------------------
Total Dipole Moment    :     -0.30546      -0.63372       0.24373
                        -----------------------------------------
Magnitude (a.u.)       :      0.74452
Magnitude (Debye)      :      1.89242

Rotational constants in cm-1:     0.019775     0.009474     0.007066
Rotational constants in MHz :   592.825730   284.021523   211.821195

                             ****ORCA TERMINATED NORMALLY****
TOTAL RUN TIME: 0 days 0 hours 0 minutes 35 seconds 381 msec
