                         Program Version 4.2.1 -  RELEASE  -
|  1> ! wB97X-D3 SP def2-SVP
|  2> %pal
|  3> nprocs 16
|  4> end
|  5>
|  6> * xyz 0 1
|  7> S 	 -30.7113 	 1.41611 	 101.386
|  8> C 	 -31.9797 	 0.56519 	 102.103
|  9> C 	 -32.3617 	 1.14954 	 103.319
| 10> C 	 -31.4228 	 2.19466 	 103.698
| 11> C 	 -30.38 	 2.40603 	 102.832
| 12> H 	 -31.5423 	 2.84664 	 104.583
| 13> C 	 -33.4108 	 0.554184 	 104.253
| 14> H 	 -33.8384 	 -0.334842 	 103.788
| 15> H 	 -34.3242 	 1.15141 	 104.409
| 16> C 	 -32.8011 	 0.270845 	 105.597
| 17> H 	 -32.4584 	 1.20091 	 106.052
| 18> H 	 -33.6335 	 -0.0941895 	 106.119
| 19> C 	 -31.7692 	 -0.864498 	 105.622
| 20> H 	 -31.6908 	 -1.1309 	 106.701
| 21> H 	 -32.1641 	 -1.77806 	 105.189
| 22> H 	 -30.7489 	 -0.507489 	 105.266
| 23> S 	 -27.8583 	 3.17643 	 102.191
| 24> C 	 -27.3087 	 4.74798 	 102.63
| 25> C 	 -28.3119 	 5.52638 	 103.105
| 26> C 	 -29.5458 	 4.86937 	 103.189
| 27> C 	 -29.4143 	 3.52337 	 102.847
| 28> H 	 -28.2826 	 6.53345 	 103.362
| 29> C 	 -30.7481 	 5.54234 	 103.878
| 30> H 	 -31.7325 	 5.15849 	 103.424
| 31> H 	 -30.7597 	 6.63036 	 103.74
| 32> C 	 -30.7489 	 5.33874 	 105.392
| 33> H 	 -30.0868 	 5.93646 	 105.94
| 34> H 	 -30.6024 	 4.29834 	 105.599
| 35> C 	 -32.2276 	 5.55875 	 105.86
| 36> H 	 -32.9081 	 4.79734 	 105.549
| 37> H 	 -32.6378 	 6.46453 	 105.651
| 38> H 	 -32.3038 	 5.47737 	 106.934
| 39> H 	 -32.6177 	 -0.0460481 	 101.513
| 40> H 	 -26.4244 	 5.18668 	 102.357
| 41> *
| 42>
| 43>                          ****END OF INPUT****

CARTESIAN COORDINATES (ANGSTROEM)
---------------------------------
  S    -30.711300    1.416110  101.386000
  C    -31.979700    0.565190  102.103000
  C    -32.361700    1.149540  103.319000
  C    -31.422800    2.194660  103.698000
  C    -30.380000    2.406030  102.832000
  H    -31.542300    2.846640  104.583000
  C    -33.410800    0.554184  104.253000
  H    -33.838400   -0.334842  103.788000
  H    -34.324200    1.151410  104.409000
  C    -32.801100    0.270845  105.597000
  H    -32.458400    1.200910  106.052000
  H    -33.633500   -0.094189  106.119000
  C    -31.769200   -0.864498  105.622000
  H    -31.690800   -1.130900  106.701000
  H    -32.164100   -1.778060  105.189000
  H    -30.748900   -0.507489  105.266000
  S    -27.858300    3.176430  102.191000
  C    -27.308700    4.747980  102.630000
  C    -28.311900    5.526380  103.105000
  C    -29.545800    4.869370  103.189000
  C    -29.414300    3.523370  102.847000
  H    -28.282600    6.533450  103.362000
  C    -30.748100    5.542340  103.878000
  H    -31.732500    5.158490  103.424000
  H    -30.759700    6.630360  103.740000
  C    -30.748900    5.338740  105.392000
  H    -30.086800    5.936460  105.940000
  H    -30.602400    4.298340  105.599000
  C    -32.227600    5.558750  105.860000
  H    -32.908100    4.797340  105.549000
  H    -32.637800    6.464530  105.651000
  H    -32.303800    5.477370  106.934000
  H    -32.617700   -0.046048  101.513000
  H    -26.424400    5.186680  102.357000

 Total Charge           Charge          ....    0
 Multiplicity           Mult            ....    1
 Number of Electrons    NEL             ....  134
 Basis Dimension        Dim             ....  322

ORBITAL ENERGIES
----------------

  NO   OCC          E(Eh)            E(eV)
   0   2.0000     -88.966861     -2420.9114
   1   2.0000     -88.961834     -2420.7746
   2   2.0000     -10.330568      -281.1091
   3   2.0000     -10.326668      -281.0029
   4   2.0000     -10.309389      -280.5327
   5   2.0000     -10.306130      -280.4440
   6   2.0000     -10.303142      -280.3628
   7   2.0000     -10.300117      -280.2804
   8   2.0000     -10.299751      -280.2705
   9   2.0000     -10.296991      -280.1954
  10   2.0000     -10.290067      -280.0070
  11   2.0000     -10.285370      -279.8792
  12   2.0000     -10.282859      -279.8108
  13   2.0000     -10.279627      -279.7229
  14   2.0000     -10.278431      -279.6903
  15   2.0000     -10.269274      -279.4411
  16   2.0000      -8.082542      -219.9372
  17   2.0000      -8.077391      -219.7970
  18   2.0000      -6.040931      -164.3821
  19   2.0000      -6.036879      -164.2718
  20   2.0000      -6.035859      -164.2441
  21   2.0000      -6.033434      -164.1781
  22   2.0000      -6.031751      -164.1323
  23   2.0000      -6.028157      -164.0345
  24   2.0000      -1.011941       -27.5363
  25   2.0000      -0.989784       -26.9334
  26   2.0000      -0.915487       -24.9117
  27   2.0000      -0.913305       -24.8523
  28   2.0000      -0.872948       -23.7541
  29   2.0000      -0.855864       -23.2892
  30   2.0000      -0.839779       -22.8515
  31   2.0000      -0.817325       -22.2405
  32   2.0000      -0.783067       -21.3083
  33   2.0000      -0.772987       -21.0340
  34   2.0000      -0.711807       -19.3693
  35   2.0000      -0.701809       -19.0972
  36   2.0000      -0.689701       -18.7677
  37   2.0000      -0.668277       -18.1847
  38   2.0000      -0.644342       -17.5334
  39   2.0000      -0.625110       -17.0101
  40   2.0000      -0.603441       -16.4205
  41   2.0000      -0.576913       -15.6986
  42   2.0000      -0.569705       -15.5025
  43   2.0000      -0.545064       -14.8320
  44   2.0000      -0.540403       -14.7051
  45   2.0000      -0.521910       -14.2019
  46   2.0000      -0.519444       -14.1348
  47   2.0000      -0.511293       -13.9130
  48   2.0000      -0.507023       -13.7968
  49   2.0000      -0.498727       -13.5711
  50   2.0000      -0.488337       -13.2883
  51   2.0000      -0.482040       -13.1170
  52   2.0000      -0.472380       -12.8541
  53   2.0000      -0.468777       -12.7561
  54   2.0000      -0.460131       -12.5208
  55   2.0000      -0.451164       -12.2768
  56   2.0000      -0.448143       -12.1946
  57   2.0000      -0.438400       -11.9295
  58   2.0000      -0.428970       -11.6729
  59   2.0000      -0.427726       -11.6390
  60   2.0000      -0.425915       -11.5897
  61   2.0000      -0.417014       -11.3475
  62   2.0000      -0.406999       -11.0750
  63   2.0000      -0.354504        -9.6465
  64   2.0000      -0.334583        -9.1045
  65   2.0000      -0.324779        -8.8377
  66   2.0000      -0.289697        -7.8831
  67   0.0000       0.029552         0.8041
  68   0.0000       0.072644         1.9767
  69   0.0000       0.111228         3.0267
  70   0.0000       0.117476         3.1967
  71   0.0000       0.129649         3.5279

MULLIKEN ATOMIC CHARGES
-----------------------
   0 S :    0.099247
   1 C :   -0.094592
   2 C :   -0.099212
   3 C :   -0.018878
   4 C :   -0.074718
   5 H :   -0.001778
   6 C :    0.069332
   7 H :    0.006345
   8 H :    0.030160
   9 C :   -0.072133
  10 H :    0.032732
  11 H :    0.009309
  12 C :   -0.051915
  13 H :    0.029265
  14 H :    0.027891
  15 H :    0.062619
  16 S :    0.118237
  17 C :   -0.022071
  18 C :   -0.017545
  19 C :   -0.010648
  20 C :   -0.202179
  21 H :   -0.013634
  22 C :    0.000993
  23 H :    0.049605
  24 H :    0.025620
  25 C :   -0.015858
  26 H :    0.021824
  27 H :    0.025380
  28 C :   -0.033164
  29 H :    0.024327
  30 H :    0.008616
  31 H :    0.016952
  32 H :    0.049081
  33 H :    0.020790
Sum of atomic charges:    0.0000000

LOEWDIN ATOMIC CHARGES
----------------------
   0 S :    0.413410
   1 C :   -0.211138
   2 C :   -0.062610
   3 C :   -0.070211
   4 C :   -0.188607
   5 H :    0.031119
   6 C :   -0.035476
   7 H :    0.026828
   8 H :    0.031541
   9 C :   -0.041166
  10 H :    0.023618
  11 H :    0.018205
  12 C :   -0.067142
  13 H :    0.029668
  14 H :    0.024409
  15 H :    0.036983
  16 S :    0.435903
  17 C :   -0.180110
  18 C :   -0.061369
  19 C :   -0.055117
  20 C :   -0.205308
  21 H :    0.021413
  22 C :   -0.034345
  23 H :    0.040420
  24 H :    0.030213
  25 C :   -0.023372
  26 H :    0.018746
  27 H :    0.018600
  28 C :   -0.056629
  29 H :    0.021242
  30 H :    0.008761
  31 H :    0.024617
  32 H :    0.024039
  33 H :    0.012865

  Mayer bond orders larger than 0.100000
B(  0-S ,  1-C ) :   1.1672 B(  0-S ,  4-C ) :   1.1439 B(  1-C ,  2-C ) :   1.5859
B(  1-C , 32-H ) :   0.9649 B(  2-C ,  3-C ) :   1.2439 B(  2-C ,  6-C ) :   1.0302
B(  3-C ,  4-C ) :   1.5835 B(  3-C ,  5-H ) :   0.9894 B(  4-C , 20-C ) :   1.0342
B(  6-C ,  7-H ) :   0.9406 B(  6-C ,  8-H ) :   0.9344 B(  6-C ,  9-C ) :   1.0878
B(  9-C , 10-H ) :   0.9515 B(  9-C , 11-H ) :   0.9489 B(  9-C , 12-C ) :   1.0806
B( 12-C , 13-H ) :   0.9743 B( 12-C , 14-H ) :   0.9717 B( 12-C , 15-H ) :   0.9731
B( 16-S , 17-C ) :   1.1589 B( 16-S , 20-C ) :   1.1644 B( 17-C , 18-C ) :   1.5764
B( 17-C , 33-H ) :   0.9753 B( 18-C , 19-C ) :   1.2849 B( 18-C , 21-H ) :   0.9969
B( 19-C , 20-C ) :   1.5532 B( 19-C , 22-C ) :   1.0496 B( 22-C , 23-H ) :   0.9416
B( 22-C , 24-H ) :   0.9334 B( 22-C , 25-C ) :   1.0565 B( 25-C , 26-H ) :   0.9518
B( 25-C , 27-H ) :   0.9566 B( 25-C , 28-C ) :   1.0779 B( 28-C , 29-H ) :   0.9743
B( 28-C , 30-H ) :   0.9746 B( 28-C , 31-H ) :   0.9695

Dispersion correction           -0.015188926
FINAL SINGLE POINT ENERGY     -1339.863254612020

DIPOLE MOMENT
-------------
                                X             Y             Z
Electronic contribution:     17.58775      -1.28782     -22.86636
Nuclear contribution   :    -18.11994       1.64811      23.34909
                        -----------------------------------------
Total Dipole Moment    :     -0.53219       0.36028       0.48273
                        -----------------------------------------
Magnitude (a.u.)       :      0.80378
Magnitude (Debye)      :      2.04305

Rotational constants in cm-1:     0.017791     0.010146     0.007516
Rotational constants in MHz :   533.356531   304.159723   225.316749

                             ****ORCA TERMINATED NORMALLY****
TOTAL RUN TIME: 0 days 0 hours 0 minutes 32 seconds 169 msec
