                         Program Version 4.2.1 -  RELEASE  -
|  1> ! wB97X-D3 SP def2-SVP
|  2> %pal
|  3> nprocs 16
|  4> end
|  5>
|  6> * xyz 0 1
|  7> S 	 -32.7651 	 63.3081 	 109.11
|  8> C 	 -31.8997 	 64.2733 	 107.813
|  9> C 	 -30.7728 	 64.8925 	 108.386
| 10> C 	 -30.6074 	 64.4285 	 109.78
| 11> C 	 -31.513 	 63.5674 	 110.333
| 12> H 	 -29.6981 	 64.7502 	 110.309
| 13> C 	 -29.7741 	 65.7213 	 107.641
| 14> H 	 -29.5485 	 66.5973 	 108.281
| 15> H 	 -30.297 	 66.1409 	 106.855
| 16> C 	 -28.4865 	 65.0026 	 107.179
| 17> H 	 -27.8352 	 65.7708 	 106.703
| 18> H 	 -27.8849 	 64.4979 	 107.964
| 19> C 	 -28.7781 	 63.9148 	 106.108
| 20> H 	 -27.8411 	 63.512 	 105.598
| 21> H 	 -29.2022 	 62.9849 	 106.441
| 22> H 	 -29.36 	 64.23 	 105.232
| 23> S 	 -33.2044 	 63.157 	 112.445
| 24> C 	 -32.5192 	 62.4368 	 113.929
| 25> C 	 -31.1463 	 62.4532 	 113.852
| 26> C 	 -30.6164 	 62.7004 	 112.556
| 27> C 	 -31.6228 	 63.1285 	 111.693
| 28> H 	 -30.6095 	 62.0137 	 114.617
| 29> C 	 -29.1922 	 62.5116 	 112.31
| 30> H 	 -29.1463 	 62.3845 	 111.234
| 31> H 	 -28.9051 	 61.5696 	 112.815
| 32> C 	 -28.1915 	 63.6186 	 112.796
| 33> H 	 -27.9749 	 63.615 	 113.894
| 34> H 	 -28.7409 	 64.5623 	 112.65
| 35> C 	 -26.8949 	 63.4489 	 112.072
| 36> H 	 -26.4238 	 62.4231 	 112.19
| 37> H 	 -26.2717 	 64.1912 	 112.541
| 38> H 	 -26.9597 	 63.5253 	 110.906
| 39> H 	 -32.1867 	 64.2703 	 106.735
| 40> H 	 -32.9866 	 62.3712 	 114.874
| 41> *
| 42>
| 43>                          ****END OF INPUT****

CARTESIAN COORDINATES (ANGSTROEM)
---------------------------------
  S    -32.765100   63.308100  109.110000
  C    -31.899700   64.273300  107.813000
  C    -30.772800   64.892500  108.386000
  C    -30.607400   64.428500  109.780000
  C    -31.513000   63.567400  110.333000
  H    -29.698100   64.750200  110.309000
  C    -29.774100   65.721300  107.641000
  H    -29.548500   66.597300  108.281000
  H    -30.297000   66.140900  106.855000
  C    -28.486500   65.002600  107.179000
  H    -27.835200   65.770800  106.703000
  H    -27.884900   64.497900  107.964000
  C    -28.778100   63.914800  106.108000
  H    -27.841100   63.512000  105.598000
  H    -29.202200   62.984900  106.441000
  H    -29.360000   64.230000  105.232000
  S    -33.204400   63.157000  112.445000
  C    -32.519200   62.436800  113.929000
  C    -31.146300   62.453200  113.852000
  C    -30.616400   62.700400  112.556000
  C    -31.622800   63.128500  111.693000
  H    -30.609500   62.013700  114.617000
  C    -29.192200   62.511600  112.310000
  H    -29.146300   62.384500  111.234000
  H    -28.905100   61.569600  112.815000
  C    -28.191500   63.618600  112.796000
  H    -27.974900   63.615000  113.894000
  H    -28.740900   64.562300  112.650000
  C    -26.894900   63.448900  112.072000
  H    -26.423800   62.423100  112.190000
  H    -26.271700   64.191200  112.541000
  H    -26.959700   63.525300  110.906000
  H    -32.186700   64.270300  106.735000
  H    -32.986600   62.371200  114.874000

 Total Charge           Charge          ....    0
 Multiplicity           Mult            ....    1
 Number of Electrons    NEL             ....  134
 Basis Dimension        Dim             ....  322

ORBITAL ENERGIES
----------------

  NO   OCC          E(Eh)            E(eV)
   0   2.0000     -88.967035     -2420.9161
   1   2.0000     -88.961444     -2420.7640
   2   2.0000     -10.331390      -281.1314
   3   2.0000     -10.328427      -281.0508
   4   2.0000     -10.328402      -281.0501
   5   2.0000     -10.315145      -280.6894
   6   2.0000     -10.309276      -280.5297
   7   2.0000     -10.301633      -280.3217
   8   2.0000     -10.297927      -280.2209
   9   2.0000     -10.297591      -280.2117
  10   2.0000     -10.295030      -280.1420
  11   2.0000     -10.293446      -280.0989
  12   2.0000     -10.291335      -280.0415
  13   2.0000     -10.289205      -279.9835
  14   2.0000     -10.285321      -279.8778
  15   2.0000     -10.282154      -279.7916
  16   2.0000      -8.081185      -219.9002
  17   2.0000      -8.074883      -219.7287
  18   2.0000      -6.039809      -164.3516
  19   2.0000      -6.035876      -164.2445
  20   2.0000      -6.033767      -164.1871
  21   2.0000      -6.031728      -164.1317
  22   2.0000      -6.029527      -164.0718
  23   2.0000      -6.025331      -163.9576
  24   2.0000      -1.004270       -27.3276
  25   2.0000      -0.975119       -26.5343
  26   2.0000      -0.915056       -24.9000
  27   2.0000      -0.912218       -24.8227
  28   2.0000      -0.868892       -23.6438
  29   2.0000      -0.858263       -23.3545
  30   2.0000      -0.836279       -22.7563
  31   2.0000      -0.815094       -22.1798
  32   2.0000      -0.783057       -21.3081
  33   2.0000      -0.770685       -20.9714
  34   2.0000      -0.712509       -19.3883
  35   2.0000      -0.701136       -19.0789
  36   2.0000      -0.697587       -18.9823
  37   2.0000      -0.666515       -18.1368
  38   2.0000      -0.639016       -17.3885
  39   2.0000      -0.617992       -16.8164
  40   2.0000      -0.595930       -16.2161
  41   2.0000      -0.568550       -15.4710
  42   2.0000      -0.564000       -15.3472
  43   2.0000      -0.545904       -14.8548
  44   2.0000      -0.538753       -14.6602
  45   2.0000      -0.536568       -14.6008
  46   2.0000      -0.521694       -14.1960
  47   2.0000      -0.514119       -13.9899
  48   2.0000      -0.506524       -13.7832
  49   2.0000      -0.497257       -13.5311
  50   2.0000      -0.491503       -13.3745
  51   2.0000      -0.478800       -13.0288
  52   2.0000      -0.470042       -12.7905
  53   2.0000      -0.462406       -12.5827
  54   2.0000      -0.452962       -12.3257
  55   2.0000      -0.444588       -12.0979
  56   2.0000      -0.442905       -12.0521
  57   2.0000      -0.439741       -11.9660
  58   2.0000      -0.431971       -11.7545
  59   2.0000      -0.429246       -11.6804
  60   2.0000      -0.423722       -11.5301
  61   2.0000      -0.411639       -11.2013
  62   2.0000      -0.407497       -11.0886
  63   2.0000      -0.355109        -9.6630
  64   2.0000      -0.329695        -8.9715
  65   2.0000      -0.324542        -8.8312
  66   2.0000      -0.288372        -7.8470
  67   0.0000       0.022411         0.6098
  68   0.0000       0.070740         1.9249
  69   0.0000       0.101119         2.7516
  70   0.0000       0.116014         3.1569
  71   0.0000       0.119482         3.2513

MULLIKEN ATOMIC CHARGES
-----------------------
   0 S :    0.073690
   1 C :   -0.140615
   2 C :   -0.114441
   3 C :    0.008401
   4 C :   -0.125462
   5 H :    0.003546
   6 C :    0.103644
   7 H :    0.035688
   8 H :    0.001744
   9 C :   -0.054935
  10 H :    0.042285
  11 H :    0.045040
  12 C :   -0.090716
  13 H :    0.029007
  14 H :    0.038519
  15 H :    0.025397
  16 S :    0.103223
  17 C :   -0.072743
  18 C :   -0.006714
  19 C :   -0.061078
  20 C :   -0.120018
  21 H :   -0.004302
  22 C :    0.047539
  23 H :    0.024437
  24 H :    0.028628
  25 C :   -0.074596
  26 H :    0.036495
  27 H :    0.039130
  28 C :   -0.072769
  29 H :    0.041330
  30 H :    0.039101
  31 H :    0.047577
  32 H :    0.073688
  33 H :    0.050280
Sum of atomic charges:   -0.0000000

LOEWDIN ATOMIC CHARGES
----------------------
   0 S :    0.353462
   1 C :   -0.175411
   2 C :   -0.059394
   3 C :   -0.068138
   4 C :   -0.188269
   5 H :    0.027216
   6 C :   -0.032909
   7 H :    0.039318
   8 H :    0.023038
   9 C :   -0.036566
  10 H :    0.031938
  11 H :    0.030447
  12 C :   -0.080005
  13 H :    0.032891
  14 H :    0.022751
  15 H :    0.022108
  16 S :    0.392695
  17 C :   -0.169016
  18 C :   -0.055527
  19 C :   -0.059249
  20 C :   -0.191846
  21 H :    0.018546
  22 C :   -0.037721
  23 H :    0.031028
  24 H :    0.035456
  25 C :   -0.043994
  26 H :    0.030799
  27 H :    0.024930
  28 C :   -0.075310
  29 H :    0.033280
  30 H :    0.025876
  31 H :    0.033327
  32 H :    0.039948
  33 H :    0.024301

  Mayer bond orders larger than 0.100000
B(  0-S ,  1-C ) :   1.1168 B(  0-S ,  4-C ) :   1.1111 B(  1-C ,  2-C ) :   1.6146
B(  1-C , 32-H ) :   0.9640 B(  2-C ,  3-C ) :   1.2217 B(  2-C ,  6-C ) :   1.0380
B(  3-C ,  4-C ) :   1.5856 B(  3-C ,  5-H ) :   0.9867 B(  4-C , 20-C ) :   1.0706
B(  6-C ,  7-H ) :   0.9324 B(  6-C ,  8-H ) :   0.9331 B(  6-C ,  9-C ) :   1.0635
B(  9-C , 10-H ) :   0.9552 B(  9-C , 11-H ) :   0.9588 B(  9-C , 12-C ) :   1.0643
B( 12-C , 13-H ) :   0.9728 B( 12-C , 14-H ) :   0.9769 B( 12-C , 15-H ) :   0.9771
B( 16-S , 17-C ) :   1.1289 B( 16-S , 20-C ) :   1.1359 B( 17-C , 18-C ) :   1.6428
B( 17-C , 33-H ) :   0.9650 B( 18-C , 19-C ) :   1.2372 B( 18-C , 21-H ) :   0.9851
B( 19-C , 20-C ) :   1.5748 B( 19-C , 22-C ) :   1.0761 B( 22-C , 23-H ) :   0.9320
B( 22-C , 24-H ) :   0.9181 B( 22-C , 25-C ) :   1.0474 B( 25-C , 26-H ) :   0.9479
B( 25-C , 27-H ) :   0.9561 B( 25-C , 28-C ) :   1.0814 B( 28-C , 29-H ) :   0.9683
B( 28-C , 30-H ) :   0.9726 B( 28-C , 31-H ) :   0.9722

Dispersion correction           -0.014783465
FINAL SINGLE POINT ENERGY     -1339.862903647992

DIPOLE MOMENT
-------------
                                X             Y             Z
Electronic contribution:    -29.55817      -4.05619       8.76059
Nuclear contribution   :     30.44008       4.24661      -8.74033
                        -----------------------------------------
Total Dipole Moment    :      0.88190       0.19042       0.02026
                        -----------------------------------------
Magnitude (a.u.)       :      0.90246
Magnitude (Debye)      :      2.29386

Rotational constants in cm-1:     0.018034     0.009720     0.006736
Rotational constants in MHz :   540.652104   291.396393   201.939712

                             ****ORCA TERMINATED NORMALLY****
TOTAL RUN TIME: 0 days 0 hours 0 minutes 28 seconds 670 msec
