                         Program Version 4.2.1 -  RELEASE  -
|  1> ! wB97X-D3 SP def2-SVP
|  2> %pal
|  3> nprocs 16
|  4> end
|  5>
|  6> * xyz 0 1
|  7> S 	 -75.1073 	 47.9628 	 137.843
|  8> C 	 -75.3051 	 49.1104 	 139.165
|  9> C 	 -74.9821 	 50.4142 	 138.796
| 10> C 	 -74.3662 	 50.471 	 137.526
| 11> C 	 -74.4677 	 49.2633 	 136.865
| 12> H 	 -74.0317 	 51.3661 	 137.06
| 13> C 	 -75.1208 	 51.606 	 139.7
| 14> H 	 -74.5069 	 52.3286 	 139.087
| 15> H 	 -74.6047 	 51.411 	 140.653
| 16> C 	 -76.493 	 52.1628 	 140.026
| 17> H 	 -77.0062 	 52.5025 	 139.117
| 18> H 	 -77.2145 	 51.429 	 140.379
| 19> C 	 -76.5679 	 53.2167 	 141.067
| 20> H 	 -77.5698 	 53.6396 	 141.063
| 21> H 	 -76.3348 	 52.8302 	 142.127
| 22> H 	 -75.8185 	 53.9401 	 140.755
| 23> S 	 -72.4345 	 48.6245 	 135.132
| 24> C 	 -72.7435 	 48.6226 	 133.41
| 25> C 	 -74.067 	 48.9017 	 133.154
| 26> C 	 -74.7944 	 49.0679 	 134.33
| 27> C 	 -74.0543 	 49.0061 	 135.511
| 28> H 	 -74.5384 	 48.912 	 132.171
| 29> C 	 -76.3092 	 49.2772 	 134.298
| 30> H 	 -76.4055 	 50.3999 	 134.376
| 31> H 	 -76.7413 	 48.8195 	 135.219
| 32> C 	 -77.0589 	 48.7804 	 133.039
| 33> H 	 -76.7369 	 47.7226 	 132.97
| 34> H 	 -76.7834 	 49.2672 	 132.122
| 35> C 	 -78.5677 	 48.7778 	 133.239
| 36> H 	 -78.9437 	 49.8237 	 133.182
| 37> H 	 -78.9269 	 48.2911 	 134.126
| 38> H 	 -78.8736 	 48.3289 	 132.293
| 39> H 	 -75.879 	 48.9379 	 140.051
| 40> H 	 -72.0158 	 48.2328 	 132.689
| 41> *
| 42>
| 43>                          ****END OF INPUT****

CARTESIAN COORDINATES (ANGSTROEM)
---------------------------------
  S    -75.107300   47.962800  137.843000
  C    -75.305100   49.110400  139.165000
  C    -74.982100   50.414200  138.796000
  C    -74.366200   50.471000  137.526000
  C    -74.467700   49.263300  136.865000
  H    -74.031700   51.366100  137.060000
  C    -75.120800   51.606000  139.700000
  H    -74.506900   52.328600  139.087000
  H    -74.604700   51.411000  140.653000
  C    -76.493000   52.162800  140.026000
  H    -77.006200   52.502500  139.117000
  H    -77.214500   51.429000  140.379000
  C    -76.567900   53.216700  141.067000
  H    -77.569800   53.639600  141.063000
  H    -76.334800   52.830200  142.127000
  H    -75.818500   53.940100  140.755000
  S    -72.434500   48.624500  135.132000
  C    -72.743500   48.622600  133.410000
  C    -74.067000   48.901700  133.154000
  C    -74.794400   49.067900  134.330000
  C    -74.054300   49.006100  135.511000
  H    -74.538400   48.912000  132.171000
  C    -76.309200   49.277200  134.298000
  H    -76.405500   50.399900  134.376000
  H    -76.741300   48.819500  135.219000
  C    -77.058900   48.780400  133.039000
  H    -76.736900   47.722600  132.970000
  H    -76.783400   49.267200  132.122000
  C    -78.567700   48.777800  133.239000
  H    -78.943700   49.823700  133.182000
  H    -78.926900   48.291100  134.126000
  H    -78.873600   48.328900  132.293000
  H    -75.879000   48.937900  140.051000
  H    -72.015800   48.232800  132.689000

 Total Charge           Charge          ....    0
 Multiplicity           Mult            ....    1
 Number of Electrons    NEL             ....  134
 Basis Dimension        Dim             ....  322

ORBITAL ENERGIES
----------------

  NO   OCC          E(Eh)            E(eV)
   0   2.0000     -88.970683     -2421.0154
   1   2.0000     -88.962330     -2420.7881
   2   2.0000     -10.326142      -280.9886
   3   2.0000     -10.315996      -280.7125
   4   2.0000     -10.314070      -280.6601
   5   2.0000     -10.310133      -280.5530
   6   2.0000     -10.298313      -280.2313
   7   2.0000     -10.296088      -280.1708
   8   2.0000     -10.294155      -280.1182
   9   2.0000     -10.291951      -280.0582
  10   2.0000     -10.291306      -280.0407
  11   2.0000     -10.288514      -279.9647
  12   2.0000     -10.286565      -279.9117
  13   2.0000     -10.282428      -279.7991
  14   2.0000     -10.281865      -279.7838
  15   2.0000     -10.278031      -279.6795
  16   2.0000      -8.084804      -219.9987
  17   2.0000      -8.077800      -219.8081
  18   2.0000      -6.043215      -164.4442
  19   2.0000      -6.039403      -164.3405
  20   2.0000      -6.036113      -164.2510
  21   2.0000      -6.035711      -164.2400
  22   2.0000      -6.032052      -164.1405
  23   2.0000      -6.028879      -164.0541
  24   2.0000      -1.010055       -27.4850
  25   2.0000      -0.986621       -26.8473
  26   2.0000      -0.917580       -24.9686
  27   2.0000      -0.906611       -24.6701
  28   2.0000      -0.872974       -23.7548
  29   2.0000      -0.857278       -23.3277
  30   2.0000      -0.850869       -23.1533
  31   2.0000      -0.815098       -22.1800
  32   2.0000      -0.780200       -21.2303
  33   2.0000      -0.764585       -20.8054
  34   2.0000      -0.702804       -19.1243
  35   2.0000      -0.698752       -19.0140
  36   2.0000      -0.695869       -18.9356
  37   2.0000      -0.652169       -17.7464
  38   2.0000      -0.642640       -17.4871
  39   2.0000      -0.619931       -16.8692
  40   2.0000      -0.596694       -16.2369
  41   2.0000      -0.571928       -15.5629
  42   2.0000      -0.569701       -15.5024
  43   2.0000      -0.561170       -15.2702
  44   2.0000      -0.531627       -14.4663
  45   2.0000      -0.527549       -14.3553
  46   2.0000      -0.516414       -14.0523
  47   2.0000      -0.511643       -13.9225
  48   2.0000      -0.504628       -13.7316
  49   2.0000      -0.500342       -13.6150
  50   2.0000      -0.487817       -13.2742
  51   2.0000      -0.481839       -13.1115
  52   2.0000      -0.473986       -12.8978
  53   2.0000      -0.464229       -12.6323
  54   2.0000      -0.456895       -12.4327
  55   2.0000      -0.449799       -12.2396
  56   2.0000      -0.446055       -12.1378
  57   2.0000      -0.440462       -11.9856
  58   2.0000      -0.437824       -11.9138
  59   2.0000      -0.430659       -11.7188
  60   2.0000      -0.411871       -11.2076
  61   2.0000      -0.410708       -11.1759
  62   2.0000      -0.403798       -10.9879
  63   2.0000      -0.339539        -9.2393
  64   2.0000      -0.333625        -9.0784
  65   2.0000      -0.313990        -8.5441
  66   2.0000      -0.304511        -8.2862
  67   0.0000       0.043782         1.1914
  68   0.0000       0.052686         1.4337
  69   0.0000       0.112260         3.0547
  70   0.0000       0.124675         3.3926
  71   0.0000       0.133729         3.6390

MULLIKEN ATOMIC CHARGES
-----------------------
   0 S :    0.127342
   1 C :   -0.103137
   2 C :   -0.102565
   3 C :    0.065608
   4 C :   -0.191467
   5 H :    0.007289
   6 C :    0.053789
   7 H :    0.023491
   8 H :    0.039033
   9 C :   -0.068977
  10 H :    0.021531
  11 H :    0.016173
  12 C :   -0.054194
  13 H :    0.039758
  14 H :    0.043302
  15 H :    0.028024
  16 S :    0.121827
  17 C :   -0.106248
  18 C :   -0.029540
  19 C :   -0.046123
  20 C :   -0.179596
  21 H :    0.020651
  22 C :    0.067884
  23 H :    0.038904
  24 H :    0.029243
  25 C :   -0.122902
  26 H :    0.033392
  27 H :    0.033407
  28 C :   -0.014203
  29 H :    0.029815
  30 H :    0.042013
  31 H :    0.029837
  32 H :    0.039761
  33 H :    0.066876
Sum of atomic charges:   -0.0000000

LOEWDIN ATOMIC CHARGES
----------------------
   0 S :    0.413589
   1 C :   -0.195321
   2 C :   -0.061769
   3 C :   -0.051896
   4 C :   -0.192765
   5 H :    0.030392
   6 C :   -0.037203
   7 H :    0.036892
   8 H :    0.036293
   9 C :   -0.054032
  10 H :    0.025832
  11 H :    0.021609
  12 C :   -0.065464
  13 H :    0.029710
  14 H :    0.031868
  15 H :    0.022787
  16 S :    0.433177
  17 C :   -0.189573
  18 C :   -0.078625
  19 C :   -0.059768
  20 C :   -0.236573
  21 H :    0.034987
  22 C :   -0.038817
  23 H :    0.037240
  24 H :    0.030255
  25 C :   -0.046616
  26 H :    0.026977
  27 H :    0.019614
  28 C :   -0.059157
  29 H :    0.027825
  30 H :    0.024333
  31 H :    0.029949
  32 H :    0.021545
  33 H :    0.032705

  Mayer bond orders larger than 0.100000
B(  0-S ,  1-C ) :   1.1373 B(  0-S ,  4-C ) :   1.1648 B(  1-C ,  2-C ) :   1.6125
B(  1-C ,  4-C ) :   0.1022 B(  1-C , 32-H ) :   0.9651 B(  2-C ,  3-C ) :   1.2582
B(  2-C ,  6-C ) :   1.0131 B(  3-C ,  4-C ) :   1.5842 B(  3-C ,  5-H ) :   0.9894
B(  4-C , 20-C ) :   1.0082 B(  6-C ,  7-H ) :   0.9356 B(  6-C ,  8-H ) :   0.9404
B(  6-C ,  9-C ) :   1.0631 B(  9-C , 10-H ) :   0.9473 B(  9-C , 11-H ) :   0.9529
B(  9-C , 12-C ) :   1.0918 B( 12-C , 13-H ) :   0.9705 B( 12-C , 14-H ) :   0.9724
B( 12-C , 15-H ) :   0.9743 B( 16-S , 17-C ) :   1.1882 B( 16-S , 20-C ) :   1.1640
B( 17-C , 18-C ) :   1.5380 B( 17-C , 20-C ) :   0.1083 B( 17-C , 33-H ) :   0.9644
B( 18-C , 19-C ) :   1.3170 B( 18-C , 21-H ) :   0.9848 B( 19-C , 20-C ) :   1.5616
B( 19-C , 22-C ) :   1.0264 B( 22-C , 23-H ) :   0.9218 B( 22-C , 24-H ) :   0.9370
B( 22-C , 25-C ) :   1.0714 B( 25-C , 26-H ) :   0.9594 B( 25-C , 27-H ) :   0.9445
B( 25-C , 28-C ) :   1.0884 B( 28-C , 29-H ) :   0.9729 B( 28-C , 30-H ) :   0.9750
B( 28-C , 31-H ) :   0.9722

Dispersion correction           -0.013580578
FINAL SINGLE POINT ENERGY     -1339.879188849425

DIPOLE MOMENT
-------------
                                X             Y             Z
Electronic contribution:     20.87576     -15.30012      -3.00919
Nuclear contribution   :    -21.37452      15.64128       2.88394
                        -----------------------------------------
Total Dipole Moment    :     -0.49876       0.34116      -0.12525
                        -----------------------------------------
Magnitude (a.u.)       :      0.61712
Magnitude (Debye)      :      1.56860

Rotational constants in cm-1:     0.018713     0.007541     0.006306
Rotational constants in MHz :   560.993187   226.059792   189.045200

                             ****ORCA TERMINATED NORMALLY****
TOTAL RUN TIME: 0 days 0 hours 0 minutes 33 seconds 547 msec
