                         Program Version 4.2.1 -  RELEASE  -
|  1> ! wB97X-D3 SP def2-SVP
|  2> %pal
|  3> nprocs 16
|  4> end
|  5>
|  6> * xyz 0 1
|  7> S 	 -12.9024 	 57.1726 	 58.0765
|  8> C 	 -11.9202 	 56.4657 	 56.8173
|  9> C 	 -10.577 	 56.4472 	 57.0385
| 10> C 	 -10.2721 	 57.1445 	 58.2738
| 11> C 	 -11.4048 	 57.7578 	 58.8493
| 12> H 	 -9.26483 	 57.4304 	 58.7362
| 13> C 	 -9.60536 	 55.9231 	 56.0421
| 14> H 	 -8.60374 	 56.3893 	 56.1817
| 15> H 	 -9.86379 	 56.2623 	 55.0382
| 16> C 	 -9.35838 	 54.4355 	 56.1635
| 17> H 	 -8.50225 	 54.1244 	 55.5266
| 18> H 	 -9.00165 	 54.2531 	 57.2095
| 19> C 	 -10.4865 	 53.4921 	 55.8019
| 20> H 	 -10.7541 	 53.6104 	 54.7833
| 21> H 	 -10.3497 	 52.4343 	 55.8372
| 22> H 	 -11.3206 	 53.8021 	 56.398
| 23> S 	 -12.3592 	 58.0211 	 61.4113
| 24> C 	 -11.9941 	 59.4688 	 62.2651
| 25> C 	 -11.118 	 60.22 	 61.6017
| 26> C 	 -10.7355 	 59.7 	 60.3553
| 27> C 	 -11.4771 	 58.6564 	 60.0392
| 28> H 	 -10.6504 	 61.1896 	 61.9282
| 29> C 	 -9.76373 	 60.4195 	 59.4715
| 30> H 	 -10.2834 	 61.2843 	 59.0207
| 31> H 	 -9.49375 	 59.793 	 58.5602
| 32> C 	 -8.47213 	 60.8906 	 60.2545
| 33> H 	 -8.57205 	 61.6879 	 60.9584
| 34> H 	 -7.79743 	 61.2942 	 59.4931
| 35> C 	 -7.63887 	 59.7961 	 60.9626
| 36> H 	 -6.73942 	 60.1793 	 61.2499
| 37> H 	 -7.49116 	 58.8917 	 60.4222
| 38> H 	 -8.19991 	 59.5078 	 61.8215
| 39> H 	 -12.2449 	 56.0272 	 55.9032
| 40> H 	 -12.3233 	 59.782 	 63.2892
| 41> *
| 42>
| 43>                          ****END OF INPUT****

CARTESIAN COORDINATES (ANGSTROEM)
---------------------------------
  S    -12.902400   57.172600   58.076500
  C    -11.920200   56.465700   56.817300
  C    -10.577000   56.447200   57.038500
  C    -10.272100   57.144500   58.273800
  C    -11.404800   57.757800   58.849300
  H     -9.264830   57.430400   58.736200
  C     -9.605360   55.923100   56.042100
  H     -8.603740   56.389300   56.181700
  H     -9.863790   56.262300   55.038200
  C     -9.358380   54.435500   56.163500
  H     -8.502250   54.124400   55.526600
  H     -9.001650   54.253100   57.209500
  C    -10.486500   53.492100   55.801900
  H    -10.754100   53.610400   54.783300
  H    -10.349700   52.434300   55.837200
  H    -11.320600   53.802100   56.398000
  S    -12.359200   58.021100   61.411300
  C    -11.994100   59.468800   62.265100
  C    -11.118000   60.220000   61.601700
  C    -10.735500   59.700000   60.355300
  C    -11.477100   58.656400   60.039200
  H    -10.650400   61.189600   61.928200
  C     -9.763730   60.419500   59.471500
  H    -10.283400   61.284300   59.020700
  H     -9.493750   59.793000   58.560200
  C     -8.472130   60.890600   60.254500
  H     -8.572050   61.687900   60.958400
  H     -7.797430   61.294200   59.493100
  C     -7.638870   59.796100   60.962600
  H     -6.739420   60.179300   61.249900
  H     -7.491160   58.891700   60.422200
  H     -8.199910   59.507800   61.821500
  H    -12.244900   56.027200   55.903200
  H    -12.323300   59.782000   63.289200

 Total Charge           Charge          ....    0
 Multiplicity           Mult            ....    1
 Number of Electrons    NEL             ....  134
 Basis Dimension        Dim             ....  322

ORBITAL ENERGIES
----------------

  NO   OCC          E(Eh)            E(eV)
   0   2.0000     -88.968259     -2420.9494
   1   2.0000     -88.962570     -2420.7946
   2   2.0000     -10.333895      -281.1996
   3   2.0000     -10.318216      -280.7729
   4   2.0000     -10.312850      -280.6269
   5   2.0000     -10.308074      -280.4970
   6   2.0000     -10.306317      -280.4491
   7   2.0000     -10.300411      -280.2884
   8   2.0000     -10.300388      -280.2878
   9   2.0000     -10.294531      -280.1284
  10   2.0000     -10.290280      -280.0128
  11   2.0000     -10.289484      -279.9911
  12   2.0000     -10.288125      -279.9541
  13   2.0000     -10.286509      -279.9101
  14   2.0000     -10.265663      -279.3429
  15   2.0000     -10.265217      -279.3308
  16   2.0000      -8.082411      -219.9336
  17   2.0000      -8.078284      -219.8213
  18   2.0000      -6.040911      -164.3815
  19   2.0000      -6.037176      -164.2799
  20   2.0000      -6.036872      -164.2716
  21   2.0000      -6.033048      -164.1676
  22   2.0000      -6.032915      -164.1640
  23   2.0000      -6.028630      -164.0474
  24   2.0000      -1.015923       -27.6447
  25   2.0000      -0.987463       -26.8702
  26   2.0000      -0.916669       -24.9438
  27   2.0000      -0.907396       -24.6915
  28   2.0000      -0.868247       -23.6262
  29   2.0000      -0.855599       -23.2820
  30   2.0000      -0.845567       -23.0091
  31   2.0000      -0.813756       -22.1434
  32   2.0000      -0.789313       -21.4783
  33   2.0000      -0.781432       -21.2639
  34   2.0000      -0.708656       -19.2835
  35   2.0000      -0.699188       -19.0259
  36   2.0000      -0.692522       -18.8445
  37   2.0000      -0.660811       -17.9816
  38   2.0000      -0.637806       -17.3556
  39   2.0000      -0.610549       -16.6139
  40   2.0000      -0.598774       -16.2935
  41   2.0000      -0.575567       -15.6620
  42   2.0000      -0.556992       -15.1565
  43   2.0000      -0.545228       -14.8364
  44   2.0000      -0.542309       -14.7570
  45   2.0000      -0.538678       -14.6582
  46   2.0000      -0.517664       -14.0863
  47   2.0000      -0.508068       -13.8252
  48   2.0000      -0.503279       -13.6949
  49   2.0000      -0.494612       -13.4591
  50   2.0000      -0.489691       -13.3252
  51   2.0000      -0.484684       -13.1889
  52   2.0000      -0.474822       -12.9206
  53   2.0000      -0.468201       -12.7404
  54   2.0000      -0.458880       -12.4868
  55   2.0000      -0.448087       -12.1931
  56   2.0000      -0.442771       -12.0484
  57   2.0000      -0.440170       -11.9776
  58   2.0000      -0.436500       -11.8778
  59   2.0000      -0.428152       -11.6506
  60   2.0000      -0.420284       -11.4365
  61   2.0000      -0.412632       -11.2283
  62   2.0000      -0.412097       -11.2137
  63   2.0000      -0.345928        -9.4132
  64   2.0000      -0.332822        -9.0565
  65   2.0000      -0.330716        -8.9993
  66   2.0000      -0.296774        -8.0756
  67   0.0000       0.035051         0.9538
  68   0.0000       0.069177         1.8824
  69   0.0000       0.108856         2.9621
  70   0.0000       0.119564         3.2535
  71   0.0000       0.126733         3.4486

MULLIKEN ATOMIC CHARGES
-----------------------
   0 S :    0.115258
   1 C :   -0.078945
   2 C :   -0.103755
   3 C :    0.027470
   4 C :   -0.202307
   5 H :    0.040715
   6 C :    0.058146
   7 H :    0.025772
   8 H :    0.031033
   9 C :   -0.080254
  10 H :    0.027234
  11 H :    0.031214
  12 C :   -0.019640
  13 H :    0.005958
  14 H :    0.031134
  15 H :    0.027848
  16 S :    0.106718
  17 C :   -0.077700
  18 C :   -0.042116
  19 C :   -0.043483
  20 C :   -0.144866
  21 H :    0.024937
  22 C :    0.056465
  23 H :    0.048843
  24 H :    0.034939
  25 C :   -0.110493
  26 H :    0.027797
  27 H :    0.025857
  28 C :    0.008901
  29 H :    0.013803
  30 H :    0.019225
  31 H :    0.023360
  32 H :    0.026882
  33 H :    0.064048
Sum of atomic charges:   -0.0000000

LOEWDIN ATOMIC CHARGES
----------------------
   0 S :    0.391648
   1 C :   -0.189326
   2 C :   -0.067114
   3 C :   -0.066906
   4 C :   -0.182121
   5 H :    0.042306
   6 C :   -0.035036
   7 H :    0.038791
   8 H :    0.031527
   9 C :   -0.042338
  10 H :    0.024000
  11 H :    0.028526
  12 C :   -0.068000
  13 H :    0.018658
  14 H :    0.026583
  15 H :    0.022216
  16 S :    0.406529
  17 C :   -0.195416
  18 C :   -0.077906
  19 C :   -0.071664
  20 C :   -0.196508
  21 H :    0.038248
  22 C :   -0.031004
  23 H :    0.040175
  24 H :    0.038191
  25 C :   -0.038871
  26 H :    0.018512
  27 H :    0.025369
  28 C :   -0.051066
  29 H :    0.014987
  30 H :    0.020232
  31 H :    0.023710
  32 H :    0.020868
  33 H :    0.042201

  Mayer bond orders larger than 0.100000
B(  0-S ,  1-C ) :   1.1244 B(  0-S ,  4-C ) :   1.1419 B(  1-C ,  2-C ) :   1.6582
B(  1-C , 32-H ) :   0.9574 B(  2-C ,  3-C ) :   1.2098 B(  2-C ,  6-C ) :   1.0174
B(  3-C ,  4-C ) :   1.6051 B(  3-C ,  5-H ) :   0.9747 B(  4-C , 20-C ) :   0.9941
B(  6-C ,  7-H ) :   0.9357 B(  6-C ,  8-H ) :   0.9458 B(  6-C ,  9-C ) :   1.0735
B(  9-C , 10-H ) :   0.9556 B(  9-C , 11-H ) :   0.9523 B(  9-C , 12-C ) :   1.0802
B( 12-C , 13-H ) :   0.9690 B( 12-C , 14-H ) :   0.9719 B( 12-C , 15-H ) :   0.9709
B( 16-S , 17-C ) :   1.1337 B( 16-S , 20-C ) :   1.1344 B( 17-C , 18-C ) :   1.6428
B( 17-C , 33-H ) :   0.9579 B( 18-C , 19-C ) :   1.2201 B( 18-C , 21-H ) :   0.9791
B( 19-C , 20-C ) :   1.6708 B( 19-C , 22-C ) :   1.0434 B( 22-C , 23-H ) :   0.9371
B( 22-C , 24-H ) :   0.9355 B( 22-C , 25-C ) :   1.0565 B( 25-C , 26-H ) :   0.9569
B( 25-C , 27-H ) :   0.9585 B( 25-C , 28-C ) :   1.0786 B( 28-C , 29-H ) :   0.9712
B( 28-C , 30-H ) :   0.9749 B( 28-C , 31-H ) :   0.9702

Dispersion correction           -0.014817082
FINAL SINGLE POINT ENERGY     -1339.864123484472

DIPOLE MOMENT
-------------
                                X             Y             Z
Electronic contribution:    -22.13800       2.81899       9.77557
Nuclear contribution   :     22.81926      -2.55670      -9.97618
                        -----------------------------------------
Total Dipole Moment    :      0.68126       0.26229      -0.20061
                        -----------------------------------------
Magnitude (a.u.)       :      0.75707
Magnitude (Debye)      :      1.92433

Rotational constants in cm-1:     0.021795     0.008131     0.006601
Rotational constants in MHz :   653.385567   243.764796   197.880201

                             ****ORCA TERMINATED NORMALLY****
TOTAL RUN TIME: 0 days 0 hours 0 minutes 34 seconds 27 msec
