                         Program Version 4.2.1 -  RELEASE  -
|  1> ! wB97X-D3 SP def2-SVP
|  2> %pal
|  3> nprocs 16
|  4> end
|  5>
|  6> * xyz 0 1
|  7> S 	 -50.355 	 6.95848 	 93.539
|  8> C 	 -50.6332 	 6.97529 	 95.2803
|  9> C 	 -50.9986 	 8.25884 	 95.6779
| 10> C 	 -51.2124 	 9.1567 	 94.6055
| 11> C 	 -50.8702 	 8.61073 	 93.3569
| 12> H 	 -51.4154 	 10.1873 	 94.6388
| 13> C 	 -51.2851 	 8.60115 	 97.1531
| 14> H 	 -52.3629 	 8.6108 	 97.2944
| 15> H 	 -50.8973 	 9.55387 	 97.378
| 16> C 	 -50.5906 	 7.58736 	 98.1754
| 17> H 	 -50.9037 	 7.89201 	 99.1704
| 18> H 	 -50.9336 	 6.60691 	 97.9352
| 19> C 	 -49.0069 	 7.5215 	 98.1567
| 20> H 	 -48.4876 	 6.84984 	 98.8351
| 21> H 	 -48.5777 	 7.34189 	 97.166
| 22> H 	 -48.6138 	 8.49541 	 98.5027
| 23> S 	 -49.6107 	 9.01145 	 90.9715
| 24> C 	 -50.0979 	 10.2402 	 89.865
| 25> C 	 -51.3835 	 10.6888 	 90.189
| 26> C 	 -51.8166 	 10.2309 	 91.4574
| 27> C 	 -50.9342 	 9.33488 	 92.083
| 28> H 	 -51.9375 	 11.335 	 89.5168
| 29> C 	 -53.146 	 10.6686 	 91.9303
| 30> H 	 -53.337 	 10.355 	 92.9582
| 31> H 	 -53.9079 	 10.2135 	 91.3212
| 32> C 	 -53.4149 	 12.2331 	 91.9298
| 33> H 	 -54.4087 	 12.3934 	 92.3123
| 34> H 	 -53.47 	 12.5567 	 90.9001
| 35> C 	 -52.3491 	 12.9665 	 92.5871
| 36> H 	 -52.5603 	 14.0271 	 92.6386
| 37> H 	 -51.4074 	 12.8072 	 91.9075
| 38> H 	 -52.0918 	 12.5204 	 93.5479
| 39> H 	 -50.6773 	 6.07043 	 95.867
| 40> H 	 -49.6008 	 10.3702 	 88.8999
| 41> *
| 42>
| 43>                          ****END OF INPUT****

CARTESIAN COORDINATES (ANGSTROEM)
---------------------------------
  S    -50.355000    6.958480   93.539000
  C    -50.633200    6.975290   95.280300
  C    -50.998600    8.258840   95.677900
  C    -51.212400    9.156700   94.605500
  C    -50.870200    8.610730   93.356900
  H    -51.415400   10.187300   94.638800
  C    -51.285100    8.601150   97.153100
  H    -52.362900    8.610800   97.294400
  H    -50.897300    9.553870   97.378000
  C    -50.590600    7.587360   98.175400
  H    -50.903700    7.892010   99.170400
  H    -50.933600    6.606910   97.935200
  C    -49.006900    7.521500   98.156700
  H    -48.487600    6.849840   98.835100
  H    -48.577700    7.341890   97.166000
  H    -48.613800    8.495410   98.502700
  S    -49.610700    9.011450   90.971500
  C    -50.097900   10.240200   89.865000
  C    -51.383500   10.688800   90.189000
  C    -51.816600   10.230900   91.457400
  C    -50.934200    9.334880   92.083000
  H    -51.937500   11.335000   89.516800
  C    -53.146000   10.668600   91.930300
  H    -53.337000   10.355000   92.958200
  H    -53.907900   10.213500   91.321200
  C    -53.414900   12.233100   91.929800
  H    -54.408700   12.393400   92.312300
  H    -53.470000   12.556700   90.900100
  C    -52.349100   12.966500   92.587100
  H    -52.560300   14.027100   92.638600
  H    -51.407400   12.807200   91.907500
  H    -52.091800   12.520400   93.547900
  H    -50.677300    6.070430   95.867000
  H    -49.600800   10.370200   88.899900

 Total Charge           Charge          ....    0
 Multiplicity           Mult            ....    1
 Number of Electrons    NEL             ....  134
 Basis Dimension        Dim             ....  322

ORBITAL ENERGIES
----------------

  NO   OCC          E(Eh)            E(eV)
   0   2.0000     -88.968602     -2420.9587
   1   2.0000     -88.963922     -2420.8314
   2   2.0000     -10.334874      -281.2262
   3   2.0000     -10.332296      -281.1561
   4   2.0000     -10.320242      -280.8281
   5   2.0000     -10.315315      -280.6940
   6   2.0000     -10.305035      -280.4143
   7   2.0000     -10.304673      -280.4044
   8   2.0000     -10.296576      -280.1841
   9   2.0000     -10.295198      -280.1466
  10   2.0000     -10.293926      -280.1120
  11   2.0000     -10.291569      -280.0478
  12   2.0000     -10.286948      -279.9221
  13   2.0000     -10.280237      -279.7395
  14   2.0000     -10.278982      -279.7053
  15   2.0000     -10.276421      -279.6356
  16   2.0000      -8.083084      -219.9519
  17   2.0000      -8.079286      -219.8486
  18   2.0000      -6.041572      -164.3995
  19   2.0000      -6.037668      -164.2933
  20   2.0000      -6.037569      -164.2906
  21   2.0000      -6.033935      -164.1917
  22   2.0000      -6.033688      -164.1850
  23   2.0000      -6.030153      -164.0888
  24   2.0000      -1.007707       -27.4211
  25   2.0000      -0.985847       -26.8262
  26   2.0000      -0.916915       -24.9505
  27   2.0000      -0.902874       -24.5685
  28   2.0000      -0.864213       -23.5164
  29   2.0000      -0.855383       -23.2761
  30   2.0000      -0.845229       -22.9999
  31   2.0000      -0.810863       -22.0647
  32   2.0000      -0.782794       -21.3009
  33   2.0000      -0.773419       -21.0458
  34   2.0000      -0.709540       -19.3076
  35   2.0000      -0.703288       -19.1374
  36   2.0000      -0.690783       -18.7972
  37   2.0000      -0.662828       -18.0365
  38   2.0000      -0.643360       -17.5067
  39   2.0000      -0.612916       -16.6783
  40   2.0000      -0.596921       -16.2431
  41   2.0000      -0.577849       -15.7241
  42   2.0000      -0.561381       -15.2760
  43   2.0000      -0.551497       -15.0070
  44   2.0000      -0.543210       -14.7815
  45   2.0000      -0.534081       -14.5331
  46   2.0000      -0.519751       -14.1431
  47   2.0000      -0.516884       -14.0651
  48   2.0000      -0.502870       -13.6838
  49   2.0000      -0.495986       -13.4965
  50   2.0000      -0.490128       -13.3371
  51   2.0000      -0.483338       -13.1523
  52   2.0000      -0.469276       -12.7696
  53   2.0000      -0.465494       -12.6667
  54   2.0000      -0.458954       -12.4888
  55   2.0000      -0.448307       -12.1991
  56   2.0000      -0.446402       -12.1472
  57   2.0000      -0.441507       -12.0140
  58   2.0000      -0.432010       -11.7556
  59   2.0000      -0.423337       -11.5196
  60   2.0000      -0.415805       -11.3146
  61   2.0000      -0.411970       -11.2103
  62   2.0000      -0.409584       -11.1454
  63   2.0000      -0.353581        -9.6214
  64   2.0000      -0.334078        -9.0907
  65   2.0000      -0.327957        -8.9242
  66   2.0000      -0.284919        -7.7531
  67   0.0000       0.023627         0.6429
  68   0.0000       0.067598         1.8394
  69   0.0000       0.110716         3.0127
  70   0.0000       0.118027         3.2117
  71   0.0000       0.132467         3.6046

MULLIKEN ATOMIC CHARGES
-----------------------
   0 S :    0.114965
   1 C :   -0.142354
   2 C :   -0.089734
   3 C :    0.032986
   4 C :   -0.123598
   5 H :   -0.011671
   6 C :    0.095344
   7 H :    0.048642
   8 H :    0.016857
   9 C :   -0.074948
  10 H :    0.032191
  11 H :    0.021423
  12 C :   -0.073151
  13 H :    0.033812
  14 H :    0.044818
  15 H :    0.020869
  16 S :    0.094084
  17 C :   -0.092856
  18 C :   -0.042490
  19 C :   -0.057243
  20 C :   -0.148696
  21 H :    0.024364
  22 C :    0.065772
  23 H :    0.014945
  24 H :    0.036081
  25 C :   -0.076005
  26 H :    0.022826
  27 H :    0.014289
  28 C :   -0.044876
  29 H :    0.039889
  30 H :    0.048747
  31 H :    0.025302
  32 H :    0.059421
  33 H :    0.069993
Sum of atomic charges:    0.0000000

LOEWDIN ATOMIC CHARGES
----------------------
   0 S :    0.408884
   1 C :   -0.200870
   2 C :   -0.057820
   3 C :   -0.065610
   4 C :   -0.190136
   5 H :    0.022305
   6 C :   -0.018954
   7 H :    0.036531
   8 H :    0.022148
   9 C :   -0.031027
  10 H :    0.025133
  11 H :    0.012827
  12 C :   -0.075119
  13 H :    0.026101
  14 H :    0.025883
  15 H :    0.024429
  16 S :    0.415060
  17 C :   -0.192700
  18 C :   -0.069740
  19 C :   -0.063393
  20 C :   -0.192499
  21 H :    0.032380
  22 C :   -0.029315
  23 H :    0.026492
  24 H :    0.034259
  25 C :   -0.041940
  26 H :    0.020148
  27 H :    0.016621
  28 C :   -0.070211
  29 H :    0.025923
  30 H :    0.042207
  31 H :    0.020226
  32 H :    0.029104
  33 H :    0.032673

  Mayer bond orders larger than 0.100000
B(  0-S ,  1-C ) :   1.1295 B(  0-S ,  4-C ) :   1.1699 B(  1-C ,  2-C ) :   1.5868
B(  1-C ,  4-C ) :   0.1034 B(  1-C , 32-H ) :   0.9696 B(  2-C ,  3-C ) :   1.2681
B(  2-C ,  6-C ) :   1.0037 B(  3-C ,  4-C ) :   1.5398 B(  3-C ,  5-H ) :   1.0052
B(  4-C , 20-C ) :   1.0538 B(  6-C ,  7-H ) :   0.9404 B(  6-C ,  8-H ) :   0.9431
B(  6-C ,  9-C ) :   1.0766 B(  9-C , 10-H ) :   0.9596 B(  9-C , 11-H ) :   0.9561
B(  9-C , 12-C ) :   1.0638 B( 12-C , 13-H ) :   0.9781 B( 12-C , 14-H ) :   0.9764
B( 12-C , 15-H ) :   0.9756 B( 16-S , 17-C ) :   1.1810 B( 16-S , 20-C ) :   1.1463
B( 17-C , 18-C ) :   1.5608 B( 17-C , 20-C ) :   0.1064 B( 17-C , 33-H ) :   0.9658
B( 18-C , 19-C ) :   1.2633 B( 18-C , 21-H ) :   0.9928 B( 19-C , 20-C ) :   1.5509
B( 19-C , 22-C ) :   1.0539 B( 22-C , 23-H ) :   0.9377 B( 22-C , 24-H ) :   0.9316
B( 22-C , 25-C ) :   1.0681 B( 25-C , 26-H ) :   0.9545 B( 25-C , 27-H ) :   0.9477
B( 25-C , 28-C ) :   1.0930 B( 28-C , 29-H ) :   0.9683 B( 28-C , 30-H ) :   0.9571
B( 28-C , 31-H ) :   0.9734

Dispersion correction           -0.014638969
FINAL SINGLE POINT ENERGY     -1339.877580878064

DIPOLE MOMENT
-------------
                                X             Y             Z
Electronic contribution:      7.58134     -12.44853     -17.94579
Nuclear contribution   :     -8.03090      12.81186      18.13829
                        -----------------------------------------
Total Dipole Moment    :     -0.44956       0.36332       0.19250
                        -----------------------------------------
Magnitude (a.u.)       :      0.60923
Magnitude (Debye)      :      1.54854

Rotational constants in cm-1:     0.022580     0.007864     0.006383
Rotational constants in MHz :   676.922868   235.764723   191.364577

                             ****ORCA TERMINATED NORMALLY****
TOTAL RUN TIME: 0 days 0 hours 0 minutes 30 seconds 429 msec
