                         Program Version 4.2.1 -  RELEASE  -
|  1> ! wB97X-D3 SP def2-SVP
|  2> %pal
|  3> nprocs 16
|  4> end
|  5>
|  6> * xyz 0 1
|  7> S 	 -40.4835 	 52.3026 	 102.112
|  8> C 	 -39.0619 	 52.1134 	 103.167
|  9> C 	 -39.2158 	 53.1438 	 104.129
| 10> C 	 -40.2821 	 54.0291 	 103.887
| 11> C 	 -41.1 	 53.7113 	 102.861
| 12> H 	 -40.5498 	 54.9268 	 104.369
| 13> C 	 -38.244 	 53.4208 	 105.223
| 14> H 	 -38.3282 	 54.5113 	 105.515
| 15> H 	 -37.2028 	 53.1468 	 104.836
| 16> C 	 -38.4237 	 52.67 	 106.528
| 17> H 	 -37.5673 	 53.0115 	 107.174
| 18> H 	 -39.3769 	 52.8865 	 106.894
| 19> C 	 -38.4381 	 51.1354 	 106.355
| 20> H 	 -38.4182 	 50.7205 	 107.348
| 21> H 	 -39.331 	 50.6919 	 105.849
| 22> H 	 -37.6762 	 50.6555 	 105.749
| 23> S 	 -43.513 	 53.307 	 101.693
| 24> C 	 -44.5745 	 54.6357 	 101.427
| 25> C 	 -43.9791 	 55.7792 	 101.846
| 26> C 	 -42.6266 	 55.6655 	 102.389
| 27> C 	 -42.2639 	 54.3835 	 102.356
| 28> H 	 -44.4412 	 56.7567 	 101.746
| 29> C 	 -41.7397 	 56.9154 	 102.687
| 30> H 	 -41.8874 	 57.7531 	 102.065
| 31> H 	 -40.746 	 56.4598 	 102.588
| 32> C 	 -41.936 	 57.5523 	 104.134
| 33> H 	 -41.5008 	 56.9412 	 104.894
| 34> H 	 -43.0125 	 57.5576 	 104.346
| 35> C 	 -41.4245 	 58.954 	 104.439
| 36> H 	 -41.8876 	 59.1578 	 105.418
| 37> H 	 -41.6114 	 59.7236 	 103.676
| 38> H 	 -40.3895 	 59.03 	 104.676
| 39> H 	 -38.2638 	 51.3875 	 103.055
| 40> H 	 -45.5417 	 54.5734 	 101.001
| 41> *
| 42>
| 43>                          ****END OF INPUT****

CARTESIAN COORDINATES (ANGSTROEM)
---------------------------------
  S    -40.483500   52.302600  102.112000
  C    -39.061900   52.113400  103.167000
  C    -39.215800   53.143800  104.129000
  C    -40.282100   54.029100  103.887000
  C    -41.100000   53.711300  102.861000
  H    -40.549800   54.926800  104.369000
  C    -38.244000   53.420800  105.223000
  H    -38.328200   54.511300  105.515000
  H    -37.202800   53.146800  104.836000
  C    -38.423700   52.670000  106.528000
  H    -37.567300   53.011500  107.174000
  H    -39.376900   52.886500  106.894000
  C    -38.438100   51.135400  106.355000
  H    -38.418200   50.720500  107.348000
  H    -39.331000   50.691900  105.849000
  H    -37.676200   50.655500  105.749000
  S    -43.513000   53.307000  101.693000
  C    -44.574500   54.635700  101.427000
  C    -43.979100   55.779200  101.846000
  C    -42.626600   55.665500  102.389000
  C    -42.263900   54.383500  102.356000
  H    -44.441200   56.756700  101.746000
  C    -41.739700   56.915400  102.687000
  H    -41.887400   57.753100  102.065000
  H    -40.746000   56.459800  102.588000
  C    -41.936000   57.552300  104.134000
  H    -41.500800   56.941200  104.894000
  H    -43.012500   57.557600  104.346000
  C    -41.424500   58.954000  104.439000
  H    -41.887600   59.157800  105.418000
  H    -41.611400   59.723600  103.676000
  H    -40.389500   59.030000  104.676000
  H    -38.263800   51.387500  103.055000
  H    -45.541700   54.573400  101.001000

 Total Charge           Charge          ....    0
 Multiplicity           Mult            ....    1
 Number of Electrons    NEL             ....  134
 Basis Dimension        Dim             ....  322

ORBITAL ENERGIES
----------------

  NO   OCC          E(Eh)            E(eV)
   0   2.0000     -88.963002     -2420.8064
   1   2.0000     -88.961998     -2420.7790
   2   2.0000     -10.326096      -280.9874
   3   2.0000     -10.322616      -280.8927
   4   2.0000     -10.322419      -280.8873
   5   2.0000     -10.313527      -280.6453
   6   2.0000     -10.305104      -280.4161
   7   2.0000     -10.302945      -280.3574
   8   2.0000     -10.300922      -280.3023
   9   2.0000     -10.293913      -280.1116
  10   2.0000     -10.293119      -280.0900
  11   2.0000     -10.290642      -280.0226
  12   2.0000     -10.285757      -279.8897
  13   2.0000     -10.284540      -279.8566
  14   2.0000     -10.281242      -279.7668
  15   2.0000     -10.274193      -279.5750
  16   2.0000      -8.078419      -219.8250
  17   2.0000      -8.077046      -219.7876
  18   2.0000      -6.037101      -164.2779
  19   2.0000      -6.035528      -164.2351
  20   2.0000      -6.032915      -164.1640
  21   2.0000      -6.031275      -164.1193
  22   2.0000      -6.028844      -164.0532
  23   2.0000      -6.028010      -164.0305
  24   2.0000      -1.016541       -27.6615
  25   2.0000      -0.989629       -26.9292
  26   2.0000      -0.915504       -24.9121
  27   2.0000      -0.906166       -24.6580
  28   2.0000      -0.874540       -23.7974
  29   2.0000      -0.857050       -23.3215
  30   2.0000      -0.843330       -22.9482
  31   2.0000      -0.816902       -22.2290
  32   2.0000      -0.788527       -21.4569
  33   2.0000      -0.777528       -21.1576
  34   2.0000      -0.709256       -19.2998
  35   2.0000      -0.699457       -19.0332
  36   2.0000      -0.699233       -19.0271
  37   2.0000      -0.666022       -18.1234
  38   2.0000      -0.646293       -17.5865
  39   2.0000      -0.620103       -16.8738
  40   2.0000      -0.599777       -16.3208
  41   2.0000      -0.572394       -15.5756
  42   2.0000      -0.568294       -15.4641
  43   2.0000      -0.545410       -14.8413
  44   2.0000      -0.542839       -14.7714
  45   2.0000      -0.528104       -14.3704
  46   2.0000      -0.527209       -14.3461
  47   2.0000      -0.521078       -14.1793
  48   2.0000      -0.513655       -13.9773
  49   2.0000      -0.505468       -13.7545
  50   2.0000      -0.493054       -13.4167
  51   2.0000      -0.485485       -13.2107
  52   2.0000      -0.473196       -12.8763
  53   2.0000      -0.467853       -12.7309
  54   2.0000      -0.454969       -12.3803
  55   2.0000      -0.449964       -12.2442
  56   2.0000      -0.439087       -11.9482
  57   2.0000      -0.433586       -11.7985
  58   2.0000      -0.430336       -11.7100
  59   2.0000      -0.424540       -11.5523
  60   2.0000      -0.418706       -11.3936
  61   2.0000      -0.415746       -11.3130
  62   2.0000      -0.404353       -11.0030
  63   2.0000      -0.360380        -9.8064
  64   2.0000      -0.331402        -9.0179
  65   2.0000      -0.328616        -8.9421
  66   2.0000      -0.291497        -7.9320
  67   0.0000       0.025724         0.7000
  68   0.0000       0.079388         2.1603
  69   0.0000       0.103525         2.8170
  70   0.0000       0.120833         3.2880
  71   0.0000       0.130889         3.5617

MULLIKEN ATOMIC CHARGES
-----------------------
   0 S :    0.086582
   1 C :   -0.122605
   2 C :   -0.056613
   3 C :    0.025244
   4 C :   -0.115260
   5 H :   -0.045490
   6 C :    0.003316
   7 H :    0.034401
   8 H :    0.035256
   9 C :   -0.020142
  10 H :    0.047824
  11 H :    0.015913
  12 C :   -0.082775
  13 H :    0.032275
  14 H :    0.041955
  15 H :    0.015532
  16 S :    0.098592
  17 C :   -0.058709
  18 C :   -0.028915
  19 C :   -0.057269
  20 C :   -0.124783
  21 H :    0.010096
  22 C :    0.090243
  23 H :    0.016159
  24 H :    0.040127
  25 C :   -0.101236
  26 H :    0.026460
  27 H :    0.032744
  28 C :   -0.042046
  29 H :    0.034297
  30 H :    0.037917
  31 H :    0.023976
  32 H :    0.059777
  33 H :    0.047160
Sum of atomic charges:    0.0000000

LOEWDIN ATOMIC CHARGES
----------------------
   0 S :    0.409943
   1 C :   -0.191497
   2 C :   -0.062007
   3 C :   -0.074715
   4 C :   -0.198172
   5 H :    0.022610
   6 C :   -0.043196
   7 H :    0.035635
   8 H :    0.035042
   9 C :   -0.034417
  10 H :    0.034696
  11 H :    0.018331
  12 C :   -0.077630
  13 H :    0.025178
  14 H :    0.032400
  15 H :    0.017247
  16 S :    0.396036
  17 C :   -0.184085
  18 C :   -0.067480
  19 C :   -0.057873
  20 C :   -0.178746
  21 H :    0.026779
  22 C :   -0.019349
  23 H :    0.024889
  24 H :    0.034484
  25 C :   -0.043029
  26 H :    0.017843
  27 H :    0.026292
  28 C :   -0.067810
  29 H :    0.036477
  30 H :    0.025313
  31 H :    0.019630
  32 H :    0.033571
  33 H :    0.027611

  Mayer bond orders larger than 0.100000
B(  0-S ,  1-C ) :   1.1390 B(  0-S ,  4-C ) :   1.1600 B(  1-C ,  2-C ) :   1.5407
B(  1-C ,  4-C ) :   0.1080 B(  1-C , 32-H ) :   0.9818 B(  2-C ,  3-C ) :   1.2551
B(  2-C ,  6-C ) :   1.0291 B(  3-C ,  4-C ) :   1.5682 B(  3-C ,  5-H ) :   1.0048
B(  4-C , 20-C ) :   1.0255 B(  6-C ,  7-H ) :   0.9438 B(  6-C ,  8-H ) :   0.9433
B(  6-C ,  9-C ) :   1.0803 B(  9-C , 10-H ) :   0.9570 B(  9-C , 11-H ) :   0.9467
B(  9-C , 12-C ) :   1.0764 B( 12-C , 13-H ) :   0.9740 B( 12-C , 14-H ) :   0.9690
B( 12-C , 15-H ) :   0.9770 B( 16-S , 17-C ) :   1.1256 B( 16-S , 20-C ) :   1.1200
B( 17-C , 18-C ) :   1.6441 B( 17-C , 33-H ) :   0.9752 B( 18-C , 19-C ) :   1.1937
B( 18-C , 21-H ) :   0.9862 B( 19-C , 20-C ) :   1.6802 B( 19-C , 22-C ) :   1.0234
B( 22-C , 23-H ) :   0.9427 B( 22-C , 24-H ) :   0.9391 B( 22-C , 25-C ) :   1.0485
B( 25-C , 26-H ) :   0.9491 B( 25-C , 27-H ) :   0.9618 B( 25-C , 28-C ) :   1.0863
B( 28-C , 29-H ) :   0.9706 B( 28-C , 30-H ) :   0.9735 B( 28-C , 31-H ) :   0.9765

Dispersion correction           -0.014060411
FINAL SINGLE POINT ENERGY     -1339.863491891085

DIPOLE MOMENT
-------------
                                X             Y             Z
Electronic contribution:    -12.59644     -13.66098     -20.45963
Nuclear contribution   :     12.73973      14.24701      20.85755
                        -----------------------------------------
Total Dipole Moment    :      0.14329       0.58604       0.39792
                        -----------------------------------------
Magnitude (a.u.)       :      0.72271
Magnitude (Debye)      :      1.83698

Rotational constants in cm-1:     0.017456     0.009186     0.006549
Rotational constants in MHz :   523.326830   275.381206   196.334981

                             ****ORCA TERMINATED NORMALLY****
TOTAL RUN TIME: 0 days 0 hours 0 minutes 29 seconds 911 msec
