                         Program Version 4.2.1 -  RELEASE  -
|  1> ! wB97X-D3 SP def2-SVP
|  2> %pal
|  3> nprocs 16
|  4> end
|  5>
|  6> * xyz 0 1
|  7> S 	 -4.84566 	 -15.5839 	 83.2499
|  8> C 	 -3.83139 	 -15.4111 	 84.7053
|  9> C 	 -3.99646 	 -14.1801 	 85.3319
| 10> C 	 -5.0271 	 -13.43 	 84.6828
| 11> C 	 -5.70322 	 -14.1422 	 83.6881
| 12> H 	 -5.38814 	 -12.4444 	 84.9323
| 13> C 	 -3.382 	 -13.6676 	 86.5791
| 14> H 	 -2.96914 	 -12.7184 	 86.4775
| 15> H 	 -2.56219 	 -14.3952 	 86.8277
| 16> C 	 -4.29358 	 -13.7389 	 87.8731
| 17> H 	 -5.05579 	 -13.0224 	 87.7945
| 18> H 	 -4.64114 	 -14.728 	 88.0307
| 19> C 	 -3.50607 	 -13.5084 	 89.1896
| 20> H 	 -3.2003 	 -12.5042 	 89.2624
| 21> H 	 -3.96767 	 -13.6629 	 90.195
| 22> H 	 -2.79851 	 -14.2617 	 89.2634
| 23> S 	 -6.39581 	 -13.1767 	 81.3023
| 24> C 	 -7.99798 	 -12.6713 	 81.0134
| 25> C 	 -8.87718 	 -12.9097 	 82.0308
| 26> C 	 -8.15873 	 -13.4812 	 83.1803
| 27> C 	 -6.81661 	 -13.657 	 82.911
| 28> H 	 -9.95555 	 -12.6033 	 81.9631
| 29> C 	 -8.85535 	 -13.9089 	 84.4623
| 30> H 	 -8.93066 	 -14.9911 	 84.5662
| 31> H 	 -9.93322 	 -13.5921 	 84.4158
| 32> C 	 -8.40768 	 -13.3376 	 85.7879
| 33> H 	 -8.38252 	 -12.242 	 85.7287
| 34> H 	 -7.41765 	 -13.8408 	 85.9425
| 35> C 	 -9.35532 	 -13.7277 	 87.0043
| 36> H 	 -9.13139 	 -14.6797 	 87.4672
| 37> H 	 -10.3772 	 -13.7658 	 86.8516
| 38> H 	 -9.33812 	 -12.9881 	 87.7984
| 39> H 	 -3.30088 	 -16.323 	 85.0327
| 40> H 	 -8.29037 	 -12.1887 	 80.168
| 41> *
| 42>
| 43>                          ****END OF INPUT****

CARTESIAN COORDINATES (ANGSTROEM)
---------------------------------
  S     -4.845660  -15.583900   83.249900
  C     -3.831390  -15.411100   84.705300
  C     -3.996460  -14.180100   85.331900
  C     -5.027100  -13.430000   84.682800
  C     -5.703220  -14.142200   83.688100
  H     -5.388140  -12.444400   84.932300
  C     -3.382000  -13.667600   86.579100
  H     -2.969140  -12.718400   86.477500
  H     -2.562190  -14.395200   86.827700
  C     -4.293580  -13.738900   87.873100
  H     -5.055790  -13.022400   87.794500
  H     -4.641140  -14.728000   88.030700
  C     -3.506070  -13.508400   89.189600
  H     -3.200300  -12.504200   89.262400
  H     -3.967670  -13.662900   90.195000
  H     -2.798510  -14.261700   89.263400
  S     -6.395810  -13.176700   81.302300
  C     -7.997980  -12.671300   81.013400
  C     -8.877180  -12.909700   82.030800
  C     -8.158730  -13.481200   83.180300
  C     -6.816610  -13.657000   82.911000
  H     -9.955550  -12.603300   81.963100
  C     -8.855350  -13.908900   84.462300
  H     -8.930660  -14.991100   84.566200
  H     -9.933220  -13.592100   84.415800
  C     -8.407680  -13.337600   85.787900
  H     -8.382520  -12.242000   85.728700
  H     -7.417650  -13.840800   85.942500
  C     -9.355320  -13.727700   87.004300
  H     -9.131390  -14.679700   87.467200
  H    -10.377200  -13.765800   86.851600
  H     -9.338120  -12.988100   87.798400
  H     -3.300880  -16.323000   85.032700
  H     -8.290370  -12.188700   80.168000

 Total Charge           Charge          ....    0
 Multiplicity           Mult            ....    1
 Number of Electrons    NEL             ....  134
 Basis Dimension        Dim             ....  322

ORBITAL ENERGIES
----------------

  NO   OCC          E(Eh)            E(eV)
   0   2.0000     -88.965810     -2420.8828
   1   2.0000     -88.962506     -2420.7928
   2   2.0000     -10.325863      -280.9810
   3   2.0000     -10.320299      -280.8296
   4   2.0000     -10.319484      -280.8074
   5   2.0000     -10.306962      -280.4667
   6   2.0000     -10.305239      -280.4198
   7   2.0000     -10.304683      -280.4047
   8   2.0000     -10.298414      -280.2341
   9   2.0000     -10.293186      -280.0918
  10   2.0000     -10.293055      -280.0883
  11   2.0000     -10.289293      -279.9859
  12   2.0000     -10.288747      -279.9710
  13   2.0000     -10.284511      -279.8558
  14   2.0000     -10.272042      -279.5165
  15   2.0000     -10.271440      -279.5001
  16   2.0000      -8.080600      -219.8843
  17   2.0000      -8.078854      -219.8368
  18   2.0000      -6.038986      -164.3292
  19   2.0000      -6.037183      -164.2801
  20   2.0000      -6.035217      -164.2266
  21   2.0000      -6.033173      -164.1710
  22   2.0000      -6.031376      -164.1221
  23   2.0000      -6.029666      -164.0756
  24   2.0000      -1.010319       -27.4922
  25   2.0000      -0.984302       -26.7842
  26   2.0000      -0.912117       -24.8200
  27   2.0000      -0.904697       -24.6181
  28   2.0000      -0.871144       -23.7050
  29   2.0000      -0.850446       -23.1418
  30   2.0000      -0.845728       -23.0134
  31   2.0000      -0.812944       -22.1213
  32   2.0000      -0.785626       -21.3780
  33   2.0000      -0.774679       -21.0801
  34   2.0000      -0.710458       -19.3325
  35   2.0000      -0.704750       -19.1772
  36   2.0000      -0.688107       -18.7243
  37   2.0000      -0.663222       -18.0472
  38   2.0000      -0.645623       -17.5683
  39   2.0000      -0.617265       -16.7966
  40   2.0000      -0.595938       -16.2163
  41   2.0000      -0.584922       -15.9165
  42   2.0000      -0.564906       -15.3719
  43   2.0000      -0.560183       -15.2434
  44   2.0000      -0.523284       -14.2393
  45   2.0000      -0.517578       -14.0840
  46   2.0000      -0.515740       -14.0340
  47   2.0000      -0.510181       -13.8827
  48   2.0000      -0.503329       -13.6963
  49   2.0000      -0.500523       -13.6199
  50   2.0000      -0.493093       -13.4178
  51   2.0000      -0.477890       -13.0040
  52   2.0000      -0.472219       -12.8497
  53   2.0000      -0.467836       -12.7305
  54   2.0000      -0.460815       -12.5394
  55   2.0000      -0.449888       -12.2421
  56   2.0000      -0.446009       -12.1365
  57   2.0000      -0.435767       -11.8578
  58   2.0000      -0.433860       -11.8059
  59   2.0000      -0.430988       -11.7278
  60   2.0000      -0.422274       -11.4907
  61   2.0000      -0.410825       -11.1791
  62   2.0000      -0.403844       -10.9892
  63   2.0000      -0.337491        -9.1836
  64   2.0000      -0.331020        -9.0075
  65   2.0000      -0.325986        -8.8705
  66   2.0000      -0.298777        -8.1301
  67   0.0000       0.040376         1.0987
  68   0.0000       0.057700         1.5701
  69   0.0000       0.110785         3.0146
  70   0.0000       0.122616         3.3365
  71   0.0000       0.130887         3.5616

MULLIKEN ATOMIC CHARGES
-----------------------
   0 S :    0.107933
   1 C :   -0.154066
   2 C :   -0.045464
   3 C :    0.054225
   4 C :   -0.187861
   5 H :    0.012782
   6 C :    0.072047
   7 H :    0.023378
   8 H :    0.016882
   9 C :   -0.037364
  10 H :    0.025344
  11 H :    0.022670
  12 C :   -0.047129
  13 H :    0.024256
  14 H :    0.028543
  15 H :    0.013128
  16 S :    0.120182
  17 C :   -0.042139
  18 C :   -0.054340
  19 C :   -0.013369
  20 C :   -0.177222
  21 H :    0.042015
  22 C :    0.047073
  23 H :    0.039934
  24 H :    0.007357
  25 C :   -0.104207
  26 H :    0.034932
  27 H :    0.066382
  28 C :   -0.026168
  29 H :    0.027966
  30 H :    0.003465
  31 H :    0.021285
  32 H :    0.064759
  33 H :    0.012793
Sum of atomic charges:   -0.0000000

LOEWDIN ATOMIC CHARGES
----------------------
   0 S :    0.397923
   1 C :   -0.189053
   2 C :   -0.061865
   3 C :   -0.051100
   4 C :   -0.205579
   5 H :    0.029841
   6 C :   -0.024798
   7 H :    0.024008
   8 H :    0.035085
   9 C :   -0.021299
  10 H :    0.013230
  11 H :    0.022340
  12 C :   -0.066006
  13 H :    0.017333
  14 H :    0.034352
  15 H :    0.014937
  16 S :    0.430680
  17 C :   -0.181768
  18 C :   -0.073757
  19 C :   -0.051753
  20 C :   -0.210641
  21 H :    0.043789
  22 C :   -0.041802
  23 H :    0.033286
  24 H :    0.028543
  25 C :   -0.040195
  26 H :    0.024485
  27 H :    0.033523
  28 C :   -0.068576
  29 H :    0.025986
  30 H :    0.012967
  31 H :    0.027654
  32 H :    0.030765
  33 H :    0.007469

  Mayer bond orders larger than 0.100000
B(  0-S ,  1-C ) :   1.1356 B(  0-S ,  4-C ) :   1.1606 B(  1-C ,  2-C ) :   1.5982
B(  1-C ,  4-C ) :   0.1041 B(  1-C , 32-H ) :   0.9668 B(  2-C ,  3-C ) :   1.2175
B(  2-C ,  6-C ) :   1.0491 B(  3-C ,  4-C ) :   1.5828 B(  3-C ,  5-H ) :   0.9941
B(  4-C , 20-C ) :   1.0184 B(  6-C ,  7-H ) :   0.9363 B(  6-C ,  8-H ) :   0.9390
B(  6-C ,  9-C ) :   1.0562 B(  9-C , 10-H ) :   0.9600 B(  9-C , 11-H ) :   0.9596
B(  9-C , 12-C ) :   1.0791 B( 12-C , 13-H ) :   0.9773 B( 12-C , 14-H ) :   0.9735
B( 12-C , 15-H ) :   0.9755 B( 16-S , 17-C ) :   1.1604 B( 16-S , 20-C ) :   1.1496
B( 17-C , 18-C ) :   1.6350 B( 17-C , 33-H ) :   0.9738 B( 18-C , 19-C ) :   1.2182
B( 18-C , 21-H ) :   0.9819 B( 19-C , 20-C ) :   1.6306 B( 19-C , 22-C ) :   1.0383
B( 22-C , 23-H ) :   0.9376 B( 22-C , 24-H ) :   0.9339 B( 22-C , 25-C ) :   1.0670
B( 25-C , 26-H ) :   0.9600 B( 25-C , 27-H ) :   0.9494 B( 25-C , 28-C ) :   1.0695
B( 28-C , 29-H ) :   0.9764 B( 28-C , 30-H ) :   0.9736 B( 28-C , 31-H ) :   0.9765

Dispersion correction           -0.014586217
FINAL SINGLE POINT ENERGY     -1339.851560012078

DIPOLE MOMENT
-------------
                                X             Y             Z
Electronic contribution:      4.69380      -4.19307     -32.32757
Nuclear contribution   :     -4.90955       4.38272      32.92902
                        -----------------------------------------
Total Dipole Moment    :     -0.21576       0.18965       0.60145
                        -----------------------------------------
Magnitude (a.u.)       :      0.66653
Magnitude (Debye)      :      1.69419

Rotational constants in cm-1:     0.018259     0.009276     0.006922
Rotational constants in MHz :   547.388109   278.097629   207.528973

                             ****ORCA TERMINATED NORMALLY****
TOTAL RUN TIME: 0 days 0 hours 0 minutes 34 seconds 196 msec
