                         Program Version 4.2.1 -  RELEASE  -
|  1> ! wB97X-D3 SP def2-SVP
|  2> %pal
|  3> nprocs 16
|  4> end
|  5>
|  6> * xyz 0 1
|  7> S 	 -97.2139 	 39.839 	 124.509
|  8> C 	 -96.1218 	 39.0014 	 123.468
|  9> C 	 -96.2576 	 39.374 	 122.15
| 10> C 	 -97.3105 	 40.3771 	 121.997
| 11> C 	 -97.9328 	 40.7179 	 123.181
| 12> H 	 -97.6011 	 40.8745 	 121.121
| 13> C 	 -95.2617 	 38.9483 	 121.066
| 14> H 	 -94.8548 	 37.9868 	 121.386
| 15> H 	 -94.5138 	 39.7211 	 121.087
| 16> C 	 -95.8133 	 38.8239 	 119.639
| 17> H 	 -96.8886 	 38.5982 	 119.734
| 18> H 	 -95.7376 	 39.7648 	 119.172
| 19> C 	 -95.1444 	 37.7655 	 118.72
| 20> H 	 -95.1141 	 36.7589 	 119.092
| 21> H 	 -95.8864 	 37.6367 	 117.871
| 22> H 	 -94.1541 	 38.065 	 118.356
| 23> S 	 -100.505 	 41.7022 	 123.477
| 24> C 	 -100.757 	 43.4247 	 123.436
| 25> C 	 -99.5775 	 44.1262 	 123.635
| 26> C 	 -98.4535 	 43.2749 	 123.533
| 27> C 	 -98.7752 	 41.8753 	 123.448
| 28> H 	 -99.5377 	 45.2036 	 123.588
| 29> C 	 -97.062 	 43.8407 	 123.377
| 30> H 	 -96.4153 	 43.0538 	 122.951
| 31> H 	 -96.6235 	 44.1186 	 124.394
| 32> C 	 -96.8028 	 45.0853 	 122.448
| 33> H 	 -97.4731 	 45.9064 	 122.769
| 34> H 	 -97.0975 	 44.9194 	 121.391
| 35> C 	 -95.3567 	 45.6227 	 122.602
| 36> H 	 -94.5604 	 45.0121 	 122.104
| 37> H 	 -95.1204 	 45.7642 	 123.597
| 38> H 	 -95.3059 	 46.6021 	 122.067
| 39> H 	 -95.2191 	 38.5365 	 123.908
| 40> H 	 -101.732 	 43.8809 	 123.468
| 41> *
| 42>
| 43>                          ****END OF INPUT****

CARTESIAN COORDINATES (ANGSTROEM)
---------------------------------
  S    -97.213900   39.839000  124.509000
  C    -96.121800   39.001400  123.468000
  C    -96.257600   39.374000  122.150000
  C    -97.310500   40.377100  121.997000
  C    -97.932800   40.717900  123.181000
  H    -97.601100   40.874500  121.121000
  C    -95.261700   38.948300  121.066000
  H    -94.854800   37.986800  121.386000
  H    -94.513800   39.721100  121.087000
  C    -95.813300   38.823900  119.639000
  H    -96.888600   38.598200  119.734000
  H    -95.737600   39.764800  119.172000
  C    -95.144400   37.765500  118.720000
  H    -95.114100   36.758900  119.092000
  H    -95.886400   37.636700  117.871000
  H    -94.154100   38.065000  118.356000
  S    -100.505000   41.702200  123.477000
  C    -100.757000   43.424700  123.436000
  C    -99.577500   44.126200  123.635000
  C    -98.453500   43.274900  123.533000
  C    -98.775200   41.875300  123.448000
  H    -99.537700   45.203600  123.588000
  C    -97.062000   43.840700  123.377000
  H    -96.415300   43.053800  122.951000
  H    -96.623500   44.118600  124.394000
  C    -96.802800   45.085300  122.448000
  H    -97.473100   45.906400  122.769000
  H    -97.097500   44.919400  121.391000
  C    -95.356700   45.622700  122.602000
  H    -94.560400   45.012100  122.104000
  H    -95.120400   45.764200  123.597000
  H    -95.305900   46.602100  122.067000
  H    -95.219100   38.536500  123.908000
  H    -101.732000   43.880900  123.468000

 Total Charge           Charge          ....    0
 Multiplicity           Mult            ....    1
 Number of Electrons    NEL             ....  134
 Basis Dimension        Dim             ....  322

ORBITAL ENERGIES
----------------

  NO   OCC          E(Eh)            E(eV)
   0   2.0000     -88.966431     -2420.8997
   1   2.0000     -88.960314     -2420.7332
   2   2.0000     -10.327138      -281.0157
   3   2.0000     -10.326661      -281.0027
   4   2.0000     -10.317633      -280.7571
   5   2.0000     -10.311744      -280.5968
   6   2.0000     -10.307217      -280.4736
   7   2.0000     -10.304605      -280.4026
   8   2.0000     -10.295881      -280.1652
   9   2.0000     -10.295318      -280.1498
  10   2.0000     -10.294528      -280.1284
  11   2.0000     -10.292973      -280.0860
  12   2.0000     -10.291348      -280.0418
  13   2.0000     -10.285953      -279.8950
  14   2.0000     -10.284867      -279.8655
  15   2.0000     -10.280606      -279.7495
  16   2.0000      -8.081338      -219.9044
  17   2.0000      -8.075909      -219.7567
  18   2.0000      -6.039671      -164.3478
  19   2.0000      -6.035669      -164.2389
  20   2.0000      -6.034255      -164.2004
  21   2.0000      -6.032429      -164.1507
  22   2.0000      -6.030215      -164.0905
  23   2.0000      -6.026861      -163.9992
  24   2.0000      -1.004766       -27.3411
  25   2.0000      -0.983876       -26.7726
  26   2.0000      -0.909086       -24.7375
  27   2.0000      -0.900669       -24.5085
  28   2.0000      -0.870133       -23.6775
  29   2.0000      -0.849480       -23.1155
  30   2.0000      -0.844771       -22.9874
  31   2.0000      -0.816078       -22.2066
  32   2.0000      -0.781394       -21.2628
  33   2.0000      -0.765676       -20.8351
  34   2.0000      -0.710742       -19.3403
  35   2.0000      -0.698943       -19.0192
  36   2.0000      -0.686095       -18.6696
  37   2.0000      -0.652765       -17.7626
  38   2.0000      -0.647263       -17.6129
  39   2.0000      -0.617071       -16.7914
  40   2.0000      -0.596522       -16.2322
  41   2.0000      -0.575714       -15.6660
  42   2.0000      -0.563283       -15.3277
  43   2.0000      -0.558625       -15.2010
  44   2.0000      -0.525049       -14.2873
  45   2.0000      -0.517622       -14.0852
  46   2.0000      -0.516542       -14.0558
  47   2.0000      -0.510405       -13.8888
  48   2.0000      -0.507878       -13.8200
  49   2.0000      -0.497150       -13.5282
  50   2.0000      -0.488587       -13.2951
  51   2.0000      -0.479413       -13.0455
  52   2.0000      -0.469556       -12.7773
  53   2.0000      -0.467030       -12.7085
  54   2.0000      -0.459766       -12.5109
  55   2.0000      -0.449705       -12.2371
  56   2.0000      -0.444754       -12.1024
  57   2.0000      -0.436716       -11.8836
  58   2.0000      -0.436203       -11.8697
  59   2.0000      -0.425032       -11.5657
  60   2.0000      -0.419559       -11.4168
  61   2.0000      -0.415606       -11.3092
  62   2.0000      -0.409537       -11.1441
  63   2.0000      -0.336836        -9.1658
  64   2.0000      -0.329825        -8.9750
  65   2.0000      -0.318355        -8.6629
  66   2.0000      -0.305966        -8.3257
  67   0.0000       0.044147         1.2013
  68   0.0000       0.049903         1.3579
  69   0.0000       0.118269         3.2183
  70   0.0000       0.122171         3.3244
  71   0.0000       0.132091         3.5944

MULLIKEN ATOMIC CHARGES
-----------------------
   0 S :    0.108189
   1 C :   -0.135779
   2 C :   -0.122889
   3 C :    0.062785
   4 C :   -0.166581
   5 H :   -0.004893
   6 C :    0.099332
   7 H :    0.021625
   8 H :    0.039016
   9 C :   -0.092732
  10 H :    0.037470
  11 H :    0.024146
  12 C :   -0.057017
  13 H :    0.030454
  14 H :    0.036111
  15 H :    0.043004
  16 S :    0.119895
  17 C :   -0.101663
  18 C :   -0.020102
  19 C :   -0.007061
  20 C :   -0.177320
  21 H :    0.023581
  22 C :    0.024908
  23 H :    0.034142
  24 H :    0.044407
  25 C :   -0.104683
  26 H :    0.025293
  27 H :    0.038404
  28 C :   -0.044138
  29 H :    0.040474
  30 H :    0.019948
  31 H :    0.036190
  32 H :    0.067930
  33 H :    0.057554
Sum of atomic charges:   -0.0000000

LOEWDIN ATOMIC CHARGES
----------------------
   0 S :    0.415205
   1 C :   -0.211621
   2 C :   -0.063267
   3 C :   -0.050200
   4 C :   -0.203674
   5 H :    0.023653
   6 C :   -0.028860
   7 H :    0.029995
   8 H :    0.032177
   9 C :   -0.043585
  10 H :    0.028451
  11 H :    0.019333
  12 C :   -0.066589
  13 H :    0.021145
  14 H :    0.036892
  15 H :    0.025753
  16 S :    0.426718
  17 C :   -0.182592
  18 C :   -0.073332
  19 C :   -0.049821
  20 C :   -0.223292
  21 H :    0.031785
  22 C :   -0.043402
  23 H :    0.032551
  24 H :    0.039686
  25 C :   -0.044160
  26 H :    0.019694
  27 H :    0.026026
  28 C :   -0.062478
  29 H :    0.029619
  30 H :    0.012974
  31 H :    0.033152
  32 H :    0.035508
  33 H :    0.026555

  Mayer bond orders larger than 0.100000
B(  0-S ,  1-C ) :   1.1528 B(  0-S ,  4-C ) :   1.1593 B(  1-C ,  2-C ) :   1.6289
B(  1-C , 32-H ) :   0.9613 B(  2-C ,  3-C ) :   1.2121 B(  2-C ,  6-C ) :   1.0209
B(  3-C ,  4-C ) :   1.5937 B(  3-C ,  5-H ) :   1.0104 B(  4-C , 20-C ) :   1.0067
B(  6-C ,  7-H ) :   0.9458 B(  6-C ,  8-H ) :   0.9348 B(  6-C ,  9-C ) :   1.0601
B(  9-C , 10-H ) :   0.9662 B(  9-C , 11-H ) :   0.9487 B(  9-C , 12-C ) :   1.0898
B( 12-C , 13-H ) :   0.9754 B( 12-C , 14-H ) :   0.9742 B( 12-C , 15-H ) :   0.9764
B( 16-S , 17-C ) :   1.1909 B( 16-S , 20-C ) :   1.1565 B( 17-C , 18-C ) :   1.5703
B( 17-C , 20-C ) :   0.1082 B( 17-C , 33-H ) :   0.9664 B( 18-C , 19-C ) :   1.2837
B( 18-C , 21-H ) :   0.9861 B( 19-C , 20-C ) :   1.5486 B( 19-C , 22-C ) :   1.0485
B( 22-C , 23-H ) :   0.9388 B( 22-C , 24-H ) :   0.9323 B( 22-C , 25-C ) :   1.0566
B( 25-C , 26-H ) :   0.9518 B( 25-C , 27-H ) :   0.9578 B( 25-C , 28-C ) :   1.0808
B( 28-C , 29-H ) :   0.9769 B( 28-C , 30-H ) :   0.9746 B( 28-C , 31-H ) :   0.9735

Dispersion correction           -0.013713815
FINAL SINGLE POINT ENERGY     -1339.877980270518

DIPOLE MOMENT
-------------
                                X             Y             Z
Electronic contribution:    -20.31922      -6.43932      18.91118
Nuclear contribution   :     20.82917       6.87344     -19.41211
                        -----------------------------------------
Total Dipole Moment    :      0.50995       0.43412      -0.50094
                        -----------------------------------------
Magnitude (a.u.)       :      0.83633
Magnitude (Debye)      :      2.12578

Rotational constants in cm-1:     0.016483     0.007961     0.006676
Rotational constants in MHz :   494.140589   238.665842   200.155902

                             ****ORCA TERMINATED NORMALLY****
TOTAL RUN TIME: 0 days 0 hours 0 minutes 32 seconds 784 msec
