                         Program Version 4.2.1 -  RELEASE  -
|  1> ! wB97X-D3 SP def2-SVP
|  2> %pal
|  3> nprocs 16
|  4> end
|  5>
|  6> * xyz 0 1
|  7> S 	 -33.8304 	 56.7842 	 100.664
|  8> C 	 -33.4463 	 55.741 	 99.3156
|  9> C 	 -32.3406 	 54.9017 	 99.5812
| 10> C 	 -31.8816 	 55.1056 	 100.911
| 11> C 	 -32.5261 	 56.1202 	 101.601
| 12> H 	 -31.1706 	 54.4812 	 101.419
| 13> C 	 -31.6558 	 53.8308 	 98.7186
| 14> H 	 -31.9244 	 53.9858 	 97.6744
| 15> H 	 -32.1857 	 52.9027 	 98.9878
| 16> C 	 -30.0876 	 53.7012 	 98.8145
| 17> H 	 -29.7047 	 53.5916 	 99.7929
| 18> H 	 -29.8577 	 52.752 	 98.266
| 19> C 	 -29.3447 	 54.845 	 98.1123
| 20> H 	 -29.7332 	 54.9987 	 97.0653
| 21> H 	 -29.5856 	 55.7551 	 98.6595
| 22> H 	 -28.3022 	 54.619 	 98.2352
| 23> S 	 -33.8604 	 56.2761 	 103.959
| 24> C 	 -32.9159 	 56.3802 	 105.523
| 25> C 	 -31.5583 	 56.5449 	 105.243
| 26> C 	 -31.2612 	 56.6343 	 103.865
| 27> C 	 -32.4037 	 56.3796 	 103.034
| 28> H 	 -30.9784 	 56.6355 	 106.182
| 29> C 	 -29.8668 	 56.6789 	 103.521
| 30> H 	 -29.4499 	 55.7189 	 103.685
| 31> H 	 -29.3949 	 57.311 	 104.305
| 32> C 	 -29.4593 	 57.3695 	 102.238
| 33> H 	 -29.9821 	 58.2304 	 101.837
| 34> H 	 -29.6016 	 56.6799 	 101.435
| 35> C 	 -27.9794 	 57.616 	 102.355
| 36> H 	 -27.8418 	 58.3533 	 103.135
| 37> H 	 -27.537 	 57.911 	 101.401
| 38> H 	 -27.4574 	 56.71 	 102.711
| 39> H 	 -34.0236 	 55.7778 	 98.3685
| 40> H 	 -33.3203 	 56.5679 	 106.483
| 41> *
| 42>
| 43>                          ****END OF INPUT****

CARTESIAN COORDINATES (ANGSTROEM)
---------------------------------
  S    -33.830400   56.784200  100.664000
  C    -33.446300   55.741000   99.315600
  C    -32.340600   54.901700   99.581200
  C    -31.881600   55.105600  100.911000
  C    -32.526100   56.120200  101.601000
  H    -31.170600   54.481200  101.419000
  C    -31.655800   53.830800   98.718600
  H    -31.924400   53.985800   97.674400
  H    -32.185700   52.902700   98.987800
  C    -30.087600   53.701200   98.814500
  H    -29.704700   53.591600   99.792900
  H    -29.857700   52.752000   98.266000
  C    -29.344700   54.845000   98.112300
  H    -29.733200   54.998700   97.065300
  H    -29.585600   55.755100   98.659500
  H    -28.302200   54.619000   98.235200
  S    -33.860400   56.276100  103.959000
  C    -32.915900   56.380200  105.523000
  C    -31.558300   56.544900  105.243000
  C    -31.261200   56.634300  103.865000
  C    -32.403700   56.379600  103.034000
  H    -30.978400   56.635500  106.182000
  C    -29.866800   56.678900  103.521000
  H    -29.449900   55.718900  103.685000
  H    -29.394900   57.311000  104.305000
  C    -29.459300   57.369500  102.238000
  H    -29.982100   58.230400  101.837000
  H    -29.601600   56.679900  101.435000
  C    -27.979400   57.616000  102.355000
  H    -27.841800   58.353300  103.135000
  H    -27.537000   57.911000  101.401000
  H    -27.457400   56.710000  102.711000
  H    -34.023600   55.777800   98.368500
  H    -33.320300   56.567900  106.483000

 Total Charge           Charge          ....    0
 Multiplicity           Mult            ....    1
 Number of Electrons    NEL             ....  134
 Basis Dimension        Dim             ....  322

ORBITAL ENERGIES
----------------

  NO   OCC          E(Eh)            E(eV)
   0   2.0000     -88.969416     -2420.9809
   1   2.0000     -88.964306     -2420.8418
   2   2.0000     -10.329250      -281.0732
   3   2.0000     -10.327570      -281.0275
   4   2.0000     -10.320999      -280.8487
   5   2.0000     -10.316837      -280.7354
   6   2.0000     -10.306851      -280.4637
   7   2.0000     -10.300586      -280.2932
   8   2.0000     -10.299917      -280.2750
   9   2.0000     -10.295065      -280.1430
  10   2.0000     -10.292650      -280.0773
  11   2.0000     -10.291557      -280.0475
  12   2.0000     -10.282912      -279.8123
  13   2.0000     -10.280516      -279.7471
  14   2.0000     -10.272927      -279.5406
  15   2.0000     -10.272795      -279.5369
  16   2.0000      -8.084181      -219.9818
  17   2.0000      -8.078084      -219.8158
  18   2.0000      -6.042640      -164.4286
  19   2.0000      -6.038604      -164.3188
  20   2.0000      -6.036675      -164.2663
  21   2.0000      -6.035078      -164.2228
  22   2.0000      -6.032682      -164.1576
  23   2.0000      -6.028842      -164.0531
  24   2.0000      -1.004500       -27.3338
  25   2.0000      -0.978790       -26.6342
  26   2.0000      -0.920063       -25.0362
  27   2.0000      -0.907816       -24.7029
  28   2.0000      -0.869949       -23.6725
  29   2.0000      -0.852169       -23.1887
  30   2.0000      -0.849518       -23.1166
  31   2.0000      -0.813653       -22.1406
  32   2.0000      -0.780188       -21.2300
  33   2.0000      -0.762121       -20.7384
  34   2.0000      -0.713554       -19.4168
  35   2.0000      -0.701896       -19.0996
  36   2.0000      -0.687609       -18.7108
  37   2.0000      -0.656044       -17.8519
  38   2.0000      -0.639381       -17.3984
  39   2.0000      -0.625496       -17.0206
  40   2.0000      -0.597091       -16.2477
  41   2.0000      -0.573977       -15.6187
  42   2.0000      -0.564713       -15.3666
  43   2.0000      -0.554040       -15.0762
  44   2.0000      -0.536514       -14.5993
  45   2.0000      -0.526810       -14.3352
  46   2.0000      -0.516969       -14.0674
  47   2.0000      -0.511421       -13.9165
  48   2.0000      -0.499550       -13.5934
  49   2.0000      -0.497478       -13.5371
  50   2.0000      -0.490445       -13.3457
  51   2.0000      -0.486788       -13.2462
  52   2.0000      -0.473613       -12.8877
  53   2.0000      -0.459948       -12.5158
  54   2.0000      -0.453873       -12.3505
  55   2.0000      -0.448541       -12.2054
  56   2.0000      -0.446169       -12.1409
  57   2.0000      -0.437279       -11.8990
  58   2.0000      -0.434124       -11.8131
  59   2.0000      -0.429020       -11.6742
  60   2.0000      -0.419470       -11.4144
  61   2.0000      -0.415513       -11.3067
  62   2.0000      -0.405675       -11.0390
  63   2.0000      -0.347058        -9.4439
  64   2.0000      -0.330571        -8.9953
  65   2.0000      -0.322823        -8.7845
  66   2.0000      -0.286983        -7.8092
  67   0.0000       0.025390         0.6909
  68   0.0000       0.069023         1.8782
  69   0.0000       0.105480         2.8702
  70   0.0000       0.119370         3.2482
  71   0.0000       0.128608         3.4996

MULLIKEN ATOMIC CHARGES
-----------------------
   0 S :    0.118049
   1 C :   -0.152714
   2 C :   -0.083752
   3 C :    0.028928
   4 C :   -0.153831
   5 H :    0.011995
   6 C :    0.059592
   7 H :    0.015220
   8 H :    0.050619
   9 C :   -0.084372
  10 H :    0.024640
  11 H :    0.034557
  12 C :   -0.049809
  13 H :    0.040745
  14 H :    0.039991
  15 H :    0.041280
  16 S :    0.092611
  17 C :   -0.096368
  18 C :   -0.068526
  19 C :    0.014076
  20 C :   -0.142495
  21 H :    0.037722
  22 C :    0.006000
  23 H :    0.035739
  24 H :    0.019781
  25 C :   -0.031949
  26 H :    0.034306
  27 H :    0.007841
  28 C :   -0.035836
  29 H :    0.025797
  30 H :    0.031059
  31 H :    0.020701
  32 H :    0.061978
  33 H :    0.046426
Sum of atomic charges:   -0.0000000

LOEWDIN ATOMIC CHARGES
----------------------
   0 S :    0.417369
   1 C :   -0.208886
   2 C :   -0.063970
   3 C :   -0.058113
   4 C :   -0.203853
   5 H :    0.028168
   6 C :   -0.033244
   7 H :    0.027827
   8 H :    0.039600
   9 C :   -0.037557
  10 H :    0.014854
  11 H :    0.030312
  12 C :   -0.063691
  13 H :    0.032035
  14 H :    0.025592
  15 H :    0.026301
  16 S :    0.386178
  17 C :   -0.167149
  18 C :   -0.069001
  19 C :   -0.063280
  20 C :   -0.203154
  21 H :    0.042892
  22 C :   -0.037141
  23 H :    0.033872
  24 H :    0.037000
  25 C :   -0.044200
  26 H :    0.030447
  27 H :    0.017250
  28 C :   -0.058751
  29 H :    0.019864
  30 H :    0.023655
  31 H :    0.024558
  32 H :    0.033351
  33 H :    0.020867

  Mayer bond orders larger than 0.100000
B(  0-S ,  1-C ) :   1.1510 B(  0-S ,  4-C ) :   1.1576 B(  1-C ,  2-C ) :   1.5805
B(  1-C , 32-H ) :   0.9659 B(  2-C ,  3-C ) :   1.2674 B(  2-C ,  6-C ) :   1.0074
B(  3-C ,  4-C ) :   1.5575 B(  3-C ,  5-H ) :   0.9873 B(  4-C , 20-C ) :   1.0467
B(  6-C ,  7-H ) :   0.9437 B(  6-C ,  8-H ) :   0.9381 B(  6-C ,  9-C ) :   1.0669
B(  9-C , 10-H ) :   0.9568 B(  9-C , 11-H ) :   0.9540 B(  9-C , 12-C ) :   1.0748
B( 12-C , 13-H ) :   0.9727 B( 12-C , 14-H ) :   0.9755 B( 12-C , 15-H ) :   0.9737
B( 16-S , 17-C ) :   1.1334 B( 16-S , 20-C ) :   1.1533 B( 17-C , 18-C ) :   1.6202
B( 17-C , 20-C ) :   0.1060 B( 17-C , 33-H ) :   0.9681 B( 18-C , 19-C ) :   1.2437
B( 18-C , 21-H ) :   0.9852 B( 19-C , 20-C ) :   1.5334 B( 19-C , 22-C ) :   1.0541
B( 22-C , 23-H ) :   0.9215 B( 22-C , 24-H ) :   0.9412 B( 22-C , 25-C ) :   1.0510
B( 25-C , 26-H ) :   0.9606 B( 25-C , 27-H ) :   0.9363 B( 25-C , 28-C ) :   1.0901
B( 28-C , 29-H ) :   0.9767 B( 28-C , 30-H ) :   0.9703 B( 28-C , 31-H ) :   0.9680

Dispersion correction           -0.015016600
FINAL SINGLE POINT ENERGY     -1339.863716192898

DIPOLE MOMENT
-------------
                                X             Y             Z
Electronic contribution:    -27.92494       4.60532      11.31145
Nuclear contribution   :     28.50998      -4.94685     -11.42776
                        -----------------------------------------
Total Dipole Moment    :      0.58505      -0.34153      -0.11631
                        -----------------------------------------
Magnitude (a.u.)       :      0.68735
Magnitude (Debye)      :      1.74710

Rotational constants in cm-1:     0.017367     0.010339     0.007405
Rotational constants in MHz :   520.652774   309.963982   222.009669

                             ****ORCA TERMINATED NORMALLY****
TOTAL RUN TIME: 0 days 0 hours 0 minutes 32 seconds 223 msec
