                         Program Version 4.2.1 -  RELEASE  -
|  1> ! wB97X-D3 SP def2-SVP
|  2> %pal
|  3> nprocs 16
|  4> end
|  5>
|  6> * xyz 0 1
|  7> S 	 -96.6247 	 36.6044 	 122.788
|  8> C 	 -95.4589 	 36.1178 	 124.027
|  9> C 	 -94.9627 	 37.2188 	 124.746
| 10> C 	 -95.4629 	 38.4465 	 124.266
| 11> C 	 -96.2847 	 38.3162 	 123.152
| 12> H 	 -95.0957 	 39.4589 	 124.478
| 13> C 	 -94.1682 	 37.1872 	 126.004
| 14> H 	 -93.4985 	 37.98 	 126.032
| 15> H 	 -93.3858 	 36.4021 	 126.04
| 16> C 	 -94.9235 	 37.2565 	 127.343
| 17> H 	 -95.5727 	 38.1054 	 127.232
| 18> H 	 -95.6453 	 36.4316 	 127.514
| 19> C 	 -94.0742 	 37.4298 	 128.636
| 20> H 	 -93.1705 	 36.8886 	 128.744
| 21> H 	 -93.8556 	 38.5202 	 128.778
| 22> H 	 -94.5908 	 37.1398 	 129.576
| 23> S 	 -96.8588 	 39.0455 	 120.564
| 24> C 	 -97.3785 	 40.605 	 120.293
| 25> C 	 -97.2194 	 41.428 	 121.393
| 26> C 	 -97.0132 	 40.7052 	 122.59
| 27> C 	 -96.7155 	 39.3793 	 122.3
| 28> H 	 -97.5298 	 42.4247 	 121.248
| 29> C 	 -96.908 	 41.4635 	 123.861
| 30> H 	 -95.9083 	 41.4651 	 124.165
| 31> H 	 -97.2905 	 40.8001 	 124.615
| 32> C 	 -97.682 	 42.7877 	 124.009
| 33> H 	 -97.2453 	 43.57 	 123.411
| 34> H 	 -97.5485 	 43.244 	 125.001
| 35> C 	 -99.1978 	 42.7833 	 123.651
| 36> H 	 -99.5582 	 43.7703 	 123.821
| 37> H 	 -99.8665 	 42.2441 	 124.359
| 38> H 	 -99.3546 	 42.5733 	 122.549
| 39> H 	 -95.2081 	 35.107 	 124.205
| 40> H 	 -97.8011 	 40.9265 	 119.342
| 41> *
| 42>
| 43>                          ****END OF INPUT****

CARTESIAN COORDINATES (ANGSTROEM)
---------------------------------
  S    -96.624700   36.604400  122.788000
  C    -95.458900   36.117800  124.027000
  C    -94.962700   37.218800  124.746000
  C    -95.462900   38.446500  124.266000
  C    -96.284700   38.316200  123.152000
  H    -95.095700   39.458900  124.478000
  C    -94.168200   37.187200  126.004000
  H    -93.498500   37.980000  126.032000
  H    -93.385800   36.402100  126.040000
  C    -94.923500   37.256500  127.343000
  H    -95.572700   38.105400  127.232000
  H    -95.645300   36.431600  127.514000
  C    -94.074200   37.429800  128.636000
  H    -93.170500   36.888600  128.744000
  H    -93.855600   38.520200  128.778000
  H    -94.590800   37.139800  129.576000
  S    -96.858800   39.045500  120.564000
  C    -97.378500   40.605000  120.293000
  C    -97.219400   41.428000  121.393000
  C    -97.013200   40.705200  122.590000
  C    -96.715500   39.379300  122.300000
  H    -97.529800   42.424700  121.248000
  C    -96.908000   41.463500  123.861000
  H    -95.908300   41.465100  124.165000
  H    -97.290500   40.800100  124.615000
  C    -97.682000   42.787700  124.009000
  H    -97.245300   43.570000  123.411000
  H    -97.548500   43.244000  125.001000
  C    -99.197800   42.783300  123.651000
  H    -99.558200   43.770300  123.821000
  H    -99.866500   42.244100  124.359000
  H    -99.354600   42.573300  122.549000
  H    -95.208100   35.107000  124.205000
  H    -97.801100   40.926500  119.342000

 Total Charge           Charge          ....    0
 Multiplicity           Mult            ....    1
 Number of Electrons    NEL             ....  134
 Basis Dimension        Dim             ....  322

ORBITAL ENERGIES
----------------

  NO   OCC          E(Eh)            E(eV)
   0   2.0000     -88.968493     -2420.9558
   1   2.0000     -88.964874     -2420.8573
   2   2.0000     -10.329120      -281.0697
   3   2.0000     -10.322785      -280.8973
   4   2.0000     -10.315878      -280.7093
   5   2.0000     -10.309449      -280.5344
   6   2.0000     -10.303378      -280.3692
   7   2.0000     -10.301934      -280.3299
   8   2.0000     -10.293085      -280.0891
   9   2.0000     -10.293047      -280.0880
  10   2.0000     -10.288646      -279.9683
  11   2.0000     -10.287242      -279.9301
  12   2.0000     -10.286351      -279.9058
  13   2.0000     -10.284025      -279.8425
  14   2.0000     -10.283450      -279.8269
  15   2.0000     -10.282116      -279.7906
  16   2.0000      -8.082300      -219.9306
  17   2.0000      -8.080995      -219.8951
  18   2.0000      -6.040844      -164.3797
  19   2.0000      -6.039198      -164.3349
  20   2.0000      -6.036997      -164.2750
  21   2.0000      -6.035377      -164.2310
  22   2.0000      -6.033035      -164.1672
  23   2.0000      -6.031917      -164.1368
  24   2.0000      -1.011232       -27.5170
  25   2.0000      -0.984340       -26.7852
  26   2.0000      -0.915067       -24.9002
  27   2.0000      -0.909829       -24.7577
  28   2.0000      -0.870247       -23.6806
  29   2.0000      -0.854639       -23.2559
  30   2.0000      -0.845701       -23.0127
  31   2.0000      -0.812666       -22.1138
  32   2.0000      -0.793244       -21.5853
  33   2.0000      -0.774266       -21.0688
  34   2.0000      -0.712740       -19.3946
  35   2.0000      -0.705505       -19.1978
  36   2.0000      -0.699383       -19.0312
  37   2.0000      -0.661576       -18.0024
  38   2.0000      -0.642953       -17.4956
  39   2.0000      -0.622772       -16.9465
  40   2.0000      -0.603334       -16.4176
  41   2.0000      -0.567396       -15.4396
  42   2.0000      -0.560682       -15.2569
  43   2.0000      -0.551438       -15.0054
  44   2.0000      -0.535143       -14.5620
  45   2.0000      -0.526977       -14.3398
  46   2.0000      -0.517920       -14.0933
  47   2.0000      -0.508418       -13.8348
  48   2.0000      -0.505580       -13.7575
  49   2.0000      -0.500987       -13.6326
  50   2.0000      -0.489497       -13.3199
  51   2.0000      -0.480527       -13.0758
  52   2.0000      -0.472484       -12.8569
  53   2.0000      -0.463371       -12.6090
  54   2.0000      -0.458033       -12.4637
  55   2.0000      -0.449580       -12.2337
  56   2.0000      -0.444842       -12.1048
  57   2.0000      -0.442484       -12.0406
  58   2.0000      -0.434749       -11.8301
  59   2.0000      -0.432844       -11.7783
  60   2.0000      -0.425544       -11.5797
  61   2.0000      -0.414308       -11.2739
  62   2.0000      -0.406437       -11.0597
  63   2.0000      -0.352930        -9.6037
  64   2.0000      -0.334199        -9.0940
  65   2.0000      -0.331200        -9.0124
  66   2.0000      -0.278621        -7.5817
  67   0.0000       0.018577         0.5055
  68   0.0000       0.081379         2.2144
  69   0.0000       0.101093         2.7509
  70   0.0000       0.118100         3.2137
  71   0.0000       0.134343         3.6557

MULLIKEN ATOMIC CHARGES
-----------------------
   0 S :    0.103666
   1 C :   -0.105515
   2 C :   -0.053437
   3 C :   -0.014356
   4 C :   -0.140198
   5 H :    0.015190
   6 C :    0.097105
   7 H :   -0.009945
   8 H :    0.011974
   9 C :   -0.053922
  10 H :    0.015846
  11 H :    0.030470
  12 C :   -0.066432
  13 H :    0.027180
  14 H :    0.035444
  15 H :    0.033462
  16 S :    0.125435
  17 C :   -0.104100
  18 C :   -0.028467
  19 C :   -0.062622
  20 C :   -0.142711
  21 H :    0.005414
  22 C :    0.118957
  23 H :    0.030789
  24 H :    0.012978
  25 C :   -0.071534
  26 H :    0.020286
  27 H :    0.025359
  28 C :   -0.056591
  29 H :    0.017154
  30 H :    0.040215
  31 H :    0.049273
  32 H :    0.035478
  33 H :    0.058155
Sum of atomic charges:    0.0000000

LOEWDIN ATOMIC CHARGES
----------------------
   0 S :    0.383264
   1 C :   -0.178206
   2 C :   -0.058869
   3 C :   -0.068801
   4 C :   -0.176704
   5 H :    0.034739
   6 C :   -0.037243
   7 H :    0.021168
   8 H :    0.030575
   9 C :   -0.037737
  10 H :    0.021669
  11 H :    0.025641
  12 C :   -0.073786
  13 H :    0.018540
  14 H :    0.030228
  15 H :    0.033052
  16 S :    0.432503
  17 C :   -0.205234
  18 C :   -0.073772
  19 C :   -0.046138
  20 C :   -0.197774
  21 H :    0.021795
  22 C :   -0.035534
  23 H :    0.027429
  24 H :    0.035217
  25 C :   -0.041315
  26 H :    0.020311
  27 H :    0.030936
  28 C :   -0.071176
  29 H :    0.022482
  30 H :    0.030386
  31 H :    0.033516
  32 H :    0.019514
  33 H :    0.029327

  Mayer bond orders larger than 0.100000
B(  0-S ,  1-C ) :   1.1305 B(  0-S ,  4-C ) :   1.1341 B(  1-C ,  2-C ) :   1.5940
B(  1-C , 32-H ) :   0.9770 B(  2-C ,  3-C ) :   1.2430 B(  2-C ,  6-C ) :   1.0482
B(  3-C ,  4-C ) :   1.5602 B(  3-C ,  5-H ) :   0.9816 B(  4-C , 20-C ) :   1.1119
B(  6-C ,  7-H ) :   0.9259 B(  6-C ,  8-H ) :   0.9320 B(  6-C ,  9-C ) :   1.0512
B(  9-C , 10-H ) :   0.9556 B(  9-C , 11-H ) :   0.9612 B(  9-C , 12-C ) :   1.0688
B( 12-C , 13-H ) :   0.9794 B( 12-C , 14-H ) :   0.9771 B( 12-C , 15-H ) :   0.9754
B( 16-S , 17-C ) :   1.1891 B( 16-S , 20-C ) :   1.1345 B( 17-C , 18-C ) :   1.5766
B( 17-C , 33-H ) :   0.9645 B( 18-C , 19-C ) :   1.2587 B( 18-C , 21-H ) :   0.9848
B( 19-C , 20-C ) :   1.5610 B( 19-C , 22-C ) :   1.0447 B( 22-C , 23-H ) :   0.9219
B( 22-C , 24-H ) :   0.9098 B( 22-C , 25-C ) :   1.0634 B( 25-C , 26-H ) :   0.9464
B( 25-C , 27-H ) :   0.9507 B( 25-C , 28-C ) :   1.0876 B( 28-C , 29-H ) :   0.9690
B( 28-C , 30-H ) :   0.9741 B( 28-C , 31-H ) :   0.9685

Dispersion correction           -0.013823206
FINAL SINGLE POINT ENERGY     -1339.861245197889

DIPOLE MOMENT
-------------
                                X             Y             Z
Electronic contribution:     -2.31357     -13.56192     -26.09330
Nuclear contribution   :      2.43246      14.09631      26.56431
                        -----------------------------------------
Total Dipole Moment    :      0.11889       0.53439       0.47101
                        -----------------------------------------
Magnitude (a.u.)       :      0.72219
Magnitude (Debye)      :      1.83566

Rotational constants in cm-1:     0.018652     0.008337     0.006135
Rotational constants in MHz :   559.167921   249.931206   183.930863

                             ****ORCA TERMINATED NORMALLY****
TOTAL RUN TIME: 0 days 0 hours 0 minutes 31 seconds 77 msec
