                         Program Version 4.2.1 -  RELEASE  -
|  1> ! wB97X-D3 SP def2-SVP
|  2> %pal
|  3> nprocs 16
|  4> end
|  5>
|  6> * xyz 0 1
|  7> S 	 -58.534 	 51.6025 	 135.088
|  8> C 	 -57.7152 	 50.7537 	 136.334
|  9> C 	 -58.3801 	 50.8828 	 137.535
| 10> C 	 -59.5897 	 51.6305 	 137.398
| 11> C 	 -59.8781 	 52.06 	 136.141
| 12> H 	 -60.3789 	 51.7357 	 138.151
| 13> C 	 -58.0038 	 50.0786 	 138.845
| 14> H 	 -57.087 	 49.4925 	 138.762
| 15> H 	 -58.7212 	 49.2625 	 138.725
| 16> C 	 -58.2079 	 50.8426 	 140.118
| 17> H 	 -59.0815 	 51.3706 	 140.299
| 18> H 	 -58.2149 	 50.0793 	 140.912
| 19> C 	 -57.0833 	 51.8209 	 140.489
| 20> H 	 -56.8681 	 52.5501 	 139.668
| 21> H 	 -57.1707 	 52.3982 	 141.443
| 22> H 	 -56.2294 	 51.2259 	 140.654
| 23> S 	 -61.9516 	 52.0383 	 134.322
| 24> C 	 -63.3673 	 53.1104 	 134.517
| 25> C 	 -63.1578 	 53.9727 	 135.572
| 26> C 	 -61.8577 	 53.8516 	 136.187
| 27> C 	 -61.131 	 52.7862 	 135.697
| 28> H 	 -63.8999 	 54.7103 	 135.848
| 29> C 	 -61.428 	 54.7963 	 137.305
| 30> H 	 -60.547 	 54.3106 	 137.83
| 31> H 	 -62.1458 	 54.8422 	 138.133
| 32> C 	 -61.0053 	 56.26 	 136.875
| 33> H 	 -61.8791 	 56.8611 	 136.546
| 34> H 	 -60.3894 	 56.2383 	 135.992
| 35> C 	 -60.3495 	 56.9631 	 138.059
| 36> H 	 -59.3452 	 56.5716 	 138.342
| 37> H 	 -61.0981 	 56.8614 	 138.874
| 38> H 	 -60.29 	 58.0366 	 137.785
| 39> H 	 -56.8628 	 50.171 	 136.303
| 40> H 	 -64.2808 	 53.0848 	 134.035
| 41> *
| 42>
| 43>                          ****END OF INPUT****

CARTESIAN COORDINATES (ANGSTROEM)
---------------------------------
  S    -58.534000   51.602500  135.088000
  C    -57.715200   50.753700  136.334000
  C    -58.380100   50.882800  137.535000
  C    -59.589700   51.630500  137.398000
  C    -59.878100   52.060000  136.141000
  H    -60.378900   51.735700  138.151000
  C    -58.003800   50.078600  138.845000
  H    -57.087000   49.492500  138.762000
  H    -58.721200   49.262500  138.725000
  C    -58.207900   50.842600  140.118000
  H    -59.081500   51.370600  140.299000
  H    -58.214900   50.079300  140.912000
  C    -57.083300   51.820900  140.489000
  H    -56.868100   52.550100  139.668000
  H    -57.170700   52.398200  141.443000
  H    -56.229400   51.225900  140.654000
  S    -61.951600   52.038300  134.322000
  C    -63.367300   53.110400  134.517000
  C    -63.157800   53.972700  135.572000
  C    -61.857700   53.851600  136.187000
  C    -61.131000   52.786200  135.697000
  H    -63.899900   54.710300  135.848000
  C    -61.428000   54.796300  137.305000
  H    -60.547000   54.310600  137.830000
  H    -62.145800   54.842200  138.133000
  C    -61.005300   56.260000  136.875000
  H    -61.879100   56.861100  136.546000
  H    -60.389400   56.238300  135.992000
  C    -60.349500   56.963100  138.059000
  H    -59.345200   56.571600  138.342000
  H    -61.098100   56.861400  138.874000
  H    -60.290000   58.036600  137.785000
  H    -56.862800   50.171000  136.303000
  H    -64.280800   53.084800  134.035000

 Total Charge           Charge          ....    0
 Multiplicity           Mult            ....    1
 Number of Electrons    NEL             ....  134
 Basis Dimension        Dim             ....  322

ORBITAL ENERGIES
----------------

  NO   OCC          E(Eh)            E(eV)
   0   2.0000     -88.965561     -2420.8760
   1   2.0000     -88.965225     -2420.8669
   2   2.0000     -10.335311      -281.2381
   3   2.0000     -10.333884      -281.1993
   4   2.0000     -10.316757      -280.7332
   5   2.0000     -10.307335      -280.4769
   6   2.0000     -10.305918      -280.4383
   7   2.0000     -10.302662      -280.3497
   8   2.0000     -10.300552      -280.2923
   9   2.0000     -10.298031      -280.2237
  10   2.0000     -10.295532      -280.1557
  11   2.0000     -10.292944      -280.0852
  12   2.0000     -10.288421      -279.9622
  13   2.0000     -10.284281      -279.8495
  14   2.0000     -10.283786      -279.8361
  15   2.0000     -10.276176      -279.6290
  16   2.0000      -8.080412      -219.8792
  17   2.0000      -8.079186      -219.8458
  18   2.0000      -6.039006      -164.3297
  19   2.0000      -6.037910      -164.2999
  20   2.0000      -6.034824      -164.2159
  21   2.0000      -6.033731      -164.1862
  22   2.0000      -6.031135      -164.1155
  23   2.0000      -6.029805      -164.0793
  24   2.0000      -1.004714       -27.3397
  25   2.0000      -0.983456       -26.7612
  26   2.0000      -0.912106       -24.8197
  27   2.0000      -0.901118       -24.5207
  28   2.0000      -0.869040       -23.6478
  29   2.0000      -0.849431       -23.1142
  30   2.0000      -0.843078       -22.9413
  31   2.0000      -0.820642       -22.3308
  32   2.0000      -0.781654       -21.2699
  33   2.0000      -0.767573       -20.8867
  34   2.0000      -0.708683       -19.2842
  35   2.0000      -0.696461       -18.9517
  36   2.0000      -0.695574       -18.9275
  37   2.0000      -0.662799       -18.0357
  38   2.0000      -0.644836       -17.5469
  39   2.0000      -0.621194       -16.9036
  40   2.0000      -0.595198       -16.1962
  41   2.0000      -0.572698       -15.5839
  42   2.0000      -0.559516       -15.2252
  43   2.0000      -0.555075       -15.1044
  44   2.0000      -0.536802       -14.6071
  45   2.0000      -0.522816       -14.2265
  46   2.0000      -0.518067       -14.0973
  47   2.0000      -0.512326       -13.9411
  48   2.0000      -0.505926       -13.7669
  49   2.0000      -0.499643       -13.5960
  50   2.0000      -0.486350       -13.2343
  51   2.0000      -0.475713       -12.9448
  52   2.0000      -0.469011       -12.7624
  53   2.0000      -0.465002       -12.6533
  54   2.0000      -0.462907       -12.5963
  55   2.0000      -0.447914       -12.1884
  56   2.0000      -0.441624       -12.0172
  57   2.0000      -0.437828       -11.9139
  58   2.0000      -0.434546       -11.8246
  59   2.0000      -0.423782       -11.5317
  60   2.0000      -0.418445       -11.3865
  61   2.0000      -0.416193       -11.3252
  62   2.0000      -0.403508       -10.9800
  63   2.0000      -0.350651        -9.5417
  64   2.0000      -0.329823        -8.9749
  65   2.0000      -0.327575        -8.9138
  66   2.0000      -0.298305        -8.1173
  67   0.0000       0.033081         0.9002
  68   0.0000       0.071995         1.9591
  69   0.0000       0.114079         3.1042
  70   0.0000       0.125544         3.4162
  71   0.0000       0.131646         3.5823

MULLIKEN ATOMIC CHARGES
-----------------------
   0 S :    0.114060
   1 C :   -0.078953
   2 C :   -0.105070
   3 C :    0.017839
   4 C :   -0.140420
   5 H :    0.023278
   6 C :    0.068601
   7 H :    0.018580
   8 H :    0.043220
   9 C :   -0.039326
  10 H :    0.017343
  11 H :    0.020067
  12 C :   -0.062575
  13 H :    0.043925
  14 H :    0.038275
  15 H :    0.009727
  16 S :    0.093074
  17 C :   -0.053642
  18 C :   -0.037600
  19 C :   -0.020953
  20 C :   -0.153367
  21 H :    0.022009
  22 C :    0.012655
  23 H :    0.025644
  24 H :    0.026913
  25 C :   -0.068758
  26 H :    0.028293
  27 H :    0.032001
  28 C :   -0.062889
  29 H :    0.053113
  30 H :    0.031140
  31 H :    0.039944
  32 H :    0.012631
  33 H :    0.031220
Sum of atomic charges:   -0.0000000

LOEWDIN ATOMIC CHARGES
----------------------
   0 S :    0.408552
   1 C :   -0.201025
   2 C :   -0.062425
   3 C :   -0.071897
   4 C :   -0.189341
   5 H :    0.034166
   6 C :   -0.027057
   7 H :    0.032017
   8 H :    0.040545
   9 C :   -0.042673
  10 H :    0.015904
  11 H :    0.029283
  12 C :   -0.068260
  13 H :    0.029783
  14 H :    0.030880
  15 H :    0.014591
  16 S :    0.384644
  17 C :   -0.162587
  18 C :   -0.064711
  19 C :   -0.060535
  20 C :   -0.184300
  21 H :    0.031856
  22 C :   -0.040758
  23 H :    0.034887
  24 H :    0.027534
  25 C :   -0.039770
  26 H :    0.024817
  27 H :    0.021701
  28 C :   -0.068707
  29 H :    0.030372
  30 H :    0.027457
  31 H :    0.030292
  32 H :    0.016852
  33 H :    0.017912

  Mayer bond orders larger than 0.100000
B(  0-S ,  1-C ) :   1.1368 B(  0-S ,  4-C ) :   1.1468 B(  1-C ,  2-C ) :   1.6206
B(  1-C , 32-H ) :   0.9759 B(  2-C ,  3-C ) :   1.2378 B(  2-C ,  6-C ) :   0.9988
B(  3-C ,  4-C ) :   1.6083 B(  3-C ,  5-H ) :   0.9864 B(  4-C , 20-C ) :   0.9945
B(  6-C ,  7-H ) :   0.9462 B(  6-C ,  8-H ) :   0.9396 B(  6-C ,  9-C ) :   1.0671
B(  9-C , 10-H ) :   0.9603 B(  9-C , 11-H ) :   0.9502 B(  9-C , 12-C ) :   1.0701
B( 12-C , 13-H ) :   0.9770 B( 12-C , 14-H ) :   0.9753 B( 12-C , 15-H ) :   0.9758
B( 16-S , 17-C ) :   1.1322 B( 16-S , 20-C ) :   1.1313 B( 17-C , 18-C ) :   1.6387
B( 17-C , 33-H ) :   0.9755 B( 18-C , 19-C ) :   1.2155 B( 18-C , 21-H ) :   0.9876
B( 19-C , 20-C ) :   1.6319 B( 19-C , 22-C ) :   1.0432 B( 22-C , 23-H ) :   0.9407
B( 22-C , 24-H ) :   0.9366 B( 22-C , 25-C ) :   1.0470 B( 25-C , 26-H ) :   0.9546
B( 25-C , 27-H ) :   0.9571 B( 25-C , 28-C ) :   1.0819 B( 28-C , 29-H ) :   0.9753
B( 28-C , 30-H ) :   0.9725 B( 28-C , 31-H ) :   0.9735

Dispersion correction           -0.013698883
FINAL SINGLE POINT ENERGY     -1339.870831722309

DIPOLE MOMENT
-------------
                                X             Y             Z
Electronic contribution:     -6.94888     -11.90017     -26.25854
Nuclear contribution   :      6.78866      11.97050      26.95513
                        -----------------------------------------
Total Dipole Moment    :     -0.16022       0.07033       0.69659
                        -----------------------------------------
Magnitude (a.u.)       :      0.71823
Magnitude (Debye)      :      1.82560

Rotational constants in cm-1:     0.016358     0.009055     0.006758
Rotational constants in MHz :   490.387425   271.472465   202.592448

                             ****ORCA TERMINATED NORMALLY****
TOTAL RUN TIME: 0 days 0 hours 0 minutes 34 seconds 66 msec
