                         Program Version 4.2.1 -  RELEASE  -
|  1> ! wB97X-D3 SP def2-SVP
|  2> %pal
|  3> nprocs 16
|  4> end
|  5>
|  6> * xyz 0 1
|  7> S 	 3.94124 	 78.821 	 48.6364
|  8> C 	 3.61503 	 79.7789 	 50.0382
|  9> C 	 3.33084 	 79.0136 	 51.1487
| 10> C 	 3.187 	 77.6321 	 50.7914
| 11> C 	 3.28193 	 77.4381 	 49.452
| 12> H 	 2.80956 	 76.8533 	 51.3936
| 13> C 	 3.02956 	 79.5056 	 52.4918
| 14> H 	 3.62158 	 80.4092 	 52.4832
| 15> H 	 3.50763 	 78.827 	 53.1941
| 16> C 	 1.57158 	 79.8031 	 52.708
| 17> H 	 1.32892 	 79.7754 	 53.7768
| 18> H 	 1.24963 	 80.834 	 52.4125
| 19> C 	 0.577793 	 78.8669 	 52.0532
| 20> H 	 -0.483244 	 79.0441 	 52.5187
| 21> H 	 0.388748 	 78.8448 	 50.9068
| 22> H 	 0.773589 	 77.8569 	 52.4054
| 23> S 	 3.71625 	 76.0982 	 47.0803
| 24> C 	 3.28077 	 74.3449 	 46.8893
| 25> C 	 2.55034 	 73.9048 	 48.0094
| 26> C 	 2.466 	 74.9212 	 49.0431
| 27> C 	 3.10264 	 76.1495 	 48.7453
| 28> H 	 2.34363 	 72.8711 	 48.0332
| 29> C 	 1.62364 	 74.6078 	 50.3024
| 30> H 	 0.72005 	 74.0822 	 49.9843
| 31> H 	 1.345 	 75.4934 	 50.9121
| 32> C 	 2.32609 	 73.6862 	 51.2168
| 33> H 	 2.69937 	 72.8198 	 50.6329
| 34> H 	 1.56709 	 73.1332 	 51.78
| 35> C 	 3.3923 	 74.1619 	 52.1525
| 36> H 	 3.52988 	 73.4401 	 52.949
| 37> H 	 2.97688 	 75.1338 	 52.5165
| 38> H 	 4.38358 	 74.3001 	 51.6855
| 39> H 	 3.78677 	 80.7938 	 50.0849
| 40> H 	 3.48268 	 73.712 	 46.0258
| 41> *
| 42>
| 43>                          ****END OF INPUT****

CARTESIAN COORDINATES (ANGSTROEM)
---------------------------------
  S      3.941240   78.821000   48.636400
  C      3.615030   79.778900   50.038200
  C      3.330840   79.013600   51.148700
  C      3.187000   77.632100   50.791400
  C      3.281930   77.438100   49.452000
  H      2.809560   76.853300   51.393600
  C      3.029560   79.505600   52.491800
  H      3.621580   80.409200   52.483200
  H      3.507630   78.827000   53.194100
  C      1.571580   79.803100   52.708000
  H      1.328920   79.775400   53.776800
  H      1.249630   80.834000   52.412500
  C      0.577793   78.866900   52.053200
  H     -0.483244   79.044100   52.518700
  H      0.388748   78.844800   50.906800
  H      0.773589   77.856900   52.405400
  S      3.716250   76.098200   47.080300
  C      3.280770   74.344900   46.889300
  C      2.550340   73.904800   48.009400
  C      2.466000   74.921200   49.043100
  C      3.102640   76.149500   48.745300
  H      2.343630   72.871100   48.033200
  C      1.623640   74.607800   50.302400
  H      0.720050   74.082200   49.984300
  H      1.345000   75.493400   50.912100
  C      2.326090   73.686200   51.216800
  H      2.699370   72.819800   50.632900
  H      1.567090   73.133200   51.780000
  C      3.392300   74.161900   52.152500
  H      3.529880   73.440100   52.949000
  H      2.976880   75.133800   52.516500
  H      4.383580   74.300100   51.685500
  H      3.786770   80.793800   50.084900
  H      3.482680   73.712000   46.025800

 Total Charge           Charge          ....    0
 Multiplicity           Mult            ....    1
 Number of Electrons    NEL             ....  134
 Basis Dimension        Dim             ....  322

ORBITAL ENERGIES
----------------

  NO   OCC          E(Eh)            E(eV)
   0   2.0000     -88.965422     -2420.8722
   1   2.0000     -88.964328     -2420.8424
   2   2.0000     -10.335964      -281.2559
   3   2.0000     -10.328560      -281.0544
   4   2.0000     -10.327270      -281.0193
   5   2.0000     -10.312578      -280.6195
   6   2.0000     -10.304830      -280.4087
   7   2.0000     -10.299904      -280.2746
   8   2.0000     -10.295432      -280.1530
   9   2.0000     -10.294287      -280.1218
  10   2.0000     -10.291306      -280.0407
  11   2.0000     -10.289086      -279.9803
  12   2.0000     -10.286351      -279.9058
  13   2.0000     -10.284888      -279.8660
  14   2.0000     -10.280560      -279.7483
  15   2.0000     -10.279150      -279.7099
  16   2.0000      -8.081002      -219.8952
  17   2.0000      -8.077783      -219.8077
  18   2.0000      -6.039517      -164.3436
  19   2.0000      -6.036512      -164.2618
  20   2.0000      -6.035683      -164.2393
  21   2.0000      -6.032541      -164.1538
  22   2.0000      -6.031422      -164.1233
  23   2.0000      -6.028322      -164.0390
  24   2.0000      -1.009391       -27.4669
  25   2.0000      -0.976799       -26.5800
  26   2.0000      -0.923557       -25.1313
  27   2.0000      -0.916365       -24.9356
  28   2.0000      -0.868175       -23.6242
  29   2.0000      -0.851776       -23.1780
  30   2.0000      -0.841658       -22.9027
  31   2.0000      -0.820821       -22.3357
  32   2.0000      -0.784940       -21.3593
  33   2.0000      -0.775521       -21.1030
  34   2.0000      -0.704622       -19.1737
  35   2.0000      -0.701634       -19.0924
  36   2.0000      -0.688288       -18.7293
  37   2.0000      -0.660434       -17.9713
  38   2.0000      -0.644856       -17.5474
  39   2.0000      -0.620129       -16.8746
  40   2.0000      -0.594957       -16.1896
  41   2.0000      -0.575566       -15.6620
  42   2.0000      -0.565856       -15.3977
  43   2.0000      -0.552414       -15.0320
  44   2.0000      -0.551834       -15.0162
  45   2.0000      -0.535126       -14.5615
  46   2.0000      -0.516876       -14.0649
  47   2.0000      -0.515041       -14.0150
  48   2.0000      -0.505375       -13.7519
  49   2.0000      -0.502081       -13.6623
  50   2.0000      -0.489617       -13.3232
  51   2.0000      -0.473132       -12.8746
  52   2.0000      -0.470653       -12.8071
  53   2.0000      -0.465783       -12.6746
  54   2.0000      -0.462467       -12.5844
  55   2.0000      -0.453109       -12.3297
  56   2.0000      -0.445999       -12.1362
  57   2.0000      -0.434983       -11.8365
  58   2.0000      -0.432110       -11.7583
  59   2.0000      -0.420626       -11.4458
  60   2.0000      -0.413814       -11.2605
  61   2.0000      -0.410577       -11.1724
  62   2.0000      -0.398401       -10.8410
  63   2.0000      -0.360571        -9.8116
  64   2.0000      -0.335819        -9.1381
  65   2.0000      -0.323034        -8.7902
  66   2.0000      -0.281652        -7.6641
  67   0.0000       0.018805         0.5117
  68   0.0000       0.080298         2.1850
  69   0.0000       0.087236         2.3738
  70   0.0000       0.110174         2.9980
  71   0.0000       0.128240         3.4896

MULLIKEN ATOMIC CHARGES
-----------------------
   0 S :    0.103335
   1 C :   -0.075507
   2 C :   -0.128516
   3 C :    0.043637
   4 C :   -0.087163
   5 H :   -0.068560
   6 C :    0.125103
   7 H :    0.014577
   8 H :    0.031895
   9 C :   -0.044245
  10 H :    0.029357
  11 H :    0.032784
  12 C :   -0.110458
  13 H :    0.036709
  14 H :    0.071727
  15 H :    0.017182
  16 S :    0.065012
  17 C :   -0.099616
  18 C :   -0.023851
  19 C :   -0.061149
  20 C :   -0.107697
  21 H :    0.020268
  22 C :    0.066891
  23 H :    0.029941
  24 H :    0.027914
  25 C :   -0.103141
  26 H :    0.009841
  27 H :    0.014822
  28 C :   -0.021143
  29 H :    0.034636
  30 H :    0.029828
  31 H :    0.050117
  32 H :    0.009530
  33 H :    0.065940
Sum of atomic charges:    0.0000000

LOEWDIN ATOMIC CHARGES
----------------------
   0 S :    0.408690
   1 C :   -0.189502
   2 C :   -0.055882
   3 C :   -0.058078
   4 C :   -0.182144
   5 H :    0.013574
   6 C :   -0.038683
   7 H :    0.036018
   8 H :    0.036224
   9 C :   -0.045823
  10 H :    0.030343
  11 H :    0.030629
  12 C :   -0.084766
  13 H :    0.035507
  14 H :    0.040804
  15 H :    0.014422
  16 S :    0.358993
  17 C :   -0.163605
  18 C :   -0.065207
  19 C :   -0.057946
  20 C :   -0.179531
  21 H :    0.027975
  22 C :   -0.032107
  23 H :    0.038160
  24 H :    0.028387
  25 C :   -0.057895
  26 H :    0.021705
  27 H :    0.022984
  28 C :   -0.062646
  29 H :    0.029450
  30 H :    0.024153
  31 H :    0.032443
  32 H :    0.009988
  33 H :    0.033365

  Mayer bond orders larger than 0.100000
B(  0-S ,  1-C ) :   1.1275 B(  0-S ,  4-C ) :   1.1414 B(  1-C ,  2-C ) :   1.6243
B(  1-C , 32-H ) :   0.9765 B(  2-C ,  3-C ) :   1.2022 B(  2-C ,  6-C ) :   1.0374
B(  3-C ,  4-C ) :   1.6013 B(  3-C ,  5-H ) :   0.9943 B(  4-C , 20-C ) :   1.0710
B(  6-C ,  7-H ) :   0.9255 B(  6-C ,  8-H ) :   0.9304 B(  6-C ,  9-C ) :   1.0673
B(  9-C , 10-H ) :   0.9509 B(  9-C , 11-H ) :   0.9508 B(  9-C , 12-C ) :   1.0995
B( 12-C , 13-H ) :   0.9685 B( 12-C , 14-H ) :   0.9651 B( 12-C , 15-H ) :   0.9683
B( 16-S , 17-C ) :   1.1348 B( 16-S , 20-C ) :   1.1183 B( 17-C , 18-C ) :   1.6374
B( 17-C , 33-H ) :   0.9660 B( 18-C , 19-C ) :   1.2182 B( 18-C , 21-H ) :   0.9892
B( 19-C , 20-C ) :   1.6022 B( 19-C , 22-C ) :   1.0330 B( 22-C , 23-H ) :   0.9292
B( 22-C , 24-H ) :   0.9378 B( 22-C , 25-C ) :   1.0962 B( 25-C , 26-H ) :   0.9401
B( 25-C , 27-H ) :   0.9487 B( 25-C , 28-C ) :   1.0813 B( 28-C , 29-H ) :   0.9673
B( 28-C , 30-H ) :   0.9645 B( 28-C , 31-H ) :   0.9733

Dispersion correction           -0.015804227
FINAL SINGLE POINT ENERGY     -1339.855288960623

DIPOLE MOMENT
-------------
                                X             Y             Z
Electronic contribution:     11.70772       5.08239     -25.27115
Nuclear contribution   :    -12.01282      -5.39699      25.90796
                        -----------------------------------------
Total Dipole Moment    :     -0.30510      -0.31460       0.63681
                        -----------------------------------------
Magnitude (a.u.)       :      0.77304
Magnitude (Debye)      :      1.96490

Rotational constants in cm-1:     0.018780     0.010586     0.007598
Rotational constants in MHz :   563.021019   317.345797   227.776351

                             ****ORCA TERMINATED NORMALLY****
TOTAL RUN TIME: 0 days 0 hours 0 minutes 37 seconds 676 msec
