                         Program Version 4.2.1 -  RELEASE  -
|  1> ! wB97X-D3 SP def2-SVP
|  2> %pal
|  3> nprocs 16
|  4> end
|  5>
|  6> * xyz 0 1
|  7> S 	 -74.0311 	 36.5618 	 123.415
|  8> C 	 -72.5562 	 35.8565 	 122.753
|  9> C 	 -71.4238 	 36.5102 	 123.197
| 10> C 	 -71.8091 	 37.6613 	 123.987
| 11> C 	 -73.1489 	 37.9157 	 124.083
| 12> H 	 -71.2031 	 38.3317 	 124.469
| 13> C 	 -69.9867 	 36.265 	 122.841
| 14> H 	 -69.5128 	 37.1966 	 122.732
| 15> H 	 -70.0707 	 35.7108 	 121.861
| 16> C 	 -69.2161 	 35.4308 	 123.895
| 17> H 	 -69.4263 	 35.7852 	 124.899
| 18> H 	 -69.3339 	 34.3488 	 123.794
| 19> C 	 -67.6779 	 35.6045 	 123.768
| 20> H 	 -67.3469 	 35.2507 	 122.753
| 21> H 	 -67.2907 	 36.6138 	 123.881
| 22> H 	 -67.1367 	 34.991 	 124.509
| 23> S 	 -75.3856 	 38.6754 	 125.288
| 24> C 	 -75.7208 	 40.3566 	 125.696
| 25> C 	 -74.5218 	 41.005 	 125.745
| 26> C 	 -73.4183 	 40.3044 	 125.182
| 27> C 	 -73.8139 	 39.0307 	 124.789
| 28> H 	 -74.5004 	 42.0566 	 126.011
| 29> C 	 -72.072 	 40.9886 	 124.861
| 30> H 	 -71.2849 	 40.4838 	 125.442
| 31> H 	 -72.0693 	 41.9327 	 125.317
| 32> C 	 -71.6972 	 41.0669 	 123.31
| 33> H 	 -72.4553 	 41.5358 	 122.702
| 34> H 	 -71.6421 	 40.0255 	 122.937
| 35> C 	 -70.4108 	 41.8592 	 122.959
| 36> H 	 -69.6265 	 41.2208 	 123.329
| 37> H 	 -70.4676 	 42.7985 	 123.493
| 38> H 	 -70.3258 	 42.0144 	 121.888
| 39> H 	 -72.6038 	 35.0863 	 121.998
| 40> H 	 -76.6413 	 40.7597 	 125.992
| 41> *
| 42>
| 43>                          ****END OF INPUT****

CARTESIAN COORDINATES (ANGSTROEM)
---------------------------------
  S    -74.031100   36.561800  123.415000
  C    -72.556200   35.856500  122.753000
  C    -71.423800   36.510200  123.197000
  C    -71.809100   37.661300  123.987000
  C    -73.148900   37.915700  124.083000
  H    -71.203100   38.331700  124.469000
  C    -69.986700   36.265000  122.841000
  H    -69.512800   37.196600  122.732000
  H    -70.070700   35.710800  121.861000
  C    -69.216100   35.430800  123.895000
  H    -69.426300   35.785200  124.899000
  H    -69.333900   34.348800  123.794000
  C    -67.677900   35.604500  123.768000
  H    -67.346900   35.250700  122.753000
  H    -67.290700   36.613800  123.881000
  H    -67.136700   34.991000  124.509000
  S    -75.385600   38.675400  125.288000
  C    -75.720800   40.356600  125.696000
  C    -74.521800   41.005000  125.745000
  C    -73.418300   40.304400  125.182000
  C    -73.813900   39.030700  124.789000
  H    -74.500400   42.056600  126.011000
  C    -72.072000   40.988600  124.861000
  H    -71.284900   40.483800  125.442000
  H    -72.069300   41.932700  125.317000
  C    -71.697200   41.066900  123.310000
  H    -72.455300   41.535800  122.702000
  H    -71.642100   40.025500  122.937000
  C    -70.410800   41.859200  122.959000
  H    -69.626500   41.220800  123.329000
  H    -70.467600   42.798500  123.493000
  H    -70.325800   42.014400  121.888000
  H    -72.603800   35.086300  121.998000
  H    -76.641300   40.759700  125.992000

 Total Charge           Charge          ....    0
 Multiplicity           Mult            ....    1
 Number of Electrons    NEL             ....  134
 Basis Dimension        Dim             ....  322

ORBITAL ENERGIES
----------------

  NO   OCC          E(Eh)            E(eV)
   0   2.0000     -88.963636     -2420.8236
   1   2.0000     -88.962357     -2420.7888
   2   2.0000     -10.329097      -281.0690
   3   2.0000     -10.326174      -280.9895
   4   2.0000     -10.315971      -280.7118
   5   2.0000     -10.311963      -280.6028
   6   2.0000     -10.304701      -280.4052
   7   2.0000     -10.304093      -280.3886
   8   2.0000     -10.297880      -280.2196
   9   2.0000     -10.296200      -280.1739
  10   2.0000     -10.292677      -280.0780
  11   2.0000     -10.291121      -280.0356
  12   2.0000     -10.287154      -279.9277
  13   2.0000     -10.285643      -279.8866
  14   2.0000     -10.282733      -279.8074
  15   2.0000     -10.276987      -279.6510
  16   2.0000      -8.078518      -219.8276
  17   2.0000      -8.078320      -219.8223
  18   2.0000      -6.036993      -164.2749
  19   2.0000      -6.036949      -164.2737
  20   2.0000      -6.032901      -164.1636
  21   2.0000      -6.032832      -164.1617
  22   2.0000      -6.029245      -164.0641
  23   2.0000      -6.028849      -164.0533
  24   2.0000      -1.014023       -27.5930
  25   2.0000      -0.987358       -26.8674
  26   2.0000      -0.912672       -24.8351
  27   2.0000      -0.900131       -24.4938
  28   2.0000      -0.872534       -23.7429
  29   2.0000      -0.852333       -23.1932
  30   2.0000      -0.845666       -23.0118
  31   2.0000      -0.820717       -22.3329
  32   2.0000      -0.780225       -21.2310
  33   2.0000      -0.773746       -21.0547
  34   2.0000      -0.705381       -19.1944
  35   2.0000      -0.700985       -19.0748
  36   2.0000      -0.692795       -18.8519
  37   2.0000      -0.669681       -18.2230
  38   2.0000      -0.645577       -17.5670
  39   2.0000      -0.620948       -16.8968
  40   2.0000      -0.595387       -16.2013
  41   2.0000      -0.574796       -15.6410
  42   2.0000      -0.562991       -15.3198
  43   2.0000      -0.558819       -15.2062
  44   2.0000      -0.529681       -14.4134
  45   2.0000      -0.527095       -14.3430
  46   2.0000      -0.521133       -14.1807
  47   2.0000      -0.518404       -14.1065
  48   2.0000      -0.502993       -13.6871
  49   2.0000      -0.500406       -13.6167
  50   2.0000      -0.498853       -13.5745
  51   2.0000      -0.486910       -13.2495
  52   2.0000      -0.470093       -12.7919
  53   2.0000      -0.467333       -12.7168
  54   2.0000      -0.454720       -12.3736
  55   2.0000      -0.445332       -12.1181
  56   2.0000      -0.444040       -12.0830
  57   2.0000      -0.436765       -11.8850
  58   2.0000      -0.435747       -11.8573
  59   2.0000      -0.430925       -11.7261
  60   2.0000      -0.421045       -11.4572
  61   2.0000      -0.414551       -11.2805
  62   2.0000      -0.412423       -11.2226
  63   2.0000      -0.359673        -9.7872
  64   2.0000      -0.332825        -9.0566
  65   2.0000      -0.325196        -8.8490
  66   2.0000      -0.285960        -7.7814
  67   0.0000       0.020031         0.5451
  68   0.0000       0.085159         2.3173
  69   0.0000       0.097764         2.6603
  70   0.0000       0.117129         3.1872
  71   0.0000       0.138585         3.7711

MULLIKEN ATOMIC CHARGES
-----------------------
   0 S :    0.094014
   1 C :   -0.125435
   2 C :   -0.067633
   3 C :    0.026757
   4 C :   -0.108622
   5 H :   -0.041166
   6 C :    0.095208
   7 H :    0.014334
   8 H :    0.034108
   9 C :   -0.058686
  10 H :    0.034342
  11 H :    0.040847
  12 C :   -0.089688
  13 H :    0.028987
  14 H :    0.030665
  15 H :    0.038241
  16 S :    0.089044
  17 C :   -0.069342
  18 C :   -0.034099
  19 C :   -0.059324
  20 C :   -0.123730
  21 H :    0.018659
  22 C :    0.088563
  23 H :    0.032295
  24 H :   -0.008642
  25 C :   -0.102862
  26 H :    0.028406
  27 H :    0.040385
  28 C :   -0.027495
  29 H :    0.024671
  30 H :    0.032279
  31 H :    0.042812
  32 H :    0.046269
  33 H :    0.035838
Sum of atomic charges:   -0.0000000

LOEWDIN ATOMIC CHARGES
----------------------
   0 S :    0.388373
   1 C :   -0.187046
   2 C :   -0.058106
   3 C :   -0.059848
   4 C :   -0.185754
   5 H :    0.011497
   6 C :   -0.026620
   7 H :    0.024753
   8 H :    0.041053
   9 C :   -0.034988
  10 H :    0.024804
  11 H :    0.029974
  12 C :   -0.073287
  13 H :    0.025168
  14 H :    0.018622
  15 H :    0.027551
  16 S :    0.422164
  17 C :   -0.174714
  18 C :   -0.066445
  19 C :   -0.065833
  20 C :   -0.200772
  21 H :    0.031308
  22 C :   -0.028324
  23 H :    0.030720
  24 H :    0.019440
  25 C :   -0.041132
  26 H :    0.021628
  27 H :    0.025053
  28 C :   -0.059015
  29 H :    0.021209
  30 H :    0.023873
  31 H :    0.028876
  32 H :    0.025624
  33 H :    0.020195

  Mayer bond orders larger than 0.100000
B(  0-S ,  1-C ) :   1.1282 B(  0-S ,  4-C ) :   1.1375 B(  1-C ,  2-C ) :   1.6204
B(  1-C , 32-H ) :   0.9708 B(  2-C ,  3-C ) :   1.2080 B(  2-C ,  6-C ) :   1.0278
B(  3-C ,  4-C ) :   1.5933 B(  3-C ,  5-H ) :   1.0048 B(  4-C , 20-C ) :   1.0528
B(  6-C ,  7-H ) :   0.9436 B(  6-C ,  8-H ) :   0.9343 B(  6-C ,  9-C ) :   1.0607
B(  9-C , 10-H ) :   0.9615 B(  9-C , 11-H ) :   0.9561 B(  9-C , 12-C ) :   1.0785
B( 12-C , 13-H ) :   0.9745 B( 12-C , 14-H ) :   0.9776 B( 12-C , 15-H ) :   0.9760
B( 16-S , 17-C ) :   1.1365 B( 16-S , 20-C ) :   1.1696 B( 17-C , 18-C ) :   1.6074
B( 17-C , 33-H ) :   0.9800 B( 18-C , 19-C ) :   1.2624 B( 18-C , 21-H ) :   0.9833
B( 19-C , 20-C ) :   1.5636 B( 19-C , 22-C ) :   1.0444 B( 22-C , 23-H ) :   0.9295
B( 22-C , 24-H ) :   0.9260 B( 22-C , 25-C ) :   1.0443 B( 25-C , 26-H ) :   0.9592
B( 25-C , 27-H ) :   0.9549 B( 25-C , 28-C ) :   1.0791 B( 28-C , 29-H ) :   0.9782
B( 28-C , 30-H ) :   0.9766 B( 28-C , 31-H ) :   0.9759

Dispersion correction           -0.014066507
FINAL SINGLE POINT ENERGY     -1339.872072528399

DIPOLE MOMENT
-------------
                                X             Y             Z
Electronic contribution:    -30.87917      -5.56561       5.77858
Nuclear contribution   :     31.47642       5.89417      -5.87114
                        -----------------------------------------
Total Dipole Moment    :      0.59725       0.32856      -0.09256
                        -----------------------------------------
Magnitude (a.u.)       :      0.68791
Magnitude (Debye)      :      1.74853

Rotational constants in cm-1:     0.018138     0.008954     0.006647
Rotational constants in MHz :   543.750980   268.425468   199.271788

                             ****ORCA TERMINATED NORMALLY****
TOTAL RUN TIME: 0 days 0 hours 0 minutes 32 seconds 186 msec
