                         Program Version 4.2.1 -  RELEASE  -
|  1> ! wB97X-D3 SP def2-SVP
|  2> %pal
|  3> nprocs 16
|  4> end
|  5>
|  6> * xyz 0 1
|  7> S 	 -39.1917 	 2.73962 	 100.106
|  8> C 	 -37.4859 	 3.06201 	 100.183
|  9> C 	 -36.9295 	 3.02908 	 98.8992
| 10> C 	 -37.875 	 2.7257 	 97.9178
| 11> C 	 -39.1365 	 2.54158 	 98.3655
| 12> H 	 -37.7178 	 2.62332 	 96.8443
| 13> C 	 -35.473 	 3.42913 	 98.6922
| 14> H 	 -35.0258 	 2.70871 	 98.035
| 15> H 	 -34.9916 	 3.33465 	 99.7307
| 16> C 	 -35.1004 	 4.7596 	 98.056
| 17> H 	 -35.4475 	 5.57973 	 98.7544
| 18> H 	 -34.0052 	 4.70587 	 98.0152
| 19> C 	 -35.6027 	 4.77435 	 96.5657
| 20> H 	 -36.6624 	 4.98179 	 96.69
| 21> H 	 -35.3139 	 5.67755 	 95.9844
| 22> H 	 -35.4447 	 3.81605 	 96.0219
| 23> S 	 -41.7412 	 2.79261 	 97.6253
| 24> C 	 -42.4651 	 1.53449 	 96.7015
| 25> C 	 -41.6203 	 0.521823 	 96.3033
| 26> C 	 -40.3033 	 0.816329 	 96.8151
| 27> C 	 -40.2605 	 1.9918 	 97.6221
| 28> H 	 -42.0389 	 -0.319154 	 95.7277
| 29> C 	 -39.1193 	 -0.0295647 	 96.5129
| 30> H 	 -38.8509 	 -0.783662 	 97.266
| 31> H 	 -38.1803 	 0.514498 	 96.4917
| 32> C 	 -39.2811 	 -0.676798 	 95.1498
| 33> H 	 -39.3913 	 0.175425 	 94.4907
| 34> H 	 -40.1949 	 -1.31241 	 95.0477
| 35> C 	 -38.0986 	 -1.58827 	 94.7123
| 36> H 	 -37.1622 	 -1.09874 	 94.8503
| 37> H 	 -38.1474 	 -1.93928 	 93.7183
| 38> H 	 -38.0631 	 -2.51828 	 95.3141
| 39> H 	 -36.999 	 3.43332 	 101.038
| 40> H 	 -43.5082 	 1.62877 	 96.2138
| 41> *
| 42>
| 43>                          ****END OF INPUT****

CARTESIAN COORDINATES (ANGSTROEM)
---------------------------------
  S    -39.191700    2.739620  100.106000
  C    -37.485900    3.062010  100.183000
  C    -36.929500    3.029080   98.899200
  C    -37.875000    2.725700   97.917800
  C    -39.136500    2.541580   98.365500
  H    -37.717800    2.623320   96.844300
  C    -35.473000    3.429130   98.692200
  H    -35.025800    2.708710   98.035000
  H    -34.991600    3.334650   99.730700
  C    -35.100400    4.759600   98.056000
  H    -35.447500    5.579730   98.754400
  H    -34.005200    4.705870   98.015200
  C    -35.602700    4.774350   96.565700
  H    -36.662400    4.981790   96.690000
  H    -35.313900    5.677550   95.984400
  H    -35.444700    3.816050   96.021900
  S    -41.741200    2.792610   97.625300
  C    -42.465100    1.534490   96.701500
  C    -41.620300    0.521823   96.303300
  C    -40.303300    0.816329   96.815100
  C    -40.260500    1.991800   97.622100
  H    -42.038900   -0.319154   95.727700
  C    -39.119300   -0.029565   96.512900
  H    -38.850900   -0.783662   97.266000
  H    -38.180300    0.514498   96.491700
  C    -39.281100   -0.676798   95.149800
  H    -39.391300    0.175425   94.490700
  H    -40.194900   -1.312410   95.047700
  C    -38.098600   -1.588270   94.712300
  H    -37.162200   -1.098740   94.850300
  H    -38.147400   -1.939280   93.718300
  H    -38.063100   -2.518280   95.314100
  H    -36.999000    3.433320  101.038000
  H    -43.508200    1.628770   96.213800

 Total Charge           Charge          ....    0
 Multiplicity           Mult            ....    1
 Number of Electrons    NEL             ....  134
 Basis Dimension        Dim             ....  322

ORBITAL ENERGIES
----------------

  NO   OCC          E(Eh)            E(eV)
   0   2.0000     -88.969109     -2420.9725
   1   2.0000     -88.963938     -2420.8318
   2   2.0000     -10.323987      -280.9300
   3   2.0000     -10.322526      -280.8902
   4   2.0000     -10.318838      -280.7899
   5   2.0000     -10.310681      -280.5679
   6   2.0000     -10.307841      -280.4906
   7   2.0000     -10.299190      -280.2552
   8   2.0000     -10.298878      -280.2467
   9   2.0000     -10.295173      -280.1459
  10   2.0000     -10.293571      -280.1023
  11   2.0000     -10.288286      -279.9585
  12   2.0000     -10.286765      -279.9171
  13   2.0000     -10.285646      -279.8867
  14   2.0000     -10.284895      -279.8662
  15   2.0000     -10.274126      -279.5732
  16   2.0000      -8.085408      -220.0151
  17   2.0000      -8.078982      -219.8403
  18   2.0000      -6.043635      -164.4557
  19   2.0000      -6.039639      -164.3469
  20   2.0000      -6.037385      -164.2856
  21   2.0000      -6.036443      -164.2600
  22   2.0000      -6.033405      -164.1773
  23   2.0000      -6.029881      -164.0814
  24   2.0000      -1.014116       -27.5955
  25   2.0000      -0.990798       -26.9610
  26   2.0000      -0.914464       -24.8838
  27   2.0000      -0.911117       -24.7928
  28   2.0000      -0.871694       -23.7200
  29   2.0000      -0.851286       -23.1647
  30   2.0000      -0.843804       -22.9611
  31   2.0000      -0.818493       -22.2723
  32   2.0000      -0.783982       -21.3332
  33   2.0000      -0.767984       -20.8979
  34   2.0000      -0.706847       -19.2343
  35   2.0000      -0.696444       -18.9512
  36   2.0000      -0.696231       -18.9454
  37   2.0000      -0.651601       -17.7310
  38   2.0000      -0.640882       -17.4393
  39   2.0000      -0.622313       -16.9340
  40   2.0000      -0.599146       -16.3036
  41   2.0000      -0.580002       -15.7827
  42   2.0000      -0.566177       -15.4065
  43   2.0000      -0.549241       -14.9456
  44   2.0000      -0.537570       -14.6280
  45   2.0000      -0.522294       -14.2123
  46   2.0000      -0.515896       -14.0382
  47   2.0000      -0.510627       -13.8949
  48   2.0000      -0.505696       -13.7607
  49   2.0000      -0.497836       -13.5468
  50   2.0000      -0.484040       -13.1714
  51   2.0000      -0.477217       -12.9857
  52   2.0000      -0.472089       -12.8462
  53   2.0000      -0.469639       -12.7795
  54   2.0000      -0.462692       -12.5905
  55   2.0000      -0.456152       -12.4125
  56   2.0000      -0.442580       -12.0432
  57   2.0000      -0.434919       -11.8347
  58   2.0000      -0.429437       -11.6856
  59   2.0000      -0.426764       -11.6128
  60   2.0000      -0.421363       -11.4659
  61   2.0000      -0.417248       -11.3539
  62   2.0000      -0.408599       -11.1185
  63   2.0000      -0.347431        -9.4541
  64   2.0000      -0.335277        -9.1234
  65   2.0000      -0.328929        -8.9506
  66   2.0000      -0.290796        -7.9130
  67   0.0000       0.033682         0.9165
  68   0.0000       0.069092         1.8801
  69   0.0000       0.117061         3.1854
  70   0.0000       0.122025         3.3205
  71   0.0000       0.128226         3.4892

MULLIKEN ATOMIC CHARGES
-----------------------
   0 S :    0.111832
   1 C :   -0.110770
   2 C :   -0.080472
   3 C :    0.011657
   4 C :   -0.141441
   5 H :    0.018478
   6 C :    0.032047
   7 H :    0.014203
   8 H :    0.031886
   9 C :   -0.057056
  10 H :    0.046276
  11 H :    0.037047
  12 C :   -0.090243
  13 H :    0.041430
  14 H :    0.043178
  15 H :    0.048140
  16 S :    0.137118
  17 C :   -0.125394
  18 C :   -0.055841
  19 C :   -0.024013
  20 C :   -0.165905
  21 H :    0.041112
  22 C :    0.091109
  23 H :    0.032126
  24 H :    0.003602
  25 C :   -0.138995
  26 H :    0.031978
  27 H :    0.039737
  28 C :   -0.007608
  29 H :    0.016557
  30 H :    0.024544
  31 H :    0.028182
  32 H :    0.034973
  33 H :    0.080525
Sum of atomic charges:    0.0000000

LOEWDIN ATOMIC CHARGES
----------------------
   0 S :    0.410518
   1 C :   -0.193284
   2 C :   -0.066230
   3 C :   -0.070296
   4 C :   -0.194703
   5 H :    0.033836
   6 C :   -0.038147
   7 H :    0.023391
   8 H :    0.037316
   9 C :   -0.040206
  10 H :    0.031934
  11 H :    0.025356
  12 C :   -0.078390
  13 H :    0.028864
  14 H :    0.031372
  15 H :    0.029759
  16 S :    0.455138
  17 C :   -0.211476
  18 C :   -0.076175
  19 C :   -0.046583
  20 C :   -0.231966
  21 H :    0.043325
  22 C :   -0.040788
  23 H :    0.034349
  24 H :    0.027540
  25 C :   -0.040664
  26 H :    0.023220
  27 H :    0.024369
  28 C :   -0.062390
  29 H :    0.018031
  30 H :    0.020980
  31 H :    0.028999
  32 H :    0.018282
  33 H :    0.044720

  Mayer bond orders larger than 0.100000
B(  0-S ,  1-C ) :   1.1531 B(  0-S ,  4-C ) :   1.1588 B(  1-C ,  2-C ) :   1.5809
B(  1-C ,  4-C ) :   0.1077 B(  1-C , 32-H ) :   0.9744 B(  2-C ,  3-C ) :   1.2550
B(  2-C ,  6-C ) :   1.0250 B(  3-C ,  4-C ) :   1.5805 B(  3-C ,  5-H ) :   0.9912
B(  4-C , 20-C ) :   1.0170 B(  6-C ,  7-H ) :   0.9352 B(  6-C ,  8-H ) :   0.9400
B(  6-C ,  9-C ) :   1.0691 B(  9-C , 10-H ) :   0.9562 B(  9-C , 11-H ) :   0.9534
B(  9-C , 12-C ) :   1.0624 B( 12-C , 13-H ) :   0.9714 B( 12-C , 14-H ) :   0.9709
B( 12-C , 15-H ) :   0.9718 B( 16-S , 17-C ) :   1.1826 B( 16-S , 20-C ) :   1.1710
B( 17-C , 18-C ) :   1.5985 B( 17-C , 33-H ) :   0.9488 B( 18-C , 19-C ) :   1.2539
B( 18-C , 21-H ) :   0.9875 B( 19-C , 20-C ) :   1.5468 B( 19-C , 22-C ) :   1.0523
B( 22-C , 23-H ) :   0.9172 B( 22-C , 24-H ) :   0.9314 B( 22-C , 25-C ) :   1.0619
B( 25-C , 26-H ) :   0.9612 B( 25-C , 27-H ) :   0.9474 B( 25-C , 28-C ) :   1.0843
B( 28-C , 29-H ) :   0.9737 B( 28-C , 30-H ) :   0.9732 B( 28-C , 31-H ) :   0.9726

Dispersion correction           -0.014232228
FINAL SINGLE POINT ENERGY     -1339.873920352112

DIPOLE MOMENT
-------------
                                X             Y             Z
Electronic contribution:    -21.80664       6.48662      16.33257
Nuclear contribution   :     22.18743      -6.62169     -16.79564
                        -----------------------------------------
Total Dipole Moment    :      0.38079      -0.13506      -0.46308
                        -----------------------------------------
Magnitude (a.u.)       :      0.61456
Magnitude (Debye)      :      1.56209

Rotational constants in cm-1:     0.016827     0.009224     0.007069
Rotational constants in MHz :   504.468157   276.524145   211.929142

                             ****ORCA TERMINATED NORMALLY****
TOTAL RUN TIME: 0 days 0 hours 0 minutes 31 seconds 67 msec
