                         Program Version 4.2.1 -  RELEASE  -
|  1> ! wB97X-D3 SP def2-SVP
|  2> %pal
|  3> nprocs 16
|  4> end
|  5>
|  6> * xyz 0 1
|  7> S 	 43.8253 	 21.7442 	 91.1374
|  8> C 	 44.7957 	 21.7592 	 92.6208
|  9> C 	 44.6341 	 22.9038 	 93.3517
| 10> C 	 43.736 	 23.8038 	 92.6917
| 11> C 	 43.2383 	 23.3277 	 91.488
| 12> H 	 43.4113 	 24.8128 	 93.0599
| 13> C 	 45.406 	 23.2617 	 94.5699
| 14> H 	 45.8869 	 22.3747 	 95.0259
| 15> H 	 44.7787 	 23.5563 	 95.4191
| 16> C 	 46.4476 	 24.3836 	 94.4757
| 17> H 	 47.3095 	 24.0624 	 93.9488
| 18> H 	 45.9813 	 25.1061 	 93.7631
| 19> C 	 46.8618 	 24.9819 	 95.813
| 20> H 	 46.0938 	 25.6357 	 96.239
| 21> H 	 46.9551 	 24.165 	 96.4547
| 22> H 	 47.7612 	 25.5024 	 95.7375
| 23> S 	 42.7208 	 23.8259 	 88.7784
| 24> C 	 41.6303 	 25.0773 	 88.3752
| 25> C 	 40.8566 	 25.4587 	 89.4567
| 26> C 	 41.181 	 24.8133 	 90.6765
| 27> C 	 42.3133 	 23.9957 	 90.5454
| 28> H 	 40.0207 	 26.1362 	 89.2301
| 29> C 	 40.3958 	 25.1249 	 91.9903
| 30> H 	 40.6543 	 24.3982 	 92.6986
| 31> H 	 39.3136 	 25.0919 	 91.9708
| 32> C 	 40.8597 	 26.4686 	 92.5323
| 33> H 	 40.3484 	 27.2684 	 91.9261
| 34> H 	 41.9492 	 26.5474 	 92.3588
| 35> C 	 40.6668 	 26.7276 	 94.0743
| 36> H 	 39.6822 	 27.0219 	 94.3213
| 37> H 	 41.4295 	 27.4857 	 94.4054
| 38> H 	 40.8666 	 25.8457 	 94.6408
| 39> H 	 45.5555 	 20.9966 	 92.8407
| 40> H 	 41.5523 	 25.3952 	 87.3849
| 41> *
| 42>
| 43>                          ****END OF INPUT****

CARTESIAN COORDINATES (ANGSTROEM)
---------------------------------
  S     43.825300   21.744200   91.137400
  C     44.795700   21.759200   92.620800
  C     44.634100   22.903800   93.351700
  C     43.736000   23.803800   92.691700
  C     43.238300   23.327700   91.488000
  H     43.411300   24.812800   93.059900
  C     45.406000   23.261700   94.569900
  H     45.886900   22.374700   95.025900
  H     44.778700   23.556300   95.419100
  C     46.447600   24.383600   94.475700
  H     47.309500   24.062400   93.948800
  H     45.981300   25.106100   93.763100
  C     46.861800   24.981900   95.813000
  H     46.093800   25.635700   96.239000
  H     46.955100   24.165000   96.454700
  H     47.761200   25.502400   95.737500
  S     42.720800   23.825900   88.778400
  C     41.630300   25.077300   88.375200
  C     40.856600   25.458700   89.456700
  C     41.181000   24.813300   90.676500
  C     42.313300   23.995700   90.545400
  H     40.020700   26.136200   89.230100
  C     40.395800   25.124900   91.990300
  H     40.654300   24.398200   92.698600
  H     39.313600   25.091900   91.970800
  C     40.859700   26.468600   92.532300
  H     40.348400   27.268400   91.926100
  H     41.949200   26.547400   92.358800
  C     40.666800   26.727600   94.074300
  H     39.682200   27.021900   94.321300
  H     41.429500   27.485700   94.405400
  H     40.866600   25.845700   94.640800
  H     45.555500   20.996600   92.840700
  H     41.552300   25.395200   87.384900

 Total Charge           Charge          ....    0
 Multiplicity           Mult            ....    1
 Number of Electrons    NEL             ....  134
 Basis Dimension        Dim             ....  322

ORBITAL ENERGIES
----------------

  NO   OCC          E(Eh)            E(eV)
   0   2.0000     -88.966617     -2420.9047
   1   2.0000     -88.963981     -2420.8330
   2   2.0000     -10.335950      -281.2555
   3   2.0000     -10.332436      -281.1599
   4   2.0000     -10.315583      -280.7013
   5   2.0000     -10.313523      -280.6452
   6   2.0000     -10.313203      -280.6365
   7   2.0000     -10.302013      -280.3320
   8   2.0000     -10.298809      -280.2448
   9   2.0000     -10.295059      -280.1428
  10   2.0000     -10.291822      -280.0547
  11   2.0000     -10.291518      -280.0464
  12   2.0000     -10.290496      -280.0186
  13   2.0000     -10.282512      -279.8014
  14   2.0000     -10.279630      -279.7230
  15   2.0000     -10.271260      -279.4952
  16   2.0000      -8.081594      -219.9113
  17   2.0000      -8.078893      -219.8379
  18   2.0000      -6.040120      -164.3600
  19   2.0000      -6.037324      -164.2839
  20   2.0000      -6.036124      -164.2513
  21   2.0000      -6.033437      -164.1782
  22   2.0000      -6.032271      -164.1464
  23   2.0000      -6.029664      -164.0755
  24   2.0000      -1.005693       -27.3663
  25   2.0000      -0.985000       -26.8032
  26   2.0000      -0.916307       -24.9340
  27   2.0000      -0.908323       -24.7167
  28   2.0000      -0.870240       -23.6804
  29   2.0000      -0.850692       -23.1485
  30   2.0000      -0.843172       -22.9439
  31   2.0000      -0.812817       -22.1179
  32   2.0000      -0.788624       -21.4595
  33   2.0000      -0.777847       -21.1663
  34   2.0000      -0.707588       -19.2545
  35   2.0000      -0.697785       -18.9877
  36   2.0000      -0.695149       -18.9160
  37   2.0000      -0.660762       -17.9803
  38   2.0000      -0.641875       -17.4663
  39   2.0000      -0.620790       -16.8926
  40   2.0000      -0.603406       -16.4195
  41   2.0000      -0.572180       -15.5698
  42   2.0000      -0.568397       -15.4669
  43   2.0000      -0.556287       -15.1373
  44   2.0000      -0.529732       -14.4147
  45   2.0000      -0.522027       -14.2051
  46   2.0000      -0.515762       -14.0346
  47   2.0000      -0.511457       -13.9174
  48   2.0000      -0.508121       -13.8267
  49   2.0000      -0.501404       -13.6439
  50   2.0000      -0.493885       -13.4393
  51   2.0000      -0.481411       -13.0999
  52   2.0000      -0.474493       -12.9116
  53   2.0000      -0.464022       -12.6267
  54   2.0000      -0.459814       -12.5122
  55   2.0000      -0.454048       -12.3553
  56   2.0000      -0.441836       -12.0230
  57   2.0000      -0.438746       -11.9389
  58   2.0000      -0.433438       -11.7944
  59   2.0000      -0.427989       -11.6462
  60   2.0000      -0.423625       -11.5274
  61   2.0000      -0.420448       -11.4410
  62   2.0000      -0.409821       -11.1518
  63   2.0000      -0.349693        -9.5156
  64   2.0000      -0.334103        -9.0914
  65   2.0000      -0.332047        -9.0355
  66   2.0000      -0.288150        -7.8410
  67   0.0000       0.024902         0.6776
  68   0.0000       0.070305         1.9131
  69   0.0000       0.103618         2.8196
  70   0.0000       0.123389         3.3576
  71   0.0000       0.126224         3.4347

MULLIKEN ATOMIC CHARGES
-----------------------
   0 S :    0.104433
   1 C :   -0.131676
   2 C :   -0.049121
   3 C :   -0.004170
   4 C :   -0.126130
   5 H :    0.020889
   6 C :    0.044177
   7 H :    0.014098
   8 H :    0.019633
   9 C :   -0.082598
  10 H :    0.017913
  11 H :    0.026385
  12 C :    0.005360
  13 H :    0.033041
  14 H :    0.014435
  15 H :    0.026992
  16 S :    0.091672
  17 C :   -0.071044
  18 C :   -0.045790
  19 C :   -0.030875
  20 C :   -0.161760
  21 H :    0.029045
  22 C :    0.125503
  23 H :   -0.000212
  24 H :    0.032504
  25 C :   -0.140188
  26 H :    0.038971
  27 H :    0.040231
  28 C :   -0.027978
  29 H :    0.027736
  30 H :    0.043152
  31 H :    0.020088
  32 H :    0.054099
  33 H :    0.041183
Sum of atomic charges:   -0.0000000

LOEWDIN ATOMIC CHARGES
----------------------
   0 S :    0.402481
   1 C :   -0.187810
   2 C :   -0.064732
   3 C :   -0.071971
   4 C :   -0.196197
   5 H :    0.036463
   6 C :   -0.040689
   7 H :    0.029272
   8 H :    0.031662
   9 C :   -0.039116
  10 H :    0.017860
  11 H :    0.025162
  12 C :   -0.051708
  13 H :    0.028921
  14 H :    0.018649
  15 H :    0.022207
  16 S :    0.391997
  17 C :   -0.179199
  18 C :   -0.079233
  19 C :   -0.043669
  20 C :   -0.178377
  21 H :    0.036386
  22 C :   -0.025147
  23 H :    0.019924
  24 H :    0.031810
  25 C :   -0.044268
  26 H :    0.027449
  27 H :    0.023531
  28 C :   -0.063926
  29 H :    0.017929
  30 H :    0.035822
  31 H :    0.019340
  32 H :    0.031894
  33 H :    0.017283

  Mayer bond orders larger than 0.100000
B(  0-S ,  1-C ) :   1.1237 B(  0-S ,  4-C ) :   1.1579 B(  1-C ,  2-C ) :   1.6334
B(  1-C , 32-H ) :   0.9627 B(  2-C ,  3-C ) :   1.2192 B(  2-C ,  6-C ) :   1.0452
B(  3-C ,  4-C ) :   1.5862 B(  3-C ,  5-H ) :   0.9851 B(  4-C , 20-C ) :   1.0288
B(  6-C ,  7-H ) :   0.9304 B(  6-C ,  8-H ) :   0.9356 B(  6-C ,  9-C ) :   1.0519
B(  9-C , 10-H ) :   0.9545 B(  9-C , 11-H ) :   0.9592 B(  9-C , 12-C ) :   1.0770
B( 12-C , 13-H ) :   0.9727 B( 12-C , 14-H ) :   0.9738 B( 12-C , 15-H ) :   0.9727
B( 16-S , 17-C ) :   1.1731 B( 16-S , 20-C ) :   1.1325 B( 17-C , 18-C ) :   1.5925
B( 17-C , 20-C ) :   0.1081 B( 17-C , 33-H ) :   0.9770 B( 18-C , 19-C ) :   1.2291
B( 18-C , 21-H ) :   0.9916 B( 19-C , 20-C ) :   1.5910 B( 19-C , 22-C ) :   1.0449
B( 22-C , 23-H ) :   0.9273 B( 22-C , 24-H ) :   0.9418 B( 22-C , 25-C ) :   1.0534
B( 25-C , 26-H ) :   0.9555 B( 25-C , 27-H ) :   0.9599 B( 25-C , 28-C ) :   1.0725
B( 28-C , 29-H ) :   0.9768 B( 28-C , 30-H ) :   0.9789 B( 28-C , 31-H ) :   0.9744

Dispersion correction           -0.014040330
FINAL SINGLE POINT ENERGY     -1339.878619483618

DIPOLE MOMENT
-------------
                                X             Y             Z
Electronic contribution:     -2.86865     -16.83948     -26.83566
Nuclear contribution   :      2.81281      17.28040      27.28646
                        -----------------------------------------
Total Dipole Moment    :     -0.05585       0.44093       0.45080
                        -----------------------------------------
Magnitude (a.u.)       :      0.63306
Magnitude (Debye)      :      1.60910

Rotational constants in cm-1:     0.016776     0.009083     0.006640
Rotational constants in MHz :   502.927605   272.314699   199.067789

                             ****ORCA TERMINATED NORMALLY****
TOTAL RUN TIME: 0 days 0 hours 0 minutes 30 seconds 29 msec
