                         Program Version 4.2.1 -  RELEASE  -
|  1> ! wB97X-D3 SP def2-SVP
|  2> %pal
|  3> nprocs 16
|  4> end
|  5>
|  6> * xyz 0 1
|  7> S 	 0.958881 	 2.63984 	 80.9126
|  8> C 	 0.763288 	 0.933783 	 81.0029
|  9> C 	 1.32814 	 0.329607 	 82.1337
| 10> C 	 2.02058 	 1.27942 	 82.9132
| 11> C 	 1.9788 	 2.5692 	 82.3545
| 12> H 	 2.5479 	 1.00645 	 83.7832
| 13> C 	 1.28236 	 -1.18618 	 82.2867
| 14> H 	 2.08513 	 -1.4611 	 82.9024
| 15> H 	 1.48854 	 -1.72284 	 81.3573
| 16> C 	 -0.0693515 	 -1.74289 	 82.8836
| 17> H 	 -0.0319214 	 -1.45543 	 83.9727
| 18> H 	 -0.95534 	 -1.24262 	 82.3697
| 19> C 	 -0.180691 	 -3.32647 	 82.6991
| 20> H 	 -1.09175 	 -3.74845 	 83.1362
| 21> H 	 -0.119578 	 -3.69234 	 81.7145
| 22> H 	 0.617988 	 -3.85422 	 83.1423
| 23> S 	 3.11276 	 4.99619 	 81.9007
| 24> C 	 3.50547 	 6.05656 	 83.2768
| 25> C 	 2.96836 	 5.55993 	 84.4573
| 26> C 	 2.26148 	 4.28954 	 84.311
| 27> C 	 2.45166 	 3.80075 	 83.0153
| 28> H 	 3.09041 	 6.18041 	 85.3371
| 29> C 	 1.49881 	 3.68804 	 85.4365
| 30> H 	 0.728725 	 3.07346 	 85.0084
| 31> H 	 0.979925 	 4.39266 	 86.1189
| 32> C 	 2.38889 	 2.85792 	 86.3453
| 33> H 	 2.95331 	 2.1435 	 85.7567
| 34> H 	 1.86033 	 2.33077 	 87.1056
| 35> C 	 3.42619 	 3.66119 	 87.1403
| 36> H 	 4.10771 	 4.08435 	 86.3955
| 37> H 	 4.10448 	 2.91929 	 87.7005
| 38> H 	 2.95601 	 4.46247 	 87.7763
| 39> H 	 0.0886802 	 0.369769 	 80.3274
| 40> H 	 4.04482 	 6.92558 	 83.2205
| 41> *
| 42>
| 43>                          ****END OF INPUT****

CARTESIAN COORDINATES (ANGSTROEM)
---------------------------------
  S      0.958881    2.639840   80.912600
  C      0.763288    0.933783   81.002900
  C      1.328140    0.329607   82.133700
  C      2.020580    1.279420   82.913200
  C      1.978800    2.569200   82.354500
  H      2.547900    1.006450   83.783200
  C      1.282360   -1.186180   82.286700
  H      2.085130   -1.461100   82.902400
  H      1.488540   -1.722840   81.357300
  C     -0.069351   -1.742890   82.883600
  H     -0.031921   -1.455430   83.972700
  H     -0.955340   -1.242620   82.369700
  C     -0.180691   -3.326470   82.699100
  H     -1.091750   -3.748450   83.136200
  H     -0.119578   -3.692340   81.714500
  H      0.617988   -3.854220   83.142300
  S      3.112760    4.996190   81.900700
  C      3.505470    6.056560   83.276800
  C      2.968360    5.559930   84.457300
  C      2.261480    4.289540   84.311000
  C      2.451660    3.800750   83.015300
  H      3.090410    6.180410   85.337100
  C      1.498810    3.688040   85.436500
  H      0.728725    3.073460   85.008400
  H      0.979925    4.392660   86.118900
  C      2.388890    2.857920   86.345300
  H      2.953310    2.143500   85.756700
  H      1.860330    2.330770   87.105600
  C      3.426190    3.661190   87.140300
  H      4.107710    4.084350   86.395500
  H      4.104480    2.919290   87.700500
  H      2.956010    4.462470   87.776300
  H      0.088680    0.369769   80.327400
  H      4.044820    6.925580   83.220500

 Total Charge           Charge          ....    0
 Multiplicity           Mult            ....    1
 Number of Electrons    NEL             ....  134
 Basis Dimension        Dim             ....  322

ORBITAL ENERGIES
----------------

  NO   OCC          E(Eh)            E(eV)
   0   2.0000     -88.972760     -2421.0719
   1   2.0000     -88.964004     -2420.8336
   2   2.0000     -10.332527      -281.1624
   3   2.0000     -10.330454      -281.1060
   4   2.0000     -10.313611      -280.6476
   5   2.0000     -10.313431      -280.6427
   6   2.0000     -10.308473      -280.5078
   7   2.0000     -10.304542      -280.4008
   8   2.0000     -10.300517      -280.2913
   9   2.0000     -10.296993      -280.1954
  10   2.0000     -10.295713      -280.1606
  11   2.0000     -10.292019      -280.0601
  12   2.0000     -10.290568      -280.0206
  13   2.0000     -10.284203      -279.8474
  14   2.0000     -10.280626      -279.7500
  15   2.0000     -10.276830      -279.6468
  16   2.0000      -8.087392      -220.0691
  17   2.0000      -8.078290      -219.8215
  18   2.0000      -6.045689      -164.5116
  19   2.0000      -6.041955      -164.4099
  20   2.0000      -6.038341      -164.3116
  21   2.0000      -6.036872      -164.2716
  22   2.0000      -6.033030      -164.1671
  23   2.0000      -6.028842      -164.0531
  24   2.0000      -1.003637       -27.3104
  25   2.0000      -0.979789       -26.6614
  26   2.0000      -0.915112       -24.9015
  27   2.0000      -0.902620       -24.5616
  28   2.0000      -0.862869       -23.4799
  29   2.0000      -0.852842       -23.2070
  30   2.0000      -0.843120       -22.9425
  31   2.0000      -0.814097       -22.1527
  32   2.0000      -0.784171       -21.3384
  33   2.0000      -0.770746       -20.9731
  34   2.0000      -0.704655       -19.1747
  35   2.0000      -0.702708       -19.1217
  36   2.0000      -0.687381       -18.7046
  37   2.0000      -0.665374       -18.1057
  38   2.0000      -0.639203       -17.3936
  39   2.0000      -0.622330       -16.9345
  40   2.0000      -0.600295       -16.3349
  41   2.0000      -0.567352       -15.4384
  42   2.0000      -0.560442       -15.2504
  43   2.0000      -0.550015       -14.9667
  44   2.0000      -0.546626       -14.8745
  45   2.0000      -0.520580       -14.1657
  46   2.0000      -0.518237       -14.1020
  47   2.0000      -0.505631       -13.7589
  48   2.0000      -0.499813       -13.6006
  49   2.0000      -0.492961       -13.4142
  50   2.0000      -0.490284       -13.3413
  51   2.0000      -0.476929       -12.9779
  52   2.0000      -0.474368       -12.9082
  53   2.0000      -0.467798       -12.7294
  54   2.0000      -0.456322       -12.4171
  55   2.0000      -0.448541       -12.2054
  56   2.0000      -0.438864       -11.9421
  57   2.0000      -0.436664       -11.8822
  58   2.0000      -0.436216       -11.8700
  59   2.0000      -0.433054       -11.7840
  60   2.0000      -0.424385       -11.5481
  61   2.0000      -0.420121       -11.4321
  62   2.0000      -0.412838       -11.2339
  63   2.0000      -0.347185        -9.4474
  64   2.0000      -0.337061        -9.1719
  65   2.0000      -0.327683        -8.9167
  66   2.0000      -0.285104        -7.7581
  67   0.0000       0.025680         0.6988
  68   0.0000       0.065454         1.7811
  69   0.0000       0.099542         2.7087
  70   0.0000       0.122742         3.3400
  71   0.0000       0.122825         3.3422

MULLIKEN ATOMIC CHARGES
-----------------------
   0 S :    0.132923
   1 C :   -0.124614
   2 C :   -0.092010
   3 C :    0.035328
   4 C :   -0.119915
   5 H :   -0.011964
   6 C :    0.069444
   7 H :    0.004627
   8 H :    0.030835
   9 C :   -0.106873
  10 H :    0.044756
  11 H :    0.048550
  12 C :   -0.028421
  13 H :    0.037199
  14 H :    0.018556
  15 H :    0.013927
  16 S :    0.088409
  17 C :   -0.055975
  18 C :   -0.038267
  19 C :   -0.038407
  20 C :   -0.172453
  21 H :    0.023577
  22 C :    0.095400
  23 H :    0.028112
  24 H :    0.029756
  25 C :   -0.055688
  26 H :    0.016106
  27 H :    0.022646
  28 C :   -0.103498
  29 H :    0.039425
  30 H :    0.044586
  31 H :    0.043885
  32 H :    0.057003
  33 H :    0.023036
Sum of atomic charges:    0.0000000

LOEWDIN ATOMIC CHARGES
----------------------
   0 S :    0.422736
   1 C :   -0.208260
   2 C :   -0.064513
   3 C :   -0.054683
   4 C :   -0.193472
   5 H :    0.023761
   6 C :   -0.031236
   7 H :    0.020685
   8 H :    0.031879
   9 C :   -0.036919
  10 H :    0.030349
  11 H :    0.029644
  12 C :   -0.069410
  13 H :    0.029584
  14 H :    0.018996
  15 H :    0.019587
  16 S :    0.379601
  17 C :   -0.163373
  18 C :   -0.063506
  19 C :   -0.050859
  20 C :   -0.188658
  21 H :    0.031765
  22 C :   -0.032604
  23 H :    0.032225
  24 H :    0.036885
  25 C :   -0.038270
  26 H :    0.018366
  27 H :    0.017771
  28 C :   -0.075785
  29 H :    0.023445
  30 H :    0.035918
  31 H :    0.026811
  32 H :    0.030757
  33 H :    0.010782

  Mayer bond orders larger than 0.100000
B(  0-S ,  1-C ) :   1.1605 B(  0-S ,  4-C ) :   1.1636 B(  1-C ,  2-C ) :   1.5800
B(  1-C , 32-H ) :   0.9598 B(  2-C ,  3-C ) :   1.2897 B(  2-C ,  6-C ) :   1.0164
B(  3-C ,  4-C ) :   1.5260 B(  3-C ,  5-H ) :   1.0079 B(  4-C , 20-C ) :   1.0381
B(  6-C ,  7-H ) :   0.9380 B(  6-C ,  8-H ) :   0.9534 B(  6-C ,  9-C ) :   1.0403
B(  9-C , 10-H ) :   0.9588 B(  9-C , 11-H ) :   0.9655 B(  9-C , 12-C ) :   1.0618
B( 12-C , 13-H ) :   0.9774 B( 12-C , 14-H ) :   0.9767 B( 12-C , 15-H ) :   0.9742
B( 16-S , 17-C ) :   1.1272 B( 16-S , 20-C ) :   1.1362 B( 17-C , 18-C ) :   1.6498
B( 17-C , 33-H ) :   0.9780 B( 18-C , 19-C ) :   1.1891 B( 18-C , 21-H ) :   0.9855
B( 19-C , 20-C ) :   1.5993 B( 19-C , 22-C ) :   1.0517 B( 22-C , 23-H ) :   0.9205
B( 22-C , 24-H ) :   0.9383 B( 22-C , 25-C ) :   1.0762 B( 25-C , 26-H ) :   0.9488
B( 25-C , 27-H ) :   0.9566 B( 25-C , 28-C ) :   1.0828 B( 28-C , 29-H ) :   0.9696
B( 28-C , 30-H ) :   0.9705 B( 28-C , 31-H ) :   0.9731

Dispersion correction           -0.014403510
FINAL SINGLE POINT ENERGY     -1339.872219604869

DIPOLE MOMENT
-------------
                                X             Y             Z
Electronic contribution:      3.78468      21.46483     -19.92737
Nuclear contribution   :     -3.93519     -21.86871      20.42285
                        -----------------------------------------
Total Dipole Moment    :     -0.15051      -0.40388       0.49548
                        -----------------------------------------
Magnitude (a.u.)       :      0.65672
Magnitude (Debye)      :      1.66924

Rotational constants in cm-1:     0.020658     0.008060     0.006110
Rotational constants in MHz :   619.302825   241.644887   183.182575

                             ****ORCA TERMINATED NORMALLY****
TOTAL RUN TIME: 0 days 0 hours 0 minutes 34 seconds 228 msec
