                         Program Version 4.2.1 -  RELEASE  -
|  1> ! wB97X-D3 SP def2-SVP
|  2> %pal
|  3> nprocs 16
|  4> end
|  5>
|  6> * xyz 0 1
|  7> S 	 -111.411 	 56.072 	 109.261
|  8> C 	 -109.842 	 55.3726 	 109.585
|  9> C 	 -109.293 	 55.7885 	 110.782
| 10> C 	 -110.215 	 56.6312 	 111.424
| 11> C 	 -111.389 	 56.9193 	 110.777
| 12> H 	 -110.044 	 57.1297 	 112.357
| 13> C 	 -107.846 	 55.6111 	 111.204
| 14> H 	 -107.491 	 56.3201 	 111.974
| 15> H 	 -107.147 	 55.9175 	 110.362
| 16> C 	 -107.474 	 54.2256 	 111.684
| 17> H 	 -107.873 	 54.1568 	 112.698
| 18> H 	 -107.92 	 53.4465 	 111.115
| 19> C 	 -106.028 	 54.0527 	 111.81
| 20> H 	 -105.904 	 53.2282 	 112.416
| 21> H 	 -105.565 	 54.0416 	 110.841
| 22> H 	 -105.762 	 54.9376 	 112.306
| 23> S 	 -113.523 	 58.5365 	 110.112
| 24> C 	 -114.461 	 59.2442 	 111.42
| 25> C 	 -113.896 	 59.007 	 112.638
| 26> C 	 -112.812 	 58.1107 	 112.586
| 27> C 	 -112.402 	 57.8129 	 111.28
| 28> H 	 -114.401 	 59.4843 	 113.536
| 29> C 	 -112.202 	 57.5665 	 113.894
| 30> H 	 -111.459 	 56.7491 	 113.766
| 31> H 	 -112.943 	 56.924 	 114.236
| 32> C 	 -111.899 	 58.4966 	 115.084
| 33> H 	 -112.793 	 59.1056 	 115.259
| 34> H 	 -111.051 	 59.1244 	 114.956
| 35> C 	 -111.648 	 57.6719 	 116.337
| 36> H 	 -111.167 	 58.1779 	 117.203
| 37> H 	 -111.028 	 56.8471 	 116.025
| 38> H 	 -112.544 	 57.2815 	 116.759
| 39> H 	 -109.275 	 54.7342 	 108.851
| 40> H 	 -115.379 	 59.8785 	 111.201
| 41> *
| 42>
| 43>                          ****END OF INPUT****

CARTESIAN COORDINATES (ANGSTROEM)
---------------------------------
  S    -111.411000   56.072000  109.261000
  C    -109.842000   55.372600  109.585000
  C    -109.293000   55.788500  110.782000
  C    -110.215000   56.631200  111.424000
  C    -111.389000   56.919300  110.777000
  H    -110.044000   57.129700  112.357000
  C    -107.846000   55.611100  111.204000
  H    -107.491000   56.320100  111.974000
  H    -107.147000   55.917500  110.362000
  C    -107.474000   54.225600  111.684000
  H    -107.873000   54.156800  112.698000
  H    -107.920000   53.446500  111.115000
  C    -106.028000   54.052700  111.810000
  H    -105.904000   53.228200  112.416000
  H    -105.565000   54.041600  110.841000
  H    -105.762000   54.937600  112.306000
  S    -113.523000   58.536500  110.112000
  C    -114.461000   59.244200  111.420000
  C    -113.896000   59.007000  112.638000
  C    -112.812000   58.110700  112.586000
  C    -112.402000   57.812900  111.280000
  H    -114.401000   59.484300  113.536000
  C    -112.202000   57.566500  113.894000
  H    -111.459000   56.749100  113.766000
  H    -112.943000   56.924000  114.236000
  C    -111.899000   58.496600  115.084000
  H    -112.793000   59.105600  115.259000
  H    -111.051000   59.124400  114.956000
  C    -111.648000   57.671900  116.337000
  H    -111.167000   58.177900  117.203000
  H    -111.028000   56.847100  116.025000
  H    -112.544000   57.281500  116.759000
  H    -109.275000   54.734200  108.851000
  H    -115.379000   59.878500  111.201000

 Total Charge           Charge          ....    0
 Multiplicity           Mult            ....    1
 Number of Electrons    NEL             ....  134
 Basis Dimension        Dim             ....  322

ORBITAL ENERGIES
----------------

  NO   OCC          E(Eh)            E(eV)
   0   2.0000     -88.968590     -2420.9584
   1   2.0000     -88.964509     -2420.8474
   2   2.0000     -10.329982      -281.0931
   3   2.0000     -10.324241      -280.9369
   4   2.0000     -10.322163      -280.8803
   5   2.0000     -10.316627      -280.7297
   6   2.0000     -10.308565      -280.5103
   7   2.0000     -10.299136      -280.2537
   8   2.0000     -10.297793      -280.2172
   9   2.0000     -10.296907      -280.1931
  10   2.0000     -10.290848      -280.0282
  11   2.0000     -10.288113      -279.9538
  12   2.0000     -10.283837      -279.8374
  13   2.0000     -10.276847      -279.6472
  14   2.0000     -10.273583      -279.5584
  15   2.0000     -10.261568      -279.2315
  16   2.0000      -8.083318      -219.9583
  17   2.0000      -8.079085      -219.8431
  18   2.0000      -6.041841      -164.4069
  19   2.0000      -6.037838      -164.2979
  20   2.0000      -6.037556      -164.2902
  21   2.0000      -6.034058      -164.1951
  22   2.0000      -6.033708      -164.1855
  23   2.0000      -6.029817      -164.0797
  24   2.0000      -1.009485       -27.4695
  25   2.0000      -0.986516       -26.8445
  26   2.0000      -0.926240       -25.2043
  27   2.0000      -0.913364       -24.8539
  28   2.0000      -0.876673       -23.8555
  29   2.0000      -0.858029       -23.3482
  30   2.0000      -0.849732       -23.1224
  31   2.0000      -0.813131       -22.1264
  32   2.0000      -0.785027       -21.3617
  33   2.0000      -0.772837       -21.0300
  34   2.0000      -0.709872       -19.3166
  35   2.0000      -0.699333       -19.0298
  36   2.0000      -0.695662       -18.9299
  37   2.0000      -0.660246       -17.9662
  38   2.0000      -0.635588       -17.2952
  39   2.0000      -0.622683       -16.9441
  40   2.0000      -0.601752       -16.3745
  41   2.0000      -0.584205       -15.8970
  42   2.0000      -0.567486       -15.4421
  43   2.0000      -0.564749       -15.3676
  44   2.0000      -0.538198       -14.6451
  45   2.0000      -0.529201       -14.4003
  46   2.0000      -0.518001       -14.0955
  47   2.0000      -0.513512       -13.9734
  48   2.0000      -0.503336       -13.6965
  49   2.0000      -0.495850       -13.4928
  50   2.0000      -0.491354       -13.3704
  51   2.0000      -0.478350       -13.0166
  52   2.0000      -0.474035       -12.8991
  53   2.0000      -0.463703       -12.6180
  54   2.0000      -0.457139       -12.4394
  55   2.0000      -0.453480       -12.3398
  56   2.0000      -0.443073       -12.0566
  57   2.0000      -0.439386       -11.9563
  58   2.0000      -0.434285       -11.8175
  59   2.0000      -0.429530       -11.6881
  60   2.0000      -0.424365       -11.5476
  61   2.0000      -0.417021       -11.3477
  62   2.0000      -0.413257       -11.2453
  63   2.0000      -0.359215        -9.7747
  64   2.0000      -0.336567        -9.1585
  65   2.0000      -0.330493        -8.9932
  66   2.0000      -0.279708        -7.6112
  67   0.0000       0.022117         0.6018
  68   0.0000       0.081899         2.2286
  69   0.0000       0.102224         2.7817
  70   0.0000       0.121766         3.3134
  71   0.0000       0.136705         3.7199

MULLIKEN ATOMIC CHARGES
-----------------------
   0 S :    0.120509
   1 C :   -0.150312
   2 C :   -0.010789
   3 C :   -0.021095
   4 C :   -0.115763
   5 H :    0.002084
   6 C :   -0.004779
   7 H :    0.023876
   8 H :    0.036030
   9 C :   -0.082698
  10 H :    0.018022
  11 H :    0.018721
  12 C :    0.050510
  13 H :    0.019691
  14 H :    0.028260
  15 H :   -0.000616
  16 S :    0.088336
  17 C :   -0.125587
  18 C :   -0.055761
  19 C :   -0.012074
  20 C :   -0.140098
  21 H :    0.048960
  22 C :    0.036043
  23 H :    0.013843
  24 H :    0.009075
  25 C :   -0.021614
  26 H :    0.026539
  27 H :    0.030846
  28 C :   -0.063317
  29 H :    0.039177
  30 H :    0.023960
  31 H :    0.023821
  32 H :    0.063597
  33 H :    0.082602
Sum of atomic charges:   -0.0000000

LOEWDIN ATOMIC CHARGES
----------------------
   0 S :    0.413251
   1 C :   -0.200164
   2 C :   -0.065999
   3 C :   -0.064542
   4 C :   -0.201917
   5 H :    0.025369
   6 C :   -0.037649
   7 H :    0.031197
   8 H :    0.035477
   9 C :   -0.039458
  10 H :    0.024961
  11 H :    0.014629
  12 C :   -0.046203
  13 H :    0.020382
  14 H :    0.024198
  15 H :    0.019198
  16 S :    0.384076
  17 C :   -0.187566
  18 C :   -0.083576
  19 C :   -0.052878
  20 C :   -0.184690
  21 H :    0.046655
  22 C :   -0.041406
  23 H :    0.033221
  24 H :    0.029992
  25 C :   -0.031489
  26 H :    0.024544
  27 H :    0.020300
  28 C :   -0.064125
  29 H :    0.031437
  30 H :    0.022430
  31 H :    0.019736
  32 H :    0.037319
  33 H :    0.043291

  Mayer bond orders larger than 0.100000
B(  0-S ,  1-C ) :   1.1510 B(  0-S ,  4-C ) :   1.1338 B(  1-C ,  2-C ) :   1.5866
B(  1-C , 32-H ) :   0.9578 B(  2-C ,  3-C ) :   1.2738 B(  2-C ,  6-C ) :   1.0051
B(  3-C ,  4-C ) :   1.5549 B(  3-C ,  5-H ) :   0.9961 B(  4-C , 20-C ) :   1.0978
B(  6-C ,  7-H ) :   0.9413 B(  6-C ,  8-H ) :   0.9501 B(  6-C ,  9-C ) :   1.0614
B(  9-C , 10-H ) :   0.9492 B(  9-C , 11-H ) :   0.9598 B(  9-C , 12-C ) :   1.0865
B( 12-C , 13-H ) :   0.9682 B( 12-C , 14-H ) :   0.9733 B( 12-C , 15-H ) :   0.9655
B( 16-S , 17-C ) :   1.1525 B( 16-S , 20-C ) :   1.1241 B( 17-C , 18-C ) :   1.6227
B( 17-C , 33-H ) :   0.9570 B( 18-C , 19-C ) :   1.2417 B( 18-C , 21-H ) :   0.9774
B( 19-C , 20-C ) :   1.5889 B( 19-C , 22-C ) :   1.0154 B( 22-C , 23-H ) :   0.9308
B( 22-C , 24-H ) :   0.9211 B( 22-C , 25-C ) :   1.0596 B( 25-C , 26-H ) :   0.9493
B( 25-C , 27-H ) :   0.9598 B( 25-C , 28-C ) :   1.0775 B( 28-C , 29-H ) :   0.9738
B( 28-C , 30-H ) :   0.9758 B( 28-C , 31-H ) :   0.9754

Dispersion correction           -0.013041852
FINAL SINGLE POINT ENERGY     -1339.863437472247

DIPOLE MOMENT
-------------
                                X             Y             Z
Electronic contribution:    -19.93016       7.50598     -24.67920
Nuclear contribution   :     20.20233      -7.53870      25.36887
                        -----------------------------------------
Total Dipole Moment    :      0.27217      -0.03272       0.68968
                        -----------------------------------------
Magnitude (a.u.)       :      0.74216
Magnitude (Debye)      :      1.88642

Rotational constants in cm-1:     0.017154     0.008536     0.005867
Rotational constants in MHz :   514.275947   255.913740   175.876805

                             ****ORCA TERMINATED NORMALLY****
TOTAL RUN TIME: 0 days 0 hours 0 minutes 33 seconds 499 msec
