                         Program Version 4.2.1 -  RELEASE  -
|  1> ! wB97X-D3 SP def2-SVP
|  2> %pal
|  3> nprocs 16
|  4> end
|  5>
|  6> * xyz 0 1
|  7> S 	 60.019 	 -0.184399 	 86.4794
|  8> C 	 59.5583 	 0.909905 	 85.1806
|  9> C 	 58.184 	 1.12088 	 85.2461
| 10> C 	 57.5282 	 0.335963 	 86.2328
| 11> C 	 58.3649 	 -0.596611 	 86.8512
| 12> H 	 56.4471 	 0.399702 	 86.4466
| 13> C 	 57.3892 	 2.195 	 84.4591
| 14> H 	 58.1291 	 2.99778 	 84.1277
| 15> H 	 56.768 	 2.78621 	 85.1147
| 16> C 	 56.5517 	 1.74165 	 83.3071
| 17> H 	 57.2336 	 1.68475 	 82.4383
| 18> H 	 56.1153 	 0.735495 	 83.4345
| 19> C 	 55.5069 	 2.82626 	 82.9668
| 20> H 	 54.8703 	 2.98637 	 83.8629
| 21> H 	 55.945 	 3.73185 	 82.6595
| 22> H 	 54.9487 	 2.51836 	 82.085
| 23> S 	 58.6797 	 -0.762168 	 89.5942
| 24> C 	 57.7055 	 -1.96536 	 90.5371
| 25> C 	 56.8466 	 -2.60678 	 89.7027
| 26> C 	 57.0533 	 -2.25859 	 88.2997
| 27> C 	 58.0575 	 -1.35557 	 88.0515
| 28> H 	 56.0985 	 -3.21809 	 90.1093
| 29> C 	 56.11 	 -2.85783 	 87.2481
| 30> H 	 55.3723 	 -2.2122 	 86.8002
| 31> H 	 55.6331 	 -3.56176 	 87.8924
| 32> C 	 56.9578 	 -3.59839 	 86.1588
| 33> H 	 57.6497 	 -4.27571 	 86.6903
| 34> H 	 57.4812 	 -2.8364 	 85.6333
| 35> C 	 56.0916 	 -4.32975 	 85.0999
| 36> H 	 56.6553 	 -4.5643 	 84.2041
| 37> H 	 55.2423 	 -3.73403 	 84.8527
| 38> H 	 55.7298 	 -5.26925 	 85.5222
| 39> H 	 60.2356 	 1.4051 	 84.5211
| 40> H 	 57.6988 	 -1.96496 	 91.5927
| 41> *
| 42>
| 43>                          ****END OF INPUT****

CARTESIAN COORDINATES (ANGSTROEM)
---------------------------------
  S     60.019000   -0.184399   86.479400
  C     59.558300    0.909905   85.180600
  C     58.184000    1.120880   85.246100
  C     57.528200    0.335963   86.232800
  C     58.364900   -0.596611   86.851200
  H     56.447100    0.399702   86.446600
  C     57.389200    2.195000   84.459100
  H     58.129100    2.997780   84.127700
  H     56.768000    2.786210   85.114700
  C     56.551700    1.741650   83.307100
  H     57.233600    1.684750   82.438300
  H     56.115300    0.735495   83.434500
  C     55.506900    2.826260   82.966800
  H     54.870300    2.986370   83.862900
  H     55.945000    3.731850   82.659500
  H     54.948700    2.518360   82.085000
  S     58.679700   -0.762168   89.594200
  C     57.705500   -1.965360   90.537100
  C     56.846600   -2.606780   89.702700
  C     57.053300   -2.258590   88.299700
  C     58.057500   -1.355570   88.051500
  H     56.098500   -3.218090   90.109300
  C     56.110000   -2.857830   87.248100
  H     55.372300   -2.212200   86.800200
  H     55.633100   -3.561760   87.892400
  C     56.957800   -3.598390   86.158800
  H     57.649700   -4.275710   86.690300
  H     57.481200   -2.836400   85.633300
  C     56.091600   -4.329750   85.099900
  H     56.655300   -4.564300   84.204100
  H     55.242300   -3.734030   84.852700
  H     55.729800   -5.269250   85.522200
  H     60.235600    1.405100   84.521100
  H     57.698800   -1.964960   91.592700

 Total Charge           Charge          ....    0
 Multiplicity           Mult            ....    1
 Number of Electrons    NEL             ....  134
 Basis Dimension        Dim             ....  322

ORBITAL ENERGIES
----------------

  NO   OCC          E(Eh)            E(eV)
   0   2.0000     -88.967440     -2420.9271
   1   2.0000     -88.959942     -2420.7231
   2   2.0000     -10.332225      -281.1541
   3   2.0000     -10.325672      -280.9758
   4   2.0000     -10.319222      -280.8003
   5   2.0000     -10.319219      -280.8002
   6   2.0000     -10.305269      -280.4206
   7   2.0000     -10.302981      -280.3584
   8   2.0000     -10.300028      -280.2780
   9   2.0000     -10.295230      -280.1474
  10   2.0000     -10.293933      -280.1121
  11   2.0000     -10.287677      -279.9419
  12   2.0000     -10.286694      -279.9152
  13   2.0000     -10.280121      -279.7363
  14   2.0000     -10.278843      -279.7015
  15   2.0000     -10.270895      -279.4853
  16   2.0000      -8.082068      -219.9243
  17   2.0000      -8.073912      -219.7023
  18   2.0000      -6.040512      -164.3707
  19   2.0000      -6.036602      -164.2643
  20   2.0000      -6.032864      -164.1626
  21   2.0000      -6.032677      -164.1575
  22   2.0000      -6.028596      -164.0464
  23   2.0000      -6.024340      -163.9306
  24   2.0000      -1.005945       -27.3732
  25   2.0000      -0.980230       -26.6734
  26   2.0000      -0.914480       -24.8843
  27   2.0000      -0.900685       -24.5089
  28   2.0000      -0.874214       -23.7886
  29   2.0000      -0.847679       -23.0665
  30   2.0000      -0.840396       -22.8683
  31   2.0000      -0.816650       -22.2222
  32   2.0000      -0.780001       -21.2249
  33   2.0000      -0.768807       -20.9203
  34   2.0000      -0.710421       -19.3315
  35   2.0000      -0.699335       -19.0299
  36   2.0000      -0.689652       -18.7664
  37   2.0000      -0.666065       -18.1246
  38   2.0000      -0.644000       -17.5241
  39   2.0000      -0.620264       -16.8783
  40   2.0000      -0.594914       -16.1884
  41   2.0000      -0.574267       -15.6266
  42   2.0000      -0.566532       -15.4161
  43   2.0000      -0.560859       -15.2618
  44   2.0000      -0.526030       -14.3140
  45   2.0000      -0.521489       -14.1904
  46   2.0000      -0.517169       -14.0729
  47   2.0000      -0.511908       -13.9297
  48   2.0000      -0.508152       -13.8275
  49   2.0000      -0.498198       -13.5567
  50   2.0000      -0.492885       -13.4121
  51   2.0000      -0.487844       -13.2749
  52   2.0000      -0.468041       -12.7360
  53   2.0000      -0.463821       -12.6212
  54   2.0000      -0.459950       -12.5159
  55   2.0000      -0.446708       -12.1555
  56   2.0000      -0.441361       -12.0100
  57   2.0000      -0.439058       -11.9474
  58   2.0000      -0.431381       -11.7385
  59   2.0000      -0.421272       -11.4634
  60   2.0000      -0.419342       -11.4109
  61   2.0000      -0.411458       -11.1964
  62   2.0000      -0.407542       -11.0898
  63   2.0000      -0.347938        -9.4679
  64   2.0000      -0.330599        -8.9961
  65   2.0000      -0.323327        -8.7982
  66   2.0000      -0.299496        -8.1497
  67   0.0000       0.027486         0.7479
  68   0.0000       0.060166         1.6372
  69   0.0000       0.104150         2.8341
  70   0.0000       0.116479         3.1696
  71   0.0000       0.134762         3.6671

MULLIKEN ATOMIC CHARGES
-----------------------
   0 S :    0.101412
   1 C :   -0.100166
   2 C :   -0.075307
   3 C :    0.031296
   4 C :   -0.167353
   5 H :    0.030812
   6 C :    0.024073
   7 H :    0.025901
   8 H :    0.017767
   9 C :   -0.067685
  10 H :    0.027478
  11 H :    0.039386
  12 C :   -0.044186
  13 H :    0.040431
  14 H :    0.020342
  15 H :    0.033053
  16 S :    0.076038
  17 C :   -0.080081
  18 C :    0.001997
  19 C :   -0.095360
  20 C :   -0.104423
  21 H :    0.008920
  22 C :    0.100280
  23 H :    0.032652
  24 H :   -0.001973
  25 C :   -0.108145
  26 H :    0.039671
  27 H :    0.041640
  28 C :   -0.015328
  29 H :    0.035087
  30 H :    0.017269
  31 H :    0.024156
  32 H :    0.042819
  33 H :    0.047526
Sum of atomic charges:    0.0000000

LOEWDIN ATOMIC CHARGES
----------------------
   0 S :    0.413056
   1 C :   -0.185773
   2 C :   -0.064773
   3 C :   -0.055255
   4 C :   -0.201286
   5 H :    0.037204
   6 C :   -0.039118
   7 H :    0.035651
   8 H :    0.024773
   9 C :   -0.045867
  10 H :    0.027084
  11 H :    0.025979
  12 C :   -0.060904
  13 H :    0.027732
  14 H :    0.018349
  15 H :    0.027908
  16 S :    0.365926
  17 C :   -0.149618
  18 C :   -0.065633
  19 C :   -0.055652
  20 C :   -0.195924
  21 H :    0.026182
  22 C :   -0.026176
  23 H :    0.025102
  24 H :    0.022267
  25 C :   -0.032939
  26 H :    0.028166
  27 H :    0.019551
  28 C :   -0.062351
  29 H :    0.026220
  30 H :    0.018871
  31 H :    0.023290
  32 H :    0.026014
  33 H :    0.021941

  Mayer bond orders larger than 0.100000
B(  0-S ,  1-C ) :   1.1492 B(  0-S ,  4-C ) :   1.1578 B(  1-C ,  2-C ) :   1.5848
B(  1-C ,  4-C ) :   0.1050 B(  1-C , 32-H ) :   0.9761 B(  2-C ,  3-C ) :   1.2756
B(  2-C ,  6-C ) :   1.0102 B(  3-C ,  4-C ) :   1.5312 B(  3-C ,  5-H ) :   0.9894
B(  4-C , 20-C ) :   1.0393 B(  6-C ,  7-H ) :   0.9413 B(  6-C ,  8-H ) :   0.9527
B(  6-C ,  9-C ) :   1.0534 B(  9-C , 10-H ) :   0.9508 B(  9-C , 11-H ) :   0.9628
B(  9-C , 12-C ) :   1.0792 B( 12-C , 13-H ) :   0.9767 B( 12-C , 14-H ) :   0.9742
B( 12-C , 15-H ) :   0.9728 B( 16-S , 17-C ) :   1.1355 B( 16-S , 20-C ) :   1.1165
B( 17-C , 18-C ) :   1.6376 B( 17-C , 33-H ) :   0.9715 B( 18-C , 19-C ) :   1.2235
B( 18-C , 21-H ) :   0.9949 B( 19-C , 20-C ) :   1.6355 B( 19-C , 22-C ) :   1.0245
B( 22-C , 23-H ) :   0.9352 B( 22-C , 24-H ) :   0.9340 B( 22-C , 25-C ) :   1.0643
B( 25-C , 26-H ) :   0.9596 B( 25-C , 27-H ) :   0.9571 B( 25-C , 28-C ) :   1.0848
B( 28-C , 29-H ) :   0.9753 B( 28-C , 30-H ) :   0.9722 B( 28-C , 31-H ) :   0.9765

Dispersion correction           -0.013989070
FINAL SINGLE POINT ENERGY     -1339.871414066135

DIPOLE MOMENT
-------------
                                X             Y             Z
Electronic contribution:     19.50419       0.50768      21.64384
Nuclear contribution   :    -20.15492      -0.29226     -21.92170
                        -----------------------------------------
Total Dipole Moment    :     -0.65072       0.21542      -0.27786
                        -----------------------------------------
Magnitude (a.u.)       :      0.73963
Magnitude (Debye)      :      1.87999

Rotational constants in cm-1:     0.017413     0.008622     0.007022
Rotational constants in MHz :   522.042346   258.488565   210.504858

                             ****ORCA TERMINATED NORMALLY****
TOTAL RUN TIME: 0 days 0 hours 0 minutes 30 seconds 57 msec
