                         Program Version 4.2.1 -  RELEASE  -
|  1> ! wB97X-D3 SP def2-SVP
|  2> %pal
|  3> nprocs 16
|  4> end
|  5>
|  6> * xyz 0 1
|  7> S 	 -105.711 	 40.1142 	 130.988
|  8> C 	 -104.046 	 40.3567 	 131.207
|  9> C 	 -103.26 	 39.7127 	 130.284
| 10> C 	 -104.087 	 39.057 	 129.261
| 11> C 	 -105.43 	 39.2493 	 129.479
| 12> H 	 -103.896 	 38.4505 	 128.503
| 13> C 	 -101.691 	 39.5674 	 130.239
| 14> H 	 -101.435 	 38.4777 	 130.11
| 15> H 	 -101.256 	 39.7934 	 131.196
| 16> C 	 -101.03 	 40.5313 	 129.203
| 17> H 	 -101.478 	 40.5528 	 128.201
| 18> H 	 -101.222 	 41.5423 	 129.517
| 19> C 	 -99.5315 	 40.2464 	 129.079
| 20> H 	 -99.0384 	 40.6505 	 129.993
| 21> H 	 -99.4502 	 39.1979 	 128.996
| 22> H 	 -99.1239 	 40.6871 	 128.204
| 23> S 	 -107.672 	 37.6206 	 129.452
| 24> C 	 -108.386 	 37.2302 	 127.934
| 25> C 	 -107.772 	 37.8317 	 126.924
| 26> C 	 -106.721 	 38.6854 	 127.304
| 27> C 	 -106.481 	 38.6673 	 128.686
| 28> H 	 -108.105 	 37.6864 	 125.925
| 29> C 	 -106.09 	 39.5772 	 126.255
| 30> H 	 -105.899 	 38.9173 	 125.372
| 31> H 	 -105.109 	 39.968 	 126.501
| 32> C 	 -106.965 	 40.7388 	 125.946
| 33> H 	 -107.275 	 41.3206 	 126.892
| 34> H 	 -107.946 	 40.4327 	 125.613
| 35> C 	 -106.428 	 41.775 	 124.934
| 36> H 	 -106.14 	 41.2277 	 124.024
| 37> H 	 -105.56 	 42.3119 	 125.348
| 38> H 	 -107.084 	 42.6002 	 124.757
| 39> H 	 -103.685 	 40.8906 	 132.016
| 40> H 	 -109.329 	 36.6585 	 127.763
| 41> *
| 42>
| 43>                          ****END OF INPUT****

CARTESIAN COORDINATES (ANGSTROEM)
---------------------------------
  S    -105.711000   40.114200  130.988000
  C    -104.046000   40.356700  131.207000
  C    -103.260000   39.712700  130.284000
  C    -104.087000   39.057000  129.261000
  C    -105.430000   39.249300  129.479000
  H    -103.896000   38.450500  128.503000
  C    -101.691000   39.567400  130.239000
  H    -101.435000   38.477700  130.110000
  H    -101.256000   39.793400  131.196000
  C    -101.030000   40.531300  129.203000
  H    -101.478000   40.552800  128.201000
  H    -101.222000   41.542300  129.517000
  C    -99.531500   40.246400  129.079000
  H    -99.038400   40.650500  129.993000
  H    -99.450200   39.197900  128.996000
  H    -99.123900   40.687100  128.204000
  S    -107.672000   37.620600  129.452000
  C    -108.386000   37.230200  127.934000
  C    -107.772000   37.831700  126.924000
  C    -106.721000   38.685400  127.304000
  C    -106.481000   38.667300  128.686000
  H    -108.105000   37.686400  125.925000
  C    -106.090000   39.577200  126.255000
  H    -105.899000   38.917300  125.372000
  H    -105.109000   39.968000  126.501000
  C    -106.965000   40.738800  125.946000
  H    -107.275000   41.320600  126.892000
  H    -107.946000   40.432700  125.613000
  C    -106.428000   41.775000  124.934000
  H    -106.140000   41.227700  124.024000
  H    -105.560000   42.311900  125.348000
  H    -107.084000   42.600200  124.757000
  H    -103.685000   40.890600  132.016000
  H    -109.329000   36.658500  127.763000

 Total Charge           Charge          ....    0
 Multiplicity           Mult            ....    1
 Number of Electrons    NEL             ....  134
 Basis Dimension        Dim             ....  322

ORBITAL ENERGIES
----------------

  NO   OCC          E(Eh)            E(eV)
   0   2.0000     -88.963557     -2420.8215
   1   2.0000     -88.962756     -2420.7997
   2   2.0000     -10.325483      -280.9707
   3   2.0000     -10.324576      -280.9460
   4   2.0000     -10.311473      -280.5894
   5   2.0000     -10.308141      -280.4988
   6   2.0000     -10.307203      -280.4733
   7   2.0000     -10.301626      -280.3215
   8   2.0000     -10.301103      -280.3073
   9   2.0000     -10.291054      -280.0338
  10   2.0000     -10.286456      -279.9087
  11   2.0000     -10.285042      -279.8702
  12   2.0000     -10.284850      -279.8650
  13   2.0000     -10.281637      -279.7776
  14   2.0000     -10.276651      -279.6419
  15   2.0000     -10.273727      -279.5623
  16   2.0000      -8.079434      -219.8526
  17   2.0000      -8.078042      -219.8147
  18   2.0000      -6.037833      -164.2978
  19   2.0000      -6.036560      -164.2632
  20   2.0000      -6.033894      -164.1906
  21   2.0000      -6.032430      -164.1508
  22   2.0000      -6.030138      -164.0884
  23   2.0000      -6.028814      -164.0524
  24   2.0000      -1.010693       -27.5024
  25   2.0000      -0.989481       -26.9252
  26   2.0000      -0.912117       -24.8200
  27   2.0000      -0.905306       -24.6346
  28   2.0000      -0.878274       -23.8991
  29   2.0000      -0.852110       -23.1871
  30   2.0000      -0.845881       -23.0176
  31   2.0000      -0.818246       -22.2656
  32   2.0000      -0.781769       -21.2730
  33   2.0000      -0.770964       -20.9790
  34   2.0000      -0.705896       -19.2084
  35   2.0000      -0.699868       -19.0444
  36   2.0000      -0.691776       -18.8242
  37   2.0000      -0.667199       -18.1554
  38   2.0000      -0.653321       -17.7778
  39   2.0000      -0.618455       -16.8290
  40   2.0000      -0.601146       -16.3580
  41   2.0000      -0.568613       -15.4727
  42   2.0000      -0.560411       -15.2495
  43   2.0000      -0.555156       -15.1066
  44   2.0000      -0.529483       -14.4080
  45   2.0000      -0.527202       -14.3459
  46   2.0000      -0.517437       -14.0802
  47   2.0000      -0.515232       -14.0202
  48   2.0000      -0.505668       -13.7599
  49   2.0000      -0.501885       -13.6570
  50   2.0000      -0.493167       -13.4197
  51   2.0000      -0.485623       -13.2145
  52   2.0000      -0.465216       -12.6592
  53   2.0000      -0.464414       -12.6373
  54   2.0000      -0.462104       -12.5745
  55   2.0000      -0.450215       -12.2510
  56   2.0000      -0.447050       -12.1649
  57   2.0000      -0.442315       -12.0360
  58   2.0000      -0.434469       -11.8225
  59   2.0000      -0.421826       -11.4785
  60   2.0000      -0.420861       -11.4522
  61   2.0000      -0.417397       -11.3580
  62   2.0000      -0.402977       -10.9656
  63   2.0000      -0.351548        -9.5661
  64   2.0000      -0.331903        -9.0315
  65   2.0000      -0.327428        -8.9098
  66   2.0000      -0.293853        -7.9962
  67   0.0000       0.034680         0.9437
  68   0.0000       0.076101         2.0708
  69   0.0000       0.116843         3.1795
  70   0.0000       0.128915         3.5080
  71   0.0000       0.132339         3.6011

MULLIKEN ATOMIC CHARGES
-----------------------
   0 S :    0.112063
   1 C :   -0.084564
   2 C :   -0.068162
   3 C :    0.093158
   4 C :   -0.171167
   5 H :   -0.046401
   6 C :    0.051332
   7 H :    0.042625
   8 H :    0.010732
   9 C :   -0.088608
  10 H :    0.026760
  11 H :    0.019269
  12 C :   -0.006995
  13 H :    0.038145
  14 H :    0.019397
  15 H :    0.027828
  16 S :    0.104340
  17 C :   -0.089098
  18 C :   -0.030764
  19 C :   -0.036980
  20 C :   -0.160498
  21 H :    0.004162
  22 C :    0.100646
  23 H :    0.026630
  24 H :    0.010054
  25 C :   -0.103915
  26 H :    0.037357
  27 H :    0.013733
  28 C :   -0.028223
  29 H :    0.032622
  30 H :    0.027437
  31 H :    0.030570
  32 H :    0.018702
  33 H :    0.067813
Sum of atomic charges:    0.0000000

LOEWDIN ATOMIC CHARGES
----------------------
   0 S :    0.414144
   1 C :   -0.197703
   2 C :   -0.055408
   3 C :   -0.035902
   4 C :   -0.190109
   5 H :    0.007775
   6 C :   -0.028317
   7 H :    0.035787
   8 H :    0.023887
   9 C :   -0.042516
  10 H :    0.022523
  11 H :    0.020594
  12 C :   -0.057265
  13 H :    0.030854
  14 H :    0.018744
  15 H :    0.021984
  16 S :    0.406973
  17 C :   -0.195061
  18 C :   -0.075656
  19 C :   -0.052147
  20 C :   -0.198185
  21 H :    0.028366
  22 C :   -0.033783
  23 H :    0.034421
  24 H :    0.026178
  25 C :   -0.049067
  26 H :    0.035297
  27 H :    0.016736
  28 C :   -0.066412
  29 H :    0.025577
  30 H :    0.026062
  31 H :    0.024833
  32 H :    0.013949
  33 H :    0.042845

  Mayer bond orders larger than 0.100000
B(  0-S ,  1-C ) :   1.1443 B(  0-S ,  4-C ) :   1.1344 B(  1-C ,  2-C ) :   1.6346
B(  1-C , 32-H ) :   0.9778 B(  2-C ,  3-C ) :   1.1876 B(  2-C ,  6-C ) :   1.0156
B(  3-C ,  4-C ) :   1.6098 B(  3-C ,  5-H ) :   1.0150 B(  4-C , 20-C ) :   1.0507
B(  6-C ,  7-H ) :   0.9505 B(  6-C ,  8-H ) :   0.9442 B(  6-C ,  9-C ) :   1.0461
B(  9-C , 10-H ) :   0.9634 B(  9-C , 11-H ) :   0.9546 B(  9-C , 12-C ) :   1.0767
B( 12-C , 13-H ) :   0.9762 B( 12-C , 14-H ) :   0.9766 B( 12-C , 15-H ) :   0.9744
B( 16-S , 17-C ) :   1.1507 B( 16-S , 20-C ) :   1.1368 B( 17-C , 18-C ) :   1.6236
B( 17-C , 33-H ) :   0.9557 B( 18-C , 19-C ) :   1.2474 B( 18-C , 21-H ) :   0.9949
B( 19-C , 20-C ) :   1.5876 B( 19-C , 22-C ) :   1.0476 B( 22-C , 23-H ) :   0.9261
B( 22-C , 24-H ) :   0.9309 B( 22-C , 25-C ) :   1.0675 B( 25-C , 26-H ) :   0.9495
B( 25-C , 27-H ) :   0.9527 B( 25-C , 28-C ) :   1.0865 B( 28-C , 29-H ) :   0.9734
B( 28-C , 30-H ) :   0.9735 B( 28-C , 31-H ) :   0.9725

Dispersion correction           -0.013655188
FINAL SINGLE POINT ENERGY     -1339.875440399853

DIPOLE MOMENT
-------------
                                X             Y             Z
Electronic contribution:    -20.12057     -11.49778      17.48301
Nuclear contribution   :     20.47667      11.60286     -17.92919
                        -----------------------------------------
Total Dipole Moment    :      0.35611       0.10509      -0.44618
                        -----------------------------------------
Magnitude (a.u.)       :      0.58046
Magnitude (Debye)      :      1.47542

Rotational constants in cm-1:     0.017319     0.008268     0.006551
Rotational constants in MHz :   519.197934   247.861038   196.383308

                             ****ORCA TERMINATED NORMALLY****
TOTAL RUN TIME: 0 days 0 hours 0 minutes 32 seconds 994 msec
