                         Program Version 4.2.1 -  RELEASE  -
|  1> ! wB97X-D3 SP def2-SVP
|  2> %pal
|  3> nprocs 16
|  4> end
|  5>
|  6> * xyz 0 1
|  7> S 	 -24.3956 	 46.1241 	 60.8515
|  8> C 	 -24.5534 	 47.7247 	 61.1713
|  9> C 	 -24.4936 	 48.5038 	 59.9967
| 10> C 	 -24.1937 	 47.6907 	 58.8538
| 11> C 	 -24.2469 	 46.2984 	 59.1501
| 12> H 	 -24.1615 	 48.1437 	 57.9005
| 13> C 	 -24.6845 	 50.0527 	 59.9934
| 14> H 	 -23.7498 	 50.3574 	 60.4479
| 15> H 	 -25.5056 	 50.3366 	 60.6166
| 16> C 	 -24.8425 	 50.6997 	 58.6029
| 17> H 	 -24.9054 	 51.7818 	 58.7795
| 18> H 	 -23.9661 	 50.4458 	 58.0046
| 19> C 	 -26.1672 	 50.2451 	 57.9735
| 20> H 	 -26.1888 	 50.2565 	 56.8807
| 21> H 	 -26.5964 	 49.3042 	 58.2914
| 22> H 	 -26.9749 	 50.9255 	 58.3332
| 23> S 	 -23.2325 	 43.8325 	 58.1468
| 24> C 	 -23.8751 	 43.1882 	 56.7185
| 25> C 	 -24.748 	 44.0998 	 56.1671
| 26> C 	 -25.0217 	 45.2223 	 56.9675
| 27> C 	 -24.3488 	 45.2505 	 58.1695
| 28> H 	 -25.1904 	 43.8484 	 55.1991
| 29> C 	 -26.1346 	 46.2225 	 56.5282
| 30> H 	 -26.4107 	 45.958 	 55.5125
| 31> H 	 -25.5996 	 47.1836 	 56.4498
| 32> C 	 -27.4246 	 46.2909 	 57.4082
| 33> H 	 -28.1231 	 47.1155 	 57.1126
| 34> H 	 -26.9901 	 46.6359 	 58.3381
| 35> C 	 -28.2391 	 44.953 	 57.4754
| 36> H 	 -29.1081 	 45.0963 	 58.0379
| 37> H 	 -27.6378 	 44.1346 	 58.0534
| 38> H 	 -28.5763 	 44.5615 	 56.5248
| 39> H 	 -24.6757 	 48.1841 	 62.1747
| 40> H 	 -23.6497 	 42.2164 	 56.2699
| 41> *
| 42>
| 43>                          ****END OF INPUT****

CARTESIAN COORDINATES (ANGSTROEM)
---------------------------------
  S    -24.395600   46.124100   60.851500
  C    -24.553400   47.724700   61.171300
  C    -24.493600   48.503800   59.996700
  C    -24.193700   47.690700   58.853800
  C    -24.246900   46.298400   59.150100
  H    -24.161500   48.143700   57.900500
  C    -24.684500   50.052700   59.993400
  H    -23.749800   50.357400   60.447900
  H    -25.505600   50.336600   60.616600
  C    -24.842500   50.699700   58.602900
  H    -24.905400   51.781800   58.779500
  H    -23.966100   50.445800   58.004600
  C    -26.167200   50.245100   57.973500
  H    -26.188800   50.256500   56.880700
  H    -26.596400   49.304200   58.291400
  H    -26.974900   50.925500   58.333200
  S    -23.232500   43.832500   58.146800
  C    -23.875100   43.188200   56.718500
  C    -24.748000   44.099800   56.167100
  C    -25.021700   45.222300   56.967500
  C    -24.348800   45.250500   58.169500
  H    -25.190400   43.848400   55.199100
  C    -26.134600   46.222500   56.528200
  H    -26.410700   45.958000   55.512500
  H    -25.599600   47.183600   56.449800
  C    -27.424600   46.290900   57.408200
  H    -28.123100   47.115500   57.112600
  H    -26.990100   46.635900   58.338100
  C    -28.239100   44.953000   57.475400
  H    -29.108100   45.096300   58.037900
  H    -27.637800   44.134600   58.053400
  H    -28.576300   44.561500   56.524800
  H    -24.675700   48.184100   62.174700
  H    -23.649700   42.216400   56.269900

 Total Charge           Charge          ....    0
 Multiplicity           Mult            ....    1
 Number of Electrons    NEL             ....  134
 Basis Dimension        Dim             ....  322

ORBITAL ENERGIES
----------------

  NO   OCC          E(Eh)            E(eV)
   0   2.0000     -88.969701     -2420.9886
   1   2.0000     -88.959866     -2420.7210
   2   2.0000     -10.329323      -281.0752
   3   2.0000     -10.326178      -280.9896
   4   2.0000     -10.314165      -280.6627
   5   2.0000     -10.310797      -280.5711
   6   2.0000     -10.303079      -280.3610
   7   2.0000     -10.301023      -280.3051
   8   2.0000     -10.296182      -280.1734
   9   2.0000     -10.294137      -280.1177
  10   2.0000     -10.293735      -280.1068
  11   2.0000     -10.292164      -280.0640
  12   2.0000     -10.290177      -280.0100
  13   2.0000     -10.287695      -279.9424
  14   2.0000     -10.280525      -279.7473
  15   2.0000     -10.278377      -279.6889
  16   2.0000      -8.086575      -220.0469
  17   2.0000      -8.075082      -219.7342
  18   2.0000      -6.044711      -164.4850
  19   2.0000      -6.040454      -164.3691
  20   2.0000      -6.037913      -164.3000
  21   2.0000      -6.033487      -164.1795
  22   2.0000      -6.029391      -164.0681
  23   2.0000      -6.026044      -163.9770
  24   2.0000      -1.013283       -27.5728
  25   2.0000      -0.991757       -26.9871
  26   2.0000      -0.913179       -24.8489
  27   2.0000      -0.898030       -24.4366
  28   2.0000      -0.872098       -23.7310
  29   2.0000      -0.848016       -23.0757
  30   2.0000      -0.840574       -22.8732
  31   2.0000      -0.811022       -22.0690
  32   2.0000      -0.784031       -21.3346
  33   2.0000      -0.772934       -21.0326
  34   2.0000      -0.714811       -19.4510
  35   2.0000      -0.697733       -18.9863
  36   2.0000      -0.686564       -18.6824
  37   2.0000      -0.658141       -17.9089
  38   2.0000      -0.638839       -17.3837
  39   2.0000      -0.624771       -17.0009
  40   2.0000      -0.583139       -15.8680
  41   2.0000      -0.573405       -15.6031
  42   2.0000      -0.557003       -15.1568
  43   2.0000      -0.547316       -14.8932
  44   2.0000      -0.541370       -14.7314
  45   2.0000      -0.537033       -14.6134
  46   2.0000      -0.515401       -14.0248
  47   2.0000      -0.513060       -13.9611
  48   2.0000      -0.503308       -13.6957
  49   2.0000      -0.499035       -13.5794
  50   2.0000      -0.488666       -13.2973
  51   2.0000      -0.478498       -13.0206
  52   2.0000      -0.473108       -12.8739
  53   2.0000      -0.469970       -12.7885
  54   2.0000      -0.459103       -12.4928
  55   2.0000      -0.450811       -12.2672
  56   2.0000      -0.441428       -12.0119
  57   2.0000      -0.435191       -11.8421
  58   2.0000      -0.428823       -11.6689
  59   2.0000      -0.425042       -11.5660
  60   2.0000      -0.418198       -11.3797
  61   2.0000      -0.416370       -11.3300
  62   2.0000      -0.403468       -10.9789
  63   2.0000      -0.346268        -9.4224
  64   2.0000      -0.330394        -8.9905
  65   2.0000      -0.328194        -8.9306
  66   2.0000      -0.288823        -7.8593
  67   0.0000       0.025760         0.7010
  68   0.0000       0.074702         2.0327
  69   0.0000       0.119682         3.2567
  70   0.0000       0.128078         3.4852
  71   0.0000       0.132217         3.5978

MULLIKEN ATOMIC CHARGES
-----------------------
   0 S :    0.159146
   1 C :   -0.125584
   2 C :   -0.165018
   3 C :    0.055719
   4 C :   -0.176778
   5 H :   -0.003615
   6 C :    0.067587
   7 H :    0.041046
   8 H :    0.028971
   9 C :   -0.071518
  10 H :    0.043253
  11 H :    0.041319
  12 C :   -0.076593
  13 H :    0.040669
  14 H :    0.034055
  15 H :    0.026789
  16 S :    0.094539
  17 C :   -0.089731
  18 C :   -0.057105
  19 C :   -0.046020
  20 C :   -0.139712
  21 H :    0.018223
  22 C :    0.085807
  23 H :    0.004963
  24 H :    0.023174
  25 C :   -0.081659
  26 H :    0.037122
  27 H :    0.043188
  28 C :   -0.044018
  29 H :    0.020782
  30 H :    0.055512
  31 H :    0.029042
  32 H :    0.061353
  33 H :    0.065089
Sum of atomic charges:    0.0000000

LOEWDIN ATOMIC CHARGES
----------------------
   0 S :    0.486723
   1 C :   -0.246672
   2 C :   -0.066524
   3 C :   -0.053102
   4 C :   -0.223279
   5 H :    0.020880
   6 C :   -0.027026
   7 H :    0.034393
   8 H :    0.026392
   9 C :   -0.041941
  10 H :    0.032919
  11 H :    0.023738
  12 C :   -0.077335
  13 H :    0.026230
  14 H :    0.023854
  15 H :    0.032526
  16 S :    0.403036
  17 C :   -0.199325
  18 C :   -0.084588
  19 C :   -0.054691
  20 C :   -0.193293
  21 H :    0.032031
  22 C :   -0.026800
  23 H :    0.020615
  24 H :    0.029256
  25 C :   -0.041008
  26 H :    0.028161
  27 H :    0.023515
  28 C :   -0.066957
  29 H :    0.017371
  30 H :    0.041668
  31 H :    0.022364
  32 H :    0.039033
  33 H :    0.037833

  Mayer bond orders larger than 0.100000
B(  0-S ,  1-C ) :   1.2033 B(  0-S ,  4-C ) :   1.1952 B(  1-C ,  2-C ) :   1.5319
B(  1-C ,  4-C ) :   0.1044 B(  1-C , 32-H ) :   0.9670 B(  2-C ,  3-C ) :   1.3457
B(  2-C ,  6-C ) :   0.9874 B(  3-C ,  4-C ) :   1.4569 B(  3-C ,  5-H ) :   0.9937
B(  4-C , 20-C ) :   1.0705 B(  6-C ,  7-H ) :   0.9369 B(  6-C ,  8-H ) :   0.9497
B(  6-C ,  9-C ) :   1.0908 B(  9-C , 10-H ) :   0.9569 B(  9-C , 11-H ) :   0.9545
B(  9-C , 12-C ) :   1.0559 B( 12-C , 13-H ) :   0.9764 B( 12-C , 14-H ) :   0.9806
B( 12-C , 15-H ) :   0.9697 B( 16-S , 17-C ) :   1.1819 B( 16-S , 20-C ) :   1.1270
B( 17-C , 18-C ) :   1.5741 B( 17-C , 20-C ) :   0.1034 B( 17-C , 33-H ) :   0.9648
B( 18-C , 19-C ) :   1.2756 B( 18-C , 21-H ) :   0.9906 B( 19-C , 20-C ) :   1.5690
B( 19-C , 22-C ) :   1.0191 B( 22-C , 23-H ) :   0.9382 B( 22-C , 24-H ) :   0.9328
B( 22-C , 25-C ) :   1.0622 B( 25-C , 26-H ) :   0.9566 B( 25-C , 27-H ) :   0.9542
B( 25-C , 28-C ) :   1.0675 B( 28-C , 29-H ) :   0.9744 B( 28-C , 30-H ) :   0.9733
B( 28-C , 31-H ) :   0.9760

Dispersion correction           -0.016629487
FINAL SINGLE POINT ENERGY     -1339.874733820409

DIPOLE MOMENT
-------------
                                X             Y             Z
Electronic contribution:     18.02452     -18.64385       9.83070
Nuclear contribution   :    -18.45528      19.21347     -10.04443
                        -----------------------------------------
Total Dipole Moment    :     -0.43076       0.56962      -0.21372
                        -----------------------------------------
Magnitude (a.u.)       :      0.74545
Magnitude (Debye)      :      1.89479

Rotational constants in cm-1:     0.019022     0.010059     0.008096
Rotational constants in MHz :   570.251807   301.565697   242.721772

                             ****ORCA TERMINATED NORMALLY****
TOTAL RUN TIME: 0 days 0 hours 0 minutes 36 seconds 919 msec
