                         Program Version 4.2.1 -  RELEASE  -
|  1> ! wB97X-D3 SP def2-SVP
|  2> %pal
|  3> nprocs 16
|  4> end
|  5>
|  6> * xyz 0 1
|  7> S 	 -58.5373 	 56.8169 	 137.336
|  8> C 	 -57.1839 	 56.9796 	 138.404
|  9> C 	 -56.9994 	 55.7741 	 139.077
| 10> C 	 -58.1083 	 54.8907 	 138.91
| 11> C 	 -58.9655 	 55.2042 	 137.901
| 12> H 	 -58.2842 	 53.8526 	 139.269
| 13> C 	 -55.7622 	 55.443 	 139.969
| 14> H 	 -54.8875 	 55.4362 	 139.334
| 15> H 	 -55.8448 	 54.4073 	 140.201
| 16> C 	 -55.519 	 56.341 	 141.179
| 17> H 	 -55.1826 	 57.2475 	 140.711
| 18> H 	 -56.4676 	 56.5557 	 141.714
| 19> C 	 -54.5645 	 55.8575 	 142.211
| 20> H 	 -54.9718 	 55.0279 	 142.748
| 21> H 	 -53.6413 	 55.5151 	 141.72
| 22> H 	 -54.2773 	 56.6244 	 143.025
| 23> S 	 -60.4294 	 55.0022 	 135.564
| 24> C 	 -61.5902 	 53.7089 	 135.444
| 25> C 	 -61.7621 	 53.0097 	 136.595
| 26> C 	 -60.8457 	 53.3481 	 137.646
| 27> C 	 -60.0462 	 54.4398 	 137.271
| 28> H 	 -62.3694 	 52.1136 	 136.638
| 29> C 	 -60.7669 	 52.7385 	 138.954
| 30> H 	 -61.7263 	 52.588 	 139.425
| 31> H 	 -60.1694 	 53.3963 	 139.625
| 32> C 	 -60.0945 	 51.3843 	 139.008
| 33> H 	 -59.9099 	 51.1072 	 140.001
| 34> H 	 -59.0492 	 51.4948 	 138.565
| 35> C 	 -60.9346 	 50.2343 	 138.335
| 36> H 	 -60.8075 	 50.2818 	 137.253
| 37> H 	 -61.9825 	 50.1007 	 138.618
| 38> H 	 -60.4359 	 49.3411 	 138.774
| 39> H 	 -56.4176 	 57.7988 	 138.382
| 40> H 	 -62.1466 	 53.4962 	 134.575
| 41> *
| 42>
| 43>                          ****END OF INPUT****

CARTESIAN COORDINATES (ANGSTROEM)
---------------------------------
  S    -58.537300   56.816900  137.336000
  C    -57.183900   56.979600  138.404000
  C    -56.999400   55.774100  139.077000
  C    -58.108300   54.890700  138.910000
  C    -58.965500   55.204200  137.901000
  H    -58.284200   53.852600  139.269000
  C    -55.762200   55.443000  139.969000
  H    -54.887500   55.436200  139.334000
  H    -55.844800   54.407300  140.201000
  C    -55.519000   56.341000  141.179000
  H    -55.182600   57.247500  140.711000
  H    -56.467600   56.555700  141.714000
  C    -54.564500   55.857500  142.211000
  H    -54.971800   55.027900  142.748000
  H    -53.641300   55.515100  141.720000
  H    -54.277300   56.624400  143.025000
  S    -60.429400   55.002200  135.564000
  C    -61.590200   53.708900  135.444000
  C    -61.762100   53.009700  136.595000
  C    -60.845700   53.348100  137.646000
  C    -60.046200   54.439800  137.271000
  H    -62.369400   52.113600  136.638000
  C    -60.766900   52.738500  138.954000
  H    -61.726300   52.588000  139.425000
  H    -60.169400   53.396300  139.625000
  C    -60.094500   51.384300  139.008000
  H    -59.909900   51.107200  140.001000
  H    -59.049200   51.494800  138.565000
  C    -60.934600   50.234300  138.335000
  H    -60.807500   50.281800  137.253000
  H    -61.982500   50.100700  138.618000
  H    -60.435900   49.341100  138.774000
  H    -56.417600   57.798800  138.382000
  H    -62.146600   53.496200  134.575000

 Total Charge           Charge          ....    0
 Multiplicity           Mult            ....    1
 Number of Electrons    NEL             ....  134
 Basis Dimension        Dim             ....  322

ORBITAL ENERGIES
----------------

  NO   OCC          E(Eh)            E(eV)
   0   2.0000     -88.966622     -2420.9049
   1   2.0000     -88.963581     -2420.8221
   2   2.0000     -10.337396      -281.2949
   3   2.0000     -10.330816      -281.1158
   4   2.0000     -10.318142      -280.7709
   5   2.0000     -10.315441      -280.6974
   6   2.0000     -10.307083      -280.4700
   7   2.0000     -10.306244      -280.4472
   8   2.0000     -10.294101      -280.1167
   9   2.0000     -10.293478      -280.0998
  10   2.0000     -10.291729      -280.0522
  11   2.0000     -10.290405      -280.0161
  12   2.0000     -10.288192      -279.9559
  13   2.0000     -10.285952      -279.8950
  14   2.0000     -10.283525      -279.8289
  15   2.0000     -10.281605      -279.7767
  16   2.0000      -8.080421      -219.8794
  17   2.0000      -8.078412      -219.8248
  18   2.0000      -6.038984      -164.3291
  19   2.0000      -6.036995      -164.2750
  20   2.0000      -6.035255      -164.2276
  21   2.0000      -6.032825      -164.1615
  22   2.0000      -6.030990      -164.1116
  23   2.0000      -6.029156      -164.0617
  24   2.0000      -1.006786       -27.3961
  25   2.0000      -0.983994       -26.7758
  26   2.0000      -0.919012       -25.0076
  27   2.0000      -0.912620       -24.8337
  28   2.0000      -0.871864       -23.7246
  29   2.0000      -0.853197       -23.2167
  30   2.0000      -0.843651       -22.9569
  31   2.0000      -0.818578       -22.2746
  32   2.0000      -0.788504       -21.4563
  33   2.0000      -0.772751       -21.0276
  34   2.0000      -0.710794       -19.3417
  35   2.0000      -0.701742       -19.0954
  36   2.0000      -0.692150       -18.8344
  37   2.0000      -0.666637       -18.1401
  38   2.0000      -0.642212       -17.4755
  39   2.0000      -0.613777       -16.7017
  40   2.0000      -0.602540       -16.3959
  41   2.0000      -0.567611       -15.4455
  42   2.0000      -0.562521       -15.3070
  43   2.0000      -0.556611       -15.1462
  44   2.0000      -0.549979       -14.9657
  45   2.0000      -0.523712       -14.2509
  46   2.0000      -0.519253       -14.1296
  47   2.0000      -0.508203       -13.8289
  48   2.0000      -0.505977       -13.7683
  49   2.0000      -0.500394       -13.6164
  50   2.0000      -0.495897       -13.4940
  51   2.0000      -0.487593       -13.2681
  52   2.0000      -0.476815       -12.9748
  53   2.0000      -0.471796       -12.8382
  54   2.0000      -0.463428       -12.6105
  55   2.0000      -0.445713       -12.1285
  56   2.0000      -0.443456       -12.0671
  57   2.0000      -0.439139       -11.9496
  58   2.0000      -0.428231       -11.6528
  59   2.0000      -0.424563       -11.5529
  60   2.0000      -0.416005       -11.3201
  61   2.0000      -0.414815       -11.2877
  62   2.0000      -0.406595       -11.0640
  63   2.0000      -0.363574        -9.8934
  64   2.0000      -0.335613        -9.1325
  65   2.0000      -0.328212        -8.9311
  66   2.0000      -0.282643        -7.6911
  67   0.0000       0.018967         0.5161
  68   0.0000       0.072948         1.9850
  69   0.0000       0.102831         2.7982
  70   0.0000       0.116988         3.1834
  71   0.0000       0.134933         3.6717

MULLIKEN ATOMIC CHARGES
-----------------------
   0 S :    0.091209
   1 C :   -0.122121
   2 C :   -0.111639
   3 C :   -0.015718
   4 C :   -0.116980
   5 H :    0.018051
   6 C :    0.088641
   7 H :    0.026064
   8 H :   -0.002120
   9 C :   -0.054324
  10 H :    0.018400
  11 H :    0.037492
  12 C :   -0.060125
  13 H :    0.027071
  14 H :    0.025373
  15 H :    0.049691
  16 S :    0.083970
  17 C :   -0.053661
  18 C :   -0.018626
  19 C :   -0.032690
  20 C :   -0.128689
  21 H :    0.017928
  22 C :    0.035478
  23 H :    0.025094
  24 H :    0.026564
  25 C :   -0.080417
  26 H :    0.018666
  27 H :    0.038826
  28 C :   -0.075667
  29 H :    0.054635
  30 H :    0.039020
  31 H :    0.036100
  32 H :    0.074021
  33 H :    0.040483
Sum of atomic charges:   -0.0000000

LOEWDIN ATOMIC CHARGES
----------------------
   0 S :    0.400741
   1 C :   -0.211812
   2 C :   -0.058882
   3 C :   -0.086672
   4 C :   -0.184588
   5 H :    0.034842
   6 C :   -0.027971
   7 H :    0.030943
   8 H :    0.020299
   9 C :   -0.045807
  10 H :    0.019981
  11 H :    0.030066
  12 C :   -0.069749
  13 H :    0.020883
  14 H :    0.023503
  15 H :    0.039137
  16 S :    0.367179
  17 C :   -0.168702
  18 C :   -0.071106
  19 C :   -0.050114
  20 C :   -0.158085
  21 H :    0.031817
  22 C :   -0.042399
  23 H :    0.032226
  24 H :    0.035226
  25 C :   -0.035000
  26 H :    0.014479
  27 H :    0.031330
  28 C :   -0.073534
  29 H :    0.027289
  30 H :    0.025471
  31 H :    0.034119
  32 H :    0.042433
  33 H :    0.022458

  Mayer bond orders larger than 0.100000
B(  0-S ,  1-C ) :   1.1414 B(  0-S ,  4-C ) :   1.1379 B(  1-C ,  2-C ) :   1.6026
B(  1-C , 32-H ) :   0.9639 B(  2-C ,  3-C ) :   1.2475 B(  2-C ,  6-C ) :   1.0176
B(  3-C ,  4-C ) :   1.5958 B(  3-C ,  5-H ) :   0.9704 B(  4-C , 20-C ) :   1.0694
B(  6-C ,  7-H ) :   0.9340 B(  6-C ,  8-H ) :   0.9423 B(  6-C ,  9-C ) :   1.0545
B(  9-C , 10-H ) :   0.9504 B(  9-C , 11-H ) :   0.9593 B(  9-C , 12-C ) :   1.0941
B( 12-C , 13-H ) :   0.9740 B( 12-C , 14-H ) :   0.9715 B( 12-C , 15-H ) :   0.9715
B( 16-S , 17-C ) :   1.1415 B( 16-S , 20-C ) :   1.1103 B( 17-C , 18-C ) :   1.6396
B( 17-C , 33-H ) :   0.9680 B( 18-C , 19-C ) :   1.2163 B( 18-C , 21-H ) :   0.9806
B( 19-C , 20-C ) :   1.6081 B( 19-C , 22-C ) :   1.0609 B( 22-C , 23-H ) :   0.9269
B( 22-C , 24-H ) :   0.9272 B( 22-C , 25-C ) :   1.0799 B( 25-C , 26-H ) :   0.9604
B( 25-C , 27-H ) :   0.9454 B( 25-C , 28-C ) :   1.0696 B( 28-C , 29-H ) :   0.9731
B( 28-C , 30-H ) :   0.9750 B( 28-C , 31-H ) :   0.9739

Dispersion correction           -0.013851091
FINAL SINGLE POINT ENERGY     -1339.869874317976

DIPOLE MOMENT
-------------
                                X             Y             Z
Electronic contribution:    -11.30899      15.28866     -22.29396
Nuclear contribution   :     11.49337     -15.93354      22.71607
                        -----------------------------------------
Total Dipole Moment    :      0.18438      -0.64488       0.42211
                        -----------------------------------------
Magnitude (a.u.)       :      0.79249
Magnitude (Debye)      :      2.01435

Rotational constants in cm-1:     0.020423     0.007860     0.005852
Rotational constants in MHz :   612.253203   235.633889   175.435867

                             ****ORCA TERMINATED NORMALLY****
TOTAL RUN TIME: 0 days 0 hours 0 minutes 34 seconds 502 msec
