                         Program Version 4.2.1 -  RELEASE  -
|  1> ! wB97X-D3 SP def2-SVP
|  2> %pal
|  3> nprocs 16
|  4> end
|  5>
|  6> * xyz 0 1
|  7> S 	 39.4308 	 16.5077 	 67.4889
|  8> C 	 37.8896 	 16.0497 	 68.2452
|  9> C 	 37.4543 	 14.8143 	 67.9138
| 10> C 	 38.3632 	 14.1978 	 66.9914
| 11> C 	 39.4231 	 14.9597 	 66.5662
| 12> H 	 38.2487 	 13.2802 	 66.4658
| 13> C 	 36.039 	 14.3459 	 68.2653
| 14> H 	 35.6839 	 14.8924 	 69.1143
| 15> H 	 36.0905 	 13.3053 	 68.6693
| 16> C 	 35.1154 	 14.2055 	 67.0872
| 17> H 	 34.9797 	 15.1489 	 66.6801
| 18> H 	 35.4542 	 13.5615 	 66.2816
| 19> C 	 33.6896 	 13.78 	 67.5982
| 20> H 	 33.7324 	 12.764 	 67.8112
| 21> H 	 33.2988 	 14.3394 	 68.497
| 22> H 	 32.9626 	 13.8721 	 66.8026
| 23> S 	 40.7802 	 12.9976 	 65.1204
| 24> C 	 42.2381 	 13.5264 	 64.2735
| 25> C 	 42.1095 	 14.8533 	 63.9784
| 26> C 	 41.1351 	 15.5531 	 64.7086
| 27> C 	 40.3371 	 14.7009 	 65.4942
| 28> H 	 42.8446 	 15.2971 	 63.3416
| 29> C 	 40.8684 	 17.0252 	 64.6004
| 30> H 	 39.7848 	 17.385 	 64.6853
| 31> H 	 41.164 	 17.366 	 63.5837
| 32> C 	 41.8502 	 17.7523 	 65.4214
| 33> H 	 42.8254 	 17.3865 	 65.2138
| 34> H 	 41.6145 	 17.6976 	 66.4626
| 35> C 	 41.8 	 19.2867 	 65.1834
| 36> H 	 42.6657 	 19.7266 	 65.7047
| 37> H 	 40.8323 	 19.6943 	 65.5969
| 38> H 	 41.8719 	 19.47 	 64.1464
| 39> H 	 37.1837 	 16.6888 	 68.7658
| 40> H 	 42.9249 	 12.8473 	 63.7492
| 41> *
| 42>
| 43>                          ****END OF INPUT****

CARTESIAN COORDINATES (ANGSTROEM)
---------------------------------
  S     39.430800   16.507700   67.488900
  C     37.889600   16.049700   68.245200
  C     37.454300   14.814300   67.913800
  C     38.363200   14.197800   66.991400
  C     39.423100   14.959700   66.566200
  H     38.248700   13.280200   66.465800
  C     36.039000   14.345900   68.265300
  H     35.683900   14.892400   69.114300
  H     36.090500   13.305300   68.669300
  C     35.115400   14.205500   67.087200
  H     34.979700   15.148900   66.680100
  H     35.454200   13.561500   66.281600
  C     33.689600   13.780000   67.598200
  H     33.732400   12.764000   67.811200
  H     33.298800   14.339400   68.497000
  H     32.962600   13.872100   66.802600
  S     40.780200   12.997600   65.120400
  C     42.238100   13.526400   64.273500
  C     42.109500   14.853300   63.978400
  C     41.135100   15.553100   64.708600
  C     40.337100   14.700900   65.494200
  H     42.844600   15.297100   63.341600
  C     40.868400   17.025200   64.600400
  H     39.784800   17.385000   64.685300
  H     41.164000   17.366000   63.583700
  C     41.850200   17.752300   65.421400
  H     42.825400   17.386500   65.213800
  H     41.614500   17.697600   66.462600
  C     41.800000   19.286700   65.183400
  H     42.665700   19.726600   65.704700
  H     40.832300   19.694300   65.596900
  H     41.871900   19.470000   64.146400
  H     37.183700   16.688800   68.765800
  H     42.924900   12.847300   63.749200

 Total Charge           Charge          ....    0
 Multiplicity           Mult            ....    1
 Number of Electrons    NEL             ....  134
 Basis Dimension        Dim             ....  322

ORBITAL ENERGIES
----------------

  NO   OCC          E(Eh)            E(eV)
   0   2.0000     -88.967039     -2420.9162
   1   2.0000     -88.964334     -2420.8426
   2   2.0000     -10.333248      -281.1820
   3   2.0000     -10.332024      -281.1487
   4   2.0000     -10.322144      -280.8798
   5   2.0000     -10.309864      -280.5457
   6   2.0000     -10.306213      -280.4463
   7   2.0000     -10.299788      -280.2715
   8   2.0000     -10.293998      -280.1139
   9   2.0000     -10.293804      -280.1087
  10   2.0000     -10.292488      -280.0728
  11   2.0000     -10.291752      -280.0528
  12   2.0000     -10.282784      -279.8088
  13   2.0000     -10.277979      -279.6780
  14   2.0000     -10.275257      -279.6040
  15   2.0000     -10.272645      -279.5329
  16   2.0000      -8.079939      -219.8663
  17   2.0000      -8.078337      -219.8227
  18   2.0000      -6.038741      -164.3225
  19   2.0000      -6.037005      -164.2753
  20   2.0000      -6.034840      -164.2163
  21   2.0000      -6.033142      -164.1701
  22   2.0000      -6.030357      -164.0944
  23   2.0000      -6.028782      -164.0515
  24   2.0000      -1.005285       -27.3552
  25   2.0000      -0.982964       -26.7478
  26   2.0000      -0.919944       -25.0329
  27   2.0000      -0.914922       -24.8963
  28   2.0000      -0.875449       -23.8222
  29   2.0000      -0.850154       -23.1339
  30   2.0000      -0.841941       -22.9104
  31   2.0000      -0.816665       -22.2226
  32   2.0000      -0.782821       -21.3016
  33   2.0000      -0.771201       -20.9855
  34   2.0000      -0.715348       -19.4656
  35   2.0000      -0.700151       -19.0521
  36   2.0000      -0.690828       -18.7984
  37   2.0000      -0.671175       -18.2636
  38   2.0000      -0.632560       -17.2128
  39   2.0000      -0.618900       -16.8411
  40   2.0000      -0.602457       -16.3937
  41   2.0000      -0.578459       -15.7407
  42   2.0000      -0.571886       -15.5618
  43   2.0000      -0.563836       -15.3428
  44   2.0000      -0.526339       -14.3224
  45   2.0000      -0.525482       -14.2991
  46   2.0000      -0.518463       -14.1081
  47   2.0000      -0.513682       -13.9780
  48   2.0000      -0.504347       -13.7240
  49   2.0000      -0.500821       -13.6280
  50   2.0000      -0.491797       -13.3825
  51   2.0000      -0.474836       -12.9209
  52   2.0000      -0.472171       -12.8484
  53   2.0000      -0.465370       -12.6634
  54   2.0000      -0.460269       -12.5246
  55   2.0000      -0.453384       -12.3372
  56   2.0000      -0.444788       -12.1033
  57   2.0000      -0.440260       -11.9801
  58   2.0000      -0.432861       -11.7787
  59   2.0000      -0.429993       -11.7007
  60   2.0000      -0.418488       -11.3876
  61   2.0000      -0.413000       -11.2383
  62   2.0000      -0.404370       -11.0035
  63   2.0000      -0.362197        -9.8559
  64   2.0000      -0.331537        -9.0216
  65   2.0000      -0.329675        -8.9709
  66   2.0000      -0.280633        -7.6364
  67   0.0000       0.011805         0.3212
  68   0.0000       0.079315         2.1583
  69   0.0000       0.099475         2.7069
  70   0.0000       0.109543         2.9808
  71   0.0000       0.133923         3.6442

MULLIKEN ATOMIC CHARGES
-----------------------
   0 S :    0.078156
   1 C :   -0.101971
   2 C :   -0.061884
   3 C :    0.004686
   4 C :   -0.107104
   5 H :   -0.003393
   6 C :    0.063637
   7 H :    0.013428
   8 H :    0.022789
   9 C :   -0.042305
  10 H :    0.010807
  11 H :    0.039333
  12 C :   -0.050622
  13 H :    0.017610
  14 H :    0.041528
  15 H :    0.029747
  16 S :    0.075947
  17 C :   -0.093619
  18 C :   -0.015297
  19 C :   -0.045787
  20 C :   -0.119746
  21 H :    0.012590
  22 C :    0.022802
  23 H :    0.057903
  24 H :    0.010781
  25 C :   -0.079452
  26 H :    0.021589
  27 H :    0.028681
  28 C :   -0.034342
  29 H :    0.039499
  30 H :    0.038919
  31 H :    0.014028
  32 H :    0.040589
  33 H :    0.070468
Sum of atomic charges:    0.0000000

LOEWDIN ATOMIC CHARGES
----------------------
   0 S :    0.381618
   1 C :   -0.189310
   2 C :   -0.059944
   3 C :   -0.063459
   4 C :   -0.162870
   5 H :    0.020580
   6 C :   -0.028990
   7 H :    0.026914
   8 H :    0.034713
   9 C :   -0.031209
  10 H :    0.013241
  11 H :    0.029389
  12 C :   -0.059948
  13 H :    0.013848
  14 H :    0.032681
  15 H :    0.024549
  16 S :    0.372317
  17 C :   -0.173175
  18 C :   -0.069227
  19 C :   -0.051206
  20 C :   -0.175442
  21 H :    0.028875
  22 C :   -0.047966
  23 H :    0.038447
  24 H :    0.032254
  25 C :   -0.042236
  26 H :    0.019430
  27 H :    0.008752
  28 C :   -0.059225
  29 H :    0.029010
  30 H :    0.031247
  31 H :    0.010748
  32 H :    0.029210
  33 H :    0.036387

  Mayer bond orders larger than 0.100000
B(  0-S ,  1-C ) :   1.1063 B(  0-S ,  4-C ) :   1.0997 B(  1-C ,  2-C ) :   1.6797
B(  1-C , 32-H ) :   0.9541 B(  2-C ,  3-C ) :   1.1967 B(  2-C ,  6-C ) :   1.0313
B(  3-C ,  4-C ) :   1.6004 B(  3-C ,  5-H ) :   0.9954 B(  4-C , 20-C ) :   1.1190
B(  6-C ,  7-H ) :   0.9435 B(  6-C ,  8-H ) :   0.9325 B(  6-C ,  9-C ) :   1.0589
B(  9-C , 10-H ) :   0.9556 B(  9-C , 11-H ) :   0.9536 B(  9-C , 12-C ) :   1.0769
B( 12-C , 13-H ) :   0.9774 B( 12-C , 14-H ) :   0.9760 B( 12-C , 15-H ) :   0.9752
B( 16-S , 17-C ) :   1.1479 B( 16-S , 20-C ) :   1.1139 B( 17-C , 18-C ) :   1.6073
B( 17-C , 20-C ) :   0.1017 B( 17-C , 33-H ) :   0.9613 B( 18-C , 19-C ) :   1.2542
B( 18-C , 21-H ) :   0.9873 B( 19-C , 20-C ) :   1.5512 B( 19-C , 22-C ) :   1.0365
B( 22-C , 23-H ) :   0.9437 B( 22-C , 24-H ) :   0.9270 B( 22-C , 25-C ) :   1.0567
B( 25-C , 26-H ) :   0.9564 B( 25-C , 27-H ) :   0.9462 B( 25-C , 28-C ) :   1.0843
B( 28-C , 29-H ) :   0.9751 B( 28-C , 30-H ) :   0.9741 B( 28-C , 31-H ) :   0.9753

Dispersion correction           -0.013893480
FINAL SINGLE POINT ENERGY     -1339.858648389484

DIPOLE MOMENT
-------------
                                X             Y             Z
Electronic contribution:     13.24346      -9.70094      -0.23994
Nuclear contribution   :    -13.51645       9.81861      -0.09983
                        -----------------------------------------
Total Dipole Moment    :     -0.27300       0.11767      -0.33977
                        -----------------------------------------
Magnitude (a.u.)       :      0.45146
Magnitude (Debye)      :      1.14751

Rotational constants in cm-1:     0.020496     0.008056     0.006308
Rotational constants in MHz :   614.452284   241.507499   189.102265

                             ****ORCA TERMINATED NORMALLY****
TOTAL RUN TIME: 0 days 0 hours 0 minutes 28 seconds 130 msec
