                         Program Version 4.2.1 -  RELEASE  -
|  1> ! wB97X-D3 SP def2-SVP
|  2> %pal
|  3> nprocs 16
|  4> end
|  5>
|  6> * xyz 0 1
|  7> S 	 56.5686 	 13.4169 	 57.0665
|  8> C 	 56.0861 	 14.9581 	 57.927
|  9> C 	 57.1184 	 15.8723 	 57.7234
| 10> C 	 58.2505 	 15.3726 	 56.9416
| 11> C 	 58.097 	 14.0681 	 56.4857
| 12> H 	 59.0668 	 16.0334 	 56.5891
| 13> C 	 56.8771 	 17.3243 	 57.8938
| 14> H 	 57.8101 	 17.8106 	 57.7702
| 15> H 	 56.4925 	 17.4735 	 58.8803
| 16> C 	 55.8214 	 17.9004 	 56.9391
| 17> H 	 56.0204 	 17.8364 	 55.8785
| 18> H 	 54.824 	 17.4274 	 57.1564
| 19> C 	 55.6917 	 19.4329 	 57.2025
| 20> H 	 55.054 	 19.8347 	 57.9566
| 21> H 	 56.6071 	 19.821 	 57.5179
| 22> H 	 55.3628 	 19.8847 	 56.2973
| 23> S 	 59.6277 	 11.8809 	 56.8204
| 24> C 	 60.9618 	 11.5867 	 55.7318
| 25> C 	 61.0605 	 12.4199 	 54.673
| 26> C 	 60.0332 	 13.4117 	 54.7484
| 27> C 	 59.1514 	 13.2853 	 55.8103
| 28> H 	 61.934 	 12.4741 	 54.0716
| 29> C 	 60.0318 	 14.5078 	 53.7067
| 30> H 	 60.9271 	 15.1333 	 53.823
| 31> H 	 59.2692 	 15.2498 	 53.864
| 32> C 	 59.8226 	 13.8922 	 52.2842
| 33> H 	 60.4673 	 12.9963 	 52.1023
| 34> H 	 59.9195 	 14.5777 	 51.4517
| 35> C 	 58.3825 	 13.3252 	 52.217
| 36> H 	 57.5722 	 14.0302 	 52.4801
| 37> H 	 58.2896 	 12.4963 	 52.9102
| 38> H 	 58.0492 	 12.9577 	 51.2216
| 39> H 	 55.0329 	 15.1316 	 58.3152
| 40> H 	 61.6254 	 10.7249 	 55.8398
| 41> *
| 42>
| 43>                          ****END OF INPUT****

CARTESIAN COORDINATES (ANGSTROEM)
---------------------------------
  S     56.568600   13.416900   57.066500
  C     56.086100   14.958100   57.927000
  C     57.118400   15.872300   57.723400
  C     58.250500   15.372600   56.941600
  C     58.097000   14.068100   56.485700
  H     59.066800   16.033400   56.589100
  C     56.877100   17.324300   57.893800
  H     57.810100   17.810600   57.770200
  H     56.492500   17.473500   58.880300
  C     55.821400   17.900400   56.939100
  H     56.020400   17.836400   55.878500
  H     54.824000   17.427400   57.156400
  C     55.691700   19.432900   57.202500
  H     55.054000   19.834700   57.956600
  H     56.607100   19.821000   57.517900
  H     55.362800   19.884700   56.297300
  S     59.627700   11.880900   56.820400
  C     60.961800   11.586700   55.731800
  C     61.060500   12.419900   54.673000
  C     60.033200   13.411700   54.748400
  C     59.151400   13.285300   55.810300
  H     61.934000   12.474100   54.071600
  C     60.031800   14.507800   53.706700
  H     60.927100   15.133300   53.823000
  H     59.269200   15.249800   53.864000
  C     59.822600   13.892200   52.284200
  H     60.467300   12.996300   52.102300
  H     59.919500   14.577700   51.451700
  C     58.382500   13.325200   52.217000
  H     57.572200   14.030200   52.480100
  H     58.289600   12.496300   52.910200
  H     58.049200   12.957700   51.221600
  H     55.032900   15.131600   58.315200
  H     61.625400   10.724900   55.839800

 Total Charge           Charge          ....    0
 Multiplicity           Mult            ....    1
 Number of Electrons    NEL             ....  134
 Basis Dimension        Dim             ....  322

ORBITAL ENERGIES
----------------

  NO   OCC          E(Eh)            E(eV)
   0   2.0000     -88.965424     -2420.8723
   1   2.0000     -88.962907     -2420.8038
   2   2.0000     -10.337806      -281.3060
   3   2.0000     -10.332357      -281.1577
   4   2.0000     -10.326863      -281.0082
   5   2.0000     -10.317060      -280.7415
   6   2.0000     -10.308179      -280.4998
   7   2.0000     -10.303580      -280.3747
   8   2.0000     -10.300286      -280.2850
   9   2.0000     -10.293878      -280.1107
  10   2.0000     -10.292461      -280.0721
  11   2.0000     -10.292226      -280.0657
  12   2.0000     -10.290332      -280.0142
  13   2.0000     -10.285369      -279.8791
  14   2.0000     -10.272677      -279.5338
  15   2.0000     -10.267280      -279.3869
  16   2.0000      -8.078750      -219.8340
  17   2.0000      -8.077584      -219.8022
  18   2.0000      -6.037472      -164.2880
  19   2.0000      -6.036132      -164.2515
  20   2.0000      -6.033352      -164.1758
  21   2.0000      -6.032170      -164.1437
  22   2.0000      -6.029437      -164.0693
  23   2.0000      -6.028206      -164.0358
  24   2.0000      -1.002163       -27.2702
  25   2.0000      -0.978297       -26.6208
  26   2.0000      -0.915993       -24.9254
  27   2.0000      -0.906462       -24.6661
  28   2.0000      -0.868569       -23.6350
  29   2.0000      -0.843580       -22.9550
  30   2.0000      -0.842229       -22.9182
  31   2.0000      -0.814031       -22.1509
  32   2.0000      -0.779798       -21.2194
  33   2.0000      -0.769438       -20.9375
  34   2.0000      -0.709083       -19.2951
  35   2.0000      -0.703861       -19.1530
  36   2.0000      -0.693372       -18.8676
  37   2.0000      -0.662736       -18.0340
  38   2.0000      -0.636472       -17.3193
  39   2.0000      -0.618366       -16.8266
  40   2.0000      -0.601896       -16.3784
  41   2.0000      -0.571451       -15.5500
  42   2.0000      -0.562808       -15.3148
  43   2.0000      -0.552139       -15.0245
  44   2.0000      -0.537152       -14.6167
  45   2.0000      -0.528855       -14.3909
  46   2.0000      -0.517281       -14.0759
  47   2.0000      -0.512913       -13.9571
  48   2.0000      -0.500271       -13.6131
  49   2.0000      -0.492865       -13.4115
  50   2.0000      -0.488178       -13.2840
  51   2.0000      -0.476036       -12.9536
  52   2.0000      -0.466100       -12.6832
  53   2.0000      -0.461740       -12.5646
  54   2.0000      -0.458847       -12.4859
  55   2.0000      -0.447654       -12.1813
  56   2.0000      -0.442574       -12.0431
  57   2.0000      -0.436043       -11.8653
  58   2.0000      -0.429820       -11.6960
  59   2.0000      -0.425241       -11.5714
  60   2.0000      -0.423349       -11.5199
  61   2.0000      -0.416564       -11.3353
  62   2.0000      -0.409777       -11.1506
  63   2.0000      -0.345010        -9.3882
  64   2.0000      -0.330814        -9.0019
  65   2.0000      -0.324339        -8.8257
  66   2.0000      -0.297926        -8.1070
  67   0.0000       0.031293         0.8515
  68   0.0000       0.061459         1.6724
  69   0.0000       0.104783         2.8513
  70   0.0000       0.112344         3.0570
  71   0.0000       0.130665         3.5556

MULLIKEN ATOMIC CHARGES
-----------------------
   0 S :    0.088955
   1 C :   -0.167329
   2 C :   -0.069499
   3 C :    0.030128
   4 C :   -0.140817
   5 H :    0.030226
   6 C :    0.067067
   7 H :    0.013216
   8 H :    0.026892
   9 C :   -0.076053
  10 H :    0.034734
  11 H :    0.033707
  12 C :   -0.015131
  13 H :    0.021101
  14 H :    0.004531
  15 H :    0.022415
  16 S :    0.092591
  17 C :   -0.082616
  18 C :   -0.016352
  19 C :   -0.079674
  20 C :   -0.137265
  21 H :    0.024200
  22 C :    0.080387
  23 H :    0.035568
  24 H :    0.012241
  25 C :   -0.073621
  26 H :    0.043789
  27 H :    0.033738
  28 C :   -0.089049
  29 H :    0.029682
  30 H :    0.042575
  31 H :    0.031476
  32 H :    0.089683
  33 H :    0.058504
Sum of atomic charges:   -0.0000000

LOEWDIN ATOMIC CHARGES
----------------------
   0 S :    0.368762
   1 C :   -0.186443
   2 C :   -0.062673
   3 C :   -0.069565
   4 C :   -0.194586
   5 H :    0.036390
   6 C :   -0.031818
   7 H :    0.022635
   8 H :    0.032445
   9 C :   -0.028434
  10 H :    0.024882
  11 H :    0.027863
  12 C :   -0.063419
  13 H :    0.022120
  14 H :    0.015478
  15 H :    0.023371
  16 S :    0.388991
  17 C :   -0.169103
  18 C :   -0.074851
  19 C :   -0.049861
  20 C :   -0.181760
  21 H :    0.033388
  22 C :   -0.031193
  23 H :    0.032298
  24 H :    0.024846
  25 C :   -0.038017
  26 H :    0.029297
  27 H :    0.021613
  28 C :   -0.073144
  29 H :    0.024519
  30 H :    0.024220
  31 H :    0.025425
  32 H :    0.046747
  33 H :    0.029574

  Mayer bond orders larger than 0.100000
B(  0-S ,  1-C ) :   1.1095 B(  0-S ,  4-C ) :   1.1548 B(  1-C ,  2-C ) :   1.5953
B(  1-C , 32-H ) :   0.9650 B(  2-C ,  3-C ) :   1.2348 B(  2-C ,  6-C ) :   1.0487
B(  3-C ,  4-C ) :   1.5758 B(  3-C ,  5-H ) :   0.9835 B(  4-C , 20-C ) :   1.0131
B(  6-C ,  7-H ) :   0.9408 B(  6-C ,  8-H ) :   0.9333 B(  6-C ,  9-C ) :   1.0703
B(  9-C , 10-H ) :   0.9647 B(  9-C , 11-H ) :   0.9533 B(  9-C , 12-C ) :   1.0660
B( 12-C , 13-H ) :   0.9745 B( 12-C , 14-H ) :   0.9738 B( 12-C , 15-H ) :   0.9780
B( 16-S , 17-C ) :   1.1605 B( 16-S , 20-C ) :   1.1150 B( 17-C , 18-C ) :   1.6458
B( 17-C , 33-H ) :   0.9576 B( 18-C , 19-C ) :   1.2074 B( 18-C , 21-H ) :   0.9904
B( 19-C , 20-C ) :   1.6509 B( 19-C , 22-C ) :   1.0415 B( 22-C , 23-H ) :   0.9376
B( 22-C , 24-H ) :   0.9424 B( 22-C , 25-C ) :   1.0500 B( 25-C , 26-H ) :   0.9612
B( 25-C , 27-H ) :   0.9611 B( 25-C , 28-C ) :   1.0586 B( 28-C , 29-H ) :   0.9758
B( 28-C , 30-H ) :   0.9767 B( 28-C , 31-H ) :   0.9754

Dispersion correction           -0.014264600
FINAL SINGLE POINT ENERGY     -1339.862483102910

DIPOLE MOMENT
-------------
                                X             Y             Z
Electronic contribution:      4.67658     -22.06671      12.88701
Nuclear contribution   :     -4.49408      22.75302     -13.19755
                        -----------------------------------------
Total Dipole Moment    :      0.18250       0.68631      -0.31054
                        -----------------------------------------
Magnitude (a.u.)       :      0.77509
Magnitude (Debye)      :      1.97013

Rotational constants in cm-1:     0.020811     0.007881     0.006607
Rotational constants in MHz :   623.894569   236.273696   198.069131

                             ****ORCA TERMINATED NORMALLY****
TOTAL RUN TIME: 0 days 0 hours 0 minutes 29 seconds 947 msec
