                         Program Version 4.2.1 -  RELEASE  -
|  1> ! wB97X-D3 SP def2-SVP
|  2> %pal
|  3> nprocs 16
|  4> end
|  5>
|  6> * xyz 0 1
|  7> S 	 32.3874 	 24.1019 	 51.6369
|  8> C 	 32.5869 	 25.7669 	 51.0989
|  9> C 	 33.5206 	 26.4683 	 51.8361
| 10> C 	 34.0387 	 25.5947 	 52.8669
| 11> C 	 33.413 	 24.3761 	 52.9963
| 12> H 	 34.8855 	 25.8784 	 53.5028
| 13> C 	 33.9577 	 27.8811 	 51.5147
| 14> H 	 33.4359 	 28.1277 	 50.5986
| 15> H 	 35.0255 	 27.802 	 51.3114
| 16> C 	 33.5777 	 28.9001 	 52.544
| 17> H 	 34.0674 	 28.678 	 53.4583
| 18> H 	 33.9544 	 29.9341 	 52.3434
| 19> C 	 32.1028 	 29.111 	 52.9698
| 20> H 	 32.1708 	 29.6097 	 53.924
| 21> H 	 31.5442 	 29.7259 	 52.2565
| 22> H 	 31.5739 	 28.185 	 53.1654
| 23> S 	 32.636 	 22.6271 	 55.0267
| 24> C 	 33.817 	 21.613 	 55.6971
| 25> C 	 35.0773 	 21.8135 	 55.1454
| 26> C 	 35.1034 	 22.7786 	 54.094
| 27> C 	 33.8199 	 23.2534 	 53.8352
| 28> H 	 35.9547 	 21.399 	 55.5943
| 29> C 	 36.3563 	 23.1845 	 53.39
| 30> H 	 36.9624 	 23.7265 	 54.1151
| 31> H 	 36.221 	 24.0183 	 52.6649
| 32> C 	 37.0536 	 22.0467 	 52.6679
| 33> H 	 36.3292 	 21.6438 	 51.8934
| 34> H 	 37.1095 	 21.2913 	 53.4163
| 35> C 	 38.4389 	 22.3138 	 52.2467
| 36> H 	 38.4861 	 23.2257 	 51.6256
| 37> H 	 38.785 	 21.6185 	 51.5499
| 38> H 	 39.0907 	 22.437 	 53.1473
| 39> H 	 32.1834 	 26.1763 	 50.2014
| 40> H 	 33.7418 	 21.0022 	 56.5511
| 41> *
| 42>
| 43>                          ****END OF INPUT****

CARTESIAN COORDINATES (ANGSTROEM)
---------------------------------
  S     32.387400   24.101900   51.636900
  C     32.586900   25.766900   51.098900
  C     33.520600   26.468300   51.836100
  C     34.038700   25.594700   52.866900
  C     33.413000   24.376100   52.996300
  H     34.885500   25.878400   53.502800
  C     33.957700   27.881100   51.514700
  H     33.435900   28.127700   50.598600
  H     35.025500   27.802000   51.311400
  C     33.577700   28.900100   52.544000
  H     34.067400   28.678000   53.458300
  H     33.954400   29.934100   52.343400
  C     32.102800   29.111000   52.969800
  H     32.170800   29.609700   53.924000
  H     31.544200   29.725900   52.256500
  H     31.573900   28.185000   53.165400
  S     32.636000   22.627100   55.026700
  C     33.817000   21.613000   55.697100
  C     35.077300   21.813500   55.145400
  C     35.103400   22.778600   54.094000
  C     33.819900   23.253400   53.835200
  H     35.954700   21.399000   55.594300
  C     36.356300   23.184500   53.390000
  H     36.962400   23.726500   54.115100
  H     36.221000   24.018300   52.664900
  C     37.053600   22.046700   52.667900
  H     36.329200   21.643800   51.893400
  H     37.109500   21.291300   53.416300
  C     38.438900   22.313800   52.246700
  H     38.486100   23.225700   51.625600
  H     38.785000   21.618500   51.549900
  H     39.090700   22.437000   53.147300
  H     32.183400   26.176300   50.201400
  H     33.741800   21.002200   56.551100

 Total Charge           Charge          ....    0
 Multiplicity           Mult            ....    1
 Number of Electrons    NEL             ....  134
 Basis Dimension        Dim             ....  322

ORBITAL ENERGIES
----------------

  NO   OCC          E(Eh)            E(eV)
   0   2.0000     -88.967034     -2420.9161
   1   2.0000     -88.963014     -2420.8067
   2   2.0000     -10.325582      -280.9734
   3   2.0000     -10.323807      -280.9251
   4   2.0000     -10.312067      -280.6056
   5   2.0000     -10.310396      -280.5602
   6   2.0000     -10.303361      -280.3687
   7   2.0000     -10.300352      -280.2868
   8   2.0000     -10.295238      -280.1477
   9   2.0000     -10.293529      -280.1012
  10   2.0000     -10.290244      -280.0118
  11   2.0000     -10.289125      -279.9813
  12   2.0000     -10.283875      -279.8385
  13   2.0000     -10.281360      -279.7700
  14   2.0000     -10.275379      -279.6073
  15   2.0000     -10.274170      -279.5744
  16   2.0000      -8.082009      -219.9226
  17   2.0000      -8.078163      -219.8180
  18   2.0000      -6.040360      -164.3666
  19   2.0000      -6.036646      -164.2655
  20   2.0000      -6.036528      -164.2623
  21   2.0000      -6.032872      -164.1628
  22   2.0000      -6.032698      -164.1580
  23   2.0000      -6.028831      -164.0528
  24   2.0000      -1.006661       -27.3926
  25   2.0000      -0.985223       -26.8093
  26   2.0000      -0.919162       -25.0117
  27   2.0000      -0.915676       -24.9168
  28   2.0000      -0.868729       -23.6393
  29   2.0000      -0.857625       -23.3372
  30   2.0000      -0.842145       -22.9159
  31   2.0000      -0.812753       -22.1161
  32   2.0000      -0.790201       -21.5025
  33   2.0000      -0.776801       -21.1378
  34   2.0000      -0.707686       -19.2571
  35   2.0000      -0.699381       -19.0311
  36   2.0000      -0.691393       -18.8138
  37   2.0000      -0.657097       -17.8805
  38   2.0000      -0.638821       -17.3832
  39   2.0000      -0.621565       -16.9136
  40   2.0000      -0.602502       -16.3949
  41   2.0000      -0.569890       -15.5075
  42   2.0000      -0.564446       -15.3594
  43   2.0000      -0.557362       -15.1666
  44   2.0000      -0.546197       -14.8628
  45   2.0000      -0.526972       -14.3396
  46   2.0000      -0.522170       -14.2090
  47   2.0000      -0.512620       -13.9491
  48   2.0000      -0.508106       -13.8263
  49   2.0000      -0.496343       -13.5062
  50   2.0000      -0.488379       -13.2895
  51   2.0000      -0.473751       -12.8914
  52   2.0000      -0.466534       -12.6950
  53   2.0000      -0.464855       -12.6494
  54   2.0000      -0.459697       -12.5090
  55   2.0000      -0.455992       -12.4082
  56   2.0000      -0.446734       -12.1562
  57   2.0000      -0.440814       -11.9951
  58   2.0000      -0.434436       -11.8216
  59   2.0000      -0.428694       -11.6654
  60   2.0000      -0.417009       -11.3474
  61   2.0000      -0.413513       -11.2523
  62   2.0000      -0.404217       -10.9993
  63   2.0000      -0.338602        -9.2138
  64   2.0000      -0.333972        -9.0878
  65   2.0000      -0.326690        -8.8897
  66   2.0000      -0.297466        -8.0945
  67   0.0000       0.037645         1.0244
  68   0.0000       0.064890         1.7657
  69   0.0000       0.112254         3.0546
  70   0.0000       0.116198         3.1619
  71   0.0000       0.137596         3.7442

MULLIKEN ATOMIC CHARGES
-----------------------
   0 S :    0.108673
   1 C :   -0.103748
   2 C :   -0.147592
   3 C :    0.009075
   4 C :   -0.131359
   5 H :    0.016813
   6 C :    0.150994
   7 H :    0.005078
   8 H :    0.038624
   9 C :   -0.094230
  10 H :    0.012513
  11 H :    0.028539
  12 C :   -0.049337
  13 H :    0.028667
  14 H :    0.035185
  15 H :    0.041578
  16 S :    0.121033
  17 C :   -0.054145
  18 C :   -0.053028
  19 C :   -0.020014
  20 C :   -0.178139
  21 H :    0.012711
  22 C :    0.050696
  23 H :    0.021619
  24 H :    0.020183
  25 C :   -0.076645
  26 H :    0.045637
  27 H :    0.009371
  28 C :   -0.000608
  29 H :    0.016747
  30 H :    0.021818
  31 H :    0.040801
  32 H :    0.032646
  33 H :    0.039845
Sum of atomic charges:   -0.0000000

LOEWDIN ATOMIC CHARGES
----------------------
   0 S :    0.411787
   1 C :   -0.189485
   2 C :   -0.063292
   3 C :   -0.063429
   4 C :   -0.209210
   5 H :    0.029536
   6 C :   -0.026925
   7 H :    0.028593
   8 H :    0.038381
   9 C :   -0.048336
  10 H :    0.017008
  11 H :    0.029562
  12 C :   -0.060553
  13 H :    0.028682
  14 H :    0.022852
  15 H :    0.025873
  16 S :    0.418601
  17 C :   -0.193152
  18 C :   -0.072602
  19 C :   -0.045413
  20 C :   -0.197820
  21 H :    0.025795
  22 C :   -0.039096
  23 H :    0.030930
  24 H :    0.031209
  25 C :   -0.045202
  26 H :    0.036792
  27 H :    0.016711
  28 C :   -0.062781
  29 H :    0.025429
  30 H :    0.021822
  31 H :    0.034499
  32 H :    0.020031
  33 H :    0.023203

  Mayer bond orders larger than 0.100000
B(  0-S ,  1-C ) :   1.1417 B(  0-S ,  4-C ) :   1.1564 B(  1-C ,  2-C ) :   1.6206
B(  1-C , 32-H ) :   0.9657 B(  2-C ,  3-C ) :   1.2334 B(  2-C ,  6-C ) :   1.0163
B(  3-C ,  4-C ) :   1.5845 B(  3-C ,  5-H ) :   0.9949 B(  4-C , 20-C ) :   1.0045
B(  6-C ,  7-H ) :   0.9331 B(  6-C ,  8-H ) :   0.9345 B(  6-C ,  9-C ) :   1.0680
B(  9-C , 10-H ) :   0.9602 B(  9-C , 11-H ) :   0.9544 B(  9-C , 12-C ) :   1.0784
B( 12-C , 13-H ) :   0.9740 B( 12-C , 14-H ) :   0.9775 B( 12-C , 15-H ) :   0.9739
B( 16-S , 17-C ) :   1.1725 B( 16-S , 20-C ) :   1.1389 B( 17-C , 18-C ) :   1.6004
B( 17-C , 33-H ) :   0.9686 B( 18-C , 19-C ) :   1.2484 B( 18-C , 21-H ) :   0.9867
B( 19-C , 20-C ) :   1.5971 B( 19-C , 22-C ) :   1.0432 B( 22-C , 23-H ) :   0.9276
B( 22-C , 24-H ) :   0.9256 B( 22-C , 25-C ) :   1.0573 B( 25-C , 26-H ) :   0.9484
B( 25-C , 27-H ) :   0.9568 B( 25-C , 28-C ) :   1.0905 B( 28-C , 29-H ) :   0.9687
B( 28-C , 30-H ) :   0.9672 B( 28-C , 31-H ) :   0.9706

Dispersion correction           -0.014211920
FINAL SINGLE POINT ENERGY     -1339.879847038157

DIPOLE MOMENT
-------------
                                X             Y             Z
Electronic contribution:    -17.22664     -14.64370       4.54706
Nuclear contribution   :     17.95116      14.99525      -4.51092
                        -----------------------------------------
Total Dipole Moment    :      0.72453       0.35154       0.03615
                        -----------------------------------------
Magnitude (a.u.)       :      0.80612
Magnitude (Debye)      :      2.04900

Rotational constants in cm-1:     0.018224     0.008329     0.006910
Rotational constants in MHz :   546.339192   249.707080   207.163216

                             ****ORCA TERMINATED NORMALLY****
TOTAL RUN TIME: 0 days 0 hours 0 minutes 34 seconds 989 msec
