                         Program Version 4.2.1 -  RELEASE  -
|  1> ! wB97X-D3 SP def2-SVP
|  2> %pal
|  3> nprocs 16
|  4> end
|  5>
|  6> * xyz 0 1
|  7> S 	 -21.7708 	 -3.50552 	 82.2643
|  8> C 	 -22.2774 	 -4.53364 	 80.9527
|  9> C 	 -22.2197 	 -5.91414 	 81.1966
| 10> C 	 -21.7607 	 -6.09727 	 82.526
| 11> C 	 -21.4107 	 -4.90717 	 83.2651
| 12> H 	 -21.7663 	 -7.06639 	 82.9576
| 13> C 	 -22.8192 	 -7.00545 	 80.3734
| 14> H 	 -22.7277 	 -7.91081 	 81.0179
| 15> H 	 -22.1148 	 -7.12819 	 79.5424
| 16> C 	 -24.2759 	 -6.63555 	 79.8617
| 17> H 	 -24.164 	 -5.6838 	 79.3434
| 18> H 	 -24.6823 	 -7.39101 	 79.1394
| 19> C 	 -25.2357 	 -6.63426 	 81.0126
| 20> H 	 -26.2969 	 -6.50205 	 80.8151
| 21> H 	 -25.1137 	 -7.53098 	 81.6413
| 22> H 	 -24.9714 	 -5.7835 	 81.5863
| 23> S 	 -22.4748 	 -4.07353 	 85.6351
| 24> C 	 -21.7418 	 -4.51008 	 87.1553
| 25> C 	 -20.8707 	 -5.4836 	 86.9496
| 26> C 	 -20.5411 	 -5.67039 	 85.557
| 27> C 	 -21.2866 	 -4.84074 	 84.7134
| 28> H 	 -20.2892 	 -5.88428 	 87.7794
| 29> C 	 -19.5853 	 -6.74908 	 85.1363
| 30> H 	 -19.6481 	 -6.77783 	 84.0834
| 31> H 	 -20.0189 	 -7.68744 	 85.4157
| 32> C 	 -18.1203 	 -6.65445 	 85.709
| 33> H 	 -18.1696 	 -6.86229 	 86.815
| 34> H 	 -17.8065 	 -5.579 	 85.6197
| 35> C 	 -17.0463 	 -7.64473 	 85.2507
| 36> H 	 -17.4792 	 -8.68977 	 85.1747
| 37> H 	 -16.1852 	 -7.73259 	 85.8814
| 38> H 	 -16.6794 	 -7.47361 	 84.2068
| 39> H 	 -22.7568 	 -4.07016 	 80.072
| 40> H 	 -22.0864 	 -3.95165 	 88.0005
| 41> *
| 42>
| 43>                          ****END OF INPUT****

CARTESIAN COORDINATES (ANGSTROEM)
---------------------------------
  S    -21.770800   -3.505520   82.264300
  C    -22.277400   -4.533640   80.952700
  C    -22.219700   -5.914140   81.196600
  C    -21.760700   -6.097270   82.526000
  C    -21.410700   -4.907170   83.265100
  H    -21.766300   -7.066390   82.957600
  C    -22.819200   -7.005450   80.373400
  H    -22.727700   -7.910810   81.017900
  H    -22.114800   -7.128190   79.542400
  C    -24.275900   -6.635550   79.861700
  H    -24.164000   -5.683800   79.343400
  H    -24.682300   -7.391010   79.139400
  C    -25.235700   -6.634260   81.012600
  H    -26.296900   -6.502050   80.815100
  H    -25.113700   -7.530980   81.641300
  H    -24.971400   -5.783500   81.586300
  S    -22.474800   -4.073530   85.635100
  C    -21.741800   -4.510080   87.155300
  C    -20.870700   -5.483600   86.949600
  C    -20.541100   -5.670390   85.557000
  C    -21.286600   -4.840740   84.713400
  H    -20.289200   -5.884280   87.779400
  C    -19.585300   -6.749080   85.136300
  H    -19.648100   -6.777830   84.083400
  H    -20.018900   -7.687440   85.415700
  C    -18.120300   -6.654450   85.709000
  H    -18.169600   -6.862290   86.815000
  H    -17.806500   -5.579000   85.619700
  C    -17.046300   -7.644730   85.250700
  H    -17.479200   -8.689770   85.174700
  H    -16.185200   -7.732590   85.881400
  H    -16.679400   -7.473610   84.206800
  H    -22.756800   -4.070160   80.072000
  H    -22.086400   -3.951650   88.000500

 Total Charge           Charge          ....    0
 Multiplicity           Mult            ....    1
 Number of Electrons    NEL             ....  134
 Basis Dimension        Dim             ....  322

ORBITAL ENERGIES
----------------

  NO   OCC          E(Eh)            E(eV)
   0   2.0000     -88.973612     -2421.0951
   1   2.0000     -88.954407     -2420.5725
   2   2.0000     -10.333982      -281.2020
   3   2.0000     -10.321349      -280.8582
   4   2.0000     -10.319523      -280.8085
   5   2.0000     -10.309311      -280.5306
   6   2.0000     -10.303367      -280.3689
   7   2.0000     -10.302018      -280.3322
   8   2.0000     -10.299713      -280.2694
   9   2.0000     -10.298737      -280.2429
  10   2.0000     -10.296803      -280.1903
  11   2.0000     -10.294652      -280.1317
  12   2.0000     -10.288147      -279.9547
  13   2.0000     -10.284127      -279.8453
  14   2.0000     -10.283145      -279.8186
  15   2.0000     -10.271256      -279.4951
  16   2.0000      -8.087810      -220.0805
  17   2.0000      -8.071348      -219.6326
  18   2.0000      -6.046164      -164.5245
  19   2.0000      -6.042277      -164.4187
  20   2.0000      -6.038894      -164.3267
  21   2.0000      -6.029776      -164.0785
  22   2.0000      -6.025610      -163.9652
  23   2.0000      -6.021976      -163.8663
  24   2.0000      -1.012184       -27.5429
  25   2.0000      -0.986981       -26.8571
  26   2.0000      -0.916590       -24.9417
  27   2.0000      -0.900982       -24.5170
  28   2.0000      -0.872414       -23.7396
  29   2.0000      -0.855617       -23.2825
  30   2.0000      -0.845405       -23.0046
  31   2.0000      -0.812028       -22.0964
  32   2.0000      -0.783341       -21.3158
  33   2.0000      -0.770134       -20.9564
  34   2.0000      -0.709655       -19.3107
  35   2.0000      -0.700917       -19.0729
  36   2.0000      -0.694640       -18.9021
  37   2.0000      -0.658504       -17.9188
  38   2.0000      -0.638611       -17.3775
  39   2.0000      -0.613546       -16.6954
  40   2.0000      -0.599932       -16.3250
  41   2.0000      -0.577781       -15.7222
  42   2.0000      -0.557469       -15.1695
  43   2.0000      -0.554761       -15.0958
  44   2.0000      -0.543354       -14.7854
  45   2.0000      -0.527247       -14.3471
  46   2.0000      -0.514850       -14.0098
  47   2.0000      -0.508595       -13.8396
  48   2.0000      -0.505800       -13.7635
  49   2.0000      -0.496496       -13.5103
  50   2.0000      -0.484863       -13.1938
  51   2.0000      -0.478402       -13.0180
  52   2.0000      -0.473838       -12.8938
  53   2.0000      -0.467810       -12.7297
  54   2.0000      -0.460048       -12.5186
  55   2.0000      -0.449992       -12.2449
  56   2.0000      -0.447771       -12.1845
  57   2.0000      -0.438694       -11.9375
  58   2.0000      -0.429885       -11.6978
  59   2.0000      -0.425398       -11.5757
  60   2.0000      -0.418243       -11.3810
  61   2.0000      -0.416750       -11.3404
  62   2.0000      -0.408638       -11.1196
  63   2.0000      -0.350498        -9.5375
  64   2.0000      -0.333419        -9.0728
  65   2.0000      -0.319947        -8.7062
  66   2.0000      -0.290498        -7.9049
  67   0.0000       0.022434         0.6105
  68   0.0000       0.075916         2.0658
  69   0.0000       0.112268         3.0550
  70   0.0000       0.117919         3.2087
  71   0.0000       0.126019         3.4292

MULLIKEN ATOMIC CHARGES
-----------------------
   0 S :    0.129260
   1 C :   -0.161138
   2 C :   -0.096957
   3 C :    0.030780
   4 C :   -0.176115
   5 H :    0.004000
   6 C :    0.063880
   7 H :    0.027366
   8 H :    0.046815
   9 C :   -0.082610
  10 H :    0.033177
  11 H :    0.039925
  12 C :   -0.033259
  13 H :    0.036153
  14 H :    0.031618
  15 H :    0.028512
  16 S :    0.080036
  17 C :   -0.102228
  18 C :    0.011455
  19 C :   -0.118633
  20 C :   -0.095583
  21 H :    0.026425
  22 C :    0.126074
  23 H :    0.000104
  24 H :    0.017936
  25 C :   -0.107919
  26 H :    0.031360
  27 H :    0.046204
  28 C :   -0.055481
  29 H :    0.025972
  30 H :    0.037327
  31 H :    0.035795
  32 H :    0.062978
  33 H :    0.056773
Sum of atomic charges:    0.0000000

LOEWDIN ATOMIC CHARGES
----------------------
   0 S :    0.425609
   1 C :   -0.204249
   2 C :   -0.069441
   3 C :   -0.046120
   4 C :   -0.207401
   5 H :    0.021868
   6 C :   -0.029662
   7 H :    0.032910
   8 H :    0.038596
   9 C :   -0.035398
  10 H :    0.022729
  11 H :    0.028306
  12 C :   -0.067990
  13 H :    0.026416
  14 H :    0.029071
  15 H :    0.023258
  16 S :    0.416615
  17 C :   -0.172277
  18 C :   -0.072340
  19 C :   -0.058769
  20 C :   -0.221940
  21 H :    0.034315
  22 C :   -0.031833
  23 H :    0.020405
  24 H :    0.029017
  25 C :   -0.047626
  26 H :    0.026869
  27 H :    0.030380
  28 C :   -0.074812
  29 H :    0.030269
  30 H :    0.023951
  31 H :    0.027078
  32 H :    0.026765
  33 H :    0.025429

  Mayer bond orders larger than 0.100000
B(  0-S ,  1-C ) :   1.1804 B(  0-S ,  4-C ) :   1.1633 B(  1-C ,  2-C ) :   1.5393
B(  1-C ,  4-C ) :   0.1022 B(  1-C , 32-H ) :   0.9599 B(  2-C ,  3-C ) :   1.3210
B(  2-C ,  6-C ) :   1.0079 B(  3-C ,  4-C ) :   1.4985 B(  3-C ,  5-H ) :   0.9833
B(  4-C , 20-C ) :   1.0468 B(  6-C ,  7-H ) :   0.9488 B(  6-C ,  8-H ) :   0.9279
B(  6-C ,  9-C ) :   1.0619 B(  9-C , 10-H ) :   0.9567 B(  9-C , 11-H ) :   0.9587
B(  9-C , 12-C ) :   1.0673 B( 12-C , 13-H ) :   0.9740 B( 12-C , 14-H ) :   0.9736
B( 12-C , 15-H ) :   0.9732 B( 16-S , 17-C ) :   1.1536 B( 16-S , 20-C ) :   1.1556
B( 17-C , 18-C ) :   1.5917 B( 17-C , 33-H ) :   0.9796 B( 18-C , 19-C ) :   1.2365
B( 18-C , 21-H ) :   0.9913 B( 19-C , 20-C ) :   1.5738 B( 19-C , 22-C ) :   1.0639
B( 22-C , 23-H ) :   0.9229 B( 22-C , 24-H ) :   0.9245 B( 22-C , 25-C ) :   1.0456
B( 25-C , 26-H ) :   0.9541 B( 25-C , 27-H ) :   0.9616 B( 25-C , 28-C ) :   1.0807
B( 28-C , 29-H ) :   0.9706 B( 28-C , 30-H ) :   0.9767 B( 28-C , 31-H ) :   0.9743

Dispersion correction           -0.014202704
FINAL SINGLE POINT ENERGY     -1339.866646456902

DIPOLE MOMENT
-------------
                                X             Y             Z
Electronic contribution:     -4.91639      19.88136       5.81286
Nuclear contribution   :      4.77960     -20.42276      -5.89779
                        -----------------------------------------
Total Dipole Moment    :     -0.13679      -0.54141      -0.08493
                        -----------------------------------------
Magnitude (a.u.)       :      0.56484
Magnitude (Debye)      :      1.43571

Rotational constants in cm-1:     0.018906     0.008142     0.006842
Rotational constants in MHz :   566.795630   244.095455   205.120288

                             ****ORCA TERMINATED NORMALLY****
TOTAL RUN TIME: 0 days 0 hours 0 minutes 33 seconds 56 msec
