                         Program Version 4.2.1 -  RELEASE  -
|  1> ! wB97X-D3 SP def2-SVP
|  2> %pal
|  3> nprocs 16
|  4> end
|  5>
|  6> * xyz 0 1
|  7> S 	 41.913 	 12.7443 	 82.9383
|  8> C 	 40.5182 	 11.7493 	 83.1563
|  9> C 	 40.9306 	 10.454 	 83.4795
| 10> C 	 42.3639 	 10.2854 	 83.4363
| 11> C 	 43.0085 	 11.4548 	 83.1809
| 12> H 	 42.985 	 9.3465 	 83.4459
| 13> C 	 39.977 	 9.32066 	 83.6547
| 14> H 	 40.2153 	 8.52885 	 83.0345
| 15> H 	 39.054 	 9.66122 	 83.157
| 16> C 	 39.6941 	 9.05013 	 85.1498
| 17> H 	 40.5589 	 8.6563 	 85.7394
| 18> H 	 39.3989 	 10.0143 	 85.5979
| 19> C 	 38.4244 	 8.23475 	 85.3743
| 20> H 	 37.7174 	 8.29315 	 84.5315
| 21> H 	 38.6486 	 7.1915 	 85.4804
| 22> H 	 37.8646 	 8.56511 	 86.2493
| 23> S 	 45.0396 	 12.1363 	 81.391
| 24> C 	 46.6634 	 12.2959 	 81.9715
| 25> C 	 46.7558 	 11.924 	 83.2557
| 26> C 	 45.5617 	 11.3998 	 83.8801
| 27> C 	 44.4915 	 11.565 	 82.9908
| 28> H 	 47.6945 	 12.0368 	 83.7146
| 29> C 	 45.389 	 11.0798 	 85.3512
| 30> H 	 46.2435 	 10.403 	 85.5154
| 31> H 	 44.5016 	 10.4971 	 85.5243
| 32> C 	 45.5188 	 12.252 	 86.3686
| 33> H 	 46.595 	 12.4123 	 86.6397
| 34> H 	 45.0068 	 11.865 	 87.2125
| 35> C 	 44.6533 	 13.4698 	 85.9318
| 36> H 	 44.6428 	 14.127 	 86.8162
| 37> H 	 43.64 	 13.211 	 85.7016
| 38> H 	 45.0483 	 14.0216 	 85.0867
| 39> H 	 39.5253 	 12.1669 	 83.0522
| 40> H 	 47.4499 	 12.6895 	 81.4002
| 41> *
| 42>
| 43>                          ****END OF INPUT****

CARTESIAN COORDINATES (ANGSTROEM)
---------------------------------
  S     41.913000   12.744300   82.938300
  C     40.518200   11.749300   83.156300
  C     40.930600   10.454000   83.479500
  C     42.363900   10.285400   83.436300
  C     43.008500   11.454800   83.180900
  H     42.985000    9.346500   83.445900
  C     39.977000    9.320660   83.654700
  H     40.215300    8.528850   83.034500
  H     39.054000    9.661220   83.157000
  C     39.694100    9.050130   85.149800
  H     40.558900    8.656300   85.739400
  H     39.398900   10.014300   85.597900
  C     38.424400    8.234750   85.374300
  H     37.717400    8.293150   84.531500
  H     38.648600    7.191500   85.480400
  H     37.864600    8.565110   86.249300
  S     45.039600   12.136300   81.391000
  C     46.663400   12.295900   81.971500
  C     46.755800   11.924000   83.255700
  C     45.561700   11.399800   83.880100
  C     44.491500   11.565000   82.990800
  H     47.694500   12.036800   83.714600
  C     45.389000   11.079800   85.351200
  H     46.243500   10.403000   85.515400
  H     44.501600   10.497100   85.524300
  C     45.518800   12.252000   86.368600
  H     46.595000   12.412300   86.639700
  H     45.006800   11.865000   87.212500
  C     44.653300   13.469800   85.931800
  H     44.642800   14.127000   86.816200
  H     43.640000   13.211000   85.701600
  H     45.048300   14.021600   85.086700
  H     39.525300   12.166900   83.052200
  H     47.449900   12.689500   81.400200

 Total Charge           Charge          ....    0
 Multiplicity           Mult            ....    1
 Number of Electrons    NEL             ....  134
 Basis Dimension        Dim             ....  322

ORBITAL ENERGIES
----------------

  NO   OCC          E(Eh)            E(eV)
   0   2.0000     -88.964453     -2420.8459
   1   2.0000     -88.959690     -2420.7162
   2   2.0000     -10.329128      -281.0699
   3   2.0000     -10.324469      -280.9431
   4   2.0000     -10.314253      -280.6651
   5   2.0000     -10.307138      -280.4715
   6   2.0000     -10.305490      -280.4266
   7   2.0000     -10.302304      -280.3399
   8   2.0000     -10.294117      -280.1172
   9   2.0000     -10.290078      -280.0073
  10   2.0000     -10.289160      -279.9823
  11   2.0000     -10.288012      -279.9511
  12   2.0000     -10.286001      -279.8963
  13   2.0000     -10.284964      -279.8681
  14   2.0000     -10.274069      -279.5716
  15   2.0000     -10.270802      -279.4827
  16   2.0000      -8.080164      -219.8724
  17   2.0000      -8.074537      -219.7193
  18   2.0000      -6.038560      -164.3176
  19   2.0000      -6.034373      -164.2036
  20   2.0000      -6.033015      -164.1667
  21   2.0000      -6.031133      -164.1155
  22   2.0000      -6.029070      -164.0593
  23   2.0000      -6.025289      -163.9564
  24   2.0000      -1.007935       -27.4273
  25   2.0000      -0.985746       -26.8235
  26   2.0000      -0.912896       -24.8412
  27   2.0000      -0.904358       -24.6088
  28   2.0000      -0.866889       -23.5892
  29   2.0000      -0.850157       -23.1339
  30   2.0000      -0.841613       -22.9015
  31   2.0000      -0.817876       -22.2555
  32   2.0000      -0.782679       -21.2978
  33   2.0000      -0.770930       -20.9781
  34   2.0000      -0.704009       -19.1571
  35   2.0000      -0.699448       -19.0329
  36   2.0000      -0.691981       -18.8298
  37   2.0000      -0.654125       -17.7996
  38   2.0000      -0.648420       -17.6444
  39   2.0000      -0.614770       -16.7288
  40   2.0000      -0.594317       -16.1722
  41   2.0000      -0.571270       -15.5451
  42   2.0000      -0.558807       -15.2059
  43   2.0000      -0.550907       -14.9910
  44   2.0000      -0.539270       -14.6743
  45   2.0000      -0.528978       -14.3942
  46   2.0000      -0.517147       -14.0723
  47   2.0000      -0.513453       -13.9718
  48   2.0000      -0.503588       -13.7033
  49   2.0000      -0.496168       -13.5014
  50   2.0000      -0.493713       -13.4346
  51   2.0000      -0.475208       -12.9311
  52   2.0000      -0.471298       -12.8247
  53   2.0000      -0.464667       -12.6442
  54   2.0000      -0.461510       -12.5583
  55   2.0000      -0.441645       -12.0178
  56   2.0000      -0.440597       -11.9893
  57   2.0000      -0.435073       -11.8389
  58   2.0000      -0.426264       -11.5992
  59   2.0000      -0.424095       -11.5402
  60   2.0000      -0.421439       -11.4679
  61   2.0000      -0.412294       -11.2191
  62   2.0000      -0.411672       -11.2022
  63   2.0000      -0.342387        -9.3168
  64   2.0000      -0.329684        -8.9711
  65   2.0000      -0.325301        -8.8519
  66   2.0000      -0.299973        -8.1627
  67   0.0000       0.038880         1.0580
  68   0.0000       0.073091         1.9889
  69   0.0000       0.124172         3.3789
  70   0.0000       0.126751         3.4491
  71   0.0000       0.129605         3.5267

MULLIKEN ATOMIC CHARGES
-----------------------
   0 S :    0.118646
   1 C :   -0.132301
   2 C :   -0.105414
   3 C :    0.028209
   4 C :   -0.161589
   5 H :    0.041050
   6 C :    0.101290
   7 H :    0.013736
   8 H :    0.005302
   9 C :   -0.078919
  10 H :    0.045183
  11 H :    0.028161
  12 C :   -0.043994
  13 H :    0.023557
  14 H :    0.027340
  15 H :    0.033769
  16 S :    0.094972
  17 C :   -0.064657
  18 C :   -0.028899
  19 C :   -0.018315
  20 C :   -0.192756
  21 H :   -0.004396
  22 C :    0.062788
  23 H :    0.024789
  24 H :    0.019803
  25 C :   -0.053807
  26 H :    0.041124
  27 H :    0.021998
  28 C :   -0.046551
  29 H :    0.032231
  30 H :    0.028524
  31 H :    0.043754
  32 H :    0.056915
  33 H :    0.038460
Sum of atomic charges:    0.0000000

LOEWDIN ATOMIC CHARGES
----------------------
   0 S :    0.432824
   1 C :   -0.207377
   2 C :   -0.059020
   3 C :   -0.074012
   4 C :   -0.213628
   5 H :    0.045569
   6 C :   -0.030775
   7 H :    0.020164
   8 H :    0.032722
   9 C :   -0.041638
  10 H :    0.030062
  11 H :    0.029179
  12 C :   -0.069365
  13 H :    0.025349
  14 H :    0.020601
  15 H :    0.026426
  16 S :    0.387343
  17 C :   -0.178111
  18 C :   -0.069458
  19 C :   -0.052881
  20 C :   -0.183813
  21 H :    0.022697
  22 C :   -0.035975
  23 H :    0.034411
  24 H :    0.027285
  25 C :   -0.035228
  26 H :    0.029195
  27 H :    0.023722
  28 C :   -0.062685
  29 H :    0.027835
  30 H :    0.021515
  31 H :    0.025423
  32 H :    0.029669
  33 H :    0.021977

  Mayer bond orders larger than 0.100000
B(  0-S ,  1-C ) :   1.1453 B(  0-S ,  4-C ) :   1.1748 B(  1-C ,  2-C ) :   1.5865
B(  1-C , 32-H ) :   0.9751 B(  2-C ,  3-C ) :   1.2353 B(  2-C ,  6-C ) :   1.0355
B(  3-C ,  4-C ) :   1.5845 B(  3-C ,  5-H ) :   0.9842 B(  4-C , 20-C ) :   0.9985
B(  6-C ,  7-H ) :   0.9402 B(  6-C ,  8-H ) :   0.9371 B(  6-C ,  9-C ) :   1.0491
B(  9-C , 10-H ) :   0.9602 B(  9-C , 11-H ) :   0.9617 B(  9-C , 12-C ) :   1.0731
B( 12-C , 13-H ) :   0.9740 B( 12-C , 14-H ) :   0.9748 B( 12-C , 15-H ) :   0.9805
B( 16-S , 17-C ) :   1.1324 B( 16-S , 20-C ) :   1.1518 B( 17-C , 18-C ) :   1.6484
B( 17-C , 33-H ) :   0.9736 B( 18-C , 19-C ) :   1.1997 B( 18-C , 21-H ) :   0.9971
B( 19-C , 20-C ) :   1.5956 B( 19-C , 22-C ) :   1.0551 B( 22-C , 23-H ) :   0.9261
B( 22-C , 24-H ) :   0.9347 B( 22-C , 25-C ) :   1.0732 B( 25-C , 26-H ) :   0.9560
B( 25-C , 27-H ) :   0.9545 B( 25-C , 28-C ) :   1.0742 B( 28-C , 29-H ) :   0.9758
B( 28-C , 30-H ) :   0.9729 B( 28-C , 31-H ) :   0.9739

Dispersion correction           -0.015120004
FINAL SINGLE POINT ENERGY     -1339.879162306739

DIPOLE MOMENT
-------------
                                X             Y             Z
Electronic contribution:      9.86095      10.20186     -20.47941
Nuclear contribution   :     -9.92971     -10.47608      20.90069
                        -----------------------------------------
Total Dipole Moment    :     -0.06876      -0.27421       0.42128
                        -----------------------------------------
Magnitude (a.u.)       :      0.50734
Magnitude (Debye)      :      1.28956

Rotational constants in cm-1:     0.022220     0.007907     0.006972
Rotational constants in MHz :   666.147622   237.045708   209.008602

                             ****ORCA TERMINATED NORMALLY****
TOTAL RUN TIME: 0 days 0 hours 0 minutes 28 seconds 819 msec
