                         Program Version 4.2.1 -  RELEASE  -
|  1> ! wB97X-D3 SP def2-SVP
|  2> %pal
|  3> nprocs 16
|  4> end
|  5>
|  6> * xyz 0 1
|  7> S 	 -3.86885 	 -18.4548 	 71.0879
|  8> C 	 -2.88438 	 -18.6128 	 69.665
|  9> C 	 -3.18635 	 -17.6302 	 68.7214
| 10> C 	 -4.07053 	 -16.6425 	 69.253
| 11> C 	 -4.49747 	 -16.9397 	 70.5255
| 12> H 	 -4.33515 	 -15.7102 	 68.7697
| 13> C 	 -2.41674 	 -17.4481 	 67.4046
| 14> H 	 -1.46707 	 -17.994 	 67.3671
| 15> H 	 -2.08291 	 -16.4451 	 67.5804
| 16> C 	 -3.08584 	 -17.7297 	 66.0611
| 17> H 	 -2.27294 	 -17.7657 	 65.2713
| 18> H 	 -3.52925 	 -18.7181 	 65.948
| 19> C 	 -4.23586 	 -16.8705 	 65.5935
| 20> H 	 -4.5216 	 -17.0664 	 64.5669
| 21> H 	 -5.13439 	 -17.0831 	 66.2134
| 22> H 	 -4.12009 	 -15.7731 	 65.741
| 23> S 	 -6.87496 	 -16.5622 	 72.0709
| 24> C 	 -7.12459 	 -14.9919 	 72.7867
| 25> C 	 -6.11764 	 -14.1349 	 72.4576
| 26> C 	 -5.11245 	 -14.6665 	 71.6152
| 27> C 	 -5.3028 	 -16.07 	 71.3717
| 28> H 	 -6.2552 	 -13.1237 	 72.8263
| 29> C 	 -3.82084 	 -13.9079 	 71.2239
| 30> H 	 -4.0523 	 -12.901 	 71.2554
| 31> H 	 -3.43851 	 -14.0426 	 70.1907
| 32> C 	 -2.68776 	 -14.1309 	 72.1653
| 33> H 	 -2.5099 	 -15.2233 	 72.1461
| 34> H 	 -2.99736 	 -13.7407 	 73.1204
| 35> C 	 -1.41351 	 -13.5354 	 71.6513
| 36> H 	 -1.1887 	 -13.9018 	 70.6123
| 37> H 	 -0.638964 	 -13.8738 	 72.3465
| 38> H 	 -1.43893 	 -12.4505 	 71.6924
| 39> H 	 -2.32274 	 -19.488 	 69.3129
| 40> H 	 -7.95701 	 -14.7145 	 73.3222
| 41> *
| 42>
| 43>                          ****END OF INPUT****

CARTESIAN COORDINATES (ANGSTROEM)
---------------------------------
  S     -3.868850  -18.454800   71.087900
  C     -2.884380  -18.612800   69.665000
  C     -3.186350  -17.630200   68.721400
  C     -4.070530  -16.642500   69.253000
  C     -4.497470  -16.939700   70.525500
  H     -4.335150  -15.710200   68.769700
  C     -2.416740  -17.448100   67.404600
  H     -1.467070  -17.994000   67.367100
  H     -2.082910  -16.445100   67.580400
  C     -3.085840  -17.729700   66.061100
  H     -2.272940  -17.765700   65.271300
  H     -3.529250  -18.718100   65.948000
  C     -4.235860  -16.870500   65.593500
  H     -4.521600  -17.066400   64.566900
  H     -5.134390  -17.083100   66.213400
  H     -4.120090  -15.773100   65.741000
  S     -6.874960  -16.562200   72.070900
  C     -7.124590  -14.991900   72.786700
  C     -6.117640  -14.134900   72.457600
  C     -5.112450  -14.666500   71.615200
  C     -5.302800  -16.070000   71.371700
  H     -6.255200  -13.123700   72.826300
  C     -3.820840  -13.907900   71.223900
  H     -4.052300  -12.901000   71.255400
  H     -3.438510  -14.042600   70.190700
  C     -2.687760  -14.130900   72.165300
  H     -2.509900  -15.223300   72.146100
  H     -2.997360  -13.740700   73.120400
  C     -1.413510  -13.535400   71.651300
  H     -1.188700  -13.901800   70.612300
  H     -0.638964  -13.873800   72.346500
  H     -1.438930  -12.450500   71.692400
  H     -2.322740  -19.488000   69.312900
  H     -7.957010  -14.714500   73.322200

 Total Charge           Charge          ....    0
 Multiplicity           Mult            ....    1
 Number of Electrons    NEL             ....  134
 Basis Dimension        Dim             ....  322

ORBITAL ENERGIES
----------------

  NO   OCC          E(Eh)            E(eV)
   0   2.0000     -88.969244     -2420.9762
   1   2.0000     -88.966700     -2420.9070
   2   2.0000     -10.332443      -281.1601
   3   2.0000     -10.328783      -281.0605
   4   2.0000     -10.313947      -280.6568
   5   2.0000     -10.310796      -280.5710
   6   2.0000     -10.309458      -280.5346
   7   2.0000     -10.303195      -280.3642
   8   2.0000     -10.295305      -280.1495
   9   2.0000     -10.294302      -280.1222
  10   2.0000     -10.292255      -280.0665
  11   2.0000     -10.291892      -280.0566
  12   2.0000     -10.282586      -279.8034
  13   2.0000     -10.278661      -279.6966
  14   2.0000     -10.277010      -279.6517
  15   2.0000     -10.275121      -279.6003
  16   2.0000      -8.084225      -219.9830
  17   2.0000      -8.080789      -219.8895
  18   2.0000      -6.042695      -164.4301
  19   2.0000      -6.039240      -164.3361
  20   2.0000      -6.038638      -164.3197
  21   2.0000      -6.035278      -164.2283
  22   2.0000      -6.035060      -164.2223
  23   2.0000      -6.031763      -164.1326
  24   2.0000      -1.006267       -27.3819
  25   2.0000      -0.983453       -26.7611
  26   2.0000      -0.917675       -24.9712
  27   2.0000      -0.911071       -24.7915
  28   2.0000      -0.870374       -23.6841
  29   2.0000      -0.853147       -23.2153
  30   2.0000      -0.846984       -23.0476
  31   2.0000      -0.816409       -22.2156
  32   2.0000      -0.787205       -21.4209
  33   2.0000      -0.772525       -21.0215
  34   2.0000      -0.706628       -19.2283
  35   2.0000      -0.701059       -19.0768
  36   2.0000      -0.687015       -18.6946
  37   2.0000      -0.657372       -17.8880
  38   2.0000      -0.637681       -17.3522
  39   2.0000      -0.621186       -16.9033
  40   2.0000      -0.599653       -16.3174
  41   2.0000      -0.577348       -15.7105
  42   2.0000      -0.569542       -15.4980
  43   2.0000      -0.547384       -14.8951
  44   2.0000      -0.537793       -14.6341
  45   2.0000      -0.524836       -14.2815
  46   2.0000      -0.520273       -14.1574
  47   2.0000      -0.517476       -14.0812
  48   2.0000      -0.504339       -13.7238
  49   2.0000      -0.497297       -13.5321
  50   2.0000      -0.492158       -13.3923
  51   2.0000      -0.482121       -13.1192
  52   2.0000      -0.472858       -12.8671
  53   2.0000      -0.464381       -12.6365
  54   2.0000      -0.458018       -12.4633
  55   2.0000      -0.449921       -12.2430
  56   2.0000      -0.439636       -11.9631
  57   2.0000      -0.436351       -11.8737
  58   2.0000      -0.432797       -11.7770
  59   2.0000      -0.427137       -11.6230
  60   2.0000      -0.423124       -11.5138
  61   2.0000      -0.410448       -11.1688
  62   2.0000      -0.403539       -10.9809
  63   2.0000      -0.345279        -9.3955
  64   2.0000      -0.333675        -9.0797
  65   2.0000      -0.331766        -9.0278
  66   2.0000      -0.292577        -7.9614
  67   0.0000       0.027593         0.7508
  68   0.0000       0.065465         1.7814
  69   0.0000       0.114105         3.1050
  70   0.0000       0.119864         3.2617
  71   0.0000       0.130194         3.5428

MULLIKEN ATOMIC CHARGES
-----------------------
   0 S :    0.127803
   1 C :   -0.116501
   2 C :   -0.103263
   3 C :    0.032520
   4 C :   -0.163680
   5 H :    0.018722
   6 C :    0.063690
   7 H :    0.021302
   8 H :    0.026073
   9 C :   -0.066618
  10 H :    0.031621
  11 H :    0.028710
  12 C :   -0.071964
  13 H :    0.036366
  14 H :    0.036344
  15 H :    0.026894
  16 S :    0.105266
  17 C :   -0.063835
  18 C :   -0.042073
  19 C :   -0.009976
  20 C :   -0.155577
  21 H :    0.018818
  22 C :    0.085234
  23 H :   -0.011537
  24 H :    0.008916
  25 C :   -0.064732
  26 H :    0.035550
  27 H :    0.022157
  28 C :   -0.040711
  29 H :    0.037972
  30 H :    0.037102
  31 H :    0.025808
  32 H :    0.057356
  33 H :    0.026243
Sum of atomic charges:   -0.0000000

LOEWDIN ATOMIC CHARGES
----------------------
   0 S :    0.422890
   1 C :   -0.211738
   2 C :   -0.062961
   3 C :   -0.059348
   4 C :   -0.201348
   5 H :    0.032458
   6 C :   -0.033516
   7 H :    0.035515
   8 H :    0.033119
   9 C :   -0.049623
  10 H :    0.029341
  11 H :    0.029903
  12 C :   -0.075061
  13 H :    0.027311
  14 H :    0.029015
  15 H :    0.021431
  16 S :    0.396002
  17 C :   -0.173148
  18 C :   -0.076217
  19 C :   -0.045328
  20 C :   -0.193279
  21 H :    0.034423
  22 C :   -0.031597
  23 H :    0.015533
  24 H :    0.027048
  25 C :   -0.039957
  26 H :    0.030156
  27 H :    0.022408
  28 C :   -0.063248
  29 H :    0.030319
  30 H :    0.029855
  31 H :    0.019997
  32 H :    0.034598
  33 H :    0.015047

  Mayer bond orders larger than 0.100000
B(  0-S ,  1-C ) :   1.1401 B(  0-S ,  4-C ) :   1.1559 B(  1-C ,  2-C ) :   1.6213
B(  1-C , 32-H ) :   0.9581 B(  2-C ,  3-C ) :   1.2424 B(  2-C ,  6-C ) :   0.9980
B(  3-C ,  4-C ) :   1.5670 B(  3-C ,  5-H ) :   0.9951 B(  4-C , 20-C ) :   1.0485
B(  6-C ,  7-H ) :   0.9452 B(  6-C ,  8-H ) :   0.9460 B(  6-C ,  9-C ) :   1.0686
B(  9-C , 10-H ) :   0.9557 B(  9-C , 11-H ) :   0.9525 B(  9-C , 12-C ) :   1.0802
B( 12-C , 13-H ) :   0.9716 B( 12-C , 14-H ) :   0.9727 B( 12-C , 15-H ) :   0.9761
B( 16-S , 17-C ) :   1.1573 B( 16-S , 20-C ) :   1.1487 B( 17-C , 18-C ) :   1.6055
B( 17-C , 20-C ) :   0.1077 B( 17-C , 33-H ) :   0.9751 B( 18-C , 19-C ) :   1.2585
B( 18-C , 21-H ) :   0.9893 B( 19-C , 20-C ) :   1.5454 B( 19-C , 22-C ) :   1.0422
B( 22-C , 23-H ) :   0.9211 B( 22-C , 24-H ) :   0.9339 B( 22-C , 25-C ) :   1.0789
B( 25-C , 26-H ) :   0.9539 B( 25-C , 27-H ) :   0.9485 B( 25-C , 28-C ) :   1.0927
B( 28-C , 29-H ) :   0.9697 B( 28-C , 30-H ) :   0.9721 B( 28-C , 31-H ) :   0.9732

Dispersion correction           -0.014747002
FINAL SINGLE POINT ENERGY     -1339.875105056870

DIPOLE MOMENT
-------------
                                X             Y             Z
Electronic contribution:    -15.89674     -12.53403      17.14282
Nuclear contribution   :     16.17257      12.98146     -17.49643
                        -----------------------------------------
Total Dipole Moment    :      0.27583       0.44742      -0.35361
                        -----------------------------------------
Magnitude (a.u.)       :      0.63349
Magnitude (Debye)      :      1.61020

Rotational constants in cm-1:     0.017397     0.008807     0.007644
Rotational constants in MHz :   521.543804   264.033708   229.166456

                             ****ORCA TERMINATED NORMALLY****
TOTAL RUN TIME: 0 days 0 hours 0 minutes 36 seconds 81 msec
