                         Program Version 4.2.1 -  RELEASE  -
|  1> ! wB97X-D3 SP def2-SVP
|  2> %pal
|  3> nprocs 16
|  4> end
|  5>
|  6> * xyz 0 1
|  7> S 	 47.4929 	 12.7077 	 76.9998
|  8> C 	 47.271 	 11.5185 	 78.2798
|  9> C 	 47.8803 	 11.8594 	 79.4766
| 10> C 	 48.549 	 13.0925 	 79.3903
| 11> C 	 48.5145 	 13.6679 	 78.1278
| 12> H 	 49.2958 	 13.5752 	 79.9645
| 13> C 	 47.9373 	 10.9703 	 80.6653
| 14> H 	 48.5378 	 11.5361 	 81.4648
| 15> H 	 48.4964 	 10.1149 	 80.4499
| 16> C 	 46.5454 	 10.4519 	 81.151
| 17> H 	 46.0098 	 9.95143 	 80.3231
| 18> H 	 46.697 	 9.61413 	 81.8664
| 19> C 	 45.6687 	 11.5841 	 81.6888
| 20> H 	 45.8775 	 11.9145 	 82.672
| 21> H 	 45.8558 	 12.4441 	 81.1272
| 22> H 	 44.6076 	 11.3906 	 81.658
| 23> S 	 50.4252 	 14.8559 	 76.5019
| 24> C 	 50.9131 	 16.5013 	 76.8709
| 25> C 	 50.1943 	 16.9974 	 77.911
| 26> C 	 49.2405 	 16.088 	 78.4366
| 27> C 	 49.2176 	 14.8661 	 77.7839
| 28> H 	 50.3925 	 18.0494 	 78.2721
| 29> C 	 48.3757 	 16.4527 	 79.6172
| 30> H 	 47.4751 	 15.8066 	 79.5734
| 31> H 	 48.0958 	 17.5013 	 79.5513
| 32> C 	 49.0594 	 16.3595 	 80.9916
| 33> H 	 49.4632 	 15.3462 	 81.179
| 34> H 	 48.3259 	 16.4941 	 81.7692
| 35> C 	 50.2216 	 17.3367 	 81.2286
| 36> H 	 50.0288 	 18.3372 	 81.0585
| 37> H 	 51.1818 	 17.1268 	 80.752
| 38> H 	 50.5169 	 17.2959 	 82.2767
| 39> H 	 46.7019 	 10.6011 	 78.0743
| 40> H 	 51.769 	 17.0092 	 76.3741
| 41> *
| 42>
| 43>                          ****END OF INPUT****

CARTESIAN COORDINATES (ANGSTROEM)
---------------------------------
  S     47.492900   12.707700   76.999800
  C     47.271000   11.518500   78.279800
  C     47.880300   11.859400   79.476600
  C     48.549000   13.092500   79.390300
  C     48.514500   13.667900   78.127800
  H     49.295800   13.575200   79.964500
  C     47.937300   10.970300   80.665300
  H     48.537800   11.536100   81.464800
  H     48.496400   10.114900   80.449900
  C     46.545400   10.451900   81.151000
  H     46.009800    9.951430   80.323100
  H     46.697000    9.614130   81.866400
  C     45.668700   11.584100   81.688800
  H     45.877500   11.914500   82.672000
  H     45.855800   12.444100   81.127200
  H     44.607600   11.390600   81.658000
  S     50.425200   14.855900   76.501900
  C     50.913100   16.501300   76.870900
  C     50.194300   16.997400   77.911000
  C     49.240500   16.088000   78.436600
  C     49.217600   14.866100   77.783900
  H     50.392500   18.049400   78.272100
  C     48.375700   16.452700   79.617200
  H     47.475100   15.806600   79.573400
  H     48.095800   17.501300   79.551300
  C     49.059400   16.359500   80.991600
  H     49.463200   15.346200   81.179000
  H     48.325900   16.494100   81.769200
  C     50.221600   17.336700   81.228600
  H     50.028800   18.337200   81.058500
  H     51.181800   17.126800   80.752000
  H     50.516900   17.295900   82.276700
  H     46.701900   10.601100   78.074300
  H     51.769000   17.009200   76.374100

 Total Charge           Charge          ....    0
 Multiplicity           Mult            ....    1
 Number of Electrons    NEL             ....  134
 Basis Dimension        Dim             ....  322

ORBITAL ENERGIES
----------------

  NO   OCC          E(Eh)            E(eV)
   0   2.0000     -88.968164     -2420.9468
   1   2.0000     -88.962521     -2420.7933
   2   2.0000     -10.328644      -281.0567
   3   2.0000     -10.323111      -280.9061
   4   2.0000     -10.319101      -280.7970
   5   2.0000     -10.317142      -280.7437
   6   2.0000     -10.300977      -280.3038
   7   2.0000     -10.300555      -280.2924
   8   2.0000     -10.294820      -280.1363
   9   2.0000     -10.293291      -280.0947
  10   2.0000     -10.293087      -280.0891
  11   2.0000     -10.290921      -280.0302
  12   2.0000     -10.290294      -280.0131
  13   2.0000     -10.289270      -279.9853
  14   2.0000     -10.271689      -279.5069
  15   2.0000     -10.264504      -279.3114
  16   2.0000      -8.081963      -219.9214
  17   2.0000      -8.077312      -219.7948
  18   2.0000      -6.040338      -164.3659
  19   2.0000      -6.036679      -164.2664
  20   2.0000      -6.035830      -164.2433
  21   2.0000      -6.032847      -164.1621
  22   2.0000      -6.031765      -164.1327
  23   2.0000      -6.028109      -164.0332
  24   2.0000      -1.006246       -27.3813
  25   2.0000      -0.983409       -26.7599
  26   2.0000      -0.911491       -24.8029
  27   2.0000      -0.908573       -24.7235
  28   2.0000      -0.871317       -23.7098
  29   2.0000      -0.852119       -23.1873
  30   2.0000      -0.846037       -23.0218
  31   2.0000      -0.815426       -22.1889
  32   2.0000      -0.787129       -21.4189
  33   2.0000      -0.773073       -21.0364
  34   2.0000      -0.711370       -19.3574
  35   2.0000      -0.707362       -19.2483
  36   2.0000      -0.693158       -18.8618
  37   2.0000      -0.661011       -17.9870
  38   2.0000      -0.644951       -17.5500
  39   2.0000      -0.608568       -16.5600
  40   2.0000      -0.592865       -16.1327
  41   2.0000      -0.570876       -15.5343
  42   2.0000      -0.555449       -15.1145
  43   2.0000      -0.555125       -15.1057
  44   2.0000      -0.541954       -14.7473
  45   2.0000      -0.533851       -14.5268
  46   2.0000      -0.517209       -14.0740
  47   2.0000      -0.511757       -13.9256
  48   2.0000      -0.499196       -13.5838
  49   2.0000      -0.495419       -13.4810
  50   2.0000      -0.485588       -13.2135
  51   2.0000      -0.482996       -13.1430
  52   2.0000      -0.480060       -13.0631
  53   2.0000      -0.467567       -12.7231
  54   2.0000      -0.455926       -12.4064
  55   2.0000      -0.442499       -12.0410
  56   2.0000      -0.436506       -11.8779
  57   2.0000      -0.435860       -11.8604
  58   2.0000      -0.433956       -11.8085
  59   2.0000      -0.430861       -11.7243
  60   2.0000      -0.429339       -11.6829
  61   2.0000      -0.417872       -11.3709
  62   2.0000      -0.414801       -11.2873
  63   2.0000      -0.347686        -9.4610
  64   2.0000      -0.333667        -9.0795
  65   2.0000      -0.328861        -8.9488
  66   2.0000      -0.291571        -7.9341
  67   0.0000       0.027041         0.7358
  68   0.0000       0.066421         1.8074
  69   0.0000       0.113737         3.0949
  70   0.0000       0.124760         3.3949
  71   0.0000       0.129201         3.5157

MULLIKEN ATOMIC CHARGES
-----------------------
   0 S :    0.113216
   1 C :   -0.145805
   2 C :   -0.048738
   3 C :    0.035351
   4 C :   -0.185376
   5 H :    0.006338
   6 C :    0.069738
   7 H :    0.034353
   8 H :    0.027225
   9 C :   -0.092812
  10 H :    0.026936
  11 H :    0.031793
  12 C :    0.000926
  13 H :    0.012572
  14 H :    0.015030
  15 H :    0.029270
  16 S :    0.099354
  17 C :   -0.109382
  18 C :   -0.044659
  19 C :   -0.037018
  20 C :   -0.161332
  21 H :    0.038515
  22 C :    0.072413
  23 H :    0.042849
  24 H :    0.019844
  25 C :   -0.051968
  26 H :    0.017398
  27 H :    0.028602
  28 C :   -0.042954
  29 H :    0.009139
  30 H :    0.035127
  31 H :    0.022090
  32 H :    0.059658
  33 H :    0.072308
Sum of atomic charges:   -0.0000000

LOEWDIN ATOMIC CHARGES
----------------------
   0 S :    0.383210
   1 C :   -0.189232
   2 C :   -0.068890
   3 C :   -0.056423
   4 C :   -0.177244
   5 H :    0.029037
   6 C :   -0.030376
   7 H :    0.038408
   8 H :    0.027208
   9 C :   -0.037471
  10 H :    0.024632
  11 H :    0.025236
  12 C :   -0.062078
  13 H :    0.020440
  14 H :    0.020503
  15 H :    0.026326
  16 S :    0.394147
  17 C :   -0.185509
  18 C :   -0.081030
  19 C :   -0.055862
  20 C :   -0.202712
  21 H :    0.042734
  22 C :   -0.032652
  23 H :    0.037015
  24 H :    0.030351
  25 C :   -0.034428
  26 H :    0.021814
  27 H :    0.024730
  28 C :   -0.068942
  29 H :    0.010446
  30 H :    0.027834
  31 H :    0.030412
  32 H :    0.028897
  33 H :    0.039467

  Mayer bond orders larger than 0.100000
B(  0-S ,  1-C ) :   1.1425 B(  0-S ,  4-C ) :   1.1335 B(  1-C ,  2-C ) :   1.5954
B(  1-C ,  4-C ) :   0.1003 B(  1-C , 32-H ) :   0.9663 B(  2-C ,  3-C ) :   1.2214
B(  2-C ,  6-C ) :   1.0167 B(  3-C ,  4-C ) :   1.5871 B(  3-C ,  5-H ) :   0.9899
B(  4-C , 20-C ) :   1.0655 B(  6-C ,  7-H ) :   0.9489 B(  6-C ,  8-H ) :   0.9321
B(  6-C ,  9-C ) :   1.0740 B(  9-C , 10-H ) :   0.9569 B(  9-C , 11-H ) :   0.9583
B(  9-C , 12-C ) :   1.0639 B( 12-C , 13-H ) :   0.9719 B( 12-C , 14-H ) :   0.9750
B( 12-C , 15-H ) :   0.9751 B( 16-S , 17-C ) :   1.1536 B( 16-S , 20-C ) :   1.1271
B( 17-C , 18-C ) :   1.6138 B( 17-C , 33-H ) :   0.9616 B( 18-C , 19-C ) :   1.2406
B( 18-C , 21-H ) :   0.9787 B( 19-C , 20-C ) :   1.5927 B( 19-C , 22-C ) :   1.0534
B( 22-C , 23-H ) :   0.9266 B( 22-C , 24-H ) :   0.9326 B( 22-C , 25-C ) :   1.0764
B( 25-C , 26-H ) :   0.9478 B( 25-C , 27-H ) :   0.9544 B( 25-C , 28-C ) :   1.0810
B( 28-C , 29-H ) :   0.9748 B( 28-C , 30-H ) :   0.9706 B( 28-C , 31-H ) :   0.9679

Dispersion correction           -0.015226077
FINAL SINGLE POINT ENERGY     -1339.884890040763

DIPOLE MOMENT
-------------
                                X             Y             Z
Electronic contribution:      5.78105      -1.28969     -27.60951
Nuclear contribution   :     -5.67537       1.37882      28.27135
                        -----------------------------------------
Total Dipole Moment    :      0.10568       0.08913       0.66184
                        -----------------------------------------
Magnitude (a.u.)       :      0.67613
Magnitude (Debye)      :      1.71857

Rotational constants in cm-1:     0.019942     0.009105     0.006825
Rotational constants in MHz :   597.852731   272.946403   204.604880

                             ****ORCA TERMINATED NORMALLY****
TOTAL RUN TIME: 0 days 0 hours 0 minutes 31 seconds 464 msec
