                         Program Version 4.2.1 -  RELEASE  -
|  1> ! wB97X-D3 SP def2-SVP
|  2> %pal
|  3> nprocs 16
|  4> end
|  5>
|  6> * xyz 0 1
|  7> S 	 -44.4805 	 17.9609 	 76.423
|  8> C 	 -42.741 	 18.3096 	 76.7794
|  9> C 	 -41.9627 	 17.5697 	 75.9171
| 10> C 	 -42.7436 	 17.0095 	 74.8191
| 11> C 	 -44.126 	 17.2391 	 74.8856
| 12> H 	 -42.2946 	 16.3789 	 74.0217
| 13> C 	 -40.4345 	 17.556 	 75.9816
| 14> H 	 -40.0201 	 16.7896 	 75.3458
| 15> H 	 -40.2201 	 17.1598 	 76.9793
| 16> C 	 -39.7058 	 18.8509 	 75.6721
| 17> H 	 -39.7876 	 19.2184 	 74.6521
| 18> H 	 -40.1431 	 19.6619 	 76.3141
| 19> C 	 -38.2269 	 18.7478 	 75.966
| 20> H 	 -37.8226 	 19.7565 	 75.8046
| 21> H 	 -37.9885 	 18.4072 	 76.9754
| 22> H 	 -37.7597 	 18.0636 	 75.2232
| 23> S 	 -45.9511 	 15.2043 	 74.4515
| 24> C 	 -46.3666 	 14.7638 	 72.8025
| 25> C 	 -46.0534 	 15.8275 	 71.9545
| 26> C 	 -45.2312 	 16.8067 	 72.5244
| 27> C 	 -44.9859 	 16.5633 	 73.8733
| 28> H 	 -46.3872 	 15.7776 	 71.0031
| 29> C 	 -44.6898 	 17.9605 	 71.7274
| 30> H 	 -44.9303 	 18.9409 	 72.0971
| 31> H 	 -45.203 	 17.9838 	 70.8019
| 32> C 	 -43.1397 	 18.0005 	 71.5179
| 33> H 	 -43.0088 	 16.9073 	 71.2841
| 34> H 	 -42.4866 	 18.188 	 72.478
| 35> C 	 -42.6319 	 18.7793 	 70.2586
| 36> H 	 -42.5838 	 19.8137 	 70.4281
| 37> H 	 -43.2973 	 18.6587 	 69.4033
| 38> H 	 -41.545 	 18.5089 	 70.1164
| 39> H 	 -42.4285 	 18.992 	 77.556
| 40> H 	 -46.9123 	 13.924 	 72.5435
| 41> *
| 42>
| 43>                          ****END OF INPUT****

CARTESIAN COORDINATES (ANGSTROEM)
---------------------------------
  S    -44.480500   17.960900   76.423000
  C    -42.741000   18.309600   76.779400
  C    -41.962700   17.569700   75.917100
  C    -42.743600   17.009500   74.819100
  C    -44.126000   17.239100   74.885600
  H    -42.294600   16.378900   74.021700
  C    -40.434500   17.556000   75.981600
  H    -40.020100   16.789600   75.345800
  H    -40.220100   17.159800   76.979300
  C    -39.705800   18.850900   75.672100
  H    -39.787600   19.218400   74.652100
  H    -40.143100   19.661900   76.314100
  C    -38.226900   18.747800   75.966000
  H    -37.822600   19.756500   75.804600
  H    -37.988500   18.407200   76.975400
  H    -37.759700   18.063600   75.223200
  S    -45.951100   15.204300   74.451500
  C    -46.366600   14.763800   72.802500
  C    -46.053400   15.827500   71.954500
  C    -45.231200   16.806700   72.524400
  C    -44.985900   16.563300   73.873300
  H    -46.387200   15.777600   71.003100
  C    -44.689800   17.960500   71.727400
  H    -44.930300   18.940900   72.097100
  H    -45.203000   17.983800   70.801900
  C    -43.139700   18.000500   71.517900
  H    -43.008800   16.907300   71.284100
  H    -42.486600   18.188000   72.478000
  C    -42.631900   18.779300   70.258600
  H    -42.583800   19.813700   70.428100
  H    -43.297300   18.658700   69.403300
  H    -41.545000   18.508900   70.116400
  H    -42.428500   18.992000   77.556000
  H    -46.912300   13.924000   72.543500

 Total Charge           Charge          ....    0
 Multiplicity           Mult            ....    1
 Number of Electrons    NEL             ....  134
 Basis Dimension        Dim             ....  322

ORBITAL ENERGIES
----------------

  NO   OCC          E(Eh)            E(eV)
   0   2.0000     -88.967366     -2420.9251
   1   2.0000     -88.964044     -2420.8347
   2   2.0000     -10.333304      -281.1835
   3   2.0000     -10.330774      -281.1146
   4   2.0000     -10.320320      -280.8302
   5   2.0000     -10.314009      -280.6585
   6   2.0000     -10.305962      -280.4395
   7   2.0000     -10.302313      -280.3402
   8   2.0000     -10.298733      -280.2428
   9   2.0000     -10.295717      -280.1607
  10   2.0000     -10.292490      -280.0729
  11   2.0000     -10.289757      -279.9985
  12   2.0000     -10.286533      -279.9108
  13   2.0000     -10.285466      -279.8817
  14   2.0000     -10.281805      -279.7821
  15   2.0000     -10.280328      -279.7419
  16   2.0000      -8.081204      -219.9008
  17   2.0000      -8.078646      -219.8311
  18   2.0000      -6.039929      -164.3548
  19   2.0000      -6.037037      -164.2761
  20   2.0000      -6.035857      -164.2440
  21   2.0000      -6.033224      -164.1724
  22   2.0000      -6.031746      -164.1322
  23   2.0000      -6.029490      -164.0708
  24   2.0000      -1.002324       -27.2746
  25   2.0000      -0.980954       -26.6931
  26   2.0000      -0.915188       -24.9035
  27   2.0000      -0.901656       -24.5353
  28   2.0000      -0.868919       -23.6445
  29   2.0000      -0.847472       -23.0609
  30   2.0000      -0.844202       -22.9719
  31   2.0000      -0.811412       -22.0796
  32   2.0000      -0.782114       -21.2824
  33   2.0000      -0.774604       -21.0781
  34   2.0000      -0.705810       -19.2061
  35   2.0000      -0.698242       -19.0001
  36   2.0000      -0.689306       -18.7570
  37   2.0000      -0.669275       -18.2119
  38   2.0000      -0.639876       -17.4119
  39   2.0000      -0.612927       -16.6786
  40   2.0000      -0.599789       -16.3211
  41   2.0000      -0.575737       -15.6666
  42   2.0000      -0.563281       -15.3277
  43   2.0000      -0.555692       -15.1212
  44   2.0000      -0.531152       -14.4534
  45   2.0000      -0.525814       -14.3081
  46   2.0000      -0.518336       -14.1046
  47   2.0000      -0.510642       -13.8953
  48   2.0000      -0.502825       -13.6826
  49   2.0000      -0.501283       -13.6406
  50   2.0000      -0.495240       -13.4762
  51   2.0000      -0.473374       -12.8812
  52   2.0000      -0.469768       -12.7830
  53   2.0000      -0.465829       -12.6759
  54   2.0000      -0.460242       -12.5238
  55   2.0000      -0.448237       -12.1971
  56   2.0000      -0.441864       -12.0237
  57   2.0000      -0.439344       -11.9551
  58   2.0000      -0.437982       -11.9181
  59   2.0000      -0.422609       -11.4998
  60   2.0000      -0.417737       -11.3672
  61   2.0000      -0.413618       -11.2551
  62   2.0000      -0.398870       -10.8538
  63   2.0000      -0.338333        -9.2065
  64   2.0000      -0.329743        -8.9728
  65   2.0000      -0.326241        -8.8775
  66   2.0000      -0.295127        -8.0308
  67   0.0000       0.034489         0.9385
  68   0.0000       0.048792         1.3277
  69   0.0000       0.106353         2.8940
  70   0.0000       0.116072         3.1585
  71   0.0000       0.130834         3.5602

MULLIKEN ATOMIC CHARGES
-----------------------
   0 S :    0.102678
   1 C :   -0.149306
   2 C :   -0.051267
   3 C :   -0.003009
   4 C :   -0.124535
   5 H :    0.039748
   6 C :    0.070392
   7 H :    0.008212
   8 H :    0.029519
   9 C :   -0.075656
  10 H :    0.033913
  11 H :    0.024814
  12 C :   -0.053708
  13 H :    0.036910
  14 H :    0.033301
  15 H :    0.034837
  16 S :    0.105006
  17 C :   -0.073405
  18 C :   -0.001904
  19 C :   -0.020786
  20 C :   -0.182496
  21 H :   -0.025360
  22 C :    0.136815
  23 H :    0.023135
  24 H :   -0.008786
  25 C :   -0.169242
  26 H :    0.032183
  27 H :    0.070220
  28 C :   -0.029291
  29 H :    0.019193
  30 H :    0.033933
  31 H :    0.042858
  32 H :    0.058363
  33 H :    0.032717
Sum of atomic charges:    0.0000000

LOEWDIN ATOMIC CHARGES
----------------------
   0 S :    0.387497
   1 C :   -0.174794
   2 C :   -0.060950
   3 C :   -0.063707
   4 C :   -0.208459
   5 H :    0.036473
   6 C :   -0.036194
   7 H :    0.026137
   8 H :    0.034924
   9 C :   -0.042905
  10 H :    0.027043
  11 H :    0.024228
  12 C :   -0.064639
  13 H :    0.029666
  14 H :    0.022843
  15 H :    0.027315
  16 S :    0.401407
  17 C :   -0.167294
  18 C :   -0.055340
  19 C :   -0.057909
  20 C :   -0.181165
  21 H :    0.013218
  22 C :   -0.030758
  23 H :    0.028784
  24 H :    0.023945
  25 C :   -0.055358
  26 H :    0.023077
  27 H :    0.038490
  28 C :   -0.067697
  29 H :    0.015171
  30 H :    0.026177
  31 H :    0.037343
  32 H :    0.029479
  33 H :    0.013953

  Mayer bond orders larger than 0.100000
B(  0-S ,  1-C ) :   1.1260 B(  0-S ,  4-C ) :   1.1480 B(  1-C ,  2-C ) :   1.5940
B(  1-C , 32-H ) :   0.9776 B(  2-C ,  3-C ) :   1.2453 B(  2-C ,  6-C ) :   1.0211
B(  3-C ,  4-C ) :   1.5604 B(  3-C ,  5-H ) :   0.9777 B(  4-C , 20-C ) :   1.0296
B(  6-C ,  7-H ) :   0.9400 B(  6-C ,  8-H ) :   0.9368 B(  6-C ,  9-C ) :   1.0669
B(  9-C , 10-H ) :   0.9532 B(  9-C , 11-H ) :   0.9545 B(  9-C , 12-C ) :   1.0858
B( 12-C , 13-H ) :   0.9728 B( 12-C , 14-H ) :   0.9759 B( 12-C , 15-H ) :   0.9739
B( 16-S , 17-C ) :   1.1638 B( 16-S , 20-C ) :   1.1547 B( 17-C , 18-C ) :   1.5783
B( 17-C , 20-C ) :   0.1087 B( 17-C , 33-H ) :   0.9792 B( 18-C , 19-C ) :   1.2565
B( 18-C , 21-H ) :   1.0075 B( 19-C , 20-C ) :   1.5796 B( 19-C , 22-C ) :   1.0537
B( 22-C , 23-H ) :   0.9245 B( 22-C , 24-H ) :   0.9259 B( 22-C , 25-C ) :   1.0430
B( 25-C , 26-H ) :   0.9608 B( 25-C , 27-H ) :   0.9443 B( 25-C , 28-C ) :   1.0738
B( 28-C , 29-H ) :   0.9759 B( 28-C , 30-H ) :   0.9737 B( 28-C , 31-H ) :   0.9733

Dispersion correction           -0.014223690
FINAL SINGLE POINT ENERGY     -1339.852573708807

DIPOLE MOMENT
-------------
                                X             Y             Z
Electronic contribution:    -26.65959     -11.74927      12.64925
Nuclear contribution   :     27.21093      11.90362     -13.02046
                        -----------------------------------------
Total Dipole Moment    :      0.55134       0.15435      -0.37121
                        -----------------------------------------
Magnitude (a.u.)       :      0.68234
Magnitude (Debye)      :      1.73438

Rotational constants in cm-1:     0.018127     0.008564     0.006525
Rotational constants in MHz :   543.448689   256.730603   195.603065

                             ****ORCA TERMINATED NORMALLY****
TOTAL RUN TIME: 0 days 0 hours 0 minutes 29 seconds 931 msec
