                         Program Version 4.2.1 -  RELEASE  -
|  1> ! wB97X-D3 SP def2-SVP
|  2> %pal
|  3> nprocs 16
|  4> end
|  5>
|  6> * xyz 0 1
|  7> S 	 -79.9814 	 44.34 	 120.904
|  8> C 	 -80.2706 	 42.6429 	 120.372
|  9> C 	 -79.881 	 41.8082 	 121.457
| 10> C 	 -79.5282 	 42.5196 	 122.643
| 11> C 	 -79.5008 	 43.897 	 122.564
| 12> H 	 -79.2494 	 42.015 	 123.548
| 13> C 	 -79.9696 	 40.3178 	 121.451
| 14> H 	 -79.5207 	 40.1465 	 120.439
| 15> H 	 -81.0339 	 40.103 	 121.462
| 16> C 	 -79.3463 	 39.4891 	 122.598
| 17> H 	 -79.8662 	 39.6252 	 123.551
| 18> H 	 -79.4856 	 38.4308 	 122.382
| 19> C 	 -77.8473 	 39.6857 	 122.599
| 20> H 	 -77.5158 	 40.6404 	 123.125
| 21> H 	 -77.3801 	 38.9143 	 123.255
| 22> H 	 -77.5036 	 39.6781 	 121.607
| 23> S 	 -80.8941 	 45.7927 	 123.937
| 24> C 	 -80.1336 	 46.4418 	 125.431
| 25> C 	 -78.8713 	 45.9381 	 125.715
| 26> C 	 -78.5152 	 44.9329 	 124.755
| 27> C 	 -79.4774 	 44.7546 	 123.735
| 28> H 	 -78.3236 	 46.2965 	 126.498
| 29> C 	 -77.1361 	 44.3465 	 124.859
| 30> H 	 -76.9735 	 44.0436 	 123.789
| 31> H 	 -77.2075 	 43.3783 	 125.35
| 32> C 	 -76.0161 	 45.0493 	 125.44
| 33> H 	 -76.0686 	 44.9841 	 126.543
| 34> H 	 -75.9811 	 46.0019 	 124.977
| 35> C 	 -74.7374 	 44.3257 	 125.074
| 36> H 	 -73.9508 	 44.9124 	 125.479
| 37> H 	 -74.5789 	 44.1128 	 124.006
| 38> H 	 -74.7414 	 43.3548 	 125.555
| 39> H 	 -80.4876 	 42.2871 	 119.358
| 40> H 	 -80.5776 	 47.1785 	 126.039
| 41> *
| 42>
| 43>                          ****END OF INPUT****

CARTESIAN COORDINATES (ANGSTROEM)
---------------------------------
  S    -79.981400   44.340000  120.904000
  C    -80.270600   42.642900  120.372000
  C    -79.881000   41.808200  121.457000
  C    -79.528200   42.519600  122.643000
  C    -79.500800   43.897000  122.564000
  H    -79.249400   42.015000  123.548000
  C    -79.969600   40.317800  121.451000
  H    -79.520700   40.146500  120.439000
  H    -81.033900   40.103000  121.462000
  C    -79.346300   39.489100  122.598000
  H    -79.866200   39.625200  123.551000
  H    -79.485600   38.430800  122.382000
  C    -77.847300   39.685700  122.599000
  H    -77.515800   40.640400  123.125000
  H    -77.380100   38.914300  123.255000
  H    -77.503600   39.678100  121.607000
  S    -80.894100   45.792700  123.937000
  C    -80.133600   46.441800  125.431000
  C    -78.871300   45.938100  125.715000
  C    -78.515200   44.932900  124.755000
  C    -79.477400   44.754600  123.735000
  H    -78.323600   46.296500  126.498000
  C    -77.136100   44.346500  124.859000
  H    -76.973500   44.043600  123.789000
  H    -77.207500   43.378300  125.350000
  C    -76.016100   45.049300  125.440000
  H    -76.068600   44.984100  126.543000
  H    -75.981100   46.001900  124.977000
  C    -74.737400   44.325700  125.074000
  H    -73.950800   44.912400  125.479000
  H    -74.578900   44.112800  124.006000
  H    -74.741400   43.354800  125.555000
  H    -80.487600   42.287100  119.358000
  H    -80.577600   47.178500  126.039000

 Total Charge           Charge          ....    0
 Multiplicity           Mult            ....    1
 Number of Electrons    NEL             ....  134
 Basis Dimension        Dim             ....  322

ORBITAL ENERGIES
----------------

  NO   OCC          E(Eh)            E(eV)
   0   2.0000     -88.967149     -2420.9192
   1   2.0000     -88.966199     -2420.8934
   2   2.0000     -10.330620      -281.1105
   3   2.0000     -10.329301      -281.0746
   4   2.0000     -10.322896      -280.9003
   5   2.0000     -10.316059      -280.7142
   6   2.0000     -10.304546      -280.4010
   7   2.0000     -10.303293      -280.3668
   8   2.0000     -10.292891      -280.0838
   9   2.0000     -10.290930      -280.0304
  10   2.0000     -10.289336      -279.9871
  11   2.0000     -10.288048      -279.9520
  12   2.0000     -10.282923      -279.8126
  13   2.0000     -10.281219      -279.7662
  14   2.0000     -10.280315      -279.7416
  15   2.0000     -10.273935      -279.5680
  16   2.0000      -8.080717      -219.8875
  17   2.0000      -8.079118      -219.8440
  18   2.0000      -6.039245      -164.3362
  19   2.0000      -6.037892      -164.2994
  20   2.0000      -6.035530      -164.2351
  21   2.0000      -6.033724      -164.1860
  22   2.0000      -6.031364      -164.1218
  23   2.0000      -6.029828      -164.0800
  24   2.0000      -0.997131       -27.1333
  25   2.0000      -0.973928       -26.5019
  26   2.0000      -0.926669       -25.2159
  27   2.0000      -0.914525       -24.8855
  28   2.0000      -0.869535       -23.6613
  29   2.0000      -0.853116       -23.2145
  30   2.0000      -0.841475       -22.8977
  31   2.0000      -0.815892       -22.2016
  32   2.0000      -0.780041       -21.2260
  33   2.0000      -0.767294       -20.8791
  34   2.0000      -0.711643       -19.3648
  35   2.0000      -0.700584       -19.0638
  36   2.0000      -0.696815       -18.9613
  37   2.0000      -0.659336       -17.9414
  38   2.0000      -0.632263       -17.2048
  39   2.0000      -0.621569       -16.9137
  40   2.0000      -0.601368       -16.3641
  41   2.0000      -0.586110       -15.9489
  42   2.0000      -0.570578       -15.5262
  43   2.0000      -0.558540       -15.1986
  44   2.0000      -0.535041       -14.5592
  45   2.0000      -0.531924       -14.4744
  46   2.0000      -0.526769       -14.3341
  47   2.0000      -0.515227       -14.0200
  48   2.0000      -0.500501       -13.6193
  49   2.0000      -0.493635       -13.4325
  50   2.0000      -0.485372       -13.2076
  51   2.0000      -0.479531       -13.0487
  52   2.0000      -0.473967       -12.8973
  53   2.0000      -0.463192       -12.6041
  54   2.0000      -0.459461       -12.5026
  55   2.0000      -0.450331       -12.2541
  56   2.0000      -0.443990       -12.0816
  57   2.0000      -0.436508       -11.8780
  58   2.0000      -0.428363       -11.6564
  59   2.0000      -0.425428       -11.5765
  60   2.0000      -0.420285       -11.4365
  61   2.0000      -0.411091       -11.1863
  62   2.0000      -0.407317       -11.0837
  63   2.0000      -0.345720        -9.4075
  64   2.0000      -0.328082        -8.9276
  65   2.0000      -0.322045        -8.7633
  66   2.0000      -0.286298        -7.7906
  67   0.0000       0.024651         0.6708
  68   0.0000       0.063254         1.7212
  69   0.0000       0.109686         2.9847
  70   0.0000       0.120054         3.2668
  71   0.0000       0.128803         3.5049

MULLIKEN ATOMIC CHARGES
-----------------------
   0 S :    0.094530
   1 C :   -0.139350
   2 C :   -0.102055
   3 C :    0.030830
   4 C :   -0.140347
   5 H :    0.010762
   6 C :    0.025746
   7 H :    0.039391
   8 H :    0.049912
   9 C :   -0.064389
  10 H :    0.037662
  11 H :    0.030382
  12 C :   -0.060013
  13 H :    0.037442
  14 H :    0.035509
  15 H :    0.031563
  16 S :    0.110236
  17 C :   -0.068451
  18 C :   -0.008430
  19 C :   -0.018293
  20 C :   -0.160894
  21 H :   -0.012304
  22 C :    0.011572
  23 H :    0.027269
  24 H :    0.021183
  25 C :   -0.035422
  26 H :    0.039709
  27 H :    0.027444
  28 C :   -0.027673
  29 H :    0.026473
  30 H :    0.036279
  31 H :    0.017214
  32 H :    0.061443
  33 H :    0.035070
Sum of atomic charges:   -0.0000000

LOEWDIN ATOMIC CHARGES
----------------------
   0 S :    0.374964
   1 C :   -0.196939
   2 C :   -0.061950
   3 C :   -0.061406
   4 C :   -0.193691
   5 H :    0.026740
   6 C :   -0.041199
   7 H :    0.039082
   8 H :    0.037827
   9 C :   -0.046831
  10 H :    0.026820
  11 H :    0.030875
  12 C :   -0.066071
  13 H :    0.029363
  14 H :    0.029241
  15 H :    0.020340
  16 S :    0.387364
  17 C :   -0.156548
  18 C :   -0.056481
  19 C :   -0.048679
  20 C :   -0.195771
  21 H :    0.018156
  22 C :   -0.048540
  23 H :    0.036341
  24 H :    0.030180
  25 C :   -0.042462
  26 H :    0.033906
  27 H :    0.024690
  28 C :   -0.052687
  29 H :    0.021850
  30 H :    0.027808
  31 H :    0.022629
  32 H :    0.035292
  33 H :    0.015787

  Mayer bond orders larger than 0.100000
B(  0-S ,  1-C ) :   1.1260 B(  0-S ,  4-C ) :   1.1439 B(  1-C ,  2-C ) :   1.5759
B(  1-C ,  4-C ) :   0.1058 B(  1-C , 32-H ) :   0.9714 B(  2-C ,  3-C ) :   1.2809
B(  2-C ,  6-C ) :   0.9919 B(  3-C ,  4-C ) :   1.5402 B(  3-C ,  5-H ) :   0.9830
B(  4-C , 20-C ) :   1.0515 B(  6-C ,  7-H ) :   0.9433 B(  6-C ,  8-H ) :   0.9377
B(  6-C ,  9-C ) :   1.0973 B(  9-C , 10-H ) :   0.9447 B(  9-C , 11-H ) :   0.9492
B(  9-C , 12-C ) :   1.0758 B( 12-C , 13-H ) :   0.9715 B( 12-C , 14-H ) :   0.9735
B( 12-C , 15-H ) :   0.9753 B( 16-S , 17-C ) :   1.1451 B( 16-S , 20-C ) :   1.1273
B( 17-C , 18-C ) :   1.6210 B( 17-C , 33-H ) :   0.9683 B( 18-C , 19-C ) :   1.2252
B( 18-C , 21-H ) :   1.0025 B( 19-C , 20-C ) :   1.6003 B( 19-C , 22-C ) :   1.0325
B( 22-C , 23-H ) :   0.9341 B( 22-C , 24-H ) :   0.9108 B( 22-C , 25-C ) :   1.1054
B( 25-C , 26-H ) :   0.9305 B( 25-C , 27-H ) :   0.9484 B( 25-C , 28-C ) :   1.0962
B( 28-C , 29-H ) :   0.9712 B( 28-C , 30-H ) :   0.9747 B( 28-C , 31-H ) :   0.9709

Dispersion correction           -0.014075577
FINAL SINGLE POINT ENERGY     -1339.849642006939

DIPOLE MOMENT
-------------
                                X             Y             Z
Electronic contribution:    -20.77846      18.66438      -8.02209
Nuclear contribution   :     21.19057     -19.24666       8.41159
                        -----------------------------------------
Total Dipole Moment    :      0.41211      -0.58229       0.38950
                        -----------------------------------------
Magnitude (a.u.)       :      0.81277
Magnitude (Debye)      :      2.06591

Rotational constants in cm-1:     0.015842     0.009713     0.007044
Rotational constants in MHz :   474.944426   291.186599   211.176058

                             ****ORCA TERMINATED NORMALLY****
TOTAL RUN TIME: 0 days 0 hours 0 minutes 34 seconds 805 msec
