                         Program Version 4.2.1 -  RELEASE  -
|  1> ! wB97X-D3 SP def2-SVP
|  2> %pal
|  3> nprocs 16
|  4> end
|  5>
|  6> * xyz 0 1
|  7> S 	 -113.037 	 56.2248 	 109.953
|  8> C 	 -112.241 	 54.8188 	 109.253
|  9> C 	 -110.935 	 55.096 	 108.967
| 10> C 	 -110.547 	 56.4144 	 109.364
| 11> C 	 -111.574 	 57.0877 	 109.941
| 12> H 	 -109.541 	 56.8202 	 109.252
| 13> C 	 -109.967 	 54.0913 	 108.328
| 14> H 	 -110.351 	 53.1647 	 108.742
| 15> H 	 -108.98 	 54.2794 	 108.709
| 16> C 	 -109.934 	 54.0686 	 106.798
| 17> H 	 -109.354 	 53.2741 	 106.417
| 18> H 	 -110.87 	 53.718 	 106.334
| 19> C 	 -109.385 	 55.4192 	 106.26
| 20> H 	 -108.408 	 55.7945 	 106.636
| 21> H 	 -109.245 	 55.346 	 105.235
| 22> H 	 -110.069 	 56.2504 	 106.473
| 23> S 	 -110.718 	 59.6233 	 109.245
| 24> C 	 -110.889 	 60.9323 	 110.433
| 25> C 	 -111.589 	 60.5415 	 111.565
| 26> C 	 -111.996 	 59.1688 	 111.525
| 27> C 	 -111.519 	 58.4653 	 110.366
| 28> H 	 -111.655 	 61.3128 	 112.334
| 29> C 	 -112.761 	 58.5593 	 112.73
| 30> H 	 -113.526 	 57.8887 	 112.331
| 31> H 	 -113.431 	 59.281 	 113.297
| 32> C 	 -111.874 	 57.8453 	 113.764
| 33> H 	 -111.671 	 56.9031 	 113.267
| 34> H 	 -112.524 	 57.6169 	 114.619
| 35> C 	 -110.717 	 58.613 	 114.175
| 36> H 	 -110.053 	 58.9769 	 113.405
| 37> H 	 -110.201 	 57.9825 	 114.96
| 38> H 	 -111.095 	 59.4352 	 114.743
| 39> H 	 -112.633 	 53.8298 	 109.131
| 40> H 	 -110.578 	 61.9806 	 110.386
| 41> *
| 42>
| 43>                          ****END OF INPUT****

CARTESIAN COORDINATES (ANGSTROEM)
---------------------------------
  S    -113.037000   56.224800  109.953000
  C    -112.241000   54.818800  109.253000
  C    -110.935000   55.096000  108.967000
  C    -110.547000   56.414400  109.364000
  C    -111.574000   57.087700  109.941000
  H    -109.541000   56.820200  109.252000
  C    -109.967000   54.091300  108.328000
  H    -110.351000   53.164700  108.742000
  H    -108.980000   54.279400  108.709000
  C    -109.934000   54.068600  106.798000
  H    -109.354000   53.274100  106.417000
  H    -110.870000   53.718000  106.334000
  C    -109.385000   55.419200  106.260000
  H    -108.408000   55.794500  106.636000
  H    -109.245000   55.346000  105.235000
  H    -110.069000   56.250400  106.473000
  S    -110.718000   59.623300  109.245000
  C    -110.889000   60.932300  110.433000
  C    -111.589000   60.541500  111.565000
  C    -111.996000   59.168800  111.525000
  C    -111.519000   58.465300  110.366000
  H    -111.655000   61.312800  112.334000
  C    -112.761000   58.559300  112.730000
  H    -113.526000   57.888700  112.331000
  H    -113.431000   59.281000  113.297000
  C    -111.874000   57.845300  113.764000
  H    -111.671000   56.903100  113.267000
  H    -112.524000   57.616900  114.619000
  C    -110.717000   58.613000  114.175000
  H    -110.053000   58.976900  113.405000
  H    -110.201000   57.982500  114.960000
  H    -111.095000   59.435200  114.743000
  H    -112.633000   53.829800  109.131000
  H    -110.578000   61.980600  110.386000

 Total Charge           Charge          ....    0
 Multiplicity           Mult            ....    1
 Number of Electrons    NEL             ....  134
 Basis Dimension        Dim             ....  322

ORBITAL ENERGIES
----------------

  NO   OCC          E(Eh)            E(eV)
   0   2.0000     -88.970199     -2421.0022
   1   2.0000     -88.967907     -2420.9398
   2   2.0000     -10.334914      -281.2273
   3   2.0000     -10.324357      -280.9400
   4   2.0000     -10.319054      -280.7957
   5   2.0000     -10.313948      -280.6568
   6   2.0000     -10.309477      -280.5351
   7   2.0000     -10.297681      -280.2142
   8   2.0000     -10.295729      -280.1610
   9   2.0000     -10.291934      -280.0578
  10   2.0000     -10.290526      -280.0194
  11   2.0000     -10.290198      -280.0105
  12   2.0000     -10.286766      -279.9171
  13   2.0000     -10.275452      -279.6093
  14   2.0000     -10.274103      -279.5726
  15   2.0000     -10.267970      -279.4057
  16   2.0000      -8.083182      -219.9546
  17   2.0000      -8.083147      -219.9536
  18   2.0000      -6.041818      -164.4062
  19   2.0000      -6.041697      -164.4029
  20   2.0000      -6.037848      -164.2982
  21   2.0000      -6.037691      -164.2939
  22   2.0000      -6.033907      -164.1909
  23   2.0000      -6.033815      -164.1884
  24   2.0000      -1.010712       -27.5029
  25   2.0000      -0.977164       -26.5900
  26   2.0000      -0.911991       -24.8165
  27   2.0000      -0.911308       -24.7980
  28   2.0000      -0.870378       -23.6842
  29   2.0000      -0.850854       -23.1529
  30   2.0000      -0.841013       -22.8851
  31   2.0000      -0.815005       -22.1774
  32   2.0000      -0.786028       -21.3889
  33   2.0000      -0.771726       -20.9997
  34   2.0000      -0.712976       -19.4011
  35   2.0000      -0.709015       -19.2933
  36   2.0000      -0.679764       -18.4973
  37   2.0000      -0.658279       -17.9127
  38   2.0000      -0.636026       -17.3072
  39   2.0000      -0.612949       -16.6792
  40   2.0000      -0.587360       -15.9829
  41   2.0000      -0.572494       -15.5784
  42   2.0000      -0.558155       -15.1882
  43   2.0000      -0.554466       -15.0878
  44   2.0000      -0.545548       -14.8451
  45   2.0000      -0.541553       -14.7364
  46   2.0000      -0.515633       -14.0311
  47   2.0000      -0.506928       -13.7942
  48   2.0000      -0.502901       -13.6846
  49   2.0000      -0.490188       -13.3387
  50   2.0000      -0.485363       -13.2074
  51   2.0000      -0.480533       -13.0760
  52   2.0000      -0.475843       -12.9483
  53   2.0000      -0.467519       -12.7218
  54   2.0000      -0.460030       -12.5181
  55   2.0000      -0.447831       -12.1861
  56   2.0000      -0.440640       -11.9904
  57   2.0000      -0.436325       -11.8730
  58   2.0000      -0.433983       -11.8093
  59   2.0000      -0.424002       -11.5377
  60   2.0000      -0.418715       -11.3938
  61   2.0000      -0.408780       -11.1235
  62   2.0000      -0.401219       -10.9177
  63   2.0000      -0.346431        -9.4269
  64   2.0000      -0.334433        -9.1004
  65   2.0000      -0.332471        -9.0470
  66   2.0000      -0.289411        -7.8753
  67   0.0000       0.023935         0.6513
  68   0.0000       0.076672         2.0863
  69   0.0000       0.102429         2.7872
  70   0.0000       0.116498         3.1701
  71   0.0000       0.127679         3.4743

MULLIKEN ATOMIC CHARGES
-----------------------
   0 S :    0.121696
   1 C :   -0.117312
   2 C :   -0.104879
   3 C :   -0.006220
   4 C :   -0.118776
   5 H :    0.017499
   6 C :    0.090754
   7 H :    0.015284
   8 H :    0.020549
   9 C :   -0.024641
  10 H :    0.012775
  11 H :    0.020240
  12 C :   -0.056716
  13 H :    0.026943
  14 H :    0.018386
  15 H :    0.046741
  16 S :    0.108632
  17 C :   -0.098678
  18 C :   -0.056628
  19 C :   -0.024802
  20 C :   -0.152938
  21 H :    0.027421
  22 C :    0.019501
  23 H :    0.020147
  24 H :    0.026981
  25 C :   -0.052668
  26 H :    0.026959
  27 H :    0.026666
  28 C :   -0.026610
  29 H :    0.057333
  30 H :    0.035222
  31 H :    0.009408
  32 H :    0.033946
  33 H :    0.057786
Sum of atomic charges:    0.0000000

LOEWDIN ATOMIC CHARGES
----------------------
   0 S :    0.430286
   1 C :   -0.196813
   2 C :   -0.056871
   3 C :   -0.073068
   4 C :   -0.210321
   5 H :    0.032608
   6 C :   -0.023759
   7 H :    0.028687
   8 H :    0.027092
   9 C :   -0.037689
  10 H :    0.018992
  11 H :    0.028768
  12 C :   -0.065344
  13 H :    0.028297
  14 H :    0.016283
  15 H :    0.029629
  16 S :    0.386955
  17 C :   -0.186737
  18 C :   -0.075105
  19 C :   -0.051022
  20 C :   -0.183506
  21 H :    0.036456
  22 C :   -0.042625
  23 H :    0.021376
  24 H :    0.031975
  25 C :   -0.043873
  26 H :    0.021292
  27 H :    0.027730
  28 C :   -0.066028
  29 H :    0.028516
  30 H :    0.036341
  31 H :    0.021230
  32 H :    0.025173
  33 H :    0.035076

  Mayer bond orders larger than 0.100000
B(  0-S ,  1-C ) :   1.1208 B(  0-S ,  4-C ) :   1.1649 B(  1-C ,  2-C ) :   1.6389
B(  1-C , 32-H ) :   0.9680 B(  2-C ,  3-C ) :   1.2305 B(  2-C ,  6-C ) :   1.0074
B(  3-C ,  4-C ) :   1.5501 B(  3-C ,  5-H ) :   1.0001 B(  4-C , 20-C ) :   1.0621
B(  6-C ,  7-H ) :   0.9373 B(  6-C ,  8-H ) :   0.9461 B(  6-C ,  9-C ) :   1.0808
B(  9-C , 10-H ) :   0.9529 B(  9-C , 11-H ) :   0.9506 B(  9-C , 12-C ) :   1.0672
B( 12-C , 13-H ) :   0.9753 B( 12-C , 14-H ) :   0.9732 B( 12-C , 15-H ) :   0.9751
B( 16-S , 17-C ) :   1.1405 B( 16-S , 20-C ) :   1.1315 B( 17-C , 18-C ) :   1.6394
B( 17-C , 20-C ) :   0.1025 B( 17-C , 33-H ) :   0.9601 B( 18-C , 19-C ) :   1.2290
B( 18-C , 21-H ) :   0.9874 B( 19-C , 20-C ) :   1.5551 B( 19-C , 22-C ) :   1.0333
B( 22-C , 23-H ) :   0.9355 B( 22-C , 24-H ) :   0.9440 B( 22-C , 25-C ) :   1.0694
B( 25-C , 26-H ) :   0.9516 B( 25-C , 27-H ) :   0.9518 B( 25-C , 28-C ) :   1.0955
B( 28-C , 29-H ) :   0.9666 B( 28-C , 30-H ) :   0.9665 B( 28-C , 31-H ) :   0.9673

Dispersion correction           -0.015270794
FINAL SINGLE POINT ENERGY     -1339.872349184524

DIPOLE MOMENT
-------------
                                X             Y             Z
Electronic contribution:     -8.49275       8.23070      -4.25582
Nuclear contribution   :      8.70908      -8.42231       4.40952
                        -----------------------------------------
Total Dipole Moment    :      0.21633      -0.19161       0.15370
                        -----------------------------------------
Magnitude (a.u.)       :      0.32731
Magnitude (Debye)      :      0.83197

Rotational constants in cm-1:     0.022341     0.008517     0.007157
Rotational constants in MHz :   669.773885   255.344701   214.563430

                             ****ORCA TERMINATED NORMALLY****
TOTAL RUN TIME: 0 days 0 hours 0 minutes 33 seconds 573 msec
