                         Program Version 4.2.1 -  RELEASE  -
|  1> ! wB97X-D3 SP def2-SVP
|  2> %pal
|  3> nprocs 16
|  4> end
|  5>
|  6> * xyz 0 1
|  7> S 	 1.68772 	 -1.3268 	 76.7997
|  8> C 	 0.0702661 	 -1.98013 	 76.8412
|  9> C 	 -0.691953 	 -1.44191 	 77.9038
| 10> C 	 0.116956 	 -0.527438 	 78.661
| 11> C 	 1.4459 	 -0.384919 	 78.2289
| 12> H 	 -0.210852 	 0.014451 	 79.6054
| 13> C 	 -2.10753 	 -1.86974 	 78.2996
| 14> H 	 -1.96288 	 -2.48681 	 79.2115
| 15> H 	 -2.42082 	 -2.6435 	 77.5593
| 16> C 	 -3.22295 	 -0.737938 	 78.4177
| 17> H 	 -4.03273 	 -1.18493 	 79.0599
| 18> H 	 -2.72727 	 0.111291 	 78.9904
| 19> C 	 -3.75238 	 -0.0135109 	 77.2521
| 20> H 	 -4.5188 	 0.747652 	 77.5951
| 21> H 	 -2.8922 	 0.520904 	 76.6285
| 22> H 	 -4.10997 	 -0.762166 	 76.5867
| 23> S 	 3.83574 	 -1.007 	 79.5721
| 24> C 	 4.56113 	 0.250148 	 80.6055
| 25> C 	 3.86989 	 1.44384 	 80.4828
| 26> C 	 2.7881 	 1.39147 	 79.56
| 27> C 	 2.55775 	 0.121036 	 79.028
| 28> H 	 4.22418 	 2.19685 	 81.1107
| 29> C 	 1.88812 	 2.56087 	 79.3579
| 30> H 	 0.880386 	 2.11186 	 79.4023
| 31> H 	 2.03469 	 2.7706 	 78.2952
| 32> C 	 2.0678 	 3.8341 	 80.2426
| 33> H 	 1.46976 	 4.62826 	 79.8613
| 34> H 	 3.01552 	 4.29252 	 80.106
| 35> C 	 1.76348 	 3.76576 	 81.7022
| 36> H 	 2.40265 	 3.02169 	 82.1603
| 37> H 	 0.76317 	 3.50884 	 81.8125
| 38> H 	 2.00034 	 4.72201 	 82.1235
| 39> H 	 -0.302179 	 -2.64951 	 76.0732
| 40> H 	 5.49496 	 0.226533 	 81.1994
| 41> *
| 42>
| 43>                          ****END OF INPUT****

CARTESIAN COORDINATES (ANGSTROEM)
---------------------------------
  S      1.687720   -1.326800   76.799700
  C      0.070266   -1.980130   76.841200
  C     -0.691953   -1.441910   77.903800
  C      0.116956   -0.527438   78.661000
  C      1.445900   -0.384919   78.228900
  H     -0.210852    0.014451   79.605400
  C     -2.107530   -1.869740   78.299600
  H     -1.962880   -2.486810   79.211500
  H     -2.420820   -2.643500   77.559300
  C     -3.222950   -0.737938   78.417700
  H     -4.032730   -1.184930   79.059900
  H     -2.727270    0.111291   78.990400
  C     -3.752380   -0.013511   77.252100
  H     -4.518800    0.747652   77.595100
  H     -2.892200    0.520904   76.628500
  H     -4.109970   -0.762166   76.586700
  S      3.835740   -1.007000   79.572100
  C      4.561130    0.250148   80.605500
  C      3.869890    1.443840   80.482800
  C      2.788100    1.391470   79.560000
  C      2.557750    0.121036   79.028000
  H      4.224180    2.196850   81.110700
  C      1.888120    2.560870   79.357900
  H      0.880386    2.111860   79.402300
  H      2.034690    2.770600   78.295200
  C      2.067800    3.834100   80.242600
  H      1.469760    4.628260   79.861300
  H      3.015520    4.292520   80.106000
  C      1.763480    3.765760   81.702200
  H      2.402650    3.021690   82.160300
  H      0.763170    3.508840   81.812500
  H      2.000340    4.722010   82.123500
  H     -0.302179   -2.649510   76.073200
  H      5.494960    0.226533   81.199400

 Total Charge           Charge          ....    0
 Multiplicity           Mult            ....    1
 Number of Electrons    NEL             ....  134
 Basis Dimension        Dim             ....  322

ORBITAL ENERGIES
----------------

  NO   OCC          E(Eh)            E(eV)
   0   2.0000     -88.968441     -2420.9544
   1   2.0000     -88.964576     -2420.8492
   2   2.0000     -10.329883      -281.0904
   3   2.0000     -10.326840      -281.0076
   4   2.0000     -10.319408      -280.8054
   5   2.0000     -10.319408      -280.8054
   6   2.0000     -10.309640      -280.5396
   7   2.0000     -10.305816      -280.4355
   8   2.0000     -10.303302      -280.3671
   9   2.0000     -10.301704      -280.3236
  10   2.0000     -10.298012      -280.2232
  11   2.0000     -10.290767      -280.0260
  12   2.0000     -10.288085      -279.9530
  13   2.0000     -10.287060      -279.9251
  14   2.0000     -10.280167      -279.7376
  15   2.0000     -10.267737      -279.3993
  16   2.0000      -8.083401      -219.9605
  17   2.0000      -8.077924      -219.8115
  18   2.0000      -6.041732      -164.4039
  19   2.0000      -6.037754      -164.2956
  20   2.0000      -6.036589      -164.2639
  21   2.0000      -6.034457      -164.2059
  22   2.0000      -6.032593      -164.1552
  23   2.0000      -6.028617      -164.0470
  24   2.0000      -1.002302       -27.2740
  25   2.0000      -0.978469       -26.6255
  26   2.0000      -0.910806       -24.7843
  27   2.0000      -0.906972       -24.6800
  28   2.0000      -0.870010       -23.6742
  29   2.0000      -0.856390       -23.3036
  30   2.0000      -0.847378       -23.0583
  31   2.0000      -0.815176       -22.1821
  32   2.0000      -0.784426       -21.3453
  33   2.0000      -0.770555       -20.9679
  34   2.0000      -0.709083       -19.2951
  35   2.0000      -0.698297       -19.0016
  36   2.0000      -0.686125       -18.6704
  37   2.0000      -0.653488       -17.7823
  38   2.0000      -0.639209       -17.3938
  39   2.0000      -0.617363       -16.7993
  40   2.0000      -0.588745       -16.0206
  41   2.0000      -0.570485       -15.5237
  42   2.0000      -0.556604       -15.1460
  43   2.0000      -0.550960       -14.9924
  44   2.0000      -0.540680       -14.7127
  45   2.0000      -0.537850       -14.6356
  46   2.0000      -0.526488       -14.3265
  47   2.0000      -0.513034       -13.9604
  48   2.0000      -0.508991       -13.8503
  49   2.0000      -0.497869       -13.5477
  50   2.0000      -0.484159       -13.1746
  51   2.0000      -0.475890       -12.9496
  52   2.0000      -0.475015       -12.9258
  53   2.0000      -0.463924       -12.6240
  54   2.0000      -0.460236       -12.5237
  55   2.0000      -0.450061       -12.2468
  56   2.0000      -0.440487       -11.9863
  57   2.0000      -0.438094       -11.9211
  58   2.0000      -0.437194       -11.8966
  59   2.0000      -0.425401       -11.5758
  60   2.0000      -0.412533       -11.2256
  61   2.0000      -0.411627       -11.2009
  62   2.0000      -0.405120       -11.0239
  63   2.0000      -0.342617        -9.3231
  64   2.0000      -0.329053        -8.9540
  65   2.0000      -0.326629        -8.8880
  66   2.0000      -0.290995        -7.9184
  67   0.0000       0.028960         0.7880
  68   0.0000       0.063001         1.7143
  69   0.0000       0.115654         3.1471
  70   0.0000       0.120707         3.2846
  71   0.0000       0.128662         3.5011

MULLIKEN ATOMIC CHARGES
-----------------------
   0 S :    0.121642
   1 C :   -0.133674
   2 C :   -0.101107
   3 C :    0.015346
   4 C :   -0.194071
   5 H :    0.046659
   6 C :    0.054548
   7 H :    0.053747
   8 H :    0.017051
   9 C :   -0.114981
  10 H :    0.044782
  11 H :    0.033255
  12 C :   -0.058611
  13 H :    0.060964
  14 H :    0.052124
  15 H :    0.021504
  16 S :    0.106632
  17 C :   -0.099509
  18 C :   -0.046176
  19 C :   -0.042188
  20 C :   -0.149126
  21 H :    0.001180
  22 C :    0.090426
  23 H :    0.018912
  24 H :    0.039990
  25 C :   -0.054900
  26 H :    0.010912
  27 H :    0.009311
  28 C :    0.008957
  29 H :    0.020660
  30 H :    0.018049
  31 H :    0.028011
  32 H :    0.055661
  33 H :    0.064019
Sum of atomic charges:   -0.0000000

LOEWDIN ATOMIC CHARGES
----------------------
   0 S :    0.425654
   1 C :   -0.201134
   2 C :   -0.069220
   3 C :   -0.065160
   4 C :   -0.215621
   5 H :    0.039904
   6 C :   -0.037925
   7 H :    0.043434
   8 H :    0.029441
   9 C :   -0.056240
  10 H :    0.031463
  11 H :    0.028675
  12 C :   -0.075747
  13 H :    0.041170
  14 H :    0.041315
  15 H :    0.015588
  16 S :    0.380452
  17 C :   -0.179874
  18 C :   -0.075137
  19 C :   -0.052496
  20 C :   -0.198956
  21 H :    0.022503
  22 C :   -0.035670
  23 H :    0.034257
  24 H :    0.043480
  25 C :   -0.042979
  26 H :    0.025241
  27 H :    0.019538
  28 C :   -0.049562
  29 H :    0.021536
  30 H :    0.016946
  31 H :    0.028141
  32 H :    0.027728
  33 H :    0.039255

  Mayer bond orders larger than 0.100000
B(  0-S ,  1-C ) :   1.1622 B(  0-S ,  4-C ) :   1.1648 B(  1-C ,  2-C ) :   1.5669
B(  1-C ,  4-C ) :   0.1009 B(  1-C , 32-H ) :   0.9670 B(  2-C ,  3-C ) :   1.2784
B(  2-C ,  6-C ) :   1.0190 B(  3-C ,  4-C ) :   1.5486 B(  3-C ,  5-H ) :   0.9685
B(  4-C , 20-C ) :   1.0451 B(  6-C ,  7-H ) :   0.9418 B(  6-C ,  8-H ) :   0.9423
B(  6-C ,  9-C ) :   1.0475 B(  9-C , 10-H ) :   0.9537 B(  9-C , 11-H ) :   0.9592
B(  9-C , 12-C ) :   1.0795 B( 12-C , 13-H ) :   0.9672 B( 12-C , 14-H ) :   0.9693
B( 12-C , 15-H ) :   0.9720 B( 16-S , 17-C ) :   1.1487 B( 16-S , 20-C ) :   1.1213
B( 17-C , 18-C ) :   1.6281 B( 17-C , 20-C ) :   0.1011 B( 17-C , 33-H ) :   0.9558
B( 18-C , 19-C ) :   1.2319 B( 18-C , 21-H ) :   0.9929 B( 19-C , 20-C ) :   1.5909
B( 19-C , 22-C ) :   1.0243 B( 22-C , 23-H ) :   0.9313 B( 22-C , 24-H ) :   0.9153
B( 22-C , 25-C ) :   1.0833 B( 25-C , 26-H ) :   0.9452 B( 25-C , 27-H ) :   0.9439
B( 25-C , 28-C ) :   1.0877 B( 28-C , 29-H ) :   0.9746 B( 28-C , 30-H ) :   0.9727
B( 28-C , 31-H ) :   0.9681

Dispersion correction           -0.014023614
FINAL SINGLE POINT ENERGY     -1339.859758368615

DIPOLE MOMENT
-------------
                                X             Y             Z
Electronic contribution:     21.49798     -16.22053      -7.47987
Nuclear contribution   :    -22.00250      16.58628       7.76837
                        -----------------------------------------
Total Dipole Moment    :     -0.50452       0.36576       0.28850
                        -----------------------------------------
Magnitude (a.u.)       :      0.68670
Magnitude (Debye)      :      1.74544

Rotational constants in cm-1:     0.018031     0.008521     0.006417
Rotational constants in MHz :   540.561889   255.452272   192.364918

                             ****ORCA TERMINATED NORMALLY****
TOTAL RUN TIME: 0 days 0 hours 0 minutes 33 seconds 734 msec
