                         Program Version 4.2.1 -  RELEASE  -
|  1> ! wB97X-D3 SP def2-SVP
|  2> %pal
|  3> nprocs 16
|  4> end
|  5>
|  6> * xyz 0 1
|  7> S 	 -4.96107 	 24.8984 	 50.1921
|  8> C 	 -3.7349 	 24.5442 	 49.0839
|  9> C 	 -3.17564 	 23.32 	 49.3373
| 10> C 	 -3.79186 	 22.6336 	 50.4366
| 11> C 	 -4.89021 	 23.2882 	 50.9317
| 12> H 	 -3.53612 	 21.6513 	 50.7916
| 13> C 	 -1.97772 	 22.5935 	 48.6086
| 14> H 	 -1.37502 	 23.3052 	 48.1392
| 15> H 	 -2.49421 	 21.9613 	 47.8043
| 16> C 	 -1.09576 	 21.6864 	 49.4485
| 17> H 	 -0.875357 	 22.3462 	 50.3139
| 18> H 	 -1.56945 	 20.7627 	 49.7952
| 19> C 	 0.261575 	 21.401 	 48.8001
| 20> H 	 0.86097 	 20.7171 	 49.4872
| 21> H 	 0.2456 	 20.7358 	 47.9444
| 22> H 	 0.927349 	 22.1849 	 48.5122
| 23> S 	 -6.46497 	 21.1833 	 51.6921
| 24> C 	 -7.4715 	 21.3123 	 53.1415
| 25> C 	 -7.47986 	 22.6307 	 53.6209
| 26> C 	 -6.59987 	 23.4405 	 52.9054
| 27> C 	 -5.86015 	 22.8025 	 51.8905
| 28> H 	 -8.14659 	 22.9551 	 54.3742
| 29> C 	 -6.36381 	 24.8726 	 53.327
| 30> H 	 -7.0602 	 25.3481 	 52.5759
| 31> H 	 -5.3662 	 25.1806 	 52.9871
| 32> C 	 -6.72477 	 25.4086 	 54.7263
| 33> H 	 -7.76026 	 25.2305 	 54.9655
| 34> H 	 -6.75131 	 26.4792 	 54.592
| 35> C 	 -5.68989 	 24.9669 	 55.8102
| 36> H 	 -5.7776 	 23.835 	 55.9901
| 37> H 	 -5.84224 	 25.368 	 56.8459
| 38> H 	 -4.63375 	 25.2038 	 55.5296
| 39> H 	 -3.33778 	 25.2709 	 48.3968
| 40> H 	 -8.27081 	 20.6629 	 53.3916
| 41> *
| 42>
| 43>                          ****END OF INPUT****

CARTESIAN COORDINATES (ANGSTROEM)
---------------------------------
  S     -4.961070   24.898400   50.192100
  C     -3.734900   24.544200   49.083900
  C     -3.175640   23.320000   49.337300
  C     -3.791860   22.633600   50.436600
  C     -4.890210   23.288200   50.931700
  H     -3.536120   21.651300   50.791600
  C     -1.977720   22.593500   48.608600
  H     -1.375020   23.305200   48.139200
  H     -2.494210   21.961300   47.804300
  C     -1.095760   21.686400   49.448500
  H     -0.875357   22.346200   50.313900
  H     -1.569450   20.762700   49.795200
  C      0.261575   21.401000   48.800100
  H      0.860970   20.717100   49.487200
  H      0.245600   20.735800   47.944400
  H      0.927349   22.184900   48.512200
  S     -6.464970   21.183300   51.692100
  C     -7.471500   21.312300   53.141500
  C     -7.479860   22.630700   53.620900
  C     -6.599870   23.440500   52.905400
  C     -5.860150   22.802500   51.890500
  H     -8.146590   22.955100   54.374200
  C     -6.363810   24.872600   53.327000
  H     -7.060200   25.348100   52.575900
  H     -5.366200   25.180600   52.987100
  C     -6.724770   25.408600   54.726300
  H     -7.760260   25.230500   54.965500
  H     -6.751310   26.479200   54.592000
  C     -5.689890   24.966900   55.810200
  H     -5.777600   23.835000   55.990100
  H     -5.842240   25.368000   56.845900
  H     -4.633750   25.203800   55.529600
  H     -3.337780   25.270900   48.396800
  H     -8.270810   20.662900   53.391600

 Total Charge           Charge          ....    0
 Multiplicity           Mult            ....    1
 Number of Electrons    NEL             ....  134
 Basis Dimension        Dim             ....  322

ORBITAL ENERGIES
----------------

  NO   OCC          E(Eh)            E(eV)
   0   2.0000     -88.968250     -2420.9492
   1   2.0000     -88.964316     -2420.8421
   2   2.0000     -10.329820      -281.0887
   3   2.0000     -10.325112      -280.9606
   4   2.0000     -10.316602      -280.7290
   5   2.0000     -10.309640      -280.5396
   6   2.0000     -10.301857      -280.3278
   7   2.0000     -10.300133      -280.2809
   8   2.0000     -10.294310      -280.1224
   9   2.0000     -10.292736      -280.0796
  10   2.0000     -10.292343      -280.0689
  11   2.0000     -10.291985      -280.0591
  12   2.0000     -10.290686      -280.0238
  13   2.0000     -10.290639      -280.0225
  14   2.0000     -10.290178      -280.0100
  15   2.0000     -10.281245      -279.7669
  16   2.0000      -8.082324      -219.9312
  17   2.0000      -8.079649      -219.8584
  18   2.0000      -6.040764      -164.3775
  19   2.0000      -6.038110      -164.3053
  20   2.0000      -6.036866      -164.2715
  21   2.0000      -6.034099      -164.1962
  22   2.0000      -6.033257      -164.1733
  23   2.0000      -6.030388      -164.0952
  24   2.0000      -1.009177       -27.4611
  25   2.0000      -0.986994       -26.8575
  26   2.0000      -0.909058       -24.7367
  27   2.0000      -0.905302       -24.6345
  28   2.0000      -0.874940       -23.8083
  29   2.0000      -0.849370       -23.1125
  30   2.0000      -0.842616       -22.9287
  31   2.0000      -0.815351       -22.1868
  32   2.0000      -0.779715       -21.2171
  33   2.0000      -0.769368       -20.9356
  34   2.0000      -0.712992       -19.4015
  35   2.0000      -0.705138       -19.1878
  36   2.0000      -0.690297       -18.7839
  37   2.0000      -0.665994       -18.1226
  38   2.0000      -0.640382       -17.4257
  39   2.0000      -0.619006       -16.8440
  40   2.0000      -0.593172       -16.1410
  41   2.0000      -0.571631       -15.5549
  42   2.0000      -0.566562       -15.4169
  43   2.0000      -0.549210       -14.9448
  44   2.0000      -0.532023       -14.4771
  45   2.0000      -0.523256       -14.2385
  46   2.0000      -0.519042       -14.1238
  47   2.0000      -0.508064       -13.8251
  48   2.0000      -0.502628       -13.6772
  49   2.0000      -0.497564       -13.5394
  50   2.0000      -0.485520       -13.2117
  51   2.0000      -0.482611       -13.1325
  52   2.0000      -0.476837       -12.9754
  53   2.0000      -0.464268       -12.6334
  54   2.0000      -0.461494       -12.5579
  55   2.0000      -0.449538       -12.2325
  56   2.0000      -0.443393       -12.0653
  57   2.0000      -0.439910       -11.9706
  58   2.0000      -0.436237       -11.8706
  59   2.0000      -0.428276       -11.6540
  60   2.0000      -0.414559       -11.2807
  61   2.0000      -0.409120       -11.1327
  62   2.0000      -0.406073       -11.0498
  63   2.0000      -0.355671        -9.6783
  64   2.0000      -0.332942        -9.0598
  65   2.0000      -0.324776        -8.8376
  66   2.0000      -0.283808        -7.7228
  67   0.0000       0.024281         0.6607
  68   0.0000       0.074542         2.0284
  69   0.0000       0.115511         3.1432
  70   0.0000       0.117254         3.1906
  71   0.0000       0.133499         3.6327

MULLIKEN ATOMIC CHARGES
-----------------------
   0 S :    0.103871
   1 C :   -0.121540
   2 C :   -0.091605
   3 C :    0.006631
   4 C :   -0.131462
   5 H :    0.006136
   6 C :    0.089279
   7 H :    0.002556
   8 H :    0.049880
   9 C :   -0.095017
  10 H :    0.040631
  11 H :    0.045890
  12 C :   -0.055276
  13 H :    0.029737
  14 H :    0.020168
  15 H :    0.034167
  16 S :    0.109056
  17 C :   -0.073252
  18 C :   -0.042805
  19 C :   -0.035980
  20 C :   -0.142700
  21 H :    0.007839
  22 C :   -0.011440
  23 H :    0.046843
  24 H :    0.029545
  25 C :   -0.005588
  26 H :    0.017429
  27 H :    0.025407
  28 C :   -0.089649
  29 H :    0.046618
  30 H :    0.041613
  31 H :    0.046192
  32 H :    0.046384
  33 H :    0.050440
Sum of atomic charges:   -0.0000000

LOEWDIN ATOMIC CHARGES
----------------------
   0 S :    0.421580
   1 C :   -0.216042
   2 C :   -0.064634
   3 C :   -0.067091
   4 C :   -0.183062
   5 H :    0.027265
   6 C :   -0.028085
   7 H :    0.017199
   8 H :    0.040623
   9 C :   -0.046941
  10 H :    0.033394
  11 H :    0.027798
  12 C :   -0.072538
  13 H :    0.035419
  14 H :    0.021773
  15 H :    0.022312
  16 S :    0.418438
  17 C :   -0.180584
  18 C :   -0.064977
  19 C :   -0.059068
  20 C :   -0.208910
  21 H :    0.027053
  22 C :   -0.044112
  23 H :    0.043481
  24 H :    0.023248
  25 C :   -0.041733
  26 H :    0.021494
  27 H :    0.029099
  28 C :   -0.078933
  29 H :    0.034588
  30 H :    0.028318
  31 H :    0.031180
  32 H :    0.029344
  33 H :    0.023105

  Mayer bond orders larger than 0.100000
B(  0-S ,  1-C ) :   1.1459 B(  0-S ,  4-C ) :   1.1376 B(  1-C ,  2-C ) :   1.6178
B(  1-C , 32-H ) :   0.9708 B(  2-C ,  3-C ) :   1.2431 B(  2-C ,  6-C ) :   1.0035
B(  3-C ,  4-C ) :   1.5536 B(  3-C ,  5-H ) :   0.9992 B(  4-C , 20-C ) :   1.0686
B(  6-C ,  7-H ) :   0.9466 B(  6-C ,  8-H ) :   0.9331 B(  6-C ,  9-C ) :   1.0744
B(  9-C , 10-H ) :   0.9583 B(  9-C , 11-H ) :   0.9447 B(  9-C , 12-C ) :   1.0877
B( 12-C , 13-H ) :   0.9711 B( 12-C , 14-H ) :   0.9724 B( 12-C , 15-H ) :   0.9756
B( 16-S , 17-C ) :   1.1729 B( 16-S , 20-C ) :   1.1452 B( 17-C , 18-C ) :   1.5553
B( 17-C , 20-C ) :   0.1111 B( 17-C , 33-H ) :   0.9648 B( 18-C , 19-C ) :   1.3083
B( 18-C , 21-H ) :   0.9909 B( 19-C , 20-C ) :   1.5236 B( 19-C , 22-C ) :   1.0186
B( 22-C , 23-H ) :   0.9204 B( 22-C , 24-H ) :   0.9384 B( 22-C , 25-C ) :   1.0895
B( 25-C , 26-H ) :   0.9457 B( 25-C , 27-H ) :   0.9467 B( 25-C , 28-C ) :   1.0604
B( 28-C , 29-H ) :   0.9763 B( 28-C , 30-H ) :   0.9767 B( 28-C , 31-H ) :   0.9751

Dispersion correction           -0.013807655
FINAL SINGLE POINT ENERGY     -1339.870897558663

DIPOLE MOMENT
-------------
                                X             Y             Z
Electronic contribution:    -15.36199      -1.87443      -6.22238
Nuclear contribution   :     15.49496       2.00497       6.30619
                        -----------------------------------------
Total Dipole Moment    :      0.13297       0.13054       0.08381
                        -----------------------------------------
Magnitude (a.u.)       :      0.20432
Magnitude (Debye)      :      0.51933

Rotational constants in cm-1:     0.021391     0.007173     0.006450
Rotational constants in MHz :   641.272074   215.046288   193.373804

                             ****ORCA TERMINATED NORMALLY****
TOTAL RUN TIME: 0 days 0 hours 0 minutes 33 seconds 477 msec
