                         Program Version 4.2.1 -  RELEASE  -
|  1> ! wB97X-D3 SP def2-SVP
|  2> %pal
|  3> nprocs 16
|  4> end
|  5>
|  6> * xyz 0 1
|  7> S 	 -42.1764 	 18.3982 	 77.5384
|  8> C 	 -41.8569 	 16.6177 	 77.4318
|  9> C 	 -42.2035 	 16.1735 	 76.1424
| 10> C 	 -42.6874 	 17.2673 	 75.3626
| 11> C 	 -42.6707 	 18.4998 	 75.9016
| 12> H 	 -42.9172 	 17.1068 	 74.3256
| 13> C 	 -42.0622 	 14.783 	 75.6496
| 14> H 	 -42.3769 	 14.6891 	 74.6319
| 15> H 	 -42.672 	 14.0622 	 76.2354
| 16> C 	 -40.6077 	 14.2653 	 75.6097
| 17> H 	 -40.1173 	 14.2868 	 76.6228
| 18> H 	 -40.4493 	 13.2594 	 75.2784
| 19> C 	 -39.6689 	 15.1123 	 74.7693
| 20> H 	 -39.0863 	 15.8774 	 75.4075
| 21> H 	 -38.9044 	 14.4738 	 74.4344
| 22> H 	 -40.2505 	 15.5945 	 73.8976
| 23> S 	 -41.6117 	 20.9968 	 75.1767
| 24> C 	 -42.463 	 21.8925 	 73.9645
| 25> C 	 -43.6002 	 21.2184 	 73.489
| 26> C 	 -43.8721 	 20.0152 	 74.1766
| 27> C 	 -42.8616 	 19.7302 	 75.083
| 28> H 	 -44.2087 	 21.8081 	 72.7977
| 29> C 	 -45.1469 	 19.183 	 74.0574
| 30> H 	 -44.9971 	 18.1207 	 74.1675
| 31> H 	 -45.5196 	 19.218 	 73.0064
| 32> C 	 -46.2207 	 19.6291 	 75.1291
| 33> H 	 -45.7653 	 19.4322 	 76.1005
| 34> H 	 -47.1751 	 18.9962 	 75.0345
| 35> C 	 -46.6343 	 21.0652 	 75.1379
| 36> H 	 -45.8237 	 21.7654 	 75.0924
| 37> H 	 -47.2581 	 21.2805 	 76.0418
| 38> H 	 -47.316 	 21.2971 	 74.2335
| 39> H 	 -41.4735 	 15.9811 	 78.1465
| 40> H 	 -42.147 	 22.9087 	 73.6266
| 41> *
| 42>
| 43>                          ****END OF INPUT****

CARTESIAN COORDINATES (ANGSTROEM)
---------------------------------
  S    -42.176400   18.398200   77.538400
  C    -41.856900   16.617700   77.431800
  C    -42.203500   16.173500   76.142400
  C    -42.687400   17.267300   75.362600
  C    -42.670700   18.499800   75.901600
  H    -42.917200   17.106800   74.325600
  C    -42.062200   14.783000   75.649600
  H    -42.376900   14.689100   74.631900
  H    -42.672000   14.062200   76.235400
  C    -40.607700   14.265300   75.609700
  H    -40.117300   14.286800   76.622800
  H    -40.449300   13.259400   75.278400
  C    -39.668900   15.112300   74.769300
  H    -39.086300   15.877400   75.407500
  H    -38.904400   14.473800   74.434400
  H    -40.250500   15.594500   73.897600
  S    -41.611700   20.996800   75.176700
  C    -42.463000   21.892500   73.964500
  C    -43.600200   21.218400   73.489000
  C    -43.872100   20.015200   74.176600
  C    -42.861600   19.730200   75.083000
  H    -44.208700   21.808100   72.797700
  C    -45.146900   19.183000   74.057400
  H    -44.997100   18.120700   74.167500
  H    -45.519600   19.218000   73.006400
  C    -46.220700   19.629100   75.129100
  H    -45.765300   19.432200   76.100500
  H    -47.175100   18.996200   75.034500
  C    -46.634300   21.065200   75.137900
  H    -45.823700   21.765400   75.092400
  H    -47.258100   21.280500   76.041800
  H    -47.316000   21.297100   74.233500
  H    -41.473500   15.981100   78.146500
  H    -42.147000   22.908700   73.626600

 Total Charge           Charge          ....    0
 Multiplicity           Mult            ....    1
 Number of Electrons    NEL             ....  134
 Basis Dimension        Dim             ....  322

ORBITAL ENERGIES
----------------

  NO   OCC          E(Eh)            E(eV)
   0   2.0000     -88.970321     -2421.0055
   1   2.0000     -88.969193     -2420.9748
   2   2.0000     -10.332028      -281.1488
   3   2.0000     -10.326032      -280.9856
   4   2.0000     -10.321809      -280.8707
   5   2.0000     -10.315872      -280.7091
   6   2.0000     -10.306987      -280.4674
   7   2.0000     -10.302720      -280.3513
   8   2.0000     -10.298027      -280.2235
   9   2.0000     -10.296773      -280.1894
  10   2.0000     -10.294410      -280.1251
  11   2.0000     -10.290219      -280.0111
  12   2.0000     -10.285769      -279.8900
  13   2.0000     -10.285710      -279.8884
  14   2.0000     -10.279379      -279.7161
  15   2.0000     -10.277293      -279.6594
  16   2.0000      -8.084703      -219.9960
  17   2.0000      -8.083231      -219.9559
  18   2.0000      -6.043047      -164.4397
  19   2.0000      -6.041883      -164.4080
  20   2.0000      -6.039233      -164.3359
  21   2.0000      -6.037771      -164.2961
  22   2.0000      -6.035696      -164.2396
  23   2.0000      -6.033933      -164.1917
  24   2.0000      -1.006956       -27.4007
  25   2.0000      -0.984454       -26.7883
  26   2.0000      -0.916351       -24.9352
  27   2.0000      -0.904192       -24.6043
  28   2.0000      -0.864193       -23.5159
  29   2.0000      -0.851965       -23.1831
  30   2.0000      -0.844118       -22.9696
  31   2.0000      -0.812190       -22.1008
  32   2.0000      -0.785445       -21.3731
  33   2.0000      -0.775001       -21.0889
  34   2.0000      -0.705779       -19.2052
  35   2.0000      -0.693669       -18.8757
  36   2.0000      -0.681701       -18.5500
  37   2.0000      -0.658447       -17.9172
  38   2.0000      -0.638568       -17.3763
  39   2.0000      -0.618588       -16.8326
  40   2.0000      -0.593950       -16.1622
  41   2.0000      -0.577329       -15.7099
  42   2.0000      -0.559676       -15.2296
  43   2.0000      -0.550648       -14.9839
  44   2.0000      -0.546850       -14.8805
  45   2.0000      -0.535503       -14.5718
  46   2.0000      -0.514249       -13.9934
  47   2.0000      -0.509210       -13.8563
  48   2.0000      -0.498688       -13.5700
  49   2.0000      -0.490511       -13.3475
  50   2.0000      -0.486218       -13.2307
  51   2.0000      -0.481183       -13.0937
  52   2.0000      -0.469841       -12.7850
  53   2.0000      -0.462915       -12.5966
  54   2.0000      -0.460740       -12.5374
  55   2.0000      -0.441695       -12.0191
  56   2.0000      -0.439710       -11.9651
  57   2.0000      -0.434498       -11.8233
  58   2.0000      -0.428961       -11.6726
  59   2.0000      -0.424729       -11.5575
  60   2.0000      -0.422344       -11.4926
  61   2.0000      -0.410785       -11.1780
  62   2.0000      -0.407688       -11.0938
  63   2.0000      -0.344905        -9.3853
  64   2.0000      -0.337680        -9.1888
  65   2.0000      -0.330859        -9.0031
  66   2.0000      -0.291706        -7.9377
  67   0.0000       0.026456         0.7199
  68   0.0000       0.068849         1.8735
  69   0.0000       0.108647         2.9564
  70   0.0000       0.119743         3.2584
  71   0.0000       0.131474         3.5776

MULLIKEN ATOMIC CHARGES
-----------------------
   0 S :    0.105938
   1 C :   -0.096897
   2 C :   -0.086082
   3 C :    0.025363
   4 C :   -0.126398
   5 H :    0.005142
   6 C :    0.090820
   7 H :    0.013254
   8 H :    0.045979
   9 C :   -0.100821
  10 H :    0.025354
  11 H :    0.026043
  12 C :   -0.073128
  13 H :    0.048356
  14 H :    0.019725
  15 H :    0.042974
  16 S :    0.123004
  17 C :   -0.128391
  18 C :   -0.045595
  19 C :   -0.032625
  20 C :   -0.164906
  21 H :    0.026281
  22 C :    0.089870
  23 H :    0.018458
  24 H :    0.026012
  25 C :   -0.080846
  26 H :    0.035524
  27 H :    0.043179
  28 C :   -0.075919
  29 H :    0.039149
  30 H :    0.042566
  31 H :    0.028699
  32 H :    0.017413
  33 H :    0.072505
Sum of atomic charges:    0.0000000

LOEWDIN ATOMIC CHARGES
----------------------
   0 S :    0.400562
   1 C :   -0.167454
   2 C :   -0.054519
   3 C :   -0.066624
   4 C :   -0.209832
   5 H :    0.025083
   6 C :   -0.032873
   7 H :    0.026143
   8 H :    0.039924
   9 C :   -0.048315
  10 H :    0.025710
  11 H :    0.020083
  12 C :   -0.073725
  13 H :    0.036407
  14 H :    0.017102
  15 H :    0.031781
  16 S :    0.407243
  17 C :   -0.199136
  18 C :   -0.074877
  19 C :   -0.058003
  20 C :   -0.180121
  21 H :    0.035096
  22 C :   -0.031881
  23 H :    0.028385
  24 H :    0.031820
  25 C :   -0.042208
  26 H :    0.026021
  27 H :    0.033156
  28 C :   -0.075538
  29 H :    0.019664
  30 H :    0.033205
  31 H :    0.028291
  32 H :    0.012556
  33 H :    0.036872

  Mayer bond orders larger than 0.100000
B(  0-S ,  1-C ) :   1.1284 B(  0-S ,  4-C ) :   1.1454 B(  1-C ,  2-C ) :   1.5851
B(  1-C , 32-H ) :   0.9815 B(  2-C ,  3-C ) :   1.2721 B(  2-C ,  6-C ) :   1.0301
B(  3-C ,  4-C ) :   1.5701 B(  3-C ,  5-H ) :   0.9849 B(  4-C , 20-C ) :   1.0199
B(  6-C ,  7-H ) :   0.9419 B(  6-C ,  8-H ) :   0.9350 B(  6-C ,  9-C ) :   1.0710
B(  9-C , 10-H ) :   0.9564 B(  9-C , 11-H ) :   0.9659 B(  9-C , 12-C ) :   1.0632
B( 12-C , 13-H ) :   0.9756 B( 12-C , 14-H ) :   0.9753 B( 12-C , 15-H ) :   0.9775
B( 16-S , 17-C ) :   1.1671 B( 16-S , 20-C ) :   1.1477 B( 17-C , 18-C ) :   1.5987
B( 17-C , 20-C ) :   0.1039 B( 17-C , 33-H ) :   0.9616 B( 18-C , 19-C ) :   1.2413
B( 18-C , 21-H ) :   0.9891 B( 19-C , 20-C ) :   1.5888 B( 19-C , 22-C ) :   1.0421
B( 22-C , 23-H ) :   0.9295 B( 22-C , 24-H ) :   0.9383 B( 22-C , 25-C ) :   1.0562
B( 25-C , 26-H ) :   0.9559 B( 25-C , 27-H ) :   0.9553 B( 25-C , 28-C ) :   1.0873
B( 28-C , 29-H ) :   0.9703 B( 28-C , 30-H ) :   0.9709 B( 28-C , 31-H ) :   0.9733

Dispersion correction           -0.015152628
FINAL SINGLE POINT ENERGY     -1339.873269506505

DIPOLE MOMENT
-------------
                                X             Y             Z
Electronic contribution:      8.11314      13.15147       7.93445
Nuclear contribution   :     -8.26127     -13.54415      -8.26575
                        -----------------------------------------
Total Dipole Moment    :     -0.14813      -0.39268      -0.33130
                        -----------------------------------------
Magnitude (a.u.)       :      0.53470
Magnitude (Debye)      :      1.35909

Rotational constants in cm-1:     0.021862     0.008127     0.007423
Rotational constants in MHz :   655.418661   243.641535   222.522395

                             ****ORCA TERMINATED NORMALLY****
TOTAL RUN TIME: 0 days 0 hours 0 minutes 29 seconds 379 msec
