                         Program Version 4.2.1 -  RELEASE  -
|  1> ! wB97X-D3 SP def2-SVP
|  2> %pal
|  3> nprocs 16
|  4> end
|  5>
|  6> * xyz 0 1
|  7> S 	 -42.0925 	 27.4114 	 86.2459
|  8> C 	 -41.9485 	 28.4775 	 87.6602
|  9> C 	 -41.1742 	 29.5646 	 87.3683
| 10> C 	 -40.7153 	 29.6593 	 86.0341
| 11> C 	 -41.0244 	 28.5068 	 85.2927
| 12> H 	 -40.1177 	 30.4709 	 85.4937
| 13> C 	 -40.9915 	 30.7472 	 88.2902
| 14> H 	 -41.6031 	 31.4937 	 87.6992
| 15> H 	 -39.9785 	 31.1907 	 88.193
| 16> C 	 -41.4824 	 30.6373 	 89.7692
| 17> H 	 -42.5368 	 30.3642 	 89.7636
| 18> H 	 -40.9637 	 29.7332 	 90.2466
| 19> C 	 -41.0722 	 31.9125 	 90.5485
| 20> H 	 -41.1167 	 31.6355 	 91.6089
| 21> H 	 -40.0537 	 32.2058 	 90.4
| 22> H 	 -41.7021 	 32.7656 	 90.4425
| 23> S 	 -41.9777 	 27.2692 	 82.9653
| 24> C 	 -40.9435 	 27.0704 	 81.6242
| 25> C 	 -39.6719 	 27.6031 	 81.8486
| 26> C 	 -39.5752 	 28.2382 	 83.1256
| 27> C 	 -40.7734 	 28.1884 	 83.841
| 28> H 	 -38.9459 	 27.4548 	 81.0086
| 29> C 	 -38.2466 	 28.8186 	 83.5476
| 30> H 	 -37.5901 	 28.0111 	 83.1861
| 31> H 	 -38.1946 	 28.7643 	 84.6593
| 32> C 	 -37.9701 	 30.2427 	 83.0684
| 33> H 	 -36.9876 	 30.4375 	 83.4399
| 34> H 	 -38.6695 	 30.8692 	 83.5711
| 35> C 	 -38.0033 	 30.4372 	 81.5163
| 36> H 	 -37.2709 	 31.2589 	 81.407
| 37> H 	 -38.8772 	 30.7617 	 81.0317
| 38> H 	 -37.5275 	 29.633 	 80.9032
| 39> H 	 -42.3089 	 28.2527 	 88.581
| 40> H 	 -41.2673 	 26.7192 	 80.6924
| 41> *
| 42>
| 43>                          ****END OF INPUT****

CARTESIAN COORDINATES (ANGSTROEM)
---------------------------------
  S    -42.092500   27.411400   86.245900
  C    -41.948500   28.477500   87.660200
  C    -41.174200   29.564600   87.368300
  C    -40.715300   29.659300   86.034100
  C    -41.024400   28.506800   85.292700
  H    -40.117700   30.470900   85.493700
  C    -40.991500   30.747200   88.290200
  H    -41.603100   31.493700   87.699200
  H    -39.978500   31.190700   88.193000
  C    -41.482400   30.637300   89.769200
  H    -42.536800   30.364200   89.763600
  H    -40.963700   29.733200   90.246600
  C    -41.072200   31.912500   90.548500
  H    -41.116700   31.635500   91.608900
  H    -40.053700   32.205800   90.400000
  H    -41.702100   32.765600   90.442500
  S    -41.977700   27.269200   82.965300
  C    -40.943500   27.070400   81.624200
  C    -39.671900   27.603100   81.848600
  C    -39.575200   28.238200   83.125600
  C    -40.773400   28.188400   83.841000
  H    -38.945900   27.454800   81.008600
  C    -38.246600   28.818600   83.547600
  H    -37.590100   28.011100   83.186100
  H    -38.194600   28.764300   84.659300
  C    -37.970100   30.242700   83.068400
  H    -36.987600   30.437500   83.439900
  H    -38.669500   30.869200   83.571100
  C    -38.003300   30.437200   81.516300
  H    -37.270900   31.258900   81.407000
  H    -38.877200   30.761700   81.031700
  H    -37.527500   29.633000   80.903200
  H    -42.308900   28.252700   88.581000
  H    -41.267300   26.719200   80.692400

 Total Charge           Charge          ....    0
 Multiplicity           Mult            ....    1
 Number of Electrons    NEL             ....  134
 Basis Dimension        Dim             ....  322

ORBITAL ENERGIES
----------------

  NO   OCC          E(Eh)            E(eV)
   0   2.0000     -88.965729     -2420.8805
   1   2.0000     -88.962573     -2420.7947
   2   2.0000     -10.339529      -281.3529
   3   2.0000     -10.328867      -281.0628
   4   2.0000     -10.311319      -280.5852
   5   2.0000     -10.304200      -280.3915
   6   2.0000     -10.303318      -280.3675
   7   2.0000     -10.300951      -280.3031
   8   2.0000     -10.299746      -280.2703
   9   2.0000     -10.299511      -280.2639
  10   2.0000     -10.296705      -280.1876
  11   2.0000     -10.296457      -280.1808
  12   2.0000     -10.290683      -280.0237
  13   2.0000     -10.290586      -280.0211
  14   2.0000     -10.280978      -279.7596
  15   2.0000     -10.278954      -279.7046
  16   2.0000      -8.081172      -219.8999
  17   2.0000      -8.076125      -219.7625
  18   2.0000      -6.039554      -164.3446
  19   2.0000      -6.035480      -164.2338
  20   2.0000      -6.034790      -164.2150
  21   2.0000      -6.032135      -164.1427
  22   2.0000      -6.030901      -164.1091
  23   2.0000      -6.026689      -163.9945
  24   2.0000      -1.002975       -27.2923
  25   2.0000      -0.981288       -26.7022
  26   2.0000      -0.911486       -24.8028
  27   2.0000      -0.904368       -24.6091
  28   2.0000      -0.862664       -23.4743
  29   2.0000      -0.851060       -23.1585
  30   2.0000      -0.843949       -22.9650
  31   2.0000      -0.813399       -22.1337
  32   2.0000      -0.784923       -21.3588
  33   2.0000      -0.769663       -20.9436
  34   2.0000      -0.717977       -19.5372
  35   2.0000      -0.709152       -19.2970
  36   2.0000      -0.688680       -18.7399
  37   2.0000      -0.659780       -17.9535
  38   2.0000      -0.638941       -17.3865
  39   2.0000      -0.606094       -16.4926
  40   2.0000      -0.587904       -15.9977
  41   2.0000      -0.568805       -15.4780
  42   2.0000      -0.561688       -15.2843
  43   2.0000      -0.557890       -15.1810
  44   2.0000      -0.537264       -14.6197
  45   2.0000      -0.523604       -14.2480
  46   2.0000      -0.516566       -14.0565
  47   2.0000      -0.509642       -13.8681
  48   2.0000      -0.503712       -13.7067
  49   2.0000      -0.493770       -13.4362
  50   2.0000      -0.492278       -13.3956
  51   2.0000      -0.484410       -13.1815
  52   2.0000      -0.478479       -13.0201
  53   2.0000      -0.465986       -12.6801
  54   2.0000      -0.456641       -12.4258
  55   2.0000      -0.449334       -12.2270
  56   2.0000      -0.448826       -12.2132
  57   2.0000      -0.434443       -11.8218
  58   2.0000      -0.428036       -11.6475
  59   2.0000      -0.426462       -11.6046
  60   2.0000      -0.419739       -11.4217
  61   2.0000      -0.415026       -11.2934
  62   2.0000      -0.409928       -11.1547
  63   2.0000      -0.350847        -9.5470
  64   2.0000      -0.331050        -9.0083
  65   2.0000      -0.325950        -8.8696
  66   2.0000      -0.285983        -7.7820
  67   0.0000       0.027870         0.7584
  68   0.0000       0.074166         2.0182
  69   0.0000       0.108421         2.9503
  70   0.0000       0.124420         3.3856
  71   0.0000       0.133509         3.6330

MULLIKEN ATOMIC CHARGES
-----------------------
   0 S :    0.081464
   1 C :   -0.092896
   2 C :   -0.045043
   3 C :   -0.022660
   4 C :   -0.129730
   5 H :    0.041714
   6 C :   -0.000500
   7 H :    0.045879
   8 H :    0.028239
   9 C :   -0.097613
  10 H :    0.040579
  11 H :    0.044035
  12 C :   -0.015891
  13 H :    0.027770
  14 H :    0.027561
  15 H :    0.035510
  16 S :    0.109591
  17 C :   -0.083085
  18 C :   -0.058962
  19 C :   -0.056228
  20 C :   -0.139864
  21 H :    0.038840
  22 C :    0.021204
  23 H :    0.033995
  24 H :    0.030522
  25 C :    0.001466
  26 H :    0.028588
  27 H :    0.021732
  28 C :   -0.060943
  29 H :    0.025654
  30 H :    0.040958
  31 H :    0.033380
  32 H :    0.006596
  33 H :    0.038137
Sum of atomic charges:   -0.0000000

LOEWDIN ATOMIC CHARGES
----------------------
   0 S :    0.363599
   1 C :   -0.183468
   2 C :   -0.062293
   3 C :   -0.081319
   4 C :   -0.158276
   5 H :    0.045606
   6 C :   -0.043960
   7 H :    0.044209
   8 H :    0.029832
   9 C :   -0.044282
  10 H :    0.025463
  11 H :    0.032186
  12 C :   -0.060896
  13 H :    0.030585
  14 H :    0.024272
  15 H :    0.022987
  16 S :    0.425260
  17 C :   -0.190374
  18 C :   -0.078675
  19 C :   -0.055245
  20 C :   -0.209557
  21 H :    0.041089
  22 C :   -0.039713
  23 H :    0.034745
  24 H :    0.032354
  25 C :   -0.025259
  26 H :    0.024820
  27 H :    0.021456
  28 C :   -0.070818
  29 H :    0.032532
  30 H :    0.020937
  31 H :    0.029456
  32 H :    0.005000
  33 H :    0.017745

  Mayer bond orders larger than 0.100000
B(  0-S ,  1-C ) :   1.1011 B(  0-S ,  4-C ) :   1.1454 B(  1-C ,  2-C ) :   1.6389
B(  1-C , 32-H ) :   0.9748 B(  2-C ,  3-C ) :   1.2155 B(  2-C ,  6-C ) :   1.0108
B(  3-C ,  4-C ) :   1.5933 B(  3-C ,  5-H ) :   0.9797 B(  4-C , 20-C ) :   1.0346
B(  6-C ,  7-H ) :   0.9364 B(  6-C ,  8-H ) :   0.9441 B(  6-C ,  9-C ) :   1.0629
B(  9-C , 10-H ) :   0.9471 B(  9-C , 11-H ) :   0.9599 B(  9-C , 12-C ) :   1.0741
B( 12-C , 13-H ) :   0.9738 B( 12-C , 14-H ) :   0.9748 B( 12-C , 15-H ) :   0.9776
B( 16-S , 17-C ) :   1.1828 B( 16-S , 20-C ) :   1.1421 B( 17-C , 18-C ) :   1.5889
B( 17-C , 33-H ) :   0.9717 B( 18-C , 19-C ) :   1.2587 B( 18-C , 21-H ) :   0.9847
B( 19-C , 20-C ) :   1.5703 B( 19-C , 22-C ) :   1.0238 B( 22-C , 23-H ) :   0.9396
B( 22-C , 24-H ) :   0.9305 B( 22-C , 25-C ) :   1.0764 B( 25-C , 26-H ) :   0.9583
B( 25-C , 27-H ) :   0.9478 B( 25-C , 28-C ) :   1.0672 B( 28-C , 29-H ) :   0.9734
B( 28-C , 30-H ) :   0.9775 B( 28-C , 31-H ) :   0.9752

Dispersion correction           -0.013993515
FINAL SINGLE POINT ENERGY     -1339.867169110975

DIPOLE MOMENT
-------------
                                X             Y             Z
Electronic contribution:    -15.00822     -20.81507      -9.60198
Nuclear contribution   :     15.51986      21.36328       9.59955
                        -----------------------------------------
Total Dipole Moment    :      0.51165       0.54820      -0.00243
                        -----------------------------------------
Magnitude (a.u.)       :      0.74988
Magnitude (Debye)      :      1.90604

Rotational constants in cm-1:     0.021905     0.007445     0.005784
Rotational constants in MHz :   656.696047   223.204180   173.393555

                             ****ORCA TERMINATED NORMALLY****
TOTAL RUN TIME: 0 days 0 hours 0 minutes 29 seconds 586 msec
