                         Program Version 4.2.1 -  RELEASE  -
|  1> ! wB97X-D3 SP def2-SVP
|  2> %pal
|  3> nprocs 16
|  4> end
|  5>
|  6> * xyz 0 1
|  7> S 	 -37.2834 	 53.5336 	 105.972
|  8> C 	 -37.3804 	 54.7983 	 107.183
|  9> C 	 -37.1134 	 54.2528 	 108.394
| 10> C 	 -36.8942 	 52.8479 	 108.438
| 11> C 	 -36.956 	 52.2739 	 107.176
| 12> H 	 -36.8426 	 52.2171 	 109.303
| 13> C 	 -36.9342 	 55.0793 	 109.657
| 14> H 	 -36.621 	 56.1076 	 109.292
| 15> H 	 -36.0984 	 54.5761 	 110.124
| 16> C 	 -37.9974 	 55.293 	 110.758
| 17> H 	 -38.8335 	 55.9745 	 110.388
| 18> H 	 -38.5668 	 54.3442 	 111.093
| 19> C 	 -37.411 	 55.9881 	 112.054
| 20> H 	 -36.7368 	 55.3394 	 112.62
| 21> H 	 -36.9007 	 56.9607 	 111.898
| 22> H 	 -38.1362 	 56.1223 	 112.802
| 23> S 	 -35.2367 	 50.4973 	 105.947
| 24> C 	 -35.5606 	 48.7971 	 105.991
| 25> C 	 -36.7319 	 48.5306 	 106.659
| 26> C 	 -37.416 	 49.7321 	 107.17
| 27> C 	 -36.6965 	 50.8914 	 106.845
| 28> H 	 -36.8623 	 47.4322 	 106.759
| 29> C 	 -38.8499 	 49.617 	 107.889
| 30> H 	 -39.5754 	 50.0115 	 107.049
| 31> H 	 -38.7046 	 50.3305 	 108.687
| 32> C 	 -39.3494 	 48.2575 	 108.505
| 33> H 	 -38.8128 	 48.1626 	 109.452
| 34> H 	 -39.1476 	 47.3728 	 107.876
| 35> C 	 -40.858 	 48.2698 	 108.874
| 36> H 	 -41.2114 	 47.3279 	 109.186
| 37> H 	 -41.404 	 48.543 	 108.045
| 38> H 	 -40.9316 	 48.8636 	 109.826
| 39> H 	 -37.7861 	 55.7206 	 106.959
| 40> H 	 -34.9901 	 47.9772 	 105.518
| 41> *
| 42>
| 43>                          ****END OF INPUT****

CARTESIAN COORDINATES (ANGSTROEM)
---------------------------------
  S    -37.283400   53.533600  105.972000
  C    -37.380400   54.798300  107.183000
  C    -37.113400   54.252800  108.394000
  C    -36.894200   52.847900  108.438000
  C    -36.956000   52.273900  107.176000
  H    -36.842600   52.217100  109.303000
  C    -36.934200   55.079300  109.657000
  H    -36.621000   56.107600  109.292000
  H    -36.098400   54.576100  110.124000
  C    -37.997400   55.293000  110.758000
  H    -38.833500   55.974500  110.388000
  H    -38.566800   54.344200  111.093000
  C    -37.411000   55.988100  112.054000
  H    -36.736800   55.339400  112.620000
  H    -36.900700   56.960700  111.898000
  H    -38.136200   56.122300  112.802000
  S    -35.236700   50.497300  105.947000
  C    -35.560600   48.797100  105.991000
  C    -36.731900   48.530600  106.659000
  C    -37.416000   49.732100  107.170000
  C    -36.696500   50.891400  106.845000
  H    -36.862300   47.432200  106.759000
  C    -38.849900   49.617000  107.889000
  H    -39.575400   50.011500  107.049000
  H    -38.704600   50.330500  108.687000
  C    -39.349400   48.257500  108.505000
  H    -38.812800   48.162600  109.452000
  H    -39.147600   47.372800  107.876000
  C    -40.858000   48.269800  108.874000
  H    -41.211400   47.327900  109.186000
  H    -41.404000   48.543000  108.045000
  H    -40.931600   48.863600  109.826000
  H    -37.786100   55.720600  106.959000
  H    -34.990100   47.977200  105.518000

 Total Charge           Charge          ....    0
 Multiplicity           Mult            ....    1
 Number of Electrons    NEL             ....  134
 Basis Dimension        Dim             ....  322

ORBITAL ENERGIES
----------------

  NO   OCC          E(Eh)            E(eV)
   0   2.0000     -88.963719     -2420.8259
   1   2.0000     -88.962283     -2420.7868
   2   2.0000     -10.331315      -281.1294
   3   2.0000     -10.328172      -281.0439
   4   2.0000     -10.318046      -280.7683
   5   2.0000     -10.315183      -280.6904
   6   2.0000     -10.309426      -280.5337
   7   2.0000     -10.309117      -280.5253
   8   2.0000     -10.305207      -280.4189
   9   2.0000     -10.299562      -280.2653
  10   2.0000     -10.295855      -280.1645
  11   2.0000     -10.295331      -280.1502
  12   2.0000     -10.294818      -280.1362
  13   2.0000     -10.294116      -280.1171
  14   2.0000     -10.280839      -279.7558
  15   2.0000     -10.275509      -279.6108
  16   2.0000      -8.078622      -219.8305
  17   2.0000      -8.076947      -219.7849
  18   2.0000      -6.037195      -164.2804
  19   2.0000      -6.035523      -164.2349
  20   2.0000      -6.033047      -164.1676
  21   2.0000      -6.031320      -164.1206
  22   2.0000      -6.029348      -164.0669
  23   2.0000      -6.027775      -164.0241
  24   2.0000      -1.004227       -27.3264
  25   2.0000      -0.981966       -26.7207
  26   2.0000      -0.902134       -24.5483
  27   2.0000      -0.897403       -24.4196
  28   2.0000      -0.871684       -23.7197
  29   2.0000      -0.847601       -23.0644
  30   2.0000      -0.843039       -22.9402
  31   2.0000      -0.817404       -22.2427
  32   2.0000      -0.780841       -21.2478
  33   2.0000      -0.771400       -20.9908
  34   2.0000      -0.709200       -19.2983
  35   2.0000      -0.699920       -19.0458
  36   2.0000      -0.694419       -18.8961
  37   2.0000      -0.651861       -17.7381
  38   2.0000      -0.640586       -17.4312
  39   2.0000      -0.616625       -16.7792
  40   2.0000      -0.584002       -15.8915
  41   2.0000      -0.571819       -15.5600
  42   2.0000      -0.566678       -15.4201
  43   2.0000      -0.554389       -15.0857
  44   2.0000      -0.527566       -14.3558
  45   2.0000      -0.520987       -14.1768
  46   2.0000      -0.517011       -14.0686
  47   2.0000      -0.514288       -13.9945
  48   2.0000      -0.510141       -13.8816
  49   2.0000      -0.499575       -13.5941
  50   2.0000      -0.492905       -13.4126
  51   2.0000      -0.476235       -12.9590
  52   2.0000      -0.467135       -12.7114
  53   2.0000      -0.463628       -12.6160
  54   2.0000      -0.457827       -12.4581
  55   2.0000      -0.445638       -12.1264
  56   2.0000      -0.443227       -12.0608
  57   2.0000      -0.433277       -11.7901
  58   2.0000      -0.432956       -11.7813
  59   2.0000      -0.424978       -11.5642
  60   2.0000      -0.416455       -11.3323
  61   2.0000      -0.411084       -11.1862
  62   2.0000      -0.408051       -11.1036
  63   2.0000      -0.340561        -9.2671
  64   2.0000      -0.329109        -8.9555
  65   2.0000      -0.326303        -8.8792
  66   2.0000      -0.301545        -8.2054
  67   0.0000       0.037461         1.0194
  68   0.0000       0.061640         1.6773
  69   0.0000       0.117694         3.2026
  70   0.0000       0.125973         3.4279
  71   0.0000       0.129219         3.5162

MULLIKEN ATOMIC CHARGES
-----------------------
   0 S :    0.097151
   1 C :   -0.100887
   2 C :   -0.056344
   3 C :    0.056450
   4 C :   -0.179306
   5 H :    0.015514
   6 C :    0.043290
   7 H :    0.032649
   8 H :    0.026255
   9 C :   -0.094322
  10 H :    0.038235
  11 H :    0.039178
  12 C :   -0.053993
  13 H :    0.023788
  14 H :    0.042324
  15 H :    0.018534
  16 S :    0.119284
  17 C :   -0.112546
  18 C :   -0.068859
  19 C :   -0.026109
  20 C :   -0.174787
  21 H :    0.035168
  22 C :    0.041352
  23 H :    0.068036
  24 H :    0.027695
  25 C :   -0.098956
  26 H :    0.032663
  27 H :    0.041802
  28 C :   -0.009888
  29 H :    0.016303
  30 H :    0.026668
  31 H :    0.036575
  32 H :    0.030006
  33 H :    0.067077
Sum of atomic charges:    0.0000000

LOEWDIN ATOMIC CHARGES
----------------------
   0 S :    0.392814
   1 C :   -0.178927
   2 C :   -0.066360
   3 C :   -0.055189
   4 C :   -0.186194
   5 H :    0.031887
   6 C :   -0.039547
   7 H :    0.038209
   8 H :    0.031686
   9 C :   -0.049807
  10 H :    0.027906
  11 H :    0.030707
  12 C :   -0.071814
  13 H :    0.024482
  14 H :    0.029513
  15 H :    0.020223
  16 S :    0.410786
  17 C :   -0.200713
  18 C :   -0.090154
  19 C :   -0.048363
  20 C :   -0.211918
  21 H :    0.039192
  22 C :   -0.034614
  23 H :    0.048833
  24 H :    0.027586
  25 C :   -0.042887
  26 H :    0.026076
  27 H :    0.023112
  28 C :   -0.053512
  29 H :    0.020673
  30 H :    0.014842
  31 H :    0.035154
  32 H :    0.016891
  33 H :    0.039427

  Mayer bond orders larger than 0.100000
B(  0-S ,  1-C ) :   1.1283 B(  0-S ,  4-C ) :   1.1559 B(  1-C ,  2-C ) :   1.6119
B(  1-C , 32-H ) :   0.9850 B(  2-C ,  3-C ) :   1.2356 B(  2-C ,  6-C ) :   1.0098
B(  3-C ,  4-C ) :   1.5786 B(  3-C ,  5-H ) :   0.9951 B(  4-C , 20-C ) :   1.0406
B(  6-C ,  7-H ) :   0.9450 B(  6-C ,  8-H ) :   0.9440 B(  6-C ,  9-C ) :   1.0565
B(  9-C , 10-H ) :   0.9565 B(  9-C , 11-H ) :   0.9558 B(  9-C , 12-C ) :   1.0697
B( 12-C , 13-H ) :   0.9744 B( 12-C , 14-H ) :   0.9775 B( 12-C , 15-H ) :   0.9730
B( 16-S , 17-C ) :   1.1498 B( 16-S , 20-C ) :   1.1420 B( 17-C , 18-C ) :   1.6580
B( 17-C , 33-H ) :   0.9574 B( 18-C , 19-C ) :   1.2013 B( 18-C , 21-H ) :   0.9804
B( 19-C , 20-C ) :   1.6181 B( 19-C , 22-C ) :   1.0010 B( 22-C , 23-H ) :   0.9438
B( 22-C , 24-H ) :   0.9391 B( 22-C , 25-C ) :   1.0597 B( 25-C , 26-H ) :   0.9598
B( 25-C , 27-H ) :   0.9561 B( 25-C , 28-C ) :   1.0849 B( 28-C , 29-H ) :   0.9718
B( 28-C , 30-H ) :   0.9785 B( 28-C , 31-H ) :   0.9769

Dispersion correction           -0.013076252
FINAL SINGLE POINT ENERGY     -1339.851247105663

DIPOLE MOMENT
-------------
                                X             Y             Z
Electronic contribution:     15.57400      -0.61261     -25.28565
Nuclear contribution   :    -15.94412       0.37652      25.92366
                        -----------------------------------------
Total Dipole Moment    :     -0.37012      -0.23609       0.63802
                        -----------------------------------------
Magnitude (a.u.)       :      0.77446
Magnitude (Debye)      :      1.96852

Rotational constants in cm-1:     0.015978     0.007753     0.005995
Rotational constants in MHz :   478.994653   232.423577   179.723783

                             ****ORCA TERMINATED NORMALLY****
TOTAL RUN TIME: 0 days 0 hours 0 minutes 27 seconds 956 msec
