                         Program Version 4.2.1 -  RELEASE  -
|  1> ! wB97X-D3 SP def2-SVP
|  2> %pal
|  3> nprocs 16
|  4> end
|  5>
|  6> * xyz 0 1
|  7> S 	 -48.0666 	 15.7628 	 80.5237
|  8> C 	 -46.5019 	 16.0154 	 81.4021
|  9> C 	 -45.4319 	 15.5265 	 80.6812
| 10> C 	 -45.8203 	 15.1535 	 79.3474
| 11> C 	 -47.174 	 15.4532 	 79.0185
| 12> H 	 -45.1246 	 14.7434 	 78.6097
| 13> C 	 -43.9701 	 15.3889 	 81.1399
| 14> H 	 -43.6417 	 14.5123 	 80.5855
| 15> H 	 -43.9276 	 15.0483 	 82.1784
| 16> C 	 -43.0083 	 16.5951 	 80.9901
| 17> H 	 -43.0503 	 17.0866 	 80.0257
| 18> H 	 -43.2962 	 17.2568 	 81.8054
| 19> C 	 -41.5907 	 16.1322 	 81.2846
| 20> H 	 -40.9931 	 17.0045 	 81.506
| 21> H 	 -41.607 	 15.4347 	 82.1069
| 22> H 	 -41.1342 	 15.6705 	 80.4317
| 23> S 	 -49.4266 	 14.3362 	 77.8302
| 24> C 	 -49.6917 	 14.46 	 76.1149
| 25> C 	 -48.5191 	 14.9695 	 75.5033
| 26> C 	 -47.4771 	 15.2819 	 76.4101
| 27> C 	 -47.8641 	 15.087 	 77.7424
| 28> H 	 -48.653 	 15.0694 	 74.3834
| 29> C 	 -46.0655 	 15.7679 	 75.9676
| 30> H 	 -45.3799 	 14.9666 	 75.6132
| 31> H 	 -45.7153 	 16.211 	 76.8883
| 32> C 	 -46.0734 	 16.9076 	 74.8803
| 33> H 	 -46.5587 	 17.7777 	 75.2301
| 34> H 	 -46.5155 	 16.479 	 73.9836
| 35> C 	 -44.6529 	 17.2736 	 74.385
| 36> H 	 -44.6505 	 18.232 	 73.9545
| 37> H 	 -44.374 	 16.4619 	 73.6787
| 38> H 	 -43.9401 	 17.3355 	 75.1888
| 39> H 	 -46.4103 	 16.3189 	 82.4463
| 40> H 	 -50.6062 	 14.1718 	 75.6549
| 41> *
| 42>
| 43>                          ****END OF INPUT****

CARTESIAN COORDINATES (ANGSTROEM)
---------------------------------
  S    -48.066600   15.762800   80.523700
  C    -46.501900   16.015400   81.402100
  C    -45.431900   15.526500   80.681200
  C    -45.820300   15.153500   79.347400
  C    -47.174000   15.453200   79.018500
  H    -45.124600   14.743400   78.609700
  C    -43.970100   15.388900   81.139900
  H    -43.641700   14.512300   80.585500
  H    -43.927600   15.048300   82.178400
  C    -43.008300   16.595100   80.990100
  H    -43.050300   17.086600   80.025700
  H    -43.296200   17.256800   81.805400
  C    -41.590700   16.132200   81.284600
  H    -40.993100   17.004500   81.506000
  H    -41.607000   15.434700   82.106900
  H    -41.134200   15.670500   80.431700
  S    -49.426600   14.336200   77.830200
  C    -49.691700   14.460000   76.114900
  C    -48.519100   14.969500   75.503300
  C    -47.477100   15.281900   76.410100
  C    -47.864100   15.087000   77.742400
  H    -48.653000   15.069400   74.383400
  C    -46.065500   15.767900   75.967600
  H    -45.379900   14.966600   75.613200
  H    -45.715300   16.211000   76.888300
  C    -46.073400   16.907600   74.880300
  H    -46.558700   17.777700   75.230100
  H    -46.515500   16.479000   73.983600
  C    -44.652900   17.273600   74.385000
  H    -44.650500   18.232000   73.954500
  H    -44.374000   16.461900   73.678700
  H    -43.940100   17.335500   75.188800
  H    -46.410300   16.318900   82.446300
  H    -50.606200   14.171800   75.654900

 Total Charge           Charge          ....    0
 Multiplicity           Mult            ....    1
 Number of Electrons    NEL             ....  134
 Basis Dimension        Dim             ....  322

ORBITAL ENERGIES
----------------

  NO   OCC          E(Eh)            E(eV)
   0   2.0000     -88.969674     -2420.9879
   1   2.0000     -88.965527     -2420.8751
   2   2.0000     -10.340614      -281.3824
   3   2.0000     -10.331491      -281.1342
   4   2.0000     -10.320248      -280.8282
   5   2.0000     -10.316904      -280.7372
   6   2.0000     -10.307733      -280.4877
   7   2.0000     -10.305185      -280.4183
   8   2.0000     -10.301406      -280.3155
   9   2.0000     -10.301178      -280.3093
  10   2.0000     -10.296479      -280.1814
  11   2.0000     -10.296280      -280.1760
  12   2.0000     -10.288689      -279.9695
  13   2.0000     -10.282396      -279.7982
  14   2.0000     -10.275117      -279.6001
  15   2.0000     -10.273982      -279.5693
  16   2.0000      -8.082776      -219.9435
  17   2.0000      -8.080650      -219.8857
  18   2.0000      -6.041524      -164.3982
  19   2.0000      -6.039033      -164.3304
  20   2.0000      -6.037760      -164.2958
  21   2.0000      -6.034987      -164.2203
  22   2.0000      -6.033127      -164.1697
  23   2.0000      -6.031645      -164.1294
  24   2.0000      -1.001006       -27.2388
  25   2.0000      -0.976987       -26.5852
  26   2.0000      -0.912186       -24.8218
  27   2.0000      -0.902150       -24.5487
  28   2.0000      -0.866610       -23.5816
  29   2.0000      -0.852062       -23.1858
  30   2.0000      -0.841477       -22.8977
  31   2.0000      -0.807962       -21.9858
  32   2.0000      -0.780624       -21.2419
  33   2.0000      -0.772087       -21.0096
  34   2.0000      -0.704450       -19.1691
  35   2.0000      -0.699911       -19.0456
  36   2.0000      -0.696977       -18.9657
  37   2.0000      -0.652257       -17.7488
  38   2.0000      -0.633627       -17.2419
  39   2.0000      -0.619323       -16.8526
  40   2.0000      -0.591219       -16.0879
  41   2.0000      -0.577327       -15.7099
  42   2.0000      -0.569297       -15.4914
  43   2.0000      -0.562822       -15.3152
  44   2.0000      -0.529071       -14.3967
  45   2.0000      -0.524194       -14.2640
  46   2.0000      -0.516777       -14.0622
  47   2.0000      -0.510060       -13.8794
  48   2.0000      -0.501668       -13.6511
  49   2.0000      -0.495417       -13.4810
  50   2.0000      -0.485543       -13.2123
  51   2.0000      -0.481569       -13.1042
  52   2.0000      -0.470586       -12.8053
  53   2.0000      -0.462336       -12.5808
  54   2.0000      -0.461732       -12.5644
  55   2.0000      -0.448258       -12.1977
  56   2.0000      -0.441675       -12.0186
  57   2.0000      -0.438212       -11.9244
  58   2.0000      -0.436521       -11.8783
  59   2.0000      -0.425097       -11.5675
  60   2.0000      -0.422166       -11.4877
  61   2.0000      -0.415760       -11.3134
  62   2.0000      -0.413725       -11.2580
  63   2.0000      -0.348889        -9.4938
  64   2.0000      -0.332035        -9.0351
  65   2.0000      -0.330038        -8.9808
  66   2.0000      -0.285243        -7.7619
  67   0.0000       0.017460         0.4751
  68   0.0000       0.070593         1.9209
  69   0.0000       0.097547         2.6544
  70   0.0000       0.121355         3.3022
  71   0.0000       0.132765         3.6127

MULLIKEN ATOMIC CHARGES
-----------------------
   0 S :    0.093655
   1 C :   -0.123627
   2 C :   -0.072108
   3 C :    0.003660
   4 C :   -0.126692
   5 H :    0.028617
   6 C :    0.026275
   7 H :    0.020111
   8 H :    0.023856
   9 C :   -0.039966
  10 H :    0.035718
  11 H :    0.029284
  12 C :   -0.033146
  13 H :    0.031971
  14 H :    0.025336
  15 H :    0.029399
  16 S :    0.102583
  17 C :   -0.115352
  18 C :   -0.061726
  19 C :   -0.023651
  20 C :   -0.151376
  21 H :    0.047211
  22 C :    0.050412
  23 H :    0.048713
  24 H :    0.024534
  25 C :   -0.090062
  26 H :    0.031816
  27 H :    0.030948
  28 C :   -0.032047
  29 H :    0.027805
  30 H :    0.036355
  31 H :    0.018852
  32 H :    0.050059
  33 H :    0.052581
Sum of atomic charges:    0.0000000

LOEWDIN ATOMIC CHARGES
----------------------
   0 S :    0.371591
   1 C :   -0.178911
   2 C :   -0.064101
   3 C :   -0.061336
   4 C :   -0.182087
   5 H :    0.031764
   6 C :   -0.034314
   7 H :    0.028580
   8 H :    0.030186
   9 C :   -0.032738
  10 H :    0.024932
  11 H :    0.026158
  12 C :   -0.058399
  13 H :    0.026717
  14 H :    0.022503
  15 H :    0.022430
  16 S :    0.416358
  17 C :   -0.191545
  18 C :   -0.078568
  19 C :   -0.063299
  20 C :   -0.201923
  21 H :    0.044351
  22 C :   -0.030078
  23 H :    0.034982
  24 H :    0.026683
  25 C :   -0.033090
  26 H :    0.018744
  27 H :    0.021781
  28 C :   -0.060431
  29 H :    0.021104
  30 H :    0.029802
  31 H :    0.018471
  32 H :    0.030638
  33 H :    0.023044

  Mayer bond orders larger than 0.100000
B(  0-S ,  1-C ) :   1.1190 B(  0-S ,  4-C ) :   1.1431 B(  1-C ,  2-C ) :   1.6211
B(  1-C , 32-H ) :   0.9678 B(  2-C ,  3-C ) :   1.2510 B(  2-C ,  6-C ) :   1.0131
B(  3-C ,  4-C ) :   1.5379 B(  3-C ,  5-H ) :   0.9842 B(  4-C , 20-C ) :   1.0550
B(  6-C ,  7-H ) :   0.9462 B(  6-C ,  8-H ) :   0.9371 B(  6-C ,  9-C ) :   1.0621
B(  9-C , 10-H ) :   0.9592 B(  9-C , 11-H ) :   0.9542 B(  9-C , 12-C ) :   1.0825
B( 12-C , 13-H ) :   0.9728 B( 12-C , 14-H ) :   0.9730 B( 12-C , 15-H ) :   0.9766
B( 16-S , 17-C ) :   1.1680 B( 16-S , 20-C ) :   1.1612 B( 17-C , 18-C ) :   1.5742
B( 17-C , 20-C ) :   0.1039 B( 17-C , 33-H ) :   0.9753 B( 18-C , 19-C ) :   1.2591
B( 18-C , 21-H ) :   0.9853 B( 19-C , 20-C ) :   1.5655 B( 19-C , 22-C ) :   1.0219
B( 22-C , 23-H ) :   0.9449 B( 22-C , 24-H ) :   0.9258 B( 22-C , 25-C ) :   1.0705
B( 25-C , 26-H ) :   0.9626 B( 25-C , 27-H ) :   0.9596 B( 25-C , 28-C ) :   1.0791
B( 28-C , 29-H ) :   0.9748 B( 28-C , 30-H ) :   0.9798 B( 28-C , 31-H ) :   0.9756

Dispersion correction           -0.013053927
FINAL SINGLE POINT ENERGY     -1339.867977365945

DIPOLE MOMENT
-------------
                                X             Y             Z
Electronic contribution:    -30.69739      -8.86686       7.04291
Nuclear contribution   :     31.38294       8.91991      -7.21840
                        -----------------------------------------
Total Dipole Moment    :      0.68554       0.05305      -0.17549
                        -----------------------------------------
Magnitude (a.u.)       :      0.70964
Magnitude (Debye)      :      1.80375

Rotational constants in cm-1:     0.016281     0.008589     0.005948
Rotational constants in MHz :   488.101698   257.482769   178.316831

                             ****ORCA TERMINATED NORMALLY****
TOTAL RUN TIME: 0 days 0 hours 0 minutes 28 seconds 898 msec
