                         Program Version 4.2.1 -  RELEASE  -
|  1> ! wB97X-D3 SP def2-SVP
|  2> %pal
|  3> nprocs 16
|  4> end
|  5>
|  6> * xyz 0 1
|  7> S 	 50.1129 	 8.49383 	 96.3807
|  8> C 	 51.0849 	 9.81815 	 95.8105
|  9> C 	 50.8333 	 9.99788 	 94.4484
| 10> C 	 49.9369 	 9.04657 	 93.8976
| 11> C 	 49.456 	 8.19314 	 94.8711
| 12> H 	 49.6223 	 9.02165 	 92.8734
| 13> C 	 51.575 	 10.929 	 93.536
| 14> H 	 51.6789 	 10.5292 	 92.4959
| 15> H 	 52.5983 	 11.0724 	 93.8907
| 16> C 	 50.9651 	 12.3004 	 93.5252
| 17> H 	 49.8883 	 12.3015 	 93.3641
| 18> H 	 51.118 	 12.7758 	 94.4724
| 19> C 	 51.6067 	 13.249 	 92.618
| 20> H 	 51.5616 	 13.1561 	 91.4937
| 21> H 	 51.1854 	 14.2771 	 92.7948
| 22> H 	 52.6462 	 13.3029 	 92.8829
| 23> S 	 48.8995 	 5.87209 	 93.6568
| 24> C 	 47.3859 	 5.01605 	 94.0837
| 25> C 	 46.6237 	 5.80091 	 94.9604
| 26> C 	 47.2497 	 6.95106 	 95.4747
| 27> C 	 48.4215 	 7.20806 	 94.7206
| 28> H 	 45.6632 	 5.40735 	 95.2314
| 29> C 	 46.526 	 7.63395 	 96.6463
| 30> H 	 45.4963 	 7.78004 	 96.3132
| 31> H 	 47.0169 	 8.60029 	 96.7751
| 32> C 	 46.512 	 6.77536 	 97.9566
| 33> H 	 45.8637 	 5.87213 	 97.9105
| 34> H 	 45.9924 	 7.40831 	 98.6904
| 35> C 	 47.8861 	 6.45814 	 98.5984
| 36> H 	 48.2876 	 5.5769 	 98.1193
| 37> H 	 47.7293 	 6.17039 	 99.5659
| 38> H 	 48.6226 	 7.2404 	 98.7123
| 39> H 	 51.6399 	 10.4759 	 96.4568
| 40> H 	 46.9981 	 4.16306 	 93.5639
| 41> *
| 42>
| 43>                          ****END OF INPUT****

CARTESIAN COORDINATES (ANGSTROEM)
---------------------------------
  S     50.112900    8.493830   96.380700
  C     51.084900    9.818150   95.810500
  C     50.833300    9.997880   94.448400
  C     49.936900    9.046570   93.897600
  C     49.456000    8.193140   94.871100
  H     49.622300    9.021650   92.873400
  C     51.575000   10.929000   93.536000
  H     51.678900   10.529200   92.495900
  H     52.598300   11.072400   93.890700
  C     50.965100   12.300400   93.525200
  H     49.888300   12.301500   93.364100
  H     51.118000   12.775800   94.472400
  C     51.606700   13.249000   92.618000
  H     51.561600   13.156100   91.493700
  H     51.185400   14.277100   92.794800
  H     52.646200   13.302900   92.882900
  S     48.899500    5.872090   93.656800
  C     47.385900    5.016050   94.083700
  C     46.623700    5.800910   94.960400
  C     47.249700    6.951060   95.474700
  C     48.421500    7.208060   94.720600
  H     45.663200    5.407350   95.231400
  C     46.526000    7.633950   96.646300
  H     45.496300    7.780040   96.313200
  H     47.016900    8.600290   96.775100
  C     46.512000    6.775360   97.956600
  H     45.863700    5.872130   97.910500
  H     45.992400    7.408310   98.690400
  C     47.886100    6.458140   98.598400
  H     48.287600    5.576900   98.119300
  H     47.729300    6.170390   99.565900
  H     48.622600    7.240400   98.712300
  H     51.639900   10.475900   96.456800
  H     46.998100    4.163060   93.563900

 Total Charge           Charge          ....    0
 Multiplicity           Mult            ....    1
 Number of Electrons    NEL             ....  134
 Basis Dimension        Dim             ....  322

ORBITAL ENERGIES
----------------

  NO   OCC          E(Eh)            E(eV)
   0   2.0000     -88.966082     -2420.8902
   1   2.0000     -88.965809     -2420.8827
   2   2.0000     -10.328295      -281.0472
   3   2.0000     -10.318613      -280.7837
   4   2.0000     -10.316601      -280.7290
   5   2.0000     -10.310509      -280.5632
   6   2.0000     -10.305344      -280.4227
   7   2.0000     -10.298446      -280.2350
   8   2.0000     -10.298079      -280.2250
   9   2.0000     -10.294311      -280.1224
  10   2.0000     -10.289988      -280.0048
  11   2.0000     -10.287988      -279.9504
  12   2.0000     -10.286937      -279.9218
  13   2.0000     -10.275654      -279.6148
  14   2.0000     -10.274712      -279.5891
  15   2.0000     -10.264937      -279.3231
  16   2.0000      -8.081624      -219.9122
  17   2.0000      -8.079592      -219.8569
  18   2.0000      -6.039891      -164.3538
  19   2.0000      -6.038189      -164.3075
  20   2.0000      -6.035764      -164.2415
  21   2.0000      -6.034292      -164.2014
  22   2.0000      -6.032782      -164.1603
  23   2.0000      -6.030320      -164.0933
  24   2.0000      -1.012241       -27.5445
  25   2.0000      -0.979630       -26.6571
  26   2.0000      -0.923042       -25.1172
  27   2.0000      -0.902072       -24.5466
  28   2.0000      -0.871150       -23.7052
  29   2.0000      -0.854760       -23.2592
  30   2.0000      -0.845504       -23.0073
  31   2.0000      -0.809264       -22.0212
  32   2.0000      -0.787516       -21.4294
  33   2.0000      -0.770259       -20.9598
  34   2.0000      -0.707200       -19.2439
  35   2.0000      -0.694706       -18.9039
  36   2.0000      -0.690656       -18.7937
  37   2.0000      -0.663695       -18.0601
  38   2.0000      -0.643340       -17.5062
  39   2.0000      -0.619708       -16.8631
  40   2.0000      -0.590779       -16.0759
  41   2.0000      -0.570088       -15.5129
  42   2.0000      -0.562065       -15.2946
  43   2.0000      -0.549321       -14.9478
  44   2.0000      -0.540172       -14.6988
  45   2.0000      -0.527107       -14.3433
  46   2.0000      -0.520873       -14.1737
  47   2.0000      -0.519881       -14.1467
  48   2.0000      -0.504874       -13.7383
  49   2.0000      -0.497417       -13.5354
  50   2.0000      -0.493201       -13.4207
  51   2.0000      -0.476675       -12.9710
  52   2.0000      -0.465568       -12.6687
  53   2.0000      -0.461062       -12.5461
  54   2.0000      -0.456200       -12.4138
  55   2.0000      -0.450444       -12.2572
  56   2.0000      -0.439382       -11.9562
  57   2.0000      -0.435938       -11.8625
  58   2.0000      -0.434080       -11.8119
  59   2.0000      -0.429977       -11.7003
  60   2.0000      -0.418074       -11.3764
  61   2.0000      -0.411623       -11.2008
  62   2.0000      -0.409439       -11.1414
  63   2.0000      -0.338544        -9.2122
  64   2.0000      -0.333607        -9.0779
  65   2.0000      -0.324879        -8.8404
  66   2.0000      -0.291736        -7.9386
  67   0.0000       0.031540         0.8583
  68   0.0000       0.071318         1.9406
  69   0.0000       0.106617         2.9012
  70   0.0000       0.114278         3.1097
  71   0.0000       0.128498         3.4966

MULLIKEN ATOMIC CHARGES
-----------------------
   0 S :    0.126370
   1 C :   -0.121913
   2 C :   -0.068331
   3 C :    0.021325
   4 C :   -0.130364
   5 H :    0.006951
   6 C :    0.051844
   7 H :    0.033971
   8 H :    0.017486
   9 C :   -0.057290
  10 H :    0.026273
  11 H :    0.015628
  12 C :   -0.056109
  13 H :    0.036587
  14 H :    0.031121
  15 H :    0.014349
  16 S :    0.103674
  17 C :   -0.093017
  18 C :   -0.042825
  19 C :   -0.025374
  20 C :   -0.181807
  21 H :    0.011641
  22 C :    0.091120
  23 H :    0.035562
  24 H :    0.026260
  25 C :   -0.104342
  26 H :    0.037386
  27 H :    0.029318
  28 C :   -0.002937
  29 H :    0.035865
  30 H :    0.001666
  31 H :    0.031778
  32 H :    0.044580
  33 H :    0.053551
Sum of atomic charges:   -0.0000000

LOEWDIN ATOMIC CHARGES
----------------------
   0 S :    0.465179
   1 C :   -0.211692
   2 C :   -0.055763
   3 C :   -0.066625
   4 C :   -0.225300
   5 H :    0.030569
   6 C :   -0.033317
   7 H :    0.034590
   8 H :    0.030310
   9 C :   -0.047783
  10 H :    0.023362
  11 H :    0.025779
  12 C :   -0.072292
  13 H :    0.025511
  14 H :    0.031565
  15 H :    0.019175
  16 S :    0.389428
  17 C :   -0.178341
  18 C :   -0.063743
  19 C :   -0.058696
  20 C :   -0.192147
  21 H :    0.026261
  22 C :   -0.025816
  23 H :    0.036140
  24 H :    0.027323
  25 C :   -0.038998
  26 H :    0.028525
  27 H :    0.025508
  28 C :   -0.063571
  29 H :    0.028599
  30 H :    0.015843
  31 H :    0.021264
  32 H :    0.025122
  33 H :    0.024033

  Mayer bond orders larger than 0.100000
B(  0-S ,  1-C ) :   1.1434 B(  0-S ,  4-C ) :   1.1980 B(  1-C ,  2-C ) :   1.5719
B(  1-C , 32-H ) :   0.9747 B(  2-C ,  3-C ) :   1.2784 B(  2-C ,  6-C ) :   1.0256
B(  3-C ,  4-C ) :   1.5111 B(  3-C ,  5-H ) :   1.0045 B(  4-C , 20-C ) :   1.0147
B(  6-C ,  7-H ) :   0.9517 B(  6-C ,  8-H ) :   0.9335 B(  6-C ,  9-C ) :   1.0682
B(  9-C , 10-H ) :   0.9542 B(  9-C , 11-H ) :   0.9470 B(  9-C , 12-C ) :   1.0945
B( 12-C , 13-H ) :   0.9731 B( 12-C , 14-H ) :   0.9708 B( 12-C , 15-H ) :   0.9663
B( 16-S , 17-C ) :   1.1349 B( 16-S , 20-C ) :   1.1574 B( 17-C , 18-C ) :   1.6235
B( 17-C , 20-C ) :   0.1129 B( 17-C , 33-H ) :   0.9668 B( 18-C , 19-C ) :   1.2250
B( 18-C , 21-H ) :   0.9873 B( 19-C , 20-C ) :   1.5709 B( 19-C , 22-C ) :   1.0358
B( 22-C , 23-H ) :   0.9354 B( 22-C , 24-H ) :   0.9343 B( 22-C , 25-C ) :   1.0715
B( 25-C , 26-H ) :   0.9544 B( 25-C , 27-H ) :   0.9585 B( 25-C , 28-C ) :   1.0726
B( 28-C , 29-H ) :   0.9740 B( 28-C , 30-H ) :   0.9665 B( 28-C , 31-H ) :   0.9728

Dispersion correction           -0.014533517
FINAL SINGLE POINT ENERGY     -1339.871047980256

DIPOLE MOMENT
-------------
                                X             Y             Z
Electronic contribution:      0.58867     -15.74136      -3.67862
Nuclear contribution   :     -0.86077      16.00635       3.87212
                        -----------------------------------------
Total Dipole Moment    :     -0.27210       0.26499       0.19350
                        -----------------------------------------
Magnitude (a.u.)       :      0.42627
Magnitude (Debye)      :      1.08348

Rotational constants in cm-1:     0.024025     0.007519     0.006478
Rotational constants in MHz :   720.263854   225.403840   194.208848

                             ****ORCA TERMINATED NORMALLY****
TOTAL RUN TIME: 0 days 0 hours 0 minutes 28 seconds 259 msec
