                         Program Version 4.2.1 -  RELEASE  -
|  1> ! wB97X-D3 SP def2-SVP
|  2> %pal
|  3> nprocs 16
|  4> end
|  5>
|  6> * xyz 0 1
|  7> S 	 -30.8506 	 64.4007 	 100.276
|  8> C 	 -31.07 	 66.1152 	 100.527
|  9> C 	 -30.0508 	 66.9578 	 100.164
| 10> C 	 -29.0727 	 66.1476 	 99.5142
| 11> C 	 -29.28 	 64.7841 	 99.5267
| 12> H 	 -28.1065 	 66.5592 	 99.14
| 13> C 	 -29.9747 	 68.4012 	 100.475
| 14> H 	 -30.6933 	 68.785 	 101.178
| 15> H 	 -30.2375 	 68.9218 	 99.5681
| 16> C 	 -28.6527 	 68.9839 	 101.107
| 17> H 	 -27.7939 	 68.635 	 100.503
| 18> H 	 -28.7429 	 70.077 	 101.185
| 19> C 	 -28.3386 	 68.4376 	 102.481
| 20> H 	 -27.5404 	 68.9459 	 102.879
| 21> H 	 -29.1055 	 68.7535 	 103.17
| 22> H 	 -28.228 	 67.3479 	 102.393
| 23> S 	 -29.1202 	 62.473 	 98.0853
| 24> C 	 -27.6178 	 61.648 	 97.9013
| 25> C 	 -26.4981 	 62.4343 	 98.2795
| 26> C 	 -26.9679 	 63.6515 	 98.8785
| 27> C 	 -28.3496 	 63.7344 	 99.018
| 28> H 	 -25.416 	 62.0624 	 98.2675
| 29> C 	 -25.8983 	 64.6069 	 99.412
| 30> H 	 -26.469 	 65.4933 	 99.7487
| 31> H 	 -25.2424 	 64.8936 	 98.5319
| 32> C 	 -25.0752 	 63.9993 	 100.585
| 33> H 	 -24.1162 	 64.4968 	 100.624
| 34> H 	 -24.6196 	 62.9887 	 100.503
| 35> C 	 -25.8469 	 64.1096 	 101.903
| 36> H 	 -26.6677 	 63.4228 	 102.057
| 37> H 	 -26.2363 	 65.1407 	 101.969
| 38> H 	 -25.1107 	 64.0432 	 102.673
| 39> H 	 -31.9125 	 66.5646 	 101.03
| 40> H 	 -27.4434 	 60.6611 	 97.5845
| 41> *
| 42>
| 43>                          ****END OF INPUT****

CARTESIAN COORDINATES (ANGSTROEM)
---------------------------------
  S    -30.850600   64.400700  100.276000
  C    -31.070000   66.115200  100.527000
  C    -30.050800   66.957800  100.164000
  C    -29.072700   66.147600   99.514200
  C    -29.280000   64.784100   99.526700
  H    -28.106500   66.559200   99.140000
  C    -29.974700   68.401200  100.475000
  H    -30.693300   68.785000  101.178000
  H    -30.237500   68.921800   99.568100
  C    -28.652700   68.983900  101.107000
  H    -27.793900   68.635000  100.503000
  H    -28.742900   70.077000  101.185000
  C    -28.338600   68.437600  102.481000
  H    -27.540400   68.945900  102.879000
  H    -29.105500   68.753500  103.170000
  H    -28.228000   67.347900  102.393000
  S    -29.120200   62.473000   98.085300
  C    -27.617800   61.648000   97.901300
  C    -26.498100   62.434300   98.279500
  C    -26.967900   63.651500   98.878500
  C    -28.349600   63.734400   99.018000
  H    -25.416000   62.062400   98.267500
  C    -25.898300   64.606900   99.412000
  H    -26.469000   65.493300   99.748700
  H    -25.242400   64.893600   98.531900
  C    -25.075200   63.999300  100.585000
  H    -24.116200   64.496800  100.624000
  H    -24.619600   62.988700  100.503000
  C    -25.846900   64.109600  101.903000
  H    -26.667700   63.422800  102.057000
  H    -26.236300   65.140700  101.969000
  H    -25.110700   64.043200  102.673000
  H    -31.912500   66.564600  101.030000
  H    -27.443400   60.661100   97.584500

 Total Charge           Charge          ....    0
 Multiplicity           Mult            ....    1
 Number of Electrons    NEL             ....  134
 Basis Dimension        Dim             ....  322

ORBITAL ENERGIES
----------------

  NO   OCC          E(Eh)            E(eV)
   0   2.0000     -88.971582     -2421.0398
   1   2.0000     -88.966066     -2420.8897
   2   2.0000     -10.334514      -281.2164
   3   2.0000     -10.328177      -281.0440
   4   2.0000     -10.314345      -280.6676
   5   2.0000     -10.310915      -280.5743
   6   2.0000     -10.303548      -280.3738
   7   2.0000     -10.300722      -280.2969
   8   2.0000     -10.300243      -280.2839
   9   2.0000     -10.299519      -280.2641
  10   2.0000     -10.297798      -280.2173
  11   2.0000     -10.292683      -280.0781
  12   2.0000     -10.292474      -280.0725
  13   2.0000     -10.288453      -279.9630
  14   2.0000     -10.272185      -279.5204
  15   2.0000     -10.268889      -279.4307
  16   2.0000      -8.085644      -220.0216
  17   2.0000      -8.081137      -219.8989
  18   2.0000      -6.044145      -164.4696
  19   2.0000      -6.040483      -164.3699
  20   2.0000      -6.039640      -164.3470
  21   2.0000      -6.036221      -164.2539
  22   2.0000      -6.035644      -164.2382
  23   2.0000      -6.031848      -164.1349
  24   2.0000      -1.004997       -27.3473
  25   2.0000      -0.984709       -26.7953
  26   2.0000      -0.914862       -24.8947
  27   2.0000      -0.905736       -24.6463
  28   2.0000      -0.867564       -23.6076
  29   2.0000      -0.852279       -23.1917
  30   2.0000      -0.846161       -23.0252
  31   2.0000      -0.813596       -22.1391
  32   2.0000      -0.784842       -21.3566
  33   2.0000      -0.771417       -20.9913
  34   2.0000      -0.708373       -19.2758
  35   2.0000      -0.698309       -19.0020
  36   2.0000      -0.690059       -18.7775
  37   2.0000      -0.657553       -17.8929
  38   2.0000      -0.639135       -17.3918
  39   2.0000      -0.622900       -16.9500
  40   2.0000      -0.590184       -16.0597
  41   2.0000      -0.574052       -15.6208
  42   2.0000      -0.559032       -15.2120
  43   2.0000      -0.553750       -15.0683
  44   2.0000      -0.546448       -14.8696
  45   2.0000      -0.529728       -14.4146
  46   2.0000      -0.515280       -14.0215
  47   2.0000      -0.502971       -13.6865
  48   2.0000      -0.500589       -13.6217
  49   2.0000      -0.497706       -13.5433
  50   2.0000      -0.489046       -13.3076
  51   2.0000      -0.480739       -13.0816
  52   2.0000      -0.469780       -12.7834
  53   2.0000      -0.461313       -12.5530
  54   2.0000      -0.454869       -12.3776
  55   2.0000      -0.451835       -12.2951
  56   2.0000      -0.447180       -12.1684
  57   2.0000      -0.440885       -11.9971
  58   2.0000      -0.437383       -11.9018
  59   2.0000      -0.432919       -11.7803
  60   2.0000      -0.423913       -11.5353
  61   2.0000      -0.407379       -11.0853
  62   2.0000      -0.403878       -10.9901
  63   2.0000      -0.348484        -9.4827
  64   2.0000      -0.333453        -9.0737
  65   2.0000      -0.327907        -8.9228
  66   2.0000      -0.287191        -7.8149
  67   0.0000       0.026442         0.7195
  68   0.0000       0.076452         2.0804
  69   0.0000       0.100536         2.7357
  70   0.0000       0.108562         2.9541
  71   0.0000       0.129052         3.5117

MULLIKEN ATOMIC CHARGES
-----------------------
   0 S :    0.122916
   1 C :   -0.105429
   2 C :   -0.086664
   3 C :   -0.010029
   4 C :   -0.142978
   5 H :    0.028398
   6 C :    0.090232
   7 H :    0.008452
   8 H :    0.038539
   9 C :   -0.119935
  10 H :    0.031605
  11 H :    0.037676
  12 C :   -0.012461
  13 H :    0.013369
  14 H :    0.010977
  15 H :    0.058294
  16 S :    0.108766
  17 C :   -0.069935
  18 C :   -0.067941
  19 C :   -0.064283
  20 C :   -0.132616
  21 H :    0.052718
  22 C :    0.047449
  23 H :    0.008092
  24 H :    0.048246
  25 C :   -0.078366
  26 H :    0.015017
  27 H :    0.026886
  28 C :   -0.025939
  29 H :    0.053044
  30 H :    0.024276
  31 H :    0.020673
  32 H :    0.032854
  33 H :    0.038098
Sum of atomic charges:   -0.0000000

LOEWDIN ATOMIC CHARGES
----------------------
   0 S :    0.394234
   1 C :   -0.188095
   2 C :   -0.067979
   3 C :   -0.066400
   4 C :   -0.187849
   5 H :    0.032712
   6 C :   -0.033948
   7 H :    0.029031
   8 H :    0.035990
   9 C :   -0.036852
  10 H :    0.021339
  11 H :    0.027730
  12 C :   -0.059586
  13 H :    0.016577
  14 H :    0.021848
  15 H :    0.032541
  16 S :    0.417163
  17 C :   -0.187736
  18 C :   -0.075177
  19 C :   -0.060494
  20 C :   -0.204633
  21 H :    0.046564
  22 C :   -0.033797
  23 H :    0.025389
  24 H :    0.040052
  25 C :   -0.048698
  26 H :    0.022037
  27 H :    0.027133
  28 C :   -0.058651
  29 H :    0.028650
  30 H :    0.026166
  31 H :    0.022722
  32 H :    0.023292
  33 H :    0.018724

  Mayer bond orders larger than 0.100000
B(  0-S ,  1-C ) :   1.1345 B(  0-S ,  4-C ) :   1.1321 B(  1-C ,  2-C ) :   1.6435
B(  1-C , 32-H ) :   0.9553 B(  2-C ,  3-C ) :   1.2279 B(  2-C ,  6-C ) :   1.0281
B(  3-C ,  4-C ) :   1.6038 B(  3-C ,  5-H ) :   0.9745 B(  4-C , 20-C ) :   1.0243
B(  6-C ,  7-H ) :   0.9406 B(  6-C ,  8-H ) :   0.9269 B(  6-C ,  9-C ) :   1.0641
B(  9-C , 10-H ) :   0.9584 B(  9-C , 11-H ) :   0.9560 B(  9-C , 12-C ) :   1.0837
B( 12-C , 13-H ) :   0.9690 B( 12-C , 14-H ) :   0.9673 B( 12-C , 15-H ) :   0.9737
B( 16-S , 17-C ) :   1.1668 B( 16-S , 20-C ) :   1.1358 B( 17-C , 18-C ) :   1.5996
B( 17-C , 20-C ) :   0.1003 B( 17-C , 33-H ) :   0.9719 B( 18-C , 19-C ) :   1.2432
B( 18-C , 21-H ) :   0.9764 B( 19-C , 20-C ) :   1.6039 B( 19-C , 22-C ) :   1.0376
B( 22-C , 23-H ) :   0.9388 B( 22-C , 24-H ) :   0.9348 B( 22-C , 25-C ) :   1.0648
B( 25-C , 26-H ) :   0.9520 B( 25-C , 27-H ) :   0.9549 B( 25-C , 28-C ) :   1.0705
B( 28-C , 29-H ) :   0.9788 B( 28-C , 30-H ) :   0.9745 B( 28-C , 31-H ) :   0.9704

Dispersion correction           -0.015203731
FINAL SINGLE POINT ENERGY     -1339.861867538905

DIPOLE MOMENT
-------------
                                X             Y             Z
Electronic contribution:    -17.65611     -18.57962     -14.79804
Nuclear contribution   :     18.21132      19.07559      15.08177
                        -----------------------------------------
Total Dipole Moment    :      0.55521       0.49597       0.28372
                        -----------------------------------------
Magnitude (a.u.)       :      0.79671
Magnitude (Debye)      :      2.02506

Rotational constants in cm-1:     0.018735     0.009921     0.007317
Rotational constants in MHz :   561.674412   297.419718   219.363763

                             ****ORCA TERMINATED NORMALLY****
TOTAL RUN TIME: 0 days 0 hours 0 minutes 31 seconds 675 msec
