                         Program Version 4.2.1 -  RELEASE  -
|  1> ! wB97X-D3 SP def2-SVP
|  2> %pal
|  3> nprocs 16
|  4> end
|  5>
|  6> * xyz 0 1
|  7> S 	 10.3359 	 33.2156 	 58.2437
|  8> C 	 11.6731 	 32.1331 	 58.4118
|  9> C 	 12.7123 	 32.7272 	 59.0843
| 10> C 	 12.3087 	 33.9733 	 59.6782
| 11> C 	 11.0029 	 34.3817 	 59.2964
| 12> H 	 12.8624 	 34.4974 	 60.4035
| 13> C 	 14.0852 	 32.1261 	 59.2326
| 14> H 	 14.8289 	 32.9113 	 59.4341
| 15> H 	 14.3037 	 31.6477 	 58.3223
| 16> C 	 14.3036 	 31.1992 	 60.3949
| 17> H 	 14.1041 	 31.7268 	 61.3432
| 18> H 	 13.6125 	 30.3415 	 60.3713
| 19> C 	 15.6905 	 30.4691 	 60.2646
| 20> H 	 15.9856 	 29.9684 	 61.17
| 21> H 	 15.6447 	 29.6473 	 59.5161
| 22> H 	 16.4226 	 31.2122 	 60.0255
| 23> S 	 9.12372 	 35.7338 	 60.7125
| 24> C 	 9.13111 	 37.4589 	 60.7784
| 25> C 	 10.0986 	 37.9524 	 59.9372
| 26> C 	 10.8415 	 36.943 	 59.213
| 27> C 	 10.3921 	 35.6708 	 59.55
| 28> H 	 10.3141 	 38.9994 	 59.8213
| 29> C 	 11.9474 	 37.1807 	 58.2189
| 30> H 	 11.9377 	 36.4386 	 57.4946
| 31> H 	 12.8875 	 37.1756 	 58.682
| 32> C 	 11.7914 	 38.4334 	 57.3215
| 33> H 	 12.7258 	 38.6573 	 56.8312
| 34> H 	 11.5711 	 39.2589 	 57.9852
| 35> C 	 10.7097 	 38.3724 	 56.1799
| 36> H 	 10.9139 	 37.4141 	 55.5533
| 37> H 	 10.975 	 39.1913 	 55.4301
| 38> H 	 9.60875 	 38.4257 	 56.3025
| 39> H 	 11.8568 	 31.1909 	 57.9442
| 40> H 	 8.35684 	 38.103 	 61.1978
| 41> *
| 42>
| 43>                          ****END OF INPUT****

CARTESIAN COORDINATES (ANGSTROEM)
---------------------------------
  S     10.335900   33.215600   58.243700
  C     11.673100   32.133100   58.411800
  C     12.712300   32.727200   59.084300
  C     12.308700   33.973300   59.678200
  C     11.002900   34.381700   59.296400
  H     12.862400   34.497400   60.403500
  C     14.085200   32.126100   59.232600
  H     14.828900   32.911300   59.434100
  H     14.303700   31.647700   58.322300
  C     14.303600   31.199200   60.394900
  H     14.104100   31.726800   61.343200
  H     13.612500   30.341500   60.371300
  C     15.690500   30.469100   60.264600
  H     15.985600   29.968400   61.170000
  H     15.644700   29.647300   59.516100
  H     16.422600   31.212200   60.025500
  S      9.123720   35.733800   60.712500
  C      9.131110   37.458900   60.778400
  C     10.098600   37.952400   59.937200
  C     10.841500   36.943000   59.213000
  C     10.392100   35.670800   59.550000
  H     10.314100   38.999400   59.821300
  C     11.947400   37.180700   58.218900
  H     11.937700   36.438600   57.494600
  H     12.887500   37.175600   58.682000
  C     11.791400   38.433400   57.321500
  H     12.725800   38.657300   56.831200
  H     11.571100   39.258900   57.985200
  C     10.709700   38.372400   56.179900
  H     10.913900   37.414100   55.553300
  H     10.975000   39.191300   55.430100
  H      9.608750   38.425700   56.302500
  H     11.856800   31.190900   57.944200
  H      8.356840   38.103000   61.197800

 Total Charge           Charge          ....    0
 Multiplicity           Mult            ....    1
 Number of Electrons    NEL             ....  134
 Basis Dimension        Dim             ....  322

ORBITAL ENERGIES
----------------

  NO   OCC          E(Eh)            E(eV)
   0   2.0000     -88.967693     -2420.9340
   1   2.0000     -88.962342     -2420.7884
   2   2.0000     -10.325997      -280.9847
   3   2.0000     -10.320605      -280.8379
   4   2.0000     -10.315705      -280.7046
   5   2.0000     -10.308150      -280.4990
   6   2.0000     -10.302698      -280.3507
   7   2.0000     -10.297503      -280.2093
   8   2.0000     -10.293040      -280.0879
   9   2.0000     -10.292980      -280.0862
  10   2.0000     -10.291924      -280.0575
  11   2.0000     -10.289895      -280.0023
  12   2.0000     -10.287900      -279.9480
  13   2.0000     -10.287326      -279.9324
  14   2.0000     -10.280634      -279.7503
  15   2.0000     -10.280067      -279.7348
  16   2.0000      -8.083062      -219.9513
  17   2.0000      -8.078095      -219.8161
  18   2.0000      -6.041444      -164.3961
  19   2.0000      -6.037280      -164.2827
  20   2.0000      -6.036537      -164.2625
  21   2.0000      -6.034120      -164.1967
  22   2.0000      -6.032259      -164.1461
  23   2.0000      -6.029074      -164.0594
  24   2.0000      -1.010738       -27.5036
  25   2.0000      -0.988519       -26.8990
  26   2.0000      -0.917020       -24.9534
  27   2.0000      -0.907753       -24.7012
  28   2.0000      -0.871285       -23.7089
  29   2.0000      -0.847372       -23.0582
  30   2.0000      -0.841129       -22.8883
  31   2.0000      -0.812964       -22.1219
  32   2.0000      -0.784073       -21.3357
  33   2.0000      -0.773959       -21.0605
  34   2.0000      -0.706751       -19.2317
  35   2.0000      -0.699436       -19.0326
  36   2.0000      -0.697422       -18.9778
  37   2.0000      -0.653943       -17.7947
  38   2.0000      -0.642499       -17.4833
  39   2.0000      -0.619879       -16.8678
  40   2.0000      -0.602613       -16.3979
  41   2.0000      -0.580815       -15.8048
  42   2.0000      -0.563034       -15.3209
  43   2.0000      -0.557398       -15.1676
  44   2.0000      -0.538567       -14.6552
  45   2.0000      -0.524199       -14.2642
  46   2.0000      -0.514017       -13.9871
  47   2.0000      -0.509042       -13.8517
  48   2.0000      -0.505581       -13.7575
  49   2.0000      -0.501767       -13.6538
  50   2.0000      -0.491255       -13.3677
  51   2.0000      -0.478398       -13.0179
  52   2.0000      -0.469828       -12.7847
  53   2.0000      -0.462516       -12.5857
  54   2.0000      -0.459210       -12.4957
  55   2.0000      -0.448160       -12.1951
  56   2.0000      -0.441541       -12.0150
  57   2.0000      -0.438768       -11.9395
  58   2.0000      -0.438517       -11.9326
  59   2.0000      -0.430710       -11.7202
  60   2.0000      -0.419180       -11.4065
  61   2.0000      -0.411080       -11.1861
  62   2.0000      -0.409575       -11.1451
  63   2.0000      -0.335338        -9.1250
  64   2.0000      -0.329189        -8.9577
  65   2.0000      -0.322002        -8.7621
  66   2.0000      -0.307254        -8.3608
  67   0.0000       0.038920         1.0591
  68   0.0000       0.064567         1.7569
  69   0.0000       0.115299         3.1375
  70   0.0000       0.129657         3.5282
  71   0.0000       0.135818         3.6958

MULLIKEN ATOMIC CHARGES
-----------------------
   0 S :    0.134511
   1 C :   -0.092692
   2 C :   -0.111501
   3 C :    0.059888
   4 C :   -0.172029
   5 H :   -0.005348
   6 C :    0.081619
   7 H :    0.022562
   8 H :    0.010424
   9 C :   -0.084171
  10 H :    0.034915
  11 H :    0.021782
  12 C :   -0.043769
  13 H :    0.031248
  14 H :    0.038537
  15 H :    0.025207
  16 S :    0.117958
  17 C :   -0.087020
  18 C :   -0.046688
  19 C :   -0.043047
  20 C :   -0.181407
  21 H :    0.014083
  22 C :    0.155684
  23 H :    0.004373
  24 H :    0.024091
  25 C :   -0.071535
  26 H :    0.027495
  27 H :    0.020931
  28 C :   -0.118044
  29 H :    0.035802
  30 H :    0.039586
  31 H :    0.058678
  32 H :    0.031216
  33 H :    0.066660
Sum of atomic charges:    0.0000000

LOEWDIN ATOMIC CHARGES
----------------------
   0 S :    0.444844
   1 C :   -0.206015
   2 C :   -0.061171
   3 C :   -0.052131
   4 C :   -0.219691
   5 H :    0.021305
   6 C :   -0.032110
   7 H :    0.034397
   8 H :    0.023855
   9 C :   -0.040606
  10 H :    0.025561
  11 H :    0.021151
  12 C :   -0.061882
  13 H :    0.024378
  14 H :    0.030235
  15 H :    0.017972
  16 S :    0.432412
  17 C :   -0.198797
  18 C :   -0.072097
  19 C :   -0.047911
  20 C :   -0.219014
  21 H :    0.026473
  22 C :   -0.022313
  23 H :    0.023206
  24 H :    0.028617
  25 C :   -0.034473
  26 H :    0.027269
  27 H :    0.016205
  28 C :   -0.086613
  29 H :    0.031742
  30 H :    0.033251
  31 H :    0.029351
  32 H :    0.025766
  33 H :    0.036833

  Mayer bond orders larger than 0.100000
B(  0-S ,  1-C ) :   1.1507 B(  0-S ,  4-C ) :   1.1852 B(  1-C ,  2-C ) :   1.5951
B(  1-C , 32-H ) :   0.9686 B(  2-C ,  3-C ) :   1.2674 B(  2-C ,  6-C ) :   1.0306
B(  3-C ,  4-C ) :   1.5309 B(  3-C ,  5-H ) :   1.0070 B(  4-C , 20-C ) :   1.0032
B(  6-C ,  7-H ) :   0.9346 B(  6-C ,  8-H ) :   0.9368 B(  6-C ,  9-C ) :   1.0719
B(  9-C , 10-H ) :   0.9579 B(  9-C , 11-H ) :   0.9579 B(  9-C , 12-C ) :   1.0659
B( 12-C , 13-H ) :   0.9750 B( 12-C , 14-H ) :   0.9779 B( 12-C , 15-H ) :   0.9766
B( 16-S , 17-C ) :   1.1666 B( 16-S , 20-C ) :   1.1664 B( 17-C , 18-C ) :   1.5905
B( 17-C , 33-H ) :   0.9637 B( 18-C , 19-C ) :   1.2596 B( 18-C , 21-H ) :   0.9884
B( 19-C , 20-C ) :   1.5850 B( 19-C , 22-C ) :   1.0373 B( 22-C , 23-H ) :   0.9307
B( 22-C , 24-H ) :   0.9215 B( 22-C , 25-C ) :   1.0757 B( 25-C , 26-H ) :   0.9531
B( 25-C , 27-H ) :   0.9561 B( 25-C , 28-C ) :   1.0643 B( 28-C , 29-H ) :   0.9712
B( 28-C , 30-H ) :   0.9763 B( 28-C , 31-H ) :   0.9788

Dispersion correction           -0.013894019
FINAL SINGLE POINT ENERGY     -1339.874037215050

DIPOLE MOMENT
-------------
                                X             Y             Z
Electronic contribution:    -21.56492      -0.14288       6.85519
Nuclear contribution   :     22.21206       0.30508      -6.97977
                        -----------------------------------------
Total Dipole Moment    :      0.64714       0.16219      -0.12458
                        -----------------------------------------
Magnitude (a.u.)       :      0.67868
Magnitude (Debye)      :      1.72508

Rotational constants in cm-1:     0.021286     0.007118     0.006456
Rotational constants in MHz :   638.129873   213.395848   193.542462

                             ****ORCA TERMINATED NORMALLY****
TOTAL RUN TIME: 0 days 0 hours 0 minutes 34 seconds 511 msec
