                         Program Version 4.2.1 -  RELEASE  -
|  1> ! wB97X-D3 SP def2-SVP
|  2> %pal
|  3> nprocs 16
|  4> end
|  5>
|  6> * xyz 0 1
|  7> S 	 37.7374 	 29.8522 	 54.5943
|  8> C 	 37.162 	 31.502 	 54.5023
|  9> C 	 36.2439 	 31.7968 	 55.518
| 10> C 	 36.0448 	 30.6415 	 56.3514
| 11> C 	 36.8669 	 29.6242 	 56.1017
| 12> H 	 35.3033 	 30.6773 	 57.1338
| 13> C 	 35.7366 	 33.1689 	 55.8724
| 14> H 	 36.5339 	 33.8743 	 55.5697
| 15> H 	 35.4271 	 33.1895 	 56.939
| 16> C 	 34.4693 	 33.6321 	 55.1375
| 17> H 	 34.1541 	 34.6166 	 55.4504
| 18> H 	 34.7806 	 33.6376 	 54.0208
| 19> C 	 33.2961 	 32.7069 	 55.3982
| 20> H 	 33.5258 	 31.6925 	 55.179
| 21> H 	 32.9371 	 32.898 	 56.4127
| 22> H 	 32.4805 	 33.0379 	 54.7697
| 23> S 	 36.7987 	 26.9801 	 55.9424
| 24> C 	 37.1868 	 26.0214 	 57.3616
| 25> C 	 37.37 	 26.7151 	 58.5057
| 26> C 	 37.4134 	 28.1201 	 58.2297
| 27> C 	 36.9716 	 28.3914 	 56.9074
| 28> H 	 37.703 	 26.1982 	 59.3807
| 29> C 	 37.7744 	 29.1126 	 59.3459
| 30> H 	 37.9928 	 30.041 	 58.7694
| 31> H 	 38.6895 	 28.7169 	 59.8188
| 32> C 	 36.7292 	 29.2193 	 60.4735
| 33> H 	 36.5547 	 28.1856 	 60.8986
| 34> H 	 35.7854 	 29.3553 	 59.9166
| 35> C 	 37.0495 	 30.2188 	 61.5383
| 36> H 	 37.1746 	 31.2281 	 61.1095
| 37> H 	 38.0026 	 29.982 	 62.0255
| 38> H 	 36.243 	 30.2345 	 62.2806
| 39> H 	 37.4007 	 32.1591 	 53.643
| 40> H 	 37.3104 	 24.8707 	 57.4671
| 41> *
| 42>
| 43>                          ****END OF INPUT****

CARTESIAN COORDINATES (ANGSTROEM)
---------------------------------
  S     37.737400   29.852200   54.594300
  C     37.162000   31.502000   54.502300
  C     36.243900   31.796800   55.518000
  C     36.044800   30.641500   56.351400
  C     36.866900   29.624200   56.101700
  H     35.303300   30.677300   57.133800
  C     35.736600   33.168900   55.872400
  H     36.533900   33.874300   55.569700
  H     35.427100   33.189500   56.939000
  C     34.469300   33.632100   55.137500
  H     34.154100   34.616600   55.450400
  H     34.780600   33.637600   54.020800
  C     33.296100   32.706900   55.398200
  H     33.525800   31.692500   55.179000
  H     32.937100   32.898000   56.412700
  H     32.480500   33.037900   54.769700
  S     36.798700   26.980100   55.942400
  C     37.186800   26.021400   57.361600
  C     37.370000   26.715100   58.505700
  C     37.413400   28.120100   58.229700
  C     36.971600   28.391400   56.907400
  H     37.703000   26.198200   59.380700
  C     37.774400   29.112600   59.345900
  H     37.992800   30.041000   58.769400
  H     38.689500   28.716900   59.818800
  C     36.729200   29.219300   60.473500
  H     36.554700   28.185600   60.898600
  H     35.785400   29.355300   59.916600
  C     37.049500   30.218800   61.538300
  H     37.174600   31.228100   61.109500
  H     38.002600   29.982000   62.025500
  H     36.243000   30.234500   62.280600
  H     37.400700   32.159100   53.643000
  H     37.310400   24.870700   57.467100

 Total Charge           Charge          ....    0
 Multiplicity           Mult            ....    1
 Number of Electrons    NEL             ....  134
 Basis Dimension        Dim             ....  322

ORBITAL ENERGIES
----------------

  NO   OCC          E(Eh)            E(eV)
   0   2.0000     -88.967906     -2420.9398
   1   2.0000     -88.966046     -2420.8892
   2   2.0000     -10.325861      -280.9810
   3   2.0000     -10.324611      -280.9469
   4   2.0000     -10.318223      -280.7731
   5   2.0000     -10.318023      -280.7677
   6   2.0000     -10.307663      -280.4858
   7   2.0000     -10.301422      -280.3159
   8   2.0000     -10.294658      -280.1319
   9   2.0000     -10.294006      -280.1141
  10   2.0000     -10.289863      -280.0014
  11   2.0000     -10.288920      -279.9757
  12   2.0000     -10.288519      -279.9648
  13   2.0000     -10.287605      -279.9400
  14   2.0000     -10.281812      -279.7823
  15   2.0000     -10.271406      -279.4992
  16   2.0000      -8.083059      -219.9512
  17   2.0000      -8.080844      -219.8909
  18   2.0000      -6.041557      -164.3991
  19   2.0000      -6.039400      -164.3404
  20   2.0000      -6.037614      -164.2918
  21   2.0000      -6.035458      -164.2332
  22   2.0000      -6.033692      -164.1851
  23   2.0000      -6.031429      -164.1235
  24   2.0000      -1.009683       -27.4749
  25   2.0000      -0.985967       -26.8295
  26   2.0000      -0.915034       -24.8994
  27   2.0000      -0.908453       -24.7203
  28   2.0000      -0.870907       -23.6986
  29   2.0000      -0.852308       -23.1925
  30   2.0000      -0.847129       -23.0515
  31   2.0000      -0.818545       -22.2737
  32   2.0000      -0.782054       -21.2808
  33   2.0000      -0.766466       -20.8566
  34   2.0000      -0.700410       -19.0591
  35   2.0000      -0.695189       -18.9170
  36   2.0000      -0.687161       -18.6986
  37   2.0000      -0.657326       -17.8867
  38   2.0000      -0.637548       -17.3486
  39   2.0000      -0.619312       -16.8523
  40   2.0000      -0.586750       -15.9663
  41   2.0000      -0.578099       -15.7309
  42   2.0000      -0.561331       -15.2746
  43   2.0000      -0.552332       -15.0297
  44   2.0000      -0.543889       -14.8000
  45   2.0000      -0.525261       -14.2931
  46   2.0000      -0.517758       -14.0889
  47   2.0000      -0.506244       -13.7756
  48   2.0000      -0.503151       -13.6914
  49   2.0000      -0.495758       -13.4903
  50   2.0000      -0.491614       -13.3775
  51   2.0000      -0.479399       -13.0451
  52   2.0000      -0.466775       -12.7016
  53   2.0000      -0.464661       -12.6441
  54   2.0000      -0.462183       -12.5766
  55   2.0000      -0.452511       -12.3134
  56   2.0000      -0.446163       -12.1407
  57   2.0000      -0.436592       -11.8803
  58   2.0000      -0.429333       -11.6828
  59   2.0000      -0.425481       -11.5779
  60   2.0000      -0.422588       -11.4992
  61   2.0000      -0.412717       -11.2306
  62   2.0000      -0.410114       -11.1598
  63   2.0000      -0.346466        -9.4278
  64   2.0000      -0.332753        -9.0547
  65   2.0000      -0.324921        -8.8415
  66   2.0000      -0.294299        -8.0083
  67   0.0000       0.035737         0.9725
  68   0.0000       0.067134         1.8268
  69   0.0000       0.104593         2.8461
  70   0.0000       0.117452         3.1960
  71   0.0000       0.124649         3.3919

MULLIKEN ATOMIC CHARGES
-----------------------
   0 S :    0.113809
   1 C :   -0.140367
   2 C :   -0.102130
   3 C :    0.034009
   4 C :   -0.131311
   5 H :    0.007419
   6 C :    0.061033
   7 H :    0.041782
   8 H :    0.026660
   9 C :   -0.097745
  10 H :    0.028369
  11 H :    0.032259
  12 C :   -0.039749
  13 H :    0.043877
  14 H :    0.024608
  15 H :    0.029223
  16 S :    0.113008
  17 C :   -0.107758
  18 C :   -0.029832
  19 C :   -0.055346
  20 C :   -0.171717
  21 H :    0.017888
  22 C :    0.057117
  23 H :    0.041101
  24 H :    0.022846
  25 C :   -0.103159
  26 H :    0.028157
  27 H :    0.025243
  28 C :   -0.008490
  29 H :    0.032943
  30 H :    0.029932
  31 H :    0.040539
  32 H :    0.062392
  33 H :    0.073391
Sum of atomic charges:   -0.0000000

LOEWDIN ATOMIC CHARGES
----------------------
   0 S :    0.395973
   1 C :   -0.199448
   2 C :   -0.066112
   3 C :   -0.060677
   4 C :   -0.199990
   5 H :    0.029795
   6 C :   -0.036550
   7 H :    0.039031
   8 H :    0.032165
   9 C :   -0.042875
  10 H :    0.020055
  11 H :    0.026250
  12 C :   -0.064120
  13 H :    0.022068
  14 H :    0.025344
  15 H :    0.027659
  16 S :    0.417508
  17 C :   -0.194610
  18 C :   -0.077858
  19 C :   -0.047227
  20 C :   -0.210058
  21 H :    0.031678
  22 C :   -0.035240
  23 H :    0.034891
  24 H :    0.029693
  25 C :   -0.051557
  26 H :    0.027704
  27 H :    0.023698
  28 C :   -0.064691
  29 H :    0.029175
  30 H :    0.027775
  31 H :    0.030294
  32 H :    0.033050
  33 H :    0.047208

  Mayer bond orders larger than 0.100000
B(  0-S ,  1-C ) :   1.1371 B(  0-S ,  4-C ) :   1.1308 B(  1-C ,  2-C ) :   1.6177
B(  1-C , 32-H ) :   0.9611 B(  2-C ,  3-C ) :   1.2259 B(  2-C ,  6-C ) :   1.0185
B(  3-C ,  4-C ) :   1.6073 B(  3-C ,  5-H ) :   0.9985 B(  4-C , 20-C ) :   1.0142
B(  6-C ,  7-H ) :   0.9426 B(  6-C ,  8-H ) :   0.9421 B(  6-C ,  9-C ) :   1.0711
B(  9-C , 10-H ) :   0.9569 B(  9-C , 11-H ) :   0.9557 B(  9-C , 12-C ) :   1.0819
B( 12-C , 13-H ) :   0.9739 B( 12-C , 14-H ) :   0.9724 B( 12-C , 15-H ) :   0.9707
B( 16-S , 17-C ) :   1.1410 B( 16-S , 20-C ) :   1.1450 B( 17-C , 18-C ) :   1.6671
B( 17-C , 33-H ) :   0.9478 B( 18-C , 19-C ) :   1.2164 B( 18-C , 21-H ) :   0.9820
B( 19-C , 20-C ) :   1.5996 B( 19-C , 22-C ) :   1.0498 B( 22-C , 23-H ) :   0.9368
B( 22-C , 24-H ) :   0.9282 B( 22-C , 25-C ) :   1.0563 B( 25-C , 26-H ) :   0.9499
B( 25-C , 27-H ) :   0.9532 B( 25-C , 28-C ) :   1.0843 B( 28-C , 29-H ) :   0.9724
B( 28-C , 30-H ) :   0.9695 B( 28-C , 31-H ) :   0.9718

Dispersion correction           -0.014099718
FINAL SINGLE POINT ENERGY     -1339.873573251644

DIPOLE MOMENT
-------------
                                X             Y             Z
Electronic contribution:     10.50967     -18.56898     -17.31957
Nuclear contribution   :    -10.63548      18.91770      17.81329
                        -----------------------------------------
Total Dipole Moment    :     -0.12581       0.34872       0.49372
                        -----------------------------------------
Magnitude (a.u.)       :      0.61741
Magnitude (Debye)      :      1.56933

Rotational constants in cm-1:     0.016947     0.009046     0.006802
Rotational constants in MHz :   508.049063   271.185017   203.921554

                             ****ORCA TERMINATED NORMALLY****
TOTAL RUN TIME: 0 days 0 hours 0 minutes 34 seconds 462 msec
