                         Program Version 4.2.1 -  RELEASE  -
|  1> ! wB97X-D3 SP def2-SVP
|  2> %pal
|  3> nprocs 16
|  4> end
|  5>
|  6> * xyz 0 1
|  7> S 	 39.2349 	 30.765 	 92.9758
|  8> C 	 39.6712 	 30.6788 	 91.2442
|  9> C 	 38.6594 	 30.0637 	 90.505
| 10> C 	 37.6027 	 29.5215 	 91.3525
| 11> C 	 37.9045 	 29.6316 	 92.6807
| 12> H 	 36.7044 	 28.9703 	 91.1403
| 13> C 	 38.8037 	 29.7829 	 89.0411
| 14> H 	 38.0169 	 29.0917 	 88.7386
| 15> H 	 39.723 	 29.152 	 88.8196
| 16> C 	 38.7803 	 30.9348 	 88.0787
| 17> H 	 39.7218 	 31.5389 	 88.0187
| 18> H 	 38.7723 	 30.4445 	 87.1004
| 19> C 	 37.5334 	 31.8041 	 87.9404
| 20> H 	 37.3792 	 32.4728 	 88.7864
| 21> H 	 37.681 	 32.3368 	 87.0376
| 22> H 	 36.6348 	 31.1695 	 87.7023
| 23> S 	 35.3558 	 29.433 	 93.6902
| 24> C 	 35.1322 	 28.56 	 95.1627
| 25> C 	 36.3098 	 28.1108 	 95.6631
| 26> C 	 37.4931 	 28.3612 	 94.8415
| 27> C 	 37.1144 	 29.07 	 93.7438
| 28> H 	 36.3558 	 27.56 	 96.5612
| 29> C 	 38.9067 	 27.8988 	 95.1529
| 30> H 	 39.4191 	 28.7587 	 95.525
| 31> H 	 39.5102 	 27.6996 	 94.2185
| 32> C 	 39.0224 	 26.658 	 96.076
| 33> H 	 38.4522 	 25.8377 	 95.5378
| 34> H 	 38.4868 	 26.7116 	 97.018
| 35> C 	 40.4361 	 26.1442 	 96.3643
| 36> H 	 40.4808 	 25.1081 	 96.6857
| 37> H 	 40.885 	 26.7325 	 97.2215
| 38> H 	 41.1284 	 26.1685 	 95.5031
| 39> H 	 40.5323 	 30.9715 	 90.7196
| 40> H 	 34.2706 	 28.3677 	 95.6871
| 41> *
| 42>
| 43>                          ****END OF INPUT****

CARTESIAN COORDINATES (ANGSTROEM)
---------------------------------
  S     39.234900   30.765000   92.975800
  C     39.671200   30.678800   91.244200
  C     38.659400   30.063700   90.505000
  C     37.602700   29.521500   91.352500
  C     37.904500   29.631600   92.680700
  H     36.704400   28.970300   91.140300
  C     38.803700   29.782900   89.041100
  H     38.016900   29.091700   88.738600
  H     39.723000   29.152000   88.819600
  C     38.780300   30.934800   88.078700
  H     39.721800   31.538900   88.018700
  H     38.772300   30.444500   87.100400
  C     37.533400   31.804100   87.940400
  H     37.379200   32.472800   88.786400
  H     37.681000   32.336800   87.037600
  H     36.634800   31.169500   87.702300
  S     35.355800   29.433000   93.690200
  C     35.132200   28.560000   95.162700
  C     36.309800   28.110800   95.663100
  C     37.493100   28.361200   94.841500
  C     37.114400   29.070000   93.743800
  H     36.355800   27.560000   96.561200
  C     38.906700   27.898800   95.152900
  H     39.419100   28.758700   95.525000
  H     39.510200   27.699600   94.218500
  C     39.022400   26.658000   96.076000
  H     38.452200   25.837700   95.537800
  H     38.486800   26.711600   97.018000
  C     40.436100   26.144200   96.364300
  H     40.480800   25.108100   96.685700
  H     40.885000   26.732500   97.221500
  H     41.128400   26.168500   95.503100
  H     40.532300   30.971500   90.719600
  H     34.270600   28.367700   95.687100

 Total Charge           Charge          ....    0
 Multiplicity           Mult            ....    1
 Number of Electrons    NEL             ....  134
 Basis Dimension        Dim             ....  322

ORBITAL ENERGIES
----------------

  NO   OCC          E(Eh)            E(eV)
   0   2.0000     -88.967168     -2420.9197
   1   2.0000     -88.964580     -2420.8493
   2   2.0000     -10.324438      -280.9422
   3   2.0000     -10.321668      -280.8669
   4   2.0000     -10.311353      -280.5862
   5   2.0000     -10.308281      -280.5026
   6   2.0000     -10.304938      -280.4116
   7   2.0000     -10.303099      -280.3616
   8   2.0000     -10.297385      -280.2061
   9   2.0000     -10.293793      -280.1083
  10   2.0000     -10.293282      -280.0944
  11   2.0000     -10.292422      -280.0710
  12   2.0000     -10.288789      -279.9722
  13   2.0000     -10.285400      -279.8800
  14   2.0000     -10.284075      -279.8439
  15   2.0000     -10.275427      -279.6086
  16   2.0000      -8.080532      -219.8825
  17   2.0000      -8.079048      -219.8421
  18   2.0000      -6.039243      -164.3362
  19   2.0000      -6.037691      -164.2939
  20   2.0000      -6.035412      -164.2319
  21   2.0000      -6.033714      -164.1857
  22   2.0000      -6.030978      -164.1113
  23   2.0000      -6.029562      -164.0727
  24   2.0000      -1.004313       -27.3288
  25   2.0000      -0.978500       -26.6263
  26   2.0000      -0.913371       -24.8541
  27   2.0000      -0.905480       -24.6394
  28   2.0000      -0.871904       -23.7257
  29   2.0000      -0.850894       -23.1540
  30   2.0000      -0.844462       -22.9790
  31   2.0000      -0.815072       -22.1792
  32   2.0000      -0.785924       -21.3861
  33   2.0000      -0.774847       -21.0846
  34   2.0000      -0.706541       -19.2260
  35   2.0000      -0.704101       -19.1596
  36   2.0000      -0.695671       -18.9302
  37   2.0000      -0.657788       -17.8993
  38   2.0000      -0.634513       -17.2660
  39   2.0000      -0.606256       -16.4971
  40   2.0000      -0.599281       -16.3073
  41   2.0000      -0.574311       -15.6278
  42   2.0000      -0.561275       -15.2731
  43   2.0000      -0.549587       -14.9550
  44   2.0000      -0.543561       -14.7910
  45   2.0000      -0.524443       -14.2708
  46   2.0000      -0.517774       -14.0893
  47   2.0000      -0.510063       -13.8795
  48   2.0000      -0.508449       -13.8356
  49   2.0000      -0.495490       -13.4830
  50   2.0000      -0.486146       -13.2287
  51   2.0000      -0.475147       -12.9294
  52   2.0000      -0.469050       -12.7635
  53   2.0000      -0.466835       -12.7032
  54   2.0000      -0.461325       -12.5533
  55   2.0000      -0.457236       -12.4420
  56   2.0000      -0.444229       -12.0881
  57   2.0000      -0.433453       -11.7949
  58   2.0000      -0.430556       -11.7160
  59   2.0000      -0.424541       -11.5524
  60   2.0000      -0.418346       -11.3838
  61   2.0000      -0.412597       -11.2273
  62   2.0000      -0.406865       -11.0714
  63   2.0000      -0.342073        -9.3083
  64   2.0000      -0.330716        -8.9992
  65   2.0000      -0.326906        -8.8956
  66   2.0000      -0.294599        -8.0164
  67   0.0000       0.026896         0.7319
  68   0.0000       0.074622         2.0306
  69   0.0000       0.098220         2.6727
  70   0.0000       0.114311         3.1106
  71   0.0000       0.131439         3.5766

MULLIKEN ATOMIC CHARGES
-----------------------
   0 S :    0.111122
   1 C :   -0.087993
   2 C :   -0.065803
   3 C :    0.020491
   4 C :   -0.154598
   5 H :    0.012988
   6 C :    0.048736
   7 H :    0.010557
   8 H :    0.047758
   9 C :   -0.105074
  10 H :    0.032126
  11 H :    0.016833
  12 C :   -0.032595
  13 H :    0.050868
  14 H :    0.023060
  15 H :    0.028204
  16 S :    0.106833
  17 C :   -0.026094
  18 C :   -0.038330
  19 C :   -0.028725
  20 C :   -0.179804
  21 H :   -0.004280
  22 C :    0.090197
  23 H :    0.030034
  24 H :    0.044411
  25 C :   -0.119670
  26 H :    0.038132
  27 H :    0.036030
  28 C :   -0.051588
  29 H :    0.032111
  30 H :    0.040211
  31 H :    0.033276
  32 H :    0.022287
  33 H :    0.018286
Sum of atomic charges:   -0.0000000

LOEWDIN ATOMIC CHARGES
----------------------
   0 S :    0.378822
   1 C :   -0.180853
   2 C :   -0.057514
   3 C :   -0.061361
   4 C :   -0.182844
   5 H :    0.028866
   6 C :   -0.046075
   7 H :    0.029976
   8 H :    0.045262
   9 C :   -0.053287
  10 H :    0.024596
  11 H :    0.027767
  12 C :   -0.062950
  13 H :    0.025482
  14 H :    0.023647
  15 H :    0.030621
  16 S :    0.393166
  17 C :   -0.176580
  18 C :   -0.064068
  19 C :   -0.046999
  20 C :   -0.185577
  21 H :    0.020346
  22 C :   -0.035744
  23 H :    0.028672
  24 H :    0.043153
  25 C :   -0.050678
  26 H :    0.031675
  27 H :    0.022016
  28 C :   -0.071729
  29 H :    0.027139
  30 H :    0.031680
  31 H :    0.026551
  32 H :    0.019840
  33 H :    0.016983

  Mayer bond orders larger than 0.100000
B(  0-S ,  1-C ) :   1.1088 B(  0-S ,  4-C ) :   1.1186 B(  1-C ,  2-C ) :   1.6444
B(  1-C , 32-H ) :   0.9737 B(  2-C ,  3-C ) :   1.1814 B(  2-C ,  6-C ) :   1.0259
B(  3-C ,  4-C ) :   1.6074 B(  3-C ,  5-H ) :   0.9973 B(  4-C , 20-C ) :   1.0646
B(  6-C ,  7-H ) :   0.9365 B(  6-C ,  8-H ) :   0.9385 B(  6-C ,  9-C ) :   1.0875
B(  9-C , 10-H ) :   0.9544 B(  9-C , 11-H ) :   0.9503 B(  9-C , 12-C ) :   1.0802
B( 12-C , 13-H ) :   0.9753 B( 12-C , 14-H ) :   0.9721 B( 12-C , 15-H ) :   0.9716
B( 16-S , 17-C ) :   1.1286 B( 16-S , 20-C ) :   1.1143 B( 17-C , 18-C ) :   1.6539
B( 17-C , 33-H ) :   0.9711 B( 18-C , 19-C ) :   1.2022 B( 18-C , 21-H ) :   0.9892
B( 19-C , 20-C ) :   1.6377 B( 19-C , 22-C ) :   1.0351 B( 22-C , 23-H ) :   0.9225
B( 22-C , 24-H ) :   0.9319 B( 22-C , 25-C ) :   1.0546 B( 25-C , 26-H ) :   0.9601
B( 25-C , 27-H ) :   0.9520 B( 25-C , 28-C ) :   1.0864 B( 28-C , 29-H ) :   0.9732
B( 28-C , 30-H ) :   0.9749 B( 28-C , 31-H ) :   0.9744

Dispersion correction           -0.013706688
FINAL SINGLE POINT ENERGY     -1339.869121013052

DIPOLE MOMENT
-------------
                                X             Y             Z
Electronic contribution:    -10.61208       7.86770       8.37301
Nuclear contribution   :     10.81038      -8.31538      -8.52845
                        -----------------------------------------
Total Dipole Moment    :      0.19831      -0.44768      -0.15544
                        -----------------------------------------
Magnitude (a.u.)       :      0.51372
Magnitude (Debye)      :      1.30576

Rotational constants in cm-1:     0.021583     0.007425     0.006097
Rotational constants in MHz :   647.054745   222.588223   182.790882

                             ****ORCA TERMINATED NORMALLY****
TOTAL RUN TIME: 0 days 0 hours 0 minutes 27 seconds 239 msec
