                         Program Version 4.2.1 -  RELEASE  -
|  1> ! wB97X-D3 SP def2-SVP
|  2> %pal
|  3> nprocs 16
|  4> end
|  5>
|  6> * xyz 0 1
|  7> S 	 -53.4645 	 14.4077 	 90.6329
|  8> C 	 -52.4206 	 15.4606 	 91.488
|  9> C 	 -51.7953 	 16.3357 	 90.6143
| 10> C 	 -52.1281 	 16.1735 	 89.2434
| 11> C 	 -53.1002 	 15.2069 	 89.0836
| 12> H 	 -51.8178 	 16.8356 	 88.4254
| 13> C 	 -50.9411 	 17.4803 	 91.0202
| 14> H 	 -51.4223 	 17.8635 	 91.9602
| 15> H 	 -51.0005 	 18.234 	 90.2394
| 16> C 	 -49.5419 	 16.8838 	 91.1699
| 17> H 	 -49.4526 	 15.8889 	 91.6611
| 18> H 	 -49.2843 	 16.6166 	 90.1835
| 19> C 	 -48.4907 	 17.7455 	 91.7775
| 20> H 	 -48.4865 	 18.7271 	 91.3319
| 21> H 	 -48.5642 	 17.821 	 92.8868
| 22> H 	 -47.4298 	 17.3023 	 91.5643
| 23> S 	 -53.5252 	 12.8483 	 87.6526
| 24> C 	 -54.082 	 12.8751 	 86.0176
| 25> C 	 -54.2106 	 14.152 	 85.5923
| 26> C 	 -53.8501 	 15.1797 	 86.5988
| 27> C 	 -53.5381 	 14.6154 	 87.8202
| 28> H 	 -54.5474 	 14.3439 	 84.5638
| 29> C 	 -53.9389 	 16.6685 	 86.207
| 30> H 	 -53.5766 	 17.2607 	 86.9987
| 31> H 	 -55.0357 	 16.9356 	 86.0817
| 32> C 	 -53.1676 	 17.185 	 84.9859
| 33> H 	 -53.1607 	 18.2442 	 85.2581
| 34> H 	 -53.688 	 17.111 	 84.0255
| 35> C 	 -51.7306 	 16.8392 	 84.8876
| 36> H 	 -51.5686 	 15.8507 	 84.3583
| 37> H 	 -51.3811 	 16.7627 	 85.9127
| 38> H 	 -51.0669 	 17.4564 	 84.3049
| 39> H 	 -52.2679 	 15.3687 	 92.5589
| 40> H 	 -54.4082 	 11.9989 	 85.4843
| 41> *
| 42>
| 43>                          ****END OF INPUT****

CARTESIAN COORDINATES (ANGSTROEM)
---------------------------------
  S    -53.464500   14.407700   90.632900
  C    -52.420600   15.460600   91.488000
  C    -51.795300   16.335700   90.614300
  C    -52.128100   16.173500   89.243400
  C    -53.100200   15.206900   89.083600
  H    -51.817800   16.835600   88.425400
  C    -50.941100   17.480300   91.020200
  H    -51.422300   17.863500   91.960200
  H    -51.000500   18.234000   90.239400
  C    -49.541900   16.883800   91.169900
  H    -49.452600   15.888900   91.661100
  H    -49.284300   16.616600   90.183500
  C    -48.490700   17.745500   91.777500
  H    -48.486500   18.727100   91.331900
  H    -48.564200   17.821000   92.886800
  H    -47.429800   17.302300   91.564300
  S    -53.525200   12.848300   87.652600
  C    -54.082000   12.875100   86.017600
  C    -54.210600   14.152000   85.592300
  C    -53.850100   15.179700   86.598800
  C    -53.538100   14.615400   87.820200
  H    -54.547400   14.343900   84.563800
  C    -53.938900   16.668500   86.207000
  H    -53.576600   17.260700   86.998700
  H    -55.035700   16.935600   86.081700
  C    -53.167600   17.185000   84.985900
  H    -53.160700   18.244200   85.258100
  H    -53.688000   17.111000   84.025500
  C    -51.730600   16.839200   84.887600
  H    -51.568600   15.850700   84.358300
  H    -51.381100   16.762700   85.912700
  H    -51.066900   17.456400   84.304900
  H    -52.267900   15.368700   92.558900
  H    -54.408200   11.998900   85.484300

 Total Charge           Charge          ....    0
 Multiplicity           Mult            ....    1
 Number of Electrons    NEL             ....  134
 Basis Dimension        Dim             ....  322

ORBITAL ENERGIES
----------------

  NO   OCC          E(Eh)            E(eV)
   0   2.0000     -88.967261     -2420.9222
   1   2.0000     -88.958408     -2420.6814
   2   2.0000     -10.332472      -281.1609
   3   2.0000     -10.329035      -281.0673
   4   2.0000     -10.312931      -280.6291
   5   2.0000     -10.311766      -280.5974
   6   2.0000     -10.306811      -280.4626
   7   2.0000     -10.297356      -280.2053
   8   2.0000     -10.296847      -280.1915
   9   2.0000     -10.296815      -280.1906
  10   2.0000     -10.293816      -280.1090
  11   2.0000     -10.292390      -280.0702
  12   2.0000     -10.285609      -279.8856
  13   2.0000     -10.282036      -279.7884
  14   2.0000     -10.280713      -279.7524
  15   2.0000     -10.276932      -279.6495
  16   2.0000      -8.082135      -219.9261
  17   2.0000      -8.073586      -219.6934
  18   2.0000      -6.040562      -164.3720
  19   2.0000      -6.036530      -164.2623
  20   2.0000      -6.033068      -164.1681
  21   2.0000      -6.032307      -164.1474
  22   2.0000      -6.028024      -164.0309
  23   2.0000      -6.024079      -163.9235
  24   2.0000      -1.007056       -27.4034
  25   2.0000      -0.984940       -26.8016
  26   2.0000      -0.919238       -25.0138
  27   2.0000      -0.914557       -24.8864
  28   2.0000      -0.872466       -23.7410
  29   2.0000      -0.855636       -23.2830
  30   2.0000      -0.842876       -22.9358
  31   2.0000      -0.817524       -22.2459
  32   2.0000      -0.784673       -21.3520
  33   2.0000      -0.769836       -20.9483
  34   2.0000      -0.705982       -19.2108
  35   2.0000      -0.698875       -19.0174
  36   2.0000      -0.691222       -18.8091
  37   2.0000      -0.658175       -17.9098
  38   2.0000      -0.641005       -17.4426
  39   2.0000      -0.620966       -16.8973
  40   2.0000      -0.598575       -16.2880
  41   2.0000      -0.572911       -15.5897
  42   2.0000      -0.565039       -15.3755
  43   2.0000      -0.554627       -15.0922
  44   2.0000      -0.536546       -14.6002
  45   2.0000      -0.528947       -14.3934
  46   2.0000      -0.520670       -14.1681
  47   2.0000      -0.515010       -14.0141
  48   2.0000      -0.507396       -13.8069
  49   2.0000      -0.503010       -13.6876
  50   2.0000      -0.492484       -13.4012
  51   2.0000      -0.482246       -13.1226
  52   2.0000      -0.478098       -13.0097
  53   2.0000      -0.463910       -12.6236
  54   2.0000      -0.461271       -12.5518
  55   2.0000      -0.447897       -12.1879
  56   2.0000      -0.444084       -12.0841
  57   2.0000      -0.434662       -11.8278
  58   2.0000      -0.429878       -11.6976
  59   2.0000      -0.423835       -11.5331
  60   2.0000      -0.420678       -11.4472
  61   2.0000      -0.411069       -11.1857
  62   2.0000      -0.398438       -10.8420
  63   2.0000      -0.357062        -9.7161
  64   2.0000      -0.328376        -8.9356
  65   2.0000      -0.323678        -8.8077
  66   2.0000      -0.290328        -7.9002
  67   0.0000       0.027596         0.7509
  68   0.0000       0.078936         2.1480
  69   0.0000       0.109637         2.9834
  70   0.0000       0.118004         3.2111
  71   0.0000       0.128372         3.4932

MULLIKEN ATOMIC CHARGES
-----------------------
   0 S :    0.110535
   1 C :   -0.116465
   2 C :   -0.124072
   3 C :    0.027054
   4 C :   -0.150300
   5 H :    0.024509
   6 C :    0.082567
   7 H :    0.037068
   8 H :    0.022599
   9 C :   -0.076459
  10 H :    0.033703
  11 H :    0.003415
  12 C :   -0.036782
  13 H :    0.022885
  14 H :    0.040141
  15 H :    0.037963
  16 S :    0.086060
  17 C :   -0.084847
  18 C :   -0.034694
  19 C :   -0.057503
  20 C :   -0.124120
  21 H :    0.024640
  22 C :    0.063375
  23 H :   -0.004789
  24 H :    0.054195
  25 C :   -0.078347
  26 H :    0.027245
  27 H :    0.033060
  28 C :   -0.042219
  29 H :    0.035448
  30 H :    0.019447
  31 H :    0.032183
  32 H :    0.053290
  33 H :    0.059212
Sum of atomic charges:   -0.0000000

LOEWDIN ATOMIC CHARGES
----------------------
   0 S :    0.415521
   1 C :   -0.209971
   2 C :   -0.062259
   3 C :   -0.063513
   4 C :   -0.180850
   5 H :    0.033642
   6 C :   -0.028274
   7 H :    0.034810
   8 H :    0.028636
   9 C :   -0.049865
  10 H :    0.032299
  11 H :    0.020582
  12 C :   -0.073074
  13 H :    0.018868
  14 H :    0.026817
  15 H :    0.036250
  16 S :    0.389742
  17 C :   -0.188750
  18 C :   -0.074784
  19 C :   -0.061320
  20 C :   -0.190026
  21 H :    0.032938
  22 C :   -0.030780
  23 H :    0.017821
  24 H :    0.047326
  25 C :   -0.049500
  26 H :    0.032085
  27 H :    0.021325
  28 C :   -0.069781
  29 H :    0.032956
  30 H :    0.023954
  31 H :    0.024570
  32 H :    0.030767
  33 H :    0.031836

  Mayer bond orders larger than 0.100000
B(  0-S ,  1-C ) :   1.1457 B(  0-S ,  4-C ) :   1.1644 B(  1-C ,  2-C ) :   1.5845
B(  1-C , 32-H ) :   0.9707 B(  2-C ,  3-C ) :   1.2788 B(  2-C ,  6-C ) :   1.0164
B(  3-C ,  4-C ) :   1.5482 B(  3-C ,  5-H ) :   0.9773 B(  4-C , 20-C ) :   1.0418
B(  6-C ,  7-H ) :   0.9471 B(  6-C ,  8-H ) :   0.9391 B(  6-C ,  9-C ) :   1.0424
B(  9-C , 10-H ) :   0.9608 B(  9-C , 11-H ) :   0.9457 B(  9-C , 12-C ) :   1.0919
B( 12-C , 13-H ) :   0.9674 B( 12-C , 14-H ) :   0.9747 B( 12-C , 15-H ) :   0.9709
B( 16-S , 17-C ) :   1.1377 B( 16-S , 20-C ) :   1.1218 B( 17-C , 18-C ) :   1.6462
B( 17-C , 33-H ) :   0.9681 B( 18-C , 19-C ) :   1.1958 B( 18-C , 21-H ) :   0.9882
B( 19-C , 20-C ) :   1.6344 B( 19-C , 22-C ) :   1.0464 B( 22-C , 23-H ) :   0.9352
B( 22-C , 24-H ) :   0.9345 B( 22-C , 25-C ) :   1.0736 B( 25-C , 26-H ) :   0.9553
B( 25-C , 27-H ) :   0.9532 B( 25-C , 28-C ) :   1.0851 B( 28-C , 29-H ) :   0.9652
B( 28-C , 30-H ) :   0.9716 B( 28-C , 31-H ) :   0.9733

Dispersion correction           -0.014271868
FINAL SINGLE POINT ENERGY     -1339.873219471450

DIPOLE MOMENT
-------------
                                X             Y             Z
Electronic contribution:    -17.10710     -21.74411       5.06265
Nuclear contribution   :     17.33725      22.31279      -5.32072
                        -----------------------------------------
Total Dipole Moment    :      0.23015       0.56869      -0.25807
                        -----------------------------------------
Magnitude (a.u.)       :      0.66556
Magnitude (Debye)      :      1.69172

Rotational constants in cm-1:     0.019122     0.008511     0.006559
Rotational constants in MHz :   573.269242   255.157721   196.638566

                             ****ORCA TERMINATED NORMALLY****
TOTAL RUN TIME: 0 days 0 hours 0 minutes 30 seconds 41 msec
