                         Program Version 4.2.1 -  RELEASE  -
|  1> ! wB97X-D3 SP def2-SVP
|  2> %pal
|  3> nprocs 16
|  4> end
|  5>
|  6> * xyz 0 1
|  7> S 	 -13.4289 	 -11.3006 	 91.6525
|  8> C 	 -14.9804 	 -10.579 	 92.0461
|  9> C 	 -15.3241 	 -9.59046 	 91.1821
| 10> C 	 -14.3994 	 -9.44091 	 90.0836
| 11> C 	 -13.2941 	 -10.2966 	 90.1711
| 12> H 	 -14.4691 	 -8.76627 	 89.2671
| 13> C 	 -16.4847 	 -8.59081 	 91.2943
| 14> H 	 -17.2402 	 -9.26638 	 91.7961
| 15> H 	 -16.832 	 -8.19275 	 90.3656
| 16> C 	 -16.1665 	 -7.48255 	 92.2628
| 17> H 	 -15.9149 	 -7.87431 	 93.2313
| 18> H 	 -15.2807 	 -6.92663 	 91.8236
| 19> C 	 -17.2587 	 -6.41274 	 92.5214
| 20> H 	 -17.5751 	 -6.0528 	 91.5453
| 21> H 	 -18.129 	 -6.85526 	 93.0523
| 22> H 	 -16.8924 	 -5.63708 	 93.0842
| 23> S 	 -10.5781 	 -10.3436 	 89.934
| 24> C 	 -9.84397 	 -10.3997 	 88.4035
| 25> C 	 -10.7955 	 -10.2906 	 87.371
| 26> C 	 -12.1232 	 -10.312 	 87.8336
| 27> C 	 -12.1885 	 -10.3456 	 89.2329
| 28> H 	 -10.4308 	 -10.3129 	 86.3599
| 29> C 	 -13.2903 	 -10.4468 	 86.9544
| 30> H 	 -13.9826 	 -11.0559 	 87.4578
| 31> H 	 -12.9806 	 -10.9767 	 86.0785
| 32> C 	 -13.9711 	 -9.12195 	 86.5106
| 33> H 	 -13.197 	 -8.32913 	 86.226
| 34> H 	 -14.637 	 -8.72685 	 87.1777
| 35> C 	 -14.8586 	 -9.35143 	 85.2272
| 36> H 	 -14.3233 	 -9.68063 	 84.3055
| 37> H 	 -15.3262 	 -8.3579 	 85.0064
| 38> H 	 -15.6767 	 -10.0254 	 85.4505
| 39> H 	 -15.5516 	 -10.9323 	 92.9102
| 40> H 	 -8.82541 	 -10.6078 	 88.2393
| 41> *
| 42>
| 43>                          ****END OF INPUT****

CARTESIAN COORDINATES (ANGSTROEM)
---------------------------------
  S    -13.428900  -11.300600   91.652500
  C    -14.980400  -10.579000   92.046100
  C    -15.324100   -9.590460   91.182100
  C    -14.399400   -9.440910   90.083600
  C    -13.294100  -10.296600   90.171100
  H    -14.469100   -8.766270   89.267100
  C    -16.484700   -8.590810   91.294300
  H    -17.240200   -9.266380   91.796100
  H    -16.832000   -8.192750   90.365600
  C    -16.166500   -7.482550   92.262800
  H    -15.914900   -7.874310   93.231300
  H    -15.280700   -6.926630   91.823600
  C    -17.258700   -6.412740   92.521400
  H    -17.575100   -6.052800   91.545300
  H    -18.129000   -6.855260   93.052300
  H    -16.892400   -5.637080   93.084200
  S    -10.578100  -10.343600   89.934000
  C     -9.843970  -10.399700   88.403500
  C    -10.795500  -10.290600   87.371000
  C    -12.123200  -10.312000   87.833600
  C    -12.188500  -10.345600   89.232900
  H    -10.430800  -10.312900   86.359900
  C    -13.290300  -10.446800   86.954400
  H    -13.982600  -11.055900   87.457800
  H    -12.980600  -10.976700   86.078500
  C    -13.971100   -9.121950   86.510600
  H    -13.197000   -8.329130   86.226000
  H    -14.637000   -8.726850   87.177700
  C    -14.858600   -9.351430   85.227200
  H    -14.323300   -9.680630   84.305500
  H    -15.326200   -8.357900   85.006400
  H    -15.676700  -10.025400   85.450500
  H    -15.551600  -10.932300   92.910200
  H     -8.825410  -10.607800   88.239300

 Total Charge           Charge          ....    0
 Multiplicity           Mult            ....    1
 Number of Electrons    NEL             ....  134
 Basis Dimension        Dim             ....  322

ORBITAL ENERGIES
----------------

  NO   OCC          E(Eh)            E(eV)
   0   2.0000     -88.966930     -2420.9132
   1   2.0000     -88.964537     -2420.8481
   2   2.0000     -10.333523      -281.1895
   3   2.0000     -10.324298      -280.9384
   4   2.0000     -10.316528      -280.7270
   5   2.0000     -10.311374      -280.5867
   6   2.0000     -10.302788      -280.3531
   7   2.0000     -10.299677      -280.2685
   8   2.0000     -10.295259      -280.1482
   9   2.0000     -10.294323      -280.1228
  10   2.0000     -10.291641      -280.0498
  11   2.0000     -10.290418      -280.0165
  12   2.0000     -10.286003      -279.8964
  13   2.0000     -10.284454      -279.8542
  14   2.0000     -10.282582      -279.8033
  15   2.0000     -10.274253      -279.5766
  16   2.0000      -8.080891      -219.8922
  17   2.0000      -8.080184      -219.8730
  18   2.0000      -6.039532      -164.3440
  19   2.0000      -6.038497      -164.3159
  20   2.0000      -6.035547      -164.2356
  21   2.0000      -6.034459      -164.2060
  22   2.0000      -6.031521      -164.1260
  23   2.0000      -6.031209      -164.1175
  24   2.0000      -1.006158       -27.3790
  25   2.0000      -0.983513       -26.7628
  26   2.0000      -0.912375       -24.8270
  27   2.0000      -0.911873       -24.8133
  28   2.0000      -0.869142       -23.6506
  29   2.0000      -0.854384       -23.2490
  30   2.0000      -0.846175       -23.0256
  31   2.0000      -0.812476       -22.1086
  32   2.0000      -0.783966       -21.3328
  33   2.0000      -0.772448       -21.0194
  34   2.0000      -0.707070       -19.2404
  35   2.0000      -0.698805       -19.0155
  36   2.0000      -0.693213       -18.8633
  37   2.0000      -0.667676       -18.1684
  38   2.0000      -0.643037       -17.4979
  39   2.0000      -0.616780       -16.7834
  40   2.0000      -0.596884       -16.2421
  41   2.0000      -0.581271       -15.8172
  42   2.0000      -0.570168       -15.5151
  43   2.0000      -0.553959       -15.0740
  44   2.0000      -0.528056       -14.3691
  45   2.0000      -0.524750       -14.2792
  46   2.0000      -0.521252       -14.1840
  47   2.0000      -0.510579       -13.8935
  48   2.0000      -0.507921       -13.8212
  49   2.0000      -0.505030       -13.7426
  50   2.0000      -0.497570       -13.5396
  51   2.0000      -0.482127       -13.1193
  52   2.0000      -0.472777       -12.8649
  53   2.0000      -0.465666       -12.6714
  54   2.0000      -0.455953       -12.4071
  55   2.0000      -0.447804       -12.1854
  56   2.0000      -0.443717       -12.0742
  57   2.0000      -0.439835       -11.9685
  58   2.0000      -0.434877       -11.8336
  59   2.0000      -0.428335       -11.6556
  60   2.0000      -0.425343       -11.5742
  61   2.0000      -0.417486       -11.3604
  62   2.0000      -0.405549       -11.0355
  63   2.0000      -0.348587        -9.4855
  64   2.0000      -0.332211        -9.0399
  65   2.0000      -0.330344        -8.9891
  66   2.0000      -0.286331        -7.7915
  67   0.0000       0.024583         0.6689
  68   0.0000       0.072651         1.9769
  69   0.0000       0.111831         3.0431
  70   0.0000       0.125550         3.4164
  71   0.0000       0.129251         3.5171

MULLIKEN ATOMIC CHARGES
-----------------------
   0 S :    0.104502
   1 C :   -0.148556
   2 C :   -0.055790
   3 C :    0.036072
   4 C :   -0.137974
   5 H :   -0.013787
   6 C :    0.084737
   7 H :    0.026009
   8 H :    0.016691
   9 C :   -0.102924
  10 H :    0.021600
  11 H :    0.031982
  12 C :   -0.000866
  13 H :    0.018171
  14 H :    0.031131
  15 H :    0.024217
  16 S :    0.116368
  17 C :   -0.083406
  18 C :   -0.047928
  19 C :   -0.017757
  20 C :   -0.172514
  21 H :    0.011729
  22 C :    0.113168
  23 H :    0.020591
  24 H :    0.010417
  25 C :   -0.076020
  26 H :    0.044179
  27 H :    0.018911
  28 C :   -0.086758
  29 H :    0.044182
  30 H :    0.033922
  31 H :    0.034476
  32 H :    0.056407
  33 H :    0.044817
Sum of atomic charges:    0.0000000

LOEWDIN ATOMIC CHARGES
----------------------
   0 S :    0.382150
   1 C :   -0.194198
   2 C :   -0.061079
   3 C :   -0.055375
   4 C :   -0.181446
   5 H :    0.022552
   6 C :   -0.028690
   7 H :    0.036129
   8 H :    0.023265
   9 C :   -0.041802
  10 H :    0.019118
  11 H :    0.028758
  12 C :   -0.055795
  13 H :    0.021554
  14 H :    0.027358
  15 H :    0.015654
  16 S :    0.431029
  17 C :   -0.195610
  18 C :   -0.069928
  19 C :   -0.055921
  20 C :   -0.200306
  21 H :    0.029300
  22 C :   -0.026690
  23 H :    0.029630
  24 H :    0.030416
  25 C :   -0.029187
  26 H :    0.033318
  27 H :    0.006591
  28 C :   -0.070207
  29 H :    0.026156
  30 H :    0.028905
  31 H :    0.021739
  32 H :    0.032241
  33 H :    0.020368

  Mayer bond orders larger than 0.100000
B(  0-S ,  1-C ) :   1.1249 B(  0-S ,  4-C ) :   1.1373 B(  1-C ,  2-C ) :   1.6291
B(  1-C , 32-H ) :   0.9669 B(  2-C ,  3-C ) :   1.2236 B(  2-C ,  6-C ) :   1.0173
B(  3-C ,  4-C ) :   1.5661 B(  3-C ,  5-H ) :   1.0004 B(  4-C , 20-C ) :   1.0677
B(  6-C ,  7-H ) :   0.9348 B(  6-C ,  8-H ) :   0.9423 B(  6-C ,  9-C ) :   1.0740
B(  9-C , 10-H ) :   0.9557 B(  9-C , 11-H ) :   0.9538 B(  9-C , 12-C ) :   1.0865
B( 12-C , 13-H ) :   0.9731 B( 12-C , 14-H ) :   0.9749 B( 12-C , 15-H ) :   0.9742
B( 16-S , 17-C ) :   1.1853 B( 16-S , 20-C ) :   1.1543 B( 17-C , 18-C ) :   1.5597
B( 17-C , 20-C ) :   0.1089 B( 17-C , 33-H ) :   0.9742 B( 18-C , 19-C ) :   1.2684
B( 18-C , 21-H ) :   0.9975 B( 19-C , 20-C ) :   1.5421 B( 19-C , 22-C ) :   1.0605
B( 22-C , 23-H ) :   0.9208 B( 22-C , 24-H ) :   0.9352 B( 22-C , 25-C ) :   1.0543
B( 25-C , 26-H ) :   0.9624 B( 25-C , 27-H ) :   0.9477 B( 25-C , 28-C ) :   1.0802
B( 28-C , 29-H ) :   0.9777 B( 28-C , 30-H ) :   0.9760 B( 28-C , 31-H ) :   0.9758

Dispersion correction           -0.013924447
FINAL SINGLE POINT ENERGY     -1339.878764437389

DIPOLE MOMENT
-------------
                                X             Y             Z
Electronic contribution:     22.44267     -16.04492      10.40800
Nuclear contribution   :    -22.82978      16.31359     -10.74473
                        -----------------------------------------
Total Dipole Moment    :     -0.38711       0.26867      -0.33674
                        -----------------------------------------
Magnitude (a.u.)       :      0.57917
Magnitude (Debye)      :      1.47212

Rotational constants in cm-1:     0.017099     0.008628     0.006550
Rotational constants in MHz :   512.622211   258.657528   196.368375

                             ****ORCA TERMINATED NORMALLY****
TOTAL RUN TIME: 0 days 0 hours 0 minutes 32 seconds 977 msec
