                         Program Version 4.2.1 -  RELEASE  -
|  1> ! wB97X-D3 SP def2-SVP
|  2> %pal
|  3> nprocs 16
|  4> end
|  5>
|  6> * xyz 0 1
|  7> S 	 -22.0998 	 33.1578 	 45.9071
|  8> C 	 -20.6326 	 32.9693 	 46.6363
|  9> C 	 -20.1902 	 31.6416 	 46.6259
| 10> C 	 -20.9793 	 30.8145 	 45.7645
| 11> C 	 -22.0747 	 31.5225 	 45.2704
| 12> H 	 -20.7312 	 29.7596 	 45.5087
| 13> C 	 -19.0136 	 31.1122 	 47.4315
| 14> H 	 -19.2863 	 30.1674 	 47.8994
| 15> H 	 -18.7279 	 31.8347 	 48.2118
| 16> C 	 -17.7123 	 30.8544 	 46.6808
| 17> H 	 -17.8458 	 29.9472 	 46.0928
| 18> H 	 -17.5554 	 31.6771 	 45.9259
| 19> C 	 -16.4778 	 30.6134 	 47.5997
| 20> H 	 -16.461 	 29.7367 	 48.2177
| 21> H 	 -15.6517 	 30.47 	 46.9077
| 22> H 	 -16.191 	 31.4344 	 48.2998
| 23> S 	 -23.2668 	 32.0803 	 42.7756
| 24> C 	 -24.2388 	 30.9088 	 42.002
| 25> C 	 -24.5395 	 29.8805 	 42.8764
| 26> C 	 -23.8298 	 29.9811 	 44.0989
| 27> C 	 -23.043 	 31.1155 	 44.2345
| 28> H 	 -25.0781 	 29.0488 	 42.5615
| 29> C 	 -23.9594 	 28.9001 	 45.102
| 30> H 	 -24.8667 	 28.5338 	 44.9545
| 31> H 	 -23.7436 	 29.3557 	 46.1349
| 32> C 	 -22.9338 	 27.6941 	 45.0051
| 33> H 	 -21.9225 	 28.0029 	 45.1027
| 34> H 	 -22.9183 	 27.1565 	 44.0524
| 35> C 	 -23.1519 	 26.5745 	 46.0661
| 36> H 	 -23.4149 	 26.9547 	 47.0653
| 37> H 	 -22.2204 	 26.0302 	 46.0908
| 38> H 	 -23.9244 	 25.9125 	 45.8199
| 39> H 	 -20.0841 	 33.7636 	 47.1267
| 40> H 	 -24.6801 	 30.945 	 41.0011
| 41> *
| 42>
| 43>                          ****END OF INPUT****

CARTESIAN COORDINATES (ANGSTROEM)
---------------------------------
  S    -22.099800   33.157800   45.907100
  C    -20.632600   32.969300   46.636300
  C    -20.190200   31.641600   46.625900
  C    -20.979300   30.814500   45.764500
  C    -22.074700   31.522500   45.270400
  H    -20.731200   29.759600   45.508700
  C    -19.013600   31.112200   47.431500
  H    -19.286300   30.167400   47.899400
  H    -18.727900   31.834700   48.211800
  C    -17.712300   30.854400   46.680800
  H    -17.845800   29.947200   46.092800
  H    -17.555400   31.677100   45.925900
  C    -16.477800   30.613400   47.599700
  H    -16.461000   29.736700   48.217700
  H    -15.651700   30.470000   46.907700
  H    -16.191000   31.434400   48.299800
  S    -23.266800   32.080300   42.775600
  C    -24.238800   30.908800   42.002000
  C    -24.539500   29.880500   42.876400
  C    -23.829800   29.981100   44.098900
  C    -23.043000   31.115500   44.234500
  H    -25.078100   29.048800   42.561500
  C    -23.959400   28.900100   45.102000
  H    -24.866700   28.533800   44.954500
  H    -23.743600   29.355700   46.134900
  C    -22.933800   27.694100   45.005100
  H    -21.922500   28.002900   45.102700
  H    -22.918300   27.156500   44.052400
  C    -23.151900   26.574500   46.066100
  H    -23.414900   26.954700   47.065300
  H    -22.220400   26.030200   46.090800
  H    -23.924400   25.912500   45.819900
  H    -20.084100   33.763600   47.126700
  H    -24.680100   30.945000   41.001100

 Total Charge           Charge          ....    0
 Multiplicity           Mult            ....    1
 Number of Electrons    NEL             ....  134
 Basis Dimension        Dim             ....  322

ORBITAL ENERGIES
----------------

  NO   OCC          E(Eh)            E(eV)
   0   2.0000     -88.968058     -2420.9439
   1   2.0000     -88.963395     -2420.8171
   2   2.0000     -10.331952      -281.1467
   3   2.0000     -10.324460      -280.9428
   4   2.0000     -10.316075      -280.7147
   5   2.0000     -10.308893      -280.5192
   6   2.0000     -10.301491      -280.3178
   7   2.0000     -10.300674      -280.2956
   8   2.0000     -10.296124      -280.1718
   9   2.0000     -10.290808      -280.0271
  10   2.0000     -10.289783      -279.9992
  11   2.0000     -10.286721      -279.9159
  12   2.0000     -10.285215      -279.8749
  13   2.0000     -10.284933      -279.8672
  14   2.0000     -10.281385      -279.7707
  15   2.0000     -10.273708      -279.5618
  16   2.0000      -8.084588      -219.9928
  17   2.0000      -8.078560      -219.8288
  18   2.0000      -6.042779      -164.4324
  19   2.0000      -6.038838      -164.3251
  20   2.0000      -6.037007      -164.2753
  21   2.0000      -6.035578      -164.2364
  22   2.0000      -6.032845      -164.1621
  23   2.0000      -6.029507      -164.0712
  24   2.0000      -1.011536       -27.5253
  25   2.0000      -0.992249       -27.0005
  26   2.0000      -0.908738       -24.7280
  27   2.0000      -0.906319       -24.6622
  28   2.0000      -0.869008       -23.6469
  29   2.0000      -0.854419       -23.2499
  30   2.0000      -0.851243       -23.1635
  31   2.0000      -0.814985       -22.1769
  32   2.0000      -0.782490       -21.2926
  33   2.0000      -0.770121       -20.9561
  34   2.0000      -0.708201       -19.2711
  35   2.0000      -0.699414       -19.0320
  36   2.0000      -0.691234       -18.8094
  37   2.0000      -0.666298       -18.1309
  38   2.0000      -0.643094       -17.4995
  39   2.0000      -0.622177       -16.9303
  40   2.0000      -0.592658       -16.1270
  41   2.0000      -0.573847       -15.6152
  42   2.0000      -0.566622       -15.4186
  43   2.0000      -0.557661       -15.1747
  44   2.0000      -0.528794       -14.3892
  45   2.0000      -0.521381       -14.1875
  46   2.0000      -0.513004       -13.9595
  47   2.0000      -0.511133       -13.9086
  48   2.0000      -0.507846       -13.8192
  49   2.0000      -0.500678       -13.6241
  50   2.0000      -0.499013       -13.5788
  51   2.0000      -0.480602       -13.0778
  52   2.0000      -0.475616       -12.9422
  53   2.0000      -0.467768       -12.7286
  54   2.0000      -0.462135       -12.5753
  55   2.0000      -0.450568       -12.2606
  56   2.0000      -0.441625       -12.0172
  57   2.0000      -0.437505       -11.9051
  58   2.0000      -0.432606       -11.7718
  59   2.0000      -0.426091       -11.5945
  60   2.0000      -0.420930       -11.4541
  61   2.0000      -0.418074       -11.3764
  62   2.0000      -0.414434       -11.2773
  63   2.0000      -0.350099        -9.5267
  64   2.0000      -0.327109        -8.9011
  65   2.0000      -0.326015        -8.8713
  66   2.0000      -0.291915        -7.9434
  67   0.0000       0.032656         0.8886
  68   0.0000       0.070230         1.9111
  69   0.0000       0.110779         3.0144
  70   0.0000       0.130455         3.5499
  71   0.0000       0.132901         3.6164

MULLIKEN ATOMIC CHARGES
-----------------------
   0 S :    0.140784
   1 C :   -0.114819
   2 C :   -0.102113
   3 C :    0.028694
   4 C :   -0.177926
   5 H :    0.032365
   6 C :    0.067889
   7 H :    0.028082
   8 H :    0.016865
   9 C :   -0.093862
  10 H :    0.023625
  11 H :    0.041110
  12 C :   -0.054860
  13 H :    0.027152
  14 H :    0.031938
  15 H :    0.036954
  16 S :    0.114570
  17 C :   -0.092325
  18 C :   -0.019865
  19 C :   -0.043710
  20 C :   -0.143680
  21 H :   -0.004617
  22 C :    0.122336
  23 H :   -0.017430
  24 H :    0.044876
  25 C :   -0.072045
  26 H :    0.000679
  27 H :    0.020137
  28 C :   -0.034702
  29 H :    0.027064
  30 H :    0.030585
  31 H :    0.022697
  32 H :    0.049455
  33 H :    0.064095
Sum of atomic charges:   -0.0000000

LOEWDIN ATOMIC CHARGES
----------------------
   0 S :    0.454265
   1 C :   -0.227540
   2 C :   -0.067901
   3 C :   -0.058205
   4 C :   -0.197458
   5 H :    0.038493
   6 C :   -0.037790
   7 H :    0.031229
   8 H :    0.029011
   9 C :   -0.043719
  10 H :    0.021088
  11 H :    0.030273
  12 C :   -0.071829
  13 H :    0.022042
  14 H :    0.029483
  15 H :    0.027874
  16 S :    0.420966
  17 C :   -0.194382
  18 C :   -0.073064
  19 C :   -0.054811
  20 C :   -0.208127
  21 H :    0.020468
  22 C :   -0.020352
  23 H :    0.009171
  24 H :    0.044969
  25 C :   -0.033424
  26 H :    0.011070
  27 H :    0.023448
  28 C :   -0.060215
  29 H :    0.024735
  30 H :    0.027749
  31 H :    0.015479
  32 H :    0.029650
  33 H :    0.037354

  Mayer bond orders larger than 0.100000
B(  0-S ,  1-C ) :   1.1773 B(  0-S ,  4-C ) :   1.1733 B(  1-C ,  2-C ) :   1.5684
B(  1-C , 32-H ) :   0.9655 B(  2-C ,  3-C ) :   1.2712 B(  2-C ,  6-C ) :   1.0360
B(  3-C ,  4-C ) :   1.5429 B(  3-C ,  5-H ) :   0.9847 B(  4-C , 20-C ) :   1.0332
B(  6-C ,  7-H ) :   0.9378 B(  6-C ,  8-H ) :   0.9449 B(  6-C ,  9-C ) :   1.0613
B(  9-C , 10-H ) :   0.9527 B(  9-C , 11-H ) :   0.9584 B(  9-C , 12-C ) :   1.0768
B( 12-C , 13-H ) :   0.9753 B( 12-C , 14-H ) :   0.9743 B( 12-C , 15-H ) :   0.9756
B( 16-S , 17-C ) :   1.1844 B( 16-S , 20-C ) :   1.1328 B( 17-C , 18-C ) :   1.5748
B( 17-C , 33-H ) :   0.9629 B( 18-C , 19-C ) :   1.2673 B( 18-C , 21-H ) :   0.9981
B( 19-C , 20-C ) :   1.5691 B( 19-C , 22-C ) :   1.0685 B( 22-C , 23-H ) :   0.9209
B( 22-C , 24-H ) :   0.9266 B( 22-C , 25-C ) :   1.0607 B( 25-C , 26-H ) :   0.9607
B( 25-C , 27-H ) :   0.9512 B( 25-C , 28-C ) :   1.0808 B( 28-C , 29-H ) :   0.9753
B( 28-C , 30-H ) :   0.9759 B( 28-C , 31-H ) :   0.9789

Dispersion correction           -0.013855661
FINAL SINGLE POINT ENERGY     -1339.872314210061

DIPOLE MOMENT
-------------
                                X             Y             Z
Electronic contribution:    -16.51081      22.61483     -13.17663
Nuclear contribution   :     16.78281     -23.20477      13.29667
                        -----------------------------------------
Total Dipole Moment    :      0.27200      -0.58994       0.12004
                        -----------------------------------------
Magnitude (a.u.)       :      0.66063
Magnitude (Debye)      :      1.67918

Rotational constants in cm-1:     0.017419     0.008441     0.006428
Rotational constants in MHz :   522.201081   253.057040   192.695307

                             ****ORCA TERMINATED NORMALLY****
TOTAL RUN TIME: 0 days 0 hours 0 minutes 26 seconds 468 msec
