                         Program Version 4.2.1 -  RELEASE  -
|  1> ! wB97X-D3 SP def2-SVP
|  2> %pal
|  3> nprocs 16
|  4> end
|  5>
|  6> * xyz 0 1
|  7> S 	 -55.9 	 39.3938 	 111.869
|  8> C 	 -54.5355 	 40.3874 	 111.523
|  9> C 	 -54.9527 	 41.5231 	 110.828
| 10> C 	 -56.4069 	 41.4505 	 110.592
| 11> C 	 -57.0643 	 40.3643 	 111.125
| 12> H 	 -56.9668 	 42.1263 	 110.003
| 13> C 	 -54.1095 	 42.7057 	 110.409
| 14> H 	 -53.7664 	 42.5491 	 109.37
| 15> H 	 -53.1831 	 42.6019 	 110.934
| 16> C 	 -54.7277 	 44.1449 	 110.514
| 17> H 	 -54.0144 	 44.7608 	 110.015
| 18> H 	 -55.7031 	 44.1967 	 109.955
| 19> C 	 -55.0462 	 44.6239 	 111.948
| 20> H 	 -56.0776 	 44.3896 	 112.272
| 21> H 	 -54.3879 	 44.1166 	 112.676
| 22> H 	 -54.932 	 45.6727 	 112.215
| 23> S 	 -58.9574 	 38.326 	 111.234
| 24> C 	 -60.6061 	 38.5977 	 110.61
| 25> C 	 -60.7804 	 39.9642 	 110.297
| 26> C 	 -59.605 	 40.7561 	 110.503
| 27> C 	 -58.4856 	 39.9833 	 110.905
| 28> H 	 -61.756 	 40.3791 	 109.958
| 29> C 	 -59.5497 	 42.2524 	 110.254
| 30> H 	 -59.2383 	 42.3553 	 109.199
| 31> H 	 -58.8184 	 42.7978 	 110.939
| 32> C 	 -60.8911 	 42.9909 	 110.442
| 33> H 	 -61.0885 	 42.8856 	 111.511
| 34> H 	 -61.6339 	 42.502 	 109.883
| 35> C 	 -60.8733 	 44.4362 	 110.022
| 36> H 	 -60.7732 	 44.4948 	 108.958
| 37> H 	 -60.0788 	 45.0371 	 110.419
| 38> H 	 -61.8036 	 44.9117 	 110.405
| 39> H 	 -53.5837 	 40.3778 	 112.005
| 40> H 	 -61.4259 	 37.8492 	 110.662
| 41> *
| 42>
| 43>                          ****END OF INPUT****

CARTESIAN COORDINATES (ANGSTROEM)
---------------------------------
  S    -55.900000   39.393800  111.869000
  C    -54.535500   40.387400  111.523000
  C    -54.952700   41.523100  110.828000
  C    -56.406900   41.450500  110.592000
  C    -57.064300   40.364300  111.125000
  H    -56.966800   42.126300  110.003000
  C    -54.109500   42.705700  110.409000
  H    -53.766400   42.549100  109.370000
  H    -53.183100   42.601900  110.934000
  C    -54.727700   44.144900  110.514000
  H    -54.014400   44.760800  110.015000
  H    -55.703100   44.196700  109.955000
  C    -55.046200   44.623900  111.948000
  H    -56.077600   44.389600  112.272000
  H    -54.387900   44.116600  112.676000
  H    -54.932000   45.672700  112.215000
  S    -58.957400   38.326000  111.234000
  C    -60.606100   38.597700  110.610000
  C    -60.780400   39.964200  110.297000
  C    -59.605000   40.756100  110.503000
  C    -58.485600   39.983300  110.905000
  H    -61.756000   40.379100  109.958000
  C    -59.549700   42.252400  110.254000
  H    -59.238300   42.355300  109.199000
  H    -58.818400   42.797800  110.939000
  C    -60.891100   42.990900  110.442000
  H    -61.088500   42.885600  111.511000
  H    -61.633900   42.502000  109.883000
  C    -60.873300   44.436200  110.022000
  H    -60.773200   44.494800  108.958000
  H    -60.078800   45.037100  110.419000
  H    -61.803600   44.911700  110.405000
  H    -53.583700   40.377800  112.005000
  H    -61.425900   37.849200  110.662000

 Total Charge           Charge          ....    0
 Multiplicity           Mult            ....    1
 Number of Electrons    NEL             ....  134
 Basis Dimension        Dim             ....  322

ORBITAL ENERGIES
----------------

  NO   OCC          E(Eh)            E(eV)
   0   2.0000     -88.969839     -2420.9924
   1   2.0000     -88.963500     -2420.8199
   2   2.0000     -10.336756      -281.2774
   3   2.0000     -10.329610      -281.0830
   4   2.0000     -10.328834      -281.0619
   5   2.0000     -10.311703      -280.5957
   6   2.0000     -10.310321      -280.5581
   7   2.0000     -10.306241      -280.4471
   8   2.0000     -10.305485      -280.4265
   9   2.0000     -10.300182      -280.2822
  10   2.0000     -10.296826      -280.1909
  11   2.0000     -10.296574      -280.1840
  12   2.0000     -10.288874      -279.9745
  13   2.0000     -10.283370      -279.8247
  14   2.0000     -10.280131      -279.7366
  15   2.0000     -10.278233      -279.6849
  16   2.0000      -8.083671      -219.9679
  17   2.0000      -8.079659      -219.8587
  18   2.0000      -6.042292      -164.4191
  19   2.0000      -6.038340      -164.3116
  20   2.0000      -6.038233      -164.3087
  21   2.0000      -6.034456      -164.2059
  22   2.0000      -6.033720      -164.1859
  23   2.0000      -6.030390      -164.0953
  24   2.0000      -1.009233       -27.4626
  25   2.0000      -0.982260       -26.7286
  26   2.0000      -0.914657       -24.8891
  27   2.0000      -0.907680       -24.6992
  28   2.0000      -0.867826       -23.6148
  29   2.0000      -0.854730       -23.2584
  30   2.0000      -0.839303       -22.8386
  31   2.0000      -0.815397       -22.1881
  32   2.0000      -0.783831       -21.3291
  33   2.0000      -0.774262       -21.0687
  34   2.0000      -0.712587       -19.3905
  35   2.0000      -0.702092       -19.1049
  36   2.0000      -0.694039       -18.8858
  37   2.0000      -0.652461       -17.7544
  38   2.0000      -0.639329       -17.3970
  39   2.0000      -0.622595       -16.9417
  40   2.0000      -0.596887       -16.2421
  41   2.0000      -0.579868       -15.7790
  42   2.0000      -0.568814       -15.4782
  43   2.0000      -0.546483       -14.8706
  44   2.0000      -0.535721       -14.5777
  45   2.0000      -0.527031       -14.3412
  46   2.0000      -0.518186       -14.1006
  47   2.0000      -0.513445       -13.9716
  48   2.0000      -0.506583       -13.7848
  49   2.0000      -0.497691       -13.5429
  50   2.0000      -0.487902       -13.2765
  51   2.0000      -0.487264       -13.2591
  52   2.0000      -0.473478       -12.8840
  53   2.0000      -0.465977       -12.6799
  54   2.0000      -0.459212       -12.4958
  55   2.0000      -0.454992       -12.3810
  56   2.0000      -0.445108       -12.1120
  57   2.0000      -0.439195       -11.9511
  58   2.0000      -0.430482       -11.7140
  59   2.0000      -0.427666       -11.6374
  60   2.0000      -0.421577       -11.4717
  61   2.0000      -0.418646       -11.3919
  62   2.0000      -0.407199       -11.0805
  63   2.0000      -0.361211        -9.8291
  64   2.0000      -0.333723        -9.0811
  65   2.0000      -0.321920        -8.7599
  66   2.0000      -0.284964        -7.7543
  67   0.0000       0.020075         0.5463
  68   0.0000       0.085119         2.3162
  69   0.0000       0.100553         2.7362
  70   0.0000       0.116446         3.1687
  71   0.0000       0.126238         3.4351

MULLIKEN ATOMIC CHARGES
-----------------------
   0 S :    0.097092
   1 C :   -0.096020
   2 C :   -0.108417
   3 C :   -0.015913
   4 C :   -0.089352
   5 H :   -0.020982
   6 C :    0.066939
   7 H :    0.043558
   8 H :    0.005279
   9 C :   -0.061538
  10 H :    0.030023
  11 H :    0.043123
  12 C :   -0.063853
  13 H :    0.035692
  14 H :    0.026092
  15 H :    0.034404
  16 S :    0.099931
  17 C :   -0.107218
  18 C :   -0.051840
  19 C :   -0.046018
  20 C :   -0.123043
  21 H :    0.037886
  22 C :   -0.017613
  23 H :    0.049628
  24 H :    0.054514
  25 C :   -0.066749
  26 H :    0.035289
  27 H :    0.019642
  28 C :   -0.020020
  29 H :    0.025871
  30 H :    0.019401
  31 H :    0.040559
  32 H :    0.046730
  33 H :    0.076924
Sum of atomic charges:    0.0000000

LOEWDIN ATOMIC CHARGES
----------------------
   0 S :    0.435155
   1 C :   -0.211987
   2 C :   -0.056784
   3 C :   -0.073047
   4 C :   -0.207872
   5 H :    0.015500
   6 C :   -0.034738
   7 H :    0.040681
   8 H :    0.025232
   9 C :   -0.037592
  10 H :    0.023460
  11 H :    0.031242
  12 C :   -0.076771
  13 H :    0.028587
  14 H :    0.026732
  15 H :    0.026712
  16 S :    0.396461
  17 C :   -0.185616
  18 C :   -0.074523
  19 C :   -0.060537
  20 C :   -0.188735
  21 H :    0.038384
  22 C :   -0.041419
  23 H :    0.032995
  24 H :    0.039776
  25 C :   -0.038691
  26 H :    0.027946
  27 H :    0.014088
  28 C :   -0.060411
  29 H :    0.022826
  30 H :    0.020535
  31 H :    0.034956
  32 H :    0.028529
  33 H :    0.038926

  Mayer bond orders larger than 0.100000
B(  0-S ,  1-C ) :   1.1452 B(  0-S ,  4-C ) :   1.1593 B(  1-C ,  2-C ) :   1.5984
B(  1-C , 32-H ) :   0.9642 B(  2-C ,  3-C ) :   1.2421 B(  2-C ,  6-C ) :   1.0279
B(  3-C ,  4-C ) :   1.5566 B(  3-C ,  5-H ) :   0.9950 B(  4-C , 20-C ) :   1.0631
B(  6-C ,  7-H ) :   0.9321 B(  6-C ,  8-H ) :   0.9349 B(  6-C ,  9-C ) :   1.0808
B(  9-C , 10-H ) :   0.9555 B(  9-C , 11-H ) :   0.9571 B(  9-C , 12-C ) :   1.0548
B( 12-C , 13-H ) :   0.9761 B( 12-C , 14-H ) :   0.9796 B( 12-C , 15-H ) :   0.9782
B( 16-S , 17-C ) :   1.1566 B( 16-S , 20-C ) :   1.1451 B( 17-C , 18-C ) :   1.5774
B( 17-C , 20-C ) :   0.1067 B( 17-C , 33-H ) :   0.9635 B( 18-C , 19-C ) :   1.2787
B( 18-C , 21-H ) :   0.9779 B( 19-C , 20-C ) :   1.5564 B( 19-C , 22-C ) :   1.0368
B( 22-C , 23-H ) :   0.9249 B( 22-C , 24-H ) :   0.9367 B( 22-C , 25-C ) :   1.0663
B( 25-C , 26-H ) :   0.9586 B( 25-C , 27-H ) :   0.9438 B( 25-C , 28-C ) :   1.0954
B( 28-C , 29-H ) :   0.9730 B( 28-C , 30-H ) :   0.9728 B( 28-C , 31-H ) :   0.9709

Dispersion correction           -0.013933227
FINAL SINGLE POINT ENERGY     -1339.879630410873

DIPOLE MOMENT
-------------
                                X             Y             Z
Electronic contribution:      1.71764     -31.67148       4.71917
Nuclear contribution   :     -1.86855      32.46741      -4.92019
                        -----------------------------------------
Total Dipole Moment    :     -0.15091       0.79593      -0.20103
                        -----------------------------------------
Magnitude (a.u.)       :      0.83468
Magnitude (Debye)      :      2.12159

Rotational constants in cm-1:     0.015846     0.010210     0.006487
Rotational constants in MHz :   475.043902   306.086566   194.486562

                             ****ORCA TERMINATED NORMALLY****
TOTAL RUN TIME: 0 days 0 hours 0 minutes 30 seconds 86 msec
