                         Program Version 4.2.1 -  RELEASE  -
|  1> ! wB97X-D3 SP def2-SVP
|  2> %pal
|  3> nprocs 16
|  4> end
|  5>
|  6> * xyz 0 1
|  7> S 	 35.16 	 26.3413 	 55.199
|  8> C 	 34.0536 	 27.7267 	 55.2394
|  9> C 	 32.7463 	 27.3144 	 55.3204
| 10> C 	 32.6263 	 25.8943 	 55.337
| 11> C 	 33.8026 	 25.1739 	 55.1938
| 12> H 	 31.6852 	 25.3263 	 55.3523
| 13> C 	 31.4683 	 28.1841 	 55.4125
| 14> H 	 30.8014 	 27.8385 	 54.647
| 15> H 	 31.7081 	 29.2229 	 55.1698
| 16> C 	 30.6639 	 27.9859 	 56.6625
| 17> H 	 30.4345 	 27.0214 	 56.8501
| 18> H 	 31.179 	 28.3544 	 57.5048
| 19> C 	 29.3609 	 28.7239 	 56.7203
| 20> H 	 28.6453 	 28.5646 	 55.8888
| 21> H 	 28.8335 	 28.4242 	 57.5585
| 22> H 	 29.485 	 29.8511 	 56.8044
| 23> S 	 34.8456 	 22.9374 	 56.4227
| 24> C 	 34.4863 	 21.3715 	 55.7278
| 25> C 	 33.8577 	 21.399 	 54.5185
| 26> C 	 33.5437 	 22.7609 	 54.1151
| 27> C 	 33.9261 	 23.6654 	 55.1583
| 28> H 	 33.6112 	 20.4866 	 54.0126
| 29> C 	 32.7715 	 23.027 	 52.8185
| 30> H 	 32.5781 	 24.1047 	 52.7995
| 31> H 	 31.7519 	 22.6079 	 52.8797
| 32> C 	 33.5306 	 22.5349 	 51.5697
| 33> H 	 33.5082 	 21.4815 	 51.4342
| 34> H 	 34.5894 	 22.6746 	 51.7155
| 35> C 	 33.1416 	 23.2805 	 50.2524
| 36> H 	 33.2995 	 24.2931 	 50.2605
| 37> H 	 32.0948 	 23.1628 	 49.8847
| 38> H 	 33.6866 	 22.7522 	 49.4616
| 39> H 	 34.2961 	 28.771 	 55.3444
| 40> H 	 34.9245 	 20.5079 	 56.202
| 41> *
| 42>
| 43>                          ****END OF INPUT****

CARTESIAN COORDINATES (ANGSTROEM)
---------------------------------
  S     35.160000   26.341300   55.199000
  C     34.053600   27.726700   55.239400
  C     32.746300   27.314400   55.320400
  C     32.626300   25.894300   55.337000
  C     33.802600   25.173900   55.193800
  H     31.685200   25.326300   55.352300
  C     31.468300   28.184100   55.412500
  H     30.801400   27.838500   54.647000
  H     31.708100   29.222900   55.169800
  C     30.663900   27.985900   56.662500
  H     30.434500   27.021400   56.850100
  H     31.179000   28.354400   57.504800
  C     29.360900   28.723900   56.720300
  H     28.645300   28.564600   55.888800
  H     28.833500   28.424200   57.558500
  H     29.485000   29.851100   56.804400
  S     34.845600   22.937400   56.422700
  C     34.486300   21.371500   55.727800
  C     33.857700   21.399000   54.518500
  C     33.543700   22.760900   54.115100
  C     33.926100   23.665400   55.158300
  H     33.611200   20.486600   54.012600
  C     32.771500   23.027000   52.818500
  H     32.578100   24.104700   52.799500
  H     31.751900   22.607900   52.879700
  C     33.530600   22.534900   51.569700
  H     33.508200   21.481500   51.434200
  H     34.589400   22.674600   51.715500
  C     33.141600   23.280500   50.252400
  H     33.299500   24.293100   50.260500
  H     32.094800   23.162800   49.884700
  H     33.686600   22.752200   49.461600
  H     34.296100   28.771000   55.344400
  H     34.924500   20.507900   56.202000

 Total Charge           Charge          ....    0
 Multiplicity           Mult            ....    1
 Number of Electrons    NEL             ....  134
 Basis Dimension        Dim             ....  322

ORBITAL ENERGIES
----------------

  NO   OCC          E(Eh)            E(eV)
   0   2.0000     -88.967683     -2420.9337
   1   2.0000     -88.965049     -2420.8621
   2   2.0000     -10.333732      -281.1951
   3   2.0000     -10.333213      -281.1810
   4   2.0000     -10.315032      -280.6863
   5   2.0000     -10.314251      -280.6650
   6   2.0000     -10.312767      -280.6247
   7   2.0000     -10.299749      -280.2704
   8   2.0000     -10.295015      -280.1416
   9   2.0000     -10.294865      -280.1375
  10   2.0000     -10.292555      -280.0746
  11   2.0000     -10.290831      -280.0278
  12   2.0000     -10.285868      -279.8927
  13   2.0000     -10.275366      -279.6069
  14   2.0000     -10.275002      -279.5970
  15   2.0000     -10.270038      -279.4620
  16   2.0000      -8.083004      -219.9497
  17   2.0000      -8.078576      -219.8292
  18   2.0000      -6.041313      -164.3925
  19   2.0000      -6.037573      -164.2907
  20   2.0000      -6.037333      -164.2842
  21   2.0000      -6.033808      -164.1883
  22   2.0000      -6.033229      -164.1725
  23   2.0000      -6.029169      -164.0620
  24   2.0000      -0.999693       -27.2030
  25   2.0000      -0.980116       -26.6703
  26   2.0000      -0.917996       -24.9799
  27   2.0000      -0.904637       -24.6164
  28   2.0000      -0.866469       -23.5778
  29   2.0000      -0.848495       -23.0887
  30   2.0000      -0.844538       -22.9811
  31   2.0000      -0.814058       -22.1516
  32   2.0000      -0.783235       -21.3129
  33   2.0000      -0.772165       -21.0117
  34   2.0000      -0.710718       -19.3396
  35   2.0000      -0.703745       -19.1499
  36   2.0000      -0.692645       -18.8478
  37   2.0000      -0.656994       -17.8777
  38   2.0000      -0.637500       -17.3473
  39   2.0000      -0.618561       -16.8319
  40   2.0000      -0.597820       -16.2675
  41   2.0000      -0.574492       -15.6327
  42   2.0000      -0.565500       -15.3880
  43   2.0000      -0.560340       -15.2476
  44   2.0000      -0.530973       -14.4485
  45   2.0000      -0.521943       -14.2028
  46   2.0000      -0.510305       -13.8861
  47   2.0000      -0.508922       -13.8485
  48   2.0000      -0.500109       -13.6087
  49   2.0000      -0.496136       -13.5005
  50   2.0000      -0.492355       -13.3977
  51   2.0000      -0.479314       -13.0428
  52   2.0000      -0.472093       -12.8463
  53   2.0000      -0.461733       -12.5644
  54   2.0000      -0.459291       -12.4980
  55   2.0000      -0.454666       -12.3721
  56   2.0000      -0.445717       -12.1286
  57   2.0000      -0.438734       -11.9386
  58   2.0000      -0.437708       -11.9106
  59   2.0000      -0.422996       -11.5103
  60   2.0000      -0.420482       -11.4419
  61   2.0000      -0.416976       -11.3465
  62   2.0000      -0.415754       -11.3132
  63   2.0000      -0.341485        -9.2923
  64   2.0000      -0.328755        -8.9459
  65   2.0000      -0.326814        -8.8931
  66   2.0000      -0.300465        -8.1761
  67   0.0000       0.037965         1.0331
  68   0.0000       0.063572         1.7299
  69   0.0000       0.112747         3.0680
  70   0.0000       0.123671         3.3653
  71   0.0000       0.126511         3.4425

MULLIKEN ATOMIC CHARGES
-----------------------
   0 S :    0.099007
   1 C :   -0.118338
   2 C :   -0.078798
   3 C :    0.017256
   4 C :   -0.154577
   5 H :    0.020696
   6 C :    0.101973
   7 H :    0.015359
   8 H :    0.015767
   9 C :   -0.012068
  10 H :    0.002393
  11 H :    0.014723
  12 C :   -0.058553
  13 H :    0.023705
  14 H :    0.015706
  15 H :    0.032560
  16 S :    0.116281
  17 C :   -0.091752
  18 C :   -0.013217
  19 C :   -0.052010
  20 C :   -0.184778
  21 H :    0.019046
  22 C :    0.090796
  23 H :    0.020734
  24 H :    0.041343
  25 C :   -0.076518
  26 H :    0.021180
  27 H :    0.032757
  28 C :   -0.038151
  29 H :    0.029265
  30 H :    0.025376
  31 H :    0.028612
  32 H :    0.040925
  33 H :    0.053296
Sum of atomic charges:    0.0000000

LOEWDIN ATOMIC CHARGES
----------------------
   0 S :    0.374390
   1 C :   -0.190975
   2 C :   -0.064782
   3 C :   -0.067612
   4 C :   -0.187070
   5 H :    0.033085
   6 C :   -0.022379
   7 H :    0.029725
   8 H :    0.028473
   9 C :   -0.032768
  10 H :    0.012294
  11 H :    0.024272
  12 C :   -0.061496
  13 H :    0.022853
  14 H :    0.017227
  15 H :    0.029369
  16 S :    0.418757
  17 C :   -0.177663
  18 C :   -0.067404
  19 C :   -0.044559
  20 C :   -0.212869
  21 H :    0.032033
  22 C :   -0.034030
  23 H :    0.031177
  24 H :    0.035611
  25 C :   -0.036929
  26 H :    0.019152
  27 H :    0.028317
  28 C :   -0.059787
  29 H :    0.013304
  30 H :    0.027539
  31 H :    0.030115
  32 H :    0.029753
  33 H :    0.022878

  Mayer bond orders larger than 0.100000
B(  0-S ,  1-C ) :   1.1247 B(  0-S ,  4-C ) :   1.1323 B(  1-C ,  2-C ) :   1.6405
B(  1-C , 32-H ) :   0.9651 B(  2-C ,  3-C ) :   1.2259 B(  2-C ,  6-C ) :   1.0237
B(  3-C ,  4-C ) :   1.6095 B(  3-C ,  5-H ) :   0.9857 B(  4-C , 20-C ) :   1.0098
B(  6-C ,  7-H ) :   0.9332 B(  6-C ,  8-H ) :   0.9438 B(  6-C ,  9-C ) :   1.0733
B(  9-C , 10-H ) :   0.9481 B(  9-C , 11-H ) :   0.9454 B(  9-C , 12-C ) :   1.0997
B( 12-C , 13-H ) :   0.9714 B( 12-C , 14-H ) :   0.9712 B( 12-C , 15-H ) :   0.9742
B( 16-S , 17-C ) :   1.1553 B( 16-S , 20-C ) :   1.1614 B( 17-C , 18-C ) :   1.6252
B( 17-C , 33-H ) :   0.9673 B( 18-C , 19-C ) :   1.2163 B( 18-C , 21-H ) :   0.9950
B( 19-C , 20-C ) :   1.5905 B( 19-C , 22-C ) :   1.0478 B( 22-C , 23-H ) :   0.9350
B( 22-C , 24-H ) :   0.9369 B( 22-C , 25-C ) :   1.0428 B( 25-C , 26-H ) :   0.9549
B( 25-C , 27-H ) :   0.9589 B( 25-C , 28-C ) :   1.0872 B( 28-C , 29-H ) :   0.9795
B( 28-C , 30-H ) :   0.9747 B( 28-C , 31-H ) :   0.9737

Dispersion correction           -0.013403265
FINAL SINGLE POINT ENERGY     -1339.868850278199

DIPOLE MOMENT
-------------
                                X             Y             Z
Electronic contribution:     21.26694      -7.22540      12.63063
Nuclear contribution   :    -21.81497       7.08808     -12.86195
                        -----------------------------------------
Total Dipole Moment    :     -0.54803      -0.13733      -0.23132
                        -----------------------------------------
Magnitude (a.u.)       :      0.61049
Magnitude (Debye)      :      1.55174

Rotational constants in cm-1:     0.017032     0.007587     0.006633
Rotational constants in MHz :   510.615054   227.457390   198.863297

                             ****ORCA TERMINATED NORMALLY****
TOTAL RUN TIME: 0 days 0 hours 0 minutes 33 seconds 908 msec
