                         Program Version 4.2.1 -  RELEASE  -
|  1> ! wB97X-D3 SP def2-SVP
|  2> %pal
|  3> nprocs 16
|  4> end
|  5>
|  6> * xyz 0 1
|  7> S 	 13.0553 	 -10.4247 	 91.8184
|  8> C 	 12.7872 	 -9.55458 	 93.2551
|  9> C 	 11.8445 	 -8.547 	 93.0776
| 10> C 	 11.0694 	 -8.7463 	 91.899
| 11> C 	 11.548 	 -9.82085 	 91.197
| 12> H 	 10.2764 	 -8.15059 	 91.4196
| 13> C 	 11.7078 	 -7.33895 	 93.923
| 14> H 	 12.1903 	 -6.42876 	 93.4673
| 15> H 	 12.2198 	 -7.52976 	 94.84
| 16> C 	 10.2385 	 -6.92645 	 94.2475
| 17> H 	 9.72137 	 -6.43976 	 93.4037
| 18> H 	 9.73594 	 -7.91734 	 94.5456
| 19> C 	 10.2104 	 -6.05177 	 95.4802
| 20> H 	 9.12806 	 -5.78362 	 95.5206
| 21> H 	 10.5976 	 -6.53746 	 96.3825
| 22> H 	 10.7458 	 -5.10977 	 95.3008
| 23> S 	 12.1483 	 -10.6074 	 88.6445
| 24> C 	 10.814 	 -10.9801 	 87.5761
| 25> C 	 9.582 	 -10.9815 	 88.2212
| 26> C 	 9.68818 	 -10.5096 	 89.5634
| 27> C 	 11.0116 	 -10.2019 	 89.921
| 28> H 	 8.71538 	 -11.2563 	 87.6884
| 29> C 	 8.54979 	 -10.4999 	 90.5144
| 30> H 	 8.87841 	 -10.3813 	 91.5411
| 31> H 	 8.04988 	 -11.4879 	 90.5541
| 32> C 	 7.58 	 -9.33239 	 90.3283
| 33> H 	 7.19154 	 -9.33173 	 89.29
| 34> H 	 8.12745 	 -8.35431 	 90.5359
| 35> C 	 6.28178 	 -9.44142 	 91.1179
| 36> H 	 5.63676 	 -10.2142 	 90.731
| 37> H 	 5.61807 	 -8.57357 	 90.9796
| 38> H 	 6.45287 	 -9.52035 	 92.1404
| 39> H 	 13.5609 	 -9.68856 	 94.0538
| 40> H 	 11.0013 	 -11.254 	 86.5426
| 41> *
| 42>
| 43>                          ****END OF INPUT****

CARTESIAN COORDINATES (ANGSTROEM)
---------------------------------
  S     13.055300  -10.424700   91.818400
  C     12.787200   -9.554580   93.255100
  C     11.844500   -8.547000   93.077600
  C     11.069400   -8.746300   91.899000
  C     11.548000   -9.820850   91.197000
  H     10.276400   -8.150590   91.419600
  C     11.707800   -7.338950   93.923000
  H     12.190300   -6.428760   93.467300
  H     12.219800   -7.529760   94.840000
  C     10.238500   -6.926450   94.247500
  H      9.721370   -6.439760   93.403700
  H      9.735940   -7.917340   94.545600
  C     10.210400   -6.051770   95.480200
  H      9.128060   -5.783620   95.520600
  H     10.597600   -6.537460   96.382500
  H     10.745800   -5.109770   95.300800
  S     12.148300  -10.607400   88.644500
  C     10.814000  -10.980100   87.576100
  C      9.582000  -10.981500   88.221200
  C      9.688180  -10.509600   89.563400
  C     11.011600  -10.201900   89.921000
  H      8.715380  -11.256300   87.688400
  C      8.549790  -10.499900   90.514400
  H      8.878410  -10.381300   91.541100
  H      8.049880  -11.487900   90.554100
  C      7.580000   -9.332390   90.328300
  H      7.191540   -9.331730   89.290000
  H      8.127450   -8.354310   90.535900
  C      6.281780   -9.441420   91.117900
  H      5.636760  -10.214200   90.731000
  H      5.618070   -8.573570   90.979600
  H      6.452870   -9.520350   92.140400
  H     13.560900   -9.688560   94.053800
  H     11.001300  -11.254000   86.542600

 Total Charge           Charge          ....    0
 Multiplicity           Mult            ....    1
 Number of Electrons    NEL             ....  134
 Basis Dimension        Dim             ....  322

ORBITAL ENERGIES
----------------

  NO   OCC          E(Eh)            E(eV)
   0   2.0000     -88.964922     -2420.8586
   1   2.0000     -88.964572     -2420.8491
   2   2.0000     -10.323142      -280.9070
   3   2.0000     -10.321656      -280.8665
   4   2.0000     -10.317167      -280.7444
   5   2.0000     -10.312976      -280.6304
   6   2.0000     -10.301369      -280.3145
   7   2.0000     -10.300524      -280.2915
   8   2.0000     -10.292764      -280.0803
   9   2.0000     -10.292204      -280.0651
  10   2.0000     -10.291641      -280.0498
  11   2.0000     -10.290869      -280.0288
  12   2.0000     -10.288643      -279.9682
  13   2.0000     -10.286273      -279.9037
  14   2.0000     -10.280876      -279.7569
  15   2.0000     -10.271200      -279.4936
  16   2.0000      -8.081100      -219.8979
  17   2.0000      -8.079511      -219.8547
  18   2.0000      -6.039435      -164.3414
  19   2.0000      -6.037952      -164.3010
  20   2.0000      -6.035765      -164.2415
  21   2.0000      -6.034117      -164.1967
  22   2.0000      -6.031607      -164.1284
  23   2.0000      -6.030229      -164.0909
  24   2.0000      -1.013257       -27.5721
  25   2.0000      -0.985723       -26.8229
  26   2.0000      -0.913580       -24.8598
  27   2.0000      -0.910453       -24.7747
  28   2.0000      -0.872691       -23.7471
  29   2.0000      -0.857636       -23.3375
  30   2.0000      -0.850424       -23.1412
  31   2.0000      -0.814958       -22.1761
  32   2.0000      -0.782554       -21.2944
  33   2.0000      -0.765114       -20.8198
  34   2.0000      -0.703425       -19.1412
  35   2.0000      -0.692535       -18.8448
  36   2.0000      -0.686358       -18.6768
  37   2.0000      -0.661915       -18.0116
  38   2.0000      -0.643392       -17.5076
  39   2.0000      -0.620413       -16.8823
  40   2.0000      -0.600809       -16.3489
  41   2.0000      -0.574511       -15.6332
  42   2.0000      -0.568493       -15.4695
  43   2.0000      -0.558397       -15.1948
  44   2.0000      -0.527307       -14.3487
  45   2.0000      -0.524949       -14.2846
  46   2.0000      -0.516072       -14.0430
  47   2.0000      -0.510891       -13.9020
  48   2.0000      -0.508591       -13.8395
  49   2.0000      -0.493994       -13.4423
  50   2.0000      -0.487151       -13.2560
  51   2.0000      -0.485470       -13.2103
  52   2.0000      -0.473502       -12.8846
  53   2.0000      -0.468131       -12.7385
  54   2.0000      -0.458167       -12.4674
  55   2.0000      -0.453709       -12.3460
  56   2.0000      -0.446386       -12.1468
  57   2.0000      -0.437227       -11.8976
  58   2.0000      -0.426758       -11.6127
  59   2.0000      -0.423251       -11.5172
  60   2.0000      -0.422425       -11.4948
  61   2.0000      -0.414738       -11.2856
  62   2.0000      -0.412270       -11.2184
  63   2.0000      -0.353144        -9.6095
  64   2.0000      -0.332642        -9.0516
  65   2.0000      -0.325130        -8.8472
  66   2.0000      -0.279935        -7.6174
  67   0.0000       0.027406         0.7458
  68   0.0000       0.066541         1.8107
  69   0.0000       0.104495         2.8435
  70   0.0000       0.118042         3.2121
  71   0.0000       0.130456         3.5499

MULLIKEN ATOMIC CHARGES
-----------------------
   0 S :    0.113904
   1 C :   -0.140663
   2 C :   -0.065349
   3 C :   -0.011241
   4 C :   -0.121872
   5 H :    0.025700
   6 C :    0.082846
   7 H :    0.049047
   8 H :    0.001223
   9 C :   -0.148554
  10 H :    0.044359
  11 H :    0.043520
  12 C :   -0.038673
  13 H :    0.037316
  14 H :    0.044207
  15 H :    0.028150
  16 S :    0.095269
  17 C :   -0.102101
  18 C :   -0.006078
  19 C :   -0.016647
  20 C :   -0.157660
  21 H :    0.005078
  22 C :    0.050703
  23 H :    0.020970
  24 H :    0.032407
  25 C :   -0.109625
  26 H :    0.026343
  27 H :    0.038496
  28 C :   -0.014368
  29 H :    0.024881
  30 H :    0.026801
  31 H :    0.018579
  32 H :    0.064380
  33 H :    0.058650
Sum of atomic charges:    0.0000000

LOEWDIN ATOMIC CHARGES
----------------------
   0 S :    0.422784
   1 C :   -0.219955
   2 C :   -0.063348
   3 C :   -0.064154
   4 C :   -0.192139
   5 H :    0.038677
   6 C :   -0.038416
   7 H :    0.040178
   8 H :    0.024083
   9 C :   -0.049629
  10 H :    0.024640
  11 H :    0.032352
  12 C :   -0.068310
  13 H :    0.032939
  14 H :    0.026875
  15 H :    0.023386
  16 S :    0.395157
  17 C :   -0.181066
  18 C :   -0.060065
  19 C :   -0.056137
  20 C :   -0.190687
  21 H :    0.026584
  22 C :   -0.041004
  23 H :    0.029303
  24 H :    0.035938
  25 C :   -0.042806
  26 H :    0.023478
  27 H :    0.026775
  28 C :   -0.063938
  29 H :    0.025365
  30 H :    0.030597
  31 H :    0.012961
  32 H :    0.033138
  33 H :    0.026445

  Mayer bond orders larger than 0.100000
B(  0-S ,  1-C ) :   1.1459 B(  0-S ,  4-C ) :   1.1565 B(  1-C ,  2-C ) :   1.5818
B(  1-C , 32-H ) :   0.9667 B(  2-C ,  3-C ) :   1.2178 B(  2-C ,  6-C ) :   1.0538
B(  3-C ,  4-C ) :   1.5433 B(  3-C ,  5-H ) :   0.9990 B(  4-C , 20-C ) :   1.0827
B(  6-C ,  7-H ) :   0.9254 B(  6-C ,  8-H ) :   0.9358 B(  6-C ,  9-C ) :   1.0551
B(  9-C , 10-H ) :   0.9499 B(  9-C , 11-H ) :   0.9608 B(  9-C , 12-C ) :   1.0900
B( 12-C , 13-H ) :   0.9733 B( 12-C , 14-H ) :   0.9743 B( 12-C , 15-H ) :   0.9702
B( 16-S , 17-C ) :   1.1552 B( 16-S , 20-C ) :   1.1331 B( 17-C , 18-C ) :   1.5980
B( 17-C , 33-H ) :   0.9689 B( 18-C , 19-C ) :   1.2327 B( 18-C , 21-H ) :   1.0022
B( 19-C , 20-C ) :   1.5757 B( 19-C , 22-C ) :   1.0574 B( 22-C , 23-H ) :   0.9215
B( 22-C , 24-H ) :   0.9378 B( 22-C , 25-C ) :   1.0562 B( 25-C , 26-H ) :   0.9599
B( 25-C , 27-H ) :   0.9490 B( 25-C , 28-C ) :   1.0871 B( 28-C , 29-H ) :   0.9726
B( 28-C , 30-H ) :   0.9704 B( 28-C , 31-H ) :   0.9737

Dispersion correction           -0.014130739
FINAL SINGLE POINT ENERGY     -1339.875761097323

DIPOLE MOMENT
-------------
                                X             Y             Z
Electronic contribution:     23.86560     -15.68166     -16.30656
Nuclear contribution   :    -24.29138      15.98688      16.47773
                        -----------------------------------------
Total Dipole Moment    :     -0.42578       0.30522       0.17117
                        -----------------------------------------
Magnitude (a.u.)       :      0.55113
Magnitude (Debye)      :      1.40087

Rotational constants in cm-1:     0.016894     0.009717     0.006589
Rotational constants in MHz :   506.462808   291.310930   197.543281

                             ****ORCA TERMINATED NORMALLY****
TOTAL RUN TIME: 0 days 0 hours 0 minutes 33 seconds 172 msec
