                         Program Version 4.2.1 -  RELEASE  -
|  1> ! wB97X-D3 SP def2-SVP
|  2> %pal
|  3> nprocs 16
|  4> end
|  5>
|  6> * xyz 0 1
|  7> S 	 -16.3115 	 54.3016 	 63.0332
|  8> C 	 -15.772 	 52.8094 	 62.2502
|  9> C 	 -14.326 	 52.7601 	 62.2108
| 10> C 	 -13.768 	 53.9665 	 62.6862
| 11> C 	 -14.6576 	 54.9435 	 63.1591
| 12> H 	 -12.708 	 54.2964 	 62.7127
| 13> C 	 -13.5171 	 51.5143 	 61.8968
| 14> H 	 -13.9045 	 51.1449 	 61.0015
| 15> H 	 -13.7767 	 50.705 	 62.7055
| 16> C 	 -12.0401 	 51.7623 	 61.8392
| 17> H 	 -11.8978 	 52.5446 	 61.1383
| 18> H 	 -11.6828 	 52.2714 	 62.7723
| 19> C 	 -11.239 	 50.4333 	 61.6621
| 20> H 	 -10.1639 	 50.5344 	 62.0134
| 21> H 	 -11.6847 	 49.5372 	 62.0763
| 22> H 	 -11.1878 	 50.2531 	 60.6166
| 23> S 	 -15.0556 	 57.7034 	 63.0048
| 24> C 	 -14.3058 	 58.7041 	 64.1743
| 25> C 	 -13.3989 	 58.0301 	 64.9318
| 26> C 	 -13.3037 	 56.6368 	 64.6558
| 27> C 	 -14.276 	 56.2447 	 63.689
| 28> H 	 -12.7835 	 58.485 	 65.6831
| 29> C 	 -12.2814 	 55.6247 	 65.2256
| 30> H 	 -12.713 	 54.5976 	 65.1792
| 31> H 	 -12.3225 	 55.9065 	 66.2299
| 32> C 	 -10.8781 	 55.6533 	 64.6319
| 33> H 	 -10.3462 	 56.6051 	 64.7754
| 34> H 	 -10.9833 	 55.3283 	 63.6039
| 35> C 	 -10.0782 	 54.6204 	 65.4641
| 36> H 	 -8.97429 	 54.8313 	 65.3569
| 37> H 	 -10.3719 	 53.5903 	 65.2162
| 38> H 	 -10.2348 	 54.7647 	 66.5263
| 39> H 	 -16.426 	 51.9272 	 62.0966
| 40> H 	 -14.586 	 59.7642 	 64.3181
| 41> *
| 42>
| 43>                          ****END OF INPUT****

CARTESIAN COORDINATES (ANGSTROEM)
---------------------------------
  S    -16.311500   54.301600   63.033200
  C    -15.772000   52.809400   62.250200
  C    -14.326000   52.760100   62.210800
  C    -13.768000   53.966500   62.686200
  C    -14.657600   54.943500   63.159100
  H    -12.708000   54.296400   62.712700
  C    -13.517100   51.514300   61.896800
  H    -13.904500   51.144900   61.001500
  H    -13.776700   50.705000   62.705500
  C    -12.040100   51.762300   61.839200
  H    -11.897800   52.544600   61.138300
  H    -11.682800   52.271400   62.772300
  C    -11.239000   50.433300   61.662100
  H    -10.163900   50.534400   62.013400
  H    -11.684700   49.537200   62.076300
  H    -11.187800   50.253100   60.616600
  S    -15.055600   57.703400   63.004800
  C    -14.305800   58.704100   64.174300
  C    -13.398900   58.030100   64.931800
  C    -13.303700   56.636800   64.655800
  C    -14.276000   56.244700   63.689000
  H    -12.783500   58.485000   65.683100
  C    -12.281400   55.624700   65.225600
  H    -12.713000   54.597600   65.179200
  H    -12.322500   55.906500   66.229900
  C    -10.878100   55.653300   64.631900
  H    -10.346200   56.605100   64.775400
  H    -10.983300   55.328300   63.603900
  C    -10.078200   54.620400   65.464100
  H     -8.974290   54.831300   65.356900
  H    -10.371900   53.590300   65.216200
  H    -10.234800   54.764700   66.526300
  H    -16.426000   51.927200   62.096600
  H    -14.586000   59.764200   64.318100

 Total Charge           Charge          ....    0
 Multiplicity           Mult            ....    1
 Number of Electrons    NEL             ....  134
 Basis Dimension        Dim             ....  322

ORBITAL ENERGIES
----------------

  NO   OCC          E(Eh)            E(eV)
   0   2.0000     -88.970838     -2421.0196
   1   2.0000     -88.963319     -2420.8150
   2   2.0000     -10.331844      -281.1438
   3   2.0000     -10.328962      -281.0653
   4   2.0000     -10.323691      -280.9219
   5   2.0000     -10.315211      -280.6912
   6   2.0000     -10.308515      -280.5090
   7   2.0000     -10.306413      -280.4517
   8   2.0000     -10.296986      -280.1952
   9   2.0000     -10.295800      -280.1629
  10   2.0000     -10.292326      -280.0684
  11   2.0000     -10.290739      -280.0253
  12   2.0000     -10.290492      -280.0185
  13   2.0000     -10.289367      -279.9879
  14   2.0000     -10.284026      -279.8426
  15   2.0000     -10.283774      -279.8357
  16   2.0000      -8.084063      -219.9785
  17   2.0000      -8.078251      -219.8204
  18   2.0000      -6.042542      -164.4259
  19   2.0000      -6.038610      -164.3189
  20   2.0000      -6.036677      -164.2663
  21   2.0000      -6.035103      -164.2235
  22   2.0000      -6.032714      -164.1585
  23   2.0000      -6.029105      -164.0603
  24   2.0000      -0.999459       -27.1967
  25   2.0000      -0.978346       -26.6221
  26   2.0000      -0.915577       -24.9141
  27   2.0000      -0.913335       -24.8531
  28   2.0000      -0.865516       -23.5519
  29   2.0000      -0.850972       -23.1561
  30   2.0000      -0.843070       -22.9411
  31   2.0000      -0.810036       -22.0422
  32   2.0000      -0.781328       -21.2610
  33   2.0000      -0.766984       -20.8707
  34   2.0000      -0.715643       -19.4736
  35   2.0000      -0.703059       -19.1312
  36   2.0000      -0.688920       -18.7465
  37   2.0000      -0.656061       -17.8523
  38   2.0000      -0.639692       -17.4069
  39   2.0000      -0.614438       -16.7197
  40   2.0000      -0.595629       -16.2079
  41   2.0000      -0.576187       -15.6788
  42   2.0000      -0.569476       -15.4962
  43   2.0000      -0.562306       -15.3011
  44   2.0000      -0.526596       -14.3294
  45   2.0000      -0.522031       -14.2052
  46   2.0000      -0.513572       -13.9750
  47   2.0000      -0.509627       -13.8677
  48   2.0000      -0.496677       -13.5153
  49   2.0000      -0.496363       -13.5067
  50   2.0000      -0.493740       -13.4353
  51   2.0000      -0.482552       -13.1309
  52   2.0000      -0.472785       -12.8651
  53   2.0000      -0.469625       -12.7792
  54   2.0000      -0.455973       -12.4077
  55   2.0000      -0.448068       -12.1926
  56   2.0000      -0.446361       -12.1461
  57   2.0000      -0.440276       -11.9805
  58   2.0000      -0.438075       -11.9206
  59   2.0000      -0.433474       -11.7954
  60   2.0000      -0.424155       -11.5418
  61   2.0000      -0.412500       -11.2247
  62   2.0000      -0.407376       -11.0853
  63   2.0000      -0.343443        -9.3456
  64   2.0000      -0.329966        -8.9788
  65   2.0000      -0.328482        -8.9384
  66   2.0000      -0.286150        -7.7865
  67   0.0000       0.021685         0.5901
  68   0.0000       0.065138         1.7725
  69   0.0000       0.109219         2.9720
  70   0.0000       0.117576         3.1994
  71   0.0000       0.124698         3.3932

MULLIKEN ATOMIC CHARGES
-----------------------
   0 S :    0.123131
   1 C :   -0.138938
   2 C :   -0.096073
   3 C :   -0.008349
   4 C :   -0.142189
   5 H :    0.010443
   6 C :    0.068857
   7 H :    0.017924
   8 H :    0.052577
   9 C :   -0.100542
  10 H :    0.027177
  11 H :    0.031083
  12 C :   -0.019606
  13 H :    0.044102
  14 H :    0.034223
  15 H :    0.023460
  16 S :    0.109011
  17 C :   -0.097389
  18 C :   -0.022121
  19 C :   -0.025677
  20 C :   -0.195832
  21 H :    0.005100
  22 C :    0.031149
  23 H :    0.041549
  24 H :    0.007510
  25 C :   -0.038007
  26 H :    0.038308
  27 H :    0.037047
  28 C :   -0.063334
  29 H :    0.041171
  30 H :    0.039981
  31 H :    0.024988
  32 H :    0.067657
  33 H :    0.071610
Sum of atomic charges:   -0.0000000

LOEWDIN ATOMIC CHARGES
----------------------
   0 S :    0.404734
   1 C :   -0.206550
   2 C :   -0.061633
   3 C :   -0.074469
   4 C :   -0.196932
   5 H :    0.033964
   6 C :   -0.032525
   7 H :    0.022898
   8 H :    0.044637
   9 C :   -0.046050
  10 H :    0.021752
  11 H :    0.024956
  12 C :   -0.063683
  13 H :    0.035662
  14 H :    0.026132
  15 H :    0.022112
  16 S :    0.406069
  17 C :   -0.198303
  18 C :   -0.078645
  19 C :   -0.046736
  20 C :   -0.195082
  21 H :    0.028222
  22 C :   -0.032937
  23 H :    0.038161
  24 H :    0.020630
  25 C :   -0.032812
  26 H :    0.030101
  27 H :    0.021916
  28 C :   -0.067717
  29 H :    0.030851
  30 H :    0.025025
  31 H :    0.022699
  32 H :    0.035756
  33 H :    0.037797

  Mayer bond orders larger than 0.100000
B(  0-S ,  1-C ) :   1.1620 B(  0-S ,  4-C ) :   1.1562 B(  1-C ,  2-C ) :   1.5467
B(  1-C ,  4-C ) :   0.1171 B(  1-C , 32-H ) :   0.9664 B(  2-C ,  3-C ) :   1.2888
B(  2-C ,  6-C ) :   1.0046 B(  3-C ,  4-C ) :   1.5186 B(  3-C ,  5-H ) :   0.9801
B(  4-C , 20-C ) :   1.0712 B(  6-C ,  7-H ) :   0.9312 B(  6-C ,  8-H ) :   0.9339
B(  6-C ,  9-C ) :   1.1009 B(  9-C , 10-H ) :   0.9531 B(  9-C , 11-H ) :   0.9452
B(  9-C , 12-C ) :   1.0570 B( 12-C , 13-H ) :   0.9763 B( 12-C , 14-H ) :   0.9767
B( 12-C , 15-H ) :   0.9747 B( 16-S , 17-C ) :   1.1661 B( 16-S , 20-C ) :   1.1435
B( 17-C , 18-C ) :   1.5787 B( 17-C , 33-H ) :   0.9627 B( 18-C , 19-C ) :   1.2726
B( 18-C , 21-H ) :   0.9944 B( 19-C , 20-C ) :   1.5514 B( 19-C , 22-C ) :   1.0234
B( 22-C , 23-H ) :   0.9363 B( 22-C , 24-H ) :   0.9263 B( 22-C , 25-C ) :   1.0729
B( 25-C , 26-H ) :   0.9530 B( 25-C , 27-H ) :   0.9501 B( 25-C , 28-C ) :   1.0745
B( 28-C , 29-H ) :   0.9754 B( 28-C , 30-H ) :   0.9749 B( 28-C , 31-H ) :   0.9726

Dispersion correction           -0.014528185
FINAL SINGLE POINT ENERGY     -1339.867806437470

DIPOLE MOMENT
-------------
                                X             Y             Z
Electronic contribution:    -27.57299      18.89070      -3.17222
Nuclear contribution   :     28.22301     -19.23955       3.41256
                        -----------------------------------------
Total Dipole Moment    :      0.65003      -0.34885       0.24034
                        -----------------------------------------
Magnitude (a.u.)       :      0.77588
Magnitude (Debye)      :      1.97214

Rotational constants in cm-1:     0.016699     0.009842     0.006683
Rotational constants in MHz :   500.620561   295.062854   200.339044

                             ****ORCA TERMINATED NORMALLY****
TOTAL RUN TIME: 0 days 0 hours 0 minutes 32 seconds 277 msec
