                         Program Version 4.2.1 -  RELEASE  -
|  1> ! wB97X-D3 SP def2-SVP
|  2> %pal
|  3> nprocs 16
|  4> end
|  5>
|  6> * xyz 0 1
|  7> S 	 -4.50191 	 75.3895 	 48.8813
|  8> C 	 -3.72208 	 75.6066 	 50.4673
|  9> C 	 -2.44476 	 76.1729 	 50.3484
| 10> C 	 -2.08179 	 76.1812 	 48.9288
| 11> C 	 -3.08829 	 75.8574 	 48.0381
| 12> H 	 -1.15729 	 76.523 	 48.4442
| 13> C 	 -1.51338 	 76.4915 	 51.4706
| 14> H 	 -0.722633 	 75.8183 	 51.6966
| 15> H 	 -2.2749 	 76.3434 	 52.2529
| 16> C 	 -1.00736 	 77.9756 	 51.5207
| 17> H 	 -0.518834 	 78.3014 	 50.6437
| 18> H 	 -1.92724 	 78.6373 	 51.5123
| 19> C 	 -0.0553833 	 78.1785 	 52.7199
| 20> H 	 0.901102 	 77.6477 	 52.7259
| 21> H 	 0.188951 	 79.252 	 52.9393
| 22> H 	 -0.54226 	 77.9657 	 53.669
| 23> S 	 -1.38623 	 75.3582 	 45.9217
| 24> C 	 -1.93464 	 75.6531 	 44.346
| 25> C 	 -3.31249 	 75.68 	 44.3085
| 26> C 	 -3.93005 	 75.7746 	 45.5728
| 27> C 	 -2.99608 	 75.6962 	 46.6086
| 28> H 	 -3.78565 	 75.6583 	 43.3374
| 29> C 	 -5.4393 	 75.9947 	 45.6868
| 30> H 	 -5.69051 	 76.9342 	 46.222
| 31> H 	 -5.91894 	 75.338 	 46.4597
| 32> C 	 -6.30058 	 75.9003 	 44.3823
| 33> H 	 -6.13996 	 74.9743 	 43.893
| 34> H 	 -6.15009 	 76.6061 	 43.5495
| 35> C 	 -7.80415 	 75.9341 	 44.7843
| 36> H 	 -8.3327 	 76.068 	 43.8687
| 37> H 	 -7.99 	 76.8136 	 45.3871
| 38> H 	 -8.11858 	 74.94 	 45.0813
| 39> H 	 -4.2546 	 75.5343 	 51.3639
| 40> H 	 -1.33422 	 75.3593 	 43.4775
| 41> *
| 42>
| 43>                          ****END OF INPUT****

CARTESIAN COORDINATES (ANGSTROEM)
---------------------------------
  S     -4.501910   75.389500   48.881300
  C     -3.722080   75.606600   50.467300
  C     -2.444760   76.172900   50.348400
  C     -2.081790   76.181200   48.928800
  C     -3.088290   75.857400   48.038100
  H     -1.157290   76.523000   48.444200
  C     -1.513380   76.491500   51.470600
  H     -0.722633   75.818300   51.696600
  H     -2.274900   76.343400   52.252900
  C     -1.007360   77.975600   51.520700
  H     -0.518834   78.301400   50.643700
  H     -1.927240   78.637300   51.512300
  C     -0.055383   78.178500   52.719900
  H      0.901102   77.647700   52.725900
  H      0.188951   79.252000   52.939300
  H     -0.542260   77.965700   53.669000
  S     -1.386230   75.358200   45.921700
  C     -1.934640   75.653100   44.346000
  C     -3.312490   75.680000   44.308500
  C     -3.930050   75.774600   45.572800
  C     -2.996080   75.696200   46.608600
  H     -3.785650   75.658300   43.337400
  C     -5.439300   75.994700   45.686800
  H     -5.690510   76.934200   46.222000
  H     -5.918940   75.338000   46.459700
  C     -6.300580   75.900300   44.382300
  H     -6.139960   74.974300   43.893000
  H     -6.150090   76.606100   43.549500
  C     -7.804150   75.934100   44.784300
  H     -8.332700   76.068000   43.868700
  H     -7.990000   76.813600   45.387100
  H     -8.118580   74.940000   45.081300
  H     -4.254600   75.534300   51.363900
  H     -1.334220   75.359300   43.477500

 Total Charge           Charge          ....    0
 Multiplicity           Mult            ....    1
 Number of Electrons    NEL             ....  134
 Basis Dimension        Dim             ....  322

ORBITAL ENERGIES
----------------

  NO   OCC          E(Eh)            E(eV)
   0   2.0000     -88.966049     -2420.8893
   1   2.0000     -88.965100     -2420.8634
   2   2.0000     -10.329272      -281.0738
   3   2.0000     -10.326168      -280.9893
   4   2.0000     -10.315936      -280.7109
   5   2.0000     -10.311563      -280.5919
   6   2.0000     -10.309849      -280.5452
   7   2.0000     -10.306575      -280.4562
   8   2.0000     -10.301133      -280.3081
   9   2.0000     -10.293106      -280.0896
  10   2.0000     -10.293015      -280.0872
  11   2.0000     -10.292944      -280.0852
  12   2.0000     -10.290574      -280.0208
  13   2.0000     -10.288630      -279.9679
  14   2.0000     -10.282473      -279.8003
  15   2.0000     -10.275621      -279.6139
  16   2.0000      -8.080708      -219.8872
  17   2.0000      -8.080251      -219.8748
  18   2.0000      -6.039341      -164.3388
  19   2.0000      -6.038667      -164.3205
  20   2.0000      -6.035189      -164.2258
  21   2.0000      -6.034707      -164.2127
  22   2.0000      -6.031411      -164.1231
  23   2.0000      -6.031094      -164.1144
  24   2.0000      -1.009528       -27.4707
  25   2.0000      -0.985291       -26.8111
  26   2.0000      -0.911958       -24.8156
  27   2.0000      -0.905928       -24.6516
  28   2.0000      -0.870467       -23.6866
  29   2.0000      -0.855130       -23.2693
  30   2.0000      -0.843140       -22.9430
  31   2.0000      -0.811360       -22.0782
  32   2.0000      -0.783346       -21.3159
  33   2.0000      -0.772634       -21.0244
  34   2.0000      -0.713090       -19.4042
  35   2.0000      -0.708890       -19.2899
  36   2.0000      -0.694950       -18.9106
  37   2.0000      -0.663686       -18.0598
  38   2.0000      -0.632410       -17.2087
  39   2.0000      -0.616114       -16.7653
  40   2.0000      -0.603466       -16.4211
  41   2.0000      -0.576722       -15.6934
  42   2.0000      -0.564360       -15.3570
  43   2.0000      -0.554602       -15.0915
  44   2.0000      -0.529948       -14.4206
  45   2.0000      -0.520282       -14.1576
  46   2.0000      -0.519129       -14.1262
  47   2.0000      -0.512480       -13.9453
  48   2.0000      -0.504580       -13.7303
  49   2.0000      -0.502417       -13.6715
  50   2.0000      -0.484686       -13.1890
  51   2.0000      -0.472253       -12.8506
  52   2.0000      -0.470073       -12.7913
  53   2.0000      -0.461830       -12.5670
  54   2.0000      -0.460143       -12.5211
  55   2.0000      -0.450229       -12.2513
  56   2.0000      -0.447260       -12.1706
  57   2.0000      -0.439550       -11.9608
  58   2.0000      -0.434296       -11.8178
  59   2.0000      -0.426997       -11.6192
  60   2.0000      -0.418587       -11.3903
  61   2.0000      -0.415384       -11.3032
  62   2.0000      -0.411796       -11.2055
  63   2.0000      -0.357672        -9.7328
  64   2.0000      -0.330608        -8.9963
  65   2.0000      -0.329324        -8.9614
  66   2.0000      -0.283463        -7.7134
  67   0.0000       0.019723         0.5367
  68   0.0000       0.079965         2.1760
  69   0.0000       0.106356         2.8941
  70   0.0000       0.120260         3.2724
  71   0.0000       0.124151         3.3783

MULLIKEN ATOMIC CHARGES
-----------------------
   0 S :    0.083292
   1 C :   -0.096052
   2 C :   -0.081622
   3 C :   -0.019732
   4 C :   -0.129188
   5 H :    0.019903
   6 C :    0.072775
   7 H :    0.041178
   8 H :    0.011799
   9 C :   -0.070674
  10 H :    0.029675
  11 H :    0.036503
  12 C :   -0.067354
  13 H :    0.043579
  14 H :    0.032873
  15 H :    0.021038
  16 S :    0.103906
  17 C :   -0.082434
  18 C :   -0.070931
  19 C :    0.007562
  20 C :   -0.126340
  21 H :    0.021082
  22 C :    0.010484
  23 H :    0.033671
  24 H :    0.038775
  25 C :   -0.095198
  26 H :    0.018801
  27 H :    0.037034
  28 C :   -0.018253
  29 H :    0.012287
  30 H :    0.041271
  31 H :    0.039049
  32 H :    0.034202
  33 H :    0.067042
Sum of atomic charges:    0.0000000

LOEWDIN ATOMIC CHARGES
----------------------
   0 S :    0.413488
   1 C :   -0.180959
   2 C :   -0.052881
   3 C :   -0.077324
   4 C :   -0.203467
   5 H :    0.025699
   6 C :   -0.031856
   7 H :    0.029279
   8 H :    0.036127
   9 C :   -0.037229
  10 H :    0.017133
  11 H :    0.035180
  12 C :   -0.078051
  13 H :    0.028116
  14 H :    0.032568
  15 H :    0.023693
  16 S :    0.424570
  17 C :   -0.209225
  18 C :   -0.072524
  19 C :   -0.058201
  20 C :   -0.184474
  21 H :    0.031295
  22 C :   -0.047905
  23 H :    0.036162
  24 H :    0.031927
  25 C :   -0.041232
  26 H :    0.017370
  27 H :    0.024423
  28 C :   -0.058087
  29 H :    0.022762
  30 H :    0.026963
  31 H :    0.028390
  32 H :    0.014430
  33 H :    0.033840

  Mayer bond orders larger than 0.100000
B(  0-S ,  1-C ) :   1.1335 B(  0-S ,  4-C ) :   1.1411 B(  1-C ,  2-C ) :   1.6179
B(  1-C , 32-H ) :   0.9676 B(  2-C ,  3-C ) :   1.2027 B(  2-C ,  6-C ) :   1.0223
B(  3-C ,  4-C ) :   1.5898 B(  3-C ,  5-H ) :   0.9808 B(  4-C , 20-C ) :   1.0828
B(  6-C ,  7-H ) :   0.9495 B(  6-C ,  8-H ) :   0.9369 B(  6-C ,  9-C ) :   1.0436
B(  9-C , 10-H ) :   0.9642 B(  9-C , 11-H ) :   0.9535 B(  9-C , 12-C ) :   1.0760
B( 12-C , 13-H ) :   0.9756 B( 12-C , 14-H ) :   0.9729 B( 12-C , 15-H ) :   0.9741
B( 16-S , 17-C ) :   1.1753 B( 16-S , 20-C ) :   1.1466 B( 17-C , 18-C ) :   1.5797
B( 17-C , 33-H ) :   0.9554 B( 18-C , 19-C ) :   1.2858 B( 18-C , 21-H ) :   0.9853
B( 19-C , 20-C ) :   1.5409 B( 19-C , 22-C ) :   1.0245 B( 22-C , 23-H ) :   0.9259
B( 22-C , 24-H ) :   0.9336 B( 22-C , 25-C ) :   1.0644 B( 25-C , 26-H ) :   0.9520
B( 25-C , 27-H ) :   0.9567 B( 25-C , 28-C ) :   1.0884 B( 28-C , 29-H ) :   0.9695
B( 28-C , 30-H ) :   0.9753 B( 28-C , 31-H ) :   0.9748

Dispersion correction           -0.013041671
FINAL SINGLE POINT ENERGY     -1339.862768125922

DIPOLE MOMENT
-------------
                                X             Y             Z
Electronic contribution:      5.68216      -9.44811      -7.11092
Nuclear contribution   :     -5.81657       9.56141       7.08446
                        -----------------------------------------
Total Dipole Moment    :     -0.13441       0.11329      -0.02647
                        -----------------------------------------
Magnitude (a.u.)       :      0.17777
Magnitude (Debye)      :      0.45185

Rotational constants in cm-1:     0.022987     0.006909     0.005675
Rotational constants in MHz :   689.127414   207.139483   170.134219

                             ****ORCA TERMINATED NORMALLY****
TOTAL RUN TIME: 0 days 0 hours 0 minutes 30 seconds 287 msec
