                         Program Version 4.2.1 -  RELEASE  -
|  1> ! wB97X-D3 SP def2-SVP
|  2> %pal
|  3> nprocs 16
|  4> end
|  5>
|  6> * xyz 0 1
|  7> S 	 58.6828 	 12.4778 	 57.8435
|  8> C 	 57.973 	 14.0577 	 57.7466
|  9> C 	 58.7131 	 14.915 	 56.9491
| 10> C 	 59.978 	 14.3471 	 56.5526
| 11> C 	 59.9607 	 12.9851 	 56.7424
| 12> H 	 60.783 	 14.7944 	 55.9788
| 13> C 	 58.2535 	 16.2942 	 56.6835
| 14> H 	 57.764 	 16.7136 	 57.5365
| 15> H 	 57.5365 	 16.2033 	 55.8789
| 16> C 	 59.5105 	 17.2693 	 56.2731
| 17> H 	 60.2715 	 17.0748 	 57.0275
| 18> H 	 59.9213 	 17.0852 	 55.2257
| 19> C 	 58.9802 	 18.7584 	 56.2796
| 20> H 	 59.7996 	 19.5064 	 56.1213
| 21> H 	 58.1948 	 18.7905 	 55.5809
| 22> H 	 58.4907 	 19.1229 	 57.2041
| 23> S 	 61.9433 	 11.0009 	 57.1587
| 24> C 	 62.6023 	 10.2067 	 55.7919
| 25> C 	 62.0192 	 10.6445 	 54.6557
| 26> C 	 61.0075 	 11.6628 	 54.8241
| 27> C 	 60.7612 	 11.9376 	 56.1647
| 28> H 	 62.3309 	 10.2408 	 53.6765
| 29> C 	 60.2433 	 12.1792 	 53.624
| 30> H 	 61.0447 	 12.0099 	 52.8412
| 31> H 	 60.2354 	 13.2442 	 53.582
| 32> C 	 58.9302 	 11.546 	 53.1948
| 33> H 	 58.8544 	 10.4076 	 53.135
| 34> H 	 58.7207 	 11.9351 	 52.1662
| 35> C 	 57.7633 	 12.1102 	 54.1109
| 36> H 	 57.6156 	 13.1658 	 53.979
| 37> H 	 58.0301 	 11.9224 	 55.1637
| 38> H 	 56.8332 	 11.5448 	 53.8967
| 39> H 	 57.0062 	 14.3379 	 58.1646
| 40> H 	 63.3806 	 9.43813 	 55.851
| 41> *
| 42>
| 43>                          ****END OF INPUT****

CARTESIAN COORDINATES (ANGSTROEM)
---------------------------------
  S     58.682800   12.477800   57.843500
  C     57.973000   14.057700   57.746600
  C     58.713100   14.915000   56.949100
  C     59.978000   14.347100   56.552600
  C     59.960700   12.985100   56.742400
  H     60.783000   14.794400   55.978800
  C     58.253500   16.294200   56.683500
  H     57.764000   16.713600   57.536500
  H     57.536500   16.203300   55.878900
  C     59.510500   17.269300   56.273100
  H     60.271500   17.074800   57.027500
  H     59.921300   17.085200   55.225700
  C     58.980200   18.758400   56.279600
  H     59.799600   19.506400   56.121300
  H     58.194800   18.790500   55.580900
  H     58.490700   19.122900   57.204100
  S     61.943300   11.000900   57.158700
  C     62.602300   10.206700   55.791900
  C     62.019200   10.644500   54.655700
  C     61.007500   11.662800   54.824100
  C     60.761200   11.937600   56.164700
  H     62.330900   10.240800   53.676500
  C     60.243300   12.179200   53.624000
  H     61.044700   12.009900   52.841200
  H     60.235400   13.244200   53.582000
  C     58.930200   11.546000   53.194800
  H     58.854400   10.407600   53.135000
  H     58.720700   11.935100   52.166200
  C     57.763300   12.110200   54.110900
  H     57.615600   13.165800   53.979000
  H     58.030100   11.922400   55.163700
  H     56.833200   11.544800   53.896700
  H     57.006200   14.337900   58.164600
  H     63.380600    9.438130   55.851000

 Total Charge           Charge          ....    0
 Multiplicity           Mult            ....    1
 Number of Electrons    NEL             ....  134
 Basis Dimension        Dim             ....  322

ORBITAL ENERGIES
----------------

  NO   OCC          E(Eh)            E(eV)
   0   2.0000     -88.964023     -2420.8341
   1   2.0000     -88.960639     -2420.7421
   2   2.0000     -10.327579      -281.0277
   3   2.0000     -10.326289      -280.9926
   4   2.0000     -10.314707      -280.6774
   5   2.0000     -10.309607      -280.5387
   6   2.0000     -10.305186      -280.4184
   7   2.0000     -10.304927      -280.4113
   8   2.0000     -10.300423      -280.2888
   9   2.0000     -10.298427      -280.2344
  10   2.0000     -10.295771      -280.1622
  11   2.0000     -10.294326      -280.1228
  12   2.0000     -10.291654      -280.0502
  13   2.0000     -10.291105      -280.0352
  14   2.0000     -10.283698      -279.8336
  15   2.0000     -10.271394      -279.4988
  16   2.0000      -8.078565      -219.8289
  17   2.0000      -8.075600      -219.7482
  18   2.0000      -6.036927      -164.2731
  19   2.0000      -6.034164      -164.1980
  20   2.0000      -6.033177      -164.1711
  21   2.0000      -6.029977      -164.0840
  22   2.0000      -6.029384      -164.0679
  23   2.0000      -6.026371      -163.9859
  24   2.0000      -1.006107       -27.3776
  25   2.0000      -0.984648       -26.7936
  26   2.0000      -0.906562       -24.6688
  27   2.0000      -0.903367       -24.5819
  28   2.0000      -0.867724       -23.6120
  29   2.0000      -0.846416       -23.0321
  30   2.0000      -0.839865       -22.8539
  31   2.0000      -0.816790       -22.2260
  32   2.0000      -0.780295       -21.2329
  33   2.0000      -0.765423       -20.8282
  34   2.0000      -0.715737       -19.4762
  35   2.0000      -0.694996       -18.9118
  36   2.0000      -0.686165       -18.6715
  37   2.0000      -0.653218       -17.7750
  38   2.0000      -0.644125       -17.5275
  39   2.0000      -0.617910       -16.8142
  40   2.0000      -0.598036       -16.2734
  41   2.0000      -0.568801       -15.4779
  42   2.0000      -0.560604       -15.2548
  43   2.0000      -0.545076       -14.8323
  44   2.0000      -0.531609       -14.4658
  45   2.0000      -0.523643       -14.2490
  46   2.0000      -0.516405       -14.0521
  47   2.0000      -0.510885       -13.9019
  48   2.0000      -0.501431       -13.6446
  49   2.0000      -0.494572       -13.4580
  50   2.0000      -0.483539       -13.1578
  51   2.0000      -0.482354       -13.1255
  52   2.0000      -0.474809       -12.9202
  53   2.0000      -0.466360       -12.6903
  54   2.0000      -0.455092       -12.3837
  55   2.0000      -0.452468       -12.3123
  56   2.0000      -0.440996       -12.0001
  57   2.0000      -0.437319       -11.9001
  58   2.0000      -0.434716       -11.8292
  59   2.0000      -0.428859       -11.6699
  60   2.0000      -0.417090       -11.3496
  61   2.0000      -0.408778       -11.1234
  62   2.0000      -0.398079       -10.8323
  63   2.0000      -0.338485        -9.2107
  64   2.0000      -0.331030        -9.0078
  65   2.0000      -0.327346        -8.9075
  66   2.0000      -0.295516        -8.0414
  67   0.0000       0.032756         0.8913
  68   0.0000       0.062025         1.6878
  69   0.0000       0.117650         3.2014
  70   0.0000       0.122285         3.3276
  71   0.0000       0.125597         3.4177

MULLIKEN ATOMIC CHARGES
-----------------------
   0 S :    0.111116
   1 C :   -0.106669
   2 C :   -0.127724
   3 C :    0.059823
   4 C :   -0.192160
   5 H :    0.021958
   6 C :    0.064879
   7 H :    0.029491
   8 H :    0.041496
   9 C :   -0.133924
  10 H :    0.049282
  11 H :    0.053694
  12 C :   -0.040975
  13 H :    0.045888
  14 H :    0.021910
  15 H :    0.027857
  16 S :    0.093482
  17 C :   -0.084292
  18 C :   -0.040695
  19 C :   -0.042365
  20 C :   -0.143015
  21 H :    0.022942
  22 C :    0.071829
  23 H :    0.013316
  24 H :    0.012606
  25 C :   -0.063423
  26 H :    0.047890
  27 H :    0.032518
  28 C :   -0.055797
  29 H :    0.027569
  30 H :    0.037499
  31 H :    0.033575
  32 H :    0.045853
  33 H :    0.064566
Sum of atomic charges:   -0.0000000

LOEWDIN ATOMIC CHARGES
----------------------
   0 S :    0.412445
   1 C :   -0.206183
   2 C :   -0.064886
   3 C :   -0.056263
   4 C :   -0.184434
   5 H :    0.036033
   6 C :   -0.027798
   7 H :    0.028955
   8 H :    0.034041
   9 C :   -0.037161
  10 H :    0.023208
  11 H :    0.032753
  12 C :   -0.071914
  13 H :    0.031347
  14 H :    0.017881
  15 H :    0.025552
  16 S :    0.390779
  17 C :   -0.191333
  18 C :   -0.082021
  19 C :   -0.051587
  20 C :   -0.197748
  21 H :    0.033693
  22 C :   -0.041903
  23 H :    0.036576
  24 H :    0.027068
  25 C :   -0.040549
  26 H :    0.033931
  27 H :    0.028051
  28 C :   -0.068151
  29 H :    0.019135
  30 H :    0.019346
  31 H :    0.026115
  32 H :    0.028380
  33 H :    0.036645

  Mayer bond orders larger than 0.100000
B(  0-S ,  1-C ) :   1.1286 B(  0-S ,  4-C ) :   1.1579 B(  1-C ,  2-C ) :   1.6334
B(  1-C , 32-H ) :   0.9698 B(  2-C ,  3-C ) :   1.2078 B(  2-C ,  6-C ) :   1.0210
B(  3-C ,  4-C ) :   1.5876 B(  3-C ,  5-H ) :   0.9934 B(  4-C , 20-C ) :   1.0217
B(  6-C ,  7-H ) :   0.9504 B(  6-C ,  8-H ) :   0.9252 B(  6-C ,  9-C ) :   1.0644
B(  9-C , 10-H ) :   0.9614 B(  9-C , 11-H ) :   0.9525 B(  9-C , 12-C ) :   1.0693
B( 12-C , 13-H ) :   0.9751 B( 12-C , 14-H ) :   0.9748 B( 12-C , 15-H ) :   0.9774
B( 16-S , 17-C ) :   1.1577 B( 16-S , 20-C ) :   1.1235 B( 17-C , 18-C ) :   1.6178
B( 17-C , 33-H ) :   0.9635 B( 18-C , 19-C ) :   1.2418 B( 18-C , 21-H ) :   0.9839
B( 19-C , 20-C ) :   1.5961 B( 19-C , 22-C ) :   1.0402 B( 22-C , 23-H ) :   0.9247
B( 22-C , 24-H ) :   0.9258 B( 22-C , 25-C ) :   1.0674 B( 25-C , 26-H ) :   0.9591
B( 25-C , 27-H ) :   0.9501 B( 25-C , 28-C ) :   1.0691 B( 28-C , 29-H ) :   0.9767
B( 28-C , 30-H ) :   0.9725 B( 28-C , 31-H ) :   0.9746

Dispersion correction           -0.015603723
FINAL SINGLE POINT ENERGY     -1339.871476396217

DIPOLE MOMENT
-------------
                                X             Y             Z
Electronic contribution:     10.07792     -19.94014      15.48525
Nuclear contribution   :    -10.17837      20.41259     -16.04624
                        -----------------------------------------
Total Dipole Moment    :     -0.10046       0.47245      -0.56100
                        -----------------------------------------
Magnitude (a.u.)       :      0.74028
Magnitude (Debye)      :      1.88165

Rotational constants in cm-1:     0.020111     0.008349     0.007745
Rotational constants in MHz :   602.907852   250.307299   232.197465

                             ****ORCA TERMINATED NORMALLY****
TOTAL RUN TIME: 0 days 0 hours 0 minutes 30 seconds 280 msec
