                         Program Version 4.2.1 -  RELEASE  -
|  1> ! wB97X-D3 SP def2-SVP
|  2> %pal
|  3> nprocs 16
|  4> end
|  5>
|  6> * xyz 0 1
|  7> S 	 6.90605 	 -20.4879 	 78.7005
|  8> C 	 7.86804 	 -21.8031 	 79.3328
|  9> C 	 8.23946 	 -21.5499 	 80.6511
| 10> C 	 7.65523 	 -20.3762 	 81.1901
| 11> C 	 6.84991 	 -19.7145 	 80.289
| 12> H 	 7.82624 	 -20.013 	 82.2083
| 13> C 	 9.27413 	 -22.4148 	 81.4807
| 14> H 	 10.3399 	 -22.2074 	 81.3738
| 15> H 	 9.22042 	 -23.3439 	 80.995
| 16> C 	 8.9149 	 -22.6628 	 82.9294
| 17> H 	 9.12698 	 -21.8224 	 83.6575
| 18> H 	 7.91056 	 -22.9391 	 83.1759
| 19> C 	 9.68775 	 -23.8245 	 83.428
| 20> H 	 9.44218 	 -24.7655 	 83.0124
| 21> H 	 10.7879 	 -23.6251 	 83.3623
| 22> H 	 9.44528 	 -24.0064 	 84.4807
| 23> S 	 4.55577 	 -18.0584 	 79.8348
| 24> C 	 4.74079 	 -16.3498 	 80.1054
| 25> C 	 6.05258 	 -16.0093 	 80.2284
| 26> C 	 6.95035 	 -17.1436 	 80.2211
| 27> C 	 6.2779 	 -18.3579 	 80.2856
| 28> H 	 6.33124 	 -14.947 	 80.2429
| 29> C 	 8.44226 	 -17.0366 	 80.072
| 30> H 	 8.74476 	 -17.9563 	 80.5858
| 31> H 	 8.78358 	 -16.0714 	 80.5445
| 32> C 	 8.95305 	 -17.144 	 78.5991
| 33> H 	 8.39587 	 -16.4222 	 77.9405
| 34> H 	 8.78562 	 -18.0523 	 78.1362
| 35> C 	 10.4748 	 -16.9254 	 78.3314
| 36> H 	 11.0535 	 -17.5786 	 79.0095
| 37> H 	 10.6597 	 -15.8521 	 78.3716
| 38> H 	 10.6418 	 -17.1167 	 77.2416
| 39> H 	 8.39726 	 -22.528 	 78.79
| 40> H 	 4.12258 	 -15.5537 	 79.8433
| 41> *
| 42>
| 43>                          ****END OF INPUT****

CARTESIAN COORDINATES (ANGSTROEM)
---------------------------------
  S      6.906050  -20.487900   78.700500
  C      7.868040  -21.803100   79.332800
  C      8.239460  -21.549900   80.651100
  C      7.655230  -20.376200   81.190100
  C      6.849910  -19.714500   80.289000
  H      7.826240  -20.013000   82.208300
  C      9.274130  -22.414800   81.480700
  H     10.339900  -22.207400   81.373800
  H      9.220420  -23.343900   80.995000
  C      8.914900  -22.662800   82.929400
  H      9.126980  -21.822400   83.657500
  H      7.910560  -22.939100   83.175900
  C      9.687750  -23.824500   83.428000
  H      9.442180  -24.765500   83.012400
  H     10.787900  -23.625100   83.362300
  H      9.445280  -24.006400   84.480700
  S      4.555770  -18.058400   79.834800
  C      4.740790  -16.349800   80.105400
  C      6.052580  -16.009300   80.228400
  C      6.950350  -17.143600   80.221100
  C      6.277900  -18.357900   80.285600
  H      6.331240  -14.947000   80.242900
  C      8.442260  -17.036600   80.072000
  H      8.744760  -17.956300   80.585800
  H      8.783580  -16.071400   80.544500
  C      8.953050  -17.144000   78.599100
  H      8.395870  -16.422200   77.940500
  H      8.785620  -18.052300   78.136200
  C     10.474800  -16.925400   78.331400
  H     11.053500  -17.578600   79.009500
  H     10.659700  -15.852100   78.371600
  H     10.641800  -17.116700   77.241600
  H      8.397260  -22.528000   78.790000
  H      4.122580  -15.553700   79.843300

 Total Charge           Charge          ....    0
 Multiplicity           Mult            ....    1
 Number of Electrons    NEL             ....  134
 Basis Dimension        Dim             ....  322

ORBITAL ENERGIES
----------------

  NO   OCC          E(Eh)            E(eV)
   0   2.0000     -88.969537     -2420.9842
   1   2.0000     -88.963811     -2420.8284
   2   2.0000     -10.333789      -281.1967
   3   2.0000     -10.328776      -281.0603
   4   2.0000     -10.313206      -280.6366
   5   2.0000     -10.310333      -280.5584
   6   2.0000     -10.306210      -280.4462
   7   2.0000     -10.304597      -280.4023
   8   2.0000     -10.299054      -280.2515
   9   2.0000     -10.294990      -280.1409
  10   2.0000     -10.294915      -280.1389
  11   2.0000     -10.292682      -280.0781
  12   2.0000     -10.285847      -279.8921
  13   2.0000     -10.281514      -279.7742
  14   2.0000     -10.281242      -279.7668
  15   2.0000     -10.274683      -279.5883
  16   2.0000      -8.083548      -219.9645
  17   2.0000      -8.077873      -219.8101
  18   2.0000      -6.042047      -164.4125
  19   2.0000      -6.038144      -164.3063
  20   2.0000      -6.036551      -164.2629
  21   2.0000      -6.034326      -164.2024
  22   2.0000      -6.032701      -164.1581
  23   2.0000      -6.028241      -164.0368
  24   2.0000      -1.005051       -27.3488
  25   2.0000      -0.982935       -26.7470
  26   2.0000      -0.919518       -25.0213
  27   2.0000      -0.901876       -24.5413
  28   2.0000      -0.871879       -23.7250
  29   2.0000      -0.851546       -23.1718
  30   2.0000      -0.844189       -22.9715
  31   2.0000      -0.820416       -22.3246
  32   2.0000      -0.783450       -21.3188
  33   2.0000      -0.768416       -20.9097
  34   2.0000      -0.711868       -19.3709
  35   2.0000      -0.694970       -18.9111
  36   2.0000      -0.690371       -18.7859
  37   2.0000      -0.654888       -17.8204
  38   2.0000      -0.647955       -17.6317
  39   2.0000      -0.622579       -16.9412
  40   2.0000      -0.586705       -15.9650
  41   2.0000      -0.578431       -15.7399
  42   2.0000      -0.565687       -15.3931
  43   2.0000      -0.561218       -15.2715
  44   2.0000      -0.529898       -14.4193
  45   2.0000      -0.524160       -14.2631
  46   2.0000      -0.518572       -14.1111
  47   2.0000      -0.509109       -13.8536
  48   2.0000      -0.505051       -13.7431
  49   2.0000      -0.501509       -13.6468
  50   2.0000      -0.494880       -13.4664
  51   2.0000      -0.476370       -12.9627
  52   2.0000      -0.471205       -12.8221
  53   2.0000      -0.461294       -12.5525
  54   2.0000      -0.459290       -12.4979
  55   2.0000      -0.447021       -12.1640
  56   2.0000      -0.446201       -12.1417
  57   2.0000      -0.438582       -11.9344
  58   2.0000      -0.427001       -11.6193
  59   2.0000      -0.423860       -11.5338
  60   2.0000      -0.417051       -11.3485
  61   2.0000      -0.414904       -11.2901
  62   2.0000      -0.412747       -11.2314
  63   2.0000      -0.339871        -9.2483
  64   2.0000      -0.332856        -9.0575
  65   2.0000      -0.325535        -8.8583
  66   2.0000      -0.299463        -8.1488
  67   0.0000       0.030423         0.8279
  68   0.0000       0.053456         1.4546
  69   0.0000       0.106932         2.9098
  70   0.0000       0.119940         3.2637
  71   0.0000       0.131292         3.5726

MULLIKEN ATOMIC CHARGES
-----------------------
   0 S :    0.110578
   1 C :   -0.076206
   2 C :   -0.125503
   3 C :    0.042588
   4 C :   -0.152649
   5 H :    0.027128
   6 C :    0.103179
   7 H :    0.039869
   8 H :   -0.003381
   9 C :   -0.077599
  10 H :    0.036222
  11 H :    0.024953
  12 C :   -0.065845
  13 H :    0.024331
  14 H :    0.032147
  15 H :    0.022948
  16 S :    0.092404
  17 C :   -0.036862
  18 C :   -0.060569
  19 C :   -0.045431
  20 C :   -0.175303
  21 H :    0.025292
  22 C :    0.103005
  23 H :    0.025048
  24 H :    0.033853
  25 C :   -0.080031
  26 H :    0.020935
  27 H :    0.008175
  28 C :   -0.052061
  29 H :    0.047327
  30 H :    0.028135
  31 H :    0.035397
  32 H :    0.029658
  33 H :    0.038269
Sum of atomic charges:   -0.0000000

LOEWDIN ATOMIC CHARGES
----------------------
   0 S :    0.414574
   1 C :   -0.196721
   2 C :   -0.058575
   3 C :   -0.060326
   4 C :   -0.182397
   5 H :    0.038742
   6 C :   -0.028739
   7 H :    0.035844
   8 H :    0.024978
   9 C :   -0.050215
  10 H :    0.029436
  11 H :    0.025667
  12 C :   -0.064035
  13 H :    0.017048
  14 H :    0.026174
  15 H :    0.027205
  16 S :    0.381727
  17 C :   -0.180216
  18 C :   -0.074832
  19 C :   -0.046688
  20 C :   -0.199700
  21 H :    0.034232
  22 C :   -0.035751
  23 H :    0.035919
  24 H :    0.035039
  25 C :   -0.040804
  26 H :    0.024703
  27 H :    0.006907
  28 C :   -0.065805
  29 H :    0.028248
  30 H :    0.021521
  31 H :    0.033027
  32 H :    0.019489
  33 H :    0.024323

  Mayer bond orders larger than 0.100000
B(  0-S ,  1-C ) :   1.1389 B(  0-S ,  4-C ) :   1.1648 B(  1-C ,  2-C ) :   1.6298
B(  1-C , 32-H ) :   0.9686 B(  2-C ,  3-C ) :   1.2500 B(  2-C ,  6-C ) :   0.9952
B(  3-C ,  4-C ) :   1.5822 B(  3-C ,  5-H ) :   0.9964 B(  4-C , 20-C ) :   1.0187
B(  6-C ,  7-H ) :   0.9389 B(  6-C ,  8-H ) :   0.9378 B(  6-C ,  9-C ) :   1.0665
B(  9-C , 10-H ) :   0.9471 B(  9-C , 11-H ) :   0.9559 B(  9-C , 12-C ) :   1.0993
B( 12-C , 13-H ) :   0.9740 B( 12-C , 14-H ) :   0.9719 B( 12-C , 15-H ) :   0.9695
B( 16-S , 17-C ) :   1.1444 B( 16-S , 20-C ) :   1.1132 B( 17-C , 18-C ) :   1.6433
B( 17-C , 33-H ) :   0.9627 B( 18-C , 19-C ) :   1.2274 B( 18-C , 21-H ) :   0.9854
B( 19-C , 20-C ) :   1.5948 B( 19-C , 22-C ) :   1.0480 B( 22-C , 23-H ) :   0.9138
B( 22-C , 24-H ) :   0.9386 B( 22-C , 25-C ) :   1.0581 B( 25-C , 26-H ) :   0.9570
B( 25-C , 27-H ) :   0.9545 B( 25-C , 28-C ) :   1.0841 B( 28-C , 29-H ) :   0.9750
B( 28-C , 30-H ) :   0.9787 B( 28-C , 31-H ) :   0.9738

Dispersion correction           -0.014298409
FINAL SINGLE POINT ENERGY     -1339.849798259438

DIPOLE MOMENT
-------------
                                X             Y             Z
Electronic contribution:    -24.45652       5.70576      -8.65009
Nuclear contribution   :     25.15632      -5.66150       8.72263
                        -----------------------------------------
Total Dipole Moment    :      0.69980       0.04426       0.07254
                        -----------------------------------------
Magnitude (a.u.)       :      0.70494
Magnitude (Debye)      :      1.79182

Rotational constants in cm-1:     0.019380     0.007924     0.006939
Rotational constants in MHz :   580.987408   237.546909   208.037071

                             ****ORCA TERMINATED NORMALLY****
TOTAL RUN TIME: 0 days 0 hours 0 minutes 37 seconds 47 msec
