                         Program Version 4.2.1 -  RELEASE  -
|  1> ! wB97X-D3 SP def2-SVP
|  2> %pal
|  3> nprocs 16
|  4> end
|  5>
|  6> * xyz 0 1
|  7> S 	 9.51867 	 -12.8114 	 95.146
|  8> C 	 10.9251 	 -12.6975 	 94.0379
|  9> C 	 10.5546 	 -12.0082 	 92.8838
| 10> C 	 9.19551 	 -11.4788 	 93.0545
| 11> C 	 8.37636 	 -12.0429 	 94.041
| 12> H 	 8.67054 	 -10.8294 	 92.4771
| 13> C 	 11.3576 	 -11.7722 	 91.62
| 14> H 	 12.1871 	 -11.0472 	 91.8568
| 15> H 	 10.7041 	 -11.3777 	 90.8326
| 16> C 	 12.0848 	 -13.0814 	 91.2061
| 17> H 	 12.8142 	 -12.8456 	 90.4739
| 18> H 	 12.6251 	 -13.631 	 92.0325
| 19> C 	 11.1681 	 -14.02 	 90.4442
| 20> H 	 10.6731 	 -13.6145 	 89.584
| 21> H 	 11.789 	 -14.814 	 90.0432
| 22> H 	 10.3347 	 -14.4714 	 91.0295
| 23> S 	 6.57462 	 -11.3976 	 95.9951
| 24> C 	 4.82823 	 -11.6443 	 95.749
| 25> C 	 4.70147 	 -12.0999 	 94.4911
| 26> C 	 5.84409 	 -12.235 	 93.6177
| 27> C 	 6.97937 	 -11.951 	 94.3919
| 28> H 	 3.6147 	 -12.4581 	 94.4252
| 29> C 	 5.83354 	 -12.807 	 92.2302
| 30> H 	 5.07001 	 -13.5196 	 92.0092
| 31> H 	 6.69287 	 -13.4774 	 92.1403
| 32> C 	 5.92976 	 -11.7552 	 91.1443
| 33> H 	 6.88985 	 -11.2007 	 91.2224
| 34> H 	 5.17952 	 -10.9738 	 91.2007
| 35> C 	 5.81216 	 -12.4319 	 89.7974
| 36> H 	 6.60594 	 -13.1496 	 89.6297
| 37> H 	 5.85066 	 -11.7405 	 88.9377
| 38> H 	 4.85398 	 -12.9534 	 89.7719
| 39> H 	 11.8581 	 -13.1625 	 94.2741
| 40> H 	 3.89438 	 -11.5663 	 96.3519
| 41> *
| 42>
| 43>                          ****END OF INPUT****

CARTESIAN COORDINATES (ANGSTROEM)
---------------------------------
  S      9.518670  -12.811400   95.146000
  C     10.925100  -12.697500   94.037900
  C     10.554600  -12.008200   92.883800
  C      9.195510  -11.478800   93.054500
  C      8.376360  -12.042900   94.041000
  H      8.670540  -10.829400   92.477100
  C     11.357600  -11.772200   91.620000
  H     12.187100  -11.047200   91.856800
  H     10.704100  -11.377700   90.832600
  C     12.084800  -13.081400   91.206100
  H     12.814200  -12.845600   90.473900
  H     12.625100  -13.631000   92.032500
  C     11.168100  -14.020000   90.444200
  H     10.673100  -13.614500   89.584000
  H     11.789000  -14.814000   90.043200
  H     10.334700  -14.471400   91.029500
  S      6.574620  -11.397600   95.995100
  C      4.828230  -11.644300   95.749000
  C      4.701470  -12.099900   94.491100
  C      5.844090  -12.235000   93.617700
  C      6.979370  -11.951000   94.391900
  H      3.614700  -12.458100   94.425200
  C      5.833540  -12.807000   92.230200
  H      5.070010  -13.519600   92.009200
  H      6.692870  -13.477400   92.140300
  C      5.929760  -11.755200   91.144300
  H      6.889850  -11.200700   91.222400
  H      5.179520  -10.973800   91.200700
  C      5.812160  -12.431900   89.797400
  H      6.605940  -13.149600   89.629700
  H      5.850660  -11.740500   88.937700
  H      4.853980  -12.953400   89.771900
  H     11.858100  -13.162500   94.274100
  H      3.894380  -11.566300   96.351900

 Total Charge           Charge          ....    0
 Multiplicity           Mult            ....    1
 Number of Electrons    NEL             ....  134
 Basis Dimension        Dim             ....  322

ORBITAL ENERGIES
----------------

  NO   OCC          E(Eh)            E(eV)
   0   2.0000     -88.966033     -2420.8888
   1   2.0000     -88.958733     -2420.6902
   2   2.0000     -10.333747      -281.1956
   3   2.0000     -10.332860      -281.1714
   4   2.0000     -10.320569      -280.8370
   5   2.0000     -10.317900      -280.7643
   6   2.0000     -10.311805      -280.5985
   7   2.0000     -10.311616      -280.5933
   8   2.0000     -10.302605      -280.3481
   9   2.0000     -10.295670      -280.1594
  10   2.0000     -10.293781      -280.1080
  11   2.0000     -10.291849      -280.0554
  12   2.0000     -10.290183      -280.0101
  13   2.0000     -10.285211      -279.8748
  14   2.0000     -10.277159      -279.6557
  15   2.0000     -10.274439      -279.5817
  16   2.0000      -8.080239      -219.8745
  17   2.0000      -8.072892      -219.6746
  18   2.0000      -6.038979      -164.3290
  19   2.0000      -6.034749      -164.2139
  20   2.0000      -6.031609      -164.1284
  21   2.0000      -6.030787      -164.1061
  22   2.0000      -6.027377      -164.0133
  23   2.0000      -6.023536      -163.9088
  24   2.0000      -1.005785       -27.3688
  25   2.0000      -0.979102       -26.6427
  26   2.0000      -0.917573       -24.9684
  27   2.0000      -0.914010       -24.8715
  28   2.0000      -0.873333       -23.7646
  29   2.0000      -0.850377       -23.1399
  30   2.0000      -0.839534       -22.8449
  31   2.0000      -0.820226       -22.3195
  32   2.0000      -0.782014       -21.2797
  33   2.0000      -0.773260       -21.0415
  34   2.0000      -0.711648       -19.3649
  35   2.0000      -0.704804       -19.1787
  36   2.0000      -0.699947       -19.0465
  37   2.0000      -0.654652       -17.8140
  38   2.0000      -0.641161       -17.4469
  39   2.0000      -0.611158       -16.6305
  40   2.0000      -0.596039       -16.2190
  41   2.0000      -0.577595       -15.7172
  42   2.0000      -0.566334       -15.4107
  43   2.0000      -0.552630       -15.0378
  44   2.0000      -0.540763       -14.7149
  45   2.0000      -0.526436       -14.3251
  46   2.0000      -0.522843       -14.2273
  47   2.0000      -0.519983       -14.1495
  48   2.0000      -0.509202       -13.8561
  49   2.0000      -0.503655       -13.7052
  50   2.0000      -0.492052       -13.3894
  51   2.0000      -0.481273       -13.0961
  52   2.0000      -0.471243       -12.8232
  53   2.0000      -0.461874       -12.5682
  54   2.0000      -0.452437       -12.3114
  55   2.0000      -0.445830       -12.1317
  56   2.0000      -0.445054       -12.1105
  57   2.0000      -0.438538       -11.9332
  58   2.0000      -0.425761       -11.5856
  59   2.0000      -0.424657       -11.5555
  60   2.0000      -0.418647       -11.3920
  61   2.0000      -0.414869       -11.2891
  62   2.0000      -0.408018       -11.1027
  63   2.0000      -0.348626        -9.4866
  64   2.0000      -0.329308        -8.9609
  65   2.0000      -0.319506        -8.6942
  66   2.0000      -0.296097        -8.0572
  67   0.0000       0.023408         0.6370
  68   0.0000       0.067066         1.8250
  69   0.0000       0.111042         3.0216
  70   0.0000       0.121230         3.2988
  71   0.0000       0.126181         3.4336

MULLIKEN ATOMIC CHARGES
-----------------------
   0 S :    0.078081
   1 C :   -0.119424
   2 C :   -0.078391
   3 C :    0.074456
   4 C :   -0.172471
   5 H :   -0.034773
   6 C :    0.071544
   7 H :    0.053806
   8 H :    0.033013
   9 C :   -0.079372
  10 H :    0.019656
  11 H :    0.043020
  12 C :   -0.057564
  13 H :    0.018258
  14 H :    0.027864
  15 H :    0.042210
  16 S :    0.109394
  17 C :   -0.110017
  18 C :   -0.082928
  19 C :    0.031771
  20 C :   -0.155940
  21 H :    0.037336
  22 C :    0.067523
  23 H :    0.010668
  24 H :    0.025931
  25 C :   -0.073243
  26 H :    0.020829
  27 H :    0.028308
  28 C :   -0.036367
  29 H :    0.024818
  30 H :    0.033855
  31 H :    0.027361
  32 H :    0.049683
  33 H :    0.071107
Sum of atomic charges:    0.0000000

LOEWDIN ATOMIC CHARGES
----------------------
   0 S :    0.375021
   1 C :   -0.177098
   2 C :   -0.058726
   3 C :   -0.053141
   4 C :   -0.185323
   5 H :    0.005666
   6 C :   -0.030749
   7 H :    0.042852
   8 H :    0.033366
   9 C :   -0.040529
  10 H :    0.020271
  11 H :    0.032697
  12 C :   -0.069059
  13 H :    0.019558
  14 H :    0.025653
  15 H :    0.028348
  16 S :    0.396947
  17 C :   -0.199487
  18 C :   -0.086353
  19 C :   -0.050214
  20 C :   -0.196663
  21 H :    0.043580
  22 C :   -0.032533
  23 H :    0.028231
  24 H :    0.038021
  25 C :   -0.039646
  26 H :    0.022776
  27 H :    0.022994
  28 C :   -0.064171
  29 H :    0.022214
  30 H :    0.026836
  31 H :    0.024746
  32 H :    0.023151
  33 H :    0.050768

  Mayer bond orders larger than 0.100000
B(  0-S ,  1-C ) :   1.1349 B(  0-S ,  4-C ) :   1.1293 B(  1-C ,  2-C ) :   1.5980
B(  1-C ,  4-C ) :   0.1037 B(  1-C , 32-H ) :   0.9765 B(  2-C ,  3-C ) :   1.2039
B(  2-C ,  6-C ) :   1.0211 B(  3-C ,  4-C ) :   1.5911 B(  3-C ,  5-H ) :   1.0027
B(  4-C , 20-C ) :   1.0544 B(  6-C ,  7-H ) :   0.9339 B(  6-C ,  8-H ) :   0.9481
B(  6-C ,  9-C ) :   1.0725 B(  9-C , 10-H ) :   0.9536 B(  9-C , 11-H ) :   0.9552
B(  9-C , 12-C ) :   1.0771 B( 12-C , 13-H ) :   0.9736 B( 12-C , 14-H ) :   0.9739
B( 12-C , 15-H ) :   0.9765 B( 16-S , 17-C ) :   1.1039 B( 16-S , 20-C ) :   1.1547
B( 17-C , 18-C ) :   1.6940 B( 17-C , 33-H ) :   0.9597 B( 18-C , 19-C ) :   1.1953
B( 18-C , 21-H ) :   0.9689 B( 19-C , 20-C ) :   1.5754 B( 19-C , 22-C ) :   1.0435
B( 22-C , 23-H ) :   0.9447 B( 22-C , 24-H ) :   0.9238 B( 22-C , 25-C ) :   1.0558
B( 25-C , 26-H ) :   0.9470 B( 25-C , 27-H ) :   0.9553 B( 25-C , 28-C ) :   1.0893
B( 28-C , 29-H ) :   0.9725 B( 28-C , 30-H ) :   0.9726 B( 28-C , 31-H ) :   0.9722

Dispersion correction           -0.014389336
FINAL SINGLE POINT ENERGY     -1339.849462539747

DIPOLE MOMENT
-------------
                                X             Y             Z
Electronic contribution:     -4.03297       5.58954      30.16050
Nuclear contribution   :      4.00287      -5.72359     -30.94587
                        -----------------------------------------
Total Dipole Moment    :     -0.03011      -0.13405      -0.78538
                        -----------------------------------------
Magnitude (a.u.)       :      0.79730
Magnitude (Debye)      :      2.02658

Rotational constants in cm-1:     0.018535     0.009588     0.006786
Rotational constants in MHz :   555.665649   287.433465   203.434980

                             ****ORCA TERMINATED NORMALLY****
TOTAL RUN TIME: 0 days 0 hours 0 minutes 34 seconds 852 msec
