                         Program Version 4.2.1 -  RELEASE  -
|  1> ! wB97X-D3 SP def2-SVP
|  2> %pal
|  3> nprocs 16
|  4> end
|  5>
|  6> * xyz 0 1
|  7> S 	 9.26753 	 -6.97272 	 93.0525
|  8> C 	 10.0016 	 -7.81343 	 94.3464
|  9> C 	 11.2 	 -7.20066 	 94.695
| 10> C 	 11.5418 	 -6.06767 	 93.9095
| 11> C 	 10.6132 	 -5.74394 	 92.9776
| 12> H 	 12.4509 	 -5.5939 	 94.0174
| 13> C 	 11.9981 	 -7.74054 	 95.924
| 14> H 	 13.0543 	 -7.81428 	 95.6162
| 15> H 	 11.6688 	 -8.75766 	 96.1254
| 16> C 	 11.8059 	 -6.77593 	 97.1531
| 17> H 	 12.549 	 -7.01241 	 97.8677
| 18> H 	 12.0542 	 -5.75633 	 96.9071
| 19> C 	 10.5071 	 -6.8166 	 97.8732
| 20> H 	 10.2559 	 -7.76735 	 98.3477
| 21> H 	 10.4548 	 -6.04374 	 98.6457
| 22> H 	 9.7927 	 -6.60956 	 97.1108
| 23> S 	 9.99486 	 -4.74451 	 90.5863
| 24> C 	 10.3335 	 -3.15015 	 90.125
| 25> C 	 11.1375 	 -2.53514 	 91.0586
| 26> C 	 11.3492 	 -3.30075 	 92.2572
| 27> C 	 10.7784 	 -4.57381 	 92.1043
| 28> H 	 11.4791 	 -1.53504 	 90.8547
| 29> C 	 11.9822 	 -2.83905 	 93.5944
| 30> H 	 12.6036 	 -1.94332 	 93.349
| 31> H 	 12.7414 	 -3.52424 	 94.0727
| 32> C 	 10.9863 	 -2.48677 	 94.7333
| 33> H 	 10.221 	 -3.29351 	 94.7465
| 34> H 	 10.5758 	 -1.51915 	 94.4509
| 35> C 	 11.6878 	 -2.25992 	 96.1093
| 36> H 	 11.0337 	 -1.87147 	 96.7478
| 37> H 	 12.5276 	 -1.64895 	 95.9799
| 38> H 	 11.8969 	 -3.23039 	 96.3997
| 39> H 	 9.82859 	 -8.744 	 94.83
| 40> H 	 9.98875 	 -2.73616 	 89.2003
| 41> *
| 42>
| 43>                          ****END OF INPUT****

CARTESIAN COORDINATES (ANGSTROEM)
---------------------------------
  S      9.267530   -6.972720   93.052500
  C     10.001600   -7.813430   94.346400
  C     11.200000   -7.200660   94.695000
  C     11.541800   -6.067670   93.909500
  C     10.613200   -5.743940   92.977600
  H     12.450900   -5.593900   94.017400
  C     11.998100   -7.740540   95.924000
  H     13.054300   -7.814280   95.616200
  H     11.668800   -8.757660   96.125400
  C     11.805900   -6.775930   97.153100
  H     12.549000   -7.012410   97.867700
  H     12.054200   -5.756330   96.907100
  C     10.507100   -6.816600   97.873200
  H     10.255900   -7.767350   98.347700
  H     10.454800   -6.043740   98.645700
  H      9.792700   -6.609560   97.110800
  S      9.994860   -4.744510   90.586300
  C     10.333500   -3.150150   90.125000
  C     11.137500   -2.535140   91.058600
  C     11.349200   -3.300750   92.257200
  C     10.778400   -4.573810   92.104300
  H     11.479100   -1.535040   90.854700
  C     11.982200   -2.839050   93.594400
  H     12.603600   -1.943320   93.349000
  H     12.741400   -3.524240   94.072700
  C     10.986300   -2.486770   94.733300
  H     10.221000   -3.293510   94.746500
  H     10.575800   -1.519150   94.450900
  C     11.687800   -2.259920   96.109300
  H     11.033700   -1.871470   96.747800
  H     12.527600   -1.648950   95.979900
  H     11.896900   -3.230390   96.399700
  H      9.828590   -8.744000   94.830000
  H      9.988750   -2.736160   89.200300

 Total Charge           Charge          ....    0
 Multiplicity           Mult            ....    1
 Number of Electrons    NEL             ....  134
 Basis Dimension        Dim             ....  322

ORBITAL ENERGIES
----------------

  NO   OCC          E(Eh)            E(eV)
   0   2.0000     -88.971088     -2421.0264
   1   2.0000     -88.963367     -2420.8163
   2   2.0000     -10.334471      -281.2153
   3   2.0000     -10.327761      -281.0327
   4   2.0000     -10.312446      -280.6159
   5   2.0000     -10.312227      -280.6100
   6   2.0000     -10.309103      -280.5250
   7   2.0000     -10.302129      -280.3352
   8   2.0000     -10.299052      -280.2514
   9   2.0000     -10.297446      -280.2078
  10   2.0000     -10.297018      -280.1961
  11   2.0000     -10.286524      -279.9106
  12   2.0000     -10.285441      -279.8811
  13   2.0000     -10.280736      -279.7531
  14   2.0000     -10.270143      -279.4648
  15   2.0000     -10.261574      -279.2316
  16   2.0000      -8.084700      -219.9959
  17   2.0000      -8.080105      -219.8708
  18   2.0000      -6.043499      -164.4520
  19   2.0000      -6.039278      -164.3371
  20   2.0000      -6.038340      -164.3116
  21   2.0000      -6.035272      -164.2281
  22   2.0000      -6.034166      -164.1980
  23   2.0000      -6.031211      -164.1176
  24   2.0000      -1.012087       -27.5403
  25   2.0000      -0.988697       -26.9038
  26   2.0000      -0.908274       -24.7154
  27   2.0000      -0.906359       -24.6633
  28   2.0000      -0.875443       -23.8220
  29   2.0000      -0.856901       -23.3175
  30   2.0000      -0.848006       -23.0754
  31   2.0000      -0.820237       -22.3198
  32   2.0000      -0.785883       -21.3850
  33   2.0000      -0.771359       -20.9897
  34   2.0000      -0.711729       -19.3671
  35   2.0000      -0.694246       -18.8914
  36   2.0000      -0.691213       -18.8088
  37   2.0000      -0.666127       -18.1262
  38   2.0000      -0.638949       -17.3867
  39   2.0000      -0.627522       -17.0757
  40   2.0000      -0.598873       -16.2962
  41   2.0000      -0.571081       -15.5399
  42   2.0000      -0.569522       -15.4975
  43   2.0000      -0.551644       -15.0110
  44   2.0000      -0.542355       -14.7582
  45   2.0000      -0.531307       -14.4576
  46   2.0000      -0.518602       -14.1119
  47   2.0000      -0.516937       -14.0666
  48   2.0000      -0.508045       -13.8246
  49   2.0000      -0.502876       -13.6840
  50   2.0000      -0.492462       -13.4006
  51   2.0000      -0.483941       -13.1687
  52   2.0000      -0.472536       -12.8584
  53   2.0000      -0.469086       -12.7645
  54   2.0000      -0.462771       -12.5926
  55   2.0000      -0.448220       -12.1967
  56   2.0000      -0.442496       -12.0409
  57   2.0000      -0.439349       -11.9553
  58   2.0000      -0.437141       -11.8952
  59   2.0000      -0.431152       -11.7322
  60   2.0000      -0.419661       -11.4196
  61   2.0000      -0.411585       -11.1998
  62   2.0000      -0.402934       -10.9644
  63   2.0000      -0.361717        -9.8428
  64   2.0000      -0.334332        -9.0976
  65   2.0000      -0.328606        -8.9418
  66   2.0000      -0.286578        -7.7982
  67   0.0000       0.022483         0.6118
  68   0.0000       0.085080         2.3152
  69   0.0000       0.108803         2.9607
  70   0.0000       0.119273         3.2456
  71   0.0000       0.128404         3.4941

MULLIKEN ATOMIC CHARGES
-----------------------
   0 S :    0.119819
   1 C :   -0.078784
   2 C :   -0.140041
   3 C :    0.022179
   4 C :   -0.065042
   5 H :   -0.024510
   6 C :    0.072738
   7 H :    0.032843
   8 H :    0.013895
   9 C :   -0.050995
  10 H :    0.010770
  11 H :    0.015778
  12 C :   -0.027518
  13 H :    0.027101
  14 H :    0.032786
  15 H :    0.026630
  16 S :    0.110216
  17 C :   -0.085197
  18 C :   -0.036489
  19 C :   -0.006432
  20 C :   -0.185603
  21 H :    0.012661
  22 C :    0.003814
  23 H :    0.020872
  24 H :    0.027707
  25 C :   -0.105633
  26 H :    0.050746
  27 H :    0.024925
  28 C :    0.060144
  29 H :    0.006685
  30 H :    0.021985
  31 H :    0.007315
  32 H :    0.032532
  33 H :    0.052100
Sum of atomic charges:    0.0000000

LOEWDIN ATOMIC CHARGES
----------------------
   0 S :    0.393854
   1 C :   -0.215478
   2 C :   -0.063310
   3 C :   -0.056883
   4 C :   -0.173858
   5 H :    0.018771
   6 C :   -0.023080
   7 H :    0.032092
   8 H :    0.025033
   9 C :   -0.040802
  10 H :    0.016613
  11 H :    0.021338
  12 C :   -0.061421
  13 H :    0.023658
  14 H :    0.029437
  15 H :    0.022073
  16 S :    0.445464
  17 C :   -0.200099
  18 C :   -0.069791
  19 C :   -0.057843
  20 C :   -0.197488
  21 H :    0.029894
  22 C :   -0.040966
  23 H :    0.030101
  24 H :    0.027473
  25 C :   -0.032092
  26 H :    0.028862
  27 H :    0.019922
  28 C :   -0.037386
  29 H :    0.011383
  30 H :    0.021507
  31 H :    0.016901
  32 H :    0.029623
  33 H :    0.026496

  Mayer bond orders larger than 0.100000
B(  0-S ,  1-C ) :   1.1313 B(  0-S ,  4-C ) :   1.1133 B(  1-C ,  2-C ) :   1.6127
B(  1-C , 32-H ) :   0.9620 B(  2-C ,  3-C ) :   1.2490 B(  2-C ,  6-C ) :   1.0265
B(  3-C ,  4-C ) :   1.5537 B(  3-C ,  5-H ) :   1.0138 B(  4-C , 20-C ) :   1.0764
B(  6-C ,  7-H ) :   0.9418 B(  6-C ,  8-H ) :   0.9445 B(  6-C ,  9-C ) :   1.0579
B(  9-C , 10-H ) :   0.9484 B(  9-C , 11-H ) :   0.9564 B(  9-C , 12-C ) :   1.0850
B( 12-C , 13-H ) :   0.9735 B( 12-C , 14-H ) :   0.9691 B( 12-C , 15-H ) :   0.9743
B( 16-S , 17-C ) :   1.1784 B( 16-S , 20-C ) :   1.1713 B( 17-C , 18-C ) :   1.5747
B( 17-C , 33-H ) :   0.9737 B( 18-C , 19-C ) :   1.2663 B( 18-C , 21-H ) :   0.9952
B( 19-C , 20-C ) :   1.5448 B( 19-C , 22-C ) :   1.0310 B( 22-C , 23-H ) :   0.9290
B( 22-C , 24-H ) :   0.9484 B( 22-C , 25-C ) :   1.0529 B( 25-C , 26-H ) :   0.9619
B( 25-C , 27-H ) :   0.9563 B( 25-C , 28-C ) :   1.0733 B( 28-C , 29-H ) :   0.9662
B( 28-C , 30-H ) :   0.9710 B( 28-C , 31-H ) :   0.9751

Dispersion correction           -0.015492482
FINAL SINGLE POINT ENERGY     -1339.862838551251

DIPOLE MOMENT
-------------
                                X             Y             Z
Electronic contribution:    -10.26678      -6.90752     -28.62623
Nuclear contribution   :     10.67289       7.19084      29.08247
                        -----------------------------------------
Total Dipole Moment    :      0.40611       0.28331       0.45624
                        -----------------------------------------
Magnitude (a.u.)       :      0.67331
Magnitude (Debye)      :      1.71142

Rotational constants in cm-1:     0.019242     0.010074     0.007220
Rotational constants in MHz :   576.846326   302.010387   216.461747

                             ****ORCA TERMINATED NORMALLY****
TOTAL RUN TIME: 0 days 0 hours 0 minutes 34 seconds 228 msec
