                         Program Version 4.2.1 -  RELEASE  -
|  1> ! wB97X-D3 SP def2-SVP
|  2> %pal
|  3> nprocs 16
|  4> end
|  5>
|  6> * xyz 0 1
|  7> S 	 -3.31728 	 -11.0639 	 69.8751
|  8> C 	 -3.4634 	 -11.7362 	 68.3302
|  9> C 	 -4.03233 	 -10.8352 	 67.4383
| 10> C 	 -4.08681 	 -9.52916 	 68.0058
| 11> C 	 -3.8087 	 -9.42641 	 69.3336
| 12> H 	 -4.58503 	 -8.67129 	 67.525
| 13> C 	 -4.69771 	 -11.1178 	 66.1289
| 14> H 	 -4.92194 	 -10.1404 	 65.5903
| 15> H 	 -5.66025 	 -11.6494 	 66.3104
| 16> C 	 -3.92829 	 -12.1159 	 65.2846
| 17> H 	 -2.86208 	 -11.7698 	 65.2048
| 18> H 	 -3.80962 	 -13.0521 	 65.7281
| 19> C 	 -4.37189 	 -12.2548 	 63.7932
| 20> H 	 -4.3987 	 -11.2997 	 63.3194
| 21> H 	 -3.72634 	 -12.8031 	 63.1389
| 22> H 	 -5.36755 	 -12.7009 	 63.6764
| 23> S 	 -4.15785 	 -8.10959 	 71.8075
| 24> C 	 -3.51575 	 -6.49577 	 72.0124
| 25> C 	 -2.98386 	 -6.04973 	 70.7823
| 26> C 	 -3.048 	 -6.96882 	 69.6956
| 27> C 	 -3.68367 	 -8.17172 	 70.0955
| 28> H 	 -2.49932 	 -5.10417 	 70.7526
| 29> C 	 -2.45102 	 -6.56621 	 68.3682
| 30> H 	 -2.28528 	 -7.54178 	 67.8831
| 31> H 	 -1.44459 	 -6.16931 	 68.3525
| 32> C 	 -3.49172 	 -5.77546 	 67.5003
| 33> H 	 -3.77595 	 -4.76827 	 68.0339
| 34> H 	 -4.43823 	 -6.38178 	 67.6028
| 35> C 	 -3.11244 	 -5.58727 	 66.078
| 36> H 	 -2.83434 	 -6.53293 	 65.696
| 37> H 	 -2.24832 	 -4.86352 	 65.9043
| 38> H 	 -3.99545 	 -5.29087 	 65.5443
| 39> H 	 -3.40836 	 -12.7941 	 68.1993
| 40> H 	 -3.41487 	 -5.99072 	 72.9234
| 41> *
| 42>
| 43>                          ****END OF INPUT****

CARTESIAN COORDINATES (ANGSTROEM)
---------------------------------
  S     -3.317280  -11.063900   69.875100
  C     -3.463400  -11.736200   68.330200
  C     -4.032330  -10.835200   67.438300
  C     -4.086810   -9.529160   68.005800
  C     -3.808700   -9.426410   69.333600
  H     -4.585030   -8.671290   67.525000
  C     -4.697710  -11.117800   66.128900
  H     -4.921940  -10.140400   65.590300
  H     -5.660250  -11.649400   66.310400
  C     -3.928290  -12.115900   65.284600
  H     -2.862080  -11.769800   65.204800
  H     -3.809620  -13.052100   65.728100
  C     -4.371890  -12.254800   63.793200
  H     -4.398700  -11.299700   63.319400
  H     -3.726340  -12.803100   63.138900
  H     -5.367550  -12.700900   63.676400
  S     -4.157850   -8.109590   71.807500
  C     -3.515750   -6.495770   72.012400
  C     -2.983860   -6.049730   70.782300
  C     -3.048000   -6.968820   69.695600
  C     -3.683670   -8.171720   70.095500
  H     -2.499320   -5.104170   70.752600
  C     -2.451020   -6.566210   68.368200
  H     -2.285280   -7.541780   67.883100
  H     -1.444590   -6.169310   68.352500
  C     -3.491720   -5.775460   67.500300
  H     -3.775950   -4.768270   68.033900
  H     -4.438230   -6.381780   67.602800
  C     -3.112440   -5.587270   66.078000
  H     -2.834340   -6.532930   65.696000
  H     -2.248320   -4.863520   65.904300
  H     -3.995450   -5.290870   65.544300
  H     -3.408360  -12.794100   68.199300
  H     -3.414870   -5.990720   72.923400

 Total Charge           Charge          ....    0
 Multiplicity           Mult            ....    1
 Number of Electrons    NEL             ....  134
 Basis Dimension        Dim             ....  322

ORBITAL ENERGIES
----------------

  NO   OCC          E(Eh)            E(eV)
   0   2.0000     -88.969410     -2420.9807
   1   2.0000     -88.964849     -2420.8566
   2   2.0000     -10.336265      -281.2641
   3   2.0000     -10.331470      -281.1336
   4   2.0000     -10.318401      -280.7780
   5   2.0000     -10.312068      -280.6056
   6   2.0000     -10.309028      -280.5229
   7   2.0000     -10.300979      -280.3039
   8   2.0000     -10.300093      -280.2798
   9   2.0000     -10.298522      -280.2370
  10   2.0000     -10.293034      -280.0877
  11   2.0000     -10.292888      -280.0837
  12   2.0000     -10.292125      -280.0629
  13   2.0000     -10.286584      -279.9122
  14   2.0000     -10.278243      -279.6852
  15   2.0000     -10.276406      -279.6352
  16   2.0000      -8.083399      -219.9605
  17   2.0000      -8.080093      -219.8705
  18   2.0000      -6.041899      -164.4084
  19   2.0000      -6.038670      -164.3206
  20   2.0000      -6.037932      -164.3005
  21   2.0000      -6.034442      -164.2055
  22   2.0000      -6.034306      -164.2018
  23   2.0000      -6.030820      -164.1070
  24   2.0000      -1.006258       -27.3817
  25   2.0000      -0.983756       -26.7694
  26   2.0000      -0.912227       -24.8230
  27   2.0000      -0.910106       -24.7652
  28   2.0000      -0.870099       -23.6766
  29   2.0000      -0.855478       -23.2787
  30   2.0000      -0.849766       -23.1233
  31   2.0000      -0.814183       -22.1550
  32   2.0000      -0.783657       -21.3244
  33   2.0000      -0.770770       -20.9737
  34   2.0000      -0.712114       -19.3776
  35   2.0000      -0.697371       -18.9764
  36   2.0000      -0.691266       -18.8103
  37   2.0000      -0.663696       -18.0601
  38   2.0000      -0.645754       -17.5719
  39   2.0000      -0.618180       -16.8215
  40   2.0000      -0.598125       -16.2758
  41   2.0000      -0.570722       -15.5301
  42   2.0000      -0.564843       -15.3702
  43   2.0000      -0.559932       -15.2365
  44   2.0000      -0.531173       -14.4539
  45   2.0000      -0.521671       -14.1954
  46   2.0000      -0.516127       -14.0445
  47   2.0000      -0.515616       -14.0306
  48   2.0000      -0.511947       -13.9308
  49   2.0000      -0.502253       -13.6670
  50   2.0000      -0.493215       -13.4211
  51   2.0000      -0.481316       -13.0973
  52   2.0000      -0.474027       -12.8989
  53   2.0000      -0.466239       -12.6870
  54   2.0000      -0.461465       -12.5571
  55   2.0000      -0.446196       -12.1416
  56   2.0000      -0.441484       -12.0134
  57   2.0000      -0.439085       -11.9481
  58   2.0000      -0.433131       -11.7861
  59   2.0000      -0.426395       -11.6028
  60   2.0000      -0.421571       -11.4715
  61   2.0000      -0.411886       -11.2080
  62   2.0000      -0.409021       -11.1300
  63   2.0000      -0.353801        -9.6274
  64   2.0000      -0.332573        -9.0498
  65   2.0000      -0.327475        -8.9111
  66   2.0000      -0.288031        -7.8377
  67   0.0000       0.022962         0.6248
  68   0.0000       0.069395         1.8883
  69   0.0000       0.115186         3.1344
  70   0.0000       0.122162         3.3242
  71   0.0000       0.125480         3.4145

MULLIKEN ATOMIC CHARGES
-----------------------
   0 S :    0.109612
   1 C :   -0.117425
   2 C :   -0.077577
   3 C :   -0.027073
   4 C :   -0.106062
   5 H :    0.021320
   6 C :    0.068285
   7 H :    0.035891
   8 H :    0.048846
   9 C :   -0.106298
  10 H :    0.029163
  11 H :    0.020341
  12 C :   -0.026717
  13 H :    0.017233
  14 H :    0.025597
  15 H :    0.027521
  16 S :    0.107669
  17 C :   -0.076447
  18 C :   -0.023608
  19 C :   -0.039338
  20 C :   -0.170379
  21 H :    0.009143
  22 C :    0.063326
  23 H :    0.020837
  24 H :    0.032531
  25 C :   -0.138266
  26 H :    0.040692
  27 H :    0.035035
  28 C :    0.009976
  29 H :    0.011696
  30 H :    0.046202
  31 H :    0.033704
  32 H :    0.049385
  33 H :    0.045186
Sum of atomic charges:   -0.0000000

LOEWDIN ATOMIC CHARGES
----------------------
   0 S :    0.414545
   1 C :   -0.208332
   2 C :   -0.068192
   3 C :   -0.072301
   4 C :   -0.184326
   5 H :    0.033689
   6 C :   -0.034662
   7 H :    0.037466
   8 H :    0.041542
   9 C :   -0.043487
  10 H :    0.029008
  11 H :    0.013602
  12 C :   -0.065120
  13 H :    0.021106
  14 H :    0.024172
  15 H :    0.023585
  16 S :    0.402313
  17 C :   -0.179855
  18 C :   -0.063891
  19 C :   -0.047178
  20 C :   -0.193721
  21 H :    0.025399
  22 C :   -0.038484
  23 H :    0.032652
  24 H :    0.030214
  25 C :   -0.047875
  26 H :    0.030270
  27 H :    0.026490
  28 C :   -0.066305
  29 H :    0.018953
  30 H :    0.035637
  31 H :    0.028614
  32 H :    0.023636
  33 H :    0.020835

  Mayer bond orders larger than 0.100000
B(  0-S ,  1-C ) :   1.1666 B(  0-S ,  4-C ) :   1.1357 B(  1-C ,  2-C ) :   1.5686
B(  1-C , 32-H ) :   0.9696 B(  2-C ,  3-C ) :   1.2669 B(  2-C ,  6-C ) :   1.0311
B(  3-C ,  4-C ) :   1.5755 B(  3-C ,  5-H ) :   0.9847 B(  4-C , 20-C ) :   1.0541
B(  6-C ,  7-H ) :   0.9460 B(  6-C ,  8-H ) :   0.9269 B(  6-C ,  9-C ) :   1.0551
B(  9-C , 10-H ) :   0.9609 B(  9-C , 11-H ) :   0.9539 B(  9-C , 12-C ) :   1.0833
B( 12-C , 13-H ) :   0.9741 B( 12-C , 14-H ) :   0.9753 B( 12-C , 15-H ) :   0.9746
B( 16-S , 17-C ) :   1.1592 B( 16-S , 20-C ) :   1.1447 B( 17-C , 18-C ) :   1.5765
B( 17-C , 20-C ) :   0.1048 B( 17-C , 33-H ) :   0.9770 B( 18-C , 19-C ) :   1.2718
B( 18-C , 21-H ) :   0.9921 B( 19-C , 20-C ) :   1.5448 B( 19-C , 22-C ) :   1.0464
B( 22-C , 23-H ) :   0.9215 B( 22-C , 24-H ) :   0.9399 B( 22-C , 25-C ) :   1.0474
B( 25-C , 26-H ) :   0.9516 B( 25-C , 27-H ) :   0.9490 B( 25-C , 28-C ) :   1.0871
B( 28-C , 29-H ) :   0.9669 B( 28-C , 30-H ) :   0.9702 B( 28-C , 31-H ) :   0.9696

Dispersion correction           -0.014122381
FINAL SINGLE POINT ENERGY     -1339.873361357007

DIPOLE MOMENT
-------------
                                X             Y             Z
Electronic contribution:     -0.01755      -3.54472      32.17522
Nuclear contribution   :      0.06052       3.73841     -32.77619
                        -----------------------------------------
Total Dipole Moment    :      0.04297       0.19369      -0.60097
                        -----------------------------------------
Magnitude (a.u.)       :      0.63287
Magnitude (Debye)      :      1.60864

Rotational constants in cm-1:     0.018968     0.008403     0.006109
Rotational constants in MHz :   568.651236   251.907570   183.146416

                             ****ORCA TERMINATED NORMALLY****
TOTAL RUN TIME: 0 days 0 hours 0 minutes 34 seconds 945 msec
