                         Program Version 4.2.1 -  RELEASE  -
|  1> ! wB97X-D3 SP def2-SVP
|  2> %pal
|  3> nprocs 16
|  4> end
|  5>
|  6> * xyz 0 1
|  7> S 	 9.76863 	 -10.0212 	 91.1468
|  8> C 	 8.93018 	 -8.88282 	 92.1801
|  9> C 	 7.64046 	 -9.23933 	 92.5945
| 10> C 	 7.43016 	 -10.5605 	 92.1745
| 11> C 	 8.40076 	 -11.0931 	 91.3348
| 12> H 	 6.51765 	 -11.0813 	 92.387
| 13> C 	 6.56356 	 -8.39416 	 93.2098
| 14> H 	 5.62227 	 -8.64794 	 92.6964
| 15> H 	 6.69795 	 -7.40641 	 92.8635
| 16> C 	 6.36047 	 -8.37025 	 94.8062
| 17> H 	 5.2926 	 -8.09256 	 94.8763
| 18> H 	 6.29377 	 -9.33177 	 95.2182
| 19> C 	 7.36363 	 -7.38534 	 95.4478
| 20> H 	 7.62849 	 -6.53094 	 94.8625
| 21> H 	 6.92463 	 -7.13201 	 96.3672
| 22> H 	 8.28184 	 -7.90383 	 95.7368
| 23> S 	 9.42432 	 -12.5042 	 89.1393
| 24> C 	 9.01885 	 -14.1174 	 88.8645
| 25> C 	 8.15023 	 -14.5614 	 89.8574
| 26> C 	 7.87477 	 -13.583 	 90.8723
| 27> C 	 8.45537 	 -12.357 	 90.5904
| 28> H 	 7.85029 	 -15.6262 	 89.8319
| 29> C 	 7.00569 	 -13.8613 	 92.0551
| 30> H 	 7.19511 	 -13.3687 	 92.9774
| 31> H 	 7.09938 	 -14.9033 	 92.2187
| 32> C 	 5.45 	 -13.7304 	 91.8649
| 33> H 	 5.07836 	 -14.5074 	 91.2183
| 34> H 	 5.2912 	 -12.7334 	 91.3755
| 35> C 	 4.5853 	 -13.9097 	 93.1811
| 36> H 	 4.85227 	 -13.1531 	 93.919
| 37> H 	 4.75832 	 -14.9458 	 93.4872
| 38> H 	 3.51633 	 -13.7476 	 92.9193
| 39> H 	 9.34726 	 -7.89561 	 92.2366
| 40> H 	 9.37 	 -14.7529 	 88.0562
| 41> *
| 42>
| 43>                          ****END OF INPUT****

CARTESIAN COORDINATES (ANGSTROEM)
---------------------------------
  S      9.768630  -10.021200   91.146800
  C      8.930180   -8.882820   92.180100
  C      7.640460   -9.239330   92.594500
  C      7.430160  -10.560500   92.174500
  C      8.400760  -11.093100   91.334800
  H      6.517650  -11.081300   92.387000
  C      6.563560   -8.394160   93.209800
  H      5.622270   -8.647940   92.696400
  H      6.697950   -7.406410   92.863500
  C      6.360470   -8.370250   94.806200
  H      5.292600   -8.092560   94.876300
  H      6.293770   -9.331770   95.218200
  C      7.363630   -7.385340   95.447800
  H      7.628490   -6.530940   94.862500
  H      6.924630   -7.132010   96.367200
  H      8.281840   -7.903830   95.736800
  S      9.424320  -12.504200   89.139300
  C      9.018850  -14.117400   88.864500
  C      8.150230  -14.561400   89.857400
  C      7.874770  -13.583000   90.872300
  C      8.455370  -12.357000   90.590400
  H      7.850290  -15.626200   89.831900
  C      7.005690  -13.861300   92.055100
  H      7.195110  -13.368700   92.977400
  H      7.099380  -14.903300   92.218700
  C      5.450000  -13.730400   91.864900
  H      5.078360  -14.507400   91.218300
  H      5.291200  -12.733400   91.375500
  C      4.585300  -13.909700   93.181100
  H      4.852270  -13.153100   93.919000
  H      4.758320  -14.945800   93.487200
  H      3.516330  -13.747600   92.919300
  H      9.347260   -7.895610   92.236600
  H      9.370000  -14.752900   88.056200

 Total Charge           Charge          ....    0
 Multiplicity           Mult            ....    1
 Number of Electrons    NEL             ....  134
 Basis Dimension        Dim             ....  322

ORBITAL ENERGIES
----------------

  NO   OCC          E(Eh)            E(eV)
   0   2.0000     -88.967132     -2420.9187
   1   2.0000     -88.964598     -2420.8498
   2   2.0000     -10.330064      -281.0953
   3   2.0000     -10.325262      -280.9647
   4   2.0000     -10.314759      -280.6789
   5   2.0000     -10.311526      -280.5909
   6   2.0000     -10.301677      -280.3229
   7   2.0000     -10.300698      -280.2962
   8   2.0000     -10.295724      -280.1609
   9   2.0000     -10.294121      -280.1173
  10   2.0000     -10.293125      -280.0902
  11   2.0000     -10.290318      -280.0138
  12   2.0000     -10.290112      -280.0082
  13   2.0000     -10.287252      -279.9304
  14   2.0000     -10.283707      -279.8339
  15   2.0000     -10.275993      -279.6240
  16   2.0000      -8.082059      -219.9240
  17   2.0000      -8.080464      -219.8806
  18   2.0000      -6.040380      -164.3671
  19   2.0000      -6.038875      -164.3262
  20   2.0000      -6.036701      -164.2670
  21   2.0000      -6.034685      -164.2121
  22   2.0000      -6.032866      -164.1626
  23   2.0000      -6.031390      -164.1225
  24   2.0000      -1.010015       -27.4839
  25   2.0000      -0.987107       -26.8605
  26   2.0000      -0.907421       -24.6922
  27   2.0000      -0.906674       -24.6718
  28   2.0000      -0.867036       -23.5933
  29   2.0000      -0.854540       -23.2532
  30   2.0000      -0.845222       -22.9997
  31   2.0000      -0.811760       -22.0891
  32   2.0000      -0.785807       -21.3829
  33   2.0000      -0.774670       -21.0798
  34   2.0000      -0.716327       -19.4922
  35   2.0000      -0.698188       -18.9987
  36   2.0000      -0.690750       -18.7963
  37   2.0000      -0.662913       -18.0388
  38   2.0000      -0.638136       -17.3646
  39   2.0000      -0.628114       -17.0919
  40   2.0000      -0.600294       -16.3348
  41   2.0000      -0.568126       -15.4595
  42   2.0000      -0.564624       -15.3642
  43   2.0000      -0.548801       -14.9336
  44   2.0000      -0.532680       -14.4950
  45   2.0000      -0.520176       -14.1547
  46   2.0000      -0.518233       -14.1018
  47   2.0000      -0.510191       -13.8830
  48   2.0000      -0.508523       -13.8376
  49   2.0000      -0.492336       -13.3971
  50   2.0000      -0.488243       -13.2858
  51   2.0000      -0.482645       -13.1334
  52   2.0000      -0.479923       -13.0594
  53   2.0000      -0.473568       -12.8864
  54   2.0000      -0.458737       -12.4829
  55   2.0000      -0.451377       -12.2826
  56   2.0000      -0.445823       -12.1314
  57   2.0000      -0.443168       -12.0592
  58   2.0000      -0.430401       -11.7118
  59   2.0000      -0.426045       -11.5933
  60   2.0000      -0.422479       -11.4962
  61   2.0000      -0.417320       -11.3559
  62   2.0000      -0.411838       -11.2067
  63   2.0000      -0.354703        -9.6520
  64   2.0000      -0.334858        -9.1119
  65   2.0000      -0.327435        -8.9100
  66   2.0000      -0.280068        -7.6210
  67   0.0000       0.024550         0.6680
  68   0.0000       0.077850         2.1184
  69   0.0000       0.107893         2.9359
  70   0.0000       0.115922         3.1544
  71   0.0000       0.130458         3.5499

MULLIKEN ATOMIC CHARGES
-----------------------
   0 S :    0.104415
   1 C :   -0.122582
   2 C :   -0.045201
   3 C :    0.001642
   4 C :   -0.120703
   5 H :   -0.019636
   6 C :    0.032900
   7 H :    0.026960
   8 H :    0.009614
   9 C :   -0.048247
  10 H :    0.024848
  11 H :    0.016113
  12 C :   -0.004922
  13 H :    0.031933
  14 H :    0.021698
  15 H :    0.038373
  16 S :    0.106295
  17 C :   -0.091147
  18 C :   -0.052405
  19 C :   -0.038781
  20 C :   -0.114854
  21 H :    0.027164
  22 C :    0.091187
  23 H :    0.017430
  24 H :    0.000152
  25 C :   -0.120977
  26 H :    0.025033
  27 H :    0.038067
  28 C :   -0.059844
  29 H :    0.036044
  30 H :    0.041458
  31 H :    0.047622
  32 H :    0.037179
  33 H :    0.063173
Sum of atomic charges:   -0.0000000

LOEWDIN ATOMIC CHARGES
----------------------
   0 S :    0.405976
   1 C :   -0.191995
   2 C :   -0.060597
   3 C :   -0.062874
   4 C :   -0.181983
   5 H :    0.024488
   6 C :   -0.030676
   7 H :    0.034723
   8 H :    0.024970
   9 C :   -0.029487
  10 H :    0.027055
  11 H :    0.017350
  12 C :   -0.056763
  13 H :    0.023600
  14 H :    0.022628
  15 H :    0.032880
  16 S :    0.426586
  17 C :   -0.208921
  18 C :   -0.077236
  19 C :   -0.058767
  20 C :   -0.200098
  21 H :    0.035196
  22 C :   -0.033484
  23 H :    0.024513
  24 H :    0.026035
  25 C :   -0.039246
  26 H :    0.018635
  27 H :    0.019907
  28 C :   -0.065934
  29 H :    0.021401
  30 H :    0.027356
  31 H :    0.033596
  32 H :    0.015038
  33 H :    0.036128

  Mayer bond orders larger than 0.100000
B(  0-S ,  1-C ) :   1.1511 B(  0-S ,  4-C ) :   1.1514 B(  1-C ,  2-C ) :   1.5895
B(  1-C ,  4-C ) :   0.1030 B(  1-C , 32-H ) :   0.9658 B(  2-C ,  3-C ) :   1.2647
B(  2-C ,  6-C ) :   1.0159 B(  3-C ,  4-C ) :   1.5535 B(  3-C ,  5-H ) :   0.9931
B(  4-C , 20-C ) :   1.0681 B(  6-C ,  7-H ) :   0.9443 B(  6-C ,  8-H ) :   0.9415
B(  6-C ,  9-C ) :   1.0580 B(  9-C , 10-H ) :   0.9599 B(  9-C , 11-H ) :   0.9601
B(  9-C , 12-C ) :   1.0590 B( 12-C , 13-H ) :   0.9805 B( 12-C , 14-H ) :   0.9727
B( 12-C , 15-H ) :   0.9749 B( 16-S , 17-C ) :   1.1735 B( 16-S , 20-C ) :   1.1421
B( 17-C , 18-C ) :   1.5843 B( 17-C , 33-H ) :   0.9677 B( 18-C , 19-C ) :   1.2580
B( 18-C , 21-H ) :   0.9861 B( 19-C , 20-C ) :   1.5633 B( 19-C , 22-C ) :   1.0692
B( 22-C , 23-H ) :   0.9375 B( 22-C , 24-H ) :   0.9172 B( 22-C , 25-C ) :   1.0505
B( 25-C , 26-H ) :   0.9578 B( 25-C , 27-H ) :   0.9581 B( 25-C , 28-C ) :   1.0701
B( 28-C , 29-H ) :   0.9768 B( 28-C , 30-H ) :   0.9769 B( 28-C , 31-H ) :   0.9748

Dispersion correction           -0.014048147
FINAL SINGLE POINT ENERGY     -1339.872134990728

DIPOLE MOMENT
-------------
                                X             Y             Z
Electronic contribution:     22.27002      -2.80330     -21.93409
Nuclear contribution   :    -22.85638       2.75379      22.28851
                        -----------------------------------------
Total Dipole Moment    :     -0.58636      -0.04951       0.35443
                        -----------------------------------------
Magnitude (a.u.)       :      0.68694
Magnitude (Debye)      :      1.74607

Rotational constants in cm-1:     0.018564     0.008954     0.006273
Rotational constants in MHz :   556.522801   268.441565   188.053871

                             ****ORCA TERMINATED NORMALLY****
TOTAL RUN TIME: 0 days 0 hours 0 minutes 33 seconds 658 msec
