                         Program Version 4.2.1 -  RELEASE  -
|  1> ! wB97X-D3 SP def2-SVP
|  2> %pal
|  3> nprocs 16
|  4> end
|  5>
|  6> * xyz 0 1
|  7> S 	 -15.6871 	 -7.63075 	 85.9547
|  8> C 	 -14.3584 	 -8.58406 	 85.2379
|  9> C 	 -14.0944 	 -8.16626 	 83.9133
| 10> C 	 -14.8774 	 -7.07202 	 83.5071
| 11> C 	 -15.855 	 -6.73124 	 84.4106
| 12> H 	 -14.8687 	 -6.59778 	 82.5119
| 13> C 	 -12.9727 	 -8.72824 	 83.0463
| 14> H 	 -13.436 	 -8.73904 	 82.0676
| 15> H 	 -12.875 	 -9.82824 	 83.247
| 16> C 	 -11.5536 	 -8.17646 	 83.0205
| 17> H 	 -10.8831 	 -8.90176 	 82.4806
| 18> H 	 -11.4071 	 -7.15102 	 82.5631
| 19> C 	 -10.9431 	 -8.19894 	 84.414
| 20> H 	 -9.87996 	 -7.887 	 84.4362
| 21> H 	 -11.5642 	 -7.50526 	 85.0358
| 22> H 	 -10.9848 	 -9.18102 	 84.8838
| 23> S 	 -17.3856 	 -5.34807 	 82.5332
| 24> C 	 -18.1382 	 -3.88739 	 83.0601
| 25> C 	 -17.9931 	 -3.63121 	 84.4056
| 26> C 	 -17.2571 	 -4.65563 	 85.1161
| 27> C 	 -16.7824 	 -5.6333 	 84.2229
| 28> H 	 -18.3881 	 -2.71964 	 84.926
| 29> C 	 -17.0732 	 -4.58837 	 86.6144
| 30> H 	 -17.354 	 -5.56935 	 87.0473
| 31> H 	 -17.865 	 -3.9668 	 87.0516
| 32> C 	 -15.7324 	 -4.20797 	 87.1767
| 33> H 	 -15.516 	 -3.10041 	 87.0263
| 34> H 	 -14.9693 	 -4.65779 	 86.6099
| 35> C 	 -15.5182 	 -4.58341 	 88.6581
| 36> H 	 -15.7788 	 -5.63664 	 88.7186
| 37> H 	 -16.2083 	 -4.02339 	 89.3043
| 38> H 	 -14.5494 	 -4.41572 	 89.0226
| 39> H 	 -13.9209 	 -9.31224 	 85.7574
| 40> H 	 -18.7271 	 -3.18405 	 82.3972
| 41> *
| 42>
| 43>                          ****END OF INPUT****

CARTESIAN COORDINATES (ANGSTROEM)
---------------------------------
  S    -15.687100   -7.630750   85.954700
  C    -14.358400   -8.584060   85.237900
  C    -14.094400   -8.166260   83.913300
  C    -14.877400   -7.072020   83.507100
  C    -15.855000   -6.731240   84.410600
  H    -14.868700   -6.597780   82.511900
  C    -12.972700   -8.728240   83.046300
  H    -13.436000   -8.739040   82.067600
  H    -12.875000   -9.828240   83.247000
  C    -11.553600   -8.176460   83.020500
  H    -10.883100   -8.901760   82.480600
  H    -11.407100   -7.151020   82.563100
  C    -10.943100   -8.198940   84.414000
  H     -9.879960   -7.887000   84.436200
  H    -11.564200   -7.505260   85.035800
  H    -10.984800   -9.181020   84.883800
  S    -17.385600   -5.348070   82.533200
  C    -18.138200   -3.887390   83.060100
  C    -17.993100   -3.631210   84.405600
  C    -17.257100   -4.655630   85.116100
  C    -16.782400   -5.633300   84.222900
  H    -18.388100   -2.719640   84.926000
  C    -17.073200   -4.588370   86.614400
  H    -17.354000   -5.569350   87.047300
  H    -17.865000   -3.966800   87.051600
  C    -15.732400   -4.207970   87.176700
  H    -15.516000   -3.100410   87.026300
  H    -14.969300   -4.657790   86.609900
  C    -15.518200   -4.583410   88.658100
  H    -15.778800   -5.636640   88.718600
  H    -16.208300   -4.023390   89.304300
  H    -14.549400   -4.415720   89.022600
  H    -13.920900   -9.312240   85.757400
  H    -18.727100   -3.184050   82.397200

 Total Charge           Charge          ....    0
 Multiplicity           Mult            ....    1
 Number of Electrons    NEL             ....  134
 Basis Dimension        Dim             ....  322

ORBITAL ENERGIES
----------------

  NO   OCC          E(Eh)            E(eV)
   0   2.0000     -88.971647     -2421.0416
   1   2.0000     -88.971256     -2421.0310
   2   2.0000     -10.334136      -281.2061
   3   2.0000     -10.333751      -281.1957
   4   2.0000     -10.321679      -280.8672
   5   2.0000     -10.313885      -280.6551
   6   2.0000     -10.308946      -280.5207
   7   2.0000     -10.306758      -280.4612
   8   2.0000     -10.298898      -280.2473
   9   2.0000     -10.294891      -280.1382
  10   2.0000     -10.294768      -280.1349
  11   2.0000     -10.294352      -280.1236
  12   2.0000     -10.293798      -280.1085
  13   2.0000     -10.281162      -279.7646
  14   2.0000     -10.277117      -279.6546
  15   2.0000     -10.272480      -279.5284
  16   2.0000      -8.085136      -220.0077
  17   2.0000      -8.084494      -219.9903
  18   2.0000      -6.043733      -164.4583
  19   2.0000      -6.043091      -164.4409
  20   2.0000      -6.039864      -164.3531
  21   2.0000      -6.039294      -164.3375
  22   2.0000      -6.035770      -164.2417
  23   2.0000      -6.035272      -164.2281
  24   2.0000      -1.001549       -27.2535
  25   2.0000      -0.978541       -26.6274
  26   2.0000      -0.912123       -24.8201
  27   2.0000      -0.909246       -24.7418
  28   2.0000      -0.867714       -23.6117
  29   2.0000      -0.854463       -23.2511
  30   2.0000      -0.848024       -23.0759
  31   2.0000      -0.808436       -21.9987
  32   2.0000      -0.784981       -21.3604
  33   2.0000      -0.771433       -20.9918
  34   2.0000      -0.709758       -19.3135
  35   2.0000      -0.694985       -18.9115
  36   2.0000      -0.691861       -18.8265
  37   2.0000      -0.664639       -18.0857
  38   2.0000      -0.637383       -17.3441
  39   2.0000      -0.615906       -16.7597
  40   2.0000      -0.598952       -16.2983
  41   2.0000      -0.562746       -15.3131
  42   2.0000      -0.560853       -15.2616
  43   2.0000      -0.550839       -14.9891
  44   2.0000      -0.541165       -14.7258
  45   2.0000      -0.526906       -14.3378
  46   2.0000      -0.521853       -14.2004
  47   2.0000      -0.510572       -13.8934
  48   2.0000      -0.501858       -13.6563
  49   2.0000      -0.494004       -13.4425
  50   2.0000      -0.488780       -13.3004
  51   2.0000      -0.473509       -12.8848
  52   2.0000      -0.472070       -12.8457
  53   2.0000      -0.463400       -12.6098
  54   2.0000      -0.455249       -12.3880
  55   2.0000      -0.451226       -12.2785
  56   2.0000      -0.445598       -12.1254
  57   2.0000      -0.441861       -12.0236
  58   2.0000      -0.435741       -11.8571
  59   2.0000      -0.424363       -11.5475
  60   2.0000      -0.421457       -11.4684
  61   2.0000      -0.407890       -11.0993
  62   2.0000      -0.405526       -11.0349
  63   2.0000      -0.356145        -9.6912
  64   2.0000      -0.336082        -9.1453
  65   2.0000      -0.334597        -9.1048
  66   2.0000      -0.281825        -7.6689
  67   0.0000       0.017136         0.4663
  68   0.0000       0.074428         2.0253
  69   0.0000       0.098405         2.6777
  70   0.0000       0.105215         2.8631
  71   0.0000       0.122600         3.3361

MULLIKEN ATOMIC CHARGES
-----------------------
   0 S :    0.087570
   1 C :   -0.069619
   2 C :   -0.069935
   3 C :   -0.018477
   4 C :   -0.117890
   5 H :    0.031665
   6 C :    0.049595
   7 H :    0.024144
   8 H :    0.027247
   9 C :   -0.058576
  10 H :    0.036058
  11 H :    0.045382
  12 C :   -0.087664
  13 H :    0.041069
  14 H :    0.045139
  15 H :    0.022508
  16 S :    0.104509
  17 C :   -0.103297
  18 C :   -0.046959
  19 C :   -0.036356
  20 C :   -0.144172
  21 H :    0.035416
  22 C :    0.037621
  23 H :    0.025315
  24 H :    0.018145
  25 C :   -0.058843
  26 H :    0.027730
  27 H :    0.020698
  28 C :   -0.018075
  29 H :    0.022646
  30 H :    0.025328
  31 H :    0.027719
  32 H :   -0.002817
  33 H :    0.077178
Sum of atomic charges:   -0.0000000

LOEWDIN ATOMIC CHARGES
----------------------
   0 S :    0.383353
   1 C :   -0.160962
   2 C :   -0.057101
   3 C :   -0.072058
   4 C :   -0.171821
   5 H :    0.034685
   6 C :   -0.041524
   7 H :    0.030872
   8 H :    0.038014
   9 C :   -0.047210
  10 H :    0.032247
  11 H :    0.030350
  12 C :   -0.074000
  13 H :    0.027890
  14 H :    0.027908
  15 H :    0.019712
  16 S :    0.395061
  17 C :   -0.204124
  18 C :   -0.077312
  19 C :   -0.051790
  20 C :   -0.172050
  21 H :    0.040035
  22 C :   -0.042643
  23 H :    0.028033
  24 H :    0.032897
  25 C :   -0.043587
  26 H :    0.027800
  27 H :    0.014923
  28 C :   -0.055137
  29 H :    0.022612
  30 H :    0.024391
  31 H :    0.020084
  32 H :   -0.003024
  33 H :    0.043479

  Mayer bond orders larger than 0.100000
B(  0-S ,  1-C ) :   1.1276 B(  0-S ,  4-C ) :   1.1324 B(  1-C ,  2-C ) :   1.5772
B(  1-C , 32-H ) :   0.9922 B(  2-C ,  3-C ) :   1.2501 B(  2-C ,  6-C ) :   1.0230
B(  3-C ,  4-C ) :   1.5650 B(  3-C ,  5-H ) :   0.9794 B(  4-C , 20-C ) :   1.0806
B(  6-C ,  7-H ) :   0.9355 B(  6-C ,  8-H ) :   0.9392 B(  6-C ,  9-C ) :   1.0730
B(  9-C , 10-H ) :   0.9516 B(  9-C , 11-H ) :   0.9559 B(  9-C , 12-C ) :   1.0732
B( 12-C , 13-H ) :   0.9731 B( 12-C , 14-H ) :   0.9741 B( 12-C , 15-H ) :   0.9736
B( 16-S , 17-C ) :   1.1449 B( 16-S , 20-C ) :   1.1256 B( 17-C , 18-C ) :   1.6246
B( 17-C , 33-H ) :   0.9555 B( 18-C , 19-C ) :   1.2469 B( 18-C , 21-H ) :   0.9783
B( 19-C , 20-C ) :   1.5744 B( 19-C , 22-C ) :   1.0406 B( 22-C , 23-H ) :   0.9366
B( 22-C , 24-H ) :   0.9253 B( 22-C , 25-C ) :   1.0572 B( 25-C , 26-H ) :   0.9479
B( 25-C , 27-H ) :   0.9564 B( 25-C , 28-C ) :   1.0803 B( 28-C , 29-H ) :   0.9730
B( 28-C , 30-H ) :   0.9761 B( 28-C , 31-H ) :   0.9744

Dispersion correction           -0.014716151
FINAL SINGLE POINT ENERGY     -1339.880549023783

DIPOLE MOMENT
-------------
                                X             Y             Z
Electronic contribution:    -18.38896      -0.48384     -10.26612
Nuclear contribution   :     18.67315       0.62334      10.30991
                        -----------------------------------------
Total Dipole Moment    :      0.28419       0.13950       0.04379
                        -----------------------------------------
Magnitude (a.u.)       :      0.31960
Magnitude (Debye)      :      0.81235

Rotational constants in cm-1:     0.018341     0.009131     0.006985
Rotational constants in MHz :   549.859308   273.736565   209.406452

                             ****ORCA TERMINATED NORMALLY****
TOTAL RUN TIME: 0 days 0 hours 0 minutes 31 seconds 679 msec
