                         Program Version 4.2.1 -  RELEASE  -
|  1> ! wB97X-D3 SP def2-SVP
|  2> %pal
|  3> nprocs 16
|  4> end
|  5>
|  6> * xyz 0 1
|  7> S 	 -2.00828 	 29.6576 	 41.1715
|  8> C 	 -1.34939 	 28.2701 	 40.301
|  9> C 	 -0.0245552 	 28.0224 	 40.6808
| 10> C 	 0.114538 	 28.596 	 42.0376
| 11> C 	 -0.844184 	 29.5224 	 42.476
| 12> H 	 0.929258 	 28.4708 	 42.677
| 13> C 	 1.00636 	 27.0975 	 40.0242
| 14> H 	 0.626152 	 26.0223 	 40.1203
| 15> H 	 1.9152 	 26.9891 	 40.6718
| 16> C 	 1.40652 	 27.4057 	 38.5336
| 17> H 	 0.513875 	 27.5226 	 38.0257
| 18> H 	 1.83893 	 28.3816 	 38.4199
| 19> C 	 2.40883 	 26.5839 	 37.8908
| 20> H 	 2.06284 	 25.5749 	 38.0848
| 21> H 	 2.46615 	 27.0385 	 36.9253
| 22> H 	 3.35339 	 26.5166 	 38.4772
| 23> S 	 -0.874274 	 29.3237 	 45.316
| 24> C 	 -1.2253 	 30.7871 	 46.1748
| 25> C 	 -1.19067 	 31.9462 	 45.3489
| 26> C 	 -1.0114 	 31.6148 	 43.9286
| 27> C 	 -0.923256 	 30.2597 	 43.7409
| 28> H 	 -1.41927 	 32.9098 	 45.8185
| 29> C 	 -1.18065 	 32.6563 	 42.8067
| 30> H 	 -2.01633 	 32.281 	 42.1367
| 31> H 	 -0.213458 	 32.5124 	 42.2541
| 32> C 	 -1.41048 	 34.1079 	 43.0483
| 33> H 	 -0.685257 	 34.4529 	 43.7233
| 34> H 	 -2.38156 	 34.2189 	 43.5053
| 35> C 	 -1.18715 	 35.0965 	 41.9601
| 36> H 	 -0.117194 	 34.9942 	 41.6254
| 37> H 	 -1.3844 	 36.1493 	 42.2617
| 38> H 	 -1.91554 	 35.02 	 41.1485
| 39> H 	 -1.73287 	 27.8566 	 39.3679
| 40> H 	 -1.4202 	 30.9355 	 47.2315
| 41> *
| 42>
| 43>                          ****END OF INPUT****

CARTESIAN COORDINATES (ANGSTROEM)
---------------------------------
  S     -2.008280   29.657600   41.171500
  C     -1.349390   28.270100   40.301000
  C     -0.024555   28.022400   40.680800
  C      0.114538   28.596000   42.037600
  C     -0.844184   29.522400   42.476000
  H      0.929258   28.470800   42.677000
  C      1.006360   27.097500   40.024200
  H      0.626152   26.022300   40.120300
  H      1.915200   26.989100   40.671800
  C      1.406520   27.405700   38.533600
  H      0.513875   27.522600   38.025700
  H      1.838930   28.381600   38.419900
  C      2.408830   26.583900   37.890800
  H      2.062840   25.574900   38.084800
  H      2.466150   27.038500   36.925300
  H      3.353390   26.516600   38.477200
  S     -0.874274   29.323700   45.316000
  C     -1.225300   30.787100   46.174800
  C     -1.190670   31.946200   45.348900
  C     -1.011400   31.614800   43.928600
  C     -0.923256   30.259700   43.740900
  H     -1.419270   32.909800   45.818500
  C     -1.180650   32.656300   42.806700
  H     -2.016330   32.281000   42.136700
  H     -0.213458   32.512400   42.254100
  C     -1.410480   34.107900   43.048300
  H     -0.685257   34.452900   43.723300
  H     -2.381560   34.218900   43.505300
  C     -1.187150   35.096500   41.960100
  H     -0.117194   34.994200   41.625400
  H     -1.384400   36.149300   42.261700
  H     -1.915540   35.020000   41.148500
  H     -1.732870   27.856600   39.367900
  H     -1.420200   30.935500   47.231500

 Total Charge           Charge          ....    0
 Multiplicity           Mult            ....    1
 Number of Electrons    NEL             ....  134
 Basis Dimension        Dim             ....  322

ORBITAL ENERGIES
----------------

  NO   OCC          E(Eh)            E(eV)
   0   2.0000     -88.971223     -2421.0300
   1   2.0000     -88.963953     -2420.8322
   2   2.0000     -10.331809      -281.1428
   3   2.0000     -10.330567      -281.1090
   4   2.0000     -10.320933      -280.8469
   5   2.0000     -10.318372      -280.7772
   6   2.0000     -10.313260      -280.6381
   7   2.0000     -10.312091      -280.6063
   8   2.0000     -10.307599      -280.4840
   9   2.0000     -10.301155      -280.3087
  10   2.0000     -10.299418      -280.2614
  11   2.0000     -10.294354      -280.1236
  12   2.0000     -10.283928      -279.8399
  13   2.0000     -10.277606      -279.6679
  14   2.0000     -10.276694      -279.6431
  15   2.0000     -10.276223      -279.6303
  16   2.0000      -8.084546      -219.9917
  17   2.0000      -8.077960      -219.8125
  18   2.0000      -6.043253      -164.4453
  19   2.0000      -6.039392      -164.3402
  20   2.0000      -6.036744      -164.2682
  21   2.0000      -6.035041      -164.2218
  22   2.0000      -6.032571      -164.1546
  23   2.0000      -6.028468      -164.0430
  24   2.0000      -0.996654       -27.1203
  25   2.0000      -0.974599       -26.5202
  26   2.0000      -0.917799       -24.9746
  27   2.0000      -0.916925       -24.9508
  28   2.0000      -0.873060       -23.7572
  29   2.0000      -0.853512       -23.2252
  30   2.0000      -0.845047       -22.9949
  31   2.0000      -0.807304       -21.9679
  32   2.0000      -0.785307       -21.3693
  33   2.0000      -0.773491       -21.0478
  34   2.0000      -0.705741       -19.2042
  35   2.0000      -0.700226       -19.0541
  36   2.0000      -0.693509       -18.8713
  37   2.0000      -0.652828       -17.7644
  38   2.0000      -0.636758       -17.3271
  39   2.0000      -0.609736       -16.5918
  40   2.0000      -0.592094       -16.1117
  41   2.0000      -0.584589       -15.9075
  42   2.0000      -0.570409       -15.5216
  43   2.0000      -0.563816       -15.3422
  44   2.0000      -0.546468       -14.8702
  45   2.0000      -0.522764       -14.2251
  46   2.0000      -0.518945       -14.1212
  47   2.0000      -0.514784       -14.0080
  48   2.0000      -0.503764       -13.7081
  49   2.0000      -0.493473       -13.4281
  50   2.0000      -0.491677       -13.3792
  51   2.0000      -0.478565       -13.0224
  52   2.0000      -0.474819       -12.9205
  53   2.0000      -0.463930       -12.6242
  54   2.0000      -0.455731       -12.4011
  55   2.0000      -0.451713       -12.2917
  56   2.0000      -0.446385       -12.1467
  57   2.0000      -0.436225       -11.8703
  58   2.0000      -0.433614       -11.7992
  59   2.0000      -0.426979       -11.6187
  60   2.0000      -0.416063       -11.3217
  61   2.0000      -0.403799       -10.9879
  62   2.0000      -0.398216       -10.8360
  63   2.0000      -0.343209        -9.3392
  64   2.0000      -0.330110        -8.9828
  65   2.0000      -0.322341        -8.7713
  66   2.0000      -0.288720        -7.8565
  67   0.0000       0.030281         0.8240
  68   0.0000       0.055160         1.5010
  69   0.0000       0.090932         2.4744
  70   0.0000       0.117387         3.1943
  71   0.0000       0.124614         3.3909

MULLIKEN ATOMIC CHARGES
-----------------------
   0 S :    0.097072
   1 C :   -0.114495
   2 C :   -0.067927
   3 C :    0.028806
   4 C :   -0.163489
   5 H :   -0.016544
   6 C :   -0.001330
   7 H :    0.049937
   8 H :    0.024831
   9 C :   -0.054374
  10 H :    0.005585
  11 H :    0.013528
  12 C :    0.003472
  13 H :    0.011096
  14 H :    0.049224
  15 H :    0.027599
  16 S :    0.125004
  17 C :   -0.087528
  18 C :   -0.072083
  19 C :   -0.018818
  20 C :   -0.151263
  21 H :    0.031333
  22 C :    0.023709
  23 H :    0.050341
  24 H :    0.041769
  25 C :   -0.035692
  26 H :    0.014405
  27 H :    0.025433
  28 C :   -0.056903
  29 H :    0.043003
  30 H :    0.035218
  31 H :    0.025707
  32 H :    0.055816
  33 H :    0.057557
Sum of atomic charges:    0.0000000

LOEWDIN ATOMIC CHARGES
----------------------
   0 S :    0.398015
   1 C :   -0.190885
   2 C :   -0.055651
   3 C :   -0.057060
   4 C :   -0.196342
   5 H :    0.014526
   6 C :   -0.044124
   7 H :    0.041784
   8 H :    0.032222
   9 C :   -0.042957
  10 H :    0.012458
  11 H :    0.024607
  12 C :   -0.060902
  13 H :    0.022870
  14 H :    0.035968
  15 H :    0.031304
  16 S :    0.388311
  17 C :   -0.192431
  18 C :   -0.077813
  19 C :   -0.047394
  20 C :   -0.180895
  21 H :    0.033110
  22 C :   -0.041611
  23 H :    0.034122
  24 H :    0.041188
  25 C :   -0.052737
  26 H :    0.021648
  27 H :    0.024057
  28 C :   -0.062306
  29 H :    0.033332
  30 H :    0.033068
  31 H :    0.020594
  32 H :    0.027636
  33 H :    0.032286

  Mayer bond orders larger than 0.100000
B(  0-S ,  1-C ) :   1.1461 B(  0-S ,  4-C ) :   1.1212 B(  1-C ,  2-C ) :   1.6070
B(  1-C , 32-H ) :   0.9649 B(  2-C ,  3-C ) :   1.2120 B(  2-C ,  6-C ) :   1.0285
B(  3-C ,  4-C ) :   1.6021 B(  3-C ,  5-H ) :   0.9979 B(  4-C , 20-C ) :   1.0575
B(  6-C ,  7-H ) :   0.9391 B(  6-C ,  8-H ) :   0.9462 B(  6-C ,  9-C ) :   1.0438
B(  9-C , 10-H ) :   0.9549 B(  9-C , 11-H ) :   0.9520 B(  9-C , 12-C ) :   1.0889
B( 12-C , 13-H ) :   0.9692 B( 12-C , 14-H ) :   0.9699 B( 12-C , 15-H ) :   0.9681
B( 16-S , 17-C ) :   1.1507 B( 16-S , 20-C ) :   1.1052 B( 17-C , 18-C ) :   1.6408
B( 17-C , 33-H ) :   0.9610 B( 18-C , 19-C ) :   1.2028 B( 18-C , 21-H ) :   0.9812
B( 19-C , 20-C ) :   1.6342 B( 19-C , 22-C ) :   1.0206 B( 22-C , 23-H ) :   0.9343
B( 22-C , 24-H ) :   0.9211 B( 22-C , 25-C ) :   1.0949 B( 25-C , 26-H ) :   0.9449
B( 25-C , 27-H ) :   0.9406 B( 25-C , 28-C ) :   1.0948 B( 28-C , 29-H ) :   0.9717
B( 28-C , 30-H ) :   0.9698 B( 28-C , 31-H ) :   0.9732

Dispersion correction           -0.013210186
FINAL SINGLE POINT ENERGY     -1339.825378689827

DIPOLE MOMENT
-------------
                                X             Y             Z
Electronic contribution:    -10.73740      -7.19292      17.74072
Nuclear contribution   :     11.02705       7.46731     -17.97294
                        -----------------------------------------
Total Dipole Moment    :      0.28965       0.27439      -0.23222
                        -----------------------------------------
Magnitude (a.u.)       :      0.46164
Magnitude (Debye)      :      1.17339

Rotational constants in cm-1:     0.019417     0.006956     0.005729
Rotational constants in MHz :   582.097207   208.531807   171.751655

                             ****ORCA TERMINATED NORMALLY****
TOTAL RUN TIME: 0 days 0 hours 0 minutes 30 seconds 790 msec
