                         Program Version 4.2.1 -  RELEASE  -
|  1> ! wB97X-D3 SP def2-SVP
|  2> %pal
|  3> nprocs 16
|  4> end
|  5>
|  6> * xyz 0 1
|  7> S 	 -32.5281 	 30.8563 	 42.1813
|  8> C 	 -32.3022 	 29.1997 	 42.6199
|  9> C 	 -32.466 	 29.0271 	 44.0072
| 10> C 	 -33.1889 	 30.1611 	 44.5324
| 11> C 	 -33.3576 	 31.2721 	 43.741
| 12> H 	 -33.4899 	 30.2768 	 45.5787
| 13> C 	 -32.1301 	 27.8025 	 44.846
| 14> H 	 -32.538 	 26.859 	 44.4251
| 15> H 	 -32.7987 	 27.9197 	 45.6795
| 16> C 	 -30.6415 	 27.5871 	 45.1502
| 17> H 	 -30.238 	 28.4642 	 45.6789
| 18> H 	 -30.593 	 26.8464 	 45.9135
| 19> C 	 -29.9274 	 27.2801 	 43.7885
| 20> H 	 -28.8959 	 27.0838 	 43.9109
| 21> H 	 -30.3391 	 26.3448 	 43.3051
| 22> H 	 -29.8788 	 28.2197 	 43.26
| 23> S 	 -35.6303 	 32.6138 	 44.5249
| 24> C 	 -35.5315 	 34.3326 	 44.8602
| 25> C 	 -34.2632 	 34.8035 	 44.677
| 26> C 	 -33.3155 	 33.8462 	 44.1978
| 27> C 	 -33.9098 	 32.5636 	 44.0869
| 28> H 	 -34.0981 	 35.8344 	 44.883
| 29> C 	 -31.8431 	 34.1966 	 44.0771
| 30> H 	 -31.7077 	 35.1243 	 43.4027
| 31> H 	 -31.3175 	 33.4292 	 43.4852
| 32> C 	 -31.1109 	 34.3834 	 45.4473
| 33> H 	 -31.7343 	 35.0737 	 45.8785
| 34> H 	 -30.1579 	 34.8207 	 45.2832
| 35> C 	 -30.8275 	 33.0539 	 46.1875
| 36> H 	 -30.3729 	 33.2108 	 47.0871
| 37> H 	 -30.179 	 32.5872 	 45.5281
| 38> H 	 -31.8697 	 32.6062 	 46.282
| 39> H 	 -32.0196 	 28.3593 	 42.0426
| 40> H 	 -36.3461 	 34.9966 	 45.1333
| 41> *
| 42>
| 43>                          ****END OF INPUT****

CARTESIAN COORDINATES (ANGSTROEM)
---------------------------------
  S    -32.528100   30.856300   42.181300
  C    -32.302200   29.199700   42.619900
  C    -32.466000   29.027100   44.007200
  C    -33.188900   30.161100   44.532400
  C    -33.357600   31.272100   43.741000
  H    -33.489900   30.276800   45.578700
  C    -32.130100   27.802500   44.846000
  H    -32.538000   26.859000   44.425100
  H    -32.798700   27.919700   45.679500
  C    -30.641500   27.587100   45.150200
  H    -30.238000   28.464200   45.678900
  H    -30.593000   26.846400   45.913500
  C    -29.927400   27.280100   43.788500
  H    -28.895900   27.083800   43.910900
  H    -30.339100   26.344800   43.305100
  H    -29.878800   28.219700   43.260000
  S    -35.630300   32.613800   44.524900
  C    -35.531500   34.332600   44.860200
  C    -34.263200   34.803500   44.677000
  C    -33.315500   33.846200   44.197800
  C    -33.909800   32.563600   44.086900
  H    -34.098100   35.834400   44.883000
  C    -31.843100   34.196600   44.077100
  H    -31.707700   35.124300   43.402700
  H    -31.317500   33.429200   43.485200
  C    -31.110900   34.383400   45.447300
  H    -31.734300   35.073700   45.878500
  H    -30.157900   34.820700   45.283200
  C    -30.827500   33.053900   46.187500
  H    -30.372900   33.210800   47.087100
  H    -30.179000   32.587200   45.528100
  H    -31.869700   32.606200   46.282000
  H    -32.019600   28.359300   42.042600
  H    -36.346100   34.996600   45.133300

 Total Charge           Charge          ....    0
 Multiplicity           Mult            ....    1
 Number of Electrons    NEL             ....  134
 Basis Dimension        Dim             ....  322

ORBITAL ENERGIES
----------------

  NO   OCC          E(Eh)            E(eV)
   0   2.0000     -88.968687     -2420.9611
   1   2.0000     -88.964517     -2420.8476
   2   2.0000     -10.334379      -281.2128
   3   2.0000     -10.330961      -281.1198
   4   2.0000     -10.316853      -280.7358
   5   2.0000     -10.314341      -280.6675
   6   2.0000     -10.308928      -280.5202
   7   2.0000     -10.302665      -280.3498
   8   2.0000     -10.297382      -280.2060
   9   2.0000     -10.295454      -280.1535
  10   2.0000     -10.291922      -280.0574
  11   2.0000     -10.290418      -280.0165
  12   2.0000     -10.289856      -280.0012
  13   2.0000     -10.281635      -279.7775
  14   2.0000     -10.275408      -279.6081
  15   2.0000     -10.267152      -279.3834
  16   2.0000      -8.082747      -219.9427
  17   2.0000      -8.078253      -219.8205
  18   2.0000      -6.041332      -164.3930
  19   2.0000      -6.037326      -164.2840
  20   2.0000      -6.036870      -164.2716
  21   2.0000      -6.033482      -164.1794
  22   2.0000      -6.032925      -164.1642
  23   2.0000      -6.028902      -164.0548
  24   2.0000      -1.000697       -27.2304
  25   2.0000      -0.980373       -26.6773
  26   2.0000      -0.909490       -24.7485
  27   2.0000      -0.906452       -24.6658
  28   2.0000      -0.870915       -23.6988
  29   2.0000      -0.848331       -23.0843
  30   2.0000      -0.841433       -22.8966
  31   2.0000      -0.812689       -22.1144
  32   2.0000      -0.783167       -21.3111
  33   2.0000      -0.773676       -21.0528
  34   2.0000      -0.711459       -19.3598
  35   2.0000      -0.704416       -19.1681
  36   2.0000      -0.694569       -18.9002
  37   2.0000      -0.658608       -17.9216
  38   2.0000      -0.636293       -17.3144
  39   2.0000      -0.615630       -16.7521
  40   2.0000      -0.598290       -16.2803
  41   2.0000      -0.575549       -15.6615
  42   2.0000      -0.556245       -15.1362
  43   2.0000      -0.550788       -14.9877
  44   2.0000      -0.545821       -14.8526
  45   2.0000      -0.540912       -14.7190
  46   2.0000      -0.517922       -14.0934
  47   2.0000      -0.508187       -13.8285
  48   2.0000      -0.498449       -13.5635
  49   2.0000      -0.491778       -13.3820
  50   2.0000      -0.485218       -13.2035
  51   2.0000      -0.479824       -13.0567
  52   2.0000      -0.471590       -12.8326
  53   2.0000      -0.467174       -12.7125
  54   2.0000      -0.454642       -12.3714
  55   2.0000      -0.443263       -12.0618
  56   2.0000      -0.440382       -11.9834
  57   2.0000      -0.438081       -11.9208
  58   2.0000      -0.431817       -11.7504
  59   2.0000      -0.424532       -11.5521
  60   2.0000      -0.423949       -11.5362
  61   2.0000      -0.412732       -11.2310
  62   2.0000      -0.407531       -11.0895
  63   2.0000      -0.345608        -9.4045
  64   2.0000      -0.334423        -9.1001
  65   2.0000      -0.323561        -8.8045
  66   2.0000      -0.290792        -7.9129
  67   0.0000       0.032477         0.8837
  68   0.0000       0.052657         1.4329
  69   0.0000       0.104777         2.8511
  70   0.0000       0.116597         3.1728
  71   0.0000       0.133801         3.6409

MULLIKEN ATOMIC CHARGES
-----------------------
   0 S :    0.109178
   1 C :   -0.086271
   2 C :   -0.126432
   3 C :    0.026141
   4 C :   -0.144458
   5 H :    0.017632
   6 C :    0.048170
   7 H :    0.029599
   8 H :    0.009934
   9 C :   -0.035048
  10 H :    0.029748
  11 H :    0.021994
  12 C :   -0.058040
  13 H :    0.018348
  14 H :    0.047458
  15 H :    0.050463
  16 S :    0.117572
  17 C :   -0.090373
  18 C :   -0.038593
  19 C :   -0.007428
  20 C :   -0.189551
  21 H :    0.011236
  22 C :    0.006196
  23 H :    0.045331
  24 H :    0.012148
  25 C :   -0.033761
  26 H :    0.001613
  27 H :    0.016699
  28 C :    0.004502
  29 H :    0.018863
  30 H :    0.018723
  31 H :    0.049711
  32 H :    0.040505
  33 H :    0.058191
Sum of atomic charges:   -0.0000000

LOEWDIN ATOMIC CHARGES
----------------------
   0 S :    0.388744
   1 C :   -0.188642
   2 C :   -0.066302
   3 C :   -0.060549
   4 C :   -0.188919
   5 H :    0.030360
   6 C :   -0.038474
   7 H :    0.033202
   8 H :    0.026479
   9 C :   -0.033345
  10 H :    0.027630
  11 H :    0.018723
  12 C :   -0.068935
  13 H :    0.019813
  14 H :    0.035375
  15 H :    0.032033
  16 S :    0.404046
  17 C :   -0.185474
  18 C :   -0.071129
  19 C :   -0.055755
  20 C :   -0.191831
  21 H :    0.027730
  22 C :   -0.039268
  23 H :    0.041746
  24 H :    0.020370
  25 C :   -0.025159
  26 H :    0.006024
  27 H :    0.018066
  28 C :   -0.045707
  29 H :    0.012060
  30 H :    0.018867
  31 H :    0.039119
  32 H :    0.025247
  33 H :    0.033855

  Mayer bond orders larger than 0.100000
B(  0-S ,  1-C ) :   1.1604 B(  0-S ,  4-C ) :   1.0995 B(  1-C ,  2-C ) :   1.5835
B(  1-C , 32-H ) :   0.9673 B(  2-C ,  3-C ) :   1.2577 B(  2-C ,  6-C ) :   1.0162
B(  3-C ,  4-C ) :   1.6008 B(  3-C ,  5-H ) :   0.9777 B(  4-C , 20-C ) :   1.0576
B(  6-C ,  7-H ) :   0.9448 B(  6-C ,  8-H ) :   0.9386 B(  6-C ,  9-C ) :   1.0588
B(  9-C , 10-H ) :   0.9560 B(  9-C , 11-H ) :   0.9582 B(  9-C , 12-C ) :   1.0660
B( 12-C , 13-H ) :   0.9702 B( 12-C , 14-H ) :   0.9745 B( 12-C , 15-H ) :   0.9668
B( 16-S , 17-C ) :   1.1407 B( 16-S , 20-C ) :   1.1488 B( 17-C , 18-C ) :   1.6333
B( 17-C , 33-H ) :   0.9640 B( 18-C , 19-C ) :   1.2277 B( 18-C , 21-H ) :   0.9892
B( 19-C , 20-C ) :   1.5652 B( 19-C , 22-C ) :   1.0579 B( 22-C , 23-H ) :   0.9363
B( 22-C , 24-H ) :   0.9314 B( 22-C , 25-C ) :   1.0567 B( 25-C , 26-H ) :   0.9599
B( 25-C , 27-H ) :   0.9548 B( 25-C , 28-C ) :   1.0651 B( 28-C , 29-H ) :   0.9736
B( 28-C , 30-H ) :   0.9758 B( 28-C , 31-H ) :   0.9782

Dispersion correction           -0.015562916
FINAL SINGLE POINT ENERGY     -1339.851236099841

DIPOLE MOMENT
-------------
                                X             Y             Z
Electronic contribution:    -20.60369       7.55209     -10.19852
Nuclear contribution   :     21.04488      -7.60782      10.65045
                        -----------------------------------------
Total Dipole Moment    :      0.44119      -0.05573       0.45193
                        -----------------------------------------
Magnitude (a.u.)       :      0.63403
Magnitude (Debye)      :      1.61157

Rotational constants in cm-1:     0.021914     0.008334     0.007344
Rotational constants in MHz :   656.959521   249.852756   220.163797

                             ****ORCA TERMINATED NORMALLY****
TOTAL RUN TIME: 0 days 0 hours 0 minutes 35 seconds 116 msec
