                         Program Version 4.2.1 -  RELEASE  -
|  1> ! wB97X-D3 SP def2-SVP
|  2> %pal
|  3> nprocs 16
|  4> end
|  5>
|  6> * xyz 0 1
|  7> S 	 -33.0061 	 55.4667 	 101.943
|  8> C 	 -34.4516 	 54.9967 	 101.049
|  9> C 	 -35.259 	 56.0884 	 100.761
| 10> C 	 -34.8182 	 57.2434 	 101.485
| 11> C 	 -33.6678 	 57.0296 	 102.257
| 12> H 	 -35.2141 	 58.2262 	 101.454
| 13> C 	 -36.4803 	 56.1246 	 99.8782
| 14> H 	 -36.3592 	 55.144 	 99.2066
| 15> H 	 -36.4967 	 57.0584 	 99.1898
| 16> C 	 -37.8065 	 56.0399 	 100.613
| 17> H 	 -37.7116 	 55.5896 	 101.649
| 18> H 	 -38.1265 	 57.0765 	 100.654
| 19> C 	 -38.7466 	 55.2945 	 99.7208
| 20> H 	 -38.5682 	 54.2447 	 99.7865
| 21> H 	 -39.7872 	 55.5089 	 99.86
| 22> H 	 -38.4942 	 55.4661 	 98.6453
| 23> S 	 -33.8621 	 58.4746 	 104.618
| 24> C 	 -32.48 	 59.4711 	 105.098
| 25> C 	 -31.4096 	 59.3622 	 104.263
| 26> C 	 -31.7213 	 58.5266 	 103.137
| 27> C 	 -33.0229 	 57.9946 	 103.182
| 28> H 	 -30.5282 	 59.9415 	 104.466
| 29> C 	 -30.7351 	 58.3741 	 101.994
| 30> H 	 -30.8738 	 57.3573 	 101.531
| 31> H 	 -29.7203 	 58.4441 	 102.436
| 32> C 	 -30.7003 	 59.4585 	 100.902
| 33> H 	 -30.5683 	 60.4476 	 101.316
| 34> H 	 -31.7082 	 59.4898 	 100.537
| 35> C 	 -29.6928 	 59.1323 	 99.7672
| 36> H 	 -29.7581 	 59.6847 	 98.8164
| 37> H 	 -29.7824 	 58.0839 	 99.5912
| 38> H 	 -28.6981 	 59.2823 	 100.086
| 39> H 	 -34.5738 	 54.021 	 100.725
| 40> H 	 -32.4588 	 60.0934 	 105.946
| 41> *
| 42>
| 43>                          ****END OF INPUT****

CARTESIAN COORDINATES (ANGSTROEM)
---------------------------------
  S    -33.006100   55.466700  101.943000
  C    -34.451600   54.996700  101.049000
  C    -35.259000   56.088400  100.761000
  C    -34.818200   57.243400  101.485000
  C    -33.667800   57.029600  102.257000
  H    -35.214100   58.226200  101.454000
  C    -36.480300   56.124600   99.878200
  H    -36.359200   55.144000   99.206600
  H    -36.496700   57.058400   99.189800
  C    -37.806500   56.039900  100.613000
  H    -37.711600   55.589600  101.649000
  H    -38.126500   57.076500  100.654000
  C    -38.746600   55.294500   99.720800
  H    -38.568200   54.244700   99.786500
  H    -39.787200   55.508900   99.860000
  H    -38.494200   55.466100   98.645300
  S    -33.862100   58.474600  104.618000
  C    -32.480000   59.471100  105.098000
  C    -31.409600   59.362200  104.263000
  C    -31.721300   58.526600  103.137000
  C    -33.022900   57.994600  103.182000
  H    -30.528200   59.941500  104.466000
  C    -30.735100   58.374100  101.994000
  H    -30.873800   57.357300  101.531000
  H    -29.720300   58.444100  102.436000
  C    -30.700300   59.458500  100.902000
  H    -30.568300   60.447600  101.316000
  H    -31.708200   59.489800  100.537000
  C    -29.692800   59.132300   99.767200
  H    -29.758100   59.684700   98.816400
  H    -29.782400   58.083900   99.591200
  H    -28.698100   59.282300  100.086000
  H    -34.573800   54.021000  100.725000
  H    -32.458800   60.093400  105.946000

 Total Charge           Charge          ....    0
 Multiplicity           Mult            ....    1
 Number of Electrons    NEL             ....  134
 Basis Dimension        Dim             ....  322

ORBITAL ENERGIES
----------------

  NO   OCC          E(Eh)            E(eV)
   0   2.0000     -88.968016     -2420.9428
   1   2.0000     -88.967023     -2420.9158
   2   2.0000     -10.329729      -281.0862
   3   2.0000     -10.327514      -281.0259
   4   2.0000     -10.312820      -280.6261
   5   2.0000     -10.311962      -280.6027
   6   2.0000     -10.307676      -280.4861
   7   2.0000     -10.304215      -280.3919
   8   2.0000     -10.303513      -280.3729
   9   2.0000     -10.292636      -280.0769
  10   2.0000     -10.292509      -280.0734
  11   2.0000     -10.292179      -280.0644
  12   2.0000     -10.286604      -279.9127
  13   2.0000     -10.280810      -279.7551
  14   2.0000     -10.273828      -279.5651
  15   2.0000     -10.272200      -279.5208
  16   2.0000      -8.082576      -219.9381
  17   2.0000      -8.081658      -219.9131
  18   2.0000      -6.041031      -164.3848
  19   2.0000      -6.040052      -164.3582
  20   2.0000      -6.037153      -164.2793
  21   2.0000      -6.036240      -164.2544
  22   2.0000      -6.033363      -164.1762
  23   2.0000      -6.032497      -164.1526
  24   2.0000      -1.004540       -27.3349
  25   2.0000      -0.983750       -26.7692
  26   2.0000      -0.918674       -24.9984
  27   2.0000      -0.904082       -24.6013
  28   2.0000      -0.870407       -23.6850
  29   2.0000      -0.852539       -23.1988
  30   2.0000      -0.844525       -22.9807
  31   2.0000      -0.815167       -22.1818
  32   2.0000      -0.778487       -21.1837
  33   2.0000      -0.767640       -20.8886
  34   2.0000      -0.707245       -19.2451
  35   2.0000      -0.697941       -18.9919
  36   2.0000      -0.690682       -18.7944
  37   2.0000      -0.663797       -18.0628
  38   2.0000      -0.646181       -17.5835
  39   2.0000      -0.615561       -16.7503
  40   2.0000      -0.593827       -16.1589
  41   2.0000      -0.580135       -15.7863
  42   2.0000      -0.564243       -15.3538
  43   2.0000      -0.559365       -15.2211
  44   2.0000      -0.524546       -14.2736
  45   2.0000      -0.520253       -14.1568
  46   2.0000      -0.518028       -14.0963
  47   2.0000      -0.513674       -13.9778
  48   2.0000      -0.502486       -13.6733
  49   2.0000      -0.495419       -13.4810
  50   2.0000      -0.487734       -13.2719
  51   2.0000      -0.477588       -12.9958
  52   2.0000      -0.471197       -12.8219
  53   2.0000      -0.466537       -12.6951
  54   2.0000      -0.460050       -12.5186
  55   2.0000      -0.450054       -12.2466
  56   2.0000      -0.442169       -12.0320
  57   2.0000      -0.437107       -11.8943
  58   2.0000      -0.435040       -11.8381
  59   2.0000      -0.426712       -11.6114
  60   2.0000      -0.422851       -11.5064
  61   2.0000      -0.412174       -11.2158
  62   2.0000      -0.410561       -11.1719
  63   2.0000      -0.341849        -9.3022
  64   2.0000      -0.331139        -9.0107
  65   2.0000      -0.327948        -8.9239
  66   2.0000      -0.295324        -8.0362
  67   0.0000       0.034804         0.9471
  68   0.0000       0.064026         1.7422
  69   0.0000       0.099749         2.7143
  70   0.0000       0.115755         3.1498
  71   0.0000       0.131069         3.5666

MULLIKEN ATOMIC CHARGES
-----------------------
   0 S :    0.119359
   1 C :   -0.115620
   2 C :   -0.041653
   3 C :    0.034807
   4 C :   -0.165681
   5 H :   -0.001113
   6 C :   -0.044219
   7 H :    0.039226
   8 H :    0.060183
   9 C :   -0.036547
  10 H :    0.057138
  11 H :    0.027644
  12 C :   -0.054289
  13 H :    0.026798
  14 H :    0.033403
  15 H :    0.028010
  16 S :    0.120590
  17 C :   -0.080003
  18 C :   -0.021288
  19 C :   -0.037021
  20 C :   -0.154799
  21 H :    0.018633
  22 C :    0.027633
  23 H :    0.027122
  24 H :    0.020500
  25 C :   -0.036549
  26 H :    0.017062
  27 H :    0.016778
  28 C :   -0.018157
  29 H :    0.040830
  30 H :    0.020256
  31 H :    0.014480
  32 H :    0.020804
  33 H :    0.035685
Sum of atomic charges:    0.0000000

LOEWDIN ATOMIC CHARGES
----------------------
   0 S :    0.418697
   1 C :   -0.181791
   2 C :   -0.063723
   3 C :   -0.059815
   4 C :   -0.201309
   5 H :    0.025406
   6 C :   -0.042586
   7 H :    0.036855
   8 H :    0.045102
   9 C :   -0.047600
  10 H :    0.035540
  11 H :    0.025510
  12 C :   -0.065760
  13 H :    0.022418
  14 H :    0.021026
  15 H :    0.029576
  16 S :    0.412094
  17 C :   -0.169926
  18 C :   -0.065131
  19 C :   -0.058353
  20 C :   -0.211009
  21 H :    0.033982
  22 C :   -0.039113
  23 H :    0.025589
  24 H :    0.030113
  25 C :   -0.036498
  26 H :    0.019140
  27 H :    0.019979
  28 C :   -0.060803
  29 H :    0.031598
  30 H :    0.023317
  31 H :    0.018142
  32 H :    0.010548
  33 H :    0.018785

  Mayer bond orders larger than 0.100000
B(  0-S ,  1-C ) :   1.1472 B(  0-S ,  4-C ) :   1.1627 B(  1-C ,  2-C ) :   1.5893
B(  1-C , 32-H ) :   0.9818 B(  2-C ,  3-C ) :   1.2237 B(  2-C ,  6-C ) :   1.0242
B(  3-C ,  4-C ) :   1.5710 B(  3-C ,  5-H ) :   1.0026 B(  4-C , 20-C ) :   1.0163
B(  6-C ,  7-H ) :   0.9540 B(  6-C ,  8-H ) :   0.9371 B(  6-C ,  9-C ) :   1.0343
B(  9-C , 10-H ) :   0.9614 B(  9-C , 11-H ) :   0.9500 B(  9-C , 12-C ) :   1.0838
B( 12-C , 13-H ) :   0.9732 B( 12-C , 14-H ) :   0.9730 B( 12-C , 15-H ) :   0.9708
B( 16-S , 17-C ) :   1.1484 B( 16-S , 20-C ) :   1.1485 B( 17-C , 18-C ) :   1.6317
B( 17-C , 33-H ) :   0.9690 B( 18-C , 19-C ) :   1.2290 B( 18-C , 21-H ) :   0.9932
B( 19-C , 20-C ) :   1.5894 B( 19-C , 22-C ) :   1.0565 B( 22-C , 23-H ) :   0.9247
B( 22-C , 24-H ) :   0.9339 B( 22-C , 25-C ) :   1.0660 B( 25-C , 26-H ) :   0.9555
B( 25-C , 27-H ) :   0.9536 B( 25-C , 28-C ) :   1.0683 B( 28-C , 29-H ) :   0.9758
B( 28-C , 30-H ) :   0.9747 B( 28-C , 31-H ) :   0.9757

Dispersion correction           -0.013816319
FINAL SINGLE POINT ENERGY     -1339.873183190422

DIPOLE MOMENT
-------------
                                X             Y             Z
Electronic contribution:      4.19704      -2.10592      19.62787
Nuclear contribution   :     -4.27474       2.34079     -19.94916
                        -----------------------------------------
Total Dipole Moment    :     -0.07770       0.23487      -0.32129
                        -----------------------------------------
Magnitude (a.u.)       :      0.40550
Magnitude (Debye)      :      1.03069

Rotational constants in cm-1:     0.019760     0.007628     0.006409
Rotational constants in MHz :   592.377795   228.689599   192.142986

                             ****ORCA TERMINATED NORMALLY****
TOTAL RUN TIME: 0 days 0 hours 0 minutes 29 seconds 999 msec
