                         Program Version 4.2.1 -  RELEASE  -
|  1> ! wB97X-D3 SP def2-SVP
|  2> %pal
|  3> nprocs 16
|  4> end
|  5>
|  6> * xyz 0 1
|  7> S 	 11.0855 	 22.1409 	 47.3766
|  8> C 	 11.9162 	 22.5533 	 48.8431
|  9> C 	 11.0591 	 22.9664 	 49.8237
| 10> C 	 9.73699 	 22.9948 	 49.3409
| 11> C 	 9.58566 	 22.5424 	 48.0791
| 12> H 	 8.9014 	 23.4205 	 49.7945
| 13> C 	 11.521 	 23.6011 	 51.1161
| 14> H 	 12.6091 	 23.4802 	 51.0879
| 15> H 	 11.1473 	 23.0068 	 51.9144
| 16> C 	 10.9628 	 24.9906 	 51.3298
| 17> H 	 11.5045 	 25.59 	 50.6024
| 18> H 	 9.8943 	 25.0663 	 51.2555
| 19> C 	 11.2712 	 25.5196 	 52.6959
| 20> H 	 10.8951 	 26.5881 	 52.8265
| 21> H 	 10.7089 	 24.9961 	 53.5503
| 22> H 	 12.3461 	 25.3473 	 52.9677
| 23> S 	 8.23976 	 23.3877 	 45.9033
| 24> C 	 6.59386 	 23.001 	 45.519
| 25> C 	 6.09201 	 22.2562 	 46.6009
| 26> C 	 7.04705 	 21.8171 	 47.5842
| 27> C 	 8.27879 	 22.4288 	 47.3484
| 28> H 	 5.04045 	 21.9918 	 46.5728
| 29> C 	 6.67824 	 20.863 	 48.7019
| 30> H 	 5.64309 	 20.9642 	 49.2089
| 31> H 	 7.32298 	 21.2341 	 49.4847
| 32> C 	 6.94535 	 19.3725 	 48.3259
| 33> H 	 6.89455 	 18.7975 	 49.3068
| 34> H 	 7.91742 	 19.1407 	 48.0661
| 35> C 	 6.11379 	 18.8916 	 47.1481
| 36> H 	 6.38367 	 17.9761 	 46.7599
| 37> H 	 6.00755 	 19.5411 	 46.3268
| 38> H 	 5.08035 	 18.72 	 47.5293
| 39> H 	 12.8959 	 22.2565 	 49.1571
| 40> H 	 6.01678 	 23.3363 	 44.722
| 41> *
| 42>
| 43>                          ****END OF INPUT****

CARTESIAN COORDINATES (ANGSTROEM)
---------------------------------
  S     11.085500   22.140900   47.376600
  C     11.916200   22.553300   48.843100
  C     11.059100   22.966400   49.823700
  C      9.736990   22.994800   49.340900
  C      9.585660   22.542400   48.079100
  H      8.901400   23.420500   49.794500
  C     11.521000   23.601100   51.116100
  H     12.609100   23.480200   51.087900
  H     11.147300   23.006800   51.914400
  C     10.962800   24.990600   51.329800
  H     11.504500   25.590000   50.602400
  H      9.894300   25.066300   51.255500
  C     11.271200   25.519600   52.695900
  H     10.895100   26.588100   52.826500
  H     10.708900   24.996100   53.550300
  H     12.346100   25.347300   52.967700
  S      8.239760   23.387700   45.903300
  C      6.593860   23.001000   45.519000
  C      6.092010   22.256200   46.600900
  C      7.047050   21.817100   47.584200
  C      8.278790   22.428800   47.348400
  H      5.040450   21.991800   46.572800
  C      6.678240   20.863000   48.701900
  H      5.643090   20.964200   49.208900
  H      7.322980   21.234100   49.484700
  C      6.945350   19.372500   48.325900
  H      6.894550   18.797500   49.306800
  H      7.917420   19.140700   48.066100
  C      6.113790   18.891600   47.148100
  H      6.383670   17.976100   46.759900
  H      6.007550   19.541100   46.326800
  H      5.080350   18.720000   47.529300
  H     12.895900   22.256500   49.157100
  H      6.016780   23.336300   44.722000

 Total Charge           Charge          ....    0
 Multiplicity           Mult            ....    1
 Number of Electrons    NEL             ....  134
 Basis Dimension        Dim             ....  322

ORBITAL ENERGIES
----------------

  NO   OCC          E(Eh)            E(eV)
   0   2.0000     -88.967212     -2420.9209
   1   2.0000     -88.963386     -2420.8168
   2   2.0000     -10.330716      -281.1131
   3   2.0000     -10.325604      -280.9740
   4   2.0000     -10.313769      -280.6519
   5   2.0000     -10.307489      -280.4810
   6   2.0000     -10.306609      -280.4571
   7   2.0000     -10.298524      -280.2371
   8   2.0000     -10.294287      -280.1218
   9   2.0000     -10.293978      -280.1134
  10   2.0000     -10.289575      -279.9936
  11   2.0000     -10.289339      -279.9871
  12   2.0000     -10.284647      -279.8595
  13   2.0000     -10.283920      -279.8397
  14   2.0000     -10.281802      -279.7820
  15   2.0000     -10.264669      -279.3158
  16   2.0000      -8.082944      -219.9481
  17   2.0000      -8.078598      -219.8298
  18   2.0000      -6.041357      -164.3937
  19   2.0000      -6.037273      -164.2826
  20   2.0000      -6.037077      -164.2772
  21   2.0000      -6.033779      -164.1875
  22   2.0000      -6.032770      -164.1600
  23   2.0000      -6.029620      -164.0743
  24   2.0000      -1.015118       -27.6228
  25   2.0000      -0.989682       -26.9306
  26   2.0000      -0.922250       -25.0957
  27   2.0000      -0.906055       -24.6550
  28   2.0000      -0.870752       -23.6944
  29   2.0000      -0.853866       -23.2349
  30   2.0000      -0.845431       -23.0053
  31   2.0000      -0.819277       -22.2937
  32   2.0000      -0.783491       -21.3199
  33   2.0000      -0.774333       -21.0707
  34   2.0000      -0.710078       -19.3222
  35   2.0000      -0.699846       -19.0438
  36   2.0000      -0.689983       -18.7754
  37   2.0000      -0.662642       -18.0314
  38   2.0000      -0.646621       -17.5955
  39   2.0000      -0.625130       -17.0107
  40   2.0000      -0.592790       -16.1306
  41   2.0000      -0.578070       -15.7301
  42   2.0000      -0.570933       -15.5359
  43   2.0000      -0.555733       -15.1223
  44   2.0000      -0.541172       -14.7260
  45   2.0000      -0.527936       -14.3659
  46   2.0000      -0.520167       -14.1545
  47   2.0000      -0.511236       -13.9114
  48   2.0000      -0.502090       -13.6626
  49   2.0000      -0.500711       -13.6250
  50   2.0000      -0.488106       -13.2820
  51   2.0000      -0.479932       -13.0596
  52   2.0000      -0.476670       -12.9708
  53   2.0000      -0.460568       -12.5327
  54   2.0000      -0.458082       -12.4650
  55   2.0000      -0.454694       -12.3729
  56   2.0000      -0.444365       -12.0918
  57   2.0000      -0.440293       -11.9810
  58   2.0000      -0.427674       -11.6376
  59   2.0000      -0.423424       -11.5219
  60   2.0000      -0.419673       -11.4199
  61   2.0000      -0.414637       -11.2829
  62   2.0000      -0.404318       -11.0021
  63   2.0000      -0.342959        -9.3324
  64   2.0000      -0.333324        -9.0702
  65   2.0000      -0.327533        -8.9126
  66   2.0000      -0.299265        -8.1434
  67   0.0000       0.038146         1.0380
  68   0.0000       0.067836         1.8459
  69   0.0000       0.115031         3.1302
  70   0.0000       0.126473         3.4415
  71   0.0000       0.138424         3.7667

MULLIKEN ATOMIC CHARGES
-----------------------
   0 S :    0.128919
   1 C :   -0.109726
   2 C :   -0.108189
   3 C :    0.050210
   4 C :   -0.151420
   5 H :   -0.015327
   6 C :    0.110358
   7 H :    0.016420
   8 H :    0.011513
   9 C :   -0.051368
  10 H :    0.037299
  11 H :    0.037046
  12 C :   -0.105080
  13 H :    0.049529
  14 H :    0.031612
  15 H :    0.038146
  16 S :    0.104088
  17 C :   -0.069089
  18 C :   -0.060188
  19 C :   -0.028335
  20 C :   -0.170616
  21 H :    0.020856
  22 C :    0.049403
  23 H :    0.047576
  24 H :    0.011131
  25 C :   -0.038181
  26 H :    0.032507
  27 H :    0.008156
  28 C :   -0.011033
  29 H :    0.011564
  30 H :    0.029607
  31 H :    0.014433
  32 H :    0.041162
  33 H :    0.037018
Sum of atomic charges:   -0.0000000

LOEWDIN ATOMIC CHARGES
----------------------
   0 S :    0.432678
   1 C :   -0.207623
   2 C :   -0.060951
   3 C :   -0.062645
   4 C :   -0.208292
   5 H :    0.020547
   6 C :   -0.025162
   7 H :    0.031415
   8 H :    0.024507
   9 C :   -0.040903
  10 H :    0.030527
  11 H :    0.027074
  12 C :   -0.079557
  13 H :    0.034579
  14 H :    0.027257
  15 H :    0.027193
  16 S :    0.424065
  17 C :   -0.190659
  18 C :   -0.070000
  19 C :   -0.061294
  20 C :   -0.197512
  21 H :    0.027446
  22 C :   -0.038255
  23 H :    0.042745
  24 H :    0.028556
  25 C :   -0.036291
  26 H :    0.033229
  27 H :    0.013948
  28 C :   -0.058063
  29 H :    0.016042
  30 H :    0.022288
  31 H :    0.027491
  32 H :    0.026107
  33 H :    0.019511

  Mayer bond orders larger than 0.100000
B(  0-S ,  1-C ) :   1.1378 B(  0-S ,  4-C ) :   1.1705 B(  1-C ,  2-C ) :   1.6341
B(  1-C , 32-H ) :   0.9557 B(  2-C ,  3-C ) :   1.2309 B(  2-C ,  6-C ) :   1.0270
B(  3-C ,  4-C ) :   1.5981 B(  3-C ,  5-H ) :   1.0017 B(  4-C , 20-C ) :   0.9721
B(  6-C ,  7-H ) :   0.9390 B(  6-C ,  8-H ) :   0.9205 B(  6-C ,  9-C ) :   1.0748
B(  9-C , 10-H ) :   0.9512 B(  9-C , 11-H ) :   0.9481 B(  9-C , 12-C ) :   1.0926
B( 12-C , 13-H ) :   0.9712 B( 12-C , 14-H ) :   0.9712 B( 12-C , 15-H ) :   0.9717
B( 16-S , 17-C ) :   1.1565 B( 16-S , 20-C ) :   1.1786 B( 17-C , 18-C ) :   1.5842
B( 17-C , 20-C ) :   0.1065 B( 17-C , 33-H ) :   0.9804 B( 18-C , 19-C ) :   1.2458
B( 18-C , 21-H ) :   0.9852 B( 19-C , 20-C ) :   1.5897 B( 19-C , 22-C ) :   1.0277
B( 22-C , 23-H ) :   0.9479 B( 22-C , 24-H ) :   0.9252 B( 22-C , 25-C ) :   1.0697
B( 25-C , 26-H ) :   0.9558 B( 25-C , 27-H ) :   0.9569 B( 25-C , 28-C ) :   1.0672
B( 28-C , 29-H ) :   0.9722 B( 28-C , 30-H ) :   0.9717 B( 28-C , 31-H ) :   0.9735

Dispersion correction           -0.014086734
FINAL SINGLE POINT ENERGY     -1339.855765312871

DIPOLE MOMENT
-------------
                                X             Y             Z
Electronic contribution:      5.06490       3.22857     -20.57379
Nuclear contribution   :     -5.28943      -3.27120      21.11659
                        -----------------------------------------
Total Dipole Moment    :     -0.22453      -0.04263       0.54280
                        -----------------------------------------
Magnitude (a.u.)       :      0.58895
Magnitude (Debye)      :      1.49699

Rotational constants in cm-1:     0.021070     0.007426     0.006982
Rotational constants in MHz :   631.663526   222.631634   209.325262

                             ****ORCA TERMINATED NORMALLY****
TOTAL RUN TIME: 0 days 0 hours 0 minutes 34 seconds 503 msec
