                         Program Version 4.2.1 -  RELEASE  -
|  1> ! wB97X-D3 SP def2-SVP
|  2> %pal
|  3> nprocs 16
|  4> end
|  5>
|  6> * xyz 0 1
|  7> S 	 53.6674 	 3.95581 	 80.4369
|  8> C 	 52.5545 	 2.67943 	 80.6128
|  9> C 	 53.1169 	 1.37225 	 80.5374
| 10> C 	 54.5672 	 1.49735 	 80.5445
| 11> C 	 55.0402 	 2.78503 	 80.4634
| 12> H 	 55.3162 	 0.779636 	 80.6406
| 13> C 	 52.2789 	 0.0220768 	 80.5394
| 14> H 	 51.4845 	 0.156441 	 79.7847
| 15> H 	 51.8961 	 -0.0757041 	 81.5666
| 16> C 	 53.0395 	 -1.16843 	 79.9823
| 17> H 	 53.5364 	 -0.710027 	 79.0529
| 18> H 	 53.8366 	 -1.39968 	 80.6607
| 19> C 	 52.1307 	 -2.40556 	 79.7304
| 20> H 	 51.5091 	 -2.48277 	 80.6642
| 21> H 	 51.4821 	 -2.21947 	 78.8848
| 22> H 	 52.6119 	 -3.41747 	 79.7262
| 23> S 	 56.7556 	 4.31713 	 81.8366
| 24> C 	 58.4014 	 4.65785 	 81.3199
| 25> C 	 58.7076 	 3.72301 	 80.3699
| 26> C 	 57.6047 	 2.87881 	 79.8906
| 27> C 	 56.4274 	 3.27707 	 80.5194
| 28> H 	 59.7041 	 3.6376 	 80.0612
| 29> C 	 57.9281 	 1.65609 	 79.0092
| 30> H 	 58.5033 	 1.90188 	 78.0946
| 31> H 	 56.935 	 1.35241 	 78.671
| 32> C 	 58.6266 	 0.553519 	 79.81
| 33> H 	 57.8943 	 0.0892927 	 80.5201
| 34> H 	 59.4214 	 1.01608 	 80.3763
| 35> C 	 59.082 	 -0.44857 	 78.7287
| 36> H 	 58.1058 	 -0.743285 	 78.3422
| 37> H 	 59.5723 	 -1.32832 	 79.0924
| 38> H 	 59.7598 	 -0.0300954 	 77.9457
| 39> H 	 51.4514 	 2.81912 	 80.7387
| 40> H 	 58.9658 	 5.38861 	 81.7933
| 41> *
| 42>
| 43>                          ****END OF INPUT****

CARTESIAN COORDINATES (ANGSTROEM)
---------------------------------
  S     53.667400    3.955810   80.436900
  C     52.554500    2.679430   80.612800
  C     53.116900    1.372250   80.537400
  C     54.567200    1.497350   80.544500
  C     55.040200    2.785030   80.463400
  H     55.316200    0.779636   80.640600
  C     52.278900    0.022077   80.539400
  H     51.484500    0.156441   79.784700
  H     51.896100   -0.075704   81.566600
  C     53.039500   -1.168430   79.982300
  H     53.536400   -0.710027   79.052900
  H     53.836600   -1.399680   80.660700
  C     52.130700   -2.405560   79.730400
  H     51.509100   -2.482770   80.664200
  H     51.482100   -2.219470   78.884800
  H     52.611900   -3.417470   79.726200
  S     56.755600    4.317130   81.836600
  C     58.401400    4.657850   81.319900
  C     58.707600    3.723010   80.369900
  C     57.604700    2.878810   79.890600
  C     56.427400    3.277070   80.519400
  H     59.704100    3.637600   80.061200
  C     57.928100    1.656090   79.009200
  H     58.503300    1.901880   78.094600
  H     56.935000    1.352410   78.671000
  C     58.626600    0.553519   79.810000
  H     57.894300    0.089293   80.520100
  H     59.421400    1.016080   80.376300
  C     59.082000   -0.448570   78.728700
  H     58.105800   -0.743285   78.342200
  H     59.572300   -1.328320   79.092400
  H     59.759800   -0.030095   77.945700
  H     51.451400    2.819120   80.738700
  H     58.965800    5.388610   81.793300

 Total Charge           Charge          ....    0
 Multiplicity           Mult            ....    1
 Number of Electrons    NEL             ....  134
 Basis Dimension        Dim             ....  322

ORBITAL ENERGIES
----------------

  NO   OCC          E(Eh)            E(eV)
   0   2.0000     -88.967350     -2420.9247
   1   2.0000     -88.956257     -2420.6228
   2   2.0000     -10.329820      -281.0887
   3   2.0000     -10.325903      -280.9821
   4   2.0000     -10.319400      -280.8052
   5   2.0000     -10.312316      -280.6124
   6   2.0000     -10.311457      -280.5890
   7   2.0000     -10.306337      -280.4497
   8   2.0000     -10.301634      -280.3217
   9   2.0000     -10.295978      -280.1678
  10   2.0000     -10.295510      -280.1551
  11   2.0000     -10.293879      -280.1107
  12   2.0000     -10.292411      -280.0708
  13   2.0000     -10.290636      -280.0224
  14   2.0000     -10.289976      -280.0045
  15   2.0000     -10.281578      -279.7760
  16   2.0000      -8.081926      -219.9204
  17   2.0000      -8.072195      -219.6556
  18   2.0000      -6.040324      -164.3656
  19   2.0000      -6.036436      -164.2598
  20   2.0000      -6.032827      -164.1616
  21   2.0000      -6.030720      -164.1042
  22   2.0000      -6.026575      -163.9915
  23   2.0000      -6.022791      -163.8885
  24   2.0000      -1.004666       -27.3383
  25   2.0000      -0.980275       -26.6747
  26   2.0000      -0.913620       -24.8609
  27   2.0000      -0.908897       -24.7323
  28   2.0000      -0.869759       -23.6674
  29   2.0000      -0.848210       -23.0810
  30   2.0000      -0.841507       -22.8986
  31   2.0000      -0.815080       -22.1794
  32   2.0000      -0.776556       -21.1312
  33   2.0000      -0.767714       -20.8906
  34   2.0000      -0.706619       -19.2281
  35   2.0000      -0.700363       -19.0579
  36   2.0000      -0.682912       -18.5830
  37   2.0000      -0.664241       -18.0749
  38   2.0000      -0.645449       -17.5636
  39   2.0000      -0.616342       -16.7715
  40   2.0000      -0.599811       -16.3217
  41   2.0000      -0.578710       -15.7475
  42   2.0000      -0.571036       -15.5387
  43   2.0000      -0.559498       -15.2247
  44   2.0000      -0.535026       -14.5588
  45   2.0000      -0.519010       -14.1230
  46   2.0000      -0.513238       -13.9659
  47   2.0000      -0.506419       -13.7804
  48   2.0000      -0.503972       -13.7138
  49   2.0000      -0.502201       -13.6656
  50   2.0000      -0.491782       -13.3821
  51   2.0000      -0.474442       -12.9102
  52   2.0000      -0.470523       -12.8036
  53   2.0000      -0.464984       -12.6529
  54   2.0000      -0.452960       -12.3257
  55   2.0000      -0.447103       -12.1663
  56   2.0000      -0.445043       -12.1102
  57   2.0000      -0.439077       -11.9479
  58   2.0000      -0.429281       -11.6813
  59   2.0000      -0.427702       -11.6384
  60   2.0000      -0.423455       -11.5228
  61   2.0000      -0.419415       -11.4129
  62   2.0000      -0.412768       -11.2320
  63   2.0000      -0.348389        -9.4801
  64   2.0000      -0.327126        -8.9015
  65   2.0000      -0.320796        -8.7293
  66   2.0000      -0.294403        -8.0111
  67   0.0000       0.029738         0.8092
  68   0.0000       0.072527         1.9736
  69   0.0000       0.107906         2.9363
  70   0.0000       0.117365         3.1937
  71   0.0000       0.128118         3.4863

MULLIKEN ATOMIC CHARGES
-----------------------
   0 S :    0.127624
   1 C :   -0.129886
   2 C :   -0.113675
   3 C :    0.063617
   4 C :   -0.173954
   5 H :   -0.024281
   6 C :    0.055573
   7 H :    0.034887
   8 H :    0.053250
   9 C :   -0.119650
  10 H :    0.045815
  11 H :    0.031208
  12 C :   -0.045575
  13 H :    0.029653
  14 H :    0.044055
  15 H :    0.048217
  16 S :    0.089027
  17 C :   -0.067567
  18 C :   -0.019711
  19 C :   -0.029117
  20 C :   -0.158152
  21 H :    0.000194
  22 C :    0.032367
  23 H :    0.035378
  24 H :    0.021461
  25 C :   -0.071060
  26 H :    0.043257
  27 H :    0.030824
  28 C :   -0.036580
  29 H :    0.027332
  30 H :    0.027805
  31 H :    0.045347
  32 H :    0.065007
  33 H :    0.037310
Sum of atomic charges:   -0.0000000

LOEWDIN ATOMIC CHARGES
----------------------
   0 S :    0.409396
   1 C :   -0.214784
   2 C :   -0.065904
   3 C :   -0.055151
   4 C :   -0.186291
   5 H :    0.019751
   6 C :   -0.031952
   7 H :    0.034055
   8 H :    0.033308
   9 C :   -0.052331
  10 H :    0.033689
  11 H :    0.017026
  12 C :   -0.070292
  13 H :    0.032056
  14 H :    0.025810
  15 H :    0.034775
  16 S :    0.411136
  17 C :   -0.169786
  18 C :   -0.063725
  19 C :   -0.056906
  20 C :   -0.212589
  21 H :    0.018712
  22 C :   -0.032555
  23 H :    0.033154
  24 H :    0.027120
  25 C :   -0.035112
  26 H :    0.030608
  27 H :    0.018954
  28 C :   -0.064442
  29 H :    0.029177
  30 H :    0.018591
  31 H :    0.030937
  32 H :    0.037059
  33 H :    0.016505

  Mayer bond orders larger than 0.100000
B(  0-S ,  1-C ) :   1.1720 B(  0-S ,  4-C ) :   1.1325 B(  1-C ,  2-C ) :   1.6098
B(  1-C , 32-H ) :   0.9612 B(  2-C ,  3-C ) :   1.2226 B(  2-C ,  6-C ) :   0.9922
B(  3-C ,  4-C ) :   1.6015 B(  3-C ,  5-H ) :   0.9996 B(  4-C , 20-C ) :   1.0111
B(  6-C ,  7-H ) :   0.9523 B(  6-C ,  8-H ) :   0.9366 B(  6-C ,  9-C ) :   1.0712
B(  9-C , 10-H ) :   0.9601 B(  9-C , 11-H ) :   0.9492 B(  9-C , 12-C ) :   1.0686
B( 12-C , 13-H ) :   0.9713 B( 12-C , 14-H ) :   0.9765 B( 12-C , 15-H ) :   0.9751
B( 16-S , 17-C ) :   1.1361 B( 16-S , 20-C ) :   1.1756 B( 17-C , 18-C ) :   1.5949
B( 17-C , 33-H ) :   0.9881 B( 18-C , 19-C ) :   1.2164 B( 18-C , 21-H ) :   0.9976
B( 19-C , 20-C ) :   1.5874 B( 19-C , 22-C ) :   1.0449 B( 22-C , 23-H ) :   0.9437
B( 22-C , 24-H ) :   0.9255 B( 22-C , 25-C ) :   1.0521 B( 25-C , 26-H ) :   0.9520
B( 25-C , 27-H ) :   0.9601 B( 25-C , 28-C ) :   1.0655 B( 28-C , 29-H ) :   0.9718
B( 28-C , 30-H ) :   0.9743 B( 28-C , 31-H ) :   0.9770

Dispersion correction           -0.013789608
FINAL SINGLE POINT ENERGY     -1339.859885068146

DIPOLE MOMENT
-------------
                                X             Y             Z
Electronic contribution:     -1.70336      30.24756       9.50668
Nuclear contribution   :      1.83651     -30.95902      -9.57077
                        -----------------------------------------
Total Dipole Moment    :      0.13316      -0.71147      -0.06409
                        -----------------------------------------
Magnitude (a.u.)       :      0.72665
Magnitude (Debye)      :      1.84700

Rotational constants in cm-1:     0.016407     0.009180     0.006233
Rotational constants in MHz :   491.874727   275.205135   186.862744

                             ****ORCA TERMINATED NORMALLY****
TOTAL RUN TIME: 0 days 0 hours 0 minutes 29 seconds 539 msec
