                         Program Version 4.2.1 -  RELEASE  -
|  1> ! wB97X-D3 SP def2-SVP
|  2> %pal
|  3> nprocs 16
|  4> end
|  5>
|  6> * xyz 0 1
|  7> S 	 -31.2802 	 37.5041 	 100.046
|  8> C 	 -32.137 	 36.0611 	 99.8316
|  9> C 	 -33.4999 	 36.3039 	 99.5431
| 10> C 	 -33.8444 	 37.7089 	 99.6258
| 11> C 	 -32.7262 	 38.4685 	 99.8932
| 12> H 	 -34.7429 	 38.245 	 99.5369
| 13> C 	 -34.4801 	 35.1795 	 99.1537
| 14> H 	 -34.2026 	 34.3837 	 99.8155
| 15> H 	 -34.1425 	 35.0273 	 98.1092
| 16> C 	 -35.9473 	 35.5306 	 99.0325
| 17> H 	 -36.1498 	 36.0452 	 99.9116
| 18> H 	 -36.164 	 36.2539 	 98.2563
| 19> C 	 -36.8726 	 34.3146 	 98.8854
| 20> H 	 -37.8417 	 34.6673 	 99.1986
| 21> H 	 -36.929 	 34.0674 	 97.8492
| 22> H 	 -36.5042 	 33.4842 	 99.4728
| 23> S 	 -31.6446 	 40.8668 	 98.8979
| 24> C 	 -32.103 	 42.336 	 99.6671
| 25> C 	 -32.7515 	 42.0968 	 100.828
| 26> C 	 -33.0089 	 40.7291 	 101.107
| 27> C 	 -32.4909 	 39.9012 	 100.122
| 28> H 	 -33.0698 	 42.9586 	 101.388
| 29> C 	 -33.7312 	 40.1443 	 102.288
| 30> H 	 -33.2314 	 40.4905 	 103.166
| 31> H 	 -33.5694 	 39.0906 	 102.312
| 32> C 	 -35.297 	 40.4285 	 102.444
| 33> H 	 -35.8793 	 40.2273 	 101.609
| 34> H 	 -35.5608 	 41.4882 	 102.612
| 35> C 	 -35.8265 	 39.672 	 103.704
| 36> H 	 -36.9036 	 39.7479 	 103.805
| 37> H 	 -35.4364 	 40.1053 	 104.568
| 38> H 	 -35.7548 	 38.5995 	 103.636
| 39> H 	 -31.5879 	 35.0829 	 99.795
| 40> H 	 -31.6856 	 43.287 	 99.4509
| 41> *
| 42>
| 43>                          ****END OF INPUT****

CARTESIAN COORDINATES (ANGSTROEM)
---------------------------------
  S    -31.280200   37.504100  100.046000
  C    -32.137000   36.061100   99.831600
  C    -33.499900   36.303900   99.543100
  C    -33.844400   37.708900   99.625800
  C    -32.726200   38.468500   99.893200
  H    -34.742900   38.245000   99.536900
  C    -34.480100   35.179500   99.153700
  H    -34.202600   34.383700   99.815500
  H    -34.142500   35.027300   98.109200
  C    -35.947300   35.530600   99.032500
  H    -36.149800   36.045200   99.911600
  H    -36.164000   36.253900   98.256300
  C    -36.872600   34.314600   98.885400
  H    -37.841700   34.667300   99.198600
  H    -36.929000   34.067400   97.849200
  H    -36.504200   33.484200   99.472800
  S    -31.644600   40.866800   98.897900
  C    -32.103000   42.336000   99.667100
  C    -32.751500   42.096800  100.828000
  C    -33.008900   40.729100  101.107000
  C    -32.490900   39.901200  100.122000
  H    -33.069800   42.958600  101.388000
  C    -33.731200   40.144300  102.288000
  H    -33.231400   40.490500  103.166000
  H    -33.569400   39.090600  102.312000
  C    -35.297000   40.428500  102.444000
  H    -35.879300   40.227300  101.609000
  H    -35.560800   41.488200  102.612000
  C    -35.826500   39.672000  103.704000
  H    -36.903600   39.747900  103.805000
  H    -35.436400   40.105300  104.568000
  H    -35.754800   38.599500  103.636000
  H    -31.587900   35.082900   99.795000
  H    -31.685600   43.287000   99.450900

 Total Charge           Charge          ....    0
 Multiplicity           Mult            ....    1
 Number of Electrons    NEL             ....  134
 Basis Dimension        Dim             ....  322

ORBITAL ENERGIES
----------------

  NO   OCC          E(Eh)            E(eV)
   0   2.0000     -88.961232     -2420.7582
   1   2.0000     -88.960442     -2420.7367
   2   2.0000     -10.324716      -280.9498
   3   2.0000     -10.322705      -280.8951
   4   2.0000     -10.313071      -280.6329
   5   2.0000     -10.308216      -280.5008
   6   2.0000     -10.307786      -280.4891
   7   2.0000     -10.299873      -280.2738
   8   2.0000     -10.295425      -280.1527
   9   2.0000     -10.289900      -280.0024
  10   2.0000     -10.287741      -279.9437
  11   2.0000     -10.287498      -279.9370
  12   2.0000     -10.287068      -279.9254
  13   2.0000     -10.278448      -279.6908
  14   2.0000     -10.275477      -279.6100
  15   2.0000     -10.271429      -279.4998
  16   2.0000      -8.077287      -219.7941
  17   2.0000      -8.075576      -219.7476
  18   2.0000      -6.035528      -164.2351
  19   2.0000      -6.034042      -164.1946
  20   2.0000      -6.031474      -164.1247
  21   2.0000      -6.029980      -164.0841
  22   2.0000      -6.028387      -164.0408
  23   2.0000      -6.026402      -163.9867
  24   2.0000      -1.007463       -27.4145
  25   2.0000      -0.986264       -26.8376
  26   2.0000      -0.914359       -24.8810
  27   2.0000      -0.901421       -24.5289
  28   2.0000      -0.869424       -23.6582
  29   2.0000      -0.852236       -23.1905
  30   2.0000      -0.848286       -23.0830
  31   2.0000      -0.819906       -22.3108
  32   2.0000      -0.783054       -21.3080
  33   2.0000      -0.768073       -20.9003
  34   2.0000      -0.714790       -19.4504
  35   2.0000      -0.709656       -19.3107
  36   2.0000      -0.684275       -18.6201
  37   2.0000      -0.654838       -17.8190
  38   2.0000      -0.647931       -17.6311
  39   2.0000      -0.615378       -16.7453
  40   2.0000      -0.596404       -16.2290
  41   2.0000      -0.578688       -15.7469
  42   2.0000      -0.566435       -15.4135
  43   2.0000      -0.560581       -15.2542
  44   2.0000      -0.529847       -14.4179
  45   2.0000      -0.520209       -14.1556
  46   2.0000      -0.517840       -14.0911
  47   2.0000      -0.514645       -14.0042
  48   2.0000      -0.509998       -13.8777
  49   2.0000      -0.500586       -13.6216
  50   2.0000      -0.490200       -13.3390
  51   2.0000      -0.477486       -12.9931
  52   2.0000      -0.470110       -12.7923
  53   2.0000      -0.466406       -12.6915
  54   2.0000      -0.459314       -12.4986
  55   2.0000      -0.449142       -12.2218
  56   2.0000      -0.445814       -12.1312
  57   2.0000      -0.443460       -12.0672
  58   2.0000      -0.435926       -11.8621
  59   2.0000      -0.426537       -11.6067
  60   2.0000      -0.418405       -11.3854
  61   2.0000      -0.415277       -11.3003
  62   2.0000      -0.412138       -11.2148
  63   2.0000      -0.340314        -9.2604
  64   2.0000      -0.328258        -8.9323
  65   2.0000      -0.324665        -8.8346
  66   2.0000      -0.297468        -8.0945
  67   0.0000       0.042631         1.1600
  68   0.0000       0.063627         1.7314
  69   0.0000       0.124585         3.3901
  70   0.0000       0.129955         3.5362
  71   0.0000       0.134027         3.6470

MULLIKEN ATOMIC CHARGES
-----------------------
   0 S :    0.119150
   1 C :   -0.142705
   2 C :   -0.123168
   3 C :    0.064379
   4 C :   -0.196511
   5 H :   -0.005793
   6 C :    0.065901
   7 H :    0.033090
   8 H :    0.044351
   9 C :   -0.086406
  10 H :    0.007198
  11 H :    0.027743
  12 C :    0.008111
  13 H :    0.028159
  14 H :    0.028593
  15 H :    0.031830
  16 S :    0.104627
  17 C :   -0.071171
  18 C :   -0.042106
  19 C :    0.007482
  20 C :   -0.174319
  21 H :    0.010810
  22 C :    0.090941
  23 H :    0.017898
  24 H :    0.023837
  25 C :   -0.057632
  26 H :    0.009948
  27 H :    0.024667
  28 C :   -0.036293
  29 H :    0.017330
  30 H :    0.024798
  31 H :    0.029685
  32 H :    0.068436
  33 H :    0.047139
Sum of atomic charges:   -0.0000000

LOEWDIN ATOMIC CHARGES
----------------------
   0 S :    0.437520
   1 C :   -0.233783
   2 C :   -0.058657
   3 C :   -0.061409
   4 C :   -0.193269
   5 H :    0.028455
   6 C :   -0.034303
   7 H :    0.029534
   8 H :    0.041666
   9 C :   -0.042870
  10 H :    0.010764
  11 H :    0.026169
  12 C :   -0.049035
  13 H :    0.027529
  14 H :    0.022985
  15 H :    0.025367
  16 S :    0.401376
  17 C :   -0.186338
  18 C :   -0.073843
  19 C :   -0.053582
  20 C :   -0.206232
  21 H :    0.030033
  22 C :   -0.024049
  23 H :    0.030893
  24 H :    0.029439
  25 C :   -0.029923
  26 H :    0.010749
  27 H :    0.025766
  28 C :   -0.061165
  29 H :    0.025904
  30 H :    0.017441
  31 H :    0.023972
  32 H :    0.037243
  33 H :    0.025652

  Mayer bond orders larger than 0.100000
B(  0-S ,  1-C ) :   1.1666 B(  0-S ,  4-C ) :   1.1863 B(  1-C ,  2-C ) :   1.5870
B(  1-C ,  4-C ) :   0.1042 B(  1-C , 32-H ) :   0.9684 B(  2-C ,  3-C ) :   1.2234
B(  2-C ,  6-C ) :   0.9916 B(  3-C ,  4-C ) :   1.5789 B(  3-C ,  5-H ) :   1.0104
B(  4-C , 20-C ) :   0.9802 B(  6-C ,  7-H ) :   0.9454 B(  6-C ,  8-H ) :   0.9340
B(  6-C ,  9-C ) :   1.0934 B(  9-C , 10-H ) :   0.9536 B(  9-C , 11-H ) :   0.9445
B(  9-C , 12-C ) :   1.0818 B( 12-C , 13-H ) :   0.9728 B( 12-C , 14-H ) :   0.9769
B( 12-C , 15-H ) :   0.9771 B( 16-S , 17-C ) :   1.1572 B( 16-S , 20-C ) :   1.1423
B( 17-C , 18-C ) :   1.6229 B( 17-C , 33-H ) :   0.9643 B( 18-C , 19-C ) :   1.2267
B( 18-C , 21-H ) :   0.9961 B( 19-C , 20-C ) :   1.5952 B( 19-C , 22-C ) :   1.0514
B( 22-C , 23-H ) :   0.9293 B( 22-C , 24-H ) :   0.9345 B( 22-C , 25-C ) :   1.0435
B( 25-C , 26-H ) :   0.9611 B( 25-C , 27-H ) :   0.9564 B( 25-C , 28-C ) :   1.0852
B( 28-C , 29-H ) :   0.9714 B( 28-C , 30-H ) :   0.9782 B( 28-C , 31-H ) :   0.9763

Dispersion correction           -0.013923104
FINAL SINGLE POINT ENERGY     -1339.868510049910

DIPOLE MOMENT
-------------
                                X             Y             Z
Electronic contribution:     26.63204      11.27320      -9.73960
Nuclear contribution   :    -27.22490     -11.37767       9.97596
                        -----------------------------------------
Total Dipole Moment    :     -0.59286      -0.10447       0.23636
                        -----------------------------------------
Magnitude (a.u.)       :      0.64673
Magnitude (Debye)      :      1.64386

Rotational constants in cm-1:     0.016880     0.008722     0.006744
Rotational constants in MHz :   506.041369   261.470566   202.189732

                             ****ORCA TERMINATED NORMALLY****
TOTAL RUN TIME: 0 days 0 hours 0 minutes 29 seconds 902 msec
