                         Program Version 4.2.1 -  RELEASE  -
|  1> ! wB97X-D3 SP def2-SVP
|  2> %pal
|  3> nprocs 16
|  4> end
|  5>
|  6> * xyz 0 1
|  7> S 	 -36.1298 	 68.0778 	 171.286
|  8> C 	 -34.8009 	 68.2456 	 170.135
|  9> C 	 -33.8147 	 68.9184 	 170.769
| 10> C 	 -33.9873 	 69.1278 	 172.168
| 11> C 	 -35.1967 	 68.6468 	 172.598
| 12> H 	 -33.2843 	 69.7002 	 172.842
| 13> C 	 -32.6008 	 69.3922 	 170.02
| 14> H 	 -32.7572 	 69.1763 	 168.927
| 15> H 	 -31.6983 	 68.9643 	 170.441
| 16> C 	 -32.2996 	 70.88 	 170.096
| 17> H 	 -33.1353 	 71.54 	 170.009
| 18> H 	 -31.968 	 71.1513 	 171.103
| 19> C 	 -31.2335 	 71.4097 	 169.067
| 20> H 	 -31.2677 	 72.4754 	 168.975
| 21> H 	 -30.2118 	 71.0494 	 169.251
| 22> H 	 -31.4078 	 71.0355 	 168.065
| 23> S 	 -36.7417 	 70.1084 	 174.265
| 24> C 	 -37.0658 	 69.5327 	 175.879
| 25> C 	 -36.5433 	 68.2368 	 176.108
| 26> C 	 -35.7376 	 67.7852 	 175.006
| 27> C 	 -35.7767 	 68.681 	 173.902
| 28> H 	 -36.7111 	 67.6699 	 177.022
| 29> C 	 -34.9578 	 66.5529 	 175.068
| 30> H 	 -34.4594 	 66.4349 	 174.096
| 31> H 	 -35.7353 	 65.8036 	 175.062
| 32> C 	 -33.9568 	 66.2748 	 176.25
| 33> H 	 -33.404 	 65.3032 	 176.218
| 34> H 	 -34.5157 	 66.221 	 177.174
| 35> C 	 -32.8162 	 67.4201 	 176.359
| 36> H 	 -33.1522 	 68.4001 	 176.563
| 37> H 	 -32.2485 	 67.427 	 175.473
| 38> H 	 -32.0381 	 67.1533 	 177.041
| 39> H 	 -34.8133 	 68.0553 	 169.099
| 40> H 	 -37.5588 	 70.1447 	 176.622
| 41> *
| 42>
| 43>                          ****END OF INPUT****

CARTESIAN COORDINATES (ANGSTROEM)
---------------------------------
  S    -36.129800   68.077800  171.286000
  C    -34.800900   68.245600  170.135000
  C    -33.814700   68.918400  170.769000
  C    -33.987300   69.127800  172.168000
  C    -35.196700   68.646800  172.598000
  H    -33.284300   69.700200  172.842000
  C    -32.600800   69.392200  170.020000
  H    -32.757200   69.176300  168.927000
  H    -31.698300   68.964300  170.441000
  C    -32.299600   70.880000  170.096000
  H    -33.135300   71.540000  170.009000
  H    -31.968000   71.151300  171.103000
  C    -31.233500   71.409700  169.067000
  H    -31.267700   72.475400  168.975000
  H    -30.211800   71.049400  169.251000
  H    -31.407800   71.035500  168.065000
  S    -36.741700   70.108400  174.265000
  C    -37.065800   69.532700  175.879000
  C    -36.543300   68.236800  176.108000
  C    -35.737600   67.785200  175.006000
  C    -35.776700   68.681000  173.902000
  H    -36.711100   67.669900  177.022000
  C    -34.957800   66.552900  175.068000
  H    -34.459400   66.434900  174.096000
  H    -35.735300   65.803600  175.062000
  C    -33.956800   66.274800  176.250000
  H    -33.404000   65.303200  176.218000
  H    -34.515700   66.221000  177.174000
  C    -32.816200   67.420100  176.359000
  H    -33.152200   68.400100  176.563000
  H    -32.248500   67.427000  175.473000
  H    -32.038100   67.153300  177.041000
  H    -34.813300   68.055300  169.099000
  H    -37.558800   70.144700  176.622000

 Total Charge           Charge          ....    0
 Multiplicity           Mult            ....    1
 Number of Electrons    NEL             ....  134
 Basis Dimension        Dim             ....  322

ORBITAL ENERGIES
----------------

  NO   OCC          E(Eh)            E(eV)
   0   2.0000     -88.966894     -2420.9123
   1   2.0000     -88.961076     -2420.7540
   2   2.0000     -10.323662      -280.9211
   3   2.0000     -10.323143      -280.9070
   4   2.0000     -10.322091      -280.8784
   5   2.0000     -10.308105      -280.4978
   6   2.0000     -10.306880      -280.4645
   7   2.0000     -10.299418      -280.2614
   8   2.0000     -10.298884      -280.2469
   9   2.0000     -10.296249      -280.1752
  10   2.0000     -10.295170      -280.1458
  11   2.0000     -10.291458      -280.0448
  12   2.0000     -10.288624      -279.9677
  13   2.0000     -10.284059      -279.8435
  14   2.0000     -10.278386      -279.6891
  15   2.0000     -10.269418      -279.4451
  16   2.0000      -8.081450      -219.9074
  17   2.0000      -8.076631      -219.7763
  18   2.0000      -6.039835      -164.3523
  19   2.0000      -6.035905      -164.2453
  20   2.0000      -6.035149      -164.2248
  21   2.0000      -6.032440      -164.1510
  22   2.0000      -6.030977      -164.1112
  23   2.0000      -6.027346      -164.0124
  24   2.0000      -1.011432       -27.5225
  25   2.0000      -0.982991       -26.7485
  26   2.0000      -0.912279       -24.8244
  27   2.0000      -0.903599       -24.5882
  28   2.0000      -0.871175       -23.7059
  29   2.0000      -0.844294       -22.9744
  30   2.0000      -0.842597       -22.9282
  31   2.0000      -0.814595       -22.1663
  32   2.0000      -0.785067       -21.3628
  33   2.0000      -0.772563       -21.0225
  34   2.0000      -0.717179       -19.5154
  35   2.0000      -0.703567       -19.1450
  36   2.0000      -0.693688       -18.8762
  37   2.0000      -0.659724       -17.9520
  38   2.0000      -0.642434       -17.4815
  39   2.0000      -0.616820       -16.7845
  40   2.0000      -0.592061       -16.1108
  41   2.0000      -0.573916       -15.6170
  42   2.0000      -0.558358       -15.1937
  43   2.0000      -0.547067       -14.8865
  44   2.0000      -0.543493       -14.7892
  45   2.0000      -0.522781       -14.2256
  46   2.0000      -0.518568       -14.1110
  47   2.0000      -0.511757       -13.9256
  48   2.0000      -0.502970       -13.6865
  49   2.0000      -0.499722       -13.5981
  50   2.0000      -0.490286       -13.3414
  51   2.0000      -0.475719       -12.9450
  52   2.0000      -0.469190       -12.7673
  53   2.0000      -0.464530       -12.6405
  54   2.0000      -0.459914       -12.5149
  55   2.0000      -0.451162       -12.2767
  56   2.0000      -0.448483       -12.2039
  57   2.0000      -0.437485       -11.9046
  58   2.0000      -0.433473       -11.7954
  59   2.0000      -0.421721       -11.4756
  60   2.0000      -0.420696       -11.4477
  61   2.0000      -0.418924       -11.3995
  62   2.0000      -0.410707       -11.1759
  63   2.0000      -0.334341        -9.0979
  64   2.0000      -0.325434        -8.8555
  65   2.0000      -0.321955        -8.7608
  66   2.0000      -0.307335        -8.3630
  67   0.0000       0.045612         1.2412
  68   0.0000       0.051186         1.3929
  69   0.0000       0.115777         3.1504
  70   0.0000       0.122036         3.3208
  71   0.0000       0.127410         3.4670

MULLIKEN ATOMIC CHARGES
-----------------------
   0 S :    0.111215
   1 C :   -0.107416
   2 C :   -0.079436
   3 C :    0.035310
   4 C :   -0.176603
   5 H :    0.037362
   6 C :    0.084663
   7 H :    0.020774
   8 H :    0.032979
   9 C :   -0.090904
  10 H :    0.018265
  11 H :    0.018959
  12 C :   -0.043957
  13 H :    0.034115
  14 H :    0.028964
  15 H :    0.016279
  16 S :    0.123027
  17 C :   -0.098843
  18 C :   -0.038406
  19 C :   -0.012492
  20 C :   -0.199404
  21 H :    0.026334
  22 C :    0.073472
  23 H :    0.029135
  24 H :    0.032810
  25 C :   -0.074154
  26 H :    0.041248
  27 H :    0.025161
  28 C :   -0.031655
  29 H :    0.038566
  30 H :    0.011659
  31 H :    0.019187
  32 H :    0.031568
  33 H :    0.062217
Sum of atomic charges:    0.0000000

LOEWDIN ATOMIC CHARGES
----------------------
   0 S :    0.417597
   1 C :   -0.186650
   2 C :   -0.067017
   3 C :   -0.068027
   4 C :   -0.213659
   5 H :    0.044018
   6 C :   -0.031046
   7 H :    0.032663
   8 H :    0.033347
   9 C :   -0.042951
  10 H :    0.018872
  11 H :    0.020141
  12 C :   -0.063963
  13 H :    0.025154
  14 H :    0.024746
  15 H :    0.021145
  16 S :    0.415583
  17 C :   -0.184013
  18 C :   -0.071424
  19 C :   -0.045456
  20 C :   -0.215425
  21 H :    0.033394
  22 C :   -0.039765
  23 H :    0.034462
  24 H :    0.037640
  25 C :   -0.031492
  26 H :    0.033414
  27 H :    0.017019
  28 C :   -0.061943
  29 H :    0.020556
  30 H :    0.019511
  31 H :    0.023615
  32 H :    0.022972
  33 H :    0.026984

  Mayer bond orders larger than 0.100000
B(  0-S ,  1-C ) :   1.1181 B(  0-S ,  4-C ) :   1.1761 B(  1-C ,  2-C ) :   1.6268
B(  1-C , 32-H ) :   0.9768 B(  2-C ,  3-C ) :   1.2178 B(  2-C ,  6-C ) :   1.0404
B(  3-C ,  4-C ) :   1.5825 B(  3-C ,  5-H ) :   0.9907 B(  4-C , 20-C ) :   1.0122
B(  6-C ,  7-H ) :   0.9453 B(  6-C ,  8-H ) :   0.9326 B(  6-C ,  9-C ) :   1.0571
B(  9-C , 10-H ) :   0.9596 B(  9-C , 11-H ) :   0.9496 B(  9-C , 12-C ) :   1.0824
B( 12-C , 13-H ) :   0.9772 B( 12-C , 14-H ) :   0.9760 B( 12-C , 15-H ) :   0.9746
B( 16-S , 17-C ) :   1.1752 B( 16-S , 20-C ) :   1.1549 B( 17-C , 18-C ) :   1.5734
B( 17-C , 20-C ) :   0.1124 B( 17-C , 33-H ) :   0.9692 B( 18-C , 19-C ) :   1.2484
B( 18-C , 21-H ) :   0.9894 B( 19-C , 20-C ) :   1.5655 B( 19-C , 22-C ) :   1.0571
B( 22-C , 23-H ) :   0.9318 B( 22-C , 24-H ) :   0.9221 B( 22-C , 25-C ) :   1.0623
B( 25-C , 26-H ) :   0.9597 B( 25-C , 27-H ) :   0.9578 B( 25-C , 28-C ) :   1.0629
B( 28-C , 29-H ) :   0.9804 B( 28-C , 30-H ) :   0.9752 B( 28-C , 31-H ) :   0.9754

Dispersion correction           -0.014274079
FINAL SINGLE POINT ENERGY     -1339.872678732429

DIPOLE MOMENT
-------------
                                X             Y             Z
Electronic contribution:    -24.15704       0.17721       0.35865
Nuclear contribution   :     24.62763      -0.19271      -0.18465
                        -----------------------------------------
Total Dipole Moment    :      0.47059      -0.01550       0.17400
                        -----------------------------------------
Magnitude (a.u.)       :      0.50197
Magnitude (Debye)      :      1.27590

Rotational constants in cm-1:     0.019896     0.007648     0.006924
Rotational constants in MHz :   596.464498   229.276103   207.584546

                             ****ORCA TERMINATED NORMALLY****
TOTAL RUN TIME: 0 days 0 hours 0 minutes 33 seconds 271 msec
