                         Program Version 4.2.1 -  RELEASE  -
|  1> ! wB97X-D3 SP def2-SVP
|  2> %pal
|  3> nprocs 16
|  4> end
|  5>
|  6> * xyz 0 1
|  7> S 	 46.9603 	 22.1695 	 85.9865
|  8> C 	 46.0316 	 22.6161 	 87.3532
|  9> C 	 46.8449 	 22.8537 	 88.4257
| 10> C 	 48.1887 	 22.5026 	 88.1298
| 11> C 	 48.4447 	 22.0438 	 86.9208
| 12> H 	 48.8815 	 22.5169 	 88.913
| 13> C 	 46.4076 	 23.5287 	 89.7224
| 14> H 	 46.0146 	 24.4698 	 89.5591
| 15> H 	 47.3384 	 23.6925 	 90.2949
| 16> C 	 45.4237 	 22.6658 	 90.4423
| 17> H 	 45.0038 	 23.2803 	 91.2759
| 18> H 	 44.4937 	 22.4895 	 89.9309
| 19> C 	 46.1154 	 21.4781 	 91.1457
| 20> H 	 47.0534 	 21.7266 	 91.5936
| 21> H 	 45.47 	 20.7889 	 91.7291
| 22> H 	 46.5296 	 20.8947 	 90.3826
| 23> S 	 49.9489 	 21.941 	 84.6802
| 24> C 	 51.528 	 21.2944 	 84.672
| 25> C 	 51.9704 	 21.0206 	 85.9415
| 26> C 	 50.9186 	 21.1657 	 86.9183
| 27> C 	 49.732 	 21.6805 	 86.4105
| 28> H 	 52.9813 	 20.7925 	 86.0914
| 29> C 	 51.2534 	 20.7153 	 88.3734
| 30> H 	 51.9934 	 19.866 	 88.3337
| 31> H 	 50.3114 	 20.1993 	 88.677
| 32> C 	 51.7941 	 21.8113 	 89.3752
| 33> H 	 51.3723 	 22.738 	 89.0072
| 34> H 	 52.8612 	 21.9048 	 89.2444
| 35> C 	 51.4286 	 21.4646 	 90.8187
| 36> H 	 50.3083 	 21.4329 	 90.9886
| 37> H 	 51.9231 	 22.2301 	 91.3925
| 38> H 	 51.9626 	 20.491 	 90.9745
| 39> H 	 44.9283 	 22.8207 	 87.4044
| 40> H 	 52.1774 	 21.2831 	 83.7805
| 41> *
| 42>
| 43>                          ****END OF INPUT****

CARTESIAN COORDINATES (ANGSTROEM)
---------------------------------
  S     46.960300   22.169500   85.986500
  C     46.031600   22.616100   87.353200
  C     46.844900   22.853700   88.425700
  C     48.188700   22.502600   88.129800
  C     48.444700   22.043800   86.920800
  H     48.881500   22.516900   88.913000
  C     46.407600   23.528700   89.722400
  H     46.014600   24.469800   89.559100
  H     47.338400   23.692500   90.294900
  C     45.423700   22.665800   90.442300
  H     45.003800   23.280300   91.275900
  H     44.493700   22.489500   89.930900
  C     46.115400   21.478100   91.145700
  H     47.053400   21.726600   91.593600
  H     45.470000   20.788900   91.729100
  H     46.529600   20.894700   90.382600
  S     49.948900   21.941000   84.680200
  C     51.528000   21.294400   84.672000
  C     51.970400   21.020600   85.941500
  C     50.918600   21.165700   86.918300
  C     49.732000   21.680500   86.410500
  H     52.981300   20.792500   86.091400
  C     51.253400   20.715300   88.373400
  H     51.993400   19.866000   88.333700
  H     50.311400   20.199300   88.677000
  C     51.794100   21.811300   89.375200
  H     51.372300   22.738000   89.007200
  H     52.861200   21.904800   89.244400
  C     51.428600   21.464600   90.818700
  H     50.308300   21.432900   90.988600
  H     51.923100   22.230100   91.392500
  H     51.962600   20.491000   90.974500
  H     44.928300   22.820700   87.404400
  H     52.177400   21.283100   83.780500

 Total Charge           Charge          ....    0
 Multiplicity           Mult            ....    1
 Number of Electrons    NEL             ....  134
 Basis Dimension        Dim             ....  322

ORBITAL ENERGIES
----------------

  NO   OCC          E(Eh)            E(eV)
   0   2.0000     -88.965460     -2420.8732
   1   2.0000     -88.961688     -2420.7706
   2   2.0000     -10.329264      -281.0736
   3   2.0000     -10.324253      -280.9372
   4   2.0000     -10.314386      -280.6687
   5   2.0000     -10.313354      -280.6406
   6   2.0000     -10.307637      -280.4851
   7   2.0000     -10.299746      -280.2703
   8   2.0000     -10.293170      -280.0914
   9   2.0000     -10.289394      -279.9887
  10   2.0000     -10.289158      -279.9822
  11   2.0000     -10.288617      -279.9675
  12   2.0000     -10.288482      -279.9638
  13   2.0000     -10.287029      -279.9243
  14   2.0000     -10.281151      -279.7643
  15   2.0000     -10.272556      -279.5305
  16   2.0000      -8.080749      -219.8884
  17   2.0000      -8.077466      -219.7990
  18   2.0000      -6.039461      -164.3421
  19   2.0000      -6.035957      -164.2468
  20   2.0000      -6.035219      -164.2266
  21   2.0000      -6.031810      -164.1339
  22   2.0000      -6.031191      -164.1171
  23   2.0000      -6.028193      -164.0355
  24   2.0000      -1.016889       -27.6709
  25   2.0000      -0.991452       -26.9788
  26   2.0000      -0.920829       -25.0570
  27   2.0000      -0.903314       -24.5804
  28   2.0000      -0.877515       -23.8784
  29   2.0000      -0.854186       -23.2436
  30   2.0000      -0.845324       -23.0024
  31   2.0000      -0.819321       -22.2949
  32   2.0000      -0.784915       -21.3586
  33   2.0000      -0.771157       -20.9843
  34   2.0000      -0.713304       -19.4100
  35   2.0000      -0.706725       -19.2310
  36   2.0000      -0.693075       -18.8595
  37   2.0000      -0.667748       -18.1703
  38   2.0000      -0.637360       -17.3434
  39   2.0000      -0.627390       -17.0722
  40   2.0000      -0.591353       -16.0915
  41   2.0000      -0.576205       -15.6793
  42   2.0000      -0.565538       -15.3891
  43   2.0000      -0.562624       -15.3098
  44   2.0000      -0.540786       -14.7155
  45   2.0000      -0.526565       -14.3286
  46   2.0000      -0.513823       -13.9818
  47   2.0000      -0.513317       -13.9681
  48   2.0000      -0.510317       -13.8864
  49   2.0000      -0.503299       -13.6955
  50   2.0000      -0.485726       -13.2173
  51   2.0000      -0.482760       -13.1366
  52   2.0000      -0.477825       -13.0023
  53   2.0000      -0.470652       -12.8071
  54   2.0000      -0.462745       -12.5919
  55   2.0000      -0.449299       -12.2261
  56   2.0000      -0.445088       -12.1115
  57   2.0000      -0.444063       -12.0836
  58   2.0000      -0.436973       -11.8906
  59   2.0000      -0.426395       -11.6028
  60   2.0000      -0.414617       -11.2823
  61   2.0000      -0.409933       -11.1548
  62   2.0000      -0.399803       -10.8792
  63   2.0000      -0.366826        -9.9819
  64   2.0000      -0.332200        -9.0396
  65   2.0000      -0.326598        -8.8872
  66   2.0000      -0.286661        -7.8004
  67   0.0000       0.026270         0.7148
  68   0.0000       0.081724         2.2238
  69   0.0000       0.105689         2.8759
  70   0.0000       0.116373         3.1667
  71   0.0000       0.129011         3.5106

MULLIKEN ATOMIC CHARGES
-----------------------
   0 S :    0.114762
   1 C :   -0.134332
   2 C :   -0.115003
   3 C :    0.013297
   4 C :   -0.065452
   5 H :   -0.042443
   6 C :    0.111024
   7 H :    0.018493
   8 H :    0.017136
   9 C :   -0.076858
  10 H :    0.017664
  11 H :    0.024374
  12 C :   -0.008785
  13 H :    0.011011
  14 H :    0.047152
  15 H :    0.005172
  16 S :    0.088920
  17 C :   -0.090037
  18 C :   -0.019489
  19 C :   -0.065195
  20 C :   -0.129121
  21 H :    0.001539
  22 C :   -0.003759
  23 H :    0.030496
  24 H :    0.036992
  25 C :   -0.056554
  26 H :    0.030908
  27 H :    0.026909
  28 C :   -0.057226
  29 H :    0.055598
  30 H :    0.037920
  31 H :    0.043401
  32 H :    0.063933
  33 H :    0.067555
Sum of atomic charges:    0.0000000

LOEWDIN ATOMIC CHARGES
----------------------
   0 S :    0.412721
   1 C :   -0.209259
   2 C :   -0.068317
   3 C :   -0.063598
   4 C :   -0.190811
   5 H :    0.018155
   6 C :   -0.019797
   7 H :    0.023387
   8 H :    0.032604
   9 C :   -0.041775
  10 H :    0.023977
  11 H :    0.022226
  12 C :   -0.066834
  13 H :    0.023526
  14 H :    0.032577
  15 H :    0.019082
  16 S :    0.411790
  17 C :   -0.196749
  18 C :   -0.070268
  19 C :   -0.058452
  20 C :   -0.184755
  21 H :    0.023732
  22 C :   -0.041303
  23 H :    0.031446
  24 H :    0.032408
  25 C :   -0.041371
  26 H :    0.018064
  27 H :    0.023828
  28 C :   -0.065364
  29 H :    0.031835
  30 H :    0.025232
  31 H :    0.034383
  32 H :    0.041929
  33 H :    0.035753

  Mayer bond orders larger than 0.100000
B(  0-S ,  1-C ) :   1.1443 B(  0-S ,  4-C ) :   1.1222 B(  1-C ,  2-C ) :   1.6136
B(  1-C , 32-H ) :   0.9583 B(  2-C ,  3-C ) :   1.2598 B(  2-C ,  6-C ) :   1.0031
B(  3-C ,  4-C ) :   1.5680 B(  3-C ,  5-H ) :   1.0116 B(  4-C , 20-C ) :   1.0830
B(  6-C ,  7-H ) :   0.9346 B(  6-C ,  8-H ) :   0.9440 B(  6-C ,  9-C ) :   1.0868
B(  9-C , 10-H ) :   0.9511 B(  9-C , 11-H ) :   0.9578 B(  9-C , 12-C ) :   1.0587
B( 12-C , 13-H ) :   0.9672 B( 12-C , 14-H ) :   0.9739 B( 12-C , 15-H ) :   0.9697
B( 16-S , 17-C ) :   1.1689 B( 16-S , 20-C ) :   1.1283 B( 17-C , 18-C ) :   1.6050
B( 17-C , 33-H ) :   0.9623 B( 18-C , 19-C ) :   1.2393 B( 18-C , 21-H ) :   1.0010
B( 19-C , 20-C ) :   1.5936 B( 19-C , 22-C ) :   1.0317 B( 22-C , 23-H ) :   0.9412
B( 22-C , 24-H ) :   0.9487 B( 22-C , 25-C ) :   1.0322 B( 25-C , 26-H ) :   0.9619
B( 25-C , 27-H ) :   0.9522 B( 25-C , 28-C ) :   1.0755 B( 28-C , 29-H ) :   0.9757
B( 28-C , 30-H ) :   0.9728 B( 28-C , 31-H ) :   0.9725

Dispersion correction           -0.014780122
FINAL SINGLE POINT ENERGY     -1339.861482477369

DIPOLE MOMENT
-------------
                                X             Y             Z
Electronic contribution:     -1.69585       1.52204     -31.14131
Nuclear contribution   :      1.97142      -1.37962      31.76664
                        -----------------------------------------
Total Dipole Moment    :      0.27557       0.14241       0.62533
                        -----------------------------------------
Magnitude (a.u.)       :      0.69804
Magnitude (Debye)      :      1.77428

Rotational constants in cm-1:     0.018014     0.009999     0.006755
Rotational constants in MHz :   540.039706   299.769993   202.519452

                             ****ORCA TERMINATED NORMALLY****
TOTAL RUN TIME: 0 days 0 hours 0 minutes 31 seconds 913 msec
