                         Program Version 4.2.1 -  RELEASE  -
|  1> ! wB97X-D3 SP def2-SVP
|  2> %pal
|  3> nprocs 16
|  4> end
|  5>
|  6> * xyz 0 1
|  7> S 	 48.0852 	 7.08991 	 100.876
|  8> C 	 47.9288 	 8.59373 	 101.683
|  9> C 	 48.9182 	 9.48328 	 101.29
| 10> C 	 49.8471 	 8.95206 	 100.335
| 11> C 	 49.5069 	 7.62475 	 100.009
| 12> H 	 50.7294 	 9.4202 	 99.8343
| 13> C 	 49.1809 	 10.9227 	 101.85
| 14> H 	 48.2215 	 11.378 	 102.15
| 15> H 	 49.636 	 11.5657 	 101.115
| 16> C 	 50.2706 	 10.8951 	 102.952
| 17> H 	 50.0966 	 10.1127 	 103.688
| 18> H 	 51.2325 	 10.5828 	 102.543
| 19> C 	 50.5103 	 12.2067 	 103.734
| 20> H 	 51.038 	 11.9966 	 104.679
| 21> H 	 51.1474 	 12.8985 	 103.16
| 22> H 	 49.6212 	 12.8134 	 103.952
| 23> S 	 50.8571 	 5.20862 	 99.8513
| 24> C 	 51.4802 	 4.66191 	 98.2882
| 25> C 	 51.3772 	 5.66631 	 97.3577
| 26> C 	 50.8142 	 6.88698 	 97.8499
| 27> C 	 50.2687 	 6.71352 	 99.1279
| 28> H 	 51.7281 	 5.41937 	 96.3816
| 29> C 	 50.5048 	 8.02897 	 96.8272
| 30> H 	 51.4473 	 8.1811 	 96.2507
| 31> H 	 50.3243 	 8.95844 	 97.429
| 32> C 	 49.4115 	 7.81471 	 95.7856
| 33> H 	 49.6609 	 6.89351 	 95.399
| 34> H 	 49.3879 	 8.59337 	 95.0104
| 35> C 	 48.089 	 7.70878 	 96.4493
| 36> H 	 47.7481 	 8.56485 	 96.9823
| 37> H 	 48.1103 	 6.78177 	 97.0437
| 38> H 	 47.2984 	 7.54464 	 95.7532
| 39> H 	 47.1333 	 8.76425 	 102.311
| 40> H 	 51.7774 	 3.64065 	 98.1638
| 41> *
| 42>
| 43>                          ****END OF INPUT****

CARTESIAN COORDINATES (ANGSTROEM)
---------------------------------
  S     48.085200    7.089910  100.876000
  C     47.928800    8.593730  101.683000
  C     48.918200    9.483280  101.290000
  C     49.847100    8.952060  100.335000
  C     49.506900    7.624750  100.009000
  H     50.729400    9.420200   99.834300
  C     49.180900   10.922700  101.850000
  H     48.221500   11.378000  102.150000
  H     49.636000   11.565700  101.115000
  C     50.270600   10.895100  102.952000
  H     50.096600   10.112700  103.688000
  H     51.232500   10.582800  102.543000
  C     50.510300   12.206700  103.734000
  H     51.038000   11.996600  104.679000
  H     51.147400   12.898500  103.160000
  H     49.621200   12.813400  103.952000
  S     50.857100    5.208620   99.851300
  C     51.480200    4.661910   98.288200
  C     51.377200    5.666310   97.357700
  C     50.814200    6.886980   97.849900
  C     50.268700    6.713520   99.127900
  H     51.728100    5.419370   96.381600
  C     50.504800    8.028970   96.827200
  H     51.447300    8.181100   96.250700
  H     50.324300    8.958440   97.429000
  C     49.411500    7.814710   95.785600
  H     49.660900    6.893510   95.399000
  H     49.387900    8.593370   95.010400
  C     48.089000    7.708780   96.449300
  H     47.748100    8.564850   96.982300
  H     48.110300    6.781770   97.043700
  H     47.298400    7.544640   95.753200
  H     47.133300    8.764250  102.311000
  H     51.777400    3.640650   98.163800

 Total Charge           Charge          ....    0
 Multiplicity           Mult            ....    1
 Number of Electrons    NEL             ....  134
 Basis Dimension        Dim             ....  322

ORBITAL ENERGIES
----------------

  NO   OCC          E(Eh)            E(eV)
   0   2.0000     -88.968993     -2420.9694
   1   2.0000     -88.962206     -2420.7847
   2   2.0000     -10.333111      -281.1782
   3   2.0000     -10.332495      -281.1615
   4   2.0000     -10.316406      -280.7237
   5   2.0000     -10.310476      -280.5623
   6   2.0000     -10.309001      -280.5222
   7   2.0000     -10.307872      -280.4915
   8   2.0000     -10.301801      -280.3263
   9   2.0000     -10.297142      -280.1995
  10   2.0000     -10.295806      -280.1631
  11   2.0000     -10.294046      -280.1152
  12   2.0000     -10.285822      -279.8915
  13   2.0000     -10.280715      -279.7525
  14   2.0000     -10.275754      -279.6175
  15   2.0000     -10.260122      -279.1921
  16   2.0000      -8.084252      -219.9837
  17   2.0000      -8.076728      -219.7789
  18   2.0000      -6.042630      -164.4283
  19   2.0000      -6.038555      -164.3174
  20   2.0000      -6.035248      -164.2274
  21   2.0000      -6.035189      -164.2258
  22   2.0000      -6.031293      -164.1198
  23   2.0000      -6.027516      -164.0171
  24   2.0000      -1.004577       -27.3359
  25   2.0000      -0.983100       -26.7515
  26   2.0000      -0.911933       -24.8150
  27   2.0000      -0.903474       -24.5848
  28   2.0000      -0.867871       -23.6160
  29   2.0000      -0.849986       -23.1293
  30   2.0000      -0.843921       -22.9643
  31   2.0000      -0.811797       -22.0901
  32   2.0000      -0.780399       -21.2357
  33   2.0000      -0.772571       -21.0227
  34   2.0000      -0.703962       -19.1558
  35   2.0000      -0.696899       -18.9636
  36   2.0000      -0.692248       -18.8370
  37   2.0000      -0.659980       -17.9590
  38   2.0000      -0.649031       -17.6610
  39   2.0000      -0.614927       -16.7330
  40   2.0000      -0.597230       -16.2514
  41   2.0000      -0.569213       -15.4891
  42   2.0000      -0.556785       -15.1509
  43   2.0000      -0.554784       -15.0964
  44   2.0000      -0.542987       -14.7754
  45   2.0000      -0.521932       -14.2025
  46   2.0000      -0.516316       -14.0497
  47   2.0000      -0.510338       -13.8870
  48   2.0000      -0.506112       -13.7720
  49   2.0000      -0.495632       -13.4868
  50   2.0000      -0.494091       -13.4449
  51   2.0000      -0.476662       -12.9706
  52   2.0000      -0.470830       -12.8119
  53   2.0000      -0.466488       -12.6938
  54   2.0000      -0.457843       -12.4585
  55   2.0000      -0.443359       -12.0644
  56   2.0000      -0.439145       -11.9497
  57   2.0000      -0.437156       -11.8956
  58   2.0000      -0.429915       -11.6986
  59   2.0000      -0.421935       -11.4814
  60   2.0000      -0.420364       -11.4387
  61   2.0000      -0.412643       -11.2286
  62   2.0000      -0.410561       -11.1719
  63   2.0000      -0.346676        -9.4335
  64   2.0000      -0.332201        -9.0397
  65   2.0000      -0.329922        -8.9776
  66   2.0000      -0.293746        -7.9932
  67   0.0000       0.027359         0.7445
  68   0.0000       0.070701         1.9239
  69   0.0000       0.112318         3.0563
  70   0.0000       0.118464         3.2236
  71   0.0000       0.130828         3.5600

MULLIKEN ATOMIC CHARGES
-----------------------
   0 S :    0.124383
   1 C :   -0.095351
   2 C :   -0.078846
   3 C :    0.023016
   4 C :   -0.174200
   5 H :    0.042989
   6 C :    0.080318
   7 H :    0.028943
   8 H :    0.020196
   9 C :   -0.077688
  10 H :    0.024710
  11 H :    0.024203
  12 C :   -0.062582
  13 H :    0.041722
  14 H :    0.027143
  15 H :    0.031888
  16 S :    0.089695
  17 C :   -0.096738
  18 C :   -0.027187
  19 C :   -0.031144
  20 C :   -0.150188
  21 H :    0.014996
  22 C :    0.018949
  23 H :    0.029837
  24 H :    0.020940
  25 C :    0.005072
  26 H :   -0.002808
  27 H :    0.032422
  28 C :   -0.037231
  29 H :    0.027102
  30 H :    0.036450
  31 H :    0.010946
  32 H :    0.020671
  33 H :    0.057374
Sum of atomic charges:   -0.0000000

LOEWDIN ATOMIC CHARGES
----------------------
   0 S :    0.431848
   1 C :   -0.197236
   2 C :   -0.057107
   3 C :   -0.063893
   4 C :   -0.199487
   5 H :    0.043183
   6 C :   -0.026664
   7 H :    0.028831
   8 H :    0.027780
   9 C :   -0.043927
  10 H :    0.021436
  11 H :    0.025213
  12 C :   -0.072648
  13 H :    0.031523
  14 H :    0.023200
  15 H :    0.024331
  16 S :    0.383086
  17 C :   -0.173651
  18 C :   -0.068098
  19 C :   -0.062337
  20 C :   -0.187506
  21 H :    0.028766
  22 C :   -0.031678
  23 H :    0.032820
  24 H :    0.026581
  25 C :   -0.033417
  26 H :    0.013807
  27 H :    0.027549
  28 C :   -0.062853
  29 H :    0.021668
  30 H :    0.031861
  31 H :    0.019578
  32 H :    0.012124
  33 H :    0.025315

  Mayer bond orders larger than 0.100000
B(  0-S ,  1-C ) :   1.1498 B(  0-S ,  4-C ) :   1.1779 B(  1-C ,  2-C ) :   1.5857
B(  1-C , 32-H ) :   0.9867 B(  2-C ,  3-C ) :   1.2468 B(  2-C ,  6-C ) :   1.0284
B(  3-C ,  4-C ) :   1.5567 B(  3-C ,  5-H ) :   0.9829 B(  4-C , 20-C ) :   1.0249
B(  6-C ,  7-H ) :   0.9482 B(  6-C ,  8-H ) :   0.9431 B(  6-C ,  9-C ) :   1.0505
B(  9-C , 10-H ) :   0.9627 B(  9-C , 11-H ) :   0.9547 B(  9-C , 12-C ) :   1.0757
B( 12-C , 13-H ) :   0.9760 B( 12-C , 14-H ) :   0.9764 B( 12-C , 15-H ) :   0.9775
B( 16-S , 17-C ) :   1.1376 B( 16-S , 20-C ) :   1.1562 B( 17-C , 18-C ) :   1.6245
B( 17-C , 20-C ) :   0.1014 B( 17-C , 33-H ) :   0.9723 B( 18-C , 19-C ) :   1.2034
B( 18-C , 21-H ) :   0.9954 B( 19-C , 20-C ) :   1.5883 B( 19-C , 22-C ) :   1.0489
B( 22-C , 23-H ) :   0.9334 B( 22-C , 24-H ) :   0.9391 B( 22-C , 25-C ) :   1.0718
B( 25-C , 26-H ) :   0.9459 B( 25-C , 27-H ) :   0.9509 B( 25-C , 28-C ) :   1.0950
B( 28-C , 29-H ) :   0.9751 B( 28-C , 30-H ) :   0.9716 B( 28-C , 31-H ) :   0.9677

Dispersion correction           -0.014716772
FINAL SINGLE POINT ENERGY     -1339.879179250750

DIPOLE MOMENT
-------------
                                X             Y             Z
Electronic contribution:     -0.58258     -21.85256       3.21489
Nuclear contribution   :      0.64941      22.22905      -3.47015
                        -----------------------------------------
Total Dipole Moment    :      0.06682       0.37648      -0.25526
                        -----------------------------------------
Magnitude (a.u.)       :      0.45974
Magnitude (Debye)      :      1.16857

Rotational constants in cm-1:     0.020544     0.007684     0.007075
Rotational constants in MHz :   615.885204   230.354836   212.113575

                             ****ORCA TERMINATED NORMALLY****
TOTAL RUN TIME: 0 days 0 hours 0 minutes 30 seconds 317 msec
