                         Program Version 4.2.1 -  RELEASE  -
|  1> ! wB97X-D3 SP def2-SVP
|  2> %pal
|  3> nprocs 16
|  4> end
|  5>
|  6> * xyz 0 1
|  7> S 	 -13.4629 	 -4.67934 	 84.9964
|  8> C 	 -12.3827 	 -4.69723 	 86.3679
|  9> C 	 -12.7403 	 -5.60398 	 87.2712
| 10> C 	 -14.0303 	 -6.14186 	 87.0391
| 11> C 	 -14.4805 	 -5.93368 	 85.746
| 12> H 	 -14.5469 	 -6.77462 	 87.8027
| 13> C 	 -11.8976 	 -6.01511 	 88.4854
| 14> H 	 -12.5472 	 -6.28715 	 89.3922
| 15> H 	 -11.4176 	 -5.13099 	 88.9288
| 16> C 	 -10.8845 	 -7.17607 	 88.2312
| 17> H 	 -10.5283 	 -7.64085 	 89.1945
| 18> H 	 -11.4006 	 -8.02337 	 87.7369
| 19> C 	 -9.72468 	 -6.74618 	 87.3478
| 20> H 	 -9.1922 	 -7.69247 	 87.1543
| 21> H 	 -9.89708 	 -6.32489 	 86.4087
| 22> H 	 -9.12236 	 -5.98136 	 87.8637
| 23> S 	 -16.9856 	 -5.25381 	 84.9334
| 24> C 	 -18.0667 	 -6.42547 	 84.2378
| 25> C 	 -17.4326 	 -7.69651 	 84.1346
| 26> C 	 -16.1414 	 -7.69809 	 84.8046
| 27> C 	 -15.7104 	 -6.40996 	 85.1579
| 28> H 	 -18.0048 	 -8.54761 	 83.7153
| 29> C 	 -15.4629 	 -8.98316 	 85.1676
| 30> H 	 -14.6574 	 -8.84261 	 85.8865
| 31> H 	 -14.8573 	 -9.17294 	 84.3117
| 32> C 	 -16.254 	 -10.1504 	 85.6794
| 33> H 	 -17.046 	 -10.28 	 84.9036
| 34> H 	 -16.7234 	 -9.85673 	 86.6173
| 35> C 	 -15.52 	 -11.5072 	 85.7072
| 36> H 	 -15.3138 	 -11.716 	 84.6461
| 37> H 	 -16.1783 	 -12.2936 	 86.0855
| 38> H 	 -14.6121 	 -11.6334 	 86.3115
| 39> H 	 -11.392 	 -4.22449 	 86.4908
| 40> H 	 -19.0663 	 -6.16467 	 83.8694
| 41> *
| 42>
| 43>                          ****END OF INPUT****

CARTESIAN COORDINATES (ANGSTROEM)
---------------------------------
  S    -13.462900   -4.679340   84.996400
  C    -12.382700   -4.697230   86.367900
  C    -12.740300   -5.603980   87.271200
  C    -14.030300   -6.141860   87.039100
  C    -14.480500   -5.933680   85.746000
  H    -14.546900   -6.774620   87.802700
  C    -11.897600   -6.015110   88.485400
  H    -12.547200   -6.287150   89.392200
  H    -11.417600   -5.130990   88.928800
  C    -10.884500   -7.176070   88.231200
  H    -10.528300   -7.640850   89.194500
  H    -11.400600   -8.023370   87.736900
  C     -9.724680   -6.746180   87.347800
  H     -9.192200   -7.692470   87.154300
  H     -9.897080   -6.324890   86.408700
  H     -9.122360   -5.981360   87.863700
  S    -16.985600   -5.253810   84.933400
  C    -18.066700   -6.425470   84.237800
  C    -17.432600   -7.696510   84.134600
  C    -16.141400   -7.698090   84.804600
  C    -15.710400   -6.409960   85.157900
  H    -18.004800   -8.547610   83.715300
  C    -15.462900   -8.983160   85.167600
  H    -14.657400   -8.842610   85.886500
  H    -14.857300   -9.172940   84.311700
  C    -16.254000  -10.150400   85.679400
  H    -17.046000  -10.280000   84.903600
  H    -16.723400   -9.856730   86.617300
  C    -15.520000  -11.507200   85.707200
  H    -15.313800  -11.716000   84.646100
  H    -16.178300  -12.293600   86.085500
  H    -14.612100  -11.633400   86.311500
  H    -11.392000   -4.224490   86.490800
  H    -19.066300   -6.164670   83.869400

 Total Charge           Charge          ....    0
 Multiplicity           Mult            ....    1
 Number of Electrons    NEL             ....  134
 Basis Dimension        Dim             ....  322

ORBITAL ENERGIES
----------------

  NO   OCC          E(Eh)            E(eV)
   0   2.0000     -88.966095     -2420.8905
   1   2.0000     -88.964915     -2420.8584
   2   2.0000     -10.330476      -281.1065
   3   2.0000     -10.323652      -280.9209
   4   2.0000     -10.323500      -280.9167
   5   2.0000     -10.309657      -280.5400
   6   2.0000     -10.309589      -280.5382
   7   2.0000     -10.303520      -280.3730
   8   2.0000     -10.299910      -280.2748
   9   2.0000     -10.296195      -280.1737
  10   2.0000     -10.295567      -280.1566
  11   2.0000     -10.292863      -280.0830
  12   2.0000     -10.290526      -280.0195
  13   2.0000     -10.284029      -279.8426
  14   2.0000     -10.281722      -279.7799
  15   2.0000     -10.274400      -279.5806
  16   2.0000      -8.080407      -219.8791
  17   2.0000      -8.079965      -219.8670
  18   2.0000      -6.039061      -164.3312
  19   2.0000      -6.038438      -164.3143
  20   2.0000      -6.035017      -164.2212
  21   2.0000      -6.034225      -164.1996
  22   2.0000      -6.030974      -164.1112
  23   2.0000      -6.030946      -164.1104
  24   2.0000      -1.007065       -27.4036
  25   2.0000      -0.984587       -26.7920
  26   2.0000      -0.914014       -24.8716
  27   2.0000      -0.905883       -24.6503
  28   2.0000      -0.869213       -23.6525
  29   2.0000      -0.850473       -23.1426
  30   2.0000      -0.844753       -22.9869
  31   2.0000      -0.811064       -22.0702
  32   2.0000      -0.783619       -21.3234
  33   2.0000      -0.774670       -21.0798
  34   2.0000      -0.709410       -19.3040
  35   2.0000      -0.699788       -19.0422
  36   2.0000      -0.694169       -18.8893
  37   2.0000      -0.654409       -17.8074
  38   2.0000      -0.633036       -17.2258
  39   2.0000      -0.618861       -16.8401
  40   2.0000      -0.598162       -16.2768
  41   2.0000      -0.569788       -15.5047
  42   2.0000      -0.569445       -15.4954
  43   2.0000      -0.545413       -14.8414
  44   2.0000      -0.537736       -14.6325
  45   2.0000      -0.524018       -14.2592
  46   2.0000      -0.517510       -14.0822
  47   2.0000      -0.512466       -13.9449
  48   2.0000      -0.506862       -13.7924
  49   2.0000      -0.495542       -13.4844
  50   2.0000      -0.489025       -13.3071
  51   2.0000      -0.479442       -13.0463
  52   2.0000      -0.471854       -12.8398
  53   2.0000      -0.468248       -12.7417
  54   2.0000      -0.455116       -12.3843
  55   2.0000      -0.454221       -12.3600
  56   2.0000      -0.446196       -12.1416
  57   2.0000      -0.435573       -11.8526
  58   2.0000      -0.432525       -11.7696
  59   2.0000      -0.424420       -11.5490
  60   2.0000      -0.419007       -11.4018
  61   2.0000      -0.409594       -11.1456
  62   2.0000      -0.407679       -11.0935
  63   2.0000      -0.338629        -9.2146
  64   2.0000      -0.328925        -8.9505
  65   2.0000      -0.324338        -8.8257
  66   2.0000      -0.299039        -8.1373
  67   0.0000       0.034779         0.9464
  68   0.0000       0.061943         1.6855
  69   0.0000       0.113475         3.0878
  70   0.0000       0.120056         3.2669
  71   0.0000       0.128263         3.4902

MULLIKEN ATOMIC CHARGES
-----------------------
   0 S :    0.112030
   1 C :   -0.109873
   2 C :   -0.093416
   3 C :    0.042674
   4 C :   -0.168715
   5 H :    0.032933
   6 C :    0.014515
   7 H :    0.029226
   8 H :    0.024885
   9 C :   -0.061372
  10 H :    0.039427
  11 H :    0.029618
  12 C :   -0.048210
  13 H :    0.036845
  14 H :    0.026983
  15 H :    0.027175
  16 S :    0.121965
  17 C :   -0.118280
  18 C :   -0.060236
  19 C :   -0.023912
  20 C :   -0.171136
  21 H :    0.044001
  22 C :    0.087002
  23 H :    0.005576
  24 H :    0.017529
  25 C :   -0.072758
  26 H :    0.024384
  27 H :    0.036269
  28 C :   -0.054209
  29 H :    0.033640
  30 H :    0.036278
  31 H :    0.037589
  32 H :    0.051506
  33 H :    0.070069
Sum of atomic charges:   -0.0000000

LOEWDIN ATOMIC CHARGES
----------------------
   0 S :    0.392752
   1 C :   -0.198468
   2 C :   -0.076472
   3 C :   -0.054117
   4 C :   -0.190618
   5 H :    0.039216
   6 C :   -0.041648
   7 H :    0.035630
   8 H :    0.027400
   9 C :   -0.042485
  10 H :    0.031236
  11 H :    0.025840
  12 C :   -0.067534
  13 H :    0.033273
  14 H :    0.015745
  15 H :    0.025403
  16 S :    0.425985
  17 C :   -0.192600
  18 C :   -0.078584
  19 C :   -0.043109
  20 C :   -0.219194
  21 H :    0.037516
  22 C :   -0.045010
  23 H :    0.028247
  24 H :    0.032615
  25 C :   -0.038743
  26 H :    0.025538
  27 H :    0.024668
  28 C :   -0.066032
  29 H :    0.030048
  30 H :    0.029331
  31 H :    0.024435
  32 H :    0.037602
  33 H :    0.032134

  Mayer bond orders larger than 0.100000
B(  0-S ,  1-C ) :   1.1210 B(  0-S ,  4-C ) :   1.1322 B(  1-C ,  2-C ) :   1.6691
B(  1-C , 32-H ) :   0.9506 B(  2-C ,  3-C ) :   1.2362 B(  2-C ,  6-C ) :   1.0132
B(  3-C ,  4-C ) :   1.5900 B(  3-C ,  5-H ) :   0.9812 B(  4-C , 20-C ) :   1.0372
B(  6-C ,  7-H ) :   0.9445 B(  6-C ,  8-H ) :   0.9484 B(  6-C ,  9-C ) :   1.0579
B(  9-C , 10-H ) :   0.9554 B(  9-C , 11-H ) :   0.9566 B(  9-C , 12-C ) :   1.0744
B( 12-C , 13-H ) :   0.9717 B( 12-C , 14-H ) :   0.9750 B( 12-C , 15-H ) :   0.9757
B( 16-S , 17-C ) :   1.1815 B( 16-S , 20-C ) :   1.1552 B( 17-C , 18-C ) :   1.5787
B( 17-C , 20-C ) :   0.1060 B( 17-C , 33-H ) :   0.9668 B( 18-C , 19-C ) :   1.2430
B( 18-C , 21-H ) :   0.9819 B( 19-C , 20-C ) :   1.5825 B( 19-C , 22-C ) :   1.0419
B( 22-C , 23-H ) :   0.9283 B( 22-C , 24-H ) :   0.9172 B( 22-C , 25-C ) :   1.0604
B( 25-C , 26-H ) :   0.9520 B( 25-C , 27-H ) :   0.9573 B( 25-C , 28-C ) :   1.0758
B( 28-C , 29-H ) :   0.9755 B( 28-C , 30-H ) :   0.9742 B( 28-C , 31-H ) :   0.9775

Dispersion correction           -0.014128784
FINAL SINGLE POINT ENERGY     -1339.868235385492

DIPOLE MOMENT
-------------
                                X             Y             Z
Electronic contribution:    -13.82687      23.58334     -11.16763
Nuclear contribution   :     13.94749     -24.22954      11.52029
                        -----------------------------------------
Total Dipole Moment    :      0.12062      -0.64620       0.35266
                        -----------------------------------------
Magnitude (a.u.)       :      0.74599
Magnitude (Debye)      :      1.89616

Rotational constants in cm-1:     0.017352     0.009022     0.006442
Rotational constants in MHz :   520.189532   270.459628   193.112909

                             ****ORCA TERMINATED NORMALLY****
TOTAL RUN TIME: 0 days 0 hours 0 minutes 33 seconds 144 msec
