                         Program Version 4.2.1 -  RELEASE  -
|  1> ! wB97X-D3 SP def2-SVP
|  2> %pal
|  3> nprocs 16
|  4> end
|  5>
|  6> * xyz 0 1
|  7> S 	 -1.49733 	 77.1974 	 44.4608
|  8> C 	 -2.54137 	 76.8827 	 45.8198
|  9> C 	 -2.06487 	 75.8856 	 46.6495
| 10> C 	 -0.880564 	 75.295 	 46.1811
| 11> C 	 -0.366411 	 75.9329 	 45.0808
| 12> H 	 -0.379346 	 74.5519 	 46.759
| 13> C 	 -2.7396 	 75.4669 	 47.8702
| 14> H 	 -3.30172 	 74.5212 	 47.5852
| 15> H 	 -3.39064 	 76.2736 	 48.1688
| 16> C 	 -1.94067 	 75.0873 	 49.1843
| 17> H 	 -2.58867 	 74.9621 	 50.0058
| 18> H 	 -1.55739 	 74.0786 	 49.0029
| 19> C 	 -0.826483 	 76.1181 	 49.6926
| 20> H 	 -0.290963 	 75.7363 	 50.5908
| 21> H 	 -0.000971948 	 76.2776 	 48.9646
| 22> H 	 -1.19123 	 77.0452 	 49.9556
| 23> S 	 0.915152 	 75.1383 	 42.7504
| 24> C 	 2.65922 	 74.8872 	 42.7285
| 25> C 	 3.1785 	 75.0629 	 43.9726
| 26> C 	 2.23903 	 75.5002 	 44.977
| 27> C 	 0.951091 	 75.6622 	 44.4055
| 28> H 	 4.26919 	 74.9502 	 44.0706
| 29> C 	 2.68043 	 75.8101 	 46.3887
| 30> H 	 3.73636 	 75.8358 	 46.3987
| 31> H 	 2.44355 	 74.9723 	 47.0462
| 32> C 	 2.20188 	 77.2485 	 46.8568
| 33> H 	 2.37946 	 77.357 	 47.9421
| 34> H 	 1.14016 	 77.476 	 46.7419
| 35> C 	 3.08511 	 78.3962 	 46.1191
| 36> H 	 4.05804 	 78.244 	 46.5605
| 37> H 	 2.72137 	 79.4186 	 46.3236
| 38> H 	 3.33578 	 78.2022 	 45.0759
| 39> H 	 -3.36429 	 77.5175 	 46.0955
| 40> H 	 3.25893 	 74.6371 	 41.8243
| 41> *
| 42>
| 43>                          ****END OF INPUT****

CARTESIAN COORDINATES (ANGSTROEM)
---------------------------------
  S     -1.497330   77.197400   44.460800
  C     -2.541370   76.882700   45.819800
  C     -2.064870   75.885600   46.649500
  C     -0.880564   75.295000   46.181100
  C     -0.366411   75.932900   45.080800
  H     -0.379346   74.551900   46.759000
  C     -2.739600   75.466900   47.870200
  H     -3.301720   74.521200   47.585200
  H     -3.390640   76.273600   48.168800
  C     -1.940670   75.087300   49.184300
  H     -2.588670   74.962100   50.005800
  H     -1.557390   74.078600   49.002900
  C     -0.826483   76.118100   49.692600
  H     -0.290963   75.736300   50.590800
  H     -0.000972   76.277600   48.964600
  H     -1.191230   77.045200   49.955600
  S      0.915152   75.138300   42.750400
  C      2.659220   74.887200   42.728500
  C      3.178500   75.062900   43.972600
  C      2.239030   75.500200   44.977000
  C      0.951091   75.662200   44.405500
  H      4.269190   74.950200   44.070600
  C      2.680430   75.810100   46.388700
  H      3.736360   75.835800   46.398700
  H      2.443550   74.972300   47.046200
  C      2.201880   77.248500   46.856800
  H      2.379460   77.357000   47.942100
  H      1.140160   77.476000   46.741900
  C      3.085110   78.396200   46.119100
  H      4.058040   78.244000   46.560500
  H      2.721370   79.418600   46.323600
  H      3.335780   78.202200   45.075900
  H     -3.364290   77.517500   46.095500
  H      3.258930   74.637100   41.824300

 Total Charge           Charge          ....    0
 Multiplicity           Mult            ....    1
 Number of Electrons    NEL             ....  134
 Basis Dimension        Dim             ....  322

ORBITAL ENERGIES
----------------

  NO   OCC          E(Eh)            E(eV)
   0   2.0000     -88.967538     -2420.9298
   1   2.0000     -88.963938     -2420.8318
   2   2.0000     -10.335385      -281.2401
   3   2.0000     -10.329701      -281.0854
   4   2.0000     -10.317271      -280.7472
   5   2.0000     -10.310025      -280.5500
   6   2.0000     -10.307304      -280.4760
   7   2.0000     -10.294979      -280.1406
   8   2.0000     -10.294745      -280.1342
   9   2.0000     -10.294536      -280.1286
  10   2.0000     -10.293796      -280.1084
  11   2.0000     -10.293565      -280.1021
  12   2.0000     -10.293453      -280.0991
  13   2.0000     -10.289887      -280.0021
  14   2.0000     -10.281495      -279.7737
  15   2.0000     -10.277838      -279.6742
  16   2.0000      -8.081399      -219.9060
  17   2.0000      -8.078722      -219.8332
  18   2.0000      -6.039865      -164.3531
  19   2.0000      -6.037252      -164.2820
  20   2.0000      -6.036148      -164.2519
  21   2.0000      -6.033184      -164.1713
  22   2.0000      -6.032152      -164.1432
  23   2.0000      -6.029501      -164.0711
  24   2.0000      -1.001721       -27.2582
  25   2.0000      -0.983356       -26.7585
  26   2.0000      -0.905511       -24.6402
  27   2.0000      -0.898496       -24.4493
  28   2.0000      -0.863186       -23.4885
  29   2.0000      -0.847447       -23.0602
  30   2.0000      -0.836745       -22.7690
  31   2.0000      -0.816889       -22.2287
  32   2.0000      -0.781062       -21.2538
  33   2.0000      -0.768641       -20.9158
  34   2.0000      -0.715207       -19.4618
  35   2.0000      -0.703529       -19.1440
  36   2.0000      -0.688629       -18.7385
  37   2.0000      -0.654457       -17.8087
  38   2.0000      -0.635771       -17.3002
  39   2.0000      -0.625052       -17.0085
  40   2.0000      -0.589303       -16.0357
  41   2.0000      -0.558606       -15.2004
  42   2.0000      -0.555034       -15.1032
  43   2.0000      -0.549855       -14.9623
  44   2.0000      -0.536289       -14.5932
  45   2.0000      -0.533070       -14.5056
  46   2.0000      -0.515285       -14.0216
  47   2.0000      -0.502961       -13.6863
  48   2.0000      -0.496557       -13.5120
  49   2.0000      -0.493474       -13.4281
  50   2.0000      -0.488249       -13.2859
  51   2.0000      -0.478650       -13.0247
  52   2.0000      -0.476916       -12.9775
  53   2.0000      -0.465176       -12.6581
  54   2.0000      -0.457319       -12.4443
  55   2.0000      -0.447247       -12.1702
  56   2.0000      -0.442659       -12.0454
  57   2.0000      -0.436767       -11.8850
  58   2.0000      -0.429918       -11.6987
  59   2.0000      -0.424817       -11.5599
  60   2.0000      -0.422064       -11.4850
  61   2.0000      -0.414932       -11.2909
  62   2.0000      -0.413808       -11.2603
  63   2.0000      -0.346510        -9.4290
  64   2.0000      -0.331595        -9.0232
  65   2.0000      -0.323786        -8.8107
  66   2.0000      -0.293219        -7.9789
  67   0.0000       0.031444         0.8556
  68   0.0000       0.068030         1.8512
  69   0.0000       0.113115         3.0780
  70   0.0000       0.120743         3.2856
  71   0.0000       0.126887         3.4528

MULLIKEN ATOMIC CHARGES
-----------------------
   0 S :    0.107554
   1 C :   -0.116066
   2 C :   -0.097627
   3 C :    0.069307
   4 C :   -0.166835
   5 H :    0.001408
   6 C :    0.036365
   7 H :    0.060523
   8 H :    0.019379
   9 C :   -0.067914
  10 H :    0.025895
  11 H :    0.025166
  12 C :   -0.053168
  13 H :    0.032953
  14 H :    0.035053
  15 H :    0.020692
  16 S :    0.106855
  17 C :   -0.113093
  18 C :   -0.044525
  19 C :   -0.051344
  20 C :   -0.147227
  21 H :    0.026566
  22 C :    0.101940
  23 H :   -0.001496
  24 H :    0.039759
  25 C :   -0.109157
  26 H :    0.034818
  27 H :    0.063316
  28 C :   -0.057927
  29 H :    0.013267
  30 H :    0.050092
  31 H :    0.041778
  32 H :    0.042326
  33 H :    0.071368
Sum of atomic charges:   -0.0000000

LOEWDIN ATOMIC CHARGES
----------------------
   0 S :    0.385983
   1 C :   -0.197981
   2 C :   -0.071239
   3 C :   -0.052566
   4 C :   -0.170955
   5 H :    0.029992
   6 C :   -0.036798
   7 H :    0.048840
   8 H :    0.027622
   9 C :   -0.035587
  10 H :    0.021444
  11 H :    0.020961
  12 C :   -0.066785
  13 H :    0.031926
  14 H :    0.028465
  15 H :    0.012842
  16 S :    0.407897
  17 C :   -0.191460
  18 C :   -0.080310
  19 C :   -0.056052
  20 C :   -0.205095
  21 H :    0.035566
  22 C :   -0.028161
  23 H :    0.023593
  24 H :    0.033246
  25 C :   -0.034529
  26 H :    0.022612
  27 H :    0.023125
  28 C :   -0.068292
  29 H :    0.019868
  30 H :    0.030060
  31 H :    0.026835
  32 H :    0.024787
  33 H :    0.040147

  Mayer bond orders larger than 0.100000
B(  0-S ,  1-C ) :   1.1326 B(  0-S ,  4-C ) :   1.1450 B(  1-C ,  2-C ) :   1.6181
B(  1-C , 32-H ) :   0.9632 B(  2-C ,  3-C ) :   1.2360 B(  2-C ,  6-C ) :   1.0359
B(  3-C ,  4-C ) :   1.5845 B(  3-C ,  5-H ) :   0.9977 B(  4-C , 20-C ) :   1.0017
B(  6-C ,  7-H ) :   0.9324 B(  6-C ,  8-H ) :   0.9412 B(  6-C ,  9-C ) :   1.0697
B(  9-C , 10-H ) :   0.9580 B(  9-C , 11-H ) :   0.9546 B(  9-C , 12-C ) :   1.0641
B( 12-C , 13-H ) :   0.9743 B( 12-C , 14-H ) :   0.9754 B( 12-C , 15-H ) :   0.9782
B( 16-S , 17-C ) :   1.1440 B( 16-S , 20-C ) :   1.1669 B( 17-C , 18-C ) :   1.6278
B( 17-C , 33-H ) :   0.9613 B( 18-C , 19-C ) :   1.2414 B( 18-C , 21-H ) :   0.9823
B( 19-C , 20-C ) :   1.5746 B( 19-C , 22-C ) :   1.0411 B( 22-C , 23-H ) :   0.9357
B( 22-C , 24-H ) :   0.9267 B( 22-C , 25-C ) :   1.0566 B( 25-C , 26-H ) :   0.9583
B( 25-C , 27-H ) :   0.9635 B( 25-C , 28-C ) :   1.0455 B( 28-C , 29-H ) :   0.9754
B( 28-C , 30-H ) :   0.9780 B( 28-C , 31-H ) :   0.9814

Dispersion correction           -0.016228885
FINAL SINGLE POINT ENERGY     -1339.872998069039

DIPOLE MOMENT
-------------
                                X             Y             Z
Electronic contribution:     -6.27454      -3.54235     -26.54900
Nuclear contribution   :      6.53884       3.41537      27.27804
                        -----------------------------------------
Total Dipole Moment    :      0.26430      -0.12698       0.72905
                        -----------------------------------------
Magnitude (a.u.)       :      0.78580
Magnitude (Debye)      :      1.99736

Rotational constants in cm-1:     0.018960     0.009866     0.008027
Rotational constants in MHz :   568.412303   295.768906   240.655028

                             ****ORCA TERMINATED NORMALLY****
TOTAL RUN TIME: 0 days 0 hours 0 minutes 37 seconds 387 msec
