                         Program Version 4.2.1 -  RELEASE  -
|  1> ! wB97X-D3 SP def2-SVP
|  2> %pal
|  3> nprocs 16
|  4> end
|  5>
|  6> * xyz 0 1
|  7> S 	 -52.7464 	 12.542 	 90.9178
|  8> C 	 -51.4019 	 13.6268 	 90.8429
|  9> C 	 -51.1066 	 13.9706 	 89.5302
| 10> C 	 -52.0155 	 13.4601 	 88.586
| 11> C 	 -53.072 	 12.7493 	 89.2006
| 12> H 	 -52.0786 	 13.658 	 87.5795
| 13> C 	 -50.0712 	 15.0608 	 89.2773
| 14> H 	 -50.4748 	 15.933 	 89.7863
| 15> H 	 -50.1416 	 15.3384 	 88.2002
| 16> C 	 -48.5978 	 14.7056 	 89.6802
| 17> H 	 -47.883 	 15.5217 	 89.353
| 18> H 	 -48.4958 	 14.7342 	 90.7732
| 19> C 	 -48.0562 	 13.4593 	 88.9805
| 20> H 	 -47.8658 	 12.6293 	 89.6281
| 21> H 	 -48.7137 	 13.1625 	 88.1593
| 22> H 	 -47.1177 	 13.5525 	 88.5271
| 23> S 	 -54.559 	 10.4027 	 88.9606
| 24> C 	 -55.905 	 10.3651 	 87.8762
| 25> C 	 -55.9684 	 11.5141 	 87.075
| 26> C 	 -54.963 	 12.4927 	 87.3773
| 27> C 	 -54.1965 	 12.0411 	 88.4916
| 28> H 	 -56.736 	 11.6911 	 86.3468
| 29> C 	 -55.0079 	 13.9413 	 86.833
| 30> H 	 -53.9746 	 14.2505 	 86.5338
| 31> H 	 -55.3075 	 14.5703 	 87.7676
| 32> C 	 -55.9956 	 14.3228 	 85.7463
| 33> H 	 -55.7717 	 15.4067 	 85.6433
| 34> H 	 -56.9511 	 14.201 	 86.2849
| 35> C 	 -55.7152 	 13.6422 	 84.3792
| 36> H 	 -55.9744 	 12.5641 	 84.2625
| 37> H 	 -54.6755 	 13.7847 	 84.0247
| 38> H 	 -56.3499 	 14.0232 	 83.5355
| 39> H 	 -50.7932 	 13.8509 	 91.7543
| 40> H 	 -56.4688 	 9.48119 	 87.5467
| 41> *
| 42>
| 43>                          ****END OF INPUT****

CARTESIAN COORDINATES (ANGSTROEM)
---------------------------------
  S    -52.746400   12.542000   90.917800
  C    -51.401900   13.626800   90.842900
  C    -51.106600   13.970600   89.530200
  C    -52.015500   13.460100   88.586000
  C    -53.072000   12.749300   89.200600
  H    -52.078600   13.658000   87.579500
  C    -50.071200   15.060800   89.277300
  H    -50.474800   15.933000   89.786300
  H    -50.141600   15.338400   88.200200
  C    -48.597800   14.705600   89.680200
  H    -47.883000   15.521700   89.353000
  H    -48.495800   14.734200   90.773200
  C    -48.056200   13.459300   88.980500
  H    -47.865800   12.629300   89.628100
  H    -48.713700   13.162500   88.159300
  H    -47.117700   13.552500   88.527100
  S    -54.559000   10.402700   88.960600
  C    -55.905000   10.365100   87.876200
  C    -55.968400   11.514100   87.075000
  C    -54.963000   12.492700   87.377300
  C    -54.196500   12.041100   88.491600
  H    -56.736000   11.691100   86.346800
  C    -55.007900   13.941300   86.833000
  H    -53.974600   14.250500   86.533800
  H    -55.307500   14.570300   87.767600
  C    -55.995600   14.322800   85.746300
  H    -55.771700   15.406700   85.643300
  H    -56.951100   14.201000   86.284900
  C    -55.715200   13.642200   84.379200
  H    -55.974400   12.564100   84.262500
  H    -54.675500   13.784700   84.024700
  H    -56.349900   14.023200   83.535500
  H    -50.793200   13.850900   91.754300
  H    -56.468800    9.481190   87.546700

 Total Charge           Charge          ....    0
 Multiplicity           Mult            ....    1
 Number of Electrons    NEL             ....  134
 Basis Dimension        Dim             ....  322

ORBITAL ENERGIES
----------------

  NO   OCC          E(Eh)            E(eV)
   0   2.0000     -88.970848     -2421.0198
   1   2.0000     -88.967126     -2420.9186
   2   2.0000     -10.333646      -281.1928
   3   2.0000     -10.331758      -281.1414
   4   2.0000     -10.315511      -280.6993
   5   2.0000     -10.312963      -280.6300
   6   2.0000     -10.307297      -280.4758
   7   2.0000     -10.304356      -280.3958
   8   2.0000     -10.298830      -280.2454
   9   2.0000     -10.298565      -280.2382
  10   2.0000     -10.295128      -280.1447
  11   2.0000     -10.294180      -280.1189
  12   2.0000     -10.293744      -280.1070
  13   2.0000     -10.291819      -280.0546
  14   2.0000     -10.290253      -280.0120
  15   2.0000     -10.267490      -279.3926
  16   2.0000      -8.085497      -220.0175
  17   2.0000      -8.081832      -219.9178
  18   2.0000      -6.043879      -164.4623
  19   2.0000      -6.040174      -164.3615
  20   2.0000      -6.039959      -164.3556
  21   2.0000      -6.036474      -164.2608
  22   2.0000      -6.036210      -164.2536
  23   2.0000      -6.032930      -164.1644
  24   2.0000      -1.002253       -27.2727
  25   2.0000      -0.982758       -26.7422
  26   2.0000      -0.909954       -24.7611
  27   2.0000      -0.903825       -24.5943
  28   2.0000      -0.859240       -23.3811
  29   2.0000      -0.851914       -23.1817
  30   2.0000      -0.843816       -22.9614
  31   2.0000      -0.810954       -22.0672
  32   2.0000      -0.784679       -21.3522
  33   2.0000      -0.769578       -20.9413
  34   2.0000      -0.704843       -19.1798
  35   2.0000      -0.701303       -19.0834
  36   2.0000      -0.687794       -18.7158
  37   2.0000      -0.656042       -17.8518
  38   2.0000      -0.640473       -17.4282
  39   2.0000      -0.610641       -16.6164
  40   2.0000      -0.590210       -16.0604
  41   2.0000      -0.567203       -15.4344
  42   2.0000      -0.558093       -15.1865
  43   2.0000      -0.555250       -15.1091
  44   2.0000      -0.532549       -14.4914
  45   2.0000      -0.528108       -14.3705
  46   2.0000      -0.514931       -14.0120
  47   2.0000      -0.504764       -13.7353
  48   2.0000      -0.499128       -13.5820
  49   2.0000      -0.492408       -13.3991
  50   2.0000      -0.486226       -13.2309
  51   2.0000      -0.479109       -13.0372
  52   2.0000      -0.474183       -12.9032
  53   2.0000      -0.469910       -12.7869
  54   2.0000      -0.456908       -12.4331
  55   2.0000      -0.446651       -12.1540
  56   2.0000      -0.445135       -12.1127
  57   2.0000      -0.439901       -11.9703
  58   2.0000      -0.433035       -11.7835
  59   2.0000      -0.426854       -11.6153
  60   2.0000      -0.417888       -11.3713
  61   2.0000      -0.416891       -11.3442
  62   2.0000      -0.404361       -11.0032
  63   2.0000      -0.347423        -9.4539
  64   2.0000      -0.332900        -9.0587
  65   2.0000      -0.330591        -8.9958
  66   2.0000      -0.281419        -7.6578
  67   0.0000       0.022737         0.6187
  68   0.0000       0.070887         1.9289
  69   0.0000       0.110134         2.9969
  70   0.0000       0.119228         3.2443
  71   0.0000       0.133553         3.6341

MULLIKEN ATOMIC CHARGES
-----------------------
   0 S :    0.113747
   1 C :   -0.148391
   2 C :   -0.066458
   3 C :    0.064017
   4 C :   -0.159083
   5 H :   -0.026224
   6 C :    0.039308
   7 H :    0.043486
   8 H :    0.020422
   9 C :   -0.091489
  10 H :    0.036203
  11 H :    0.031555
  12 C :   -0.012837
  13 H :    0.026296
  14 H :    0.030370
  15 H :    0.011754
  16 S :    0.128001
  17 C :   -0.089095
  18 C :   -0.059750
  19 C :   -0.021569
  20 C :   -0.164065
  21 H :    0.015586
  22 C :   -0.027606
  23 H :    0.030123
  24 H :    0.065849
  25 C :   -0.050729
  26 H :    0.043957
  27 H :    0.045234
  28 C :   -0.082238
  29 H :    0.039641
  30 H :    0.040669
  31 H :    0.036378
  32 H :    0.071285
  33 H :    0.065653
Sum of atomic charges:    0.0000000

LOEWDIN ATOMIC CHARGES
----------------------
   0 S :    0.414739
   1 C :   -0.211825
   2 C :   -0.068502
   3 C :   -0.055063
   4 C :   -0.187913
   5 H :    0.015529
   6 C :   -0.033033
   7 H :    0.035096
   8 H :    0.028771
   9 C :   -0.047058
  10 H :    0.032365
  11 H :    0.021739
  12 C :   -0.066536
  13 H :    0.026480
  14 H :    0.030531
  15 H :    0.019343
  16 S :    0.428373
  17 C :   -0.211552
  18 C :   -0.069389
  19 C :   -0.062208
  20 C :   -0.202196
  21 H :    0.025458
  22 C :   -0.042728
  23 H :    0.025092
  24 H :    0.051299
  25 C :   -0.050755
  26 H :    0.038548
  27 H :    0.031453
  28 C :   -0.081848
  29 H :    0.028789
  30 H :    0.031882
  31 H :    0.031769
  32 H :    0.037353
  33 H :    0.035998

  Mayer bond orders larger than 0.100000
B(  0-S ,  1-C ) :   1.1577 B(  0-S ,  4-C ) :   1.1772 B(  1-C ,  2-C ) :   1.5619
B(  1-C ,  4-C ) :   0.1056 B(  1-C , 32-H ) :   0.9663 B(  2-C ,  3-C ) :   1.2857
B(  2-C ,  6-C ) :   1.0022 B(  3-C ,  4-C ) :   1.5182 B(  3-C ,  5-H ) :   1.0044
B(  4-C , 20-C ) :   1.0426 B(  6-C ,  7-H ) :   0.9500 B(  6-C ,  8-H ) :   0.9471
B(  6-C ,  9-C ) :   1.0735 B(  9-C , 10-H ) :   0.9629 B(  9-C , 11-H ) :   0.9627
B(  9-C , 12-C ) :   1.0537 B( 12-C , 13-H ) :   0.9731 B( 12-C , 14-H ) :   0.9787
B( 12-C , 15-H ) :   0.9764 B( 16-S , 17-C ) :   1.1577 B( 16-S , 20-C ) :   1.1737
B( 17-C , 18-C ) :   1.5849 B( 17-C , 20-C ) :   0.1012 B( 17-C , 33-H ) :   0.9593
B( 18-C , 19-C ) :   1.2911 B( 18-C , 21-H ) :   0.9790 B( 19-C , 20-C ) :   1.5514
B( 19-C , 22-C ) :   1.0160 B( 22-C , 23-H ) :   0.9320 B( 22-C , 24-H ) :   0.9399
B( 22-C , 25-C ) :   1.0872 B( 25-C , 26-H ) :   0.9492 B( 25-C , 27-H ) :   0.9510
B( 25-C , 28-C ) :   1.0588 B( 28-C , 29-H ) :   0.9757 B( 28-C , 30-H ) :   0.9731
B( 28-C , 31-H ) :   0.9743

Dispersion correction           -0.014061896
FINAL SINGLE POINT ENERGY     -1339.865003114478

DIPOLE MOMENT
-------------
                                X             Y             Z
Electronic contribution:     -9.92791     -15.97903      16.72511
Nuclear contribution   :     10.06960      16.45938     -17.20184
                        -----------------------------------------
Total Dipole Moment    :      0.14169       0.48035      -0.47674
                        -----------------------------------------
Magnitude (a.u.)       :      0.69144
Magnitude (Debye)      :      1.75750

Rotational constants in cm-1:     0.020100     0.007766     0.006252
Rotational constants in MHz :   602.581642   232.808574   187.421219

                             ****ORCA TERMINATED NORMALLY****
TOTAL RUN TIME: 0 days 0 hours 0 minutes 29 seconds 499 msec
