                         Program Version 4.2.1 -  RELEASE  -
|  1> ! wB97X-D3 SP def2-SVP
|  2> %pal
|  3> nprocs 16
|  4> end
|  5>
|  6> * xyz 0 1
|  7> S 	 60.914 	 19.1059 	 83.0967
|  8> C 	 60.2626 	 20.2708 	 84.2157
|  9> C 	 58.8585 	 20.2611 	 84.1749
| 10> C 	 58.3568 	 19.336 	 83.2136
| 11> C 	 59.374 	 18.7252 	 82.4739
| 12> H 	 57.3635 	 19.1675 	 82.9
| 13> C 	 57.9897 	 21.2431 	 84.8899
| 14> H 	 58.5314 	 21.5784 	 85.8603
| 15> H 	 57.0971 	 20.7197 	 85.3408
| 16> C 	 57.6394 	 22.4642 	 84.0005
| 17> H 	 57.2253 	 23.2015 	 84.6251
| 18> H 	 58.595 	 22.8325 	 83.6228
| 19> C 	 56.5854 	 22.1964 	 82.8794
| 20> H 	 56.663 	 22.9094 	 82.0311
| 21> H 	 56.6133 	 21.1601 	 82.4845
| 22> H 	 55.5031 	 22.3266 	 83.1108
| 23> S 	 60.397 	 16.5166 	 81.1413
| 24> C 	 59.6862 	 15.9905 	 79.6264
| 25> C 	 58.5322 	 16.6438 	 79.386
| 26> C 	 58.2432 	 17.6961 	 80.3022
| 27> C 	 59.1891 	 17.7575 	 81.3377
| 28> H 	 58.0604 	 16.4618 	 78.3934
| 29> C 	 57.0352 	 18.6566 	 80.1712
| 30> H 	 57.0087 	 18.9836 	 79.1019
| 31> H 	 57.1935 	 19.6583 	 80.6565
| 32> C 	 55.6712 	 17.9773 	 80.6095
| 33> H 	 55.7947 	 17.4124 	 81.5405
| 34> H 	 55.3588 	 17.2107 	 79.8823
| 35> C 	 54.5186 	 18.9273 	 80.8391
| 36> H 	 54.4463 	 19.3027 	 81.8766
| 37> H 	 53.585 	 18.3539 	 80.791
| 38> H 	 54.4131 	 19.7636 	 80.1737
| 39> H 	 60.897 	 20.8894 	 84.8291
| 40> H 	 60.0735 	 15.1803 	 79.0345
| 41> *
| 42>
| 43>                          ****END OF INPUT****

CARTESIAN COORDINATES (ANGSTROEM)
---------------------------------
  S     60.914000   19.105900   83.096700
  C     60.262600   20.270800   84.215700
  C     58.858500   20.261100   84.174900
  C     58.356800   19.336000   83.213600
  C     59.374000   18.725200   82.473900
  H     57.363500   19.167500   82.900000
  C     57.989700   21.243100   84.889900
  H     58.531400   21.578400   85.860300
  H     57.097100   20.719700   85.340800
  C     57.639400   22.464200   84.000500
  H     57.225300   23.201500   84.625100
  H     58.595000   22.832500   83.622800
  C     56.585400   22.196400   82.879400
  H     56.663000   22.909400   82.031100
  H     56.613300   21.160100   82.484500
  H     55.503100   22.326600   83.110800
  S     60.397000   16.516600   81.141300
  C     59.686200   15.990500   79.626400
  C     58.532200   16.643800   79.386000
  C     58.243200   17.696100   80.302200
  C     59.189100   17.757500   81.337700
  H     58.060400   16.461800   78.393400
  C     57.035200   18.656600   80.171200
  H     57.008700   18.983600   79.101900
  H     57.193500   19.658300   80.656500
  C     55.671200   17.977300   80.609500
  H     55.794700   17.412400   81.540500
  H     55.358800   17.210700   79.882300
  C     54.518600   18.927300   80.839100
  H     54.446300   19.302700   81.876600
  H     53.585000   18.353900   80.791000
  H     54.413100   19.763600   80.173700
  H     60.897000   20.889400   84.829100
  H     60.073500   15.180300   79.034500

 Total Charge           Charge          ....    0
 Multiplicity           Mult            ....    1
 Number of Electrons    NEL             ....  134
 Basis Dimension        Dim             ....  322

ORBITAL ENERGIES
----------------

  NO   OCC          E(Eh)            E(eV)
   0   2.0000     -88.967604     -2420.9316
   1   2.0000     -88.963339     -2420.8155
   2   2.0000     -10.331727      -281.1406
   3   2.0000     -10.330641      -281.1110
   4   2.0000     -10.314447      -280.6704
   5   2.0000     -10.313748      -280.6514
   6   2.0000     -10.307771      -280.4887
   7   2.0000     -10.304297      -280.3942
   8   2.0000     -10.303317      -280.3675
   9   2.0000     -10.301650      -280.3222
  10   2.0000     -10.294374      -280.1242
  11   2.0000     -10.292948      -280.0853
  12   2.0000     -10.290540      -280.0198
  13   2.0000     -10.290013      -280.0055
  14   2.0000     -10.285764      -279.8899
  15   2.0000     -10.278391      -279.6893
  16   2.0000      -8.083071      -219.9515
  17   2.0000      -8.078435      -219.8254
  18   2.0000      -6.041417      -164.3953
  19   2.0000      -6.037362      -164.2850
  20   2.0000      -6.036875      -164.2717
  21   2.0000      -6.034096      -164.1961
  22   2.0000      -6.032908      -164.1638
  23   2.0000      -6.029245      -164.0641
  24   2.0000      -1.008488       -27.4423
  25   2.0000      -0.987377       -26.8679
  26   2.0000      -0.909868       -24.7588
  27   2.0000      -0.901154       -24.5216
  28   2.0000      -0.865193       -23.5431
  29   2.0000      -0.852512       -23.1980
  30   2.0000      -0.843148       -22.9432
  31   2.0000      -0.816982       -22.2312
  32   2.0000      -0.781021       -21.2527
  33   2.0000      -0.770126       -20.9562
  34   2.0000      -0.706344       -19.2206
  35   2.0000      -0.701418       -19.0865
  36   2.0000      -0.694388       -18.8952
  37   2.0000      -0.659826       -17.9548
  38   2.0000      -0.642010       -17.4700
  39   2.0000      -0.617334       -16.7985
  40   2.0000      -0.595093       -16.1933
  41   2.0000      -0.573026       -15.5928
  42   2.0000      -0.555994       -15.1294
  43   2.0000      -0.541602       -14.7377
  44   2.0000      -0.535965       -14.5844
  45   2.0000      -0.528005       -14.3677
  46   2.0000      -0.513645       -13.9770
  47   2.0000      -0.510571       -13.8933
  48   2.0000      -0.506035       -13.7699
  49   2.0000      -0.496632       -13.5140
  50   2.0000      -0.491697       -13.3797
  51   2.0000      -0.484794       -13.1919
  52   2.0000      -0.472027       -12.8445
  53   2.0000      -0.467694       -12.7266
  54   2.0000      -0.455898       -12.4056
  55   2.0000      -0.448647       -12.2083
  56   2.0000      -0.442434       -12.0392
  57   2.0000      -0.437774       -11.9124
  58   2.0000      -0.433875       -11.8064
  59   2.0000      -0.428648       -11.6641
  60   2.0000      -0.418944       -11.4000
  61   2.0000      -0.415036       -11.2937
  62   2.0000      -0.407258       -11.0821
  63   2.0000      -0.354443        -9.6449
  64   2.0000      -0.333794        -9.0830
  65   2.0000      -0.329837        -8.9753
  66   2.0000      -0.286765        -7.8033
  67   0.0000       0.026413         0.7187
  68   0.0000       0.082544         2.2461
  69   0.0000       0.108286         2.9466
  70   0.0000       0.122645         3.3373
  71   0.0000       0.129083         3.5125

MULLIKEN ATOMIC CHARGES
-----------------------
   0 S :    0.117232
   1 C :   -0.122501
   2 C :   -0.063156
   3 C :    0.031288
   4 C :   -0.132820
   5 H :   -0.008414
   6 C :   -0.010963
   7 H :    0.034073
   8 H :    0.039441
   9 C :    0.003139
  10 H :    0.024644
  11 H :    0.032675
  12 C :   -0.077981
  13 H :    0.036576
  14 H :    0.017306
  15 H :    0.030289
  16 S :    0.088299
  17 C :   -0.094215
  18 C :   -0.033139
  19 C :   -0.051341
  20 C :   -0.132838
  21 H :    0.035457
  22 C :    0.019655
  23 H :    0.032374
  24 H :    0.042025
  25 C :   -0.074120
  26 H :    0.038262
  27 H :    0.035919
  28 C :   -0.046941
  29 H :    0.031548
  30 H :    0.025724
  31 H :    0.031322
  32 H :    0.045677
  33 H :    0.055506
Sum of atomic charges:   -0.0000000

LOEWDIN ATOMIC CHARGES
----------------------
   0 S :    0.432185
   1 C :   -0.203126
   2 C :   -0.061716
   3 C :   -0.064140
   4 C :   -0.201003
   5 H :    0.021385
   6 C :   -0.044016
   7 H :    0.038300
   8 H :    0.034509
   9 C :   -0.029762
  10 H :    0.020528
  11 H :    0.029018
  12 C :   -0.079488
  13 H :    0.031164
  14 H :    0.021746
  15 H :    0.028787
  16 S :    0.396025
  17 C :   -0.179604
  18 C :   -0.078736
  19 C :   -0.061601
  20 C :   -0.192469
  21 H :    0.041538
  22 C :   -0.040114
  23 H :    0.034910
  24 H :    0.034228
  25 C :   -0.044926
  26 H :    0.028712
  27 H :    0.027557
  28 C :   -0.073409
  29 H :    0.026711
  30 H :    0.030984
  31 H :    0.021192
  32 H :    0.025282
  33 H :    0.029351

  Mayer bond orders larger than 0.100000
B(  0-S ,  1-C ) :   1.1486 B(  0-S ,  4-C ) :   1.1856 B(  1-C ,  2-C ) :   1.5683
B(  1-C ,  4-C ) :   0.1008 B(  1-C , 32-H ) :   0.9752 B(  2-C ,  3-C ) :   1.2546
B(  2-C ,  6-C ) :   1.0393 B(  3-C ,  4-C ) :   1.5312 B(  3-C ,  5-H ) :   0.9993
B(  4-C , 20-C ) :   1.0289 B(  6-C ,  7-H ) :   0.9421 B(  6-C ,  8-H ) :   0.9425
B(  6-C ,  9-C ) :   1.0597 B(  9-C , 10-H ) :   0.9565 B(  9-C , 11-H ) :   0.9561
B(  9-C , 12-C ) :   1.0594 B( 12-C , 13-H ) :   0.9741 B( 12-C , 14-H ) :   0.9754
B( 12-C , 15-H ) :   0.9720 B( 16-S , 17-C ) :   1.1436 B( 16-S , 20-C ) :   1.1486
B( 17-C , 18-C ) :   1.6325 B( 17-C , 33-H ) :   0.9684 B( 18-C , 19-C ) :   1.2436
B( 18-C , 21-H ) :   0.9802 B( 19-C , 20-C ) :   1.5951 B( 19-C , 22-C ) :   1.0394
B( 22-C , 23-H ) :   0.9297 B( 22-C , 24-H ) :   0.9479 B( 22-C , 25-C ) :   1.0363
B( 25-C , 26-H ) :   0.9581 B( 25-C , 27-H ) :   0.9589 B( 25-C , 28-C ) :   1.0864
B( 28-C , 29-H ) :   0.9744 B( 28-C , 30-H ) :   0.9690 B( 28-C , 31-H ) :   0.9752

Dispersion correction           -0.015567453
FINAL SINGLE POINT ENERGY     -1339.887882097315

DIPOLE MOMENT
-------------
                                X             Y             Z
Electronic contribution:     27.98058     -16.27558       0.23991
Nuclear contribution   :    -28.59076      16.61354      -0.39467
                        -----------------------------------------
Total Dipole Moment    :     -0.61018       0.33796      -0.15476
                        -----------------------------------------
Magnitude (a.u.)       :      0.71448
Magnitude (Debye)      :      1.81606

Rotational constants in cm-1:     0.016850     0.011078     0.007050
Rotational constants in MHz :   505.150863   332.117908   211.361377

                             ****ORCA TERMINATED NORMALLY****
TOTAL RUN TIME: 0 days 0 hours 0 minutes 31 seconds 841 msec
