                         Program Version 4.2.1 -  RELEASE  -
|  1> ! wB97X-D3 SP def2-SVP
|  2> %pal
|  3> nprocs 16
|  4> end
|  5>
|  6> * xyz 0 1
|  7> S 	 53.653 	 13.4184 	 51.0658
|  8> C 	 53.7554 	 14.9589 	 50.2249
|  9> C 	 53.7847 	 15.9783 	 51.1371
| 10> C 	 53.8599 	 15.5564 	 52.4758
| 11> C 	 53.8118 	 14.2005 	 52.6752
| 12> H 	 53.6877 	 16.2177 	 53.2846
| 13> C 	 53.6532 	 17.4077 	 50.8274
| 14> H 	 53.6489 	 18.0374 	 51.6977
| 15> H 	 52.7193 	 17.5052 	 50.3319
| 16> C 	 54.7025 	 17.9459 	 49.8045
| 17> H 	 54.7027 	 17.4198 	 48.7833
| 18> H 	 54.4095 	 18.9225 	 49.5374
| 19> C 	 56.1248 	 18.0019 	 50.2908
| 20> H 	 56.2423 	 18.6797 	 51.1614
| 21> H 	 56.4724 	 17.0402 	 50.4652
| 22> H 	 56.8087 	 18.3207 	 49.4867
| 23> S 	 55.3364 	 12.8424 	 54.6501
| 24> C 	 54.5188 	 12.2905 	 56.089
| 25> C 	 53.1223 	 12.587 	 55.9339
| 26> C 	 52.7542 	 13.1996 	 54.7862
| 27> C 	 53.8087 	 13.3993 	 53.9455
| 28> H 	 52.4816 	 12.3949 	 56.7924
| 29> C 	 51.3197 	 13.6551 	 54.485
| 30> H 	 50.7711 	 13.1134 	 55.2195
| 31> H 	 51.1408 	 13.146 	 53.4723
| 32> C 	 50.9487 	 15.1813 	 54.5273
| 33> H 	 50.941 	 15.5156 	 53.4653
| 34> H 	 51.7119 	 15.7036 	 55.1396
| 35> C 	 49.5515 	 15.5159 	 55.1229
| 36> H 	 48.7282 	 14.976 	 54.696
| 37> H 	 49.4332 	 16.521 	 55.1422
| 38> H 	 49.5435 	 15.1973 	 56.2234
| 39> H 	 53.5222 	 15.1385 	 49.1518
| 40> H 	 54.9052 	 11.8094 	 56.9567
| 41> *
| 42>
| 43>                          ****END OF INPUT****

CARTESIAN COORDINATES (ANGSTROEM)
---------------------------------
  S     53.653000   13.418400   51.065800
  C     53.755400   14.958900   50.224900
  C     53.784700   15.978300   51.137100
  C     53.859900   15.556400   52.475800
  C     53.811800   14.200500   52.675200
  H     53.687700   16.217700   53.284600
  C     53.653200   17.407700   50.827400
  H     53.648900   18.037400   51.697700
  H     52.719300   17.505200   50.331900
  C     54.702500   17.945900   49.804500
  H     54.702700   17.419800   48.783300
  H     54.409500   18.922500   49.537400
  C     56.124800   18.001900   50.290800
  H     56.242300   18.679700   51.161400
  H     56.472400   17.040200   50.465200
  H     56.808700   18.320700   49.486700
  S     55.336400   12.842400   54.650100
  C     54.518800   12.290500   56.089000
  C     53.122300   12.587000   55.933900
  C     52.754200   13.199600   54.786200
  C     53.808700   13.399300   53.945500
  H     52.481600   12.394900   56.792400
  C     51.319700   13.655100   54.485000
  H     50.771100   13.113400   55.219500
  H     51.140800   13.146000   53.472300
  C     50.948700   15.181300   54.527300
  H     50.941000   15.515600   53.465300
  H     51.711900   15.703600   55.139600
  C     49.551500   15.515900   55.122900
  H     48.728200   14.976000   54.696000
  H     49.433200   16.521000   55.142200
  H     49.543500   15.197300   56.223400
  H     53.522200   15.138500   49.151800
  H     54.905200   11.809400   56.956700

 Total Charge           Charge          ....    0
 Multiplicity           Mult            ....    1
 Number of Electrons    NEL             ....  134
 Basis Dimension        Dim             ....  322

ORBITAL ENERGIES
----------------

  NO   OCC          E(Eh)            E(eV)
   0   2.0000     -88.970707     -2421.0160
   1   2.0000     -88.963391     -2420.8169
   2   2.0000     -10.332780      -281.1692
   3   2.0000     -10.324565      -280.9457
   4   2.0000     -10.320726      -280.8412
   5   2.0000     -10.314249      -280.6650
   6   2.0000     -10.296026      -280.1691
   7   2.0000     -10.295253      -280.1481
   8   2.0000     -10.294296      -280.1220
   9   2.0000     -10.291801      -280.0541
  10   2.0000     -10.289844      -280.0009
  11   2.0000     -10.287252      -279.9303
  12   2.0000     -10.286284      -279.9040
  13   2.0000     -10.285702      -279.8882
  14   2.0000     -10.277238      -279.6579
  15   2.0000     -10.269173      -279.4384
  16   2.0000      -8.084547      -219.9917
  17   2.0000      -8.077181      -219.7913
  18   2.0000      -6.042884      -164.4352
  19   2.0000      -6.039010      -164.3298
  20   2.0000      -6.035799      -164.2424
  21   2.0000      -6.035707      -164.2399
  22   2.0000      -6.031744      -164.1321
  23   2.0000      -6.027948      -164.0288
  24   2.0000      -1.004477       -27.3332
  25   2.0000      -0.986629       -26.8475
  26   2.0000      -0.912663       -24.8348
  27   2.0000      -0.901282       -24.5251
  28   2.0000      -0.861767       -23.4499
  29   2.0000      -0.856541       -23.3077
  30   2.0000      -0.848550       -23.0902
  31   2.0000      -0.812895       -22.1200
  32   2.0000      -0.784736       -21.3537
  33   2.0000      -0.773449       -21.0466
  34   2.0000      -0.707123       -19.2418
  35   2.0000      -0.701060       -19.0768
  36   2.0000      -0.692964       -18.8565
  37   2.0000      -0.663076       -18.0432
  38   2.0000      -0.637661       -17.3516
  39   2.0000      -0.612984       -16.6801
  40   2.0000      -0.588617       -16.0171
  41   2.0000      -0.576996       -15.7009
  42   2.0000      -0.558374       -15.1941
  43   2.0000      -0.552489       -15.0340
  44   2.0000      -0.540713       -14.7135
  45   2.0000      -0.534709       -14.5502
  46   2.0000      -0.524480       -14.2718
  47   2.0000      -0.514688       -14.0054
  48   2.0000      -0.502214       -13.6659
  49   2.0000      -0.495476       -13.4826
  50   2.0000      -0.486063       -13.2264
  51   2.0000      -0.475785       -12.9468
  52   2.0000      -0.473599       -12.8873
  53   2.0000      -0.465864       -12.6768
  54   2.0000      -0.460823       -12.5396
  55   2.0000      -0.445755       -12.1296
  56   2.0000      -0.437217       -11.8973
  57   2.0000      -0.436320       -11.8729
  58   2.0000      -0.431760       -11.7488
  59   2.0000      -0.422765       -11.5040
  60   2.0000      -0.418938       -11.3999
  61   2.0000      -0.415412       -11.3039
  62   2.0000      -0.414784       -11.2868
  63   2.0000      -0.340010        -9.2521
  64   2.0000      -0.331097        -9.0096
  65   2.0000      -0.314771        -8.5653
  66   2.0000      -0.310016        -8.4360
  67   0.0000       0.041259         1.1227
  68   0.0000       0.044268         1.2046
  69   0.0000       0.114105         3.1050
  70   0.0000       0.125087         3.4038
  71   0.0000       0.136935         3.7262

MULLIKEN ATOMIC CHARGES
-----------------------
   0 S :    0.095771
   1 C :   -0.131224
   2 C :   -0.108988
   3 C :    0.080219
   4 C :   -0.187941
   5 H :   -0.001692
   6 C :    0.110146
   7 H :    0.015434
   8 H :    0.025322
   9 C :   -0.098181
  10 H :    0.028166
  11 H :    0.010165
  12 C :   -0.024931
  13 H :    0.034848
  14 H :    0.022070
  15 H :    0.027871
  16 S :    0.135104
  17 C :   -0.094592
  18 C :   -0.075243
  19 C :   -0.016426
  20 C :   -0.191737
  21 H :    0.016379
  22 C :    0.104653
  23 H :    0.000395
  24 H :    0.050561
  25 C :   -0.094100
  26 H :    0.052740
  27 H :    0.045987
  28 C :   -0.026497
  29 H :    0.036813
  30 H :    0.018422
  31 H :    0.026267
  32 H :    0.063885
  33 H :    0.050335
Sum of atomic charges:    0.0000000

LOEWDIN ATOMIC CHARGES
----------------------
   0 S :    0.384727
   1 C :   -0.201993
   2 C :   -0.071818
   3 C :   -0.057213
   4 C :   -0.176098
   5 H :    0.026246
   6 C :   -0.025571
   7 H :    0.027994
   8 H :    0.033444
   9 C :   -0.040099
  10 H :    0.029310
  11 H :    0.013430
  12 C :   -0.064714
  13 H :    0.027607
  14 H :    0.016566
  15 H :    0.030796
  16 S :    0.422767
  17 C :   -0.188802
  18 C :   -0.076999
  19 C :   -0.066493
  20 C :   -0.204717
  21 H :    0.029833
  22 C :   -0.029160
  23 H :    0.020822
  24 H :    0.045935
  25 C :   -0.041043
  26 H :    0.031887
  27 H :    0.028757
  28 C :   -0.057454
  29 H :    0.023936
  30 H :    0.011612
  31 H :    0.031123
  32 H :    0.038552
  33 H :    0.026829

  Mayer bond orders larger than 0.100000
B(  0-S ,  1-C ) :   1.1372 B(  0-S ,  4-C ) :   1.1520 B(  1-C ,  2-C ) :   1.6020
B(  1-C ,  4-C ) :   0.1017 B(  1-C , 32-H ) :   0.9604 B(  2-C ,  3-C ) :   1.2569
B(  2-C ,  6-C ) :   1.0296 B(  3-C ,  4-C ) :   1.5901 B(  3-C ,  5-H ) :   0.9950
B(  4-C , 20-C ) :   0.9923 B(  6-C ,  7-H ) :   0.9430 B(  6-C ,  8-H ) :   0.9229
B(  6-C ,  9-C ) :   1.0796 B(  9-C , 10-H ) :   0.9525 B(  9-C , 11-H ) :   0.9542
B(  9-C , 12-C ) :   1.0853 B( 12-C , 13-H ) :   0.9736 B( 12-C , 14-H ) :   0.9732
B( 12-C , 15-H ) :   0.9687 B( 16-S , 17-C ) :   1.1854 B( 16-S , 20-C ) :   1.1673
B( 17-C , 18-C ) :   1.5411 B( 17-C , 20-C ) :   0.1216 B( 17-C , 33-H ) :   0.9724
B( 18-C , 19-C ) :   1.3242 B( 18-C , 21-H ) :   0.9830 B( 19-C , 20-C ) :   1.5522
B( 19-C , 22-C ) :   1.0174 B( 22-C , 23-H ) :   0.9371 B( 22-C , 24-H ) :   0.9276
B( 22-C , 25-C ) :   1.0391 B( 25-C , 26-H ) :   0.9514 B( 25-C , 27-H ) :   0.9607
B( 25-C , 28-C ) :   1.0877 B( 28-C , 29-H ) :   0.9768 B( 28-C , 30-H ) :   0.9747
B( 28-C , 31-H ) :   0.9724

Dispersion correction           -0.014978241
FINAL SINGLE POINT ENERGY     -1339.861449200153

DIPOLE MOMENT
-------------
                                X             Y             Z
Electronic contribution:     10.88168     -21.29412       2.42971
Nuclear contribution   :    -11.38101      21.89294      -2.24726
                        -----------------------------------------
Total Dipole Moment    :     -0.49933       0.59882       0.18245
                        -----------------------------------------
Magnitude (a.u.)       :      0.80076
Magnitude (Debye)      :      2.03536

Rotational constants in cm-1:     0.018325     0.008609     0.007073
Rotational constants in MHz :   549.373837   258.076472   212.038689

                             ****ORCA TERMINATED NORMALLY****
TOTAL RUN TIME: 0 days 0 hours 0 minutes 30 seconds 596 msec
