                         Program Version 4.2.1 -  RELEASE  -
|  1> ! wB97X-D3 SP def2-SVP
|  2> %pal
|  3> nprocs 16
|  4> end
|  5>
|  6> * xyz 0 1
|  7> S 	 -25.327 	 45.2956 	 59.1343
|  8> C 	 -26.2417 	 45.4568 	 60.5751
|  9> C 	 -26.2638 	 46.7261 	 61.0952
| 10> C 	 -25.4176 	 47.5634 	 60.3553
| 11> C 	 -24.7649 	 46.8987 	 59.3048
| 12> H 	 -25.1624 	 48.6042 	 60.589
| 13> C 	 -27.0097 	 47.018 	 62.4032
| 14> H 	 -26.4579 	 47.6163 	 63.0926
| 15> H 	 -27.4793 	 46.0771 	 62.898
| 16> C 	 -28.2063 	 47.8966 	 62.1743
| 17> H 	 -28.6403 	 47.9786 	 63.195
| 18> H 	 -27.9615 	 48.802 	 61.651
| 19> C 	 -29.2488 	 47.0155 	 61.3776
| 20> H 	 -30.1512 	 47.6276 	 61.2668
| 21> H 	 -28.9278 	 46.6913 	 60.4552
| 22> H 	 -29.4502 	 46.0739 	 61.8974
| 23> S 	 -22.1233 	 47.4043 	 59.0682
| 24> C 	 -21.5496 	 48.3133 	 57.7146
| 25> C 	 -22.4775 	 48.463 	 56.7389
| 26> C 	 -23.7422 	 47.884 	 57.1373
| 27> C 	 -23.6952 	 47.3765 	 58.4113
| 28> H 	 -22.2456 	 48.9228 	 55.8056
| 29> C 	 -24.9408 	 47.9524 	 56.2279
| 30> H 	 -24.8162 	 48.8795 	 55.6546
| 31> H 	 -25.8648 	 48.0334 	 56.7984
| 32> C 	 -25.0243 	 46.6785 	 55.3489
| 33> H 	 -26.0741 	 46.4572 	 55.0857
| 34> H 	 -24.8779 	 45.8279 	 56.0045
| 35> C 	 -24.0022 	 46.5299 	 54.2577
| 36> H 	 -24.1712 	 45.5738 	 53.8407
| 37> H 	 -22.9127 	 46.572 	 54.5276
| 38> H 	 -24.1736 	 47.2684 	 53.4755
| 39> H 	 -26.7577 	 44.6334 	 61.0441
| 40> H 	 -20.5246 	 48.6387 	 57.6046
| 41> *
| 42>
| 43>                          ****END OF INPUT****

CARTESIAN COORDINATES (ANGSTROEM)
---------------------------------
  S    -25.327000   45.295600   59.134300
  C    -26.241700   45.456800   60.575100
  C    -26.263800   46.726100   61.095200
  C    -25.417600   47.563400   60.355300
  C    -24.764900   46.898700   59.304800
  H    -25.162400   48.604200   60.589000
  C    -27.009700   47.018000   62.403200
  H    -26.457900   47.616300   63.092600
  H    -27.479300   46.077100   62.898000
  C    -28.206300   47.896600   62.174300
  H    -28.640300   47.978600   63.195000
  H    -27.961500   48.802000   61.651000
  C    -29.248800   47.015500   61.377600
  H    -30.151200   47.627600   61.266800
  H    -28.927800   46.691300   60.455200
  H    -29.450200   46.073900   61.897400
  S    -22.123300   47.404300   59.068200
  C    -21.549600   48.313300   57.714600
  C    -22.477500   48.463000   56.738900
  C    -23.742200   47.884000   57.137300
  C    -23.695200   47.376500   58.411300
  H    -22.245600   48.922800   55.805600
  C    -24.940800   47.952400   56.227900
  H    -24.816200   48.879500   55.654600
  H    -25.864800   48.033400   56.798400
  C    -25.024300   46.678500   55.348900
  H    -26.074100   46.457200   55.085700
  H    -24.877900   45.827900   56.004500
  C    -24.002200   46.529900   54.257700
  H    -24.171200   45.573800   53.840700
  H    -22.912700   46.572000   54.527600
  H    -24.173600   47.268400   53.475500
  H    -26.757700   44.633400   61.044100
  H    -20.524600   48.638700   57.604600

 Total Charge           Charge          ....    0
 Multiplicity           Mult            ....    1
 Number of Electrons    NEL             ....  134
 Basis Dimension        Dim             ....  322

ORBITAL ENERGIES
----------------

  NO   OCC          E(Eh)            E(eV)
   0   2.0000     -88.967167     -2420.9197
   1   2.0000     -88.961753     -2420.7724
   2   2.0000     -10.325650      -280.9752
   3   2.0000     -10.316604      -280.7291
   4   2.0000     -10.310075      -280.5514
   5   2.0000     -10.306069      -280.4424
   6   2.0000     -10.297931      -280.2210
   7   2.0000     -10.297684      -280.2142
   8   2.0000     -10.297081      -280.1978
   9   2.0000     -10.294602      -280.1304
  10   2.0000     -10.288404      -279.9617
  11   2.0000     -10.287626      -279.9405
  12   2.0000     -10.285626      -279.8861
  13   2.0000     -10.282439      -279.7994
  14   2.0000     -10.273477      -279.5555
  15   2.0000     -10.268032      -279.4074
  16   2.0000      -8.083082      -219.9518
  17   2.0000      -8.077961      -219.8125
  18   2.0000      -6.041192      -164.3892
  19   2.0000      -6.037423      -164.2866
  20   2.0000      -6.036381      -164.2583
  21   2.0000      -6.034217      -164.1994
  22   2.0000      -6.032293      -164.1470
  23   2.0000      -6.028696      -164.0492
  24   2.0000      -1.014828       -27.6149
  25   2.0000      -0.993479       -27.0339
  26   2.0000      -0.918444       -24.9921
  27   2.0000      -0.908901       -24.7324
  28   2.0000      -0.868373       -23.6296
  29   2.0000      -0.849787       -23.1239
  30   2.0000      -0.847435       -23.0599
  31   2.0000      -0.812627       -22.1127
  32   2.0000      -0.784810       -21.3558
  33   2.0000      -0.774183       -21.0666
  34   2.0000      -0.708054       -19.2671
  35   2.0000      -0.693286       -18.8653
  36   2.0000      -0.682393       -18.5688
  37   2.0000      -0.663933       -18.0665
  38   2.0000      -0.642897       -17.4941
  39   2.0000      -0.621992       -16.9253
  40   2.0000      -0.595013       -16.1911
  41   2.0000      -0.575273       -15.6540
  42   2.0000      -0.556754       -15.1501
  43   2.0000      -0.550392       -14.9769
  44   2.0000      -0.541323       -14.7301
  45   2.0000      -0.539176       -14.6717
  46   2.0000      -0.522500       -14.2179
  47   2.0000      -0.509921       -13.8757
  48   2.0000      -0.500160       -13.6100
  49   2.0000      -0.488057       -13.2807
  50   2.0000      -0.485495       -13.2110
  51   2.0000      -0.482520       -13.1300
  52   2.0000      -0.472741       -12.8639
  53   2.0000      -0.467127       -12.7112
  54   2.0000      -0.463905       -12.6235
  55   2.0000      -0.448857       -12.2140
  56   2.0000      -0.440950       -11.9989
  57   2.0000      -0.440325       -11.9819
  58   2.0000      -0.433924       -11.8077
  59   2.0000      -0.429888       -11.6978
  60   2.0000      -0.420173       -11.4335
  61   2.0000      -0.411983       -11.2106
  62   2.0000      -0.402976       -10.9655
  63   2.0000      -0.338681        -9.2160
  64   2.0000      -0.330358        -8.9895
  65   2.0000      -0.321647        -8.7525
  66   2.0000      -0.307060        -8.3555
  67   0.0000       0.049051         1.3347
  68   0.0000       0.061602         1.6763
  69   0.0000       0.116400         3.1674
  70   0.0000       0.124399         3.3851
  71   0.0000       0.126994         3.4557

MULLIKEN ATOMIC CHARGES
-----------------------
   0 S :    0.135132
   1 C :   -0.127661
   2 C :   -0.057263
   3 C :    0.043371
   4 C :   -0.202787
   5 H :    0.015507
   6 C :    0.056757
   7 H :    0.023024
   8 H :    0.036750
   9 C :   -0.086976
  10 H :    0.037997
  11 H :    0.039300
  12 C :   -0.040761
  13 H :    0.034780
  14 H :    0.021121
  15 H :    0.013174
  16 S :    0.128856
  17 C :   -0.089429
  18 C :   -0.025720
  19 C :   -0.034755
  20 C :   -0.191651
  21 H :    0.008789
  22 C :    0.096127
  23 H :    0.022934
  24 H :    0.026522
  25 C :   -0.064253
  26 H :    0.025440
  27 H :    0.005821
  28 C :   -0.034452
  29 H :    0.023610
  30 H :    0.048363
  31 H :    0.024530
  32 H :    0.037926
  33 H :    0.049877
Sum of atomic charges:    0.0000000

LOEWDIN ATOMIC CHARGES
----------------------
   0 S :    0.446783
   1 C :   -0.206410
   2 C :   -0.066761
   3 C :   -0.060378
   4 C :   -0.213136
   5 H :    0.034977
   6 C :   -0.030468
   7 H :    0.024056
   8 H :    0.040224
   9 C :   -0.034675
  10 H :    0.030647
  11 H :    0.020782
  12 C :   -0.061454
  13 H :    0.025127
  14 H :    0.010167
  15 H :    0.022227
  16 S :    0.433552
  17 C :   -0.188003
  18 C :   -0.071039
  19 C :   -0.051472
  20 C :   -0.228508
  21 H :    0.027951
  22 C :   -0.030210
  23 H :    0.029217
  24 H :    0.032324
  25 C :   -0.044986
  26 H :    0.028088
  27 H :    0.019076
  28 C :   -0.066938
  29 H :    0.024247
  30 H :    0.034189
  31 H :    0.021547
  32 H :    0.022156
  33 H :    0.027099

  Mayer bond orders larger than 0.100000
B(  0-S ,  1-C ) :   1.1629 B(  0-S ,  4-C ) :   1.1952 B(  1-C ,  2-C ) :   1.5873
B(  1-C ,  4-C ) :   0.1006 B(  1-C , 32-H ) :   0.9677 B(  2-C ,  3-C ) :   1.2616
B(  2-C ,  6-C ) :   1.0149 B(  3-C ,  4-C ) :   1.5645 B(  3-C ,  5-H ) :   0.9971
B(  4-C , 20-C ) :   0.9778 B(  6-C ,  7-H ) :   0.9428 B(  6-C ,  8-H ) :   0.9499
B(  6-C ,  9-C ) :   1.0648 B(  9-C , 10-H ) :   0.9586 B(  9-C , 11-H ) :   0.9582
B(  9-C , 12-C ) :   1.0691 B( 12-C , 13-H ) :   0.9763 B( 12-C , 14-H ) :   0.9771
B( 12-C , 15-H ) :   0.9725 B( 16-S , 17-C ) :   1.1602 B( 16-S , 20-C ) :   1.1581
B( 17-C , 18-C ) :   1.6187 B( 17-C , 33-H ) :   0.9658 B( 18-C , 19-C ) :   1.2266
B( 18-C , 21-H ) :   0.9954 B( 19-C , 20-C ) :   1.6257 B( 19-C , 22-C ) :   1.0457
B( 22-C , 23-H ) :   0.9414 B( 22-C , 24-H ) :   0.9255 B( 22-C , 25-C ) :   1.0675
B( 25-C , 26-H ) :   0.9544 B( 25-C , 27-H ) :   0.9473 B( 25-C , 28-C ) :   1.0802
B( 28-C , 29-H ) :   0.9683 B( 28-C , 30-H ) :   0.9691 B( 28-C , 31-H ) :   0.9753

Dispersion correction           -0.015140370
FINAL SINGLE POINT ENERGY     -1339.876779513466

DIPOLE MOMENT
-------------
                                X             Y             Z
Electronic contribution:     17.74718      -3.32828       4.25799
Nuclear contribution   :    -17.97293       3.51731      -4.31114
                        -----------------------------------------
Total Dipole Moment    :     -0.22575       0.18903      -0.05316
                        -----------------------------------------
Magnitude (a.u.)       :      0.29920
Magnitude (Debye)      :      0.76050

Rotational constants in cm-1:     0.023481     0.007961     0.006960
Rotational constants in MHz :   703.929325   238.655882   208.654407

                             ****ORCA TERMINATED NORMALLY****
TOTAL RUN TIME: 0 days 0 hours 0 minutes 36 seconds 633 msec
