                         Program Version 4.2.1 -  RELEASE  -
|  1> ! wB97X-D3 SP def2-SVP
|  2> %pal
|  3> nprocs 16
|  4> end
|  5>
|  6> * xyz 0 1
|  7> S 	 42.3001 	 13.9339 	 84.6633
|  8> C 	 41.8506 	 12.9179 	 83.2969
|  9> C 	 40.82 	 12.0612 	 83.6144
| 10> C 	 40.4069 	 12.189 	 85.0057
| 11> C 	 41.1695 	 13.1008 	 85.784
| 12> H 	 39.6591 	 11.4747 	 85.4742
| 13> C 	 40.1871 	 11.1388 	 82.5909
| 14> H 	 39.7587 	 11.7653 	 81.8156
| 15> H 	 39.3526 	 10.5229 	 83.024
| 16> C 	 41.1613 	 10.2371 	 81.8506
| 17> H 	 42.0587 	 10.6877 	 81.4309
| 18> H 	 41.4841 	 9.36519 	 82.4303
| 19> C 	 40.3337 	 9.73971 	 80.6467
| 20> H 	 40.942 	 9.09134 	 79.9865
| 21> H 	 39.6157 	 9.03836 	 80.9819
| 22> H 	 39.9231 	 10.4984 	 80.0269
| 23> S 	 42.7208 	 13.7728 	 88.0014
| 24> C 	 42.1233 	 13.5053 	 89.6599
| 25> C 	 40.7835 	 13.1676 	 89.5716
| 26> C 	 40.2118 	 12.9212 	 88.2549
| 27> C 	 41.1828 	 13.1009 	 87.2947
| 28> H 	 40.2101 	 13.0723 	 90.4622
| 29> C 	 38.7765 	 12.5465 	 88.0686
| 30> H 	 38.3024 	 12.4103 	 89.0664
| 31> H 	 38.7923 	 11.5887 	 87.5595
| 32> C 	 37.862 	 13.4995 	 87.2899
| 33> H 	 38.3157 	 13.8919 	 86.4073
| 34> H 	 37.7973 	 14.408 	 87.8111
| 35> C 	 36.4591 	 13.0259 	 86.9669
| 36> H 	 35.8702 	 13.8154 	 86.4863
| 37> H 	 35.8612 	 12.8488 	 87.9159
| 38> H 	 36.4007 	 12.1625 	 86.2437
| 39> H 	 42.3288 	 12.9715 	 82.3111
| 40> H 	 42.7578 	 13.5597 	 90.5529
| 41> *
| 42>
| 43>                          ****END OF INPUT****

CARTESIAN COORDINATES (ANGSTROEM)
---------------------------------
  S     42.300100   13.933900   84.663300
  C     41.850600   12.917900   83.296900
  C     40.820000   12.061200   83.614400
  C     40.406900   12.189000   85.005700
  C     41.169500   13.100800   85.784000
  H     39.659100   11.474700   85.474200
  C     40.187100   11.138800   82.590900
  H     39.758700   11.765300   81.815600
  H     39.352600   10.522900   83.024000
  C     41.161300   10.237100   81.850600
  H     42.058700   10.687700   81.430900
  H     41.484100    9.365190   82.430300
  C     40.333700    9.739710   80.646700
  H     40.942000    9.091340   79.986500
  H     39.615700    9.038360   80.981900
  H     39.923100   10.498400   80.026900
  S     42.720800   13.772800   88.001400
  C     42.123300   13.505300   89.659900
  C     40.783500   13.167600   89.571600
  C     40.211800   12.921200   88.254900
  C     41.182800   13.100900   87.294700
  H     40.210100   13.072300   90.462200
  C     38.776500   12.546500   88.068600
  H     38.302400   12.410300   89.066400
  H     38.792300   11.588700   87.559500
  C     37.862000   13.499500   87.289900
  H     38.315700   13.891900   86.407300
  H     37.797300   14.408000   87.811100
  C     36.459100   13.025900   86.966900
  H     35.870200   13.815400   86.486300
  H     35.861200   12.848800   87.915900
  H     36.400700   12.162500   86.243700
  H     42.328800   12.971500   82.311100
  H     42.757800   13.559700   90.552900

 Total Charge           Charge          ....    0
 Multiplicity           Mult            ....    1
 Number of Electrons    NEL             ....  134
 Basis Dimension        Dim             ....  322

ORBITAL ENERGIES
----------------

  NO   OCC          E(Eh)            E(eV)
   0   2.0000     -88.969772     -2420.9906
   1   2.0000     -88.962353     -2420.7887
   2   2.0000     -10.343019      -281.4479
   3   2.0000     -10.340551      -281.3807
   4   2.0000     -10.324160      -280.9347
   5   2.0000     -10.316566      -280.7280
   6   2.0000     -10.309002      -280.5222
   7   2.0000     -10.305664      -280.4314
   8   2.0000     -10.303361      -280.3687
   9   2.0000     -10.297254      -280.2025
  10   2.0000     -10.296928      -280.1937
  11   2.0000     -10.296601      -280.1848
  12   2.0000     -10.288640      -279.9681
  13   2.0000     -10.287169      -279.9281
  14   2.0000     -10.276993      -279.6512
  15   2.0000     -10.273480      -279.5556
  16   2.0000      -8.083066      -219.9514
  17   2.0000      -8.075848      -219.7550
  18   2.0000      -6.041937      -164.4095
  19   2.0000      -6.037656      -164.2930
  20   2.0000      -6.034657      -164.2114
  21   2.0000      -6.033639      -164.1837
  22   2.0000      -6.030633      -164.1019
  23   2.0000      -6.026255      -163.9827
  24   2.0000      -0.994393       -27.0588
  25   2.0000      -0.975603       -26.5475
  26   2.0000      -0.916497       -24.9392
  27   2.0000      -0.910517       -24.7764
  28   2.0000      -0.863658       -23.5013
  29   2.0000      -0.852573       -23.1997
  30   2.0000      -0.841381       -22.8951
  31   2.0000      -0.809726       -22.0338
  32   2.0000      -0.780445       -21.2370
  33   2.0000      -0.769545       -20.9404
  34   2.0000      -0.709431       -19.3046
  35   2.0000      -0.705588       -19.2000
  36   2.0000      -0.690383       -18.7863
  37   2.0000      -0.665799       -18.1173
  38   2.0000      -0.633170       -17.2294
  39   2.0000      -0.614778       -16.7290
  40   2.0000      -0.595964       -16.2170
  41   2.0000      -0.578089       -15.7306
  42   2.0000      -0.566479       -15.4147
  43   2.0000      -0.561143       -15.2695
  44   2.0000      -0.525039       -14.2870
  45   2.0000      -0.520914       -14.1748
  46   2.0000      -0.515355       -14.0235
  47   2.0000      -0.513999       -13.9866
  48   2.0000      -0.506251       -13.7758
  49   2.0000      -0.499177       -13.5833
  50   2.0000      -0.486582       -13.2406
  51   2.0000      -0.480841       -13.0844
  52   2.0000      -0.469659       -12.7801
  53   2.0000      -0.460795       -12.5389
  54   2.0000      -0.457901       -12.4601
  55   2.0000      -0.449995       -12.2450
  56   2.0000      -0.444076       -12.0839
  57   2.0000      -0.437286       -11.8991
  58   2.0000      -0.430034       -11.7018
  59   2.0000      -0.429374       -11.6839
  60   2.0000      -0.418200       -11.3798
  61   2.0000      -0.416010       -11.3202
  62   2.0000      -0.411500       -11.1975
  63   2.0000      -0.357414        -9.7257
  64   2.0000      -0.330183        -8.9847
  65   2.0000      -0.325874        -8.8675
  66   2.0000      -0.284178        -7.7329
  67   0.0000       0.016530         0.4498
  68   0.0000       0.072923         1.9843
  69   0.0000       0.097616         2.6563
  70   0.0000       0.121422         3.3041
  71   0.0000       0.132585         3.6078

MULLIKEN ATOMIC CHARGES
-----------------------
   0 S :    0.104483
   1 C :   -0.142808
   2 C :   -0.058944
   3 C :   -0.010844
   4 C :   -0.112413
   5 H :    0.031291
   6 C :    0.047455
   7 H :    0.034728
   8 H :    0.032544
   9 C :   -0.082459
  10 H :    0.033704
  11 H :    0.038015
  12 C :   -0.047849
  13 H :    0.019919
  14 H :    0.020121
  15 H :    0.031104
  16 S :    0.067772
  17 C :   -0.097202
  18 C :   -0.018056
  19 C :   -0.043068
  20 C :   -0.141167
  21 H :    0.006468
  22 C :    0.069244
  23 H :    0.022042
  24 H :    0.033020
  25 C :   -0.033772
  26 H :    0.021935
  27 H :    0.006552
  28 C :   -0.075149
  29 H :    0.033545
  30 H :    0.035967
  31 H :    0.040200
  32 H :    0.059309
  33 H :    0.074313
Sum of atomic charges:   -0.0000000

LOEWDIN ATOMIC CHARGES
----------------------
   0 S :    0.384260
   1 C :   -0.196053
   2 C :   -0.067289
   3 C :   -0.073547
   4 C :   -0.185437
   5 H :    0.037258
   6 C :   -0.033735
   7 H :    0.034331
   8 H :    0.036778
   9 C :   -0.035575
  10 H :    0.022460
  11 H :    0.028603
  12 C :   -0.062286
  13 H :    0.025255
  14 H :    0.019766
  15 H :    0.019002
  16 S :    0.353896
  17 C :   -0.175422
  18 C :   -0.064293
  19 C :   -0.059188
  20 C :   -0.155875
  21 H :    0.023163
  22 C :   -0.030275
  23 H :    0.035784
  24 H :    0.030943
  25 C :   -0.045830
  26 H :    0.024049
  27 H :    0.021546
  28 C :   -0.072268
  29 H :    0.030056
  30 H :    0.029922
  31 H :    0.028229
  32 H :    0.033416
  33 H :    0.038353

  Mayer bond orders larger than 0.100000
B(  0-S ,  1-C ) :   1.1273 B(  0-S ,  4-C ) :   1.1398 B(  1-C ,  2-C ) :   1.6085
B(  1-C , 32-H ) :   0.9656 B(  2-C ,  3-C ) :   1.2685 B(  2-C ,  6-C ) :   1.0083
B(  3-C ,  4-C ) :   1.5453 B(  3-C ,  5-H ) :   0.9737 B(  4-C , 20-C ) :   1.0630
B(  6-C ,  7-H ) :   0.9457 B(  6-C ,  8-H ) :   0.9461 B(  6-C ,  9-C ) :   1.0620
B(  9-C , 10-H ) :   0.9596 B(  9-C , 11-H ) :   0.9540 B(  9-C , 12-C ) :   1.0813
B( 12-C , 13-H ) :   0.9707 B( 12-C , 14-H ) :   0.9733 B( 12-C , 15-H ) :   0.9775
B( 16-S , 17-C ) :   1.1282 B( 16-S , 20-C ) :   1.1174 B( 17-C , 18-C ) :   1.6226
B( 17-C , 33-H ) :   0.9690 B( 18-C , 19-C ) :   1.2274 B( 18-C , 21-H ) :   0.9888
B( 19-C , 20-C ) :   1.6070 B( 19-C , 22-C ) :   1.0415 B( 22-C , 23-H ) :   0.9289
B( 22-C , 24-H ) :   0.9313 B( 22-C , 25-C ) :   1.0591 B( 25-C , 26-H ) :   0.9498
B( 25-C , 27-H ) :   0.9428 B( 25-C , 28-C ) :   1.0951 B( 28-C , 29-H ) :   0.9701
B( 28-C , 30-H ) :   0.9725 B( 28-C , 31-H ) :   0.9738

Dispersion correction           -0.013645644
FINAL SINGLE POINT ENERGY     -1339.868761434482

DIPOLE MOMENT
-------------
                                X             Y             Z
Electronic contribution:     22.28935      14.28929      13.67507
Nuclear contribution   :    -22.84978     -14.71263     -13.81781
                        -----------------------------------------
Total Dipole Moment    :     -0.56044      -0.42334      -0.14274
                        -----------------------------------------
Magnitude (a.u.)       :      0.71671
Magnitude (Debye)      :      1.82174

Rotational constants in cm-1:     0.018650     0.008007     0.006191
Rotational constants in MHz :   559.100902   240.033398   185.605145

                             ****ORCA TERMINATED NORMALLY****
TOTAL RUN TIME: 0 days 0 hours 0 minutes 29 seconds 306 msec
