                         Program Version 4.2.1 -  RELEASE  -
|  1> ! wB97X-D3 SP def2-SVP
|  2> %pal
|  3> nprocs 16
|  4> end
|  5>
|  6> * xyz 0 1
|  7> S 	 5.6327 	 19.0045 	 52.4407
|  8> C 	 5.5804 	 18.0078 	 53.8343
|  9> C 	 4.57487 	 17.0925 	 53.6491
| 10> C 	 3.88396 	 17.1856 	 52.4517
| 11> C 	 4.408 	 18.0727 	 51.5996
| 12> H 	 3.0158 	 16.6376 	 52.1177
| 13> C 	 4.0653 	 16.1226 	 54.6713
| 14> H 	 2.97713 	 16.3617 	 54.8592
| 15> H 	 4.70979 	 16.4003 	 55.5511
| 16> C 	 4.19801 	 14.6519 	 54.1838
| 17> H 	 3.58744 	 14.5213 	 53.2191
| 18> H 	 5.19898 	 14.422 	 53.8827
| 19> C 	 3.77822 	 13.73 	 55.3262
| 20> H 	 3.79977 	 12.676 	 55.0082
| 21> H 	 4.51657 	 13.8798 	 56.1014
| 22> H 	 2.76942 	 13.8164 	 55.7342
| 23> S 	 5.12916 	 17.8464 	 49.0034
| 24> C 	 4.05882 	 18.411 	 47.8137
| 25> C 	 2.80545 	 18.7399 	 48.2535
| 26> C 	 2.71302 	 18.6145 	 49.6939
| 27> C 	 3.99662 	 18.3641 	 50.2213
| 28> H 	 1.98556 	 18.9814 	 47.5882
| 29> C 	 1.45769 	 18.7244 	 50.4497
| 30> H 	 1.491 	 18.0312 	 51.3626
| 31> H 	 0.702302 	 18.4367 	 49.7306
| 32> C 	 0.973116 	 20.1564 	 50.891
| 33> H 	 -1.88458e-05 	 20.1277 	 51.3633
| 34> H 	 0.688636 	 20.7307 	 49.9696
| 35> C 	 2.08081 	 20.9908 	 51.6611
| 36> H 	 2.90122 	 21.4665 	 51.1644
| 37> H 	 2.50684 	 20.3578 	 52.4634
| 38> H 	 1.52106 	 21.7977 	 52.0871
| 39> H 	 6.24984 	 18.1237 	 54.7221
| 40> H 	 4.32939 	 18.1757 	 46.8052
| 41> *
| 42>
| 43>                          ****END OF INPUT****

CARTESIAN COORDINATES (ANGSTROEM)
---------------------------------
  S      5.632700   19.004500   52.440700
  C      5.580400   18.007800   53.834300
  C      4.574870   17.092500   53.649100
  C      3.883960   17.185600   52.451700
  C      4.408000   18.072700   51.599600
  H      3.015800   16.637600   52.117700
  C      4.065300   16.122600   54.671300
  H      2.977130   16.361700   54.859200
  H      4.709790   16.400300   55.551100
  C      4.198010   14.651900   54.183800
  H      3.587440   14.521300   53.219100
  H      5.198980   14.422000   53.882700
  C      3.778220   13.730000   55.326200
  H      3.799770   12.676000   55.008200
  H      4.516570   13.879800   56.101400
  H      2.769420   13.816400   55.734200
  S      5.129160   17.846400   49.003400
  C      4.058820   18.411000   47.813700
  C      2.805450   18.739900   48.253500
  C      2.713020   18.614500   49.693900
  C      3.996620   18.364100   50.221300
  H      1.985560   18.981400   47.588200
  C      1.457690   18.724400   50.449700
  H      1.491000   18.031200   51.362600
  H      0.702302   18.436700   49.730600
  C      0.973116   20.156400   50.891000
  H     -0.000019   20.127700   51.363300
  H      0.688636   20.730700   49.969600
  C      2.080810   20.990800   51.661100
  H      2.901220   21.466500   51.164400
  H      2.506840   20.357800   52.463400
  H      1.521060   21.797700   52.087100
  H      6.249840   18.123700   54.722100
  H      4.329390   18.175700   46.805200

 Total Charge           Charge          ....    0
 Multiplicity           Mult            ....    1
 Number of Electrons    NEL             ....  134
 Basis Dimension        Dim             ....  322

ORBITAL ENERGIES
----------------

  NO   OCC          E(Eh)            E(eV)
   0   2.0000     -88.964455     -2420.8459
   1   2.0000     -88.959025     -2420.6981
   2   2.0000     -10.322588      -280.8919
   3   2.0000     -10.319984      -280.8210
   4   2.0000     -10.311811      -280.5986
   5   2.0000     -10.309815      -280.5443
   6   2.0000     -10.306583      -280.4564
   7   2.0000     -10.296724      -280.1881
   8   2.0000     -10.295139      -280.1450
   9   2.0000     -10.294492      -280.1274
  10   2.0000     -10.293883      -280.1108
  11   2.0000     -10.290681      -280.0237
  12   2.0000     -10.288516      -279.9647
  13   2.0000     -10.280123      -279.7364
  14   2.0000     -10.276408      -279.6353
  15   2.0000     -10.271233      -279.4945
  16   2.0000      -8.080680      -219.8865
  17   2.0000      -8.074484      -219.7179
  18   2.0000      -6.038923      -164.3275
  19   2.0000      -6.035172      -164.2254
  20   2.0000      -6.032907      -164.1638
  21   2.0000      -6.031431      -164.1236
  22   2.0000      -6.028817      -164.0525
  23   2.0000      -6.025352      -163.9582
  24   2.0000      -1.014142       -27.5962
  25   2.0000      -0.993309       -27.0293
  26   2.0000      -0.908973       -24.7344
  27   2.0000      -0.905878       -24.6502
  28   2.0000      -0.870463       -23.6865
  29   2.0000      -0.850390       -23.1403
  30   2.0000      -0.845473       -23.0065
  31   2.0000      -0.815217       -22.1832
  32   2.0000      -0.782955       -21.3053
  33   2.0000      -0.763626       -20.7793
  34   2.0000      -0.709750       -19.3133
  35   2.0000      -0.697720       -18.9859
  36   2.0000      -0.688624       -18.7384
  37   2.0000      -0.661362       -17.9966
  38   2.0000      -0.643825       -17.5194
  39   2.0000      -0.620166       -16.8756
  40   2.0000      -0.592368       -16.1191
  41   2.0000      -0.568175       -15.4608
  42   2.0000      -0.557794       -15.1784
  43   2.0000      -0.547945       -14.9103
  44   2.0000      -0.539039       -14.6680
  45   2.0000      -0.521156       -14.1814
  46   2.0000      -0.516141       -14.0449
  47   2.0000      -0.508905       -13.8480
  48   2.0000      -0.504963       -13.7407
  49   2.0000      -0.499325       -13.5873
  50   2.0000      -0.487546       -13.2668
  51   2.0000      -0.478917       -13.0320
  52   2.0000      -0.470792       -12.8109
  53   2.0000      -0.461839       -12.5673
  54   2.0000      -0.459659       -12.5080
  55   2.0000      -0.453794       -12.3484
  56   2.0000      -0.444811       -12.1039
  57   2.0000      -0.436616       -11.8809
  58   2.0000      -0.434759       -11.8304
  59   2.0000      -0.423263       -11.5176
  60   2.0000      -0.420668       -11.4470
  61   2.0000      -0.408787       -11.1237
  62   2.0000      -0.404613       -11.0101
  63   2.0000      -0.343152        -9.3376
  64   2.0000      -0.328112        -8.9284
  65   2.0000      -0.323409        -8.8004
  66   2.0000      -0.297067        -8.0836
  67   0.0000       0.038383         1.0445
  68   0.0000       0.068971         1.8768
  69   0.0000       0.102074         2.7776
  70   0.0000       0.118718         3.2305
  71   0.0000       0.140291         3.8175

MULLIKEN ATOMIC CHARGES
-----------------------
   0 S :    0.104247
   1 C :   -0.145218
   2 C :   -0.074315
   3 C :    0.024022
   4 C :   -0.165161
   5 H :    0.015183
   6 C :    0.037571
   7 H :    0.045231
   8 H :    0.020209
   9 C :   -0.089775
  10 H :    0.039153
  11 H :    0.026150
  12 C :   -0.030075
  13 H :    0.029835
  14 H :    0.029688
  15 H :    0.031209
  16 S :    0.122386
  17 C :   -0.069406
  18 C :   -0.033959
  19 C :   -0.022743
  20 C :   -0.175493
  21 H :    0.019371
  22 C :    0.050423
  23 H :    0.041196
  24 H :    0.020341
  25 C :   -0.084029
  26 H :    0.033096
  27 H :    0.021828
  28 C :   -0.042891
  29 H :    0.042945
  30 H :    0.039475
  31 H :    0.022912
  32 H :    0.067189
  33 H :    0.049405
Sum of atomic charges:   -0.0000000

LOEWDIN ATOMIC CHARGES
----------------------
   0 S :    0.413298
   1 C :   -0.220316
   2 C :   -0.077344
   3 C :   -0.070643
   4 C :   -0.194425
   5 H :    0.031155
   6 C :   -0.034793
   7 H :    0.038339
   8 H :    0.030873
   9 C :   -0.040748
  10 H :    0.029067
  11 H :    0.022537
  12 C :   -0.068920
  13 H :    0.026498
  14 H :    0.025423
  15 H :    0.024871
  16 S :    0.439235
  17 C :   -0.193961
  18 C :   -0.069413
  19 C :   -0.045807
  20 C :   -0.209173
  21 H :    0.032819
  22 C :   -0.042716
  23 H :    0.038255
  24 H :    0.034278
  25 C :   -0.038250
  26 H :    0.024285
  27 H :    0.024743
  28 C :   -0.068975
  29 H :    0.026199
  30 H :    0.027910
  31 H :    0.023832
  32 H :    0.041586
  33 H :    0.020281

  Mayer bond orders larger than 0.100000
B(  0-S ,  1-C ) :   1.1374 B(  0-S ,  4-C ) :   1.1617 B(  1-C ,  2-C ) :   1.5947
B(  1-C , 32-H ) :   0.9661 B(  2-C ,  3-C ) :   1.2402 B(  2-C ,  6-C ) :   1.0229
B(  3-C ,  4-C ) :   1.5955 B(  3-C ,  5-H ) :   0.9944 B(  4-C , 20-C ) :   1.0007
B(  6-C ,  7-H ) :   0.9406 B(  6-C ,  8-H ) :   0.9442 B(  6-C ,  9-C ) :   1.0537
B(  9-C , 10-H ) :   0.9546 B(  9-C , 11-H ) :   0.9549 B(  9-C , 12-C ) :   1.0809
B( 12-C , 13-H ) :   0.9736 B( 12-C , 14-H ) :   0.9740 B( 12-C , 15-H ) :   0.9750
B( 16-S , 17-C ) :   1.1778 B( 16-S , 20-C ) :   1.1721 B( 17-C , 18-C ) :   1.5923
B( 17-C , 33-H ) :   0.9678 B( 18-C , 19-C ) :   1.2374 B( 18-C , 21-H ) :   0.9929
B( 19-C , 20-C ) :   1.5646 B( 19-C , 22-C ) :   1.0642 B( 22-C , 23-H ) :   0.9317
B( 22-C , 24-H ) :   0.9212 B( 22-C , 25-C ) :   1.0770 B( 25-C , 26-H ) :   0.9595
B( 25-C , 27-H ) :   0.9528 B( 25-C , 28-C ) :   1.0594 B( 28-C , 29-H ) :   0.9769
B( 28-C , 30-H ) :   0.9787 B( 28-C , 31-H ) :   0.9741

Dispersion correction           -0.015139272
FINAL SINGLE POINT ENERGY     -1339.868471064727

DIPOLE MOMENT
-------------
                                X             Y             Z
Electronic contribution:     16.03164       6.90618     -14.89966
Nuclear contribution   :    -16.61774      -7.20924      14.97302
                        -----------------------------------------
Total Dipole Moment    :     -0.58610      -0.30306       0.07336
                        -----------------------------------------
Magnitude (a.u.)       :      0.66389
Magnitude (Debye)      :      1.68746

Rotational constants in cm-1:     0.019274     0.008339     0.007829
Rotational constants in MHz :   577.822479   250.004114   234.712857

                             ****ORCA TERMINATED NORMALLY****
TOTAL RUN TIME: 0 days 0 hours 0 minutes 34 seconds 381 msec
