                         Program Version 4.2.1 -  RELEASE  -
|  1> ! wB97X-D3 SP def2-SVP
|  2> %pal
|  3> nprocs 16
|  4> end
|  5>
|  6> * xyz 0 1
|  7> S 	 47.0351 	 18.1796 	 83.9674
|  8> C 	 46.7136 	 19.8424 	 84.4197
|  9> C 	 47.5374 	 20.7128 	 83.7811
| 10> C 	 48.4933 	 20.0768 	 82.9669
| 11> C 	 48.4122 	 18.7138 	 82.9893
| 12> H 	 49.2657 	 20.6619 	 82.4548
| 13> C 	 47.5487 	 22.1956 	 84.0366
| 14> H 	 48.1388 	 22.6693 	 84.8511
| 15> H 	 46.5516 	 22.3908 	 84.415
| 16> C 	 47.9491 	 23.1418 	 82.8589
| 17> H 	 47.3285 	 22.8792 	 81.945
| 18> H 	 47.6666 	 24.2014 	 83.0774
| 19> C 	 49.4447 	 23.2195 	 82.6243
| 20> H 	 50.0124 	 23.163 	 83.5492
| 21> H 	 49.8444 	 22.495 	 81.8994
| 22> H 	 49.6657 	 24.2017 	 82.2512
| 23> S 	 48.8358 	 16.4491 	 81.4033
| 24> C 	 50.2747 	 16.3058 	 80.519
| 25> C 	 51.1996 	 17.2332 	 80.9542
| 26> C 	 50.7569 	 18.1268 	 82.0019
| 27> C 	 49.371 	 17.8796 	 82.2807
| 28> H 	 52.2294 	 17.2222 	 80.5438
| 29> C 	 51.6764 	 19.2067 	 82.4795
| 30> H 	 51.283 	 19.6123 	 83.4488
| 31> H 	 51.5541 	 20.1064 	 81.8722
| 32> C 	 53.1554 	 18.9501 	 82.6727
| 33> H 	 53.5779 	 19.8388 	 83.0979
| 34> H 	 53.6709 	 18.788 	 81.763
| 35> C 	 53.3625 	 17.8337 	 83.7166
| 36> H 	 54.4062 	 17.7675 	 83.8198
| 37> H 	 52.9976 	 16.8804 	 83.3791
| 38> H 	 52.9575 	 18.221 	 84.6213
| 39> H 	 45.9231 	 20.1246 	 85.102
| 40> H 	 50.5386 	 15.8044 	 79.5719
| 41> *
| 42>
| 43>                          ****END OF INPUT****

CARTESIAN COORDINATES (ANGSTROEM)
---------------------------------
  S     47.035100   18.179600   83.967400
  C     46.713600   19.842400   84.419700
  C     47.537400   20.712800   83.781100
  C     48.493300   20.076800   82.966900
  C     48.412200   18.713800   82.989300
  H     49.265700   20.661900   82.454800
  C     47.548700   22.195600   84.036600
  H     48.138800   22.669300   84.851100
  H     46.551600   22.390800   84.415000
  C     47.949100   23.141800   82.858900
  H     47.328500   22.879200   81.945000
  H     47.666600   24.201400   83.077400
  C     49.444700   23.219500   82.624300
  H     50.012400   23.163000   83.549200
  H     49.844400   22.495000   81.899400
  H     49.665700   24.201700   82.251200
  S     48.835800   16.449100   81.403300
  C     50.274700   16.305800   80.519000
  C     51.199600   17.233200   80.954200
  C     50.756900   18.126800   82.001900
  C     49.371000   17.879600   82.280700
  H     52.229400   17.222200   80.543800
  C     51.676400   19.206700   82.479500
  H     51.283000   19.612300   83.448800
  H     51.554100   20.106400   81.872200
  C     53.155400   18.950100   82.672700
  H     53.577900   19.838800   83.097900
  H     53.670900   18.788000   81.763000
  C     53.362500   17.833700   83.716600
  H     54.406200   17.767500   83.819800
  H     52.997600   16.880400   83.379100
  H     52.957500   18.221000   84.621300
  H     45.923100   20.124600   85.102000
  H     50.538600   15.804400   79.571900

 Total Charge           Charge          ....    0
 Multiplicity           Mult            ....    1
 Number of Electrons    NEL             ....  134
 Basis Dimension        Dim             ....  322

ORBITAL ENERGIES
----------------

  NO   OCC          E(Eh)            E(eV)
   0   2.0000     -88.968008     -2420.9426
   1   2.0000     -88.966949     -2420.9138
   2   2.0000     -10.332202      -281.1535
   3   2.0000     -10.330396      -281.1044
   4   2.0000     -10.313903      -280.6556
   5   2.0000     -10.312032      -280.6046
   6   2.0000     -10.308850      -280.5181
   7   2.0000     -10.295849      -280.1643
   8   2.0000     -10.295374      -280.1514
   9   2.0000     -10.292851      -280.0827
  10   2.0000     -10.292695      -280.0785
  11   2.0000     -10.291878      -280.0562
  12   2.0000     -10.288100      -279.9534
  13   2.0000     -10.281061      -279.7619
  14   2.0000     -10.280302      -279.7413
  15   2.0000     -10.266227      -279.3582
  16   2.0000      -8.082382      -219.9328
  17   2.0000      -8.082245      -219.9291
  18   2.0000      -6.040972      -164.3832
  19   2.0000      -6.040796      -164.3784
  20   2.0000      -6.037063      -164.2768
  21   2.0000      -6.036527      -164.2622
  22   2.0000      -6.033072      -164.1682
  23   2.0000      -6.032957      -164.1651
  24   2.0000      -1.007359       -27.4116
  25   2.0000      -0.986961       -26.8566
  26   2.0000      -0.916441       -24.9376
  27   2.0000      -0.910584       -24.7782
  28   2.0000      -0.873252       -23.7624
  29   2.0000      -0.853142       -23.2152
  30   2.0000      -0.844726       -22.9862
  31   2.0000      -0.816029       -22.2053
  32   2.0000      -0.787540       -21.4301
  33   2.0000      -0.774172       -21.0663
  34   2.0000      -0.713177       -19.4065
  35   2.0000      -0.696921       -18.9642
  36   2.0000      -0.692956       -18.8563
  37   2.0000      -0.651186       -17.7197
  38   2.0000      -0.636386       -17.3169
  39   2.0000      -0.629205       -17.1215
  40   2.0000      -0.599391       -16.3103
  41   2.0000      -0.574984       -15.6461
  42   2.0000      -0.557884       -15.1808
  43   2.0000      -0.546930       -14.8827
  44   2.0000      -0.542551       -14.7636
  45   2.0000      -0.538662       -14.6577
  46   2.0000      -0.519960       -14.1488
  47   2.0000      -0.506685       -13.7876
  48   2.0000      -0.503919       -13.7123
  49   2.0000      -0.499987       -13.6053
  50   2.0000      -0.491426       -13.3724
  51   2.0000      -0.488547       -13.2940
  52   2.0000      -0.470019       -12.7899
  53   2.0000      -0.468095       -12.7375
  54   2.0000      -0.462344       -12.5810
  55   2.0000      -0.446540       -12.1510
  56   2.0000      -0.442485       -12.0406
  57   2.0000      -0.432123       -11.7587
  58   2.0000      -0.428012       -11.6468
  59   2.0000      -0.424493       -11.5510
  60   2.0000      -0.420302       -11.4370
  61   2.0000      -0.418408       -11.3855
  62   2.0000      -0.417650       -11.3648
  63   2.0000      -0.355012        -9.6604
  64   2.0000      -0.332364        -9.0441
  65   2.0000      -0.326697        -8.8899
  66   2.0000      -0.282977        -7.7002
  67   0.0000       0.025054         0.6818
  68   0.0000       0.072803         1.9811
  69   0.0000       0.109436         2.9779
  70   0.0000       0.119103         3.2410
  71   0.0000       0.136720         3.7203

MULLIKEN ATOMIC CHARGES
-----------------------
   0 S :    0.112397
   1 C :   -0.137618
   2 C :   -0.025611
   3 C :    0.003213
   4 C :   -0.097152
   5 H :   -0.014630
   6 C :    0.057594
   7 H :    0.038031
   8 H :    0.005977
   9 C :   -0.128845
  10 H :    0.045602
  11 H :    0.034855
  12 C :   -0.043779
  13 H :    0.026900
  14 H :    0.053398
  15 H :    0.022612
  16 S :    0.119391
  17 C :   -0.078855
  18 C :   -0.093760
  19 C :   -0.020743
  20 C :   -0.165709
  21 H :    0.030183
  22 C :    0.009349
  23 H :    0.022983
  24 H :    0.040328
  25 C :   -0.046525
  26 H :    0.016807
  27 H :    0.018777
  28 C :   -0.000970
  29 H :    0.015093
  30 H :    0.042036
  31 H :    0.024099
  32 H :    0.044743
  33 H :    0.069831
Sum of atomic charges:   -0.0000000

LOEWDIN ATOMIC CHARGES
----------------------
   0 S :    0.391174
   1 C :   -0.187505
   2 C :   -0.068021
   3 C :   -0.062446
   4 C :   -0.181929
   5 H :    0.033335
   6 C :   -0.040120
   7 H :    0.035270
   8 H :    0.027561
   9 C :   -0.050419
  10 H :    0.030653
  11 H :    0.031162
  12 C :   -0.070524
  13 H :    0.026121
  14 H :    0.024283
  15 H :    0.026142
  16 S :    0.426864
  17 C :   -0.219715
  18 C :   -0.080652
  19 C :   -0.051941
  20 C :   -0.194523
  21 H :    0.033002
  22 C :   -0.046076
  23 H :    0.034291
  24 H :    0.031415
  25 C :   -0.032440
  26 H :    0.026460
  27 H :    0.013167
  28 C :   -0.047335
  29 H :    0.018929
  30 H :    0.025196
  31 H :    0.024176
  32 H :    0.028323
  33 H :    0.046125

  Mayer bond orders larger than 0.100000
B(  0-S ,  1-C ) :   1.1263 B(  0-S ,  4-C ) :   1.1330 B(  1-C ,  2-C ) :   1.6224
B(  1-C , 32-H ) :   0.9668 B(  2-C ,  3-C ) :   1.2498 B(  2-C ,  6-C ) :   1.0191
B(  3-C ,  4-C ) :   1.5623 B(  3-C ,  5-H ) :   0.9848 B(  4-C , 20-C ) :   1.0746
B(  6-C ,  7-H ) :   0.9405 B(  6-C ,  8-H ) :   0.9315 B(  6-C ,  9-C ) :   1.0713
B(  9-C , 10-H ) :   0.9585 B(  9-C , 11-H ) :   0.9608 B(  9-C , 12-C ) :   1.0639
B( 12-C , 13-H ) :   0.9714 B( 12-C , 14-H ) :   0.9674 B( 12-C , 15-H ) :   0.9688
B( 16-S , 17-C ) :   1.1620 B( 16-S , 20-C ) :   1.1451 B( 17-C , 18-C ) :   1.6094
B( 17-C , 33-H ) :   0.9575 B( 18-C , 19-C ) :   1.2563 B( 18-C , 21-H ) :   0.9785
B( 19-C , 20-C ) :   1.5408 B( 19-C , 22-C ) :   1.0485 B( 22-C , 23-H ) :   0.9260
B( 22-C , 24-H ) :   0.9216 B( 22-C , 25-C ) :   1.0876 B( 25-C , 26-H ) :   0.9471
B( 25-C , 27-H ) :   0.9479 B( 25-C , 28-C ) :   1.0828 B( 28-C , 29-H ) :   0.9735
B( 28-C , 30-H ) :   0.9759 B( 28-C , 31-H ) :   0.9743

Dispersion correction           -0.014727015
FINAL SINGLE POINT ENERGY     -1339.869565762791

DIPOLE MOMENT
-------------
                                X             Y             Z
Electronic contribution:    -18.42908     -22.35541      -2.38858
Nuclear contribution   :     18.95491      23.14207       2.32530
                        -----------------------------------------
Total Dipole Moment    :      0.52582       0.78666      -0.06328
                        -----------------------------------------
Magnitude (a.u.)       :      0.94833
Magnitude (Debye)      :      2.41046

Rotational constants in cm-1:     0.016804     0.009838     0.007330
Rotational constants in MHz :   503.784610   294.932462   219.752442

                             ****ORCA TERMINATED NORMALLY****
TOTAL RUN TIME: 0 days 0 hours 0 minutes 31 seconds 54 msec
