                         Program Version 4.2.1 -  RELEASE  -
|  1> ! wB97X-D3 SP def2-SVP
|  2> %pal
|  3> nprocs 16
|  4> end
|  5>
|  6> * xyz 0 1
|  7> S 	 -100.597 	 40.7756 	 118.892
|  8> C 	 -98.9586 	 40.434 	 118.344
|  9> C 	 -98.0735 	 41.3506 	 118.794
| 10> C 	 -98.6618 	 42.3339 	 119.596
| 11> C 	 -99.9638 	 42.0874 	 119.854
| 12> H 	 -98.1432 	 43.1605 	 120.029
| 13> C 	 -96.562 	 41.2718 	 118.543
| 14> H 	 -96.1047 	 42.2068 	 118.537
| 15> H 	 -96.6158 	 41.0669 	 117.461
| 16> C 	 -95.7556 	 40.1538 	 119.306
| 17> H 	 -95.7165 	 40.4509 	 120.334
| 18> H 	 -96.3805 	 39.2807 	 119.183
| 19> C 	 -94.2906 	 39.8585 	 118.755
| 20> H 	 -93.9556 	 39.0016 	 119.311
| 21> H 	 -94.2499 	 39.6208 	 117.633
| 22> H 	 -93.6745 	 40.7521 	 118.952
| 23> S 	 -101.007 	 44.5356 	 120.509
| 24> C 	 -102.093 	 44.6064 	 121.801
| 25> C 	 -102.073 	 43.5309 	 122.602
| 26> C 	 -101.261 	 42.4631 	 122.068
| 27> C 	 -100.787 	 42.812 	 120.812
| 28> H 	 -102.647 	 43.4571 	 123.53
| 29> C 	 -101.062 	 41.1986 	 122.827
| 30> H 	 -100.798 	 41.4308 	 123.849
| 31> H 	 -100.162 	 40.6654 	 122.478
| 32> C 	 -102.237 	 40.2567 	 122.839
| 33> H 	 -102.324 	 39.8319 	 121.817
| 34> H 	 -103.142 	 40.9121 	 123.007
| 35> C 	 -102.083 	 39.2098 	 123.928
| 36> H 	 -102.284 	 39.5369 	 124.981
| 37> H 	 -101.028 	 38.7491 	 124.04
| 38> H 	 -102.741 	 38.3522 	 123.792
| 39> H 	 -98.7865 	 39.5225 	 117.698
| 40> H 	 -102.871 	 45.3308 	 121.919
| 41> *
| 42>
| 43>                          ****END OF INPUT****

CARTESIAN COORDINATES (ANGSTROEM)
---------------------------------
  S    -100.597000   40.775600  118.892000
  C    -98.958600   40.434000  118.344000
  C    -98.073500   41.350600  118.794000
  C    -98.661800   42.333900  119.596000
  C    -99.963800   42.087400  119.854000
  H    -98.143200   43.160500  120.029000
  C    -96.562000   41.271800  118.543000
  H    -96.104700   42.206800  118.537000
  H    -96.615800   41.066900  117.461000
  C    -95.755600   40.153800  119.306000
  H    -95.716500   40.450900  120.334000
  H    -96.380500   39.280700  119.183000
  C    -94.290600   39.858500  118.755000
  H    -93.955600   39.001600  119.311000
  H    -94.249900   39.620800  117.633000
  H    -93.674500   40.752100  118.952000
  S    -101.007000   44.535600  120.509000
  C    -102.093000   44.606400  121.801000
  C    -102.073000   43.530900  122.602000
  C    -101.261000   42.463100  122.068000
  C    -100.787000   42.812000  120.812000
  H    -102.647000   43.457100  123.530000
  C    -101.062000   41.198600  122.827000
  H    -100.798000   41.430800  123.849000
  H    -100.162000   40.665400  122.478000
  C    -102.237000   40.256700  122.839000
  H    -102.324000   39.831900  121.817000
  H    -103.142000   40.912100  123.007000
  C    -102.083000   39.209800  123.928000
  H    -102.284000   39.536900  124.981000
  H    -101.028000   38.749100  124.040000
  H    -102.741000   38.352200  123.792000
  H    -98.786500   39.522500  117.698000
  H    -102.871000   45.330800  121.919000

 Total Charge           Charge          ....    0
 Multiplicity           Mult            ....    1
 Number of Electrons    NEL             ....  134
 Basis Dimension        Dim             ....  322

ORBITAL ENERGIES
----------------

  NO   OCC          E(Eh)            E(eV)
   0   2.0000     -88.964701     -2420.8526
   1   2.0000     -88.960907     -2420.7494
   2   2.0000     -10.321875      -280.8725
   3   2.0000     -10.321686      -280.8674
   4   2.0000     -10.312819      -280.6261
   5   2.0000     -10.304920      -280.4111
   6   2.0000     -10.300679      -280.2957
   7   2.0000     -10.295239      -280.1477
   8   2.0000     -10.291126      -280.0358
   9   2.0000     -10.289941      -280.0035
  10   2.0000     -10.289233      -279.9843
  11   2.0000     -10.287645      -279.9411
  12   2.0000     -10.286816      -279.9185
  13   2.0000     -10.285918      -279.8940
  14   2.0000     -10.284075      -279.8439
  15   2.0000     -10.283659      -279.8326
  16   2.0000      -8.079464      -219.8534
  17   2.0000      -8.077028      -219.7871
  18   2.0000      -6.037868      -164.2988
  19   2.0000      -6.035415      -164.2320
  20   2.0000      -6.034090      -164.1959
  21   2.0000      -6.031585      -164.1278
  22   2.0000      -6.030220      -164.0906
  23   2.0000      -6.027597      -164.0193
  24   2.0000      -1.012426       -27.5495
  25   2.0000      -0.991769       -26.9874
  26   2.0000      -0.914922       -24.8963
  27   2.0000      -0.902767       -24.5655
  28   2.0000      -0.867644       -23.6098
  29   2.0000      -0.850620       -23.1465
  30   2.0000      -0.847333       -23.0571
  31   2.0000      -0.813758       -22.1435
  32   2.0000      -0.783075       -21.3086
  33   2.0000      -0.768869       -20.9220
  34   2.0000      -0.704227       -19.1630
  35   2.0000      -0.702165       -19.1069
  36   2.0000      -0.691474       -18.8160
  37   2.0000      -0.660876       -17.9834
  38   2.0000      -0.641517       -17.4566
  39   2.0000      -0.616034       -16.7631
  40   2.0000      -0.603343       -16.4178
  41   2.0000      -0.572170       -15.5695
  42   2.0000      -0.559895       -15.2355
  43   2.0000      -0.548872       -14.9356
  44   2.0000      -0.523542       -14.2463
  45   2.0000      -0.520814       -14.1721
  46   2.0000      -0.518660       -14.1135
  47   2.0000      -0.512369       -13.9423
  48   2.0000      -0.504706       -13.7337
  49   2.0000      -0.500544       -13.6205
  50   2.0000      -0.491955       -13.3868
  51   2.0000      -0.477177       -12.9847
  52   2.0000      -0.468503       -12.7486
  53   2.0000      -0.461524       -12.5587
  54   2.0000      -0.456677       -12.4268
  55   2.0000      -0.449991       -12.2449
  56   2.0000      -0.444054       -12.0833
  57   2.0000      -0.436599       -11.8805
  58   2.0000      -0.431467       -11.7408
  59   2.0000      -0.427630       -11.6364
  60   2.0000      -0.426209       -11.5977
  61   2.0000      -0.417006       -11.3473
  62   2.0000      -0.408596       -11.1185
  63   2.0000      -0.340427        -9.2635
  64   2.0000      -0.333341        -9.0707
  65   2.0000      -0.326088        -8.8733
  66   2.0000      -0.295917        -8.0523
  67   0.0000       0.042023         1.1435
  68   0.0000       0.060978         1.6593
  69   0.0000       0.105392         2.8679
  70   0.0000       0.114479         3.1151
  71   0.0000       0.142014         3.8644

MULLIKEN ATOMIC CHARGES
-----------------------
   0 S :    0.112937
   1 C :   -0.181140
   2 C :   -0.059659
   3 C :    0.037437
   4 C :   -0.158319
   5 H :    0.000798
   6 C :    0.074047
   7 H :   -0.000953
   8 H :    0.020633
   9 C :   -0.048467
  10 H :    0.033118
  11 H :    0.024585
  12 C :   -0.074578
  13 H :    0.042779
  14 H :    0.047542
  15 H :    0.043837
  16 S :    0.112375
  17 C :   -0.058804
  18 C :   -0.050295
  19 C :   -0.007847
  20 C :   -0.195030
  21 H :    0.022983
  22 C :    0.061660
  23 H :    0.016181
  24 H :    0.026837
  25 C :   -0.057914
  26 H :    0.034710
  27 H :    0.033639
  28 C :   -0.077502
  29 H :    0.035481
  30 H :    0.036957
  31 H :    0.034801
  32 H :    0.069265
  33 H :    0.047907
Sum of atomic charges:   -0.0000000

LOEWDIN ATOMIC CHARGES
----------------------
   0 S :    0.400100
   1 C :   -0.202284
   2 C :   -0.065984
   3 C :   -0.063207
   4 C :   -0.192949
   5 H :    0.029245
   6 C :   -0.032871
   7 H :    0.015501
   8 H :    0.034967
   9 C :   -0.030016
  10 H :    0.022710
  11 H :    0.021333
  12 C :   -0.068486
  13 H :    0.025591
  14 H :    0.034206
  15 H :    0.027399
  16 S :    0.415339
  17 C :   -0.196815
  18 C :   -0.073305
  19 C :   -0.048205
  20 C :   -0.195052
  21 H :    0.033435
  22 C :   -0.038972
  23 H :    0.029789
  24 H :    0.032347
  25 C :   -0.043595
  26 H :    0.027929
  27 H :    0.029778
  28 C :   -0.080572
  29 H :    0.028847
  30 H :    0.033553
  31 H :    0.025232
  32 H :    0.037346
  33 H :    0.027667

  Mayer bond orders larger than 0.100000
B(  0-S ,  1-C ) :   1.1271 B(  0-S ,  4-C ) :   1.1558 B(  1-C ,  2-C ) :   1.6245
B(  1-C , 32-H ) :   0.9633 B(  2-C ,  3-C ) :   1.2411 B(  2-C ,  6-C ) :   1.0036
B(  3-C ,  4-C ) :   1.5898 B(  3-C ,  5-H ) :   1.0051 B(  4-C , 20-C ) :   1.0100
B(  6-C ,  7-H ) :   0.9426 B(  6-C ,  8-H ) :   0.9390 B(  6-C ,  9-C ) :   1.0479
B(  9-C , 10-H ) :   0.9586 B(  9-C , 11-H ) :   0.9598 B(  9-C , 12-C ) :   1.0720
B( 12-C , 13-H ) :   0.9764 B( 12-C , 14-H ) :   0.9769 B( 12-C , 15-H ) :   0.9777
B( 16-S , 17-C ) :   1.1513 B( 16-S , 20-C ) :   1.1336 B( 17-C , 18-C ) :   1.6430
B( 17-C , 33-H ) :   0.9623 B( 18-C , 19-C ) :   1.2061 B( 18-C , 21-H ) :   0.9873
B( 19-C , 20-C ) :   1.6177 B( 19-C , 22-C ) :   1.0582 B( 22-C , 23-H ) :   0.9340
B( 22-C , 24-H ) :   0.9203 B( 22-C , 25-C ) :   1.0617 B( 25-C , 26-H ) :   0.9490
B( 25-C , 27-H ) :   0.9580 B( 25-C , 28-C ) :   1.0708 B( 28-C , 29-H ) :   0.9734
B( 28-C , 30-H ) :   0.9719 B( 28-C , 31-H ) :   0.9745

Dispersion correction           -0.013993310
FINAL SINGLE POINT ENERGY     -1339.872726848768

DIPOLE MOMENT
-------------
                                X             Y             Z
Electronic contribution:    -14.25448      17.15817      -8.99710
Nuclear contribution   :     14.54266     -17.40428       9.32770
                        -----------------------------------------
Total Dipole Moment    :      0.28817      -0.24611       0.33060
                        -----------------------------------------
Magnitude (a.u.)       :      0.50290
Magnitude (Debye)      :      1.27828

Rotational constants in cm-1:     0.018689     0.007712     0.006488
Rotational constants in MHz :   560.272412   231.187823   194.506357

                             ****ORCA TERMINATED NORMALLY****
TOTAL RUN TIME: 0 days 0 hours 0 minutes 32 seconds 936 msec
