                         Program Version 4.2.1 -  RELEASE  -
|  1> ! wB97X-D3 SP def2-SVP
|  2> %pal
|  3> nprocs 16
|  4> end
|  5>
|  6> * xyz 0 1
|  7> S 	 52.309 	 9.07244 	 80.1366
|  8> C 	 51.0982 	 10.2651 	 79.6055
|  9> C 	 49.8846 	 10.189 	 80.2628
| 10> C 	 50.0748 	 9.49333 	 81.4406
| 11> C 	 51.3459 	 8.91995 	 81.6151
| 12> H 	 49.3479 	 9.21739 	 82.191
| 13> C 	 48.5921 	 11.0338 	 79.9467
| 14> H 	 49.0577 	 12.0327 	 80.0375
| 15> H 	 47.8897 	 10.8065 	 80.8343
| 16> C 	 47.9463 	 10.7617 	 78.6471
| 17> H 	 48.729 	 10.9968 	 77.9898
| 18> H 	 47.6763 	 9.70085 	 78.5829
| 19> C 	 46.9163 	 11.8188 	 78.3464
| 20> H 	 46.3461 	 11.6739 	 77.4252
| 21> H 	 46.2185 	 11.9501 	 79.1528
| 22> H 	 47.3118 	 12.8582 	 78.3579
| 23> S 	 52.5032 	 6.51582 	 82.2062
| 24> C 	 52.2043 	 5.87294 	 83.7528
| 25> C 	 51.7379 	 6.78511 	 84.6591
| 26> C 	 51.58 	 8.04062 	 84.0504
| 27> C 	 51.7142 	 8.00089 	 82.6592
| 28> H 	 51.6819 	 6.51772 	 85.7614
| 29> C 	 50.9116 	 9.15759 	 84.7494
| 30> H 	 49.8811 	 8.79567 	 84.8872
| 31> H 	 50.8601 	 10.0218 	 84.1039
| 32> C 	 51.5568 	 9.60186 	 85.9976
| 33> H 	 51.8117 	 8.77683 	 86.6365
| 34> H 	 50.8698 	 10.1653 	 86.548
| 35> C 	 52.8545 	 10.35 	 85.9111
| 36> H 	 52.7218 	 11.2158 	 85.2773
| 37> H 	 53.5893 	 9.79514 	 85.3821
| 38> H 	 53.2879 	 10.7832 	 86.8183
| 39> H 	 51.0556 	 10.715 	 78.6158
| 40> H 	 52.3447 	 4.86251 	 84.0753
| 41> *
| 42>
| 43>                          ****END OF INPUT****

CARTESIAN COORDINATES (ANGSTROEM)
---------------------------------
  S     52.309000    9.072440   80.136600
  C     51.098200   10.265100   79.605500
  C     49.884600   10.189000   80.262800
  C     50.074800    9.493330   81.440600
  C     51.345900    8.919950   81.615100
  H     49.347900    9.217390   82.191000
  C     48.592100   11.033800   79.946700
  H     49.057700   12.032700   80.037500
  H     47.889700   10.806500   80.834300
  C     47.946300   10.761700   78.647100
  H     48.729000   10.996800   77.989800
  H     47.676300    9.700850   78.582900
  C     46.916300   11.818800   78.346400
  H     46.346100   11.673900   77.425200
  H     46.218500   11.950100   79.152800
  H     47.311800   12.858200   78.357900
  S     52.503200    6.515820   82.206200
  C     52.204300    5.872940   83.752800
  C     51.737900    6.785110   84.659100
  C     51.580000    8.040620   84.050400
  C     51.714200    8.000890   82.659200
  H     51.681900    6.517720   85.761400
  C     50.911600    9.157590   84.749400
  H     49.881100    8.795670   84.887200
  H     50.860100   10.021800   84.103900
  C     51.556800    9.601860   85.997600
  H     51.811700    8.776830   86.636500
  H     50.869800   10.165300   86.548000
  C     52.854500   10.350000   85.911100
  H     52.721800   11.215800   85.277300
  H     53.589300    9.795140   85.382100
  H     53.287900   10.783200   86.818300
  H     51.055600   10.715000   78.615800
  H     52.344700    4.862510   84.075300

 Total Charge           Charge          ....    0
 Multiplicity           Mult            ....    1
 Number of Electrons    NEL             ....  134
 Basis Dimension        Dim             ....  322

ORBITAL ENERGIES
----------------

  NO   OCC          E(Eh)            E(eV)
   0   2.0000     -88.971062     -2421.0257
   1   2.0000     -88.964569     -2420.8490
   2   2.0000     -10.329798      -281.0881
   3   2.0000     -10.321351      -280.8582
   4   2.0000     -10.312118      -280.6070
   5   2.0000     -10.309568      -280.5376
   6   2.0000     -10.303706      -280.3781
   7   2.0000     -10.299755      -280.2706
   8   2.0000     -10.295773      -280.1622
   9   2.0000     -10.292478      -280.0726
  10   2.0000     -10.290560      -280.0204
  11   2.0000     -10.283534      -279.8292
  12   2.0000     -10.281120      -279.7635
  13   2.0000     -10.280126      -279.7364
  14   2.0000     -10.270540      -279.4756
  15   2.0000     -10.265611      -279.3415
  16   2.0000      -8.084817      -219.9991
  17   2.0000      -8.080598      -219.8843
  18   2.0000      -6.043295      -164.4464
  19   2.0000      -6.039849      -164.3526
  20   2.0000      -6.038997      -164.3294
  21   2.0000      -6.035296      -164.2288
  22   2.0000      -6.035045      -164.2219
  23   2.0000      -6.031301      -164.1200
  24   2.0000      -1.013168       -27.5697
  25   2.0000      -0.988067       -26.8867
  26   2.0000      -0.924059       -25.1449
  27   2.0000      -0.922276       -25.0964
  28   2.0000      -0.874040       -23.7838
  29   2.0000      -0.857253       -23.3270
  30   2.0000      -0.848524       -23.0895
  31   2.0000      -0.811702       -22.0875
  32   2.0000      -0.786826       -21.4106
  33   2.0000      -0.773741       -21.0546
  34   2.0000      -0.709259       -19.2999
  35   2.0000      -0.707872       -19.2622
  36   2.0000      -0.698046       -18.9948
  37   2.0000      -0.653903       -17.7936
  38   2.0000      -0.634672       -17.2703
  39   2.0000      -0.617493       -16.8029
  40   2.0000      -0.601911       -16.3788
  41   2.0000      -0.580953       -15.8085
  42   2.0000      -0.565709       -15.3937
  43   2.0000      -0.561606       -15.2821
  44   2.0000      -0.539959       -14.6930
  45   2.0000      -0.527491       -14.3538
  46   2.0000      -0.518567       -14.1109
  47   2.0000      -0.511833       -13.9277
  48   2.0000      -0.498800       -13.5730
  49   2.0000      -0.498177       -13.5561
  50   2.0000      -0.492613       -13.4047
  51   2.0000      -0.474813       -12.9203
  52   2.0000      -0.473240       -12.8775
  53   2.0000      -0.464703       -12.6452
  54   2.0000      -0.456954       -12.4343
  55   2.0000      -0.452975       -12.3261
  56   2.0000      -0.451363       -12.2822
  57   2.0000      -0.446176       -12.1411
  58   2.0000      -0.437789       -11.9129
  59   2.0000      -0.426439       -11.6040
  60   2.0000      -0.415488       -11.3060
  61   2.0000      -0.412481       -11.2242
  62   2.0000      -0.409054       -11.1309
  63   2.0000      -0.351032        -9.5521
  64   2.0000      -0.337943        -9.1959
  65   2.0000      -0.329801        -8.9743
  66   2.0000      -0.277557        -7.5527
  67   0.0000       0.019751         0.5374
  68   0.0000       0.065025         1.7694
  69   0.0000       0.094375         2.5681
  70   0.0000       0.119626         3.2552
  71   0.0000       0.140042         3.8107

MULLIKEN ATOMIC CHARGES
-----------------------
   0 S :    0.103850
   1 C :   -0.100039
   2 C :   -0.075829
   3 C :   -0.008826
   4 C :   -0.133147
   5 H :    0.012004
   6 C :   -0.016982
   7 H :    0.056120
   8 H :    0.038546
   9 C :   -0.013022
  10 H :    0.011100
  11 H :    0.046239
  12 C :   -0.032577
  13 H :    0.042266
  14 H :    0.009997
  15 H :    0.022431
  16 S :    0.112910
  17 C :   -0.068805
  18 C :   -0.073695
  19 C :   -0.038483
  20 C :   -0.165873
  21 H :    0.049633
  22 C :    0.048458
  23 H :    0.043989
  24 H :    0.018890
  25 C :   -0.018825
  26 H :    0.006283
  27 H :    0.006089
  28 C :   -0.032702
  29 H :    0.006915
  30 H :    0.024570
  31 H :    0.035782
  32 H :    0.041306
  33 H :    0.041426
Sum of atomic charges:   -0.0000000

LOEWDIN ATOMIC CHARGES
----------------------
   0 S :    0.385641
   1 C :   -0.194854
   2 C :   -0.063250
   3 C :   -0.065561
   4 C :   -0.181970
   5 H :    0.029770
   6 C :   -0.026786
   7 H :    0.041498
   8 H :    0.034393
   9 C :   -0.045311
  10 H :    0.021312
  11 H :    0.034418
  12 C :   -0.067181
  13 H :    0.028073
  14 H :    0.019091
  15 H :    0.031954
  16 S :    0.420814
  17 C :   -0.192386
  18 C :   -0.082291
  19 C :   -0.061467
  20 C :   -0.202220
  21 H :    0.046272
  22 C :   -0.033160
  23 H :    0.039388
  24 H :    0.028203
  25 C :   -0.040298
  26 H :    0.018903
  27 H :    0.018542
  28 C :   -0.061478
  29 H :    0.020593
  30 H :    0.021978
  31 H :    0.030010
  32 H :    0.021812
  33 H :    0.025547

  Mayer bond orders larger than 0.100000
B(  0-S ,  1-C ) :   1.1313 B(  0-S ,  4-C ) :   1.1372 B(  1-C ,  2-C ) :   1.6142
B(  1-C ,  4-C ) :   0.1076 B(  1-C , 32-H ) :   0.9558 B(  2-C ,  3-C ) :   1.2709
B(  2-C ,  6-C ) :   0.9790 B(  3-C ,  4-C ) :   1.5404 B(  3-C ,  5-H ) :   0.9930
B(  4-C , 20-C ) :   1.0976 B(  6-C ,  7-H ) :   0.9487 B(  6-C ,  8-H ) :   0.9454
B(  6-C ,  9-C ) :   1.0631 B(  9-C , 10-H ) :   0.9495 B(  9-C , 11-H ) :   0.9556
B(  9-C , 12-C ) :   1.0806 B( 12-C , 13-H ) :   0.9736 B( 12-C , 14-H ) :   0.9698
B( 12-C , 15-H ) :   0.9695 B( 16-S , 17-C ) :   1.1693 B( 16-S , 20-C ) :   1.1287
B( 17-C , 18-C ) :   1.6193 B( 17-C , 33-H ) :   0.9659 B( 18-C , 19-C ) :   1.2361
B( 18-C , 21-H ) :   0.9785 B( 19-C , 20-C ) :   1.5537 B( 19-C , 22-C ) :   1.0645
B( 22-C , 23-H ) :   0.9316 B( 22-C , 24-H ) :   0.9282 B( 22-C , 25-C ) :   1.0779
B( 25-C , 26-H ) :   0.9520 B( 25-C , 27-H ) :   0.9444 B( 25-C , 28-C ) :   1.0811
B( 28-C , 29-H ) :   0.9673 B( 28-C , 30-H ) :   0.9727 B( 28-C , 31-H ) :   0.9728

Dispersion correction           -0.013701759
FINAL SINGLE POINT ENERGY     -1339.843139818617

DIPOLE MOMENT
-------------
                                X             Y             Z
Electronic contribution:     16.09774     -18.05848      -6.27761
Nuclear contribution   :    -16.70949      18.24119       6.48935
                        -----------------------------------------
Total Dipole Moment    :     -0.61175       0.18271       0.21174
                        -----------------------------------------
Magnitude (a.u.)       :      0.67265
Magnitude (Debye)      :      1.70973

Rotational constants in cm-1:     0.021228     0.007356     0.006316
Rotational constants in MHz :   636.391271   220.527359   189.341654

                             ****ORCA TERMINATED NORMALLY****
TOTAL RUN TIME: 0 days 0 hours 0 minutes 29 seconds 737 msec
