                         Program Version 4.2.1 -  RELEASE  -
|  1> ! wB97X-D3 SP def2-SVP
|  2> %pal
|  3> nprocs 16
|  4> end
|  5>
|  6> * xyz 0 1
|  7> S 	 -97.174 	 40.655 	 124.039
|  8> C 	 -95.5795 	 39.9099 	 123.804
|  9> C 	 -95.5257 	 39.0916 	 122.693
| 10> C 	 -96.7416 	 39.1264 	 121.927
| 11> C 	 -97.6703 	 40.0079 	 122.471
| 12> H 	 -96.9208 	 38.598 	 120.973
| 13> C 	 -94.275 	 38.3091 	 122.383
| 14> H 	 -94.5912 	 37.3424 	 122.057
| 15> H 	 -93.7053 	 38.0249 	 123.332
| 16> C 	 -93.4157 	 38.8007 	 121.198
| 17> H 	 -93.8669 	 38.7544 	 120.201
| 18> H 	 -93.2679 	 39.8715 	 121.225
| 19> C 	 -92.1249 	 38.0729 	 121.234
| 20> H 	 -91.4556 	 38.3639 	 120.426
| 21> H 	 -91.6433 	 38.2228 	 122.211
| 22> H 	 -92.2778 	 37.0733 	 121.174
| 23> S 	 -100.092 	 41.0568 	 123.061
| 24> C 	 -101.327 	 41.3192 	 121.808
| 25> C 	 -100.86 	 40.8437 	 120.609
| 26> C 	 -99.5062 	 40.335 	 120.627
| 27> C 	 -98.9319 	 40.4432 	 121.905
| 28> H 	 -101.478 	 40.7293 	 119.762
| 29> C 	 -98.9029 	 39.9416 	 119.296
| 30> H 	 -97.8414 	 40.1186 	 119.453
| 31> H 	 -99.1352 	 40.5875 	 118.459
| 32> C 	 -98.9773 	 38.4087 	 118.922
| 33> H 	 -99.9674 	 38.0593 	 118.991
| 34> H 	 -98.442 	 37.9451 	 119.716
| 35> C 	 -98.1761 	 38.151 	 117.605
| 36> H 	 -98.1393 	 37.0801 	 117.362
| 37> H 	 -97.1196 	 38.4466 	 117.607
| 38> H 	 -98.6997 	 38.6685 	 116.819
| 39> H 	 -94.7162 	 40.0622 	 124.484
| 40> H 	 -102.308 	 41.7488 	 121.887
| 41> *
| 42>
| 43>                          ****END OF INPUT****

CARTESIAN COORDINATES (ANGSTROEM)
---------------------------------
  S    -97.174000   40.655000  124.039000
  C    -95.579500   39.909900  123.804000
  C    -95.525700   39.091600  122.693000
  C    -96.741600   39.126400  121.927000
  C    -97.670300   40.007900  122.471000
  H    -96.920800   38.598000  120.973000
  C    -94.275000   38.309100  122.383000
  H    -94.591200   37.342400  122.057000
  H    -93.705300   38.024900  123.332000
  C    -93.415700   38.800700  121.198000
  H    -93.866900   38.754400  120.201000
  H    -93.267900   39.871500  121.225000
  C    -92.124900   38.072900  121.234000
  H    -91.455600   38.363900  120.426000
  H    -91.643300   38.222800  122.211000
  H    -92.277800   37.073300  121.174000
  S    -100.092000   41.056800  123.061000
  C    -101.327000   41.319200  121.808000
  C    -100.860000   40.843700  120.609000
  C    -99.506200   40.335000  120.627000
  C    -98.931900   40.443200  121.905000
  H    -101.478000   40.729300  119.762000
  C    -98.902900   39.941600  119.296000
  H    -97.841400   40.118600  119.453000
  H    -99.135200   40.587500  118.459000
  C    -98.977300   38.408700  118.922000
  H    -99.967400   38.059300  118.991000
  H    -98.442000   37.945100  119.716000
  C    -98.176100   38.151000  117.605000
  H    -98.139300   37.080100  117.362000
  H    -97.119600   38.446600  117.607000
  H    -98.699700   38.668500  116.819000
  H    -94.716200   40.062200  124.484000
  H    -102.308000   41.748800  121.887000

 Total Charge           Charge          ....    0
 Multiplicity           Mult            ....    1
 Number of Electrons    NEL             ....  134
 Basis Dimension        Dim             ....  322

ORBITAL ENERGIES
----------------

  NO   OCC          E(Eh)            E(eV)
   0   2.0000     -88.968087     -2420.9447
   1   2.0000     -88.966016     -2420.8884
   2   2.0000     -10.334562      -281.2177
   3   2.0000     -10.331453      -281.1331
   4   2.0000     -10.317650      -280.7575
   5   2.0000     -10.316037      -280.7136
   6   2.0000     -10.305577      -280.4290
   7   2.0000     -10.303065      -280.3606
   8   2.0000     -10.301457      -280.3169
   9   2.0000     -10.296572      -280.1840
  10   2.0000     -10.292181      -280.0645
  11   2.0000     -10.289196      -279.9833
  12   2.0000     -10.288040      -279.9518
  13   2.0000     -10.284571      -279.8574
  14   2.0000     -10.283674      -279.8330
  15   2.0000     -10.268386      -279.4170
  16   2.0000      -8.082157      -219.9267
  17   2.0000      -8.080378      -219.8783
  18   2.0000      -6.040760      -164.3774
  19   2.0000      -6.039149      -164.3336
  20   2.0000      -6.036973      -164.2744
  21   2.0000      -6.034936      -164.2190
  22   2.0000      -6.032651      -164.1568
  23   2.0000      -6.030888      -164.1088
  24   2.0000      -1.004950       -27.3461
  25   2.0000      -0.978840       -26.6356
  26   2.0000      -0.918172       -24.9847
  27   2.0000      -0.906528       -24.6679
  28   2.0000      -0.874444       -23.7948
  29   2.0000      -0.852284       -23.1918
  30   2.0000      -0.845421       -23.0051
  31   2.0000      -0.816862       -22.2280
  32   2.0000      -0.780116       -21.2280
  33   2.0000      -0.769687       -20.9442
  34   2.0000      -0.714461       -19.4415
  35   2.0000      -0.707989       -19.2654
  36   2.0000      -0.697477       -18.9793
  37   2.0000      -0.668316       -18.1858
  38   2.0000      -0.636904       -17.3310
  39   2.0000      -0.620461       -16.8836
  40   2.0000      -0.595908       -16.2155
  41   2.0000      -0.571167       -15.5422
  42   2.0000      -0.567799       -15.4506
  43   2.0000      -0.557973       -15.1832
  44   2.0000      -0.533387       -14.5142
  45   2.0000      -0.519557       -14.1379
  46   2.0000      -0.516303       -14.0493
  47   2.0000      -0.511905       -13.9296
  48   2.0000      -0.507633       -13.8134
  49   2.0000      -0.497814       -13.5462
  50   2.0000      -0.496361       -13.5067
  51   2.0000      -0.485455       -13.2099
  52   2.0000      -0.475263       -12.9326
  53   2.0000      -0.466297       -12.6886
  54   2.0000      -0.459152       -12.4942
  55   2.0000      -0.457671       -12.4538
  56   2.0000      -0.448016       -12.1911
  57   2.0000      -0.438930       -11.9439
  58   2.0000      -0.434426       -11.8213
  59   2.0000      -0.426831       -11.6147
  60   2.0000      -0.422465       -11.4959
  61   2.0000      -0.417831       -11.3698
  62   2.0000      -0.408050       -11.1036
  63   2.0000      -0.359928        -9.7941
  64   2.0000      -0.336496        -9.1565
  65   2.0000      -0.325697        -8.8627
  66   2.0000      -0.280873        -7.6429
  67   0.0000       0.016034         0.4363
  68   0.0000       0.079768         2.1706
  69   0.0000       0.092585         2.5194
  70   0.0000       0.120870         3.2890
  71   0.0000       0.126870         3.4523

MULLIKEN ATOMIC CHARGES
-----------------------
   0 S :    0.098499
   1 C :   -0.133424
   2 C :   -0.061081
   3 C :   -0.002787
   4 C :   -0.107022
   5 H :    0.008782
   6 C :    0.025312
   7 H :    0.012736
   8 H :    0.038999
   9 C :   -0.056817
  10 H :    0.022267
  11 H :    0.019650
  12 C :    0.004390
  13 H :    0.033646
  14 H :    0.023936
  15 H :   -0.001216
  16 S :    0.082235
  17 C :   -0.067171
  18 C :   -0.016506
  19 C :   -0.056625
  20 C :   -0.099945
  21 H :    0.003407
  22 C :    0.009600
  23 H :    0.013461
  24 H :    0.029449
  25 C :   -0.026293
  26 H :    0.022714
  27 H :    0.010737
  28 C :   -0.050244
  29 H :    0.038286
  30 H :    0.035525
  31 H :    0.032574
  32 H :    0.059462
  33 H :    0.053465
Sum of atomic charges:   -0.0000000

LOEWDIN ATOMIC CHARGES
----------------------
   0 S :    0.380080
   1 C :   -0.192567
   2 C :   -0.061392
   3 C :   -0.067913
   4 C :   -0.175713
   5 H :    0.034930
   6 C :   -0.036178
   7 H :    0.028370
   8 H :    0.041448
   9 C :   -0.042383
  10 H :    0.025364
  11 H :    0.020365
  12 C :   -0.055479
  13 H :    0.028390
  14 H :    0.028090
  15 H :    0.009451
  16 S :    0.390025
  17 C :   -0.177235
  18 C :   -0.062238
  19 C :   -0.059234
  20 C :   -0.189690
  21 H :    0.023687
  22 C :   -0.035224
  23 H :    0.028294
  24 H :    0.027799
  25 C :   -0.026373
  26 H :    0.018101
  27 H :    0.015190
  28 C :   -0.064560
  29 H :    0.028784
  30 H :    0.028233
  31 H :    0.023144
  32 H :    0.034540
  33 H :    0.031894

  Mayer bond orders larger than 0.100000
B(  0-S ,  1-C ) :   1.1129 B(  0-S ,  4-C ) :   1.1367 B(  1-C ,  2-C ) :   1.6362
B(  1-C , 32-H ) :   0.9647 B(  2-C ,  3-C ) :   1.2251 B(  2-C ,  6-C ) :   1.0262
B(  3-C ,  4-C ) :   1.5724 B(  3-C ,  5-H ) :   0.9819 B(  4-C , 20-C ) :   1.0809
B(  6-C ,  7-H ) :   0.9267 B(  6-C ,  8-H ) :   0.9534 B(  6-C ,  9-C ) :   1.0402
B(  9-C , 10-H ) :   0.9495 B(  9-C , 11-H ) :   0.9565 B(  9-C , 12-C ) :   1.0929
B( 12-C , 13-H ) :   0.9692 B( 12-C , 14-H ) :   0.9721 B( 12-C , 15-H ) :   0.9684
B( 16-S , 17-C ) :   1.1267 B( 16-S , 20-C ) :   1.1312 B( 17-C , 18-C ) :   1.6228
B( 17-C , 33-H ) :   0.9695 B( 18-C , 19-C ) :   1.2456 B( 18-C , 21-H ) :   0.9901
B( 19-C , 20-C ) :   1.5844 B( 19-C , 22-C ) :   1.0353 B( 22-C , 23-H ) :   0.9350
B( 22-C , 24-H ) :   0.9506 B( 22-C , 25-C ) :   1.0447 B( 25-C , 26-H ) :   0.9565
B( 25-C , 27-H ) :   0.9532 B( 25-C , 28-C ) :   1.0731 B( 28-C , 29-H ) :   0.9751
B( 28-C , 30-H ) :   0.9746 B( 28-C , 31-H ) :   0.9776

Dispersion correction           -0.013796916
FINAL SINGLE POINT ENERGY     -1339.870649783718

DIPOLE MOMENT
-------------
                                X             Y             Z
Electronic contribution:    -19.17381      15.17962      22.79856
Nuclear contribution   :     19.44534     -15.56665     -23.46370
                        -----------------------------------------
Total Dipole Moment    :      0.27153      -0.38703      -0.66514
                        -----------------------------------------
Magnitude (a.u.)       :      0.81604
Magnitude (Debye)      :      2.07422

Rotational constants in cm-1:     0.017536     0.009112     0.006174
Rotational constants in MHz :   525.703642   273.181154   185.106462

                             ****ORCA TERMINATED NORMALLY****
TOTAL RUN TIME: 0 days 0 hours 0 minutes 32 seconds 478 msec
