                         Program Version 4.2.1 -  RELEASE  -
|  1> ! wB97X-D3 SP def2-SVP
|  2> %pal
|  3> nprocs 16
|  4> end
|  5>
|  6> * xyz 0 1
|  7> S 	 -38.3634 	 47.931 	 94.4678
|  8> C 	 -37.0452 	 48.0672 	 95.6033
|  9> C 	 -37.3492 	 47.2792 	 96.6811
| 10> C 	 -38.6995 	 46.9007 	 96.7819
| 11> C 	 -39.4385 	 47.2606 	 95.6771
| 12> H 	 -39.162 	 46.3057 	 97.6018
| 13> C 	 -36.5152 	 47.2174 	 97.9693
| 14> H 	 -35.3897 	 47.2899 	 97.6574
| 15> H 	 -36.6453 	 46.2693 	 98.3988
| 16> C 	 -36.9051 	 48.2088 	 99.0296
| 17> H 	 -36.4285 	 49.2172 	 98.7901
| 18> H 	 -37.9242 	 48.4255 	 99.0247
| 19> C 	 -36.7708 	 47.6365 	 100.486
| 20> H 	 -35.7907 	 47.1859 	 100.672
| 21> H 	 -36.9393 	 48.463 	 101.278
| 22> H 	 -37.5652 	 46.9791 	 100.715
| 23> S 	 -41.5824 	 46.4779 	 94.0869
| 24> C 	 -43.2106 	 46.7944 	 94.6346
| 25> C 	 -43.1328 	 47.5648 	 95.7397
| 26> C 	 -41.8414 	 47.7619 	 96.2948
| 27> C 	 -40.8717 	 47.0947 	 95.5462
| 28> H 	 -44.0895 	 47.927 	 96.1891
| 29> C 	 -41.5845 	 48.6062 	 97.5417
| 30> H 	 -42.3496 	 49.3173 	 97.4554
| 31> H 	 -40.6689 	 49.1813 	 97.3764
| 32> C 	 -41.7856 	 47.7846 	 98.7923
| 33> H 	 -40.9547 	 47.0342 	 98.806
| 34> H 	 -42.6638 	 47.1786 	 98.7368
| 35> C 	 -41.8254 	 48.5333 	 100.136
| 36> H 	 -40.8898 	 49.0882 	 100.391
| 37> H 	 -42.2233 	 47.875 	 100.933
| 38> H 	 -42.6147 	 49.3136 	 100.043
| 39> H 	 -36.0629 	 48.5006 	 95.4625
| 40> H 	 -44.1318 	 46.6974 	 94.0888
| 41> *
| 42>
| 43>                          ****END OF INPUT****

CARTESIAN COORDINATES (ANGSTROEM)
---------------------------------
  S    -38.363400   47.931000   94.467800
  C    -37.045200   48.067200   95.603300
  C    -37.349200   47.279200   96.681100
  C    -38.699500   46.900700   96.781900
  C    -39.438500   47.260600   95.677100
  H    -39.162000   46.305700   97.601800
  C    -36.515200   47.217400   97.969300
  H    -35.389700   47.289900   97.657400
  H    -36.645300   46.269300   98.398800
  C    -36.905100   48.208800   99.029600
  H    -36.428500   49.217200   98.790100
  H    -37.924200   48.425500   99.024700
  C    -36.770800   47.636500  100.486000
  H    -35.790700   47.185900  100.672000
  H    -36.939300   48.463000  101.278000
  H    -37.565200   46.979100  100.715000
  S    -41.582400   46.477900   94.086900
  C    -43.210600   46.794400   94.634600
  C    -43.132800   47.564800   95.739700
  C    -41.841400   47.761900   96.294800
  C    -40.871700   47.094700   95.546200
  H    -44.089500   47.927000   96.189100
  C    -41.584500   48.606200   97.541700
  H    -42.349600   49.317300   97.455400
  H    -40.668900   49.181300   97.376400
  C    -41.785600   47.784600   98.792300
  H    -40.954700   47.034200   98.806000
  H    -42.663800   47.178600   98.736800
  C    -41.825400   48.533300  100.136000
  H    -40.889800   49.088200  100.391000
  H    -42.223300   47.875000  100.933000
  H    -42.614700   49.313600  100.043000
  H    -36.062900   48.500600   95.462500
  H    -44.131800   46.697400   94.088800

 Total Charge           Charge          ....    0
 Multiplicity           Mult            ....    1
 Number of Electrons    NEL             ....  134
 Basis Dimension        Dim             ....  322

ORBITAL ENERGIES
----------------

  NO   OCC          E(Eh)            E(eV)
   0   2.0000     -88.966522     -2420.9021
   1   2.0000     -88.964479     -2420.8466
   2   2.0000     -10.328797      -281.0609
   3   2.0000     -10.325637      -280.9749
   4   2.0000     -10.314038      -280.6592
   5   2.0000     -10.314008      -280.6584
   6   2.0000     -10.302763      -280.3524
   7   2.0000     -10.295970      -280.1676
   8   2.0000     -10.292955      -280.0856
   9   2.0000     -10.292846      -280.0826
  10   2.0000     -10.291797      -280.0540
  11   2.0000     -10.289098      -279.9806
  12   2.0000     -10.288025      -279.9514
  13   2.0000     -10.287098      -279.9262
  14   2.0000     -10.286069      -279.8982
  15   2.0000     -10.285770      -279.8900
  16   2.0000      -8.081227      -219.9014
  17   2.0000      -8.079606      -219.8572
  18   2.0000      -6.039853      -164.3528
  19   2.0000      -6.038188      -164.3074
  20   2.0000      -6.035762      -164.2414
  21   2.0000      -6.034062      -164.1952
  22   2.0000      -6.031823      -164.1343
  23   2.0000      -6.030259      -164.0917
  24   2.0000      -1.013242       -27.5717
  25   2.0000      -0.991987       -26.9933
  26   2.0000      -0.913854       -24.8672
  27   2.0000      -0.912059       -24.8184
  28   2.0000      -0.874649       -23.8004
  29   2.0000      -0.850137       -23.1334
  30   2.0000      -0.844419       -22.9778
  31   2.0000      -0.818281       -22.2666
  32   2.0000      -0.782051       -21.2807
  33   2.0000      -0.772247       -21.0139
  34   2.0000      -0.710154       -19.3243
  35   2.0000      -0.701110       -19.0782
  36   2.0000      -0.700226       -19.0541
  37   2.0000      -0.658218       -17.9110
  38   2.0000      -0.640462       -17.4279
  39   2.0000      -0.620137       -16.8748
  40   2.0000      -0.595146       -16.1947
  41   2.0000      -0.570731       -15.5304
  42   2.0000      -0.561821       -15.2879
  43   2.0000      -0.555738       -15.1224
  44   2.0000      -0.535892       -14.5824
  45   2.0000      -0.525178       -14.2908
  46   2.0000      -0.517769       -14.0892
  47   2.0000      -0.515941       -14.0395
  48   2.0000      -0.508431       -13.8351
  49   2.0000      -0.503123       -13.6907
  50   2.0000      -0.492801       -13.4098
  51   2.0000      -0.483437       -13.1550
  52   2.0000      -0.468911       -12.7597
  53   2.0000      -0.464375       -12.6363
  54   2.0000      -0.459786       -12.5114
  55   2.0000      -0.448722       -12.2104
  56   2.0000      -0.445512       -12.1230
  57   2.0000      -0.441753       -12.0207
  58   2.0000      -0.438287       -11.9264
  59   2.0000      -0.423676       -11.5288
  60   2.0000      -0.416414       -11.3312
  61   2.0000      -0.411593       -11.2000
  62   2.0000      -0.406373       -11.0580
  63   2.0000      -0.349984        -9.5236
  64   2.0000      -0.331358        -9.0167
  65   2.0000      -0.330498        -8.9933
  66   2.0000      -0.295846        -8.0504
  67   0.0000       0.030615         0.8331
  68   0.0000       0.063641         1.7318
  69   0.0000       0.108799         2.9606
  70   0.0000       0.117315         3.1923
  71   0.0000       0.126781         3.4499

MULLIKEN ATOMIC CHARGES
-----------------------
   0 S :    0.118543
   1 C :   -0.120890
   2 C :   -0.059215
   3 C :   -0.023271
   4 C :   -0.134211
   5 H :    0.037635
   6 C :    0.045783
   7 H :    0.038159
   8 H :    0.005201
   9 C :   -0.042985
  10 H :    0.035778
  11 H :    0.011581
  12 C :   -0.088361
  13 H :    0.043895
  14 H :    0.039456
  15 H :    0.031848
  16 S :    0.095148
  17 C :   -0.074644
  18 C :   -0.052604
  19 C :   -0.093852
  20 C :   -0.158539
  21 H :    0.028439
  22 C :    0.141648
  23 H :   -0.006075
  24 H :    0.042503
  25 C :   -0.063584
  26 H :    0.014124
  27 H :    0.020572
  28 C :   -0.049927
  29 H :    0.045620
  30 H :    0.043410
  31 H :    0.022317
  32 H :    0.050996
  33 H :    0.055503
Sum of atomic charges:    0.0000000

LOEWDIN ATOMIC CHARGES
----------------------
   0 S :    0.404873
   1 C :   -0.196732
   2 C :   -0.069794
   3 C :   -0.067556
   4 C :   -0.188025
   5 H :    0.038849
   6 C :   -0.034164
   7 H :    0.037264
   8 H :    0.019641
   9 C :   -0.044394
  10 H :    0.032071
  11 H :    0.016133
  12 C :   -0.067273
  13 H :    0.023201
  14 H :    0.036665
  15 H :    0.019023
  16 S :    0.408615
  17 C :   -0.187495
  18 C :   -0.079714
  19 C :   -0.049392
  20 C :   -0.205947
  21 H :    0.036153
  22 C :   -0.025994
  23 H :    0.021795
  24 H :    0.036926
  25 C :   -0.041924
  26 H :    0.021635
  27 H :    0.024690
  28 C :   -0.072715
  29 H :    0.029270
  30 H :    0.031962
  31 H :    0.024934
  32 H :    0.033440
  33 H :    0.033983

  Mayer bond orders larger than 0.100000
B(  0-S ,  1-C ) :   1.1335 B(  0-S ,  4-C ) :   1.1423 B(  1-C ,  2-C ) :   1.6017
B(  1-C , 32-H ) :   0.9706 B(  2-C ,  3-C ) :   1.2262 B(  2-C ,  6-C ) :   1.0496
B(  3-C ,  4-C ) :   1.5698 B(  3-C ,  5-H ) :   0.9901 B(  4-C , 20-C ) :   1.0656
B(  6-C ,  7-H ) :   0.9404 B(  6-C ,  8-H ) :   0.9379 B(  6-C ,  9-C ) :   1.0562
B(  9-C , 10-H ) :   0.9531 B(  9-C , 11-H ) :   0.9573 B(  9-C , 12-C ) :   1.0671
B( 12-C , 13-H ) :   0.9799 B( 12-C , 14-H ) :   0.9735 B( 12-C , 15-H ) :   0.9757
B( 16-S , 17-C ) :   1.1475 B( 16-S , 20-C ) :   1.1403 B( 17-C , 18-C ) :   1.6214
B( 17-C , 33-H ) :   0.9661 B( 18-C , 19-C ) :   1.2725 B( 18-C , 21-H ) :   0.9771
B( 19-C , 20-C ) :   1.5630 B( 19-C , 22-C ) :   1.0312 B( 22-C , 23-H ) :   0.9199
B( 22-C , 24-H ) :   0.9253 B( 22-C , 25-C ) :   1.0628 B( 25-C , 26-H ) :   0.9481
B( 25-C , 27-H ) :   0.9519 B( 25-C , 28-C ) :   1.0833 B( 28-C , 29-H ) :   0.9738
B( 28-C , 30-H ) :   0.9734 B( 28-C , 31-H ) :   0.9723

Dispersion correction           -0.015222897
FINAL SINGLE POINT ENERGY     -1339.863279315933

DIPOLE MOMENT
-------------
                                X             Y             Z
Electronic contribution:     -4.19453      -5.95158     -32.91997
Nuclear contribution   :      3.97385       6.21974      33.57936
                        -----------------------------------------
Total Dipole Moment    :     -0.22067       0.26817       0.65939
                        -----------------------------------------
Magnitude (a.u.)       :      0.74525
Magnitude (Debye)      :      1.89428

Rotational constants in cm-1:     0.017491     0.010380     0.006972
Rotational constants in MHz :   524.375387   311.183300   209.014059

                             ****ORCA TERMINATED NORMALLY****
TOTAL RUN TIME: 0 days 0 hours 0 minutes 30 seconds 303 msec
