                         Program Version 4.2.1 -  RELEASE  -
|  1> ! wB97X-D3 SP def2-SVP
|  2> %pal
|  3> nprocs 16
|  4> end
|  5>
|  6> * xyz 0 1
|  7> S 	 -106.355 	 41.7589 	 132.103
|  8> C 	 -104.746 	 41.1328 	 132.444
|  9> C 	 -104.001 	 41.2025 	 131.286
| 10> C 	 -104.665 	 41.8461 	 130.202
| 11> C 	 -105.998 	 42.2279 	 130.517
| 12> H 	 -104.226 	 42.039 	 129.248
| 13> C 	 -102.59 	 40.7424 	 131.09
| 14> H 	 -102.584 	 40.3622 	 130.04
| 15> H 	 -102.299 	 39.9021 	 131.666
| 16> C 	 -101.504 	 41.7663 	 131.369
| 17> H 	 -100.467 	 41.4279 	 131.028
| 18> H 	 -101.73 	 42.5928 	 130.704
| 19> C 	 -101.395 	 42.1424 	 132.887
| 20> H 	 -102.211 	 42.6389 	 133.383
| 21> H 	 -101.074 	 41.2671 	 133.517
| 22> H 	 -100.605 	 42.9777 	 132.903
| 23> S 	 -108.116 	 44.0084 	 130.407
| 24> C 	 -108.928 	 44.2903 	 128.914
| 25> C 	 -108.365 	 43.6639 	 127.804
| 26> C 	 -107.201 	 42.9101 	 128.216
| 27> C 	 -107.009 	 42.8268 	 129.63
| 28> H 	 -108.734 	 43.9735 	 126.833
| 29> C 	 -106.459 	 42.1132 	 127.218
| 30> H 	 -107.225 	 41.4749 	 126.67
| 31> H 	 -105.893 	 41.3945 	 127.767
| 32> C 	 -105.547 	 42.9432 	 126.218
| 33> H 	 -104.882 	 42.3571 	 125.67
| 34> H 	 -104.817 	 43.4662 	 126.743
| 35> C 	 -106.375 	 43.6089 	 125.102
| 36> H 	 -106.893 	 42.7861 	 124.607
| 37> H 	 -105.71 	 44.0186 	 124.372
| 38> H 	 -107.088 	 44.3459 	 125.44
| 39> H 	 -104.305 	 40.6913 	 133.355
| 40> H 	 -109.703 	 45.0743 	 128.815
| 41> *
| 42>
| 43>                          ****END OF INPUT****

CARTESIAN COORDINATES (ANGSTROEM)
---------------------------------
  S    -106.355000   41.758900  132.103000
  C    -104.746000   41.132800  132.444000
  C    -104.001000   41.202500  131.286000
  C    -104.665000   41.846100  130.202000
  C    -105.998000   42.227900  130.517000
  H    -104.226000   42.039000  129.248000
  C    -102.590000   40.742400  131.090000
  H    -102.584000   40.362200  130.040000
  H    -102.299000   39.902100  131.666000
  C    -101.504000   41.766300  131.369000
  H    -100.467000   41.427900  131.028000
  H    -101.730000   42.592800  130.704000
  C    -101.395000   42.142400  132.887000
  H    -102.211000   42.638900  133.383000
  H    -101.074000   41.267100  133.517000
  H    -100.605000   42.977700  132.903000
  S    -108.116000   44.008400  130.407000
  C    -108.928000   44.290300  128.914000
  C    -108.365000   43.663900  127.804000
  C    -107.201000   42.910100  128.216000
  C    -107.009000   42.826800  129.630000
  H    -108.734000   43.973500  126.833000
  C    -106.459000   42.113200  127.218000
  H    -107.225000   41.474900  126.670000
  H    -105.893000   41.394500  127.767000
  C    -105.547000   42.943200  126.218000
  H    -104.882000   42.357100  125.670000
  H    -104.817000   43.466200  126.743000
  C    -106.375000   43.608900  125.102000
  H    -106.893000   42.786100  124.607000
  H    -105.710000   44.018600  124.372000
  H    -107.088000   44.345900  125.440000
  H    -104.305000   40.691300  133.355000
  H    -109.703000   45.074300  128.815000

 Total Charge           Charge          ....    0
 Multiplicity           Mult            ....    1
 Number of Electrons    NEL             ....  134
 Basis Dimension        Dim             ....  322

ORBITAL ENERGIES
----------------

  NO   OCC          E(Eh)            E(eV)
   0   2.0000     -88.969457     -2420.9820
   1   2.0000     -88.966803     -2420.9098
   2   2.0000     -10.337069      -281.2860
   3   2.0000     -10.334934      -281.2279
   4   2.0000     -10.320782      -280.8428
   5   2.0000     -10.315251      -280.6923
   6   2.0000     -10.312183      -280.6088
   7   2.0000     -10.298161      -280.2272
   8   2.0000     -10.297848      -280.2187
   9   2.0000     -10.294263      -280.1211
  10   2.0000     -10.293071      -280.0887
  11   2.0000     -10.292111      -280.0626
  12   2.0000     -10.288453      -279.9630
  13   2.0000     -10.286434      -279.9081
  14   2.0000     -10.282851      -279.8106
  15   2.0000     -10.278571      -279.6941
  16   2.0000      -8.084577      -219.9925
  17   2.0000      -8.081377      -219.9055
  18   2.0000      -6.043089      -164.4408
  19   2.0000      -6.039824      -164.3520
  20   2.0000      -6.038811      -164.3244
  21   2.0000      -6.035897      -164.2451
  22   2.0000      -6.035506      -164.2345
  23   2.0000      -6.032233      -164.1454
  24   2.0000      -1.007547       -27.4167
  25   2.0000      -0.983588       -26.7648
  26   2.0000      -0.914671       -24.8895
  27   2.0000      -0.908859       -24.7313
  28   2.0000      -0.865649       -23.5555
  29   2.0000      -0.854665       -23.2566
  30   2.0000      -0.842425       -22.9236
  31   2.0000      -0.811769       -22.0894
  32   2.0000      -0.784086       -21.3361
  33   2.0000      -0.772968       -21.0335
  34   2.0000      -0.718799       -19.5595
  35   2.0000      -0.700138       -19.0517
  36   2.0000      -0.693577       -18.8732
  37   2.0000      -0.659890       -17.9565
  38   2.0000      -0.634660       -17.2700
  39   2.0000      -0.625239       -17.0136
  40   2.0000      -0.591010       -16.0822
  41   2.0000      -0.574615       -15.6361
  42   2.0000      -0.552227       -15.0269
  43   2.0000      -0.548285       -14.9196
  44   2.0000      -0.543410       -14.7869
  45   2.0000      -0.542565       -14.7639
  46   2.0000      -0.515458       -14.0263
  47   2.0000      -0.507058       -13.7977
  48   2.0000      -0.503770       -13.7083
  49   2.0000      -0.497275       -13.5315
  50   2.0000      -0.490328       -13.3425
  51   2.0000      -0.480801       -13.0833
  52   2.0000      -0.474413       -12.9094
  53   2.0000      -0.467686       -12.7264
  54   2.0000      -0.460294       -12.5252
  55   2.0000      -0.449879       -12.2418
  56   2.0000      -0.443986       -12.0815
  57   2.0000      -0.440105       -11.9759
  58   2.0000      -0.427845       -11.6423
  59   2.0000      -0.423468       -11.5232
  60   2.0000      -0.418225       -11.3805
  61   2.0000      -0.415992       -11.3197
  62   2.0000      -0.411804       -11.2057
  63   2.0000      -0.354606        -9.6493
  64   2.0000      -0.331161        -9.0113
  65   2.0000      -0.329942        -8.9782
  66   2.0000      -0.284450        -7.7403
  67   0.0000       0.020648         0.5619
  68   0.0000       0.076840         2.0909
  69   0.0000       0.106617         2.9012
  70   0.0000       0.109190         2.9712
  71   0.0000       0.130199         3.5429

MULLIKEN ATOMIC CHARGES
-----------------------
   0 S :    0.118748
   1 C :   -0.118491
   2 C :   -0.099021
   3 C :    0.011851
   4 C :   -0.121814
   5 H :   -0.000748
   6 C :    0.069351
   7 H :    0.028269
   8 H :    0.004403
   9 C :   -0.060057
  10 H :    0.039611
  11 H :    0.021671
  12 C :   -0.097647
  13 H :    0.044672
  14 H :    0.043968
  15 H :    0.041093
  16 S :    0.094838
  17 C :   -0.094910
  18 C :   -0.033432
  19 C :   -0.037511
  20 C :   -0.122073
  21 H :    0.027566
  22 C :    0.010935
  23 H :    0.042732
  24 H :    0.006056
  25 C :   -0.006595
  26 H :    0.002486
  27 H :    0.006577
  28 C :   -0.037493
  29 H :    0.026263
  30 H :    0.028661
  31 H :    0.038572
  32 H :    0.054671
  33 H :    0.066799
Sum of atomic charges:    0.0000000

LOEWDIN ATOMIC CHARGES
----------------------
   0 S :    0.437190
   1 C :   -0.210338
   2 C :   -0.063004
   3 C :   -0.071587
   4 C :   -0.209655
   5 H :    0.022967
   6 C :   -0.039384
   7 H :    0.036187
   8 H :    0.020391
   9 C :   -0.040766
  10 H :    0.032355
  11 H :    0.020084
  12 C :   -0.077863
  13 H :    0.022321
  14 H :    0.029985
  15 H :    0.037257
  16 S :    0.398667
  17 C :   -0.187106
  18 C :   -0.077261
  19 C :   -0.045888
  20 C :   -0.189486
  21 H :    0.035207
  22 C :   -0.035903
  23 H :    0.040185
  24 H :    0.021961
  25 C :   -0.030553
  26 H :    0.019937
  27 H :    0.015538
  28 C :   -0.056812
  29 H :    0.028574
  30 H :    0.024503
  31 H :    0.019216
  32 H :    0.040039
  33 H :    0.033041

  Mayer bond orders larger than 0.100000
B(  0-S ,  1-C ) :   1.1286 B(  0-S ,  4-C ) :   1.1912 B(  1-C ,  2-C ) :   1.5877
B(  1-C , 32-H ) :   0.9659 B(  2-C ,  3-C ) :   1.2785 B(  2-C ,  6-C ) :   1.0268
B(  3-C ,  4-C ) :   1.5014 B(  3-C ,  5-H ) :   0.9963 B(  4-C , 20-C ) :   1.0522
B(  6-C ,  7-H ) :   0.9367 B(  6-C ,  8-H ) :   0.9406 B(  6-C ,  9-C ) :   1.0722
B(  9-C , 10-H ) :   0.9551 B(  9-C , 11-H ) :   0.9556 B(  9-C , 12-C ) :   1.0643
B( 12-C , 13-H ) :   0.9759 B( 12-C , 14-H ) :   0.9743 B( 12-C , 15-H ) :   0.9736
B( 16-S , 17-C ) :   1.1790 B( 16-S , 20-C ) :   1.1252 B( 17-C , 18-C ) :   1.6047
B( 17-C , 33-H ) :   0.9579 B( 18-C , 19-C ) :   1.2309 B( 18-C , 21-H ) :   0.9873
B( 19-C , 20-C ) :   1.5737 B( 19-C , 22-C ) :   1.0488 B( 22-C , 23-H ) :   0.9445
B( 22-C , 24-H ) :   0.9359 B( 22-C , 25-C ) :   1.0623 B( 25-C , 26-H ) :   0.9517
B( 25-C , 27-H ) :   0.9537 B( 25-C , 28-C ) :   1.0693 B( 28-C , 29-H ) :   0.9743
B( 28-C , 30-H ) :   0.9715 B( 28-C , 31-H ) :   0.9760

Dispersion correction           -0.014314750
FINAL SINGLE POINT ENERGY     -1339.862796868557

DIPOLE MOMENT
-------------
                                X             Y             Z
Electronic contribution:    -21.45075       2.32575      14.18746
Nuclear contribution   :     21.93952      -2.32104     -14.75257
                        -----------------------------------------
Total Dipole Moment    :      0.48878       0.00471      -0.56511
                        -----------------------------------------
Magnitude (a.u.)       :      0.74718
Magnitude (Debye)      :      1.89917

Rotational constants in cm-1:     0.020361     0.008200     0.006347
Rotational constants in MHz :   610.395863   245.825512   190.289538

                             ****ORCA TERMINATED NORMALLY****
TOTAL RUN TIME: 0 days 0 hours 0 minutes 32 seconds 815 msec
