                         Program Version 4.2.1 -  RELEASE  -
|  1> ! wB97X-D3 SP def2-SVP
|  2> %pal
|  3> nprocs 16
|  4> end
|  5>
|  6> * xyz 0 1
|  7> S 	 0.273793 	 -1.46178 	 77.0044
|  8> C 	 -1.02376 	 -2.1784 	 77.9777
|  9> C 	 -0.883272 	 -1.76825 	 79.3145
| 10> C 	 -0.0415679 	 -0.649486 	 79.4533
| 11> C 	 0.635551 	 -0.300901 	 78.3431
| 12> H 	 0.17039 	 -0.0910962 	 80.4163
| 13> C 	 -1.60476 	 -2.36069 	 80.5232
| 14> H 	 -0.79021 	 -2.47168 	 81.2744
| 15> H 	 -1.92201 	 -3.3933 	 80.2826
| 16> C 	 -2.77087 	 -1.59274 	 81.0835
| 17> H 	 -3.1077 	 -1.89021 	 82.1374
| 18> H 	 -2.43061 	 -0.566509 	 81.1742
| 19> C 	 -4.01565 	 -1.75491 	 80.3156
| 20> H 	 -4.86539 	 -1.20112 	 80.7175
| 21> H 	 -3.76081 	 -1.34986 	 79.3308
| 22> H 	 -4.31989 	 -2.77048 	 80.181
| 23> S 	 3.23431 	 0.424517 	 78.8334
| 24> C 	 3.76004 	 2.00874 	 78.571
| 25> C 	 2.67931 	 2.78641 	 78.2104
| 26> C 	 1.47367 	 2.11571 	 77.9205
| 27> C 	 1.62831 	 0.790611 	 78.2723
| 28> H 	 2.82384 	 3.85767 	 78.0725
| 29> C 	 0.157418 	 2.76144 	 77.5229
| 30> H 	 -0.643377 	 2.01464 	 77.7015
| 31> H 	 0.0442785 	 3.02578 	 76.4671
| 32> C 	 -0.161249 	 4.06335 	 78.3008
| 33> H 	 -1.10962 	 4.32395 	 77.9293
| 34> H 	 0.572143 	 4.87936 	 78.0791
| 35> C 	 -0.477941 	 3.97131 	 79.8152
| 36> H 	 -1.07738 	 2.9977 	 80.0482
| 37> H 	 -1.00985 	 4.92924 	 80.1269
| 38> H 	 0.496547 	 3.95571 	 80.2664
| 39> H 	 -1.63172 	 -3.0633 	 77.7179
| 40> H 	 4.78505 	 2.31744 	 78.5939
| 41> *
| 42>
| 43>                          ****END OF INPUT****

CARTESIAN COORDINATES (ANGSTROEM)
---------------------------------
  S      0.273793   -1.461780   77.004400
  C     -1.023760   -2.178400   77.977700
  C     -0.883272   -1.768250   79.314500
  C     -0.041568   -0.649486   79.453300
  C      0.635551   -0.300901   78.343100
  H      0.170390   -0.091096   80.416300
  C     -1.604760   -2.360690   80.523200
  H     -0.790210   -2.471680   81.274400
  H     -1.922010   -3.393300   80.282600
  C     -2.770870   -1.592740   81.083500
  H     -3.107700   -1.890210   82.137400
  H     -2.430610   -0.566509   81.174200
  C     -4.015650   -1.754910   80.315600
  H     -4.865390   -1.201120   80.717500
  H     -3.760810   -1.349860   79.330800
  H     -4.319890   -2.770480   80.181000
  S      3.234310    0.424517   78.833400
  C      3.760040    2.008740   78.571000
  C      2.679310    2.786410   78.210400
  C      1.473670    2.115710   77.920500
  C      1.628310    0.790611   78.272300
  H      2.823840    3.857670   78.072500
  C      0.157418    2.761440   77.522900
  H     -0.643377    2.014640   77.701500
  H      0.044278    3.025780   76.467100
  C     -0.161249    4.063350   78.300800
  H     -1.109620    4.323950   77.929300
  H      0.572143    4.879360   78.079100
  C     -0.477941    3.971310   79.815200
  H     -1.077380    2.997700   80.048200
  H     -1.009850    4.929240   80.126900
  H      0.496547    3.955710   80.266400
  H     -1.631720   -3.063300   77.717900
  H      4.785050    2.317440   78.593900

 Total Charge           Charge          ....    0
 Multiplicity           Mult            ....    1
 Number of Electrons    NEL             ....  134
 Basis Dimension        Dim             ....  322

ORBITAL ENERGIES
----------------

  NO   OCC          E(Eh)            E(eV)
   0   2.0000     -88.966946     -2420.9137
   1   2.0000     -88.964500     -2420.8471
   2   2.0000     -10.329456      -281.0788
   3   2.0000     -10.323041      -280.9042
   4   2.0000     -10.321481      -280.8618
   5   2.0000     -10.312501      -280.6174
   6   2.0000     -10.303218      -280.3648
   7   2.0000     -10.301903      -280.3290
   8   2.0000     -10.295830      -280.1638
   9   2.0000     -10.295447      -280.1533
  10   2.0000     -10.294929      -280.1393
  11   2.0000     -10.290779      -280.0263
  12   2.0000     -10.286963      -279.9225
  13   2.0000     -10.285191      -279.8743
  14   2.0000     -10.285162      -279.8735
  15   2.0000     -10.269429      -279.4454
  16   2.0000      -8.080647      -219.8856
  17   2.0000      -8.080295      -219.8760
  18   2.0000      -6.038956      -164.3283
  19   2.0000      -6.038895      -164.3267
  20   2.0000      -6.035184      -164.2257
  21   2.0000      -6.034800      -164.2153
  22   2.0000      -6.031698      -164.1308
  23   2.0000      -6.030827      -164.1071
  24   2.0000      -1.011401       -27.5216
  25   2.0000      -0.986627       -26.8475
  26   2.0000      -0.917808       -24.9748
  27   2.0000      -0.908333       -24.7170
  28   2.0000      -0.869057       -23.6482
  29   2.0000      -0.850072       -23.1316
  30   2.0000      -0.848983       -23.1020
  31   2.0000      -0.813085       -22.1252
  32   2.0000      -0.784093       -21.3362
  33   2.0000      -0.773048       -21.0357
  34   2.0000      -0.702694       -19.1213
  35   2.0000      -0.692617       -18.8471
  36   2.0000      -0.690350       -18.7854
  37   2.0000      -0.655512       -17.8374
  38   2.0000      -0.634844       -17.2750
  39   2.0000      -0.619887       -16.8680
  40   2.0000      -0.604600       -16.4520
  41   2.0000      -0.569719       -15.5028
  42   2.0000      -0.555349       -15.1118
  43   2.0000      -0.548359       -14.9216
  44   2.0000      -0.543554       -14.7909
  45   2.0000      -0.537910       -14.6373
  46   2.0000      -0.523921       -14.2566
  47   2.0000      -0.515825       -14.0363
  48   2.0000      -0.500392       -13.6164
  49   2.0000      -0.492464       -13.4006
  50   2.0000      -0.484894       -13.1946
  51   2.0000      -0.480700       -13.0805
  52   2.0000      -0.470593       -12.8055
  53   2.0000      -0.467637       -12.7251
  54   2.0000      -0.463162       -12.6033
  55   2.0000      -0.442343       -12.0368
  56   2.0000      -0.441381       -12.0106
  57   2.0000      -0.435692       -11.8558
  58   2.0000      -0.431626       -11.7451
  59   2.0000      -0.429115       -11.6768
  60   2.0000      -0.427089       -11.6217
  61   2.0000      -0.407508       -11.0889
  62   2.0000      -0.398826       -10.8526
  63   2.0000      -0.339319        -9.2333
  64   2.0000      -0.331687        -9.0257
  65   2.0000      -0.318469        -8.6660
  66   2.0000      -0.312820        -8.5123
  67   0.0000       0.043219         1.1760
  68   0.0000       0.050301         1.3688
  69   0.0000       0.105092         2.8597
  70   0.0000       0.119639         3.2556
  71   0.0000       0.129942         3.5359

MULLIKEN ATOMIC CHARGES
-----------------------
   0 S :    0.104172
   1 C :   -0.116128
   2 C :   -0.111333
   3 C :    0.020600
   4 C :   -0.164085
   5 H :    0.041866
   6 C :    0.051830
   7 H :    0.040295
   8 H :    0.015541
   9 C :   -0.060516
  10 H :    0.029985
  11 H :    0.021709
  12 C :   -0.030517
  13 H :    0.035778
  14 H :    0.021597
  15 H :    0.019443
  16 S :    0.129222
  17 C :   -0.084510
  18 C :   -0.059511
  19 C :    0.026568
  20 C :   -0.224582
  21 H :    0.013609
  22 C :    0.080982
  23 H :    0.033586
  24 H :    0.041969
  25 C :   -0.109206
  26 H :    0.016325
  27 H :    0.041022
  28 C :   -0.082898
  29 H :    0.052690
  30 H :    0.051124
  31 H :    0.036151
  32 H :    0.061884
  33 H :    0.055338
Sum of atomic charges:   -0.0000000

LOEWDIN ATOMIC CHARGES
----------------------
   0 S :    0.371123
   1 C :   -0.194894
   2 C :   -0.066623
   3 C :   -0.068771
   4 C :   -0.182457
   5 H :    0.045811
   6 C :   -0.033525
   7 H :    0.039574
   8 H :    0.027612
   9 C :   -0.050016
  10 H :    0.029567
  11 H :    0.021737
  12 C :   -0.064441
  13 H :    0.027842
  14 H :    0.024882
  15 H :    0.019960
  16 S :    0.440783
  17 C :   -0.202118
  18 C :   -0.077478
  19 C :   -0.055362
  20 C :   -0.207070
  21 H :    0.027407
  22 C :   -0.028143
  23 H :    0.036125
  24 H :    0.037773
  25 C :   -0.046375
  26 H :    0.017728
  27 H :    0.026286
  28 C :   -0.074563
  29 H :    0.037683
  30 H :    0.035373
  31 H :    0.019830
  32 H :    0.035283
  33 H :    0.029457

  Mayer bond orders larger than 0.100000
B(  0-S ,  1-C ) :   1.1338 B(  0-S ,  4-C ) :   1.1175 B(  1-C ,  2-C ) :   1.6138
B(  1-C , 32-H ) :   0.9611 B(  2-C ,  3-C ) :   1.2205 B(  2-C ,  6-C ) :   1.0267
B(  3-C ,  4-C ) :   1.6312 B(  3-C ,  5-H ) :   0.9787 B(  4-C , 20-C ) :   1.0060
B(  6-C ,  7-H ) :   0.9367 B(  6-C ,  8-H ) :   0.9411 B(  6-C ,  9-C ) :   1.0680
B(  9-C , 10-H ) :   0.9509 B(  9-C , 11-H ) :   0.9532 B(  9-C , 12-C ) :   1.0863
B( 12-C , 13-H ) :   0.9708 B( 12-C , 14-H ) :   0.9727 B( 12-C , 15-H ) :   0.9712
B( 16-S , 17-C ) :   1.1747 B( 16-S , 20-C ) :   1.1795 B( 17-C , 18-C ) :   1.5760
B( 17-C , 20-C ) :   0.1007 B( 17-C , 33-H ) :   0.9731 B( 18-C , 19-C ) :   1.2659
B( 18-C , 21-H ) :   0.9852 B( 19-C , 20-C ) :   1.5690 B( 19-C , 22-C ) :   1.0367
B( 22-C , 23-H ) :   0.9314 B( 22-C , 24-H ) :   0.9296 B( 22-C , 25-C ) :   1.0841
B( 25-C , 26-H ) :   0.9557 B( 25-C , 27-H ) :   0.9522 B( 25-C , 28-C ) :   1.0625
B( 28-C , 29-H ) :   0.9711 B( 28-C , 30-H ) :   0.9749 B( 28-C , 31-H ) :   0.9778

Dispersion correction           -0.014871164
FINAL SINGLE POINT ENERGY     -1339.872085580140

DIPOLE MOMENT
-------------
                                X             Y             Z
Electronic contribution:     22.36112      -9.10669     -12.13388
Nuclear contribution   :    -22.61272       9.38950      12.43823
                        -----------------------------------------
Total Dipole Moment    :     -0.25160       0.28282       0.30435
                        -----------------------------------------
Magnitude (a.u.)       :      0.48571
Magnitude (Debye)      :      1.23458

Rotational constants in cm-1:     0.018784     0.008801     0.007252
Rotational constants in MHz :   563.122919   263.852369   217.404033

                             ****ORCA TERMINATED NORMALLY****
TOTAL RUN TIME: 0 days 0 hours 0 minutes 36 seconds 957 msec
