                         Program Version 4.2.1 -  RELEASE  -
|  1> ! wB97X-D3 SP def2-SVP
|  2> %pal
|  3> nprocs 16
|  4> end
|  5>
|  6> * xyz 0 1
|  7> S 	 -5.47143 	 10.9713 	 80.6089
|  8> C 	 -6.7127 	 9.66452 	 80.4928
|  9> C 	 -7.80851 	 9.99264 	 81.183
| 10> C 	 -7.75808 	 11.2817 	 81.7295
| 11> C 	 -6.58666 	 12.0011 	 81.4638
| 12> H 	 -8.52716 	 11.746 	 82.3967
| 13> C 	 -9.14807 	 9.21638 	 81.2191
| 14> H 	 -9.46925 	 9.17544 	 82.2776
| 15> H 	 -8.97495 	 8.17044 	 80.9018
| 16> C 	 -10.3659 	 9.74708 	 80.4682
| 17> H 	 -11.2273 	 9.18371 	 80.8056
| 18> H 	 -10.7947 	 10.7098 	 80.8649
| 19> C 	 -10.2842 	 9.53264 	 78.892
| 20> H 	 -9.9478 	 8.47516 	 78.7245
| 21> H 	 -11.3124 	 9.72855 	 78.4846
| 22> H 	 -9.58653 	 10.1736 	 78.4005
| 23> S 	 -4.71875 	 13.6333 	 82.5059
| 24> C 	 -5.1212 	 15.3158 	 82.8615
| 25> C 	 -6.31298 	 15.6585 	 82.2202
| 26> C 	 -7.05367 	 14.5526 	 81.7223
| 27> C 	 -6.29969 	 13.3336 	 81.8059
| 28> H 	 -6.59184 	 16.7185 	 82.2386
| 29> C 	 -8.44949 	 14.7553 	 81.2424
| 30> H 	 -8.82983 	 15.5302 	 81.8292
| 31> H 	 -9.06861 	 13.8154 	 81.4688
| 32> C 	 -8.55524 	 15.0115 	 79.709
| 33> H 	 -7.80329 	 14.3502 	 79.2089
| 34> H 	 -8.18965 	 16.0984 	 79.4939
| 35> C 	 -9.92642 	 14.7971 	 79.1082
| 36> H 	 -10.7645 	 15.2913 	 79.7124
| 37> H 	 -10.1111 	 13.7483 	 79.0797
| 38> H 	 -9.97572 	 15.1267 	 78.0457
| 39> H 	 -6.64714 	 8.65899 	 80.1487
| 40> H 	 -4.56726 	 16.1093 	 83.4282
| 41> *
| 42>
| 43>                          ****END OF INPUT****

CARTESIAN COORDINATES (ANGSTROEM)
---------------------------------
  S     -5.471430   10.971300   80.608900
  C     -6.712700    9.664520   80.492800
  C     -7.808510    9.992640   81.183000
  C     -7.758080   11.281700   81.729500
  C     -6.586660   12.001100   81.463800
  H     -8.527160   11.746000   82.396700
  C     -9.148070    9.216380   81.219100
  H     -9.469250    9.175440   82.277600
  H     -8.974950    8.170440   80.901800
  C    -10.365900    9.747080   80.468200
  H    -11.227300    9.183710   80.805600
  H    -10.794700   10.709800   80.864900
  C    -10.284200    9.532640   78.892000
  H     -9.947800    8.475160   78.724500
  H    -11.312400    9.728550   78.484600
  H     -9.586530   10.173600   78.400500
  S     -4.718750   13.633300   82.505900
  C     -5.121200   15.315800   82.861500
  C     -6.312980   15.658500   82.220200
  C     -7.053670   14.552600   81.722300
  C     -6.299690   13.333600   81.805900
  H     -6.591840   16.718500   82.238600
  C     -8.449490   14.755300   81.242400
  H     -8.829830   15.530200   81.829200
  H     -9.068610   13.815400   81.468800
  C     -8.555240   15.011500   79.709000
  H     -7.803290   14.350200   79.208900
  H     -8.189650   16.098400   79.493900
  C     -9.926420   14.797100   79.108200
  H    -10.764500   15.291300   79.712400
  H    -10.111100   13.748300   79.079700
  H     -9.975720   15.126700   78.045700
  H     -6.647140    8.658990   80.148700
  H     -4.567260   16.109300   83.428200

 Total Charge           Charge          ....    0
 Multiplicity           Mult            ....    1
 Number of Electrons    NEL             ....  134
 Basis Dimension        Dim             ....  322

ORBITAL ENERGIES
----------------

  NO   OCC          E(Eh)            E(eV)
   0   2.0000     -88.969641     -2420.9870
   1   2.0000     -88.967307     -2420.9235
   2   2.0000     -10.329603      -281.0828
   3   2.0000     -10.329016      -281.0668
   4   2.0000     -10.324438      -280.9422
   5   2.0000     -10.310168      -280.5539
   6   2.0000     -10.309406      -280.5332
   7   2.0000     -10.299476      -280.2630
   8   2.0000     -10.296950      -280.1943
   9   2.0000     -10.295161      -280.1456
  10   2.0000     -10.295037      -280.1422
  11   2.0000     -10.294820      -280.1363
  12   2.0000     -10.292877      -280.0834
  13   2.0000     -10.292329      -280.0685
  14   2.0000     -10.287294      -279.9315
  15   2.0000     -10.281934      -279.7857
  16   2.0000      -8.083780      -219.9708
  17   2.0000      -8.081294      -219.9032
  18   2.0000      -6.042331      -164.4202
  19   2.0000      -6.040009      -164.3570
  20   2.0000      -6.038310      -164.3108
  21   2.0000      -6.035965      -164.2470
  22   2.0000      -6.034575      -164.2091
  23   2.0000      -6.031803      -164.1337
  24   2.0000      -1.007910       -27.4266
  25   2.0000      -0.982183       -26.7266
  26   2.0000      -0.910072       -24.7643
  27   2.0000      -0.905958       -24.6524
  28   2.0000      -0.873691       -23.7743
  29   2.0000      -0.851557       -23.1720
  30   2.0000      -0.840073       -22.8595
  31   2.0000      -0.811139       -22.0722
  32   2.0000      -0.782798       -21.3010
  33   2.0000      -0.772710       -21.0265
  34   2.0000      -0.714352       -19.4385
  35   2.0000      -0.701039       -19.0762
  36   2.0000      -0.688023       -18.7221
  37   2.0000      -0.660137       -17.9632
  38   2.0000      -0.634065       -17.2538
  39   2.0000      -0.617124       -16.7928
  40   2.0000      -0.589720       -16.0471
  41   2.0000      -0.565823       -15.3968
  42   2.0000      -0.558351       -15.1935
  43   2.0000      -0.547891       -14.9089
  44   2.0000      -0.535188       -14.5632
  45   2.0000      -0.522904       -14.2289
  46   2.0000      -0.515968       -14.0402
  47   2.0000      -0.511093       -13.9075
  48   2.0000      -0.506380       -13.7793
  49   2.0000      -0.496534       -13.5114
  50   2.0000      -0.490688       -13.3523
  51   2.0000      -0.484753       -13.1908
  52   2.0000      -0.469762       -12.7829
  53   2.0000      -0.466424       -12.6920
  54   2.0000      -0.455701       -12.4003
  55   2.0000      -0.448928       -12.2160
  56   2.0000      -0.444934       -12.1073
  57   2.0000      -0.436791       -11.8857
  58   2.0000      -0.430382       -11.7113
  59   2.0000      -0.427407       -11.6303
  60   2.0000      -0.421466       -11.4687
  61   2.0000      -0.410081       -11.1589
  62   2.0000      -0.406625       -11.0648
  63   2.0000      -0.351549        -9.5661
  64   2.0000      -0.332875        -9.0580
  65   2.0000      -0.330627        -8.9968
  66   2.0000      -0.283423        -7.7123
  67   0.0000       0.020388         0.5548
  68   0.0000       0.068644         1.8679
  69   0.0000       0.100880         2.7451
  70   0.0000       0.116863         3.1800
  71   0.0000       0.125499         3.4150

MULLIKEN ATOMIC CHARGES
-----------------------
   0 S :    0.103195
   1 C :   -0.108262
   2 C :   -0.044148
   3 C :   -0.017326
   4 C :   -0.137957
   5 H :    0.030938
   6 C :    0.041249
   7 H :    0.032444
   8 H :    0.018432
   9 C :   -0.072209
  10 H :    0.018568
  11 H :    0.023487
  12 C :   -0.059842
  13 H :    0.034374
  14 H :    0.044816
  15 H :    0.045131
  16 S :    0.112333
  17 C :   -0.110996
  18 C :   -0.060281
  19 C :   -0.028189
  20 C :   -0.158497
  21 H :    0.028699
  22 C :    0.083102
  23 H :    0.013698
  24 H :    0.024037
  25 C :   -0.106922
  26 H :    0.047625
  27 H :    0.034159
  28 C :   -0.049884
  29 H :    0.041218
  30 H :    0.029878
  31 H :    0.042976
  32 H :    0.028447
  33 H :    0.075707
Sum of atomic charges:    0.0000000

LOEWDIN ATOMIC CHARGES
----------------------
   0 S :    0.384263
   1 C :   -0.181798
   2 C :   -0.070302
   3 C :   -0.071740
   4 C :   -0.195048
   5 H :    0.035825
   6 C :   -0.031489
   7 H :    0.036027
   8 H :    0.027640
   9 C :   -0.052528
  10 H :    0.025842
  11 H :    0.027379
  12 C :   -0.064723
  13 H :    0.030069
  14 H :    0.032575
  15 H :    0.020684
  16 S :    0.407692
  17 C :   -0.194701
  18 C :   -0.074308
  19 C :   -0.047606
  20 C :   -0.201917
  21 H :    0.035356
  22 C :   -0.033836
  23 H :    0.022178
  24 H :    0.036942
  25 C :   -0.047150
  26 H :    0.032147
  27 H :    0.028029
  28 C :   -0.073968
  29 H :    0.032501
  30 H :    0.020939
  31 H :    0.032968
  32 H :    0.027272
  33 H :    0.044785

  Mayer bond orders larger than 0.100000
B(  0-S ,  1-C ) :   1.1026 B(  0-S ,  4-C ) :   1.1332 B(  1-C ,  2-C ) :   1.6591
B(  1-C , 32-H ) :   0.9610 B(  2-C ,  3-C ) :   1.2270 B(  2-C ,  6-C ) :   1.0205
B(  3-C ,  4-C ) :   1.5697 B(  3-C ,  5-H ) :   0.9862 B(  4-C , 20-C ) :   1.1020
B(  6-C ,  7-H ) :   0.9344 B(  6-C ,  8-H ) :   0.9418 B(  6-C ,  9-C ) :   1.0920
B(  9-C , 10-H ) :   0.9464 B(  9-C , 11-H ) :   0.9483 B(  9-C , 12-C ) :   1.0536
B( 12-C , 13-H ) :   0.9737 B( 12-C , 14-H ) :   0.9765 B( 12-C , 15-H ) :   0.9829
B( 16-S , 17-C ) :   1.1548 B( 16-S , 20-C ) :   1.1398 B( 17-C , 18-C ) :   1.6037
B( 17-C , 20-C ) :   0.1136 B( 17-C , 33-H ) :   0.9601 B( 18-C , 19-C ) :   1.2628
B( 18-C , 21-H ) :   0.9822 B( 19-C , 20-C ) :   1.5268 B( 19-C , 22-C ) :   1.0527
B( 22-C , 23-H ) :   0.9222 B( 22-C , 24-H ) :   0.9364 B( 22-C , 25-C ) :   1.0482
B( 25-C , 26-H ) :   0.9600 B( 25-C , 27-H ) :   0.9525 B( 25-C , 28-C ) :   1.0838
B( 28-C , 29-H ) :   0.9718 B( 28-C , 30-H ) :   0.9733 B( 28-C , 31-H ) :   0.9714

Dispersion correction           -0.014616480
FINAL SINGLE POINT ENERGY     -1339.863680994235

DIPOLE MOMENT
-------------
                                X             Y             Z
Electronic contribution:     29.23480       1.10158      11.70569
Nuclear contribution   :    -29.99776      -0.93025     -11.65996
                        -----------------------------------------
Total Dipole Moment    :     -0.76296       0.17133       0.04572
                        -----------------------------------------
Magnitude (a.u.)       :      0.78329
Magnitude (Debye)      :      1.99098

Rotational constants in cm-1:     0.018013     0.009847     0.007110
Rotational constants in MHz :   540.026377   295.207928   213.138378

                             ****ORCA TERMINATED NORMALLY****
TOTAL RUN TIME: 0 days 0 hours 0 minutes 35 seconds 862 msec
