                         Program Version 4.2.1 -  RELEASE  -
|  1> ! wB97X-D3 SP def2-SVP
|  2> %pal
|  3> nprocs 16
|  4> end
|  5>
|  6> * xyz 0 1
|  7> S 	 -0.696249 	 -19.8618 	 91.052
|  8> C 	 -1.85123 	 -19.4033 	 89.7303
|  9> C 	 -1.16261 	 -19.0462 	 88.5494
| 10> C 	 0.258448 	 -19.2513 	 88.6843
| 11> C 	 0.635021 	 -19.5919 	 89.9837
| 12> H 	 0.978671 	 -19.1188 	 87.8776
| 13> C 	 -1.89291 	 -18.681 	 87.2647
| 14> H 	 -1.37158 	 -17.7798 	 86.8265
| 15> H 	 -2.90468 	 -18.3994 	 87.5157
| 16> C 	 -1.95267 	 -19.661 	 86.0462
| 17> H 	 -2.30945 	 -19.2335 	 85.1253
| 18> H 	 -0.896896 	 -19.9142 	 85.9751
| 19> C 	 -2.72288 	 -21.0304 	 86.3698
| 20> H 	 -2.95592 	 -21.4875 	 85.4505
| 21> H 	 -2.04222 	 -21.7017 	 86.8846
| 22> H 	 -3.58603 	 -20.9014 	 86.9749
| 23> S 	 2.59805 	 -19.328 	 91.9363
| 24> C 	 4.21042 	 -19.8799 	 91.5309
| 25> C 	 4.29109 	 -20.427 	 90.2471
| 26> C 	 3.0365 	 -20.4106 	 89.5394
| 27> C 	 2.03279 	 -19.7632 	 90.2633
| 28> H 	 5.21692 	 -20.7842 	 89.8771
| 29> C 	 2.72641 	 -21.1356 	 88.1711
| 30> H 	 1.68184 	 -21.1199 	 87.8426
| 31> H 	 3.08307 	 -22.1527 	 88.3622
| 32> C 	 3.6439 	 -20.7209 	 87.0082
| 33> H 	 4.62463 	 -20.9862 	 87.4212
| 34> H 	 3.58376 	 -19.6638 	 86.9099
| 35> C 	 3.34134 	 -21.4686 	 85.7095
| 36> H 	 2.30607 	 -21.494 	 85.4059
| 37> H 	 3.57403 	 -22.4721 	 85.843
| 38> H 	 3.99842 	 -21.2279 	 84.853
| 39> H 	 -2.934 	 -19.3108 	 89.8041
| 40> H 	 5.10223 	 -19.6112 	 92.0851
| 41> *
| 42>
| 43>                          ****END OF INPUT****

CARTESIAN COORDINATES (ANGSTROEM)
---------------------------------
  S     -0.696249  -19.861800   91.052000
  C     -1.851230  -19.403300   89.730300
  C     -1.162610  -19.046200   88.549400
  C      0.258448  -19.251300   88.684300
  C      0.635021  -19.591900   89.983700
  H      0.978671  -19.118800   87.877600
  C     -1.892910  -18.681000   87.264700
  H     -1.371580  -17.779800   86.826500
  H     -2.904680  -18.399400   87.515700
  C     -1.952670  -19.661000   86.046200
  H     -2.309450  -19.233500   85.125300
  H     -0.896896  -19.914200   85.975100
  C     -2.722880  -21.030400   86.369800
  H     -2.955920  -21.487500   85.450500
  H     -2.042220  -21.701700   86.884600
  H     -3.586030  -20.901400   86.974900
  S      2.598050  -19.328000   91.936300
  C      4.210420  -19.879900   91.530900
  C      4.291090  -20.427000   90.247100
  C      3.036500  -20.410600   89.539400
  C      2.032790  -19.763200   90.263300
  H      5.216920  -20.784200   89.877100
  C      2.726410  -21.135600   88.171100
  H      1.681840  -21.119900   87.842600
  H      3.083070  -22.152700   88.362200
  C      3.643900  -20.720900   87.008200
  H      4.624630  -20.986200   87.421200
  H      3.583760  -19.663800   86.909900
  C      3.341340  -21.468600   85.709500
  H      2.306070  -21.494000   85.405900
  H      3.574030  -22.472100   85.843000
  H      3.998420  -21.227900   84.853000
  H     -2.934000  -19.310800   89.804100
  H      5.102230  -19.611200   92.085100

 Total Charge           Charge          ....    0
 Multiplicity           Mult            ....    1
 Number of Electrons    NEL             ....  134
 Basis Dimension        Dim             ....  322

ORBITAL ENERGIES
----------------

  NO   OCC          E(Eh)            E(eV)
   0   2.0000     -88.974965     -2421.1319
   1   2.0000     -88.966994     -2420.9150
   2   2.0000     -10.331815      -281.1430
   3   2.0000     -10.330236      -281.1000
   4   2.0000     -10.322122      -280.8792
   5   2.0000     -10.321992      -280.8757
   6   2.0000     -10.313682      -280.6496
   7   2.0000     -10.309120      -280.5254
   8   2.0000     -10.299750      -280.2704
   9   2.0000     -10.297895      -280.2200
  10   2.0000     -10.297362      -280.2055
  11   2.0000     -10.296053      -280.1699
  12   2.0000     -10.292765      -280.0804
  13   2.0000     -10.286962      -279.9225
  14   2.0000     -10.276770      -279.6451
  15   2.0000     -10.272260      -279.5224
  16   2.0000      -8.088503      -220.0993
  17   2.0000      -8.080795      -219.8896
  18   2.0000      -6.047223      -164.5533
  19   2.0000      -6.043244      -164.4450
  20   2.0000      -6.039373      -164.3397
  21   2.0000      -6.039032      -164.3304
  22   2.0000      -6.035503      -164.2344
  23   2.0000      -6.031492      -164.1252
  24   2.0000      -1.001660       -27.2565
  25   2.0000      -0.974773       -26.5249
  26   2.0000      -0.910894       -24.7867
  27   2.0000      -0.905111       -24.6293
  28   2.0000      -0.866851       -23.5882
  29   2.0000      -0.852263       -23.1913
  30   2.0000      -0.842148       -22.9160
  31   2.0000      -0.808836       -22.0096
  32   2.0000      -0.787184       -21.4204
  33   2.0000      -0.775946       -21.1146
  34   2.0000      -0.711112       -19.3504
  35   2.0000      -0.698844       -19.0165
  36   2.0000      -0.697412       -18.9775
  37   2.0000      -0.660642       -17.9770
  38   2.0000      -0.633879       -17.2487
  39   2.0000      -0.620757       -16.8917
  40   2.0000      -0.594190       -16.1687
  41   2.0000      -0.575380       -15.6569
  42   2.0000      -0.562884       -15.3169
  43   2.0000      -0.548500       -14.9255
  44   2.0000      -0.541051       -14.7228
  45   2.0000      -0.523514       -14.2455
  46   2.0000      -0.519666       -14.1408
  47   2.0000      -0.510741       -13.8980
  48   2.0000      -0.500495       -13.6192
  49   2.0000      -0.495434       -13.4814
  50   2.0000      -0.490185       -13.3386
  51   2.0000      -0.486638       -13.2421
  52   2.0000      -0.473185       -12.8760
  53   2.0000      -0.466289       -12.6884
  54   2.0000      -0.459060       -12.4917
  55   2.0000      -0.455280       -12.3888
  56   2.0000      -0.447678       -12.1819
  57   2.0000      -0.436960       -11.8903
  58   2.0000      -0.431176       -11.7329
  59   2.0000      -0.427609       -11.6358
  60   2.0000      -0.420318       -11.4374
  61   2.0000      -0.418628       -11.3915
  62   2.0000      -0.413475       -11.2512
  63   2.0000      -0.351364        -9.5611
  64   2.0000      -0.333357        -9.0711
  65   2.0000      -0.333077        -9.0635
  66   2.0000      -0.283104        -7.7037
  67   0.0000       0.020828         0.5668
  68   0.0000       0.067401         1.8341
  69   0.0000       0.100090         2.7236
  70   0.0000       0.112963         3.0739
  71   0.0000       0.116518         3.1706

MULLIKEN ATOMIC CHARGES
-----------------------
   0 S :    0.123919
   1 C :   -0.132217
   2 C :   -0.060989
   3 C :   -0.027087
   4 C :   -0.102501
   5 H :    0.023247
   6 C :    0.037302
   7 H :    0.040278
   8 H :    0.014996
   9 C :   -0.073507
  10 H :    0.039489
  11 H :    0.020895
  12 C :   -0.034080
  13 H :    0.023681
  14 H :    0.035451
  15 H :    0.025481
  16 S :    0.091123
  17 C :   -0.086445
  18 C :   -0.031423
  19 C :   -0.015291
  20 C :   -0.173886
  21 H :    0.008744
  22 C :    0.031360
  23 H :    0.041270
  24 H :    0.029262
  25 C :   -0.081484
  26 H :    0.025777
  27 H :    0.026397
  28 C :   -0.005901
  29 H :    0.027729
  30 H :    0.002123
  31 H :    0.038849
  32 H :    0.051502
  33 H :    0.065937
Sum of atomic charges:   -0.0000000

LOEWDIN ATOMIC CHARGES
----------------------
   0 S :    0.398335
   1 C :   -0.188636
   2 C :   -0.055371
   3 C :   -0.066441
   4 C :   -0.199077
   5 H :    0.032190
   6 C :   -0.035583
   7 H :    0.039173
   8 H :    0.021821
   9 C :   -0.033018
  10 H :    0.022955
  11 H :    0.021441
  12 C :   -0.058992
  13 H :    0.019431
  14 H :    0.028260
  15 H :    0.017799
  16 S :    0.370537
  17 C :   -0.180365
  18 C :   -0.067109
  19 C :   -0.047668
  20 C :   -0.171368
  21 H :    0.024576
  22 C :   -0.026750
  23 H :    0.026976
  24 H :    0.033215
  25 C :   -0.038318
  26 H :    0.024379
  27 H :    0.014439
  28 C :   -0.065433
  29 H :    0.025020
  30 H :    0.018239
  31 H :    0.034080
  32 H :    0.029445
  33 H :    0.031820

  Mayer bond orders larger than 0.100000
B(  0-S ,  1-C ) :   1.1119 B(  0-S ,  4-C ) :   1.1466 B(  1-C ,  2-C ) :   1.6066
B(  1-C , 32-H ) :   0.9646 B(  2-C ,  3-C ) :   1.2280 B(  2-C ,  6-C ) :   1.0388
B(  3-C ,  4-C ) :   1.5409 B(  3-C ,  5-H ) :   0.9930 B(  4-C , 20-C ) :   1.0940
B(  6-C ,  7-H ) :   0.9383 B(  6-C ,  8-H ) :   0.9420 B(  6-C ,  9-C ) :   1.0602
B(  9-C , 10-H ) :   0.9629 B(  9-C , 11-H ) :   0.9603 B(  9-C , 12-C ) :   1.0610
B( 12-C , 13-H ) :   0.9779 B( 12-C , 14-H ) :   0.9784 B( 12-C , 15-H ) :   0.9824
B( 16-S , 17-C ) :   1.1498 B( 16-S , 20-C ) :   1.1105 B( 17-C , 18-C ) :   1.6246
B( 17-C , 33-H ) :   0.9620 B( 18-C , 19-C ) :   1.2264 B( 18-C , 21-H ) :   0.9917
B( 19-C , 20-C ) :   1.6006 B( 19-C , 22-C ) :   1.0200 B( 22-C , 23-H ) :   0.9458
B( 22-C , 24-H ) :   0.9357 B( 22-C , 25-C ) :   1.0433 B( 25-C , 26-H ) :   0.9584
B( 25-C , 27-H ) :   0.9622 B( 25-C , 28-C ) :   1.0814 B( 28-C , 29-H ) :   0.9742
B( 28-C , 30-H ) :   0.9665 B( 28-C , 31-H ) :   0.9720

Dispersion correction           -0.014475261
FINAL SINGLE POINT ENERGY     -1339.865184840463

DIPOLE MOMENT
-------------
                                X             Y             Z
Electronic contribution:      2.90595       7.59698      31.51837
Nuclear contribution   :     -2.74647      -7.79460     -32.27437
                        -----------------------------------------
Total Dipole Moment    :      0.15948      -0.19762      -0.75600
                        -----------------------------------------
Magnitude (a.u.)       :      0.79751
Magnitude (Debye)      :      2.02711

Rotational constants in cm-1:     0.016777     0.009971     0.006672
Rotational constants in MHz :   502.975283   298.935730   200.027183

                             ****ORCA TERMINATED NORMALLY****
TOTAL RUN TIME: 0 days 0 hours 0 minutes 33 seconds 12 msec
