                         Program Version 4.2.1 -  RELEASE  -
|  1> ! wB97X-D3 SP def2-SVP
|  2> %pal
|  3> nprocs 16
|  4> end
|  5>
|  6> * xyz 0 1
|  7> S 	 -33.1592 	 75.1054 	 165.829
|  8> C 	 -32.7918 	 75.0304 	 164.136
|  9> C 	 -33.9296 	 75.3612 	 163.38
| 10> C 	 -35.1299 	 75.3787 	 164.187
| 11> C 	 -34.852 	 75.3167 	 165.553
| 12> H 	 -36.1286 	 75.4014 	 163.837
| 13> C 	 -33.9713 	 75.5592 	 161.937
| 14> H 	 -33.2066 	 76.2943 	 161.729
| 15> H 	 -34.8587 	 76.0378 	 161.61
| 16> C 	 -33.7142 	 74.2789 	 161.08
| 17> H 	 -32.8828 	 73.7545 	 161.393
| 18> H 	 -34.5475 	 73.5536 	 161.167
| 19> C 	 -33.5332 	 74.6037 	 159.667
| 20> H 	 -32.6727 	 75.316 	 159.53
| 21> H 	 -33.4055 	 73.6241 	 159.164
| 22> H 	 -34.3176 	 75.1357 	 159.153
| 23> S 	 -35.5291 	 76.7285 	 167.778
| 24> C 	 -36.9892 	 76.3115 	 168.691
| 25> C 	 -37.5771 	 75.1299 	 168.18
| 26> C 	 -36.8642 	 74.5761 	 167.029
| 27> C 	 -35.8144 	 75.4844 	 166.631
| 28> H 	 -38.5395 	 74.8175 	 168.481
| 29> C 	 -37.546 	 73.4328 	 166.387
| 30> H 	 -37.0869 	 73.175 	 165.469
| 31> H 	 -38.4653 	 73.7748 	 166.118
| 32> C 	 -37.7403 	 72.1564 	 167.286
| 33> H 	 -38.5078 	 71.5011 	 166.766
| 34> H 	 -38.2165 	 72.5081 	 168.261
| 35> C 	 -36.37 	 71.5507 	 167.587
| 36> H 	 -36.3308 	 70.5658 	 168.172
| 37> H 	 -35.6408 	 72.2375 	 168.174
| 38> H 	 -35.8629 	 71.2295 	 166.646
| 39> H 	 -31.7921 	 74.9777 	 163.711
| 40> H 	 -37.2942 	 76.8967 	 169.482
| 41> *
| 42>
| 43>                          ****END OF INPUT****

CARTESIAN COORDINATES (ANGSTROEM)
---------------------------------
  S    -33.159200   75.105400  165.829000
  C    -32.791800   75.030400  164.136000
  C    -33.929600   75.361200  163.380000
  C    -35.129900   75.378700  164.187000
  C    -34.852000   75.316700  165.553000
  H    -36.128600   75.401400  163.837000
  C    -33.971300   75.559200  161.937000
  H    -33.206600   76.294300  161.729000
  H    -34.858700   76.037800  161.610000
  C    -33.714200   74.278900  161.080000
  H    -32.882800   73.754500  161.393000
  H    -34.547500   73.553600  161.167000
  C    -33.533200   74.603700  159.667000
  H    -32.672700   75.316000  159.530000
  H    -33.405500   73.624100  159.164000
  H    -34.317600   75.135700  159.153000
  S    -35.529100   76.728500  167.778000
  C    -36.989200   76.311500  168.691000
  C    -37.577100   75.129900  168.180000
  C    -36.864200   74.576100  167.029000
  C    -35.814400   75.484400  166.631000
  H    -38.539500   74.817500  168.481000
  C    -37.546000   73.432800  166.387000
  H    -37.086900   73.175000  165.469000
  H    -38.465300   73.774800  166.118000
  C    -37.740300   72.156400  167.286000
  H    -38.507800   71.501100  166.766000
  H    -38.216500   72.508100  168.261000
  C    -36.370000   71.550700  167.587000
  H    -36.330800   70.565800  168.172000
  H    -35.640800   72.237500  168.174000
  H    -35.862900   71.229500  166.646000
  H    -31.792100   74.977700  163.711000
  H    -37.294200   76.896700  169.482000

 Total Charge           Charge          ....    0
 Multiplicity           Mult            ....    1
 Number of Electrons    NEL             ....  134
 Basis Dimension        Dim             ....  322

ORBITAL ENERGIES
----------------

  NO   OCC          E(Eh)            E(eV)
   0   2.0000     -88.966890     -2420.9122
   1   2.0000     -88.965439     -2420.8727
   2   2.0000     -10.329311      -281.0748
   3   2.0000     -10.324626      -280.9474
   4   2.0000     -10.317592      -280.7559
   5   2.0000     -10.311795      -280.5982
   6   2.0000     -10.308258      -280.5020
   7   2.0000     -10.301730      -280.3243
   8   2.0000     -10.298867      -280.2464
   9   2.0000     -10.296300      -280.1766
  10   2.0000     -10.290589      -280.0212
  11   2.0000     -10.288102      -279.9535
  12   2.0000     -10.282912      -279.8123
  13   2.0000     -10.281017      -279.7607
  14   2.0000     -10.279357      -279.7155
  15   2.0000     -10.276619      -279.6410
  16   2.0000      -8.081820      -219.9175
  17   2.0000      -8.080509      -219.8818
  18   2.0000      -6.040232      -164.3631
  19   2.0000      -6.038998      -164.3295
  20   2.0000      -6.036215      -164.2538
  21   2.0000      -6.034847      -164.2165
  22   2.0000      -6.032768      -164.1600
  23   2.0000      -6.031395      -164.1226
  24   2.0000      -1.003797       -27.3147
  25   2.0000      -0.979250       -26.6467
  26   2.0000      -0.920128       -25.0380
  27   2.0000      -0.911040       -24.7907
  28   2.0000      -0.869397       -23.6575
  29   2.0000      -0.852993       -23.2111
  30   2.0000      -0.842217       -22.9179
  31   2.0000      -0.812010       -22.0959
  32   2.0000      -0.780302       -21.2331
  33   2.0000      -0.766612       -20.8606
  34   2.0000      -0.705468       -19.1968
  35   2.0000      -0.701498       -19.0887
  36   2.0000      -0.693884       -18.8815
  37   2.0000      -0.660233       -17.9658
  38   2.0000      -0.644075       -17.5262
  39   2.0000      -0.617790       -16.8109
  40   2.0000      -0.602438       -16.3932
  41   2.0000      -0.574884       -15.6434
  42   2.0000      -0.558166       -15.1885
  43   2.0000      -0.554121       -15.0784
  44   2.0000      -0.537110       -14.6155
  45   2.0000      -0.533882       -14.5277
  46   2.0000      -0.517823       -14.0907
  47   2.0000      -0.508161       -13.8278
  48   2.0000      -0.503133       -13.6909
  49   2.0000      -0.496887       -13.5210
  50   2.0000      -0.494409       -13.4535
  51   2.0000      -0.476097       -12.9553
  52   2.0000      -0.471655       -12.8344
  53   2.0000      -0.461001       -12.5445
  54   2.0000      -0.454707       -12.3732
  55   2.0000      -0.451486       -12.2856
  56   2.0000      -0.441585       -12.0161
  57   2.0000      -0.440691       -11.9918
  58   2.0000      -0.429691       -11.6925
  59   2.0000      -0.426801       -11.6138
  60   2.0000      -0.417966       -11.3734
  61   2.0000      -0.415284       -11.3005
  62   2.0000      -0.413381       -11.2487
  63   2.0000      -0.338328        -9.2064
  64   2.0000      -0.325796        -8.8654
  65   2.0000      -0.323120        -8.7925
  66   2.0000      -0.290449        -7.9035
  67   0.0000       0.036137         0.9833
  68   0.0000       0.060300         1.6409
  69   0.0000       0.112839         3.0705
  70   0.0000       0.114535         3.1167
  71   0.0000       0.128200         3.4885

MULLIKEN ATOMIC CHARGES
-----------------------
   0 S :    0.124274
   1 C :   -0.123435
   2 C :   -0.095710
   3 C :    0.044623
   4 C :   -0.148448
   5 H :   -0.001468
   6 C :    0.078243
   7 H :    0.019306
   8 H :    0.005274
   9 C :   -0.033340
  10 H :    0.008461
  11 H :    0.025805
  12 C :   -0.050874
  13 H :    0.026113
  14 H :    0.039057
  15 H :    0.021962
  16 S :    0.110894
  17 C :   -0.075657
  18 C :   -0.023689
  19 C :   -0.035571
  20 C :   -0.176100
  21 H :    0.017240
  22 C :    0.116742
  23 H :    0.004366
  24 H :    0.007535
  25 C :   -0.094284
  26 H :    0.047626
  27 H :    0.039625
  28 C :   -0.106739
  29 H :    0.040659
  30 H :    0.066127
  31 H :    0.035218
  32 H :    0.051436
  33 H :    0.034728
Sum of atomic charges:   -0.0000000

LOEWDIN ATOMIC CHARGES
----------------------
   0 S :    0.426282
   1 C :   -0.214050
   2 C :   -0.057494
   3 C :   -0.057140
   4 C :   -0.207579
   5 H :    0.024710
   6 C :   -0.033771
   7 H :    0.032985
   8 H :    0.025669
   9 C :   -0.032548
  10 H :    0.014649
  11 H :    0.028290
  12 C :   -0.069015
  13 H :    0.027437
  14 H :    0.032924
  15 H :    0.019367
  16 S :    0.418231
  17 C :   -0.167985
  18 C :   -0.057788
  19 C :   -0.046179
  20 C :   -0.216753
  21 H :    0.022423
  22 C :   -0.026921
  23 H :    0.023471
  24 H :    0.021649
  25 C :   -0.042228
  26 H :    0.033130
  27 H :    0.027951
  28 C :   -0.088518
  29 H :    0.030132
  30 H :    0.041975
  31 H :    0.027229
  32 H :    0.029110
  33 H :    0.010356

  Mayer bond orders larger than 0.100000
B(  0-S ,  1-C ) :   1.1441 B(  0-S ,  4-C ) :   1.1699 B(  1-C ,  2-C ) :   1.5791
B(  1-C , 32-H ) :   0.9699 B(  2-C ,  3-C ) :   1.2490 B(  2-C ,  6-C ) :   1.0474
B(  3-C ,  4-C ) :   1.5550 B(  3-C ,  5-H ) :   1.0016 B(  4-C , 20-C ) :   1.0321
B(  6-C ,  7-H ) :   0.9294 B(  6-C ,  8-H ) :   0.9375 B(  6-C ,  9-C ) :   1.0631
B(  9-C , 10-H ) :   0.9528 B(  9-C , 11-H ) :   0.9509 B(  9-C , 12-C ) :   1.0948
B( 12-C , 13-H ) :   0.9703 B( 12-C , 14-H ) :   0.9699 B( 12-C , 15-H ) :   0.9726
B( 16-S , 17-C ) :   1.1564 B( 16-S , 20-C ) :   1.1643 B( 17-C , 18-C ) :   1.5849
B( 17-C , 20-C ) :   0.1029 B( 17-C , 33-H ) :   0.9829 B( 18-C , 19-C ) :   1.2348
B( 18-C , 21-H ) :   0.9881 B( 19-C , 20-C ) :   1.5432 B( 19-C , 22-C ) :   1.0477
B( 22-C , 23-H ) :   0.9295 B( 22-C , 24-H ) :   0.9300 B( 22-C , 25-C ) :   1.0616
B( 25-C , 26-H ) :   0.9560 B( 25-C , 27-H ) :   0.9556 B( 25-C , 28-C ) :   1.0582
B( 28-C , 29-H ) :   0.9746 B( 28-C , 30-H ) :   0.9709 B( 28-C , 31-H ) :   0.9744

Dispersion correction           -0.013970680
FINAL SINGLE POINT ENERGY     -1339.858861532507

DIPOLE MOMENT
-------------
                                X             Y             Z
Electronic contribution:      5.44348      15.81835      18.51764
Nuclear contribution   :     -5.84913     -16.01029     -18.96728
                        -----------------------------------------
Total Dipole Moment    :     -0.40565      -0.19194      -0.44964
                        -----------------------------------------
Magnitude (a.u.)       :      0.63527
Magnitude (Debye)      :      1.61473

Rotational constants in cm-1:     0.021204     0.007473     0.006460
Rotational constants in MHz :   635.667667   224.021282   193.656051

                             ****ORCA TERMINATED NORMALLY****
TOTAL RUN TIME: 0 days 0 hours 0 minutes 34 seconds 267 msec
