                         Program Version 4.2.1 -  RELEASE  -
|  1> ! wB97X-D3 SP def2-SVP
|  2> %pal
|  3> nprocs 16
|  4> end
|  5>
|  6> * xyz 0 1
|  7> S 	 -64.4422 	 38.8004 	 134.803
|  8> C 	 -63.0262 	 39.7453 	 134.739
|  9> C 	 -61.8692 	 39.0512 	 135.123
| 10> C 	 -62.1779 	 37.6953 	 135.173
| 11> C 	 -63.4966 	 37.3394 	 135.021
| 12> H 	 -61.394 	 36.929 	 135.259
| 13> C 	 -60.4151 	 39.6288 	 135.052
| 14> H 	 -60.6135 	 40.6102 	 135.49
| 15> H 	 -60.3259 	 39.7446 	 133.922
| 16> C 	 -59.4537 	 38.8223 	 135.843
| 17> H 	 -59.8786 	 38.7092 	 136.838
| 18> H 	 -59.2946 	 37.8318 	 135.455
| 19> C 	 -58.1128 	 39.5638 	 135.847
| 20> H 	 -57.5048 	 39.6757 	 134.888
| 21> H 	 -58.3295 	 40.6037 	 136.065
| 22> H 	 -57.3488 	 39.0316 	 136.509
| 23> S 	 -65.7323 	 35.9382 	 135.706
| 24> C 	 -65.9592 	 34.2161 	 135.24
| 25> C 	 -64.8225 	 33.8258 	 134.644
| 26> C 	 -63.8918 	 34.8751 	 134.371
| 27> C 	 -64.2255 	 36.0588 	 134.96
| 28> H 	 -64.7716 	 32.798 	 134.339
| 29> C 	 -62.6207 	 34.5796 	 133.6
| 30> H 	 -62.5618 	 33.505 	 133.44
| 31> H 	 -61.7477 	 34.8272 	 134.143
| 32> C 	 -62.5582 	 35.2812 	 132.209
| 33> H 	 -61.9346 	 34.7423 	 131.554
| 34> H 	 -62.1569 	 36.2902 	 132.344
| 35> C 	 -63.9412 	 35.3537 	 131.476
| 36> H 	 -64.6805 	 35.8931 	 132.065
| 37> H 	 -64.432 	 34.3977 	 131.402
| 38> H 	 -63.9228 	 35.9 	 130.491
| 39> H 	 -62.9529 	 40.744 	 134.354
| 40> H 	 -66.8354 	 33.5543 	 135.484
| 41> *
| 42>
| 43>                          ****END OF INPUT****

CARTESIAN COORDINATES (ANGSTROEM)
---------------------------------
  S    -64.442200   38.800400  134.803000
  C    -63.026200   39.745300  134.739000
  C    -61.869200   39.051200  135.123000
  C    -62.177900   37.695300  135.173000
  C    -63.496600   37.339400  135.021000
  H    -61.394000   36.929000  135.259000
  C    -60.415100   39.628800  135.052000
  H    -60.613500   40.610200  135.490000
  H    -60.325900   39.744600  133.922000
  C    -59.453700   38.822300  135.843000
  H    -59.878600   38.709200  136.838000
  H    -59.294600   37.831800  135.455000
  C    -58.112800   39.563800  135.847000
  H    -57.504800   39.675700  134.888000
  H    -58.329500   40.603700  136.065000
  H    -57.348800   39.031600  136.509000
  S    -65.732300   35.938200  135.706000
  C    -65.959200   34.216100  135.240000
  C    -64.822500   33.825800  134.644000
  C    -63.891800   34.875100  134.371000
  C    -64.225500   36.058800  134.960000
  H    -64.771600   32.798000  134.339000
  C    -62.620700   34.579600  133.600000
  H    -62.561800   33.505000  133.440000
  H    -61.747700   34.827200  134.143000
  C    -62.558200   35.281200  132.209000
  H    -61.934600   34.742300  131.554000
  H    -62.156900   36.290200  132.344000
  C    -63.941200   35.353700  131.476000
  H    -64.680500   35.893100  132.065000
  H    -64.432000   34.397700  131.402000
  H    -63.922800   35.900000  130.491000
  H    -62.952900   40.744000  134.354000
  H    -66.835400   33.554300  135.484000

 Total Charge           Charge          ....    0
 Multiplicity           Mult            ....    1
 Number of Electrons    NEL             ....  134
 Basis Dimension        Dim             ....  322

ORBITAL ENERGIES
----------------

  NO   OCC          E(Eh)            E(eV)
   0   2.0000     -88.967512     -2420.9291
   1   2.0000     -88.960565     -2420.7401
   2   2.0000     -10.329721      -281.0860
   3   2.0000     -10.322774      -280.8970
   4   2.0000     -10.318631      -280.7842
   5   2.0000     -10.310395      -280.5601
   6   2.0000     -10.302229      -280.3379
   7   2.0000     -10.299051      -280.2514
   8   2.0000     -10.295252      -280.1481
   9   2.0000     -10.293795      -280.1084
  10   2.0000     -10.291116      -280.0355
  11   2.0000     -10.289943      -280.0036
  12   2.0000     -10.288359      -279.9605
  13   2.0000     -10.286206      -279.9019
  14   2.0000     -10.280972      -279.7595
  15   2.0000     -10.270685      -279.4795
  16   2.0000      -8.082896      -219.9468
  17   2.0000      -8.076110      -219.7621
  18   2.0000      -6.041225      -164.3901
  19   2.0000      -6.037253      -164.2820
  20   2.0000      -6.034723      -164.2132
  21   2.0000      -6.033857      -164.1896
  22   2.0000      -6.030471      -164.0975
  23   2.0000      -6.026711      -163.9952
  24   2.0000      -1.015213       -27.6253
  25   2.0000      -0.992717       -27.0132
  26   2.0000      -0.922049       -25.0902
  27   2.0000      -0.901625       -24.5345
  28   2.0000      -0.875006       -23.8101
  29   2.0000      -0.851486       -23.1701
  30   2.0000      -0.837247       -22.7826
  31   2.0000      -0.818916       -22.2838
  32   2.0000      -0.779274       -21.2051
  33   2.0000      -0.771184       -20.9850
  34   2.0000      -0.717432       -19.5223
  35   2.0000      -0.698484       -19.0067
  36   2.0000      -0.684894       -18.6369
  37   2.0000      -0.663291       -18.0491
  38   2.0000      -0.640119       -17.4185
  39   2.0000      -0.625422       -17.0186
  40   2.0000      -0.587142       -15.9770
  41   2.0000      -0.578962       -15.7543
  42   2.0000      -0.568109       -15.4590
  43   2.0000      -0.556441       -15.1415
  44   2.0000      -0.542609       -14.7651
  45   2.0000      -0.531871       -14.4729
  46   2.0000      -0.512112       -13.9353
  47   2.0000      -0.507410       -13.8073
  48   2.0000      -0.503254       -13.6942
  49   2.0000      -0.496045       -13.4981
  50   2.0000      -0.486710       -13.2440
  51   2.0000      -0.480418       -13.0728
  52   2.0000      -0.474913       -12.9230
  53   2.0000      -0.466040       -12.6816
  54   2.0000      -0.461999       -12.5716
  55   2.0000      -0.447083       -12.1657
  56   2.0000      -0.441695       -12.0191
  57   2.0000      -0.433787       -11.8040
  58   2.0000      -0.430951       -11.7268
  59   2.0000      -0.425850       -11.5880
  60   2.0000      -0.420001       -11.4288
  61   2.0000      -0.411251       -11.1907
  62   2.0000      -0.406879       -11.0717
  63   2.0000      -0.355996        -9.6871
  64   2.0000      -0.337725        -9.1900
  65   2.0000      -0.325825        -8.8661
  66   2.0000      -0.286272        -7.7899
  67   0.0000       0.029940         0.8147
  68   0.0000       0.072023         1.9598
  69   0.0000       0.106937         2.9099
  70   0.0000       0.119507         3.2519
  71   0.0000       0.146755         3.9934

MULLIKEN ATOMIC CHARGES
-----------------------
   0 S :    0.126475
   1 C :   -0.119407
   2 C :   -0.119281
   3 C :   -0.000930
   4 C :   -0.137644
   5 H :    0.008206
   6 C :    0.027828
   7 H :    0.034606
   8 H :    0.067090
   9 C :   -0.051270
  10 H :    0.042903
  11 H :    0.035513
  12 C :   -0.067686
  13 H :    0.037505
  14 H :    0.025974
  15 H :    0.045848
  16 S :    0.082131
  17 C :   -0.119122
  18 C :   -0.015868
  19 C :   -0.096262
  20 C :   -0.098365
  21 H :    0.013778
  22 C :    0.105765
  23 H :    0.007660
  24 H :    0.020190
  25 C :   -0.058145
  26 H :    0.020142
  27 H :    0.036883
  28 C :   -0.062052
  29 H :    0.031663
  30 H :    0.016882
  31 H :    0.043232
  32 H :    0.038143
  33 H :    0.077615
Sum of atomic charges:   -0.0000000

LOEWDIN ATOMIC CHARGES
----------------------
   0 S :    0.431193
   1 C :   -0.209658
   2 C :   -0.071530
   3 C :   -0.069833
   4 C :   -0.190397
   5 H :    0.030204
   6 C :   -0.032540
   7 H :    0.033542
   8 H :    0.046859
   9 C :   -0.044206
  10 H :    0.035523
  11 H :    0.023593
  12 C :   -0.076126
  13 H :    0.032955
  14 H :    0.022556
  15 H :    0.032953
  16 S :    0.402335
  17 C :   -0.182161
  18 C :   -0.070448
  19 C :   -0.070726
  20 C :   -0.212057
  21 H :    0.030545
  22 C :   -0.025328
  23 H :    0.028708
  24 H :    0.022411
  25 C :   -0.031706
  26 H :    0.016369
  27 H :    0.024245
  28 C :   -0.073695
  29 H :    0.024440
  30 H :    0.020029
  31 H :    0.031948
  32 H :    0.023695
  33 H :    0.046307

  Mayer bond orders larger than 0.100000
B(  0-S ,  1-C ) :   1.1779 B(  0-S ,  4-C ) :   1.1592 B(  1-C ,  2-C ) :   1.5752
B(  1-C ,  4-C ) :   0.1168 B(  1-C , 32-H ) :   0.9698 B(  2-C ,  3-C ) :   1.2861
B(  2-C ,  6-C ) :   0.9841 B(  3-C ,  4-C ) :   1.5613 B(  3-C ,  5-H ) :   0.9898
B(  4-C , 20-C ) :   1.0183 B(  6-C ,  7-H ) :   0.9352 B(  6-C ,  8-H ) :   0.9433
B(  6-C ,  9-C ) :   1.0857 B(  9-C , 10-H ) :   0.9533 B(  9-C , 11-H ) :   0.9425
B(  9-C , 12-C ) :   1.0794 B( 12-C , 13-H ) :   0.9742 B( 12-C , 14-H ) :   0.9729
B( 12-C , 15-H ) :   0.9724 B( 16-S , 17-C ) :   1.1241 B( 16-S , 20-C ) :   1.1493
B( 17-C , 18-C ) :   1.6355 B( 17-C , 33-H ) :   0.9622 B( 18-C , 19-C ) :   1.2322
B( 18-C , 21-H ) :   0.9875 B( 19-C , 20-C ) :   1.5988 B( 19-C , 22-C ) :   1.0483
B( 22-C , 23-H ) :   0.9278 B( 22-C , 24-H ) :   0.9397 B( 22-C , 25-C ) :   1.0650
B( 25-C , 26-H ) :   0.9601 B( 25-C , 27-H ) :   0.9556 B( 25-C , 28-C ) :   1.0851
B( 28-C , 29-H ) :   0.9644 B( 28-C , 30-H ) :   0.9751 B( 28-C , 31-H ) :   0.9754

Dispersion correction           -0.015158522
FINAL SINGLE POINT ENERGY     -1339.864928540925

DIPOLE MOMENT
-------------
                                X             Y             Z
Electronic contribution:    -24.36742       0.07921       9.33748
Nuclear contribution   :     25.02596      -0.21263      -9.59198
                        -----------------------------------------
Total Dipole Moment    :      0.65853      -0.13341      -0.25449
                        -----------------------------------------
Magnitude (a.u.)       :      0.71849
Magnitude (Debye)      :      1.82626

Rotational constants in cm-1:     0.021489     0.008288     0.007256
Rotational constants in MHz :   644.220146   248.462948   217.537856

                             ****ORCA TERMINATED NORMALLY****
TOTAL RUN TIME: 0 days 0 hours 0 minutes 36 seconds 363 msec
