                         Program Version 4.2.1 -  RELEASE  -
|  1> ! wB97X-D3 SP def2-SVP
|  2> %pal
|  3> nprocs 16
|  4> end
|  5>
|  6> * xyz 0 1
|  7> S 	 -2.95787 	 27.2793 	 52.8855
|  8> C 	 -2.03916 	 26.071 	 51.9585
|  9> C 	 -1.07071 	 26.7125 	 51.2122
| 10> C 	 -1.29707 	 28.1382 	 51.1487
| 11> C 	 -2.38065 	 28.5515 	 51.8811
| 12> H 	 -0.676465 	 28.8012 	 50.6332
| 13> C 	 -0.0423638 	 25.9969 	 50.4745
| 14> H 	 0.203244 	 26.6387 	 49.6193
| 15> H 	 -0.480358 	 25.0241 	 50.205
| 16> C 	 1.32526 	 25.7897 	 51.1187
| 17> H 	 1.954 	 25.2838 	 50.4652
| 18> H 	 1.7478 	 26.7584 	 51.3838
| 19> C 	 1.34037 	 24.7736 	 52.2718
| 20> H 	 0.801514 	 23.9045 	 52.0555
| 21> H 	 2.30655 	 24.5217 	 52.5776
| 22> H 	 0.921083 	 25.1165 	 53.2135
| 23> S 	 -4.41223 	 30.2488 	 51.2282
| 24> C 	 -4.47041 	 31.8801 	 51.9545
| 25> C 	 -3.28703 	 32.1667 	 52.6385
| 26> C 	 -2.32971 	 31.1051 	 52.596
| 27> C 	 -2.85237 	 29.8981 	 51.9785
| 28> H 	 -3.18748 	 33.0757 	 53.173
| 29> C 	 -0.921982 	 31.2278 	 53.0793
| 30> H 	 -0.568595 	 32.2635 	 52.8178
| 31> H 	 -0.2976 	 30.6124 	 52.3953
| 32> C 	 -0.663741 	 30.8535 	 54.5133
| 33> H 	 -1.17064 	 31.5975 	 55.1858
| 34> H 	 0.413904 	 30.897 	 54.7274
| 35> C 	 -1.09769 	 29.4723 	 54.9977
| 36> H 	 -2.1466 	 29.5468 	 55.3849
| 37> H 	 -0.468847 	 29.2809 	 55.9501
| 38> H 	 -0.828505 	 28.621 	 54.3726
| 39> H 	 -1.90559 	 25.0227 	 52.1658
| 40> H 	 -5.4016 	 32.4884 	 52.0156
| 41> *
| 42>
| 43>                          ****END OF INPUT****

CARTESIAN COORDINATES (ANGSTROEM)
---------------------------------
  S     -2.957870   27.279300   52.885500
  C     -2.039160   26.071000   51.958500
  C     -1.070710   26.712500   51.212200
  C     -1.297070   28.138200   51.148700
  C     -2.380650   28.551500   51.881100
  H     -0.676465   28.801200   50.633200
  C     -0.042364   25.996900   50.474500
  H      0.203244   26.638700   49.619300
  H     -0.480358   25.024100   50.205000
  C      1.325260   25.789700   51.118700
  H      1.954000   25.283800   50.465200
  H      1.747800   26.758400   51.383800
  C      1.340370   24.773600   52.271800
  H      0.801514   23.904500   52.055500
  H      2.306550   24.521700   52.577600
  H      0.921083   25.116500   53.213500
  S     -4.412230   30.248800   51.228200
  C     -4.470410   31.880100   51.954500
  C     -3.287030   32.166700   52.638500
  C     -2.329710   31.105100   52.596000
  C     -2.852370   29.898100   51.978500
  H     -3.187480   33.075700   53.173000
  C     -0.921982   31.227800   53.079300
  H     -0.568595   32.263500   52.817800
  H     -0.297600   30.612400   52.395300
  C     -0.663741   30.853500   54.513300
  H     -1.170640   31.597500   55.185800
  H      0.413904   30.897000   54.727400
  C     -1.097690   29.472300   54.997700
  H     -2.146600   29.546800   55.384900
  H     -0.468847   29.280900   55.950100
  H     -0.828505   28.621000   54.372600
  H     -1.905590   25.022700   52.165800
  H     -5.401600   32.488400   52.015600

 Total Charge           Charge          ....    0
 Multiplicity           Mult            ....    1
 Number of Electrons    NEL             ....  134
 Basis Dimension        Dim             ....  322

ORBITAL ENERGIES
----------------

  NO   OCC          E(Eh)            E(eV)
   0   2.0000     -88.965651     -2420.8784
   1   2.0000     -88.964882     -2420.8575
   2   2.0000     -10.328646      -281.0567
   3   2.0000     -10.324461      -280.9429
   4   2.0000     -10.322981      -280.9026
   5   2.0000     -10.311692      -280.5954
   6   2.0000     -10.309381      -280.5325
   7   2.0000     -10.296522      -280.1826
   8   2.0000     -10.295253      -280.1481
   9   2.0000     -10.292625      -280.0766
  10   2.0000     -10.290167      -280.0097
  11   2.0000     -10.289214      -279.9837
  12   2.0000     -10.286323      -279.9051
  13   2.0000     -10.284000      -279.8419
  14   2.0000     -10.279530      -279.7202
  15   2.0000     -10.267046      -279.3805
  16   2.0000      -8.080018      -219.8685
  17   2.0000      -8.078651      -219.8313
  18   2.0000      -6.038683      -164.3209
  19   2.0000      -6.037136      -164.2788
  20   2.0000      -6.034673      -164.2118
  21   2.0000      -6.033159      -164.1706
  22   2.0000      -6.030492      -164.0980
  23   2.0000      -6.029627      -164.0745
  24   2.0000      -1.005608       -27.3640
  25   2.0000      -0.976939       -26.5839
  26   2.0000      -0.921284       -25.0694
  27   2.0000      -0.907572       -24.6963
  28   2.0000      -0.871645       -23.7187
  29   2.0000      -0.850002       -23.1297
  30   2.0000      -0.843468       -22.9519
  31   2.0000      -0.814400       -22.1609
  32   2.0000      -0.788683       -21.4612
  33   2.0000      -0.769497       -20.9391
  34   2.0000      -0.714139       -19.4327
  35   2.0000      -0.702537       -19.1170
  36   2.0000      -0.683972       -18.6118
  37   2.0000      -0.655035       -17.8244
  38   2.0000      -0.639295       -17.3961
  39   2.0000      -0.621475       -16.9112
  40   2.0000      -0.592448       -16.1213
  41   2.0000      -0.571411       -15.5489
  42   2.0000      -0.560566       -15.2538
  43   2.0000      -0.552429       -15.0324
  44   2.0000      -0.544107       -14.8059
  45   2.0000      -0.543001       -14.7758
  46   2.0000      -0.526011       -14.3135
  47   2.0000      -0.511384       -13.9155
  48   2.0000      -0.501910       -13.6577
  49   2.0000      -0.500258       -13.6127
  50   2.0000      -0.490982       -13.3603
  51   2.0000      -0.472451       -12.8560
  52   2.0000      -0.471446       -12.8287
  53   2.0000      -0.466292       -12.6885
  54   2.0000      -0.457454       -12.4480
  55   2.0000      -0.444756       -12.1024
  56   2.0000      -0.439540       -11.9605
  57   2.0000      -0.436303       -11.8724
  58   2.0000      -0.433483       -11.7957
  59   2.0000      -0.424706       -11.5568
  60   2.0000      -0.414998       -11.2927
  61   2.0000      -0.413281       -11.2460
  62   2.0000      -0.407370       -11.0851
  63   2.0000      -0.335663        -9.1339
  64   2.0000      -0.324554        -8.8316
  65   2.0000      -0.321167        -8.7394
  66   2.0000      -0.299069        -8.1381
  67   0.0000       0.026780         0.7287
  68   0.0000       0.055665         1.5147
  69   0.0000       0.106106         2.8873
  70   0.0000       0.110943         3.0189
  71   0.0000       0.126751         3.4491

MULLIKEN ATOMIC CHARGES
-----------------------
   0 S :    0.123157
   1 C :   -0.102236
   2 C :   -0.100900
   3 C :    0.063363
   4 C :   -0.145008
   5 H :   -0.010950
   6 C :    0.046566
   7 H :    0.023333
   8 H :    0.028266
   9 C :   -0.020678
  10 H :    0.019750
  11 H :    0.025020
  12 C :   -0.025032
  13 H :    0.008007
  14 H :    0.013798
  15 H :    0.017924
  16 S :    0.109780
  17 C :   -0.117240
  18 C :   -0.024136
  19 C :   -0.018907
  20 C :   -0.198903
  21 H :    0.011715
  22 C :    0.067165
  23 H :    0.031310
  24 H :    0.016406
  25 C :   -0.070644
  26 H :    0.028500
  27 H :    0.030103
  28 C :   -0.083861
  29 H :    0.050094
  30 H :    0.029785
  31 H :    0.052302
  32 H :    0.043663
  33 H :    0.078487
Sum of atomic charges:    0.0000000

LOEWDIN ATOMIC CHARGES
----------------------
   0 S :    0.421671
   1 C :   -0.191649
   2 C :   -0.062753
   3 C :   -0.050888
   4 C :   -0.209310
   5 H :    0.019230
   6 C :   -0.035642
   7 H :    0.036016
   8 H :    0.035467
   9 C :   -0.027323
  10 H :    0.020035
  11 H :    0.024699
  12 C :   -0.060382
  13 H :    0.015409
  14 H :    0.019330
  15 H :    0.022425
  16 S :    0.397860
  17 C :   -0.185664
  18 C :   -0.069142
  19 C :   -0.047943
  20 C :   -0.201769
  21 H :    0.027949
  22 C :   -0.045502
  23 H :    0.038702
  24 H :    0.031381
  25 C :   -0.049173
  26 H :    0.028112
  27 H :    0.024984
  28 C :   -0.080220
  29 H :    0.031686
  30 H :    0.034867
  31 H :    0.021758
  32 H :    0.026875
  33 H :    0.038905

  Mayer bond orders larger than 0.100000
B(  0-S ,  1-C ) :   1.1217 B(  0-S ,  4-C ) :   1.1589 B(  1-C ,  2-C ) :   1.6151
B(  1-C , 32-H ) :   0.9636 B(  2-C ,  3-C ) :   1.2274 B(  2-C ,  6-C ) :   1.0429
B(  3-C ,  4-C ) :   1.5648 B(  3-C ,  5-H ) :   1.0052 B(  4-C , 20-C ) :   1.0501
B(  6-C ,  7-H ) :   0.9314 B(  6-C ,  8-H ) :   0.9389 B(  6-C ,  9-C ) :   1.0880
B(  9-C , 10-H ) :   0.9536 B(  9-C , 11-H ) :   0.9523 B(  9-C , 12-C ) :   1.0741
B( 12-C , 13-H ) :   0.9731 B( 12-C , 14-H ) :   0.9728 B( 12-C , 15-H ) :   0.9721
B( 16-S , 17-C ) :   1.1580 B( 16-S , 20-C ) :   1.1599 B( 17-C , 18-C ) :   1.5882
B( 17-C , 20-C ) :   0.1154 B( 17-C , 33-H ) :   0.9617 B( 18-C , 19-C ) :   1.2616
B( 18-C , 21-H ) :   0.9942 B( 19-C , 20-C ) :   1.5369 B( 19-C , 22-C ) :   1.0356
B( 22-C , 23-H ) :   0.9330 B( 22-C , 24-H ) :   0.9323 B( 22-C , 25-C ) :   1.0790
B( 25-C , 26-H ) :   0.9533 B( 25-C , 27-H ) :   0.9570 B( 25-C , 28-C ) :   1.0808
B( 28-C , 29-H ) :   0.9738 B( 28-C , 30-H ) :   0.9720 B( 28-C , 31-H ) :   0.9700

Dispersion correction           -0.015894298
FINAL SINGLE POINT ENERGY     -1339.857827243291

DIPOLE MOMENT
-------------
                                X             Y             Z
Electronic contribution:    -23.69405       7.21342      -7.27185
Nuclear contribution   :     24.41900      -7.17476       7.40795
                        -----------------------------------------
Total Dipole Moment    :      0.72495       0.03866       0.13610
                        -----------------------------------------
Magnitude (a.u.)       :      0.73863
Magnitude (Debye)      :      1.87745

Rotational constants in cm-1:     0.023043     0.008664     0.007494
Rotational constants in MHz :   690.803714   259.726782   224.651616

                             ****ORCA TERMINATED NORMALLY****
TOTAL RUN TIME: 0 days 0 hours 0 minutes 35 seconds 296 msec
