                         Program Version 4.2.1 -  RELEASE  -
|  1> ! wB97X-D3 SP def2-SVP
|  2> %pal
|  3> nprocs 16
|  4> end
|  5>
|  6> * xyz 0 1
|  7> S 	 48.0969 	 16.7134 	 82.0964
|  8> C 	 48.3559 	 18.3696 	 82.6714
|  9> C 	 49.6703 	 18.7968 	 82.5447
| 10> C 	 50.4789 	 17.8155 	 81.9755
| 11> C 	 49.7393 	 16.7275 	 81.5713
| 12> H 	 51.6045 	 17.975 	 81.8727
| 13> C 	 50.1714 	 20.19 	 82.9031
| 14> H 	 49.6357 	 20.5325 	 83.8109
| 15> H 	 49.8516 	 20.9221 	 82.1318
| 16> C 	 51.5971 	 20.3391 	 83.3602
| 17> H 	 52.2571 	 20.1365 	 82.5338
| 18> H 	 51.7393 	 21.3639 	 83.55
| 19> C 	 52.0226 	 19.4979 	 84.6243
| 20> H 	 53.0118 	 19.735 	 84.9713
| 21> H 	 51.4428 	 19.7143 	 85.5295
| 22> H 	 52.078 	 18.4203 	 84.5409
| 23> S 	 49.9321 	 14.0427 	 81.6064
| 24> C 	 50.744 	 13.1457 	 80.3771
| 25> C 	 51.2883 	 13.935 	 79.3912
| 26> C 	 51.1408 	 15.3267 	 79.7495
| 27> C 	 50.3157 	 15.5768 	 80.8239
| 28> H 	 51.836 	 13.5523 	 78.5452
| 29> C 	 51.8815 	 16.4251 	 79.0478
| 30> H 	 52.3113 	 16.9634 	 79.8632
| 31> H 	 51.2889 	 17.1141 	 78.456
| 32> C 	 52.9315 	 16.1215 	 78.0404
| 33> H 	 53.1326 	 17.0316 	 77.5841
| 34> H 	 52.5798 	 15.4236 	 77.3089
| 35> C 	 54.2764 	 15.537 	 78.5849
| 36> H 	 54.178 	 14.5567 	 79.0728
| 37> H 	 54.8017 	 16.2258 	 79.1713
| 38> H 	 54.8189 	 15.2504 	 77.7036
| 39> H 	 47.5983 	 18.9653 	 83.0437
| 40> H 	 50.7717 	 12.0475 	 80.3427
| 41> *
| 42>
| 43>                          ****END OF INPUT****

CARTESIAN COORDINATES (ANGSTROEM)
---------------------------------
  S     48.096900   16.713400   82.096400
  C     48.355900   18.369600   82.671400
  C     49.670300   18.796800   82.544700
  C     50.478900   17.815500   81.975500
  C     49.739300   16.727500   81.571300
  H     51.604500   17.975000   81.872700
  C     50.171400   20.190000   82.903100
  H     49.635700   20.532500   83.810900
  H     49.851600   20.922100   82.131800
  C     51.597100   20.339100   83.360200
  H     52.257100   20.136500   82.533800
  H     51.739300   21.363900   83.550000
  C     52.022600   19.497900   84.624300
  H     53.011800   19.735000   84.971300
  H     51.442800   19.714300   85.529500
  H     52.078000   18.420300   84.540900
  S     49.932100   14.042700   81.606400
  C     50.744000   13.145700   80.377100
  C     51.288300   13.935000   79.391200
  C     51.140800   15.326700   79.749500
  C     50.315700   15.576800   80.823900
  H     51.836000   13.552300   78.545200
  C     51.881500   16.425100   79.047800
  H     52.311300   16.963400   79.863200
  H     51.288900   17.114100   78.456000
  C     52.931500   16.121500   78.040400
  H     53.132600   17.031600   77.584100
  H     52.579800   15.423600   77.308900
  C     54.276400   15.537000   78.584900
  H     54.178000   14.556700   79.072800
  H     54.801700   16.225800   79.171300
  H     54.818900   15.250400   77.703600
  H     47.598300   18.965300   83.043700
  H     50.771700   12.047500   80.342700

 Total Charge           Charge          ....    0
 Multiplicity           Mult            ....    1
 Number of Electrons    NEL             ....  134
 Basis Dimension        Dim             ....  322

ORBITAL ENERGIES
----------------

  NO   OCC          E(Eh)            E(eV)
   0   2.0000     -88.972409     -2421.0623
   1   2.0000     -88.958421     -2420.6817
   2   2.0000     -10.329500      -281.0800
   3   2.0000     -10.321607      -280.8652
   4   2.0000     -10.314216      -280.6641
   5   2.0000     -10.306746      -280.4608
   6   2.0000     -10.300768      -280.2981
   7   2.0000     -10.296963      -280.1946
   8   2.0000     -10.294692      -280.1328
   9   2.0000     -10.293678      -280.1052
  10   2.0000     -10.292763      -280.0803
  11   2.0000     -10.288767      -279.9716
  12   2.0000     -10.279872      -279.7295
  13   2.0000     -10.277968      -279.6777
  14   2.0000     -10.276651      -279.6419
  15   2.0000     -10.269874      -279.4575
  16   2.0000      -8.086923      -220.0564
  17   2.0000      -8.073756      -219.6981
  18   2.0000      -6.045297      -164.5009
  19   2.0000      -6.041662      -164.4020
  20   2.0000      -6.037643      -164.2926
  21   2.0000      -6.032244      -164.1457
  22   2.0000      -6.028123      -164.0336
  23   2.0000      -6.024573      -163.9370
  24   2.0000      -1.008222       -27.4351
  25   2.0000      -0.985320       -26.8119
  26   2.0000      -0.916465       -24.9383
  27   2.0000      -0.913146       -24.8480
  28   2.0000      -0.864987       -23.5375
  29   2.0000      -0.851496       -23.1704
  30   2.0000      -0.842386       -22.9225
  31   2.0000      -0.814221       -22.1561
  32   2.0000      -0.789279       -21.4774
  33   2.0000      -0.778916       -21.1954
  34   2.0000      -0.713969       -19.4281
  35   2.0000      -0.701396       -19.0859
  36   2.0000      -0.692767       -18.8511
  37   2.0000      -0.655553       -17.8385
  38   2.0000      -0.633944       -17.2505
  39   2.0000      -0.628183       -17.0937
  40   2.0000      -0.602406       -16.3923
  41   2.0000      -0.566071       -15.4036
  42   2.0000      -0.556702       -15.1486
  43   2.0000      -0.553257       -15.0549
  44   2.0000      -0.540135       -14.6978
  45   2.0000      -0.536127       -14.5887
  46   2.0000      -0.522940       -14.2299
  47   2.0000      -0.507590       -13.8122
  48   2.0000      -0.503150       -13.6914
  49   2.0000      -0.492776       -13.4091
  50   2.0000      -0.489776       -13.3275
  51   2.0000      -0.478068       -13.0089
  52   2.0000      -0.472222       -12.8498
  53   2.0000      -0.466218       -12.6864
  54   2.0000      -0.462647       -12.5893
  55   2.0000      -0.458352       -12.4724
  56   2.0000      -0.444283       -12.0896
  57   2.0000      -0.442481       -12.0405
  58   2.0000      -0.427899       -11.6437
  59   2.0000      -0.426300       -11.6002
  60   2.0000      -0.419750       -11.4220
  61   2.0000      -0.416187       -11.3250
  62   2.0000      -0.411711       -11.2032
  63   2.0000      -0.343221        -9.3395
  64   2.0000      -0.336110        -9.1460
  65   2.0000      -0.324589        -8.8325
  66   2.0000      -0.286985        -7.8093
  67   0.0000       0.032050         0.8721
  68   0.0000       0.069715         1.8970
  69   0.0000       0.107850         2.9348
  70   0.0000       0.122424         3.3313
  71   0.0000       0.137783         3.7493

MULLIKEN ATOMIC CHARGES
-----------------------
   0 S :    0.135716
   1 C :   -0.104796
   2 C :   -0.066665
   3 C :   -0.021997
   4 C :   -0.123553
   5 H :    0.048118
   6 C :    0.048414
   7 H :    0.020066
   8 H :    0.053604
   9 C :   -0.042774
  10 H :    0.020243
  11 H :    0.019258
  12 C :   -0.055198
  13 H :    0.019695
  14 H :    0.028313
  15 H :    0.039225
  16 S :    0.082847
  17 C :   -0.085818
  18 C :   -0.029107
  19 C :   -0.057927
  20 C :   -0.150103
  21 H :    0.017633
  22 C :    0.092891
  23 H :    0.006802
  24 H :    0.033188
  25 C :   -0.064833
  26 H :    0.010899
  27 H :    0.017497
  28 C :   -0.038288
  29 H :    0.030481
  30 H :    0.026682
  31 H :    0.020296
  32 H :    0.009729
  33 H :    0.059459
Sum of atomic charges:   -0.0000000

LOEWDIN ATOMIC CHARGES
----------------------
   0 S :    0.418654
   1 C :   -0.182701
   2 C :   -0.060850
   3 C :   -0.073381
   4 C :   -0.200052
   5 H :    0.045105
   6 C :   -0.037796
   7 H :    0.033442
   8 H :    0.040357
   9 C :   -0.037288
  10 H :    0.017733
  11 H :    0.025131
  12 C :   -0.069183
  13 H :    0.025305
  14 H :    0.028019
  15 H :    0.026676
  16 S :    0.399889
  17 C :   -0.190272
  18 C :   -0.075261
  19 C :   -0.055229
  20 C :   -0.189894
  21 H :    0.031414
  22 C :   -0.036165
  23 H :    0.027019
  24 H :    0.036980
  25 C :   -0.031922
  26 H :    0.019903
  27 H :    0.019778
  28 C :   -0.062215
  29 H :    0.026479
  30 H :    0.015119
  31 H :    0.025011
  32 H :    0.008894
  33 H :    0.031300

  Mayer bond orders larger than 0.100000
B(  0-S ,  1-C ) :   1.1268 B(  0-S ,  4-C ) :   1.1743 B(  1-C ,  2-C ) :   1.6084
B(  1-C ,  4-C ) :   0.1031 B(  1-C , 32-H ) :   0.9782 B(  2-C ,  3-C ) :   1.2783
B(  2-C ,  6-C ) :   1.0029 B(  3-C ,  4-C ) :   1.5512 B(  3-C ,  5-H ) :   0.9741
B(  4-C , 20-C ) :   1.0055 B(  6-C ,  7-H ) :   0.9392 B(  6-C ,  8-H ) :   0.9373
B(  6-C ,  9-C ) :   1.0882 B(  9-C , 10-H ) :   0.9478 B(  9-C , 11-H ) :   0.9493
B(  9-C , 12-C ) :   1.0682 B( 12-C , 13-H ) :   0.9735 B( 12-C , 14-H ) :   0.9746
B( 12-C , 15-H ) :   0.9768 B( 16-S , 17-C ) :   1.1700 B( 16-S , 20-C ) :   1.1303
B( 17-C , 18-C ) :   1.6043 B( 17-C , 33-H ) :   0.9604 B( 18-C , 19-C ) :   1.2333
B( 18-C , 21-H ) :   0.9883 B( 19-C , 20-C ) :   1.6397 B( 19-C , 22-C ) :   1.0220
B( 22-C , 23-H ) :   0.9317 B( 22-C , 24-H ) :   0.9274 B( 22-C , 25-C ) :   1.1020
B( 25-C , 26-H ) :   0.9489 B( 25-C , 27-H ) :   0.9467 B( 25-C , 28-C ) :   1.0864
B( 28-C , 29-H ) :   0.9740 B( 28-C , 30-H ) :   0.9760 B( 28-C , 31-H ) :   0.9731

Dispersion correction           -0.014214785
FINAL SINGLE POINT ENERGY     -1339.862179966924

DIPOLE MOMENT
-------------
                                X             Y             Z
Electronic contribution:    -22.41308     -15.35575       3.13768
Nuclear contribution   :     22.91885      15.88488      -3.29327
                        -----------------------------------------
Total Dipole Moment    :      0.50576       0.52913      -0.15559
                        -----------------------------------------
Magnitude (a.u.)       :      0.74832
Magnitude (Debye)      :      1.90208

Rotational constants in cm-1:     0.017847     0.009056     0.006914
Rotational constants in MHz :   535.038137   271.504557   207.282390

                             ****ORCA TERMINATED NORMALLY****
TOTAL RUN TIME: 0 days 0 hours 0 minutes 30 seconds 241 msec
