                         Program Version 4.2.1 -  RELEASE  -
|  1> ! wB97X-D3 SP def2-SVP
|  2> %pal
|  3> nprocs 16
|  4> end
|  5>
|  6> * xyz 0 1
|  7> S 	 -43.5638 	 -2.82983 	 97.972
|  8> C 	 -42.5352 	 -3.99393 	 97.1094
|  9> C 	 -42.4614 	 -3.728 	 95.7395
| 10> C 	 -43.2808 	 -2.60786 	 95.3508
| 11> C 	 -43.9069 	 -2.01994 	 96.4382
| 12> H 	 -43.4261 	 -2.1844 	 94.3425
| 13> C 	 -41.5812 	 -4.54545 	 94.8942
| 14> H 	 -40.8304 	 -4.99823 	 95.6449
| 15> H 	 -41.1058 	 -3.9004 	 94.1244
| 16> C 	 -42.3203 	 -5.59829 	 94.0781
| 17> H 	 -41.6308 	 -6.43315 	 93.8664
| 18> H 	 -43.1096 	 -5.9656 	 94.6619
| 19> C 	 -42.8064 	 -5.02021 	 92.7842
| 20> H 	 -43.2127 	 -5.65468 	 92.0905
| 21> H 	 -43.4917 	 -4.16273 	 92.8516
| 22> H 	 -41.9508 	 -4.68245 	 92.2407
| 23> S 	 -44.2406 	 0.555978 	 97.2803
| 24> C 	 -45.6053 	 1.5273 	 96.7438
| 25> C 	 -46.3032 	 0.856337 	 95.7339
| 26> C 	 -45.8737 	 -0.489437 	 95.5925
| 27> C 	 -44.776 	 -0.884615 	 96.3667
| 28> H 	 -47.1589 	 1.31693 	 95.2788
| 29> C 	 -46.6125 	 -1.38353 	 94.6447
| 30> H 	 -46.9033 	 -2.32322 	 95.2089
| 31> H 	 -45.9066 	 -1.78965 	 93.9188
| 32> C 	 -47.799 	 -0.874637 	 93.8615
| 33> H 	 -47.4405 	 0.00467254 	 93.2846
| 34> H 	 -48.6276 	 -0.602583 	 94.4732
| 35> C 	 -48.4013 	 -1.82884 	 92.8138
| 36> H 	 -49.1886 	 -2.48893 	 93.2863
| 37> H 	 -47.7272 	 -2.50009 	 92.3609
| 38> H 	 -48.8241 	 -1.13048 	 92.0647
| 39> H 	 -42.0054 	 -4.80178 	 97.612
| 40> H 	 -45.8813 	 2.54267 	 97.0739
| 41> *
| 42>
| 43>                          ****END OF INPUT****

CARTESIAN COORDINATES (ANGSTROEM)
---------------------------------
  S    -43.563800   -2.829830   97.972000
  C    -42.535200   -3.993930   97.109400
  C    -42.461400   -3.728000   95.739500
  C    -43.280800   -2.607860   95.350800
  C    -43.906900   -2.019940   96.438200
  H    -43.426100   -2.184400   94.342500
  C    -41.581200   -4.545450   94.894200
  H    -40.830400   -4.998230   95.644900
  H    -41.105800   -3.900400   94.124400
  C    -42.320300   -5.598290   94.078100
  H    -41.630800   -6.433150   93.866400
  H    -43.109600   -5.965600   94.661900
  C    -42.806400   -5.020210   92.784200
  H    -43.212700   -5.654680   92.090500
  H    -43.491700   -4.162730   92.851600
  H    -41.950800   -4.682450   92.240700
  S    -44.240600    0.555978   97.280300
  C    -45.605300    1.527300   96.743800
  C    -46.303200    0.856337   95.733900
  C    -45.873700   -0.489437   95.592500
  C    -44.776000   -0.884615   96.366700
  H    -47.158900    1.316930   95.278800
  C    -46.612500   -1.383530   94.644700
  H    -46.903300   -2.323220   95.208900
  H    -45.906600   -1.789650   93.918800
  C    -47.799000   -0.874637   93.861500
  H    -47.440500    0.004673   93.284600
  H    -48.627600   -0.602583   94.473200
  C    -48.401300   -1.828840   92.813800
  H    -49.188600   -2.488930   93.286300
  H    -47.727200   -2.500090   92.360900
  H    -48.824100   -1.130480   92.064700
  H    -42.005400   -4.801780   97.612000
  H    -45.881300    2.542670   97.073900

 Total Charge           Charge          ....    0
 Multiplicity           Mult            ....    1
 Number of Electrons    NEL             ....  134
 Basis Dimension        Dim             ....  322

ORBITAL ENERGIES
----------------

  NO   OCC          E(Eh)            E(eV)
   0   2.0000     -88.968561     -2420.9576
   1   2.0000     -88.962004     -2420.7792
   2   2.0000     -10.330774      -281.1147
   3   2.0000     -10.324879      -280.9542
   4   2.0000     -10.321218      -280.8546
   5   2.0000     -10.317594      -280.7560
   6   2.0000     -10.304706      -280.4053
   7   2.0000     -10.302693      -280.3505
   8   2.0000     -10.301195      -280.3098
   9   2.0000     -10.294964      -280.1402
  10   2.0000     -10.291705      -280.0515
  11   2.0000     -10.289471      -279.9907
  12   2.0000     -10.285782      -279.8904
  13   2.0000     -10.281800      -279.7820
  14   2.0000     -10.281328      -279.7692
  15   2.0000     -10.269641      -279.4511
  16   2.0000      -8.082525      -219.9367
  17   2.0000      -8.076056      -219.7607
  18   2.0000      -6.041032      -164.3848
  19   2.0000      -6.037171      -164.2798
  20   2.0000      -6.034637      -164.2108
  21   2.0000      -6.033300      -164.1744
  22   2.0000      -6.030518      -164.0987
  23   2.0000      -6.026909      -164.0005
  24   2.0000      -1.001931       -27.2639
  25   2.0000      -0.978711       -26.6321
  26   2.0000      -0.922813       -25.1110
  27   2.0000      -0.910293       -24.7703
  28   2.0000      -0.872028       -23.7291
  29   2.0000      -0.852142       -23.1880
  30   2.0000      -0.846319       -23.0295
  31   2.0000      -0.816673       -22.2228
  32   2.0000      -0.781925       -21.2773
  33   2.0000      -0.768202       -20.9039
  34   2.0000      -0.710954       -19.3460
  35   2.0000      -0.703053       -19.1310
  36   2.0000      -0.698199       -18.9990
  37   2.0000      -0.651993       -17.7416
  38   2.0000      -0.641504       -17.4562
  39   2.0000      -0.615412       -16.7462
  40   2.0000      -0.595800       -16.2125
  41   2.0000      -0.580506       -15.7964
  42   2.0000      -0.572228       -15.5711
  43   2.0000      -0.557202       -15.1622
  44   2.0000      -0.543361       -14.7856
  45   2.0000      -0.528224       -14.3737
  46   2.0000      -0.512369       -13.9423
  47   2.0000      -0.509688       -13.8693
  48   2.0000      -0.505102       -13.7445
  49   2.0000      -0.495590       -13.4857
  50   2.0000      -0.490640       -13.3510
  51   2.0000      -0.482628       -13.1330
  52   2.0000      -0.475310       -12.9338
  53   2.0000      -0.464739       -12.6462
  54   2.0000      -0.452869       -12.3232
  55   2.0000      -0.449954       -12.2439
  56   2.0000      -0.447283       -12.1712
  57   2.0000      -0.432972       -11.7818
  58   2.0000      -0.430727       -11.7207
  59   2.0000      -0.430010       -11.7012
  60   2.0000      -0.422907       -11.5079
  61   2.0000      -0.416367       -11.3299
  62   2.0000      -0.412399       -11.2220
  63   2.0000      -0.341908        -9.3038
  64   2.0000      -0.329738        -8.9726
  65   2.0000      -0.326159        -8.8752
  66   2.0000      -0.290736        -7.9113
  67   0.0000       0.024691         0.6719
  68   0.0000       0.064321         1.7503
  69   0.0000       0.112348         3.0571
  70   0.0000       0.118507         3.2247
  71   0.0000       0.124127         3.3777

MULLIKEN ATOMIC CHARGES
-----------------------
   0 S :    0.120757
   1 C :   -0.133010
   2 C :   -0.086780
   3 C :    0.032476
   4 C :   -0.166369
   5 H :    0.031975
   6 C :    0.022093
   7 H :    0.040350
   8 H :    0.028614
   9 C :   -0.011453
  10 H :    0.032323
  11 H :    0.015777
  12 C :   -0.022090
  13 H :    0.009611
  14 H :    0.026529
  15 H :    0.008603
  16 S :    0.093812
  17 C :   -0.087755
  18 C :   -0.054249
  19 C :   -0.023213
  20 C :   -0.147986
  21 H :    0.021487
  22 C :    0.050184
  23 H :    0.040494
  24 H :    0.014778
  25 C :   -0.110412
  26 H :    0.034865
  27 H :    0.034046
  28 C :   -0.035221
  29 H :    0.041490
  30 H :    0.019468
  31 H :    0.041311
  32 H :    0.052942
  33 H :    0.064554
Sum of atomic charges:   -0.0000000

LOEWDIN ATOMIC CHARGES
----------------------
   0 S :    0.393203
   1 C :   -0.191707
   2 C :   -0.061752
   3 C :   -0.057658
   4 C :   -0.193724
   5 H :    0.038172
   6 C :   -0.037544
   7 H :    0.042018
   8 H :    0.033406
   9 C :   -0.033635
  10 H :    0.030004
  11 H :    0.016203
  12 C :   -0.061804
  13 H :    0.015576
  14 H :    0.025870
  15 H :    0.023491
  16 S :    0.392059
  17 C :   -0.182210
  18 C :   -0.077966
  19 C :   -0.054522
  20 C :   -0.197365
  21 H :    0.030715
  22 C :   -0.045423
  23 H :    0.041237
  24 H :    0.028356
  25 C :   -0.047464
  26 H :    0.026057
  27 H :    0.021880
  28 C :   -0.060689
  29 H :    0.031937
  30 H :    0.014513
  31 H :    0.034694
  32 H :    0.028011
  33 H :    0.036062

  Mayer bond orders larger than 0.100000
B(  0-S ,  1-C ) :   1.1267 B(  0-S ,  4-C ) :   1.1475 B(  1-C ,  2-C ) :   1.6127
B(  1-C , 32-H ) :   0.9666 B(  2-C ,  3-C ) :   1.2175 B(  2-C ,  6-C ) :   1.0426
B(  3-C ,  4-C ) :   1.5797 B(  3-C ,  5-H ) :   0.9846 B(  4-C , 20-C ) :   1.0525
B(  6-C ,  7-H ) :   0.9392 B(  6-C ,  8-H ) :   0.9381 B(  6-C ,  9-C ) :   1.0509
B(  9-C , 10-H ) :   0.9517 B(  9-C , 11-H ) :   0.9530 B(  9-C , 12-C ) :   1.0865
B( 12-C , 13-H ) :   0.9673 B( 12-C , 14-H ) :   0.9722 B( 12-C , 15-H ) :   0.9668
B( 16-S , 17-C ) :   1.1708 B( 16-S , 20-C ) :   1.1278 B( 17-C , 18-C ) :   1.5737
B( 17-C , 20-C ) :   0.1109 B( 17-C , 33-H ) :   0.9604 B( 18-C , 19-C ) :   1.2733
B( 18-C , 21-H ) :   0.9850 B( 19-C , 20-C ) :   1.5746 B( 19-C , 22-C ) :   1.0365
B( 22-C , 23-H ) :   0.9272 B( 22-C , 24-H ) :   0.9220 B( 22-C , 25-C ) :   1.0975
B( 25-C , 26-H ) :   0.9496 B( 25-C , 27-H ) :   0.9493 B( 25-C , 28-C ) :   1.0749
B( 28-C , 29-H ) :   0.9764 B( 28-C , 30-H ) :   0.9763 B( 28-C , 31-H ) :   0.9771

Dispersion correction           -0.013850998
FINAL SINGLE POINT ENERGY     -1339.871486368490

DIPOLE MOMENT
-------------
                                X             Y             Z
Electronic contribution:      7.88597      13.36218      26.10376
Nuclear contribution   :     -8.05082     -13.64961     -26.79692
                        -----------------------------------------
Total Dipole Moment    :     -0.16485      -0.28743      -0.69316
                        -----------------------------------------
Magnitude (a.u.)       :      0.76828
Magnitude (Debye)      :      1.95282

Rotational constants in cm-1:     0.016094     0.009434     0.006540
Rotational constants in MHz :   482.479234   282.812551   196.055703

                             ****ORCA TERMINATED NORMALLY****
TOTAL RUN TIME: 0 days 0 hours 0 minutes 29 seconds 461 msec
