                         Program Version 4.2.1 -  RELEASE  -
|  1> ! wB97X-D3 SP def2-SVP
|  2> %pal
|  3> nprocs 16
|  4> end
|  5>
|  6> * xyz 0 1
|  7> S 	 -41.107 	 -1.04446 	 98.3146
|  8> C 	 -39.6783 	 -0.820146 	 99.2652
|  9> C 	 -38.8676 	 0.168962 	 98.7303
| 10> C 	 -39.3992 	 0.604046 	 97.4531
| 11> C 	 -40.6276 	 0.0984683 	 97.1067
| 12> H 	 -39.0125 	 1.3129 	 96.7347
| 13> C 	 -37.5638 	 0.644796 	 99.3826
| 14> H 	 -37.1757 	 -0.295535 	 99.9008
| 15> H 	 -37.821 	 1.47867 	 100.12
| 16> C 	 -36.4764 	 1.24434 	 98.4493
| 17> H 	 -36.1631 	 0.527349 	 97.6976
| 18> H 	 -36.8744 	 2.05691 	 97.8789
| 19> C 	 -35.2392 	 1.6923 	 99.2522
| 20> H 	 -34.9639 	 1.01378 	 100.026
| 21> H 	 -34.3924 	 1.88905 	 98.6353
| 22> H 	 -35.4729 	 2.62561 	 99.7671
| 23> S 	 -43.015 	 0.935985 	 96.143
| 24> C 	 -43.2665 	 1.13317 	 94.4404
| 25> C 	 -42.104 	 0.943706 	 93.7184
| 26> C 	 -41.0081 	 0.487466 	 94.5767
| 27> C 	 -41.408 	 0.38322 	 95.9303
| 28> H 	 -42.0504 	 1.0376 	 92.6532
| 29> C 	 -39.5903 	 0.273336 	 93.9953
| 30> H 	 -38.8743 	 0.281967 	 94.7988
| 31> H 	 -39.4554 	 1.20029 	 93.468
| 32> C 	 -39.4853 	 -1.05271 	 93.1828
| 33> H 	 -40.1067 	 -0.887719 	 92.2345
| 34> H 	 -39.8987 	 -1.85086 	 93.787
| 35> C 	 -38.0287 	 -1.4774 	 92.8602
| 36> H 	 -37.7419 	 -0.795169 	 92.0962
| 37> H 	 -37.8933 	 -2.40611 	 92.4024
| 38> H 	 -37.3605 	 -1.38281 	 93.6927
| 39> H 	 -39.3885 	 -1.29645 	 100.162
| 40> H 	 -44.2082 	 1.52019 	 93.9769
| 41> *
| 42>
| 43>                          ****END OF INPUT****

CARTESIAN COORDINATES (ANGSTROEM)
---------------------------------
  S    -41.107000   -1.044460   98.314600
  C    -39.678300   -0.820146   99.265200
  C    -38.867600    0.168962   98.730300
  C    -39.399200    0.604046   97.453100
  C    -40.627600    0.098468   97.106700
  H    -39.012500    1.312900   96.734700
  C    -37.563800    0.644796   99.382600
  H    -37.175700   -0.295535   99.900800
  H    -37.821000    1.478670  100.120000
  C    -36.476400    1.244340   98.449300
  H    -36.163100    0.527349   97.697600
  H    -36.874400    2.056910   97.878900
  C    -35.239200    1.692300   99.252200
  H    -34.963900    1.013780  100.026000
  H    -34.392400    1.889050   98.635300
  H    -35.472900    2.625610   99.767100
  S    -43.015000    0.935985   96.143000
  C    -43.266500    1.133170   94.440400
  C    -42.104000    0.943706   93.718400
  C    -41.008100    0.487466   94.576700
  C    -41.408000    0.383220   95.930300
  H    -42.050400    1.037600   92.653200
  C    -39.590300    0.273336   93.995300
  H    -38.874300    0.281967   94.798800
  H    -39.455400    1.200290   93.468000
  C    -39.485300   -1.052710   93.182800
  H    -40.106700   -0.887719   92.234500
  H    -39.898700   -1.850860   93.787000
  C    -38.028700   -1.477400   92.860200
  H    -37.741900   -0.795169   92.096200
  H    -37.893300   -2.406110   92.402400
  H    -37.360500   -1.382810   93.692700
  H    -39.388500   -1.296450  100.162000
  H    -44.208200    1.520190   93.976900

 Total Charge           Charge          ....    0
 Multiplicity           Mult            ....    1
 Number of Electrons    NEL             ....  134
 Basis Dimension        Dim             ....  322

ORBITAL ENERGIES
----------------

  NO   OCC          E(Eh)            E(eV)
   0   2.0000     -88.966009     -2420.8882
   1   2.0000     -88.964621     -2420.8504
   2   2.0000     -10.325020      -280.9581
   3   2.0000     -10.324105      -280.9332
   4   2.0000     -10.319960      -280.8204
   5   2.0000     -10.309563      -280.5375
   6   2.0000     -10.308859      -280.5183
   7   2.0000     -10.307294      -280.4757
   8   2.0000     -10.304493      -280.3995
   9   2.0000     -10.296575      -280.1840
  10   2.0000     -10.293167      -280.0913
  11   2.0000     -10.292233      -280.0659
  12   2.0000     -10.292138      -280.0633
  13   2.0000     -10.287902      -279.9480
  14   2.0000     -10.275193      -279.6022
  15   2.0000     -10.268274      -279.4139
  16   2.0000      -8.081685      -219.9138
  17   2.0000      -8.079861      -219.8642
  18   2.0000      -6.040151      -164.3609
  19   2.0000      -6.038319      -164.3110
  20   2.0000      -6.036001      -164.2479
  21   2.0000      -6.034215      -164.1993
  22   2.0000      -6.032490      -164.1524
  23   2.0000      -6.030711      -164.1040
  24   2.0000      -1.009955       -27.4823
  25   2.0000      -0.985474       -26.8161
  26   2.0000      -0.908223       -24.7140
  27   2.0000      -0.903682       -24.5904
  28   2.0000      -0.874236       -23.7892
  29   2.0000      -0.849972       -23.1289
  30   2.0000      -0.844174       -22.9711
  31   2.0000      -0.816856       -22.2278
  32   2.0000      -0.782365       -21.2892
  33   2.0000      -0.770933       -20.9781
  34   2.0000      -0.712937       -19.4000
  35   2.0000      -0.698838       -19.0164
  36   2.0000      -0.691050       -18.8044
  37   2.0000      -0.661131       -17.9903
  38   2.0000      -0.642522       -17.4839
  39   2.0000      -0.614946       -16.7335
  40   2.0000      -0.590575       -16.0704
  41   2.0000      -0.572324       -15.5737
  42   2.0000      -0.566982       -15.4284
  43   2.0000      -0.562536       -15.3074
  44   2.0000      -0.528748       -14.3880
  45   2.0000      -0.525766       -14.3068
  46   2.0000      -0.515763       -14.0346
  47   2.0000      -0.506591       -13.7850
  48   2.0000      -0.500908       -13.6304
  49   2.0000      -0.500040       -13.6068
  50   2.0000      -0.496243       -13.5035
  51   2.0000      -0.484299       -13.1785
  52   2.0000      -0.474532       -12.9127
  53   2.0000      -0.470065       -12.7911
  54   2.0000      -0.460607       -12.5337
  55   2.0000      -0.448910       -12.2155
  56   2.0000      -0.445152       -12.1132
  57   2.0000      -0.435527       -11.8513
  58   2.0000      -0.431931       -11.7534
  59   2.0000      -0.427600       -11.6356
  60   2.0000      -0.424563       -11.5529
  61   2.0000      -0.417942       -11.3728
  62   2.0000      -0.411033       -11.1848
  63   2.0000      -0.349809        -9.5188
  64   2.0000      -0.328287        -8.9331
  65   2.0000      -0.327728        -8.9179
  66   2.0000      -0.292570        -7.9612
  67   0.0000       0.035214         0.9582
  68   0.0000       0.073600         2.0027
  69   0.0000       0.112689         3.0664
  70   0.0000       0.129165         3.5147
  71   0.0000       0.130851         3.5606

MULLIKEN ATOMIC CHARGES
-----------------------
   0 S :    0.119624
   1 C :   -0.098652
   2 C :   -0.079230
   3 C :    0.016013
   4 C :   -0.161354
   5 H :    0.011361
   6 C :    0.011193
   7 H :    0.043187
   8 H :    0.058794
   9 C :   -0.084786
  10 H :    0.027929
  11 H :    0.031005
  12 C :   -0.017393
  13 H :    0.023102
  14 H :    0.030022
  15 H :    0.023770
  16 S :    0.119899
  17 C :   -0.105444
  18 C :   -0.027399
  19 C :   -0.079338
  20 C :   -0.152508
  21 H :    0.016656
  22 C :    0.094153
  23 H :   -0.000143
  24 H :    0.030246
  25 C :   -0.102466
  26 H :    0.041352
  27 H :    0.042144
  28 C :    0.002508
  29 H :    0.011948
  30 H :    0.022817
  31 H :    0.029672
  32 H :    0.026920
  33 H :    0.074398
Sum of atomic charges:   -0.0000000

LOEWDIN ATOMIC CHARGES
----------------------
   0 S :    0.422571
   1 C :   -0.200505
   2 C :   -0.065411
   3 C :   -0.069749
   4 C :   -0.206376
   5 H :    0.027125
   6 C :   -0.037971
   7 H :    0.039149
   8 H :    0.043163
   9 C :   -0.041646
  10 H :    0.022311
  11 H :    0.020595
  12 C :   -0.058557
  13 H :    0.021435
  14 H :    0.023932
  15 H :    0.026018
  16 S :    0.433012
  17 C :   -0.199628
  18 C :   -0.070318
  19 C :   -0.047039
  20 C :   -0.221355
  21 H :    0.028273
  22 C :   -0.028887
  23 H :    0.021345
  24 H :    0.030251
  25 C :   -0.035837
  26 H :    0.030829
  27 H :    0.025619
  28 C :   -0.060722
  29 H :    0.022604
  30 H :    0.019834
  31 H :    0.023632
  32 H :    0.022281
  33 H :    0.040020

  Mayer bond orders larger than 0.100000
B(  0-S ,  1-C ) :   1.1464 B(  0-S ,  4-C ) :   1.1497 B(  1-C ,  2-C ) :   1.6143
B(  1-C , 32-H ) :   0.9742 B(  2-C ,  3-C ) :   1.2299 B(  2-C ,  6-C ) :   1.0063
B(  3-C ,  4-C ) :   1.5934 B(  3-C ,  5-H ) :   0.9887 B(  4-C , 20-C ) :   1.0262
B(  6-C ,  7-H ) :   0.9456 B(  6-C ,  8-H ) :   0.9381 B(  6-C ,  9-C ) :   1.0755
B(  9-C , 10-H ) :   0.9593 B(  9-C , 11-H ) :   0.9486 B(  9-C , 12-C ) :   1.0845
B( 12-C , 13-H ) :   0.9759 B( 12-C , 14-H ) :   0.9739 B( 12-C , 15-H ) :   0.9738
B( 16-S , 17-C ) :   1.1606 B( 16-S , 20-C ) :   1.1614 B( 17-C , 18-C ) :   1.5999
B( 17-C , 33-H ) :   0.9619 B( 18-C , 19-C ) :   1.2486 B( 18-C , 21-H ) :   0.9915
B( 19-C , 20-C ) :   1.5761 B( 19-C , 22-C ) :   1.0320 B( 22-C , 23-H ) :   0.9323
B( 22-C , 24-H ) :   0.9360 B( 22-C , 25-C ) :   1.0513 B( 25-C , 26-H ) :   0.9588
B( 25-C , 27-H ) :   0.9610 B( 25-C , 28-C ) :   1.0791 B( 28-C , 29-H ) :   0.9728
B( 28-C , 30-H ) :   0.9752 B( 28-C , 31-H ) :   0.9752

Dispersion correction           -0.013620134
FINAL SINGLE POINT ENERGY     -1339.882830252718

DIPOLE MOMENT
-------------
                                X             Y             Z
Electronic contribution:    -29.60662      -1.74620       6.80775
Nuclear contribution   :     30.25341       1.99533      -7.10350
                        -----------------------------------------
Total Dipole Moment    :      0.64679       0.24912      -0.29575
                        -----------------------------------------
Magnitude (a.u.)       :      0.75357
Magnitude (Debye)      :      1.91543

Rotational constants in cm-1:     0.016479     0.008619     0.006674
Rotational constants in MHz :   494.020445   258.395004   200.079632

                             ****ORCA TERMINATED NORMALLY****
TOTAL RUN TIME: 0 days 0 hours 0 minutes 29 seconds 355 msec
