                         Program Version 4.2.1 -  RELEASE  -
|  1> ! wB97X-D3 SP def2-SVP
|  2> %pal
|  3> nprocs 16
|  4> end
|  5>
|  6> * xyz 0 1
|  7> S 	 -36.8789 	 66.6467 	 171.805
|  8> C 	 -36.0275 	 66.8575 	 170.302
|  9> C 	 -35.0428 	 67.8335 	 170.356
| 10> C 	 -35.0751 	 68.5371 	 171.618
| 11> C 	 -36.0218 	 68.0212 	 172.511
| 12> H 	 -34.4145 	 69.3419 	 171.986
| 13> C 	 -34.1219 	 68.333 	 169.271
| 14> H 	 -34.3108 	 67.5882 	 168.452
| 15> H 	 -33.0186 	 68.2595 	 169.53
| 16> C 	 -34.451 	 69.7896 	 168.746
| 17> H 	 -35.5144 	 69.8873 	 168.618
| 18> H 	 -34.3156 	 70.6026 	 169.509
| 19> C 	 -33.66 	 70.2434 	 167.495
| 20> H 	 -33.8964 	 71.1624 	 167.13
| 21> H 	 -32.5229 	 70.3702 	 167.707
| 22> H 	 -33.718 	 69.4754 	 166.725
| 23> S 	 -36.8136 	 70.09 	 174.161
| 24> C 	 -36.734 	 69.8082 	 175.909
| 25> C 	 -36.5517 	 68.5214 	 176.203
| 26> C 	 -36.2921 	 67.7166 	 175.046
| 27> C 	 -36.1939 	 68.4486 	 173.886
| 28> H 	 -36.6325 	 68.157 	 177.232
| 29> C 	 -36.0466 	 66.2482 	 175.179
| 30> H 	 -35.7832 	 65.8176 	 174.236
| 31> H 	 -36.9804 	 65.8148 	 175.43
| 32> C 	 -34.9853 	 65.7302 	 176.204
| 33> H 	 -35.0801 	 64.6447 	 176.437
| 34> H 	 -35.0392 	 66.1607 	 177.241
| 35> C 	 -33.5224 	 65.744 	 175.81
| 36> H 	 -33.0192 	 66.7488 	 175.793
| 37> H 	 -33.3256 	 65.3435 	 174.79
| 38> H 	 -33.0222 	 65.0667 	 176.526
| 39> H 	 -36.2114 	 66.2792 	 169.414
| 40> H 	 -36.7852 	 70.5966 	 176.599
| 41> *
| 42>
| 43>                          ****END OF INPUT****

CARTESIAN COORDINATES (ANGSTROEM)
---------------------------------
  S    -36.878900   66.646700  171.805000
  C    -36.027500   66.857500  170.302000
  C    -35.042800   67.833500  170.356000
  C    -35.075100   68.537100  171.618000
  C    -36.021800   68.021200  172.511000
  H    -34.414500   69.341900  171.986000
  C    -34.121900   68.333000  169.271000
  H    -34.310800   67.588200  168.452000
  H    -33.018600   68.259500  169.530000
  C    -34.451000   69.789600  168.746000
  H    -35.514400   69.887300  168.618000
  H    -34.315600   70.602600  169.509000
  C    -33.660000   70.243400  167.495000
  H    -33.896400   71.162400  167.130000
  H    -32.522900   70.370200  167.707000
  H    -33.718000   69.475400  166.725000
  S    -36.813600   70.090000  174.161000
  C    -36.734000   69.808200  175.909000
  C    -36.551700   68.521400  176.203000
  C    -36.292100   67.716600  175.046000
  C    -36.193900   68.448600  173.886000
  H    -36.632500   68.157000  177.232000
  C    -36.046600   66.248200  175.179000
  H    -35.783200   65.817600  174.236000
  H    -36.980400   65.814800  175.430000
  C    -34.985300   65.730200  176.204000
  H    -35.080100   64.644700  176.437000
  H    -35.039200   66.160700  177.241000
  C    -33.522400   65.744000  175.810000
  H    -33.019200   66.748800  175.793000
  H    -33.325600   65.343500  174.790000
  H    -33.022200   65.066700  176.526000
  H    -36.211400   66.279200  169.414000
  H    -36.785200   70.596600  176.599000

 Total Charge           Charge          ....    0
 Multiplicity           Mult            ....    1
 Number of Electrons    NEL             ....  134
 Basis Dimension        Dim             ....  322

ORBITAL ENERGIES
----------------

  NO   OCC          E(Eh)            E(eV)
   0   2.0000     -88.970776     -2421.0179
   1   2.0000     -88.959700     -2420.7165
   2   2.0000     -10.329343      -281.0757
   3   2.0000     -10.323663      -280.9211
   4   2.0000     -10.317672      -280.7581
   5   2.0000     -10.310450      -280.5616
   6   2.0000     -10.305601      -280.4297
   7   2.0000     -10.305088      -280.4157
   8   2.0000     -10.300197      -280.2826
   9   2.0000     -10.297688      -280.2143
  10   2.0000     -10.293569      -280.1023
  11   2.0000     -10.291273      -280.0398
  12   2.0000     -10.289930      -280.0032
  13   2.0000     -10.286006      -279.8965
  14   2.0000     -10.280296      -279.7411
  15   2.0000     -10.278329      -279.6876
  16   2.0000      -8.084857      -220.0001
  17   2.0000      -8.074230      -219.7110
  18   2.0000      -6.043381      -164.4488
  19   2.0000      -6.039455      -164.3419
  20   2.0000      -6.035636      -164.2380
  21   2.0000      -6.032847      -164.1621
  22   2.0000      -6.029045      -164.0587
  23   2.0000      -6.024601      -163.9377
  24   2.0000      -1.004895       -27.3446
  25   2.0000      -0.983177       -26.7536
  26   2.0000      -0.904853       -24.6223
  27   2.0000      -0.902746       -24.5650
  28   2.0000      -0.871533       -23.7156
  29   2.0000      -0.850678       -23.1481
  30   2.0000      -0.846085       -23.0231
  31   2.0000      -0.815449       -22.1895
  32   2.0000      -0.781999       -21.2793
  33   2.0000      -0.770989       -20.9797
  34   2.0000      -0.708552       -19.2807
  35   2.0000      -0.699157       -19.0250
  36   2.0000      -0.690898       -18.8003
  37   2.0000      -0.661050       -17.9881
  38   2.0000      -0.638578       -17.3766
  39   2.0000      -0.613432       -16.6923
  40   2.0000      -0.600390       -16.3374
  41   2.0000      -0.568733       -15.4760
  42   2.0000      -0.553041       -15.0490
  43   2.0000      -0.549574       -14.9547
  44   2.0000      -0.536770       -14.6062
  45   2.0000      -0.527695       -14.3593
  46   2.0000      -0.519147       -14.1267
  47   2.0000      -0.508951       -13.8493
  48   2.0000      -0.500882       -13.6297
  49   2.0000      -0.498748       -13.5716
  50   2.0000      -0.487545       -13.2668
  51   2.0000      -0.481632       -13.1059
  52   2.0000      -0.464611       -12.6427
  53   2.0000      -0.463211       -12.6046
  54   2.0000      -0.458448       -12.4750
  55   2.0000      -0.446620       -12.1532
  56   2.0000      -0.440640       -11.9904
  57   2.0000      -0.436154       -11.8684
  58   2.0000      -0.434015       -11.8102
  59   2.0000      -0.430881       -11.7249
  60   2.0000      -0.423219       -11.5164
  61   2.0000      -0.409463       -11.1420
  62   2.0000      -0.404860       -11.0168
  63   2.0000      -0.344564        -9.3761
  64   2.0000      -0.333312        -9.0699
  65   2.0000      -0.324990        -8.8434
  66   2.0000      -0.296240        -8.0611
  67   0.0000       0.031014         0.8439
  68   0.0000       0.071111         1.9350
  69   0.0000       0.103646         2.8203
  70   0.0000       0.112348         3.0571
  71   0.0000       0.131878         3.5886

MULLIKEN ATOMIC CHARGES
-----------------------
   0 S :    0.123720
   1 C :   -0.117960
   2 C :   -0.071699
   3 C :    0.009422
   4 C :   -0.165022
   5 H :    0.033125
   6 C :    0.040384
   7 H :    0.021977
   8 H :    0.053967
   9 C :   -0.088012
  10 H :    0.028637
  11 H :    0.032802
  12 C :   -0.029030
  13 H :    0.016957
  14 H :    0.031252
  15 H :    0.029351
  16 S :    0.085570
  17 C :   -0.067473
  18 C :   -0.020442
  19 C :   -0.047263
  20 C :   -0.149224
  21 H :    0.025548
  22 C :    0.133252
  23 H :    0.007934
  24 H :    0.024478
  25 C :   -0.110625
  26 H :    0.027067
  27 H :    0.030004
  28 C :   -0.078772
  29 H :    0.043561
  30 H :    0.031334
  31 H :    0.034700
  32 H :    0.043219
  33 H :    0.037263
Sum of atomic charges:    0.0000000

LOEWDIN ATOMIC CHARGES
----------------------
   0 S :    0.413107
   1 C :   -0.197173
   2 C :   -0.067004
   3 C :   -0.055010
   4 C :   -0.194864
   5 H :    0.038890
   6 C :   -0.037403
   7 H :    0.032141
   8 H :    0.040516
   9 C :   -0.045079
  10 H :    0.023199
  11 H :    0.028307
  12 C :   -0.062158
  13 H :    0.011723
  14 H :    0.034884
  15 H :    0.022964
  16 S :    0.373560
  17 C :   -0.158269
  18 C :   -0.068371
  19 C :   -0.056376
  20 C :   -0.190882
  21 H :    0.037168
  22 C :   -0.030929
  23 H :    0.019152
  24 H :    0.033116
  25 C :   -0.051581
  26 H :    0.030821
  27 H :    0.025746
  28 C :   -0.074932
  29 H :    0.026211
  30 H :    0.025218
  31 H :    0.028691
  32 H :    0.026216
  33 H :    0.018399

  Mayer bond orders larger than 0.100000
B(  0-S ,  1-C ) :   1.1428 B(  0-S ,  4-C ) :   1.1330 B(  1-C ,  2-C ) :   1.6179
B(  1-C , 32-H ) :   0.9644 B(  2-C ,  3-C ) :   1.2163 B(  2-C ,  6-C ) :   1.0378
B(  3-C ,  4-C ) :   1.5796 B(  3-C ,  5-H ) :   0.9880 B(  4-C , 20-C ) :   1.0519
B(  6-C ,  7-H ) :   0.9398 B(  6-C ,  8-H ) :   0.9393 B(  6-C ,  9-C ) :   1.0451
B(  9-C , 10-H ) :   0.9569 B(  9-C , 11-H ) :   0.9539 B(  9-C , 12-C ) :   1.0818
B( 12-C , 13-H ) :   0.9746 B( 12-C , 14-H ) :   0.9732 B( 12-C , 15-H ) :   0.9773
B( 16-S , 17-C ) :   1.1302 B( 16-S , 20-C ) :   1.1207 B( 17-C , 18-C ) :   1.6478
B( 17-C , 33-H ) :   0.9725 B( 18-C , 19-C ) :   1.1971 B( 18-C , 21-H ) :   0.9919
B( 19-C , 20-C ) :   1.6153 B( 19-C , 22-C ) :   1.0541 B( 22-C , 23-H ) :   0.9306
B( 22-C , 24-H ) :   0.9200 B( 22-C , 25-C ) :   1.0624 B( 25-C , 26-H ) :   0.9573
B( 25-C , 27-H ) :   0.9542 B( 25-C , 28-C ) :   1.0787 B( 28-C , 29-H ) :   0.9761
B( 28-C , 30-H ) :   0.9716 B( 28-C , 31-H ) :   0.9756

Dispersion correction           -0.013974787
FINAL SINGLE POINT ENERGY     -1339.874755192643

DIPOLE MOMENT
-------------
                                X             Y             Z
Electronic contribution:    -17.18129       3.66992       6.41200
Nuclear contribution   :     17.45689      -3.80869      -6.39540
                        -----------------------------------------
Total Dipole Moment    :      0.27561      -0.13877       0.01660
                        -----------------------------------------
Magnitude (a.u.)       :      0.30902
Magnitude (Debye)      :      0.78547

Rotational constants in cm-1:     0.020585     0.007535     0.006602
Rotational constants in MHz :   617.124677   225.890784   197.909762

                             ****ORCA TERMINATED NORMALLY****
TOTAL RUN TIME: 0 days 0 hours 0 minutes 28 seconds 865 msec
