                         Program Version 4.2.1 -  RELEASE  -
|  1> ! wB97X-D3 SP def2-SVP
|  2> %pal
|  3> nprocs 16
|  4> end
|  5>
|  6> * xyz 0 1
|  7> S 	 -39.4467 	 51.1112 	 117.2
|  8> C 	 -40.1546 	 52.413 	 118.161
|  9> C 	 -41.0269 	 53.1402 	 117.348
| 10> C 	 -41.2009 	 52.5392 	 116.032
| 11> C 	 -40.3933 	 51.4602 	 115.759
| 12> H 	 -41.8985 	 52.9708 	 115.298
| 13> C 	 -41.6404 	 54.5498 	 117.606
| 14> H 	 -41.2953 	 54.7259 	 118.638
| 15> H 	 -42.7626 	 54.52 	 117.508
| 16> C 	 -41.1368 	 55.7273 	 116.701
| 17> H 	 -41.1586 	 55.471 	 115.583
| 18> H 	 -41.7113 	 56.6808 	 116.948
| 19> C 	 -39.6777 	 56.0635 	 116.965
| 20> H 	 -39.515 	 56.3606 	 117.998
| 21> H 	 -39.0181 	 55.2104 	 116.878
| 22> H 	 -39.3676 	 56.889 	 116.257
| 23> S 	 -39.8401 	 48.8858 	 114.841
| 24> C 	 -40.0748 	 48.4483 	 113.137
| 25> C 	 -40.6173 	 49.5088 	 112.472
| 26> C 	 -40.8253 	 50.6835 	 113.263
| 27> C 	 -40.3612 	 50.5734 	 114.606
| 28> H 	 -40.6677 	 49.3715 	 111.393
| 29> C 	 -41.2769 	 51.9797 	 112.609
| 30> H 	 -40.8521 	 51.9355 	 111.606
| 31> H 	 -40.7572 	 52.8217 	 113.033
| 32> C 	 -42.7908 	 52.1057 	 112.593
| 33> H 	 -43.1758 	 52.1784 	 113.622
| 34> H 	 -43.2684 	 51.153 	 112.211
| 35> C 	 -43.2728 	 53.2183 	 111.734
| 36> H 	 -42.9314 	 52.9322 	 110.744
| 37> H 	 -42.7256 	 54.2463 	 111.893
| 38> H 	 -44.382 	 53.3714 	 111.747
| 39> H 	 -39.6618 	 52.6884 	 119.097
| 40> H 	 -39.8702 	 47.5166 	 112.589
| 41> *
| 42>
| 43>                          ****END OF INPUT****

CARTESIAN COORDINATES (ANGSTROEM)
---------------------------------
  S    -39.446700   51.111200  117.200000
  C    -40.154600   52.413000  118.161000
  C    -41.026900   53.140200  117.348000
  C    -41.200900   52.539200  116.032000
  C    -40.393300   51.460200  115.759000
  H    -41.898500   52.970800  115.298000
  C    -41.640400   54.549800  117.606000
  H    -41.295300   54.725900  118.638000
  H    -42.762600   54.520000  117.508000
  C    -41.136800   55.727300  116.701000
  H    -41.158600   55.471000  115.583000
  H    -41.711300   56.680800  116.948000
  C    -39.677700   56.063500  116.965000
  H    -39.515000   56.360600  117.998000
  H    -39.018100   55.210400  116.878000
  H    -39.367600   56.889000  116.257000
  S    -39.840100   48.885800  114.841000
  C    -40.074800   48.448300  113.137000
  C    -40.617300   49.508800  112.472000
  C    -40.825300   50.683500  113.263000
  C    -40.361200   50.573400  114.606000
  H    -40.667700   49.371500  111.393000
  C    -41.276900   51.979700  112.609000
  H    -40.852100   51.935500  111.606000
  H    -40.757200   52.821700  113.033000
  C    -42.790800   52.105700  112.593000
  H    -43.175800   52.178400  113.622000
  H    -43.268400   51.153000  112.211000
  C    -43.272800   53.218300  111.734000
  H    -42.931400   52.932200  110.744000
  H    -42.725600   54.246300  111.893000
  H    -44.382000   53.371400  111.747000
  H    -39.661800   52.688400  119.097000
  H    -39.870200   47.516600  112.589000

 Total Charge           Charge          ....    0
 Multiplicity           Mult            ....    1
 Number of Electrons    NEL             ....  134
 Basis Dimension        Dim             ....  322

ORBITAL ENERGIES
----------------

  NO   OCC          E(Eh)            E(eV)
   0   2.0000     -88.966720     -2420.9075
   1   2.0000     -88.965614     -2420.8774
   2   2.0000     -10.338204      -281.3168
   3   2.0000     -10.337828      -281.3066
   4   2.0000     -10.324815      -280.9525
   5   2.0000     -10.321466      -280.8614
   6   2.0000     -10.312667      -280.6219
   7   2.0000     -10.310750      -280.5698
   8   2.0000     -10.305509      -280.4271
   9   2.0000     -10.301640      -280.3219
  10   2.0000     -10.299008      -280.2503
  11   2.0000     -10.295035      -280.1421
  12   2.0000     -10.291671      -280.0506
  13   2.0000     -10.290442      -280.0172
  14   2.0000     -10.287609      -279.9401
  15   2.0000     -10.276636      -279.6415
  16   2.0000      -8.080397      -219.8788
  17   2.0000      -8.080154      -219.8722
  18   2.0000      -6.039167      -164.3341
  19   2.0000      -6.038917      -164.3273
  20   2.0000      -6.034935      -164.2189
  21   2.0000      -6.034569      -164.2090
  22   2.0000      -6.031025      -164.1125
  23   2.0000      -6.030758      -164.1053
  24   2.0000      -1.003858       -27.3164
  25   2.0000      -0.980860       -26.6905
  26   2.0000      -0.916066       -24.9274
  27   2.0000      -0.906176       -24.6583
  28   2.0000      -0.872836       -23.7511
  29   2.0000      -0.851555       -23.1720
  30   2.0000      -0.840744       -22.8778
  31   2.0000      -0.819119       -22.2894
  32   2.0000      -0.778423       -21.1820
  33   2.0000      -0.769184       -20.9306
  34   2.0000      -0.709259       -19.2999
  35   2.0000      -0.694658       -18.9026
  36   2.0000      -0.690261       -18.7830
  37   2.0000      -0.657985       -17.9047
  38   2.0000      -0.638531       -17.3753
  39   2.0000      -0.625094       -17.0097
  40   2.0000      -0.593392       -16.1470
  41   2.0000      -0.568340       -15.4653
  42   2.0000      -0.563150       -15.3241
  43   2.0000      -0.546098       -14.8601
  44   2.0000      -0.541286       -14.7291
  45   2.0000      -0.531382       -14.4596
  46   2.0000      -0.522872       -14.2281
  47   2.0000      -0.516334       -14.0502
  48   2.0000      -0.508403       -13.8343
  49   2.0000      -0.505375       -13.7520
  50   2.0000      -0.488428       -13.2908
  51   2.0000      -0.483024       -13.1438
  52   2.0000      -0.466550       -12.6955
  53   2.0000      -0.460803       -12.5391
  54   2.0000      -0.449800       -12.2397
  55   2.0000      -0.447227       -12.1697
  56   2.0000      -0.441464       -12.0128
  57   2.0000      -0.437702       -11.9105
  58   2.0000      -0.431442       -11.7401
  59   2.0000      -0.428266       -11.6537
  60   2.0000      -0.417331       -11.3562
  61   2.0000      -0.410125       -11.1601
  62   2.0000      -0.406356       -11.0575
  63   2.0000      -0.365414        -9.9434
  64   2.0000      -0.333164        -9.0659
  65   2.0000      -0.326556        -8.8860
  66   2.0000      -0.287883        -7.8337
  67   0.0000       0.014854         0.4042
  68   0.0000       0.081117         2.2073
  69   0.0000       0.098826         2.6892
  70   0.0000       0.116486         3.1698
  71   0.0000       0.123700         3.3661

MULLIKEN ATOMIC CHARGES
-----------------------
   0 S :    0.082477
   1 C :   -0.127619
   2 C :   -0.099432
   3 C :   -0.012219
   4 C :   -0.101613
   5 H :    0.016041
   6 C :    0.049357
   7 H :    0.022372
   8 H :    0.054163
   9 C :   -0.107653
  10 H :    0.048853
  11 H :    0.051321
  12 C :   -0.068750
  13 H :    0.018043
  14 H :    0.036072
  15 H :    0.046386
  16 S :    0.088522
  17 C :   -0.094213
  18 C :   -0.040868
  19 C :   -0.051394
  20 C :   -0.104278
  21 H :    0.026056
  22 C :    0.045673
  23 H :    0.016514
  24 H :    0.025231
  25 C :   -0.074842
  26 H :    0.032069
  27 H :    0.035504
  28 C :   -0.056771
  29 H :    0.021260
  30 H :    0.036611
  31 H :    0.052675
  32 H :    0.068786
  33 H :    0.065665
Sum of atomic charges:   -0.0000000

LOEWDIN ATOMIC CHARGES
----------------------
   0 S :    0.390957
   1 C :   -0.195107
   2 C :   -0.062569
   3 C :   -0.070643
   4 C :   -0.183388
   5 H :    0.031617
   6 C :   -0.035668
   7 H :    0.029980
   8 H :    0.038665
   9 C :   -0.051623
  10 H :    0.031758
  11 H :    0.035515
  12 C :   -0.073602
  13 H :    0.018955
  14 H :    0.023198
  15 H :    0.033535
  16 S :    0.383168
  17 C :   -0.181533
  18 C :   -0.079624
  19 C :   -0.051805
  20 C :   -0.185016
  21 H :    0.035979
  22 C :   -0.032152
  23 H :    0.030435
  24 H :    0.027631
  25 C :   -0.050124
  26 H :    0.021010
  27 H :    0.033846
  28 C :   -0.076095
  29 H :    0.022328
  30 H :    0.032558
  31 H :    0.032222
  32 H :    0.033650
  33 H :    0.041943

  Mayer bond orders larger than 0.100000
B(  0-S ,  1-C ) :   1.1312 B(  0-S ,  4-C ) :   1.1390 B(  1-C ,  2-C ) :   1.6059
B(  1-C , 32-H ) :   0.9666 B(  2-C ,  3-C ) :   1.2351 B(  2-C ,  6-C ) :   1.0170
B(  3-C ,  4-C ) :   1.5715 B(  3-C ,  5-H ) :   0.9829 B(  4-C , 20-C ) :   1.0799
B(  6-C ,  7-H ) :   0.9458 B(  6-C ,  8-H ) :   0.9418 B(  6-C ,  9-C ) :   1.0586
B(  9-C , 10-H ) :   0.9550 B(  9-C , 11-H ) :   0.9552 B(  9-C , 12-C ) :   1.0713
B( 12-C , 13-H ) :   0.9729 B( 12-C , 14-H ) :   0.9768 B( 12-C , 15-H ) :   0.9739
B( 16-S , 17-C ) :   1.1391 B( 16-S , 20-C ) :   1.1276 B( 17-C , 18-C ) :   1.6381
B( 17-C , 33-H ) :   0.9608 B( 18-C , 19-C ) :   1.2447 B( 18-C , 21-H ) :   0.9838
B( 19-C , 20-C ) :   1.5720 B( 19-C , 22-C ) :   1.0364 B( 22-C , 23-H ) :   0.9407
B( 22-C , 24-H ) :   0.9389 B( 22-C , 25-C ) :   1.0515 B( 25-C , 26-H ) :   0.9499
B( 25-C , 27-H ) :   0.9513 B( 25-C , 28-C ) :   1.0784 B( 28-C , 29-H ) :   0.9719
B( 28-C , 30-H ) :   0.9695 B( 28-C , 31-H ) :   0.9722

Dispersion correction           -0.014448275
FINAL SINGLE POINT ENERGY     -1339.877465692235

DIPOLE MOMENT
-------------
                                X             Y             Z
Electronic contribution:     11.45136     -26.45361       9.23483
Nuclear contribution   :    -11.67112      26.97894      -9.69370
                        -----------------------------------------
Total Dipole Moment    :     -0.21976       0.52533      -0.45887
                        -----------------------------------------
Magnitude (a.u.)       :      0.73132
Magnitude (Debye)      :      1.85887

Rotational constants in cm-1:     0.017186     0.009837     0.006719
Rotational constants in MHz :   515.235445   294.902678   201.415576

                             ****ORCA TERMINATED NORMALLY****
TOTAL RUN TIME: 0 days 0 hours 0 minutes 30 seconds 536 msec
