                         Program Version 4.2.1 -  RELEASE  -
|  1> ! wB97X-D3 SP def2-SVP
|  2> %pal
|  3> nprocs 16
|  4> end
|  5>
|  6> * xyz 0 1
|  7> S 	 -2.6114 	 -13.779 	 81.7021
|  8> C 	 -1.37213 	 -12.703 	 82.3886
|  9> C 	 -1.80831 	 -11.3852 	 82.3872
| 10> C 	 -3.16388 	 -11.2794 	 81.9919
| 11> C 	 -3.76931 	 -12.4741 	 81.5777
| 12> H 	 -3.71061 	 -10.3598 	 82.0078
| 13> C 	 -1.02442 	 -10.1017 	 82.6298
| 14> H 	 -0.166334 	 -10.4651 	 83.2738
| 15> H 	 -1.60684 	 -9.38472 	 83.1879
| 16> C 	 -0.459485 	 -9.5732 	 81.2945
| 17> H 	 0.340862 	 -8.92959 	 81.4941
| 18> H 	 0.019129 	 -10.384 	 80.7495
| 19> C 	 -1.49172 	 -8.82156 	 80.4748
| 20> H 	 -2.39775 	 -9.34162 	 80.179
| 21> H 	 -1.782 	 -7.95004 	 81.0316
| 22> H 	 -1.03451 	 -8.42018 	 79.5618
| 23> S 	 -5.98159 	 -11.3593 	 80.3248
| 24> C 	 -7.42366 	 -12.273 	 80.1623
| 25> C 	 -7.41911 	 -13.4715 	 80.8348
| 26> C 	 -6.08694 	 -13.7196 	 81.3157
| 27> C 	 -5.15497 	 -12.6478 	 81.1596
| 28> H 	 -8.22637 	 -14.1782 	 80.9726
| 29> C 	 -5.87972 	 -14.8967 	 82.2926
| 30> H 	 -4.85105 	 -14.8255 	 82.4947
| 31> H 	 -6.02607 	 -15.89 	 81.8885
| 32> C 	 -6.54166 	 -14.7545 	 83.6968
| 33> H 	 -7.59964 	 -14.8734 	 83.747
| 34> H 	 -6.45206 	 -13.7695 	 84.1686
| 35> C 	 -5.99169 	 -15.7556 	 84.6951
| 36> H 	 -6.48855 	 -15.5499 	 85.6211
| 37> H 	 -4.89802 	 -15.7471 	 84.9057
| 38> H 	 -6.25151 	 -16.7234 	 84.2607
| 39> H 	 -0.44509 	 -13.0758 	 82.6545
| 40> H 	 -8.26214 	 -11.8103 	 79.8327
| 41> *
| 42>
| 43>                          ****END OF INPUT****

CARTESIAN COORDINATES (ANGSTROEM)
---------------------------------
  S     -2.611400  -13.779000   81.702100
  C     -1.372130  -12.703000   82.388600
  C     -1.808310  -11.385200   82.387200
  C     -3.163880  -11.279400   81.991900
  C     -3.769310  -12.474100   81.577700
  H     -3.710610  -10.359800   82.007800
  C     -1.024420  -10.101700   82.629800
  H     -0.166334  -10.465100   83.273800
  H     -1.606840   -9.384720   83.187900
  C     -0.459485   -9.573200   81.294500
  H      0.340862   -8.929590   81.494100
  H      0.019129  -10.384000   80.749500
  C     -1.491720   -8.821560   80.474800
  H     -2.397750   -9.341620   80.179000
  H     -1.782000   -7.950040   81.031600
  H     -1.034510   -8.420180   79.561800
  S     -5.981590  -11.359300   80.324800
  C     -7.423660  -12.273000   80.162300
  C     -7.419110  -13.471500   80.834800
  C     -6.086940  -13.719600   81.315700
  C     -5.154970  -12.647800   81.159600
  H     -8.226370  -14.178200   80.972600
  C     -5.879720  -14.896700   82.292600
  H     -4.851050  -14.825500   82.494700
  H     -6.026070  -15.890000   81.888500
  C     -6.541660  -14.754500   83.696800
  H     -7.599640  -14.873400   83.747000
  H     -6.452060  -13.769500   84.168600
  C     -5.991690  -15.755600   84.695100
  H     -6.488550  -15.549900   85.621100
  H     -4.898020  -15.747100   84.905700
  H     -6.251510  -16.723400   84.260700
  H     -0.445090  -13.075800   82.654500
  H     -8.262140  -11.810300   79.832700

 Total Charge           Charge          ....    0
 Multiplicity           Mult            ....    1
 Number of Electrons    NEL             ....  134
 Basis Dimension        Dim             ....  322

ORBITAL ENERGIES
----------------

  NO   OCC          E(Eh)            E(eV)
   0   2.0000     -88.968698     -2420.9614
   1   2.0000     -88.967790     -2420.9366
   2   2.0000     -10.334469      -281.2152
   3   2.0000     -10.331854      -281.1440
   4   2.0000     -10.313228      -280.6372
   5   2.0000     -10.309839      -280.5450
   6   2.0000     -10.306278      -280.4481
   7   2.0000     -10.301762      -280.3252
   8   2.0000     -10.297260      -280.2027
   9   2.0000     -10.295256      -280.1482
  10   2.0000     -10.290227      -280.0113
  11   2.0000     -10.283589      -279.8307
  12   2.0000     -10.282223      -279.7935
  13   2.0000     -10.279295      -279.7138
  14   2.0000     -10.273075      -279.5446
  15   2.0000     -10.272082      -279.5176
  16   2.0000      -8.083147      -219.9536
  17   2.0000      -8.082365      -219.9323
  18   2.0000      -6.041600      -164.4003
  19   2.0000      -6.040968      -164.3831
  20   2.0000      -6.037521      -164.2893
  21   2.0000      -6.036919      -164.2729
  22   2.0000      -6.034004      -164.1936
  23   2.0000      -6.033199      -164.1717
  24   2.0000      -1.005858       -27.3708
  25   2.0000      -0.984596       -26.7922
  26   2.0000      -0.914065       -24.8730
  27   2.0000      -0.904729       -24.6189
  28   2.0000      -0.871065       -23.7029
  29   2.0000      -0.853572       -23.2269
  30   2.0000      -0.844298       -22.9745
  31   2.0000      -0.814258       -22.1571
  32   2.0000      -0.783038       -21.3075
  33   2.0000      -0.769852       -20.9487
  34   2.0000      -0.707878       -19.2623
  35   2.0000      -0.703134       -19.1333
  36   2.0000      -0.695877       -18.9358
  37   2.0000      -0.668302       -18.1854
  38   2.0000      -0.642074       -17.4717
  39   2.0000      -0.614663       -16.7258
  40   2.0000      -0.601472       -16.3669
  41   2.0000      -0.576073       -15.6758
  42   2.0000      -0.560659       -15.2563
  43   2.0000      -0.547499       -14.8982
  44   2.0000      -0.546495       -14.8709
  45   2.0000      -0.528266       -14.3748
  46   2.0000      -0.516714       -14.0605
  47   2.0000      -0.514075       -13.9887
  48   2.0000      -0.505110       -13.7447
  49   2.0000      -0.495507       -13.4834
  50   2.0000      -0.484987       -13.1972
  51   2.0000      -0.482267       -13.1232
  52   2.0000      -0.477030       -12.9807
  53   2.0000      -0.467019       -12.7082
  54   2.0000      -0.462141       -12.5755
  55   2.0000      -0.448730       -12.2106
  56   2.0000      -0.441647       -12.0178
  57   2.0000      -0.436515       -11.8782
  58   2.0000      -0.432238       -11.7618
  59   2.0000      -0.424779       -11.5588
  60   2.0000      -0.417701       -11.3662
  61   2.0000      -0.412458       -11.2236
  62   2.0000      -0.408160       -11.1066
  63   2.0000      -0.356158        -9.6916
  64   2.0000      -0.331679        -9.0254
  65   2.0000      -0.330794        -9.0014
  66   2.0000      -0.282936        -7.6991
  67   0.0000       0.019539         0.5317
  68   0.0000       0.080771         2.1979
  69   0.0000       0.110789         3.0147
  70   0.0000       0.115423         3.1408
  71   0.0000       0.131915         3.5896

MULLIKEN ATOMIC CHARGES
-----------------------
   0 S :    0.106988
   1 C :   -0.121137
   2 C :   -0.064962
   3 C :   -0.006421
   4 C :   -0.111222
   5 H :    0.005563
   6 C :    0.043393
   7 H :    0.027776
   8 H :    0.031322
   9 C :   -0.015486
  10 H :    0.015423
  11 H :    0.024048
  12 C :   -0.047270
  13 H :    0.042673
  14 H :    0.016376
  15 H :    0.030291
  16 S :    0.104173
  17 C :   -0.038105
  18 C :   -0.012262
  19 C :   -0.084033
  20 C :   -0.132496
  21 H :    0.026175
  22 C :    0.091095
  23 H :   -0.008391
  24 H :    0.026658
  25 C :   -0.063591
  26 H :    0.012623
  27 H :    0.024482
  28 C :   -0.061178
  29 H :    0.028741
  30 H :    0.043258
  31 H :    0.024308
  32 H :    0.018992
  33 H :    0.022193
Sum of atomic charges:   -0.0000000

LOEWDIN ATOMIC CHARGES
----------------------
   0 S :    0.412093
   1 C :   -0.181415
   2 C :   -0.056285
   3 C :   -0.071225
   4 C :   -0.187843
   5 H :    0.022173
   6 C :   -0.026782
   7 H :    0.036386
   8 H :    0.027226
   9 C :   -0.032529
  10 H :    0.018393
  11 H :    0.026753
  12 C :   -0.064605
  13 H :    0.024745
  14 H :    0.021651
  15 H :    0.029414
  16 S :    0.430208
  17 C :   -0.174808
  18 C :   -0.061479
  19 C :   -0.053292
  20 C :   -0.205869
  21 H :    0.036034
  22 C :   -0.034360
  23 H :    0.008052
  24 H :    0.028086
  25 C :   -0.039552
  26 H :    0.016043
  27 H :    0.025835
  28 C :   -0.062623
  29 H :    0.024029
  30 H :    0.027594
  31 H :    0.022346
  32 H :    0.010318
  33 H :    0.005288

  Mayer bond orders larger than 0.100000
B(  0-S ,  1-C ) :   1.1371 B(  0-S ,  4-C ) :   1.1532 B(  1-C ,  2-C ) :   1.5825
B(  1-C , 32-H ) :   0.9846 B(  2-C ,  3-C ) :   1.2713 B(  2-C ,  6-C ) :   1.0236
B(  3-C ,  4-C ) :   1.5304 B(  3-C ,  5-H ) :   0.9863 B(  4-C , 20-C ) :   1.0755
B(  6-C ,  7-H ) :   0.9359 B(  6-C ,  8-H ) :   0.9472 B(  6-C ,  9-C ) :   1.0680
B(  9-C , 10-H ) :   0.9526 B(  9-C , 11-H ) :   0.9502 B(  9-C , 12-C ) :   1.0851
B( 12-C , 13-H ) :   0.9708 B( 12-C , 14-H ) :   0.9730 B( 12-C , 15-H ) :   0.9695
B( 16-S , 17-C ) :   1.1812 B( 16-S , 20-C ) :   1.1430 B( 17-C , 18-C ) :   1.5618
B( 17-C , 33-H ) :   0.9757 B( 18-C , 19-C ) :   1.2736 B( 18-C , 21-H ) :   0.9956
B( 19-C , 20-C ) :   1.5359 B( 19-C , 22-C ) :   1.0528 B( 22-C , 23-H ) :   0.9296
B( 22-C , 24-H ) :   0.9348 B( 22-C , 25-C ) :   1.0490 B( 25-C , 26-H ) :   0.9531
B( 25-C , 27-H ) :   0.9568 B( 25-C , 28-C ) :   1.0858 B( 28-C , 29-H ) :   0.9733
B( 28-C , 30-H ) :   0.9772 B( 28-C , 31-H ) :   0.9764

Dispersion correction           -0.014521832
FINAL SINGLE POINT ENERGY     -1339.874113503229

DIPOLE MOMENT
-------------
                                X             Y             Z
Electronic contribution:     -4.45667      -2.03196     -10.15402
Nuclear contribution   :      4.45723       2.27070      10.44523
                        -----------------------------------------
Total Dipole Moment    :      0.00057       0.23873       0.29120
                        -----------------------------------------
Magnitude (a.u.)       :      0.37655
Magnitude (Debye)      :      0.95712

Rotational constants in cm-1:     0.020284     0.008883     0.006791
Rotational constants in MHz :   608.109203   266.316344   203.589369

                             ****ORCA TERMINATED NORMALLY****
TOTAL RUN TIME: 0 days 0 hours 0 minutes 33 seconds 930 msec
