                         Program Version 4.2.1 -  RELEASE  -
|  1> ! wB97X-D3 SP def2-SVP
|  2> %pal
|  3> nprocs 16
|  4> end
|  5>
|  6> * xyz 0 1
|  7> S 	 -6.21265 	 33.6192 	 34.8289
|  8> C 	 -6.10724 	 33.2664 	 33.1019
|  9> C 	 -6.48516 	 34.2422 	 32.2423
| 10> C 	 -6.6364 	 35.4555 	 33.0347
| 11> C 	 -6.60467 	 35.3406 	 34.4323
| 12> H 	 -6.91857 	 36.3824 	 32.6456
| 13> C 	 -6.40869 	 34.2075 	 30.7563
| 14> H 	 -7.23146 	 34.8622 	 30.417
| 15> H 	 -6.69527 	 33.2026 	 30.4421
| 16> C 	 -5.0234 	 34.4862 	 30.1935
| 17> H 	 -4.73479 	 35.4749 	 30.4233
| 18> H 	 -4.2967 	 33.8432 	 30.7244
| 19> C 	 -4.97785 	 34.3631 	 28.6209
| 20> H 	 -5.62886 	 33.5603 	 28.2277
| 21> H 	 -5.3268 	 35.3455 	 28.1538
| 22> H 	 -3.95306 	 34.1218 	 28.321
| 23> S 	 -6.12384 	 37.9154 	 35.1184
| 24> C 	 -6.80362 	 38.6493 	 36.5551
| 25> C 	 -7.61827 	 37.7601 	 37.1675
| 26> C 	 -7.73853 	 36.4607 	 36.5201
| 27> C 	 -7.00911 	 36.3646 	 35.3531
| 28> H 	 -8.1695 	 38.1693 	 38.098
| 29> C 	 -8.57153 	 35.3017 	 37.0984
| 30> H 	 -8.55444 	 35.3158 	 38.1635
| 31> H 	 -8.12605 	 34.317 	 36.8229
| 32> C 	 -10.0411 	 35.3094 	 36.7458
| 33> H 	 -10.464 	 34.2826 	 37.0545
| 34> H 	 -10.0698 	 35.2619 	 35.6405
| 35> C 	 -10.8581 	 36.36 	 37.384
| 36> H 	 -10.8149 	 36.3451 	 38.457
| 37> H 	 -11.9404 	 36.2955 	 37.0469
| 38> H 	 -10.4962 	 37.3228 	 37.1993
| 39> H 	 -5.80095 	 32.2378 	 32.7048
| 40> H 	 -6.55688 	 39.6354 	 36.8821
| 41> *
| 42>
| 43>                          ****END OF INPUT****

CARTESIAN COORDINATES (ANGSTROEM)
---------------------------------
  S     -6.212650   33.619200   34.828900
  C     -6.107240   33.266400   33.101900
  C     -6.485160   34.242200   32.242300
  C     -6.636400   35.455500   33.034700
  C     -6.604670   35.340600   34.432300
  H     -6.918570   36.382400   32.645600
  C     -6.408690   34.207500   30.756300
  H     -7.231460   34.862200   30.417000
  H     -6.695270   33.202600   30.442100
  C     -5.023400   34.486200   30.193500
  H     -4.734790   35.474900   30.423300
  H     -4.296700   33.843200   30.724400
  C     -4.977850   34.363100   28.620900
  H     -5.628860   33.560300   28.227700
  H     -5.326800   35.345500   28.153800
  H     -3.953060   34.121800   28.321000
  S     -6.123840   37.915400   35.118400
  C     -6.803620   38.649300   36.555100
  C     -7.618270   37.760100   37.167500
  C     -7.738530   36.460700   36.520100
  C     -7.009110   36.364600   35.353100
  H     -8.169500   38.169300   38.098000
  C     -8.571530   35.301700   37.098400
  H     -8.554440   35.315800   38.163500
  H     -8.126050   34.317000   36.822900
  C    -10.041100   35.309400   36.745800
  H    -10.464000   34.282600   37.054500
  H    -10.069800   35.261900   35.640500
  C    -10.858100   36.360000   37.384000
  H    -10.814900   36.345100   38.457000
  H    -11.940400   36.295500   37.046900
  H    -10.496200   37.322800   37.199300
  H     -5.800950   32.237800   32.704800
  H     -6.556880   39.635400   36.882100

 Total Charge           Charge          ....    0
 Multiplicity           Mult            ....    1
 Number of Electrons    NEL             ....  134
 Basis Dimension        Dim             ....  322

ORBITAL ENERGIES
----------------

  NO   OCC          E(Eh)            E(eV)
   0   2.0000     -88.970641     -2421.0142
   1   2.0000     -88.958764     -2420.6910
   2   2.0000     -10.336351      -281.2664
   3   2.0000     -10.331913      -281.1456
   4   2.0000     -10.321154      -280.8529
   5   2.0000     -10.316089      -280.7151
   6   2.0000     -10.309938      -280.5477
   7   2.0000     -10.302177      -280.3365
   8   2.0000     -10.301164      -280.3089
   9   2.0000     -10.296333      -280.1775
  10   2.0000     -10.295530      -280.1556
  11   2.0000     -10.290506      -280.0189
  12   2.0000     -10.289837      -280.0007
  13   2.0000     -10.288345      -279.9601
  14   2.0000     -10.284332      -279.8509
  15   2.0000     -10.270620      -279.4778
  16   2.0000      -8.083766      -219.9705
  17   2.0000      -8.073309      -219.6859
  18   2.0000      -6.042503      -164.4249
  19   2.0000      -6.038638      -164.3197
  20   2.0000      -6.034236      -164.1999
  21   2.0000      -6.032005      -164.1392
  22   2.0000      -6.027790      -164.0245
  23   2.0000      -6.023899      -163.9186
  24   2.0000      -1.001868       -27.2622
  25   2.0000      -0.980812       -26.6893
  26   2.0000      -0.914884       -24.8953
  27   2.0000      -0.912055       -24.8183
  28   2.0000      -0.873811       -23.7776
  29   2.0000      -0.847725       -23.0678
  30   2.0000      -0.842814       -22.9341
  31   2.0000      -0.811134       -22.0721
  32   2.0000      -0.785039       -21.3620
  33   2.0000      -0.775019       -21.0894
  34   2.0000      -0.710693       -19.3389
  35   2.0000      -0.705134       -19.1877
  36   2.0000      -0.686961       -18.6932
  37   2.0000      -0.662834       -18.0366
  38   2.0000      -0.635343       -17.2886
  39   2.0000      -0.617053       -16.7909
  40   2.0000      -0.592182       -16.1141
  41   2.0000      -0.570872       -15.5342
  42   2.0000      -0.559471       -15.2240
  43   2.0000      -0.553035       -15.0488
  44   2.0000      -0.543623       -14.7927
  45   2.0000      -0.525596       -14.3022
  46   2.0000      -0.515820       -14.0362
  47   2.0000      -0.514026       -13.9874
  48   2.0000      -0.505037       -13.7428
  49   2.0000      -0.495290       -13.4775
  50   2.0000      -0.494141       -13.4463
  51   2.0000      -0.481165       -13.0932
  52   2.0000      -0.468293       -12.7429
  53   2.0000      -0.462442       -12.5837
  54   2.0000      -0.460472       -12.5301
  55   2.0000      -0.448136       -12.1944
  56   2.0000      -0.439984       -11.9726
  57   2.0000      -0.436037       -11.8652
  58   2.0000      -0.428374       -11.6566
  59   2.0000      -0.424885       -11.5617
  60   2.0000      -0.422574       -11.4988
  61   2.0000      -0.418240       -11.3809
  62   2.0000      -0.401531       -10.9262
  63   2.0000      -0.355645        -9.6776
  64   2.0000      -0.332579        -9.0499
  65   2.0000      -0.327689        -8.9169
  66   2.0000      -0.291300        -7.9267
  67   0.0000       0.025553         0.6953
  68   0.0000       0.069403         1.8886
  69   0.0000       0.105203         2.8627
  70   0.0000       0.108188         2.9439
  71   0.0000       0.127584         3.4717

MULLIKEN ATOMIC CHARGES
-----------------------
   0 S :    0.108784
   1 C :   -0.147454
   2 C :   -0.074746
   3 C :    0.022251
   4 C :   -0.110544
   5 H :   -0.009996
   6 C :    0.064199
   7 H :    0.033590
   8 H :    0.015468
   9 C :   -0.045578
  10 H :    0.019270
  11 H :    0.031636
  12 C :   -0.070276
  13 H :    0.034750
  14 H :    0.049853
  15 H :    0.041856
  16 S :    0.069462
  17 C :   -0.083032
  18 C :   -0.059977
  19 C :   -0.054421
  20 C :   -0.145367
  21 H :    0.050778
  22 C :    0.067620
  23 H :    0.006989
  24 H :    0.025692
  25 C :   -0.077844
  26 H :    0.030599
  27 H :    0.031395
  28 C :   -0.015765
  29 H :    0.013378
  30 H :    0.047104
  31 H :    0.011499
  32 H :    0.066078
  33 H :    0.052751
Sum of atomic charges:   -0.0000000

LOEWDIN ATOMIC CHARGES
----------------------
   0 S :    0.376459
   1 C :   -0.188443
   2 C :   -0.069716
   3 C :   -0.044269
   4 C :   -0.184256
   5 H :    0.014686
   6 C :   -0.034072
   7 H :    0.035841
   8 H :    0.029322
   9 C :   -0.033931
  10 H :    0.019600
  11 H :    0.028558
  12 C :   -0.070210
  13 H :    0.024320
  14 H :    0.035338
  15 H :    0.027955
  16 S :    0.378500
  17 C :   -0.177752
  18 C :   -0.086716
  19 C :   -0.059425
  20 C :   -0.172028
  21 H :    0.046925
  22 C :   -0.033858
  23 H :    0.022638
  24 H :    0.027551
  25 C :   -0.046821
  26 H :    0.030496
  27 H :    0.026162
  28 C :   -0.067258
  29 H :    0.022573
  30 H :    0.038993
  31 H :    0.015493
  32 H :    0.039088
  33 H :    0.028258

  Mayer bond orders larger than 0.100000
B(  0-S ,  1-C ) :   1.1361 B(  0-S ,  4-C ) :   1.0941 B(  1-C ,  2-C ) :   1.6460
B(  1-C , 32-H ) :   0.9480 B(  2-C ,  3-C ) :   1.2088 B(  2-C ,  6-C ) :   1.0450
B(  3-C ,  4-C ) :   1.5859 B(  3-C ,  5-H ) :   0.9928 B(  4-C , 20-C ) :   1.0837
B(  6-C ,  7-H ) :   0.9333 B(  6-C ,  8-H ) :   0.9302 B(  6-C ,  9-C ) :   1.0620
B(  9-C , 10-H ) :   0.9569 B(  9-C , 11-H ) :   0.9572 B(  9-C , 12-C ) :   1.0629
B( 12-C , 13-H ) :   0.9788 B( 12-C , 14-H ) :   0.9774 B( 12-C , 15-H ) :   0.9769
B( 16-S , 17-C ) :   1.1380 B( 16-S , 20-C ) :   1.1147 B( 17-C , 18-C ) :   1.6490
B( 17-C , 33-H ) :   0.9703 B( 18-C , 19-C ) :   1.1968 B( 18-C , 21-H ) :   0.9732
B( 19-C , 20-C ) :   1.6276 B( 19-C , 22-C ) :   1.0355 B( 22-C , 23-H ) :   0.9327
B( 22-C , 24-H ) :   0.9345 B( 22-C , 25-C ) :   1.0801 B( 25-C , 26-H ) :   0.9502
B( 25-C , 27-H ) :   0.9520 B( 25-C , 28-C ) :   1.0874 B( 28-C , 29-H ) :   0.9675
B( 28-C , 30-H ) :   0.9685 B( 28-C , 31-H ) :   0.9688

Dispersion correction           -0.014000364
FINAL SINGLE POINT ENERGY     -1339.873895172769

DIPOLE MOMENT
-------------
                                X             Y             Z
Electronic contribution:      9.62037       4.23498      10.58510
Nuclear contribution   :     -9.81629      -4.25734     -10.82254
                        -----------------------------------------
Total Dipole Moment    :     -0.19593      -0.02237      -0.23744
                        -----------------------------------------
Magnitude (a.u.)       :      0.30865
Magnitude (Debye)      :      0.78453

Rotational constants in cm-1:     0.023299     0.007038     0.006183
Rotational constants in MHz :   698.492701   210.987992   185.376247

                             ****ORCA TERMINATED NORMALLY****
TOTAL RUN TIME: 0 days 0 hours 0 minutes 33 seconds 307 msec
