                         Program Version 4.2.1 -  RELEASE  -
|  1> ! wB97X-D3 SP def2-SVP
|  2> %pal
|  3> nprocs 16
|  4> end
|  5>
|  6> * xyz 0 1
|  7> S 	 46.4858 	 15.2291 	 81.6399
|  8> C 	 45.7321 	 16.802 	 81.8229
|  9> C 	 46.7387 	 17.7341 	 82.1206
| 10> C 	 48.0265 	 17.1461 	 82.1037
| 11> C 	 48.0778 	 15.8325 	 81.7801
| 12> H 	 48.9204 	 17.6538 	 82.4211
| 13> C 	 46.6237 	 19.205 	 82.3816
| 14> H 	 47.5105 	 19.4982 	 83.0338
| 15> H 	 45.6749 	 19.457 	 83.0089
| 16> C 	 46.677 	 20.0711 	 81.0998
| 17> H 	 45.7519 	 19.8439 	 80.5673
| 18> H 	 46.6838 	 21.1211 	 81.383
| 19> C 	 47.9282 	 19.8946 	 80.2126
| 20> H 	 47.987 	 18.9073 	 79.9572
| 21> H 	 47.8108 	 20.5325 	 79.3387
| 22> H 	 48.8834 	 20.0765 	 80.7207
| 23> S 	 48.8734 	 13.5332 	 82.9863
| 24> C 	 50.513 	 12.9074 	 82.7505
| 25> C 	 51.2942 	 13.7687 	 82.0616
| 26> C 	 50.5945 	 14.9787 	 81.7015
| 27> C 	 49.2046 	 14.895 	 81.9663
| 28> H 	 52.2693 	 13.4724 	 81.8723
| 29> C 	 51.277 	 16.1121 	 81.0028
| 30> H 	 50.4941 	 16.8415 	 80.686
| 31> H 	 51.7126 	 15.7227 	 80.0398
| 32> C 	 52.329 	 16.8802 	 81.7949
| 33> H 	 52.856 	 17.45 	 81.1203
| 34> H 	 52.9661 	 16.1403 	 82.2331
| 35> C 	 51.7964 	 17.7877 	 82.9244
| 36> H 	 51.3199 	 17.2472 	 83.7883
| 37> H 	 51.1453 	 18.5439 	 82.4736
| 38> H 	 52.5974 	 18.3018 	 83.4265
| 39> H 	 44.6606 	 16.9108 	 81.9199
| 40> H 	 50.7516 	 11.923 	 83.0412
| 41> *
| 42>
| 43>                          ****END OF INPUT****

CARTESIAN COORDINATES (ANGSTROEM)
---------------------------------
  S     46.485800   15.229100   81.639900
  C     45.732100   16.802000   81.822900
  C     46.738700   17.734100   82.120600
  C     48.026500   17.146100   82.103700
  C     48.077800   15.832500   81.780100
  H     48.920400   17.653800   82.421100
  C     46.623700   19.205000   82.381600
  H     47.510500   19.498200   83.033800
  H     45.674900   19.457000   83.008900
  C     46.677000   20.071100   81.099800
  H     45.751900   19.843900   80.567300
  H     46.683800   21.121100   81.383000
  C     47.928200   19.894600   80.212600
  H     47.987000   18.907300   79.957200
  H     47.810800   20.532500   79.338700
  H     48.883400   20.076500   80.720700
  S     48.873400   13.533200   82.986300
  C     50.513000   12.907400   82.750500
  C     51.294200   13.768700   82.061600
  C     50.594500   14.978700   81.701500
  C     49.204600   14.895000   81.966300
  H     52.269300   13.472400   81.872300
  C     51.277000   16.112100   81.002800
  H     50.494100   16.841500   80.686000
  H     51.712600   15.722700   80.039800
  C     52.329000   16.880200   81.794900
  H     52.856000   17.450000   81.120300
  H     52.966100   16.140300   82.233100
  C     51.796400   17.787700   82.924400
  H     51.319900   17.247200   83.788300
  H     51.145300   18.543900   82.473600
  H     52.597400   18.301800   83.426500
  H     44.660600   16.910800   81.919900
  H     50.751600   11.923000   83.041200

 Total Charge           Charge          ....    0
 Multiplicity           Mult            ....    1
 Number of Electrons    NEL             ....  134
 Basis Dimension        Dim             ....  322

ORBITAL ENERGIES
----------------

  NO   OCC          E(Eh)            E(eV)
   0   2.0000     -88.964912     -2420.8583
   1   2.0000     -88.961492     -2420.7653
   2   2.0000     -10.330175      -281.0983
   3   2.0000     -10.325324      -280.9664
   4   2.0000     -10.319038      -280.7953
   5   2.0000     -10.311675      -280.5949
   6   2.0000     -10.306111      -280.4435
   7   2.0000     -10.302677      -280.3501
   8   2.0000     -10.302369      -280.3417
   9   2.0000     -10.292658      -280.0775
  10   2.0000     -10.290007      -280.0053
  11   2.0000     -10.286983      -279.9230
  12   2.0000     -10.286856      -279.9196
  13   2.0000     -10.282151      -279.7915
  14   2.0000     -10.280348      -279.7425
  15   2.0000     -10.269896      -279.4581
  16   2.0000      -8.080443      -219.8800
  17   2.0000      -8.076578      -219.7749
  18   2.0000      -6.038917      -164.3273
  19   2.0000      -6.035095      -164.2233
  20   2.0000      -6.034705      -164.2127
  21   2.0000      -6.031303      -164.1201
  22   2.0000      -6.031060      -164.1135
  23   2.0000      -6.027268      -164.0103
  24   2.0000      -1.012661       -27.5559
  25   2.0000      -0.986535       -26.8450
  26   2.0000      -0.912964       -24.8430
  27   2.0000      -0.909824       -24.7576
  28   2.0000      -0.871282       -23.7088
  29   2.0000      -0.849733       -23.1224
  30   2.0000      -0.844264       -22.9736
  31   2.0000      -0.820142       -22.3172
  32   2.0000      -0.782860       -21.3027
  33   2.0000      -0.773428       -21.0460
  34   2.0000      -0.707781       -19.2597
  35   2.0000      -0.703081       -19.1318
  36   2.0000      -0.693631       -18.8747
  37   2.0000      -0.660097       -17.9622
  38   2.0000      -0.643955       -17.5229
  39   2.0000      -0.618591       -16.8327
  40   2.0000      -0.599579       -16.3154
  41   2.0000      -0.574131       -15.6229
  42   2.0000      -0.556364       -15.1394
  43   2.0000      -0.554480       -15.0882
  44   2.0000      -0.546522       -14.8716
  45   2.0000      -0.540675       -14.7125
  46   2.0000      -0.518259       -14.1026
  47   2.0000      -0.512580       -13.9480
  48   2.0000      -0.502251       -13.6669
  49   2.0000      -0.496175       -13.5016
  50   2.0000      -0.492549       -13.4029
  51   2.0000      -0.476723       -12.9723
  52   2.0000      -0.471056       -12.8181
  53   2.0000      -0.466526       -12.6948
  54   2.0000      -0.465099       -12.6560
  55   2.0000      -0.447206       -12.1691
  56   2.0000      -0.444810       -12.1039
  57   2.0000      -0.441048       -12.0015
  58   2.0000      -0.432188       -11.7604
  59   2.0000      -0.425402       -11.5758
  60   2.0000      -0.418745       -11.3946
  61   2.0000      -0.416271       -11.3273
  62   2.0000      -0.410127       -11.1601
  63   2.0000      -0.353359        -9.6154
  64   2.0000      -0.329414        -8.9638
  65   2.0000      -0.326925        -8.8961
  66   2.0000      -0.291840        -7.9414
  67   0.0000       0.027044         0.7359
  68   0.0000       0.073134         1.9901
  69   0.0000       0.110542         3.0080
  70   0.0000       0.122068         3.3216
  71   0.0000       0.125732         3.4213

MULLIKEN ATOMIC CHARGES
-----------------------
   0 S :    0.094956
   1 C :   -0.121797
   2 C :   -0.072420
   3 C :    0.018992
   4 C :   -0.114899
   5 H :   -0.016095
   6 C :   -0.005885
   7 H :    0.034555
   8 H :    0.046568
   9 C :   -0.062771
  10 H :    0.030526
  11 H :    0.031706
  12 C :   -0.027820
  13 H :    0.025147
  14 H :    0.040325
  15 H :    0.022288
  16 S :    0.089748
  17 C :   -0.078644
  18 C :    0.005914
  19 C :   -0.045824
  20 C :   -0.130784
  21 H :   -0.004823
  22 C :    0.015204
  23 H :    0.018847
  24 H :    0.041977
  25 C :   -0.011006
  26 H :    0.013030
  27 H :    0.017313
  28 C :   -0.071374
  29 H :    0.052239
  30 H :    0.038086
  31 H :    0.028090
  32 H :    0.057020
  33 H :    0.041610
Sum of atomic charges:   -0.0000000

LOEWDIN ATOMIC CHARGES
----------------------
   0 S :    0.426050
   1 C :   -0.196642
   2 C :   -0.065557
   3 C :   -0.066277
   4 C :   -0.208876
   5 H :    0.026658
   6 C :   -0.044616
   7 H :    0.034351
   8 H :    0.039569
   9 C :   -0.036177
  10 H :    0.024271
  11 H :    0.022963
  12 C :   -0.058859
  13 H :    0.011912
  14 H :    0.031006
  15 H :    0.024956
  16 S :    0.396018
  17 C :   -0.165256
  18 C :   -0.060004
  19 C :   -0.059409
  20 C :   -0.195563
  21 H :    0.023520
  22 C :   -0.040503
  23 H :    0.029790
  24 H :    0.038359
  25 C :   -0.029091
  26 H :    0.015807
  27 H :    0.020163
  28 C :   -0.069389
  29 H :    0.035223
  30 H :    0.021877
  31 H :    0.025610
  32 H :    0.029587
  33 H :    0.018532

  Mayer bond orders larger than 0.100000
B(  0-S ,  1-C ) :   1.1515 B(  0-S ,  4-C ) :   1.1692 B(  1-C ,  2-C ) :   1.5585
B(  1-C , 32-H ) :   0.9769 B(  2-C ,  3-C ) :   1.2791 B(  2-C ,  6-C ) :   1.0241
B(  3-C ,  4-C ) :   1.5407 B(  3-C ,  5-H ) :   0.9908 B(  4-C , 20-C ) :   1.0212
B(  6-C ,  7-H ) :   0.9412 B(  6-C ,  8-H ) :   0.9443 B(  6-C ,  9-C ) :   1.0685
B(  9-C , 10-H ) :   0.9551 B(  9-C , 11-H ) :   0.9577 B(  9-C , 12-C ) :   1.0810
B( 12-C , 13-H ) :   0.9708 B( 12-C , 14-H ) :   0.9707 B( 12-C , 15-H ) :   0.9726
B( 16-S , 17-C ) :   1.1373 B( 16-S , 20-C ) :   1.1542 B( 17-C , 18-C ) :   1.6313
B( 17-C , 33-H ) :   0.9725 B( 18-C , 19-C ) :   1.2010 B( 18-C , 21-H ) :   1.0063
B( 19-C , 20-C ) :   1.5917 B( 19-C , 22-C ) :   1.0577 B( 22-C , 23-H ) :   0.9351
B( 22-C , 24-H ) :   0.9357 B( 22-C , 25-C ) :   1.0718 B( 25-C , 26-H ) :   0.9513
B( 25-C , 27-H ) :   0.9548 B( 25-C , 28-C ) :   1.0856 B( 28-C , 29-H ) :   0.9712
B( 28-C , 30-H ) :   0.9654 B( 28-C , 31-H ) :   0.9685

Dispersion correction           -0.015620276
FINAL SINGLE POINT ENERGY     -1339.880772381482

DIPOLE MOMENT
-------------
                                X             Y             Z
Electronic contribution:    -11.64553     -26.05966       3.90185
Nuclear contribution   :     12.06991      26.52932      -3.85416
                        -----------------------------------------
Total Dipole Moment    :      0.42438       0.46966       0.04769
                        -----------------------------------------
Magnitude (a.u.)       :      0.63479
Magnitude (Debye)      :      1.61350

Rotational constants in cm-1:     0.018899     0.010420     0.007337
Rotational constants in MHz :   566.588577   312.390323   219.961161

                             ****ORCA TERMINATED NORMALLY****
TOTAL RUN TIME: 0 days 0 hours 0 minutes 32 seconds 904 msec
