                         Program Version 4.2.1 -  RELEASE  -
|  1> ! wB97X-D3 SP def2-SVP
|  2> %pal
|  3> nprocs 16
|  4> end
|  5>
|  6> * xyz 0 1
|  7> S 	 64.6621 	 21.0057 	 73.2039
|  8> C 	 66.2527 	 20.2126 	 73.2809
|  9> C 	 66.8166 	 20.1972 	 74.5479
| 10> C 	 66.0642 	 20.9155 	 75.5443
| 11> C 	 64.8934 	 21.3907 	 74.9377
| 12> H 	 66.3174 	 21.2031 	 76.5831
| 13> C 	 68.213 	 19.6985 	 74.8744
| 14> H 	 68.3368 	 19.3755 	 75.9443
| 15> H 	 68.9032 	 20.5427 	 74.7276
| 16> C 	 68.7052 	 18.4877 	 74.1217
| 17> H 	 68.0908 	 17.65 	 74.4492
| 18> H 	 68.5152 	 18.6525 	 73.1061
| 19> C 	 70.2451 	 18.1894 	 74.3738
| 20> H 	 70.4598 	 17.7128 	 75.3523
| 21> H 	 70.6131 	 17.4886 	 73.6007
| 22> H 	 70.7284 	 19.1419 	 74.2084
| 23> S 	 63.3787 	 23.6122 	 74.7375
| 24> C 	 62.2358 	 24.0092 	 76.0458
| 25> C 	 62.3971 	 23.1989 	 77.1115
| 26> C 	 63.3936 	 22.1675 	 76.8787
| 27> C 	 63.9074 	 22.236 	 75.5862
| 28> H 	 61.7617 	 23.3212 	 77.9778
| 29> C 	 63.6934 	 21.2025 	 78.0321
| 30> H 	 62.785 	 21.2628 	 78.7058
| 31> H 	 64.6566 	 21.5555 	 78.5078
| 32> C 	 63.7597 	 19.6989 	 77.7507
| 33> H 	 63.7342 	 19.0989 	 78.6887
| 34> H 	 64.7687 	 19.4415 	 77.3414
| 35> C 	 62.6268 	 19.1792 	 76.887
| 36> H 	 61.7079 	 19.3886 	 77.4594
| 37> H 	 62.6789 	 18.124 	 76.7994
| 38> H 	 62.4446 	 19.6786 	 75.9472
| 39> H 	 66.7545 	 19.7622 	 72.4218
| 40> H 	 61.6735 	 24.9437 	 75.988
| 41> *
| 42>
| 43>                          ****END OF INPUT****

CARTESIAN COORDINATES (ANGSTROEM)
---------------------------------
  S     64.662100   21.005700   73.203900
  C     66.252700   20.212600   73.280900
  C     66.816600   20.197200   74.547900
  C     66.064200   20.915500   75.544300
  C     64.893400   21.390700   74.937700
  H     66.317400   21.203100   76.583100
  C     68.213000   19.698500   74.874400
  H     68.336800   19.375500   75.944300
  H     68.903200   20.542700   74.727600
  C     68.705200   18.487700   74.121700
  H     68.090800   17.650000   74.449200
  H     68.515200   18.652500   73.106100
  C     70.245100   18.189400   74.373800
  H     70.459800   17.712800   75.352300
  H     70.613100   17.488600   73.600700
  H     70.728400   19.141900   74.208400
  S     63.378700   23.612200   74.737500
  C     62.235800   24.009200   76.045800
  C     62.397100   23.198900   77.111500
  C     63.393600   22.167500   76.878700
  C     63.907400   22.236000   75.586200
  H     61.761700   23.321200   77.977800
  C     63.693400   21.202500   78.032100
  H     62.785000   21.262800   78.705800
  H     64.656600   21.555500   78.507800
  C     63.759700   19.698900   77.750700
  H     63.734200   19.098900   78.688700
  H     64.768700   19.441500   77.341400
  C     62.626800   19.179200   76.887000
  H     61.707900   19.388600   77.459400
  H     62.678900   18.124000   76.799400
  H     62.444600   19.678600   75.947200
  H     66.754500   19.762200   72.421800
  H     61.673500   24.943700   75.988000

 Total Charge           Charge          ....    0
 Multiplicity           Mult            ....    1
 Number of Electrons    NEL             ....  134
 Basis Dimension        Dim             ....  322

ORBITAL ENERGIES
----------------

  NO   OCC          E(Eh)            E(eV)
   0   2.0000     -88.972769     -2421.0721
   1   2.0000     -88.962270     -2420.7864
   2   2.0000     -10.333699      -281.1942
   3   2.0000     -10.321450      -280.8609
   4   2.0000     -10.315838      -280.7082
   5   2.0000     -10.314789      -280.6797
   6   2.0000     -10.305605      -280.4298
   7   2.0000     -10.304354      -280.3957
   8   2.0000     -10.302146      -280.3357
   9   2.0000     -10.301486      -280.3177
  10   2.0000     -10.293644      -280.1043
  11   2.0000     -10.292399      -280.0704
  12   2.0000     -10.286108      -279.8992
  13   2.0000     -10.284231      -279.8481
  14   2.0000     -10.282147      -279.7914
  15   2.0000     -10.266008      -279.3523
  16   2.0000      -8.086072      -220.0332
  17   2.0000      -8.077839      -219.8092
  18   2.0000      -6.044583      -164.4815
  19   2.0000      -6.041061      -164.3856
  20   2.0000      -6.036628      -164.2650
  21   2.0000      -6.036257      -164.2549
  22   2.0000      -6.032331      -164.1481
  23   2.0000      -6.028532      -164.0447
  24   2.0000      -1.006720       -27.3942
  25   2.0000      -0.978818       -26.6350
  26   2.0000      -0.911608       -24.8061
  27   2.0000      -0.905419       -24.6377
  28   2.0000      -0.869160       -23.6511
  29   2.0000      -0.850831       -23.1523
  30   2.0000      -0.842797       -22.9337
  31   2.0000      -0.811132       -22.0720
  32   2.0000      -0.779638       -21.2150
  33   2.0000      -0.768454       -20.9107
  34   2.0000      -0.710682       -19.3386
  35   2.0000      -0.699005       -19.0209
  36   2.0000      -0.681428       -18.5426
  37   2.0000      -0.665375       -18.1058
  38   2.0000      -0.635630       -17.2964
  39   2.0000      -0.609759       -16.5924
  40   2.0000      -0.582541       -15.8517
  41   2.0000      -0.576813       -15.6959
  42   2.0000      -0.561358       -15.2753
  43   2.0000      -0.558812       -15.2060
  44   2.0000      -0.548368       -14.9218
  45   2.0000      -0.516844       -14.0640
  46   2.0000      -0.513265       -13.9667
  47   2.0000      -0.508612       -13.8400
  48   2.0000      -0.495327       -13.4785
  49   2.0000      -0.491856       -13.3841
  50   2.0000      -0.486100       -13.2275
  51   2.0000      -0.482596       -13.1321
  52   2.0000      -0.475572       -12.9410
  53   2.0000      -0.461943       -12.5701
  54   2.0000      -0.458946       -12.4886
  55   2.0000      -0.451824       -12.2947
  56   2.0000      -0.442784       -12.0488
  57   2.0000      -0.433882       -11.8065
  58   2.0000      -0.433356       -11.7922
  59   2.0000      -0.423920       -11.5354
  60   2.0000      -0.422063       -11.4849
  61   2.0000      -0.416426       -11.3315
  62   2.0000      -0.400336       -10.8937
  63   2.0000      -0.353357        -9.6153
  64   2.0000      -0.333399        -9.0722
  65   2.0000      -0.327987        -8.9250
  66   2.0000      -0.286626        -7.7995
  67   0.0000       0.024851         0.6762
  68   0.0000       0.073733         2.0064
  69   0.0000       0.100101         2.7239
  70   0.0000       0.114920         3.1271
  71   0.0000       0.130488         3.5507

MULLIKEN ATOMIC CHARGES
-----------------------
   0 S :    0.114796
   1 C :   -0.136041
   2 C :   -0.050476
   3 C :    0.008849
   4 C :   -0.145807
   5 H :    0.038058
   6 C :    0.022252
   7 H :    0.028749
   8 H :    0.042480
   9 C :   -0.082826
  10 H :    0.033655
  11 H :    0.012796
  12 C :   -0.055761
  13 H :    0.047556
  14 H :    0.038554
  15 H :    0.030842
  16 S :    0.094980
  17 C :   -0.102328
  18 C :   -0.024268
  19 C :   -0.054243
  20 C :   -0.145964
  21 H :    0.024006
  22 C :    0.024233
  23 H :    0.032046
  24 H :    0.058012
  25 C :   -0.082474
  26 H :    0.029332
  27 H :    0.025965
  28 C :   -0.023793
  29 H :    0.009956
  30 H :    0.028764
  31 H :    0.043521
  32 H :    0.051727
  33 H :    0.062852
Sum of atomic charges:   -0.0000000

LOEWDIN ATOMIC CHARGES
----------------------
   0 S :    0.379947
   1 C :   -0.199167
   2 C :   -0.057293
   3 C :   -0.057633
   4 C :   -0.166972
   5 H :    0.043118
   6 C :   -0.040294
   7 H :    0.033179
   8 H :    0.033169
   9 C :   -0.038431
  10 H :    0.025907
  11 H :    0.009748
  12 C :   -0.064345
  13 H :    0.029780
  14 H :    0.030268
  15 H :    0.023455
  16 S :    0.404715
  17 C :   -0.176470
  18 C :   -0.067473
  19 C :   -0.063214
  20 C :   -0.218762
  21 H :    0.034441
  22 C :   -0.039252
  23 H :    0.037606
  24 H :    0.039633
  25 C :   -0.052512
  26 H :    0.028481
  27 H :    0.019145
  28 C :   -0.061314
  29 H :    0.025056
  30 H :    0.022748
  31 H :    0.025652
  32 H :    0.027040
  33 H :    0.030042

  Mayer bond orders larger than 0.100000
B(  0-S ,  1-C ) :   1.1038 B(  0-S ,  4-C ) :   1.1422 B(  1-C ,  2-C ) :   1.6473
B(  1-C , 32-H ) :   0.9631 B(  2-C ,  3-C ) :   1.2034 B(  2-C ,  6-C ) :   1.0171
B(  3-C ,  4-C ) :   1.5934 B(  3-C ,  5-H ) :   0.9846 B(  4-C , 20-C ) :   1.0463
B(  6-C ,  7-H ) :   0.9507 B(  6-C ,  8-H ) :   0.9349 B(  6-C ,  9-C ) :   1.0634
B(  9-C , 10-H ) :   0.9611 B(  9-C , 11-H ) :   0.9535 B(  9-C , 12-C ) :   1.0767
B( 12-C , 13-H ) :   0.9772 B( 12-C , 14-H ) :   0.9763 B( 12-C , 15-H ) :   0.9758
B( 16-S , 17-C ) :   1.1307 B( 16-S , 20-C ) :   1.1540 B( 17-C , 18-C ) :   1.6340
B( 17-C , 33-H ) :   0.9667 B( 18-C , 19-C ) :   1.2290 B( 18-C , 21-H ) :   0.9899
B( 19-C , 20-C ) :   1.5907 B( 19-C , 22-C ) :   1.0255 B( 22-C , 23-H ) :   0.9411
B( 22-C , 24-H ) :   0.9339 B( 22-C , 25-C ) :   1.0751 B( 25-C , 26-H ) :   0.9540
B( 25-C , 27-H ) :   0.9427 B( 25-C , 28-C ) :   1.0820 B( 28-C , 29-H ) :   0.9719
B( 28-C , 30-H ) :   0.9725 B( 28-C , 31-H ) :   0.9709

Dispersion correction           -0.014989988
FINAL SINGLE POINT ENERGY     -1339.879712701141

DIPOLE MOMENT
-------------
                                X             Y             Z
Electronic contribution:    -14.37651      20.04621     -11.48822
Nuclear contribution   :     14.68756     -20.22933      11.94666
                        -----------------------------------------
Total Dipole Moment    :      0.31106      -0.18312       0.45843
                        -----------------------------------------
Magnitude (a.u.)       :      0.58348
Magnitude (Debye)      :      1.48309

Rotational constants in cm-1:     0.023200     0.007980     0.006797
Rotational constants in MHz :   695.503820   239.228596   203.780828

                             ****ORCA TERMINATED NORMALLY****
TOTAL RUN TIME: 0 days 0 hours 0 minutes 29 seconds 102 msec
