                         Program Version 4.2.1 -  RELEASE  -
|  1> ! wB97X-D3 SP def2-SVP
|  2> %pal
|  3> nprocs 16
|  4> end
|  5>
|  6> * xyz 0 1
|  7> S 	 -62.6993 	 51.6591 	 128.036
|  8> C 	 -63.6522 	 50.222 	 127.732
|  9> C 	 -62.9167 	 49.2825 	 127.085
| 10> C 	 -61.5825 	 49.6435 	 126.836
| 11> C 	 -61.2631 	 50.8686 	 127.35
| 12> H 	 -60.8198 	 49.0533 	 126.301
| 13> C 	 -63.4275 	 47.9808 	 126.688
| 14> H 	 -63.1904 	 47.9128 	 125.652
| 15> H 	 -64.5047 	 47.9889 	 126.73
| 16> C 	 -62.8979 	 46.8322 	 127.508
| 17> H 	 -61.8077 	 46.8898 	 127.646
| 18> H 	 -63.331 	 46.8664 	 128.532
| 19> C 	 -63.1861 	 45.4402 	 126.874
| 20> H 	 -62.5474 	 45.3611 	 126.003
| 21> H 	 -62.7472 	 44.6783 	 127.516
| 22> H 	 -64.1963 	 45.2719 	 126.593
| 23> S 	 -59.7172 	 52.8417 	 126.217
| 24> C 	 -57.9421 	 52.7391 	 126.48
| 25> C 	 -57.6451 	 51.7617 	 127.431
| 26> C 	 -58.7559 	 51.121 	 127.915
| 27> C 	 -59.9519 	 51.4755 	 127.313
| 28> H 	 -56.6709 	 51.5821 	 127.622
| 29> C 	 -58.6313 	 50.147 	 129.072
| 30> H 	 -57.6985 	 49.6461 	 129.284
| 31> H 	 -59.2843 	 49.2575 	 129
| 32> C 	 -58.8776 	 50.8485 	 130.36
| 33> H 	 -58.7827 	 50.1006 	 131.142
| 34> H 	 -59.9222 	 51.1864 	 130.27
| 35> C 	 -58.0632 	 52.0768 	 130.829
| 36> H 	 -57.9134 	 52.6696 	 129.934
| 37> H 	 -57.0963 	 51.6783 	 131.153
| 38> H 	 -58.6265 	 52.6716 	 131.58
| 39> H 	 -64.7183 	 50.0103 	 127.914
| 40> H 	 -57.2833 	 53.3797 	 125.862
| 41> *
| 42>
| 43>                          ****END OF INPUT****

CARTESIAN COORDINATES (ANGSTROEM)
---------------------------------
  S    -62.699300   51.659100  128.036000
  C    -63.652200   50.222000  127.732000
  C    -62.916700   49.282500  127.085000
  C    -61.582500   49.643500  126.836000
  C    -61.263100   50.868600  127.350000
  H    -60.819800   49.053300  126.301000
  C    -63.427500   47.980800  126.688000
  H    -63.190400   47.912800  125.652000
  H    -64.504700   47.988900  126.730000
  C    -62.897900   46.832200  127.508000
  H    -61.807700   46.889800  127.646000
  H    -63.331000   46.866400  128.532000
  C    -63.186100   45.440200  126.874000
  H    -62.547400   45.361100  126.003000
  H    -62.747200   44.678300  127.516000
  H    -64.196300   45.271900  126.593000
  S    -59.717200   52.841700  126.217000
  C    -57.942100   52.739100  126.480000
  C    -57.645100   51.761700  127.431000
  C    -58.755900   51.121000  127.915000
  C    -59.951900   51.475500  127.313000
  H    -56.670900   51.582100  127.622000
  C    -58.631300   50.147000  129.072000
  H    -57.698500   49.646100  129.284000
  H    -59.284300   49.257500  129.000000
  C    -58.877600   50.848500  130.360000
  H    -58.782700   50.100600  131.142000
  H    -59.922200   51.186400  130.270000
  C    -58.063200   52.076800  130.829000
  H    -57.913400   52.669600  129.934000
  H    -57.096300   51.678300  131.153000
  H    -58.626500   52.671600  131.580000
  H    -64.718300   50.010300  127.914000
  H    -57.283300   53.379700  125.862000

 Total Charge           Charge          ....    0
 Multiplicity           Mult            ....    1
 Number of Electrons    NEL             ....  134
 Basis Dimension        Dim             ....  322

ORBITAL ENERGIES
----------------

  NO   OCC          E(Eh)            E(eV)
   0   2.0000     -88.966270     -2420.8953
   1   2.0000     -88.965804     -2420.8826
   2   2.0000     -10.328019      -281.0397
   3   2.0000     -10.327018      -281.0124
   4   2.0000     -10.326233      -280.9911
   5   2.0000     -10.310713      -280.5688
   6   2.0000     -10.302220      -280.3376
   7   2.0000     -10.291700      -280.0514
   8   2.0000     -10.289165      -279.9824
   9   2.0000     -10.288189      -279.9559
  10   2.0000     -10.288160      -279.9551
  11   2.0000     -10.286489      -279.9096
  12   2.0000     -10.280326      -279.7419
  13   2.0000     -10.275752      -279.6174
  14   2.0000     -10.274390      -279.5804
  15   2.0000     -10.274083      -279.5720
  16   2.0000      -8.080405      -219.8790
  17   2.0000      -8.079839      -219.8636
  18   2.0000      -6.038988      -164.3292
  19   2.0000      -6.038194      -164.3076
  20   2.0000      -6.035079      -164.2228
  21   2.0000      -6.034434      -164.2053
  22   2.0000      -6.031029      -164.1127
  23   2.0000      -6.030812      -164.1067
  24   2.0000      -1.008857       -27.4524
  25   2.0000      -0.988133       -26.8885
  26   2.0000      -0.919240       -25.0138
  27   2.0000      -0.911842       -24.8125
  28   2.0000      -0.872673       -23.7466
  29   2.0000      -0.850302       -23.1379
  30   2.0000      -0.845939       -23.0192
  31   2.0000      -0.817522       -22.2459
  32   2.0000      -0.787075       -21.4174
  33   2.0000      -0.773573       -21.0500
  34   2.0000      -0.711017       -19.3478
  35   2.0000      -0.700164       -19.0524
  36   2.0000      -0.677802       -18.4439
  37   2.0000      -0.670827       -18.2541
  38   2.0000      -0.639490       -17.4014
  39   2.0000      -0.624199       -16.9853
  40   2.0000      -0.606433       -16.5019
  41   2.0000      -0.574211       -15.6251
  42   2.0000      -0.562971       -15.3192
  43   2.0000      -0.555320       -15.1110
  44   2.0000      -0.546175       -14.8622
  45   2.0000      -0.530782       -14.4433
  46   2.0000      -0.523172       -14.2362
  47   2.0000      -0.508694       -13.8423
  48   2.0000      -0.501418       -13.6443
  49   2.0000      -0.499729       -13.5983
  50   2.0000      -0.486568       -13.2402
  51   2.0000      -0.481239       -13.0952
  52   2.0000      -0.474779       -12.9194
  53   2.0000      -0.467804       -12.7296
  54   2.0000      -0.457902       -12.4602
  55   2.0000      -0.447874       -12.1873
  56   2.0000      -0.445656       -12.1269
  57   2.0000      -0.441177       -12.0050
  58   2.0000      -0.436688       -11.8829
  59   2.0000      -0.423311       -11.5189
  60   2.0000      -0.416658       -11.3378
  61   2.0000      -0.414736       -11.2855
  62   2.0000      -0.391115       -10.6428
  63   2.0000      -0.342926        -9.3315
  64   2.0000      -0.332951        -9.0601
  65   2.0000      -0.326727        -8.8907
  66   2.0000      -0.299899        -8.1607
  67   0.0000       0.033723         0.9176
  68   0.0000       0.056612         1.5405
  69   0.0000       0.111752         3.0409
  70   0.0000       0.123660         3.3650
  71   0.0000       0.131160         3.5690

MULLIKEN ATOMIC CHARGES
-----------------------
   0 S :    0.111439
   1 C :   -0.113600
   2 C :   -0.104559
   3 C :    0.041160
   4 C :   -0.161081
   5 H :    0.025007
   6 C :    0.116584
   7 H :    0.015344
   8 H :    0.002474
   9 C :   -0.102367
  10 H :    0.027235
  11 H :    0.032467
  12 C :   -0.019408
  13 H :    0.018537
  14 H :    0.031398
  15 H :    0.033893
  16 S :    0.100045
  17 C :   -0.119250
  18 C :    0.004415
  19 C :    0.014337
  20 C :   -0.186760
  21 H :   -0.019860
  22 C :    0.098489
  23 H :    0.002791
  24 H :    0.026707
  25 C :   -0.112106
  26 H :    0.021478
  27 H :    0.021085
  28 C :   -0.037134
  29 H :    0.033980
  30 H :    0.025228
  31 H :    0.051762
  32 H :    0.046563
  33 H :    0.073707
Sum of atomic charges:   -0.0000000

LOEWDIN ATOMIC CHARGES
----------------------
   0 S :    0.390182
   1 C :   -0.201961
   2 C :   -0.071018
   3 C :   -0.055296
   4 C :   -0.186707
   5 H :    0.039843
   6 C :   -0.033487
   7 H :    0.029529
   8 H :    0.026617
   9 C :   -0.037721
  10 H :    0.023465
  11 H :    0.027204
  12 C :   -0.061473
  13 H :    0.023592
  14 H :    0.028632
  15 H :    0.019386
  16 S :    0.386080
  17 C :   -0.164124
  18 C :   -0.058143
  19 C :   -0.052030
  20 C :   -0.196473
  21 H :    0.017018
  22 C :   -0.035574
  23 H :    0.024779
  24 H :    0.036049
  25 C :   -0.044577
  26 H :    0.018564
  27 H :    0.019915
  28 C :   -0.064446
  29 H :    0.023868
  30 H :    0.022061
  31 H :    0.035957
  32 H :    0.037162
  33 H :    0.033127

  Mayer bond orders larger than 0.100000
B(  0-S ,  1-C ) :   1.1155 B(  0-S ,  4-C ) :   1.1373 B(  1-C ,  2-C ) :   1.6473
B(  1-C , 32-H ) :   0.9582 B(  2-C ,  3-C ) :   1.2160 B(  2-C ,  6-C ) :   1.0393
B(  3-C ,  4-C ) :   1.6028 B(  3-C ,  5-H ) :   0.9929 B(  4-C , 20-C ) :   1.0241
B(  6-C ,  7-H ) :   0.9290 B(  6-C ,  8-H ) :   0.9268 B(  6-C ,  9-C ) :   1.0625
B(  9-C , 10-H ) :   0.9598 B(  9-C , 11-H ) :   0.9518 B(  9-C , 12-C ) :   1.0813
B( 12-C , 13-H ) :   0.9742 B( 12-C , 14-H ) :   0.9726 B( 12-C , 15-H ) :   0.9770
B( 16-S , 17-C ) :   1.1661 B( 16-S , 20-C ) :   1.1508 B( 17-C , 18-C ) :   1.5561
B( 17-C , 20-C ) :   0.1191 B( 17-C , 33-H ) :   0.9668 B( 18-C , 19-C ) :   1.2536
B( 18-C , 21-H ) :   1.0196 B( 19-C , 20-C ) :   1.5788 B( 19-C , 22-C ) :   1.0405
B( 22-C , 23-H ) :   0.9378 B( 22-C , 24-H ) :   0.9252 B( 22-C , 25-C ) :   1.0782
B( 25-C , 26-H ) :   0.9581 B( 25-C , 27-H ) :   0.9544 B( 25-C , 28-C ) :   1.0732
B( 28-C , 29-H ) :   0.9723 B( 28-C , 30-H ) :   0.9754 B( 28-C , 31-H ) :   0.9730

Dispersion correction           -0.014845137
FINAL SINGLE POINT ENERGY     -1339.869638999911

DIPOLE MOMENT
-------------
                                X             Y             Z
Electronic contribution:     -2.43836      21.54923     -10.03004
Nuclear contribution   :      2.67685     -22.19023       9.97505
                        -----------------------------------------
Total Dipole Moment    :      0.23849      -0.64099      -0.05499
                        -----------------------------------------
Magnitude (a.u.)       :      0.68613
Magnitude (Debye)      :      1.74400

Rotational constants in cm-1:     0.020390     0.008002     0.007295
Rotational constants in MHz :   611.288790   239.886359   218.710652

                             ****ORCA TERMINATED NORMALLY****
TOTAL RUN TIME: 0 days 0 hours 0 minutes 35 seconds 212 msec
