                         Program Version 4.2.1 -  RELEASE  -
|  1> ! wB97X-D3 SP def2-SVP
|  2> %pal
|  3> nprocs 16
|  4> end
|  5>
|  6> * xyz 0 1
|  7> S 	 -93.541 	 37.7556 	 124.864
|  8> C 	 -92.7822 	 36.6422 	 123.762
|  9> C 	 -92.7247 	 37.0862 	 122.469
| 10> C 	 -93.3697 	 38.3862 	 122.353
| 11> C 	 -93.6684 	 38.9416 	 123.577
| 12> H 	 -93.4333 	 38.8506 	 121.431
| 13> C 	 -92.3096 	 36.3401 	 121.214
| 14> H 	 -93.1113 	 36.4285 	 120.493
| 15> H 	 -92.198 	 35.333 	 121.548
| 16> C 	 -91.0789 	 36.8966 	 120.495
| 17> H 	 -90.85 	 36.4752 	 119.458
| 18> H 	 -91.3991 	 37.9707 	 120.436
| 19> C 	 -89.7987 	 36.8444 	 121.346
| 20> H 	 -89.705 	 35.8323 	 121.664
| 21> H 	 -88.8692 	 37.1644 	 120.831
| 22> H 	 -89.8956 	 37.4883 	 122.269
| 23> S 	 -96.095 	 40.0033 	 124.399
| 24> C 	 -96.1674 	 41.7295 	 124.823
| 25> C 	 -95.0907 	 42.4444 	 124.343
| 26> C 	 -94.1411 	 41.5108 	 123.837
| 27> C 	 -94.4356 	 40.1715 	 123.866
| 28> H 	 -95.0871 	 43.5312 	 124.346
| 29> C 	 -92.7047 	 42.0198 	 123.443
| 30> H 	 -91.9508 	 41.2995 	 123.919
| 31> H 	 -92.5445 	 43.0125 	 123.933
| 32> C 	 -92.3392 	 41.9771 	 121.972
| 33> H 	 -92.1773 	 40.9211 	 121.753
| 34> H 	 -91.3335 	 42.4343 	 121.882
| 35> C 	 -93.3691 	 42.5205 	 120.993
| 36> H 	 -93.0669 	 42.3124 	 119.938
| 37> H 	 -93.4616 	 43.5897 	 121.149
| 38> H 	 -94.3361 	 42.1733 	 121.173
| 39> H 	 -92.5305 	 35.6856 	 124.031
| 40> H 	 -97.0456 	 42.2816 	 125.267
| 41> *
| 42>
| 43>                          ****END OF INPUT****

CARTESIAN COORDINATES (ANGSTROEM)
---------------------------------
  S    -93.541000   37.755600  124.864000
  C    -92.782200   36.642200  123.762000
  C    -92.724700   37.086200  122.469000
  C    -93.369700   38.386200  122.353000
  C    -93.668400   38.941600  123.577000
  H    -93.433300   38.850600  121.431000
  C    -92.309600   36.340100  121.214000
  H    -93.111300   36.428500  120.493000
  H    -92.198000   35.333000  121.548000
  C    -91.078900   36.896600  120.495000
  H    -90.850000   36.475200  119.458000
  H    -91.399100   37.970700  120.436000
  C    -89.798700   36.844400  121.346000
  H    -89.705000   35.832300  121.664000
  H    -88.869200   37.164400  120.831000
  H    -89.895600   37.488300  122.269000
  S    -96.095000   40.003300  124.399000
  C    -96.167400   41.729500  124.823000
  C    -95.090700   42.444400  124.343000
  C    -94.141100   41.510800  123.837000
  C    -94.435600   40.171500  123.866000
  H    -95.087100   43.531200  124.346000
  C    -92.704700   42.019800  123.443000
  H    -91.950800   41.299500  123.919000
  H    -92.544500   43.012500  123.933000
  C    -92.339200   41.977100  121.972000
  H    -92.177300   40.921100  121.753000
  H    -91.333500   42.434300  121.882000
  C    -93.369100   42.520500  120.993000
  H    -93.066900   42.312400  119.938000
  H    -93.461600   43.589700  121.149000
  H    -94.336100   42.173300  121.173000
  H    -92.530500   35.685600  124.031000
  H    -97.045600   42.281600  125.267000

 Total Charge           Charge          ....    0
 Multiplicity           Mult            ....    1
 Number of Electrons    NEL             ....  134
 Basis Dimension        Dim             ....  322

ORBITAL ENERGIES
----------------

  NO   OCC          E(Eh)            E(eV)
   0   2.0000     -88.968851     -2420.9655
   1   2.0000     -88.965071     -2420.8626
   2   2.0000     -10.334721      -281.2221
   3   2.0000     -10.324770      -280.9513
   4   2.0000     -10.323469      -280.9159
   5   2.0000     -10.311088      -280.5790
   6   2.0000     -10.303053      -280.3603
   7   2.0000     -10.302820      -280.3540
   8   2.0000     -10.296987      -280.1952
   9   2.0000     -10.296649      -280.1861
  10   2.0000     -10.295763      -280.1620
  11   2.0000     -10.293610      -280.1034
  12   2.0000     -10.293341      -280.0960
  13   2.0000     -10.280977      -279.7596
  14   2.0000     -10.278556      -279.6937
  15   2.0000     -10.269791      -279.4552
  16   2.0000      -8.083800      -219.9714
  17   2.0000      -8.079389      -219.8514
  18   2.0000      -6.042321      -164.4199
  19   2.0000      -6.038332      -164.3114
  20   2.0000      -6.037997      -164.3023
  21   2.0000      -6.034473      -164.2064
  22   2.0000      -6.034028      -164.1943
  23   2.0000      -6.029981      -164.0841
  24   2.0000      -1.008341       -27.4384
  25   2.0000      -0.985965       -26.8295
  26   2.0000      -0.916230       -24.9319
  27   2.0000      -0.901832       -24.5401
  28   2.0000      -0.870454       -23.6863
  29   2.0000      -0.848608       -23.0918
  30   2.0000      -0.841028       -22.8855
  31   2.0000      -0.818100       -22.2616
  32   2.0000      -0.784650       -21.3514
  33   2.0000      -0.773807       -21.0564
  34   2.0000      -0.709990       -19.3198
  35   2.0000      -0.693495       -18.8710
  36   2.0000      -0.681652       -18.5487
  37   2.0000      -0.660540       -17.9742
  38   2.0000      -0.649278       -17.6677
  39   2.0000      -0.626950       -17.0602
  40   2.0000      -0.580005       -15.7828
  41   2.0000      -0.573621       -15.6090
  42   2.0000      -0.554702       -15.0942
  43   2.0000      -0.552186       -15.0258
  44   2.0000      -0.546107       -14.8603
  45   2.0000      -0.540857       -14.7175
  46   2.0000      -0.518252       -14.1023
  47   2.0000      -0.511179       -13.9099
  48   2.0000      -0.503953       -13.7133
  49   2.0000      -0.493296       -13.4233
  50   2.0000      -0.485123       -13.2009
  51   2.0000      -0.479321       -13.0430
  52   2.0000      -0.474923       -12.9233
  53   2.0000      -0.466678       -12.6990
  54   2.0000      -0.458863       -12.4863
  55   2.0000      -0.449286       -12.2257
  56   2.0000      -0.441000       -12.0002
  57   2.0000      -0.439309       -11.9542
  58   2.0000      -0.430840       -11.7238
  59   2.0000      -0.425386       -11.5754
  60   2.0000      -0.415033       -11.2936
  61   2.0000      -0.411476       -11.1968
  62   2.0000      -0.402954       -10.9649
  63   2.0000      -0.343455        -9.3459
  64   2.0000      -0.330697        -8.9987
  65   2.0000      -0.328137        -8.9291
  66   2.0000      -0.305865        -8.3230
  67   0.0000       0.032647         0.8884
  68   0.0000       0.060678         1.6511
  69   0.0000       0.108052         2.9403
  70   0.0000       0.116775         3.1776
  71   0.0000       0.124553         3.3893

MULLIKEN ATOMIC CHARGES
-----------------------
   0 S :    0.117623
   1 C :   -0.083739
   2 C :   -0.122606
   3 C :    0.076194
   4 C :   -0.153607
   5 H :   -0.003139
   6 C :    0.108661
   7 H :    0.035120
   8 H :    0.008730
   9 C :   -0.107821
  10 H :    0.053811
  11 H :    0.025094
  12 C :   -0.062719
  13 H :    0.019309
  14 H :    0.043147
  15 H :    0.048338
  16 S :    0.105142
  17 C :   -0.116452
  18 C :   -0.031487
  19 C :   -0.048223
  20 C :   -0.152727
  21 H :    0.030165
  22 C :    0.017674
  23 H :    0.045817
  24 H :    0.027800
  25 C :   -0.065889
  26 H :    0.012941
  27 H :    0.031286
  28 C :   -0.027212
  29 H :    0.039936
  30 H :    0.018829
  31 H :    0.027381
  32 H :    0.009398
  33 H :    0.073224
Sum of atomic charges:   -0.0000000

LOEWDIN ATOMIC CHARGES
----------------------
   0 S :    0.413963
   1 C :   -0.179257
   2 C :   -0.060289
   3 C :   -0.039603
   4 C :   -0.190934
   5 H :    0.017732
   6 C :   -0.026139
   7 H :    0.035931
   8 H :    0.020949
   9 C :   -0.049706
  10 H :    0.033988
  11 H :    0.025165
  12 C :   -0.072397
  13 H :    0.016776
  14 H :    0.029056
  15 H :    0.033803
  16 S :    0.391626
  17 C :   -0.178557
  18 C :   -0.076452
  19 C :   -0.059140
  20 C :   -0.209943
  21 H :    0.038452
  22 C :   -0.037328
  23 H :    0.042326
  24 H :    0.025646
  25 C :   -0.049178
  26 H :    0.018418
  27 H :    0.028700
  28 C :   -0.064908
  29 H :    0.031962
  30 H :    0.023150
  31 H :    0.017214
  32 H :    0.008620
  33 H :    0.040357

  Mayer bond orders larger than 0.100000
B(  0-S ,  1-C ) :   1.1440 B(  0-S ,  4-C ) :   1.1465 B(  1-C ,  2-C ) :   1.6316
B(  1-C , 32-H ) :   0.9715 B(  2-C ,  3-C ) :   1.2192 B(  2-C ,  6-C ) :   1.0180
B(  3-C ,  4-C ) :   1.5927 B(  3-C ,  5-H ) :   0.9949 B(  4-C , 20-C ) :   1.0035
B(  6-C ,  7-H ) :   0.9418 B(  6-C ,  8-H ) :   0.9401 B(  6-C ,  9-C ) :   1.0541
B(  9-C , 10-H ) :   0.9573 B(  9-C , 11-H ) :   0.9563 B(  9-C , 12-C ) :   1.0717
B( 12-C , 13-H ) :   0.9774 B( 12-C , 14-H ) :   0.9757 B( 12-C , 15-H ) :   0.9718
B( 16-S , 17-C ) :   1.1553 B( 16-S , 20-C ) :   1.1261 B( 17-C , 18-C ) :   1.6200
B( 17-C , 33-H ) :   0.9560 B( 18-C , 19-C ) :   1.2305 B( 18-C , 21-H ) :   0.9932
B( 19-C , 20-C ) :   1.6347 B( 19-C , 22-C ) :   1.0194 B( 22-C , 23-H ) :   0.9401
B( 22-C , 24-H ) :   0.9489 B( 22-C , 25-C ) :   1.0700 B( 25-C , 26-H ) :   0.9525
B( 25-C , 27-H ) :   0.9513 B( 25-C , 28-C ) :   1.0803 B( 28-C , 29-H ) :   0.9747
B( 28-C , 30-H ) :   0.9740 B( 28-C , 31-H ) :   0.9689

Dispersion correction           -0.015406205
FINAL SINGLE POINT ENERGY     -1339.870371983117

DIPOLE MOMENT
-------------
                                X             Y             Z
Electronic contribution:    -18.90032      -3.78677      19.94982
Nuclear contribution   :     19.11635       3.85062     -20.37878
                        -----------------------------------------
Total Dipole Moment    :      0.21604       0.06385      -0.42896
                        -----------------------------------------
Magnitude (a.u.)       :      0.48452
Magnitude (Debye)      :      1.23155

Rotational constants in cm-1:     0.020180     0.009437     0.007217
Rotational constants in MHz :   604.973410   282.916326   216.350079

                             ****ORCA TERMINATED NORMALLY****
TOTAL RUN TIME: 0 days 0 hours 0 minutes 35 seconds 867 msec
