                         Program Version 4.2.1 -  RELEASE  -
|  1> ! wB97X-D3 SP def2-SVP
|  2> %pal
|  3> nprocs 16
|  4> end
|  5>
|  6> * xyz 0 1
|  7> S 	 -59.4087 	 47.1282 	 135.997
|  8> C 	 -57.833 	 47.2638 	 136.648
|  9> C 	 -56.8827 	 47.4928 	 135.701
| 10> C 	 -57.4192 	 47.734 	 134.404
| 11> C 	 -58.7786 	 47.5679 	 134.362
| 12> H 	 -56.9234 	 48.038 	 133.516
| 13> C 	 -55.4416 	 47.6621 	 136.102
| 14> H 	 -55.4457 	 48.383 	 136.956
| 15> H 	 -54.899 	 48.1772 	 135.328
| 16> C 	 -54.8774 	 46.3281 	 136.55
| 17> H 	 -55.4426 	 45.9644 	 137.447
| 18> H 	 -54.9772 	 45.5226 	 135.797
| 19> C 	 -53.3777 	 46.4223 	 136.893
| 20> H 	 -52.8838 	 45.5562 	 137.264
| 21> H 	 -52.7055 	 46.7182 	 136.057
| 22> H 	 -53.223 	 47.2105 	 137.692
| 23> S 	 -60.9288 	 48.7502 	 133.05
| 24> C 	 -61.1871 	 48.3422 	 131.401
| 25> C 	 -60.3286 	 47.3747 	 130.896
| 26> C 	 -59.3451 	 47.0082 	 131.897
| 27> C 	 -59.5771 	 47.6457 	 133.16
| 28> H 	 -60.3186 	 47.0413 	 129.888
| 29> C 	 -58.1706 	 46.0994 	 131.71
| 30> H 	 -58.4233 	 45.2716 	 131.098
| 31> H 	 -57.8712 	 45.7072 	 132.647
| 32> C 	 -57.0585 	 46.7265 	 130.913
| 33> H 	 -56.8767 	 47.7175 	 131.358
| 34> H 	 -57.4649 	 46.8275 	 129.886
| 35> C 	 -55.8059 	 45.7686 	 130.7
| 36> H 	 -56.2033 	 44.74 	 130.654
| 37> H 	 -55.1514 	 45.6991 	 131.576
| 38> H 	 -55.214 	 45.9573 	 129.813
| 39> H 	 -57.607 	 46.8892 	 137.594
| 40> H 	 -61.7937 	 48.9743 	 130.727
| 41> *
| 42>
| 43>                          ****END OF INPUT****

CARTESIAN COORDINATES (ANGSTROEM)
---------------------------------
  S    -59.408700   47.128200  135.997000
  C    -57.833000   47.263800  136.648000
  C    -56.882700   47.492800  135.701000
  C    -57.419200   47.734000  134.404000
  C    -58.778600   47.567900  134.362000
  H    -56.923400   48.038000  133.516000
  C    -55.441600   47.662100  136.102000
  H    -55.445700   48.383000  136.956000
  H    -54.899000   48.177200  135.328000
  C    -54.877400   46.328100  136.550000
  H    -55.442600   45.964400  137.447000
  H    -54.977200   45.522600  135.797000
  C    -53.377700   46.422300  136.893000
  H    -52.883800   45.556200  137.264000
  H    -52.705500   46.718200  136.057000
  H    -53.223000   47.210500  137.692000
  S    -60.928800   48.750200  133.050000
  C    -61.187100   48.342200  131.401000
  C    -60.328600   47.374700  130.896000
  C    -59.345100   47.008200  131.897000
  C    -59.577100   47.645700  133.160000
  H    -60.318600   47.041300  129.888000
  C    -58.170600   46.099400  131.710000
  H    -58.423300   45.271600  131.098000
  H    -57.871200   45.707200  132.647000
  C    -57.058500   46.726500  130.913000
  H    -56.876700   47.717500  131.358000
  H    -57.464900   46.827500  129.886000
  C    -55.805900   45.768600  130.700000
  H    -56.203300   44.740000  130.654000
  H    -55.151400   45.699100  131.576000
  H    -55.214000   45.957300  129.813000
  H    -57.607000   46.889200  137.594000
  H    -61.793700   48.974300  130.727000

 Total Charge           Charge          ....    0
 Multiplicity           Mult            ....    1
 Number of Electrons    NEL             ....  134
 Basis Dimension        Dim             ....  322

ORBITAL ENERGIES
----------------

  NO   OCC          E(Eh)            E(eV)
   0   2.0000     -88.968017     -2420.9428
   1   2.0000     -88.964395     -2420.8443
   2   2.0000     -10.329048      -281.0677
   3   2.0000     -10.326273      -280.9922
   4   2.0000     -10.319941      -280.8199
   5   2.0000     -10.308454      -280.5073
   6   2.0000     -10.302382      -280.3421
   7   2.0000     -10.297937      -280.2211
   8   2.0000     -10.295013      -280.1415
   9   2.0000     -10.294794      -280.1356
  10   2.0000     -10.292646      -280.0771
  11   2.0000     -10.291527      -280.0467
  12   2.0000     -10.291495      -280.0458
  13   2.0000     -10.285236      -279.8755
  14   2.0000     -10.281215      -279.7661
  15   2.0000     -10.279389      -279.7164
  16   2.0000      -8.083230      -219.9559
  17   2.0000      -8.079162      -219.8452
  18   2.0000      -6.041547      -164.3989
  19   2.0000      -6.037637      -164.2925
  20   2.0000      -6.037607      -164.2916
  21   2.0000      -6.034240      -164.2000
  22   2.0000      -6.033729      -164.1861
  23   2.0000      -6.029904      -164.0820
  24   2.0000      -1.006336       -27.3838
  25   2.0000      -0.985816       -26.8254
  26   2.0000      -0.915635       -24.9157
  27   2.0000      -0.913285       -24.8518
  28   2.0000      -0.872212       -23.7341
  29   2.0000      -0.850538       -23.1443
  30   2.0000      -0.845681       -23.0122
  31   2.0000      -0.816616       -22.2213
  32   2.0000      -0.783672       -21.3248
  33   2.0000      -0.766106       -20.8468
  34   2.0000      -0.706996       -19.2383
  35   2.0000      -0.702972       -19.1288
  36   2.0000      -0.694680       -18.9032
  37   2.0000      -0.664471       -18.0812
  38   2.0000      -0.647065       -17.6075
  39   2.0000      -0.618008       -16.8169
  40   2.0000      -0.598720       -16.2920
  41   2.0000      -0.573724       -15.6118
  42   2.0000      -0.570231       -15.5168
  43   2.0000      -0.555844       -15.1253
  44   2.0000      -0.528723       -14.3873
  45   2.0000      -0.521888       -14.2013
  46   2.0000      -0.521565       -14.1925
  47   2.0000      -0.516504       -14.0548
  48   2.0000      -0.506999       -13.7962
  49   2.0000      -0.495259       -13.4767
  50   2.0000      -0.488363       -13.2890
  51   2.0000      -0.479117       -13.0374
  52   2.0000      -0.470784       -12.8107
  53   2.0000      -0.467201       -12.7132
  54   2.0000      -0.459256       -12.4970
  55   2.0000      -0.456029       -12.4092
  56   2.0000      -0.443596       -12.0709
  57   2.0000      -0.438848       -11.9417
  58   2.0000      -0.435273       -11.8444
  59   2.0000      -0.424868       -11.5612
  60   2.0000      -0.423074       -11.5124
  61   2.0000      -0.418069       -11.3762
  62   2.0000      -0.415291       -11.3006
  63   2.0000      -0.349820        -9.5191
  64   2.0000      -0.332041        -9.0353
  65   2.0000      -0.329313        -8.9611
  66   2.0000      -0.288431        -7.8486
  67   0.0000       0.030618         0.8332
  68   0.0000       0.063480         1.7274
  69   0.0000       0.117330         3.1927
  70   0.0000       0.124282         3.3819
  71   0.0000       0.126627         3.4457

MULLIKEN ATOMIC CHARGES
-----------------------
   0 S :    0.108011
   1 C :   -0.089760
   2 C :   -0.085218
   3 C :    0.043881
   4 C :   -0.149123
   5 H :   -0.012422
   6 C :    0.074252
   7 H :    0.040945
   8 H :    0.014787
   9 C :   -0.091187
  10 H :    0.036558
  11 H :    0.036766
  12 C :   -0.053992
  13 H :    0.026244
  14 H :    0.031904
  15 H :    0.025438
  16 S :    0.126426
  17 C :   -0.100001
  18 C :   -0.014055
  19 C :   -0.056674
  20 C :   -0.176010
  21 H :    0.011511
  22 C :    0.101829
  23 H :    0.001221
  24 H :    0.027964
  25 C :   -0.109450
  26 H :    0.037058
  27 H :    0.029449
  28 C :   -0.036154
  29 H :    0.021047
  30 H :    0.031006
  31 H :    0.045334
  32 H :    0.031075
  33 H :    0.071339
Sum of atomic charges:   -0.0000000

LOEWDIN ATOMIC CHARGES
----------------------
   0 S :    0.395912
   1 C :   -0.197460
   2 C :   -0.063049
   3 C :   -0.053541
   4 C :   -0.177112
   5 H :    0.027631
   6 C :   -0.031247
   7 H :    0.039154
   8 H :    0.025762
   9 C :   -0.041726
  10 H :    0.028919
  11 H :    0.027288
  12 C :   -0.076756
  13 H :    0.019116
  14 H :    0.027467
  15 H :    0.027697
  16 S :    0.426799
  17 C :   -0.196946
  18 C :   -0.067414
  19 C :   -0.039004
  20 C :   -0.212261
  21 H :    0.028243
  22 C :   -0.036155
  23 H :    0.025115
  24 H :    0.024838
  25 C :   -0.037117
  26 H :    0.017678
  27 H :    0.027354
  28 C :   -0.068038
  29 H :    0.027855
  30 H :    0.024669
  31 H :    0.026339
  32 H :    0.014665
  33 H :    0.035326

  Mayer bond orders larger than 0.100000
B(  0-S ,  1-C ) :   1.1402 B(  0-S ,  4-C ) :   1.1396 B(  1-C ,  2-C ) :   1.6211
B(  1-C , 32-H ) :   0.9666 B(  2-C ,  3-C ) :   1.2283 B(  2-C ,  6-C ) :   1.0147
B(  3-C ,  4-C ) :   1.5701 B(  3-C ,  5-H ) :   1.0039 B(  4-C , 20-C ) :   1.0598
B(  6-C ,  7-H ) :   0.9422 B(  6-C ,  8-H ) :   0.9473 B(  6-C ,  9-C ) :   1.0492
B(  9-C , 10-H ) :   0.9552 B(  9-C , 11-H ) :   0.9589 B(  9-C , 12-C ) :   1.0787
B( 12-C , 13-H ) :   0.9757 B( 12-C , 14-H ) :   0.9745 B( 12-C , 15-H ) :   0.9724
B( 16-S , 17-C ) :   1.1801 B( 16-S , 20-C ) :   1.1474 B( 17-C , 18-C ) :   1.5792
B( 17-C , 33-H ) :   0.9591 B( 18-C , 19-C ) :   1.2593 B( 18-C , 21-H ) :   0.9954
B( 19-C , 20-C ) :   1.5494 B( 19-C , 22-C ) :   1.0707 B( 22-C , 23-H ) :   0.9147
B( 22-C , 24-H ) :   0.9289 B( 22-C , 25-C ) :   1.0547 B( 25-C , 26-H ) :   0.9565
B( 25-C , 27-H ) :   0.9562 B( 25-C , 28-C ) :   1.0621 B( 28-C , 29-H ) :   0.9695
B( 28-C , 30-H ) :   0.9769 B( 28-C , 31-H ) :   0.9793

Dispersion correction           -0.014443513
FINAL SINGLE POINT ENERGY     -1339.881607751528

DIPOLE MOMENT
-------------
                                X             Y             Z
Electronic contribution:    -30.66880       9.96210       3.98912
Nuclear contribution   :     31.30911     -10.13962      -4.35585
                        -----------------------------------------
Total Dipole Moment    :      0.64030      -0.17752      -0.36673
                        -----------------------------------------
Magnitude (a.u.)       :      0.75894
Magnitude (Debye)      :      1.92907

Rotational constants in cm-1:     0.019081     0.008859     0.006439
Rotational constants in MHz :   572.048977   265.594564   193.047853

                             ****ORCA TERMINATED NORMALLY****
TOTAL RUN TIME: 0 days 0 hours 0 minutes 35 seconds 726 msec
