                         Program Version 4.2.1 -  RELEASE  -
|  1> ! wB97X-D3 SP def2-SVP
|  2> %pal
|  3> nprocs 16
|  4> end
|  5>
|  6> * xyz 0 1
|  7> S 	 45.807 	 23.3569 	 101.888
|  8> C 	 44.5346 	 24.3742 	 101.149
|  9> C 	 43.4525 	 23.6689 	 100.632
| 10> C 	 43.6693 	 22.2644 	 100.897
| 11> C 	 44.8941 	 21.9664 	 101.463
| 12> H 	 43.0851 	 21.4566 	 100.586
| 13> C 	 42.1979 	 24.315 	 100.031
| 14> H 	 42.2187 	 25.3903 	 100.328
| 15> H 	 41.3223 	 23.8114 	 100.336
| 16> C 	 42.1658 	 24.3281 	 98.4665
| 17> H 	 43.0141 	 24.8271 	 98.1449
| 18> H 	 42.2843 	 23.3249 	 98.1561
| 19> C 	 40.9038 	 24.9804 	 97.9602
| 20> H 	 40.6069 	 25.8578 	 98.3842
| 21> H 	 41.0401 	 25.2638 	 96.9208
| 22> H 	 40.1275 	 24.2439 	 98.0435
| 23> S 	 45.725 	 20.3742 	 103.401
| 24> C 	 46.1566 	 18.676 	 103.092
| 25> C 	 45.9486 	 18.3331 	 101.79
| 26> C 	 45.4545 	 19.4102 	 101.022
| 27> C 	 45.261 	 20.5588 	 101.79
| 28> H 	 46.1514 	 17.3839 	 101.384
| 29> C 	 45.3549 	 19.4337 	 99.5147
| 30> H 	 44.6459 	 20.1902 	 99.0728
| 31> H 	 44.7017 	 18.6023 	 99.252
| 32> C 	 46.6 	 19.3796 	 98.6057
| 33> H 	 46.2968 	 19.3666 	 97.5608
| 34> H 	 46.9854 	 18.3656 	 98.7673
| 35> C 	 47.4853 	 20.5825 	 98.8488
| 36> H 	 46.8994 	 21.4471 	 98.7735
| 37> H 	 48.2232 	 20.447 	 98.0636
| 38> H 	 48.0213 	 20.5104 	 99.7947
| 39> H 	 44.5591 	 25.422 	 101.266
| 40> H 	 46.7503 	 18.0408 	 103.831
| 41> *
| 42>
| 43>                          ****END OF INPUT****

CARTESIAN COORDINATES (ANGSTROEM)
---------------------------------
  S     45.807000   23.356900  101.888000
  C     44.534600   24.374200  101.149000
  C     43.452500   23.668900  100.632000
  C     43.669300   22.264400  100.897000
  C     44.894100   21.966400  101.463000
  H     43.085100   21.456600  100.586000
  C     42.197900   24.315000  100.031000
  H     42.218700   25.390300  100.328000
  H     41.322300   23.811400  100.336000
  C     42.165800   24.328100   98.466500
  H     43.014100   24.827100   98.144900
  H     42.284300   23.324900   98.156100
  C     40.903800   24.980400   97.960200
  H     40.606900   25.857800   98.384200
  H     41.040100   25.263800   96.920800
  H     40.127500   24.243900   98.043500
  S     45.725000   20.374200  103.401000
  C     46.156600   18.676000  103.092000
  C     45.948600   18.333100  101.790000
  C     45.454500   19.410200  101.022000
  C     45.261000   20.558800  101.790000
  H     46.151400   17.383900  101.384000
  C     45.354900   19.433700   99.514700
  H     44.645900   20.190200   99.072800
  H     44.701700   18.602300   99.252000
  C     46.600000   19.379600   98.605700
  H     46.296800   19.366600   97.560800
  H     46.985400   18.365600   98.767300
  C     47.485300   20.582500   98.848800
  H     46.899400   21.447100   98.773500
  H     48.223200   20.447000   98.063600
  H     48.021300   20.510400   99.794700
  H     44.559100   25.422000  101.266000
  H     46.750300   18.040800  103.831000

 Total Charge           Charge          ....    0
 Multiplicity           Mult            ....    1
 Number of Electrons    NEL             ....  134
 Basis Dimension        Dim             ....  322

ORBITAL ENERGIES
----------------

  NO   OCC          E(Eh)            E(eV)
   0   2.0000     -88.970170     -2421.0014
   1   2.0000     -88.963964     -2420.8325
   2   2.0000     -10.325875      -280.9813
   3   2.0000     -10.321470      -280.8615
   4   2.0000     -10.320340      -280.8307
   5   2.0000     -10.313464      -280.6436
   6   2.0000     -10.306516      -280.4545
   7   2.0000     -10.300611      -280.2939
   8   2.0000     -10.294935      -280.1394
   9   2.0000     -10.290906      -280.0298
  10   2.0000     -10.287887      -279.9476
  11   2.0000     -10.286146      -279.9003
  12   2.0000     -10.282402      -279.7984
  13   2.0000     -10.276646      -279.6418
  14   2.0000     -10.268844      -279.4294
  15   2.0000     -10.265592      -279.3410
  16   2.0000      -8.084638      -219.9942
  17   2.0000      -8.079693      -219.8596
  18   2.0000      -6.043115      -164.4415
  19   2.0000      -6.039276      -164.3370
  20   2.0000      -6.038018      -164.3028
  21   2.0000      -6.035360      -164.2305
  22   2.0000      -6.034046      -164.1947
  23   2.0000      -6.030584      -164.1005
  24   2.0000      -1.010138       -27.4873
  25   2.0000      -0.983751       -26.7692
  26   2.0000      -0.914649       -24.8889
  27   2.0000      -0.906996       -24.6806
  28   2.0000      -0.872481       -23.7414
  29   2.0000      -0.850717       -23.1492
  30   2.0000      -0.849284       -23.1102
  31   2.0000      -0.814842       -22.1730
  32   2.0000      -0.784454       -21.3461
  33   2.0000      -0.771714       -20.9994
  34   2.0000      -0.709372       -19.3030
  35   2.0000      -0.698866       -19.0171
  36   2.0000      -0.687189       -18.6994
  37   2.0000      -0.663867       -18.0648
  38   2.0000      -0.645931       -17.5767
  39   2.0000      -0.616969       -16.7886
  40   2.0000      -0.594379       -16.1739
  41   2.0000      -0.582585       -15.8530
  42   2.0000      -0.560824       -15.2608
  43   2.0000      -0.550509       -14.9801
  44   2.0000      -0.548328       -14.9208
  45   2.0000      -0.519754       -14.1432
  46   2.0000      -0.516721       -14.0607
  47   2.0000      -0.512541       -13.9470
  48   2.0000      -0.503579       -13.7031
  49   2.0000      -0.495422       -13.4811
  50   2.0000      -0.490253       -13.3405
  51   2.0000      -0.480443       -13.0735
  52   2.0000      -0.474465       -12.9109
  53   2.0000      -0.467856       -12.7310
  54   2.0000      -0.463734       -12.6189
  55   2.0000      -0.449499       -12.2315
  56   2.0000      -0.446535       -12.1508
  57   2.0000      -0.436261       -11.8713
  58   2.0000      -0.431519       -11.7422
  59   2.0000      -0.422662       -11.5012
  60   2.0000      -0.422579       -11.4989
  61   2.0000      -0.416988       -11.3468
  62   2.0000      -0.406704       -11.0670
  63   2.0000      -0.345289        -9.3958
  64   2.0000      -0.331990        -9.0339
  65   2.0000      -0.328033        -8.9262
  66   2.0000      -0.293366        -7.9829
  67   0.0000       0.034511         0.9391
  68   0.0000       0.072009         1.9595
  69   0.0000       0.107619         2.9285
  70   0.0000       0.125312         3.4099
  71   0.0000       0.129431         3.5220

MULLIKEN ATOMIC CHARGES
-----------------------
   0 S :    0.120910
   1 C :   -0.127445
   2 C :   -0.056367
   3 C :    0.045913
   4 C :   -0.139833
   5 H :   -0.008740
   6 C :    0.064910
   7 H :    0.024900
   8 H :    0.018849
   9 C :   -0.044055
  10 H :    0.005747
  11 H :    0.015091
  12 C :    0.013226
  13 H :    0.006232
  14 H :    0.026531
  15 H :    0.025253
  16 S :    0.104887
  17 C :   -0.119017
  18 C :   -0.009647
  19 C :   -0.008660
  20 C :   -0.179719
  21 H :    0.000420
  22 C :    0.004968
  23 H :    0.018093
  24 H :    0.008853
  25 C :   -0.064781
  26 H :    0.021955
  27 H :    0.018916
  28 C :   -0.001028
  29 H :    0.031100
  30 H :    0.027283
  31 H :    0.042389
  32 H :    0.031933
  33 H :    0.080931
Sum of atomic charges:    0.0000000

LOEWDIN ATOMIC CHARGES
----------------------
   0 S :    0.403283
   1 C :   -0.181061
   2 C :   -0.052574
   3 C :   -0.057763
   4 C :   -0.208102
   5 H :    0.019106
   6 C :   -0.020356
   7 H :    0.033833
   8 H :    0.023135
   9 C :   -0.026571
  10 H :    0.012340
  11 H :    0.018195
  12 C :   -0.052990
  13 H :    0.012102
  14 H :    0.031023
  15 H :    0.025985
  16 S :    0.423081
  17 C :   -0.190827
  18 C :   -0.060623
  19 C :   -0.065693
  20 C :   -0.208153
  21 H :    0.026970
  22 C :   -0.052059
  23 H :    0.032392
  24 H :    0.027373
  25 C :   -0.038908
  26 H :    0.024801
  27 H :    0.019628
  28 C :   -0.054179
  29 H :    0.021880
  30 H :    0.027639
  31 H :    0.029554
  32 H :    0.014268
  33 H :    0.043271

  Mayer bond orders larger than 0.100000
B(  0-S ,  1-C ) :   1.1285 B(  0-S ,  4-C ) :   1.1504 B(  1-C ,  2-C ) :   1.6195
B(  1-C , 32-H ) :   0.9698 B(  2-C ,  3-C ) :   1.2193 B(  2-C ,  6-C ) :   1.0259
B(  3-C ,  4-C ) :   1.5896 B(  3-C ,  5-H ) :   0.9984 B(  4-C , 20-C ) :   1.0031
B(  6-C ,  7-H ) :   0.9418 B(  6-C ,  8-H ) :   0.9450 B(  6-C ,  9-C ) :   1.0603
B(  9-C , 10-H ) :   0.9547 B(  9-C , 11-H ) :   0.9582 B(  9-C , 12-C ) :   1.0870
B( 12-C , 13-H ) :   0.9725 B( 12-C , 14-H ) :   0.9707 B( 12-C , 15-H ) :   0.9743
B( 16-S , 17-C ) :   1.1460 B( 16-S , 20-C ) :   1.1751 B( 17-C , 18-C ) :   1.5989
B( 17-C , 33-H ) :   0.9584 B( 18-C , 19-C ) :   1.2564 B( 18-C , 21-H ) :   0.9999
B( 19-C , 20-C ) :   1.5797 B( 19-C , 22-C ) :   1.0400 B( 22-C , 23-H ) :   0.9348
B( 22-C , 24-H ) :   0.9208 B( 22-C , 25-C ) :   1.0848 B( 25-C , 26-H ) :   0.9502
B( 25-C , 27-H ) :   0.9545 B( 25-C , 28-C ) :   1.0674 B( 28-C , 29-H ) :   0.9737
B( 28-C , 30-H ) :   0.9743 B( 28-C , 31-H ) :   0.9757

Dispersion correction           -0.014711964
FINAL SINGLE POINT ENERGY     -1339.862163997913

DIPOLE MOMENT
-------------
                                X             Y             Z
Electronic contribution:      9.70528      -3.47806      25.09827
Nuclear contribution   :     -9.93921       3.42843     -25.66229
                        -----------------------------------------
Total Dipole Moment    :     -0.23393      -0.04964      -0.56402
                        -----------------------------------------
Magnitude (a.u.)       :      0.61262
Magnitude (Debye)      :      1.55715

Rotational constants in cm-1:     0.020709     0.008098     0.006968
Rotational constants in MHz :   620.851344   242.757267   208.883739

                             ****ORCA TERMINATED NORMALLY****
TOTAL RUN TIME: 0 days 0 hours 0 minutes 30 seconds 404 msec
