                         Program Version 4.2.1 -  RELEASE  -
|  1> ! wB97X-D3 SP def2-SVP
|  2> %pal
|  3> nprocs 16
|  4> end
|  5>
|  6> * xyz 0 1
|  7> S 	 -114.474 	 51.4595 	 132.215
|  8> C 	 -113.729 	 52.9852 	 132.832
|  9> C 	 -113.201 	 52.706 	 134.07
| 10> C 	 -113.189 	 51.3311 	 134.472
| 11> C 	 -113.984 	 50.4877 	 133.647
| 12> H 	 -112.914 	 50.7962 	 135.403
| 13> C 	 -112.494 	 53.7613 	 134.956
| 14> H 	 -112.795 	 54.7446 	 134.593
| 15> H 	 -111.405 	 53.6177 	 134.824
| 16> C 	 -112.782 	 53.7559 	 136.448
| 17> H 	 -113.84 	 53.8768 	 136.641
| 18> H 	 -112.515 	 52.7717 	 136.886
| 19> C 	 -111.911 	 54.8125 	 137.15
| 20> H 	 -112.604 	 55.6549 	 137.311
| 21> H 	 -111.628 	 54.4013 	 138.072
| 22> H 	 -111.038 	 55.1427 	 136.616
| 23> S 	 -114.246 	 48.1608 	 132.35
| 24> C 	 -114.365 	 46.632 	 133.159
| 25> C 	 -114.439 	 46.8128 	 134.554
| 26> C 	 -114.367 	 48.2103 	 134.923
| 27> C 	 -114.143 	 49.0575 	 133.829
| 28> H 	 -114.64 	 45.949 	 135.128
| 29> C 	 -114.527 	 48.7608 	 136.386
| 30> H 	 -114.811 	 49.8123 	 136.26
| 31> H 	 -113.483 	 48.6591 	 136.708
| 32> C 	 -115.46 	 48.0045 	 137.366
| 33> H 	 -115.337 	 46.8996 	 137.387
| 34> H 	 -116.489 	 48.1904 	 137.011
| 35> C 	 -115.514 	 48.5791 	 138.784
| 36> H 	 -114.621 	 48.3425 	 139.399
| 37> H 	 -116.367 	 48.1259 	 139.341
| 38> H 	 -115.684 	 49.6419 	 138.75
| 39> H 	 -113.681 	 53.9554 	 132.28
| 40> H 	 -114.393 	 45.7074 	 132.646
| 41> *
| 42>
| 43>                          ****END OF INPUT****

CARTESIAN COORDINATES (ANGSTROEM)
---------------------------------
  S    -114.474000   51.459500  132.215000
  C    -113.729000   52.985200  132.832000
  C    -113.201000   52.706000  134.070000
  C    -113.189000   51.331100  134.472000
  C    -113.984000   50.487700  133.647000
  H    -112.914000   50.796200  135.403000
  C    -112.494000   53.761300  134.956000
  H    -112.795000   54.744600  134.593000
  H    -111.405000   53.617700  134.824000
  C    -112.782000   53.755900  136.448000
  H    -113.840000   53.876800  136.641000
  H    -112.515000   52.771700  136.886000
  C    -111.911000   54.812500  137.150000
  H    -112.604000   55.654900  137.311000
  H    -111.628000   54.401300  138.072000
  H    -111.038000   55.142700  136.616000
  S    -114.246000   48.160800  132.350000
  C    -114.365000   46.632000  133.159000
  C    -114.439000   46.812800  134.554000
  C    -114.367000   48.210300  134.923000
  C    -114.143000   49.057500  133.829000
  H    -114.640000   45.949000  135.128000
  C    -114.527000   48.760800  136.386000
  H    -114.811000   49.812300  136.260000
  H    -113.483000   48.659100  136.708000
  C    -115.460000   48.004500  137.366000
  H    -115.337000   46.899600  137.387000
  H    -116.489000   48.190400  137.011000
  C    -115.514000   48.579100  138.784000
  H    -114.621000   48.342500  139.399000
  H    -116.367000   48.125900  139.341000
  H    -115.684000   49.641900  138.750000
  H    -113.681000   53.955400  132.280000
  H    -114.393000   45.707400  132.646000

 Total Charge           Charge          ....    0
 Multiplicity           Mult            ....    1
 Number of Electrons    NEL             ....  134
 Basis Dimension        Dim             ....  322

ORBITAL ENERGIES
----------------

  NO   OCC          E(Eh)            E(eV)
   0   2.0000     -88.965489     -2420.8740
   1   2.0000     -88.964633     -2420.8507
   2   2.0000     -10.338968      -281.3376
   3   2.0000     -10.329031      -281.0672
   4   2.0000     -10.323265      -280.9103
   5   2.0000     -10.319311      -280.8027
   6   2.0000     -10.315703      -280.7045
   7   2.0000     -10.305482      -280.4264
   8   2.0000     -10.301694      -280.3233
   9   2.0000     -10.299569      -280.2655
  10   2.0000     -10.298538      -280.2375
  11   2.0000     -10.295310      -280.1496
  12   2.0000     -10.292193      -280.0648
  13   2.0000     -10.284998      -279.8690
  14   2.0000     -10.283946      -279.8404
  15   2.0000     -10.273571      -279.5581
  16   2.0000      -8.080150      -219.8721
  17   2.0000      -8.078398      -219.8244
  18   2.0000      -6.038610      -164.3189
  19   2.0000      -6.037240      -164.2816
  20   2.0000      -6.034447      -164.2057
  21   2.0000      -6.033096      -164.1689
  22   2.0000      -6.031000      -164.1119
  23   2.0000      -6.028939      -164.0558
  24   2.0000      -1.003782       -27.3143
  25   2.0000      -0.975896       -26.5555
  26   2.0000      -0.909876       -24.7590
  27   2.0000      -0.905259       -24.6334
  28   2.0000      -0.872839       -23.7512
  29   2.0000      -0.852748       -23.2044
  30   2.0000      -0.838351       -22.8127
  31   2.0000      -0.814004       -22.1502
  32   2.0000      -0.780242       -21.2315
  33   2.0000      -0.771009       -20.9802
  34   2.0000      -0.709418       -19.3043
  35   2.0000      -0.700537       -19.0626
  36   2.0000      -0.691812       -18.8252
  37   2.0000      -0.659691       -17.9511
  38   2.0000      -0.637863       -17.3571
  39   2.0000      -0.611914       -16.6510
  40   2.0000      -0.592183       -16.1141
  41   2.0000      -0.570773       -15.5315
  42   2.0000      -0.568955       -15.4820
  43   2.0000      -0.564456       -15.3596
  44   2.0000      -0.533179       -14.5085
  45   2.0000      -0.523185       -14.2366
  46   2.0000      -0.516657       -14.0590
  47   2.0000      -0.513410       -13.9706
  48   2.0000      -0.506214       -13.7748
  49   2.0000      -0.501048       -13.6342
  50   2.0000      -0.492769       -13.4089
  51   2.0000      -0.483191       -13.1483
  52   2.0000      -0.475688       -12.9441
  53   2.0000      -0.468309       -12.7433
  54   2.0000      -0.460207       -12.5229
  55   2.0000      -0.448833       -12.2134
  56   2.0000      -0.441316       -12.0088
  57   2.0000      -0.438333       -11.9277
  58   2.0000      -0.431840       -11.7510
  59   2.0000      -0.420673       -11.4471
  60   2.0000      -0.417230       -11.3534
  61   2.0000      -0.413128       -11.2418
  62   2.0000      -0.402997       -10.9661
  63   2.0000      -0.355245        -9.6667
  64   2.0000      -0.330825        -9.0022
  65   2.0000      -0.326828        -8.8934
  66   2.0000      -0.285156        -7.7595
  67   0.0000       0.018382         0.5002
  68   0.0000       0.077076         2.0974
  69   0.0000       0.105623         2.8742
  70   0.0000       0.122681         3.3383
  71   0.0000       0.131300         3.5729

MULLIKEN ATOMIC CHARGES
-----------------------
   0 S :    0.084274
   1 C :   -0.145228
   2 C :   -0.055652
   3 C :   -0.008102
   4 C :   -0.133012
   5 H :    0.031570
   6 C :    0.050744
   7 H :    0.013697
   8 H :    0.046700
   9 C :   -0.110918
  10 H :    0.032908
  11 H :    0.026145
  12 C :   -0.012610
  13 H :    0.035474
  14 H :    0.020954
  15 H :    0.032290
  16 S :    0.103901
  17 C :   -0.086617
  18 C :   -0.030708
  19 C :   -0.046101
  20 C :   -0.158493
  21 H :    0.010754
  22 C :    0.038522
  23 H :    0.046335
  24 H :    0.051785
  25 C :   -0.087048
  26 H :    0.040640
  27 H :    0.034471
  28 C :   -0.059785
  29 H :    0.037285
  30 H :    0.038687
  31 H :    0.032077
  32 H :    0.074726
  33 H :    0.050336
Sum of atomic charges:    0.0000000

LOEWDIN ATOMIC CHARGES
----------------------
   0 S :    0.357131
   1 C :   -0.191454
   2 C :   -0.066382
   3 C :   -0.076874
   4 C :   -0.175364
   5 H :    0.037165
   6 C :   -0.031770
   7 H :    0.024584
   8 H :    0.035783
   9 C :   -0.042763
  10 H :    0.023108
  11 H :    0.019463
  12 C :   -0.056228
  13 H :    0.031858
  14 H :    0.020331
  15 H :    0.023913
  16 S :    0.425679
  17 C :   -0.178833
  18 C :   -0.071184
  19 C :   -0.049096
  20 C :   -0.209744
  21 H :    0.026178
  22 C :   -0.035088
  23 H :    0.033936
  24 H :    0.034676
  25 C :   -0.047920
  26 H :    0.026711
  27 H :    0.030243
  28 C :   -0.067097
  29 H :    0.024855
  30 H :    0.032511
  31 H :    0.023300
  32 H :    0.045881
  33 H :    0.022491

  Mayer bond orders larger than 0.100000
B(  0-S ,  1-C ) :   1.1070 B(  0-S ,  4-C ) :   1.1342 B(  1-C ,  2-C ) :   1.6213
B(  1-C , 32-H ) :   0.9660 B(  2-C ,  3-C ) :   1.2184 B(  2-C ,  6-C ) :   1.0160
B(  3-C ,  4-C ) :   1.5607 B(  3-C ,  5-H ) :   0.9802 B(  4-C , 20-C ) :   1.0934
B(  6-C ,  7-H ) :   0.9473 B(  6-C ,  8-H ) :   0.9407 B(  6-C ,  9-C ) :   1.0712
B(  9-C , 10-H ) :   0.9618 B(  9-C , 11-H ) :   0.9584 B(  9-C , 12-C ) :   1.0655
B( 12-C , 13-H ) :   0.9783 B( 12-C , 14-H ) :   0.9769 B( 12-C , 15-H ) :   0.9771
B( 16-S , 17-C ) :   1.1818 B( 16-S , 20-C ) :   1.1421 B( 17-C , 18-C ) :   1.5774
B( 17-C , 20-C ) :   0.1007 B( 17-C , 33-H ) :   0.9743 B( 18-C , 19-C ) :   1.2494
B( 18-C , 21-H ) :   1.0002 B( 19-C , 20-C ) :   1.5592 B( 19-C , 22-C ) :   1.0142
B( 22-C , 23-H ) :   0.9353 B( 22-C , 24-H ) :   0.9349 B( 22-C , 25-C ) :   1.0624
B( 25-C , 26-H ) :   0.9536 B( 25-C , 27-H ) :   0.9563 B( 25-C , 28-C ) :   1.0880
B( 28-C , 29-H ) :   0.9757 B( 28-C , 30-H ) :   0.9739 B( 28-C , 31-H ) :   0.9737

Dispersion correction           -0.013241537
FINAL SINGLE POINT ENERGY     -1339.868251126103

DIPOLE MOMENT
-------------
                                X             Y             Z
Electronic contribution:     -3.24334     -10.25928     -31.02256
Nuclear contribution   :      3.31099      10.24814      31.77185
                        -----------------------------------------
Total Dipole Moment    :      0.06764      -0.01113       0.74928
                        -----------------------------------------
Magnitude (a.u.)       :      0.75241
Magnitude (Debye)      :      1.91248

Rotational constants in cm-1:     0.015444     0.009147     0.006103
Rotational constants in MHz :   462.991244   274.234869   182.968467

                             ****ORCA TERMINATED NORMALLY****
TOTAL RUN TIME: 0 days 0 hours 0 minutes 33 seconds 53 msec
