                         Program Version 4.2.1 -  RELEASE  -
|  1> ! wB97X-D3 SP def2-SVP
|  2> %pal
|  3> nprocs 16
|  4> end
|  5>
|  6> * xyz 0 1
|  7> S 	 41.7257 	 21.5213 	 45.127
|  8> C 	 40.0157 	 21.2961 	 45.3682
|  9> C 	 39.5733 	 21.9191 	 46.4973
| 10> C 	 40.6166 	 22.6931 	 47.1446
| 11> C 	 41.8066 	 22.6323 	 46.4378
| 12> H 	 40.5571 	 23.332 	 47.9656
| 13> C 	 38.1607 	 21.8708 	 46.9778
| 14> H 	 37.5998 	 21.2738 	 46.3326
| 15> H 	 37.7606 	 22.8424 	 46.7633
| 16> C 	 37.9745 	 21.504 	 48.4391
| 17> H 	 38.5997 	 22.1605 	 49.1374
| 18> H 	 36.8731 	 21.534 	 48.7073
| 19> C 	 38.5615 	 20.1104 	 48.7926
| 20> H 	 38.3041 	 19.7613 	 49.8119
| 21> H 	 38.0431 	 19.4267 	 48.1559
| 22> H 	 39.6748 	 20.1513 	 48.6515
| 23> S 	 44.0874 	 23.6848 	 45.4948
| 24> C 	 45.2218 	 24.4585 	 46.6043
| 25> C 	 44.8704 	 24.33 	 47.964
| 26> C 	 43.6542 	 23.6248 	 48.1214
| 27> C 	 43.0919 	 23.2232 	 46.8633
| 28> H 	 45.4186 	 24.7564 	 48.8056
| 29> C 	 43.0315 	 23.4735 	 49.4942
| 30> H 	 42.0719 	 22.9029 	 49.4738
| 31> H 	 42.7545 	 24.483 	 49.8294
| 32> C 	 44.0121 	 22.8384 	 50.5164
| 33> H 	 45.0145 	 23.3889 	 50.439
| 34> H 	 44.1683 	 21.7827 	 50.3191
| 35> C 	 43.3939 	 22.9074 	 51.9522
| 36> H 	 43.9972 	 22.5583 	 52.7913
| 37> H 	 42.4583 	 22.4122 	 51.9756
| 38> H 	 43.2176 	 23.9753 	 52.07
| 39> H 	 39.4057 	 20.5218 	 44.8212
| 40> H 	 46.06 	 25.1151 	 46.3702
| 41> *
| 42>
| 43>                          ****END OF INPUT****

CARTESIAN COORDINATES (ANGSTROEM)
---------------------------------
  S     41.725700   21.521300   45.127000
  C     40.015700   21.296100   45.368200
  C     39.573300   21.919100   46.497300
  C     40.616600   22.693100   47.144600
  C     41.806600   22.632300   46.437800
  H     40.557100   23.332000   47.965600
  C     38.160700   21.870800   46.977800
  H     37.599800   21.273800   46.332600
  H     37.760600   22.842400   46.763300
  C     37.974500   21.504000   48.439100
  H     38.599700   22.160500   49.137400
  H     36.873100   21.534000   48.707300
  C     38.561500   20.110400   48.792600
  H     38.304100   19.761300   49.811900
  H     38.043100   19.426700   48.155900
  H     39.674800   20.151300   48.651500
  S     44.087400   23.684800   45.494800
  C     45.221800   24.458500   46.604300
  C     44.870400   24.330000   47.964000
  C     43.654200   23.624800   48.121400
  C     43.091900   23.223200   46.863300
  H     45.418600   24.756400   48.805600
  C     43.031500   23.473500   49.494200
  H     42.071900   22.902900   49.473800
  H     42.754500   24.483000   49.829400
  C     44.012100   22.838400   50.516400
  H     45.014500   23.388900   50.439000
  H     44.168300   21.782700   50.319100
  C     43.393900   22.907400   51.952200
  H     43.997200   22.558300   52.791300
  H     42.458300   22.412200   51.975600
  H     43.217600   23.975300   52.070000
  H     39.405700   20.521800   44.821200
  H     46.060000   25.115100   46.370200

 Total Charge           Charge          ....    0
 Multiplicity           Mult            ....    1
 Number of Electrons    NEL             ....  134
 Basis Dimension        Dim             ....  322

ORBITAL ENERGIES
----------------

  NO   OCC          E(Eh)            E(eV)
   0   2.0000     -88.972489     -2421.0645
   1   2.0000     -88.965423     -2420.8722
   2   2.0000     -10.332797      -281.1697
   3   2.0000     -10.329931      -281.0917
   4   2.0000     -10.322296      -280.8840
   5   2.0000     -10.312615      -280.6205
   6   2.0000     -10.309562      -280.5375
   7   2.0000     -10.300409      -280.2884
   8   2.0000     -10.300151      -280.2814
   9   2.0000     -10.298685      -280.2415
  10   2.0000     -10.297291      -280.2035
  11   2.0000     -10.296144      -280.1723
  12   2.0000     -10.289657      -279.9958
  13   2.0000     -10.284302      -279.8501
  14   2.0000     -10.278516      -279.6926
  15   2.0000     -10.277659      -279.6693
  16   2.0000      -8.086490      -220.0446
  17   2.0000      -8.080961      -219.8941
  18   2.0000      -6.044944      -164.4913
  19   2.0000      -6.041095      -164.3866
  20   2.0000      -6.039459      -164.3420
  21   2.0000      -6.037359      -164.2849
  22   2.0000      -6.035430      -164.2324
  23   2.0000      -6.031620      -164.1287
  24   2.0000      -1.008182       -27.4340
  25   2.0000      -0.982510       -26.7355
  26   2.0000      -0.917311       -24.9613
  27   2.0000      -0.908619       -24.7248
  28   2.0000      -0.866812       -23.5872
  29   2.0000      -0.852259       -23.1911
  30   2.0000      -0.843605       -22.9557
  31   2.0000      -0.813933       -22.1482
  32   2.0000      -0.784409       -21.3448
  33   2.0000      -0.769396       -20.9363
  34   2.0000      -0.706529       -19.2256
  35   2.0000      -0.696295       -18.9472
  36   2.0000      -0.686543       -18.6818
  37   2.0000      -0.660890       -17.9837
  38   2.0000      -0.641322       -17.4512
  39   2.0000      -0.625791       -17.0287
  40   2.0000      -0.595247       -16.1975
  41   2.0000      -0.566501       -15.4153
  42   2.0000      -0.565417       -15.3858
  43   2.0000      -0.550914       -14.9911
  44   2.0000      -0.543360       -14.7856
  45   2.0000      -0.522036       -14.2053
  46   2.0000      -0.519439       -14.1346
  47   2.0000      -0.511908       -13.9297
  48   2.0000      -0.503433       -13.6991
  49   2.0000      -0.493637       -13.4325
  50   2.0000      -0.489000       -13.3064
  51   2.0000      -0.483217       -13.1490
  52   2.0000      -0.468889       -12.7591
  53   2.0000      -0.461882       -12.5684
  54   2.0000      -0.458758       -12.4834
  55   2.0000      -0.457753       -12.4561
  56   2.0000      -0.447344       -12.1728
  57   2.0000      -0.443833       -12.0773
  58   2.0000      -0.431265       -11.7353
  59   2.0000      -0.430366       -11.7109
  60   2.0000      -0.421469       -11.4688
  61   2.0000      -0.417362       -11.3570
  62   2.0000      -0.408774       -11.1233
  63   2.0000      -0.355104        -9.6629
  64   2.0000      -0.334822        -9.1110
  65   2.0000      -0.329010        -8.9528
  66   2.0000      -0.282868        -7.6972
  67   0.0000       0.024271         0.6604
  68   0.0000       0.075142         2.0447
  69   0.0000       0.100004         2.7213
  70   0.0000       0.112274         3.0551
  71   0.0000       0.130485         3.5507

MULLIKEN ATOMIC CHARGES
-----------------------
   0 S :    0.104971
   1 C :   -0.135999
   2 C :   -0.116501
   3 C :    0.003943
   4 C :   -0.098801
   5 H :   -0.007782
   6 C :    0.154849
   7 H :   -0.012438
   8 H :    0.032093
   9 C :   -0.131938
  10 H :    0.039637
  11 H :    0.045493
  12 C :   -0.063264
  13 H :    0.036065
  14 H :    0.017687
  15 H :    0.061237
  16 S :    0.111791
  17 C :   -0.080251
  18 C :   -0.059858
  19 C :   -0.023068
  20 C :   -0.158444
  21 H :    0.030096
  22 C :    0.030358
  23 H :    0.028363
  24 H :    0.036505
  25 C :   -0.114707
  26 H :    0.043189
  27 H :    0.041694
  28 C :   -0.026560
  29 H :    0.043204
  30 H :    0.024492
  31 H :    0.018241
  32 H :    0.067158
  33 H :    0.058547
Sum of atomic charges:   -0.0000000

LOEWDIN ATOMIC CHARGES
----------------------
   0 S :    0.410660
   1 C :   -0.215243
   2 C :   -0.056834
   3 C :   -0.068542
   4 C :   -0.193690
   5 H :    0.017942
   6 C :   -0.030132
   7 H :    0.020499
   8 H :    0.036784
   9 C :   -0.047599
  10 H :    0.027764
  11 H :    0.031165
  12 C :   -0.069757
  13 H :    0.027080
  14 H :    0.016162
  15 H :    0.034361
  16 S :    0.410765
  17 C :   -0.186950
  18 C :   -0.069126
  19 C :   -0.054581
  20 C :   -0.196456
  21 H :    0.034491
  22 C :   -0.036609
  23 H :    0.031803
  24 H :    0.032765
  25 C :   -0.038510
  26 H :    0.028738
  27 H :    0.024616
  28 C :   -0.064181
  29 H :    0.027549
  30 H :    0.020018
  31 H :    0.022950
  32 H :    0.040665
  33 H :    0.031432

  Mayer bond orders larger than 0.100000
B(  0-S ,  1-C ) :   1.1170 B(  0-S ,  4-C ) :   1.1638 B(  1-C ,  2-C ) :   1.6420
B(  1-C , 32-H ) :   0.9560 B(  2-C ,  3-C ) :   1.2015 B(  2-C ,  6-C ) :   1.0257
B(  3-C ,  4-C ) :   1.5853 B(  3-C ,  5-H ) :   1.0061 B(  4-C , 20-C ) :   1.0304
B(  6-C ,  7-H ) :   0.9297 B(  6-C ,  8-H ) :   0.9288 B(  6-C ,  9-C ) :   1.0642
B(  9-C , 10-H ) :   0.9583 B(  9-C , 11-H ) :   0.9564 B(  9-C , 12-C ) :   1.0660
B( 12-C , 13-H ) :   0.9753 B( 12-C , 14-H ) :   0.9770 B( 12-C , 15-H ) :   0.9718
B( 16-S , 17-C ) :   1.1586 B( 16-S , 20-C ) :   1.1460 B( 17-C , 18-C ) :   1.5949
B( 17-C , 20-C ) :   0.1056 B( 17-C , 33-H ) :   0.9637 B( 18-C , 19-C ) :   1.2719
B( 18-C , 21-H ) :   0.9789 B( 19-C , 20-C ) :   1.5618 B( 19-C , 22-C ) :   1.0354
B( 22-C , 23-H ) :   0.9354 B( 22-C , 24-H ) :   0.9361 B( 22-C , 25-C ) :   1.0487
B( 25-C , 26-H ) :   0.9586 B( 25-C , 27-H ) :   0.9576 B( 25-C , 28-C ) :   1.0691
B( 28-C , 29-H ) :   0.9758 B( 28-C , 30-H ) :   0.9737 B( 28-C , 31-H ) :   0.9771

Dispersion correction           -0.014093604
FINAL SINGLE POINT ENERGY     -1339.878681722773

DIPOLE MOMENT
-------------
                                X             Y             Z
Electronic contribution:     12.60967       4.37113     -27.81096
Nuclear contribution   :    -12.92227      -4.25060      28.44487
                        -----------------------------------------
Total Dipole Moment    :     -0.31260       0.12053       0.63391
                        -----------------------------------------
Magnitude (a.u.)       :      0.71700
Magnitude (Debye)      :      1.82247

Rotational constants in cm-1:     0.016354     0.009991     0.006638
Rotational constants in MHz :   490.278154   299.532256   199.006867

                             ****ORCA TERMINATED NORMALLY****
TOTAL RUN TIME: 0 days 0 hours 0 minutes 35 seconds 27 msec
