                         Program Version 4.2.1 -  RELEASE  -
|  1> ! wB97X-D3 SP def2-SVP
|  2> %pal
|  3> nprocs 16
|  4> end
|  5>
|  6> * xyz 0 1
|  7> S 	 -29.611 	 0.802872 	 100.789
|  8> C 	 -29.9279 	 -0.618925 	 101.64
|  9> C 	 -29.4433 	 -0.558465 	 102.92
| 10> C 	 -28.8523 	 0.750903 	 103.25
| 11> C 	 -28.8164 	 1.59191 	 102.132
| 12> H 	 -28.2927 	 1.17851 	 104.07
| 13> C 	 -29.6002 	 -1.60658 	 104.085
| 14> H 	 -30.0123 	 -2.55391 	 103.818
| 15> H 	 -30.2618 	 -1.0102 	 104.758
| 16> C 	 -28.2462 	 -1.94176 	 104.911
| 17> H 	 -27.7365 	 -1.05663 	 105.022
| 18> H 	 -28.5406 	 -2.36103 	 105.844
| 19> C 	 -27.25 	 -2.90877 	 104.336
| 20> H 	 -27.3002 	 -2.90471 	 103.227
| 21> H 	 -26.2903 	 -2.51769 	 104.473
| 22> H 	 -27.2812 	 -3.87207 	 104.841
| 23> S 	 -26.6794 	 3.40743 	 102.633
| 24> C 	 -26.7992 	 4.96245 	 102.013
| 25> C 	 -28.0441 	 5.21911 	 101.583
| 26> C 	 -28.9615 	 4.1226 	 101.545
| 27> C 	 -28.3492 	 2.99831 	 102.107
| 28> H 	 -28.168 	 6.20508 	 101.219
| 29> C 	 -30.349 	 4.22274 	 100.974
| 30> H 	 -30.8128 	 3.24154 	 100.904
| 31> H 	 -30.3418 	 4.64967 	 99.982
| 32> C 	 -31.3458 	 5.09995 	 101.696
| 33> H 	 -30.9442 	 6.09067 	 101.884
| 34> H 	 -31.5511 	 4.57681 	 102.7
| 35> C 	 -32.806 	 5.25116 	 101.178
| 36> H 	 -33.209 	 4.30038 	 100.853
| 37> H 	 -32.8731 	 5.91158 	 100.316
| 38> H 	 -33.4294 	 5.68969 	 101.942
| 39> H 	 -30.4765 	 -1.45731 	 101.18
| 40> H 	 -26.0043 	 5.65721 	 102.169
| 41> *
| 42>
| 43>                          ****END OF INPUT****

CARTESIAN COORDINATES (ANGSTROEM)
---------------------------------
  S    -29.611000    0.802872  100.789000
  C    -29.927900   -0.618925  101.640000
  C    -29.443300   -0.558465  102.920000
  C    -28.852300    0.750903  103.250000
  C    -28.816400    1.591910  102.132000
  H    -28.292700    1.178510  104.070000
  C    -29.600200   -1.606580  104.085000
  H    -30.012300   -2.553910  103.818000
  H    -30.261800   -1.010200  104.758000
  C    -28.246200   -1.941760  104.911000
  H    -27.736500   -1.056630  105.022000
  H    -28.540600   -2.361030  105.844000
  C    -27.250000   -2.908770  104.336000
  H    -27.300200   -2.904710  103.227000
  H    -26.290300   -2.517690  104.473000
  H    -27.281200   -3.872070  104.841000
  S    -26.679400    3.407430  102.633000
  C    -26.799200    4.962450  102.013000
  C    -28.044100    5.219110  101.583000
  C    -28.961500    4.122600  101.545000
  C    -28.349200    2.998310  102.107000
  H    -28.168000    6.205080  101.219000
  C    -30.349000    4.222740  100.974000
  H    -30.812800    3.241540  100.904000
  H    -30.341800    4.649670   99.982000
  C    -31.345800    5.099950  101.696000
  H    -30.944200    6.090670  101.884000
  H    -31.551100    4.576810  102.700000
  C    -32.806000    5.251160  101.178000
  H    -33.209000    4.300380  100.853000
  H    -32.873100    5.911580  100.316000
  H    -33.429400    5.689690  101.942000
  H    -30.476500   -1.457310  101.180000
  H    -26.004300    5.657210  102.169000

 Total Charge           Charge          ....    0
 Multiplicity           Mult            ....    1
 Number of Electrons    NEL             ....  134
 Basis Dimension        Dim             ....  322

ORBITAL ENERGIES
----------------

  NO   OCC          E(Eh)            E(eV)
   0   2.0000     -88.964842     -2420.8564
   1   2.0000     -88.964178     -2420.8384
   2   2.0000     -10.333533      -281.1897
   3   2.0000     -10.331151      -281.1249
   4   2.0000     -10.313024      -280.6316
   5   2.0000     -10.310772      -280.5704
   6   2.0000     -10.309442      -280.5342
   7   2.0000     -10.309202      -280.5277
   8   2.0000     -10.299180      -280.2549
   9   2.0000     -10.297912      -280.2204
  10   2.0000     -10.288042      -279.9519
  11   2.0000     -10.287907      -279.9482
  12   2.0000     -10.287005      -279.9236
  13   2.0000     -10.277400      -279.6623
  14   2.0000     -10.276079      -279.6263
  15   2.0000     -10.267682      -279.3978
  16   2.0000      -8.080432      -219.8797
  17   2.0000      -8.079938      -219.8663
  18   2.0000      -6.038921      -164.3274
  19   2.0000      -6.038365      -164.3123
  20   2.0000      -6.034655      -164.2113
  21   2.0000      -6.034298      -164.2016
  22   2.0000      -6.031307      -164.1202
  23   2.0000      -6.030723      -164.1043
  24   2.0000      -1.009598       -27.4726
  25   2.0000      -0.991664       -26.9846
  26   2.0000      -0.911631       -24.8067
  27   2.0000      -0.900358       -24.5000
  28   2.0000      -0.873595       -23.7717
  29   2.0000      -0.852828       -23.2066
  30   2.0000      -0.846895       -23.0452
  31   2.0000      -0.815542       -22.1920
  32   2.0000      -0.788099       -21.4453
  33   2.0000      -0.774210       -21.0673
  34   2.0000      -0.703751       -19.1500
  35   2.0000      -0.695476       -18.9249
  36   2.0000      -0.686994       -18.6941
  37   2.0000      -0.661745       -18.0070
  38   2.0000      -0.642506       -17.4835
  39   2.0000      -0.618520       -16.8308
  40   2.0000      -0.603998       -16.4356
  41   2.0000      -0.572748       -15.5853
  42   2.0000      -0.565114       -15.3775
  43   2.0000      -0.551328       -15.0024
  44   2.0000      -0.540366       -14.7041
  45   2.0000      -0.527280       -14.3480
  46   2.0000      -0.515547       -14.0287
  47   2.0000      -0.513508       -13.9733
  48   2.0000      -0.510850       -13.9009
  49   2.0000      -0.495771       -13.4906
  50   2.0000      -0.490596       -13.3498
  51   2.0000      -0.480450       -13.0737
  52   2.0000      -0.471705       -12.8358
  53   2.0000      -0.468807       -12.7569
  54   2.0000      -0.461923       -12.5696
  55   2.0000      -0.455222       -12.3872
  56   2.0000      -0.444406       -12.0929
  57   2.0000      -0.441618       -12.0170
  58   2.0000      -0.429591       -11.6898
  59   2.0000      -0.423675       -11.5288
  60   2.0000      -0.414477       -11.2785
  61   2.0000      -0.404471       -11.0062
  62   2.0000      -0.403565       -10.9816
  63   2.0000      -0.353109        -9.6086
  64   2.0000      -0.332041        -9.0353
  65   2.0000      -0.324384        -8.8269
  66   2.0000      -0.296366        -8.0645
  67   0.0000       0.032968         0.8971
  68   0.0000       0.076255         2.0750
  69   0.0000       0.110018         2.9937
  70   0.0000       0.119868         3.2618
  71   0.0000       0.135865         3.6971

MULLIKEN ATOMIC CHARGES
-----------------------
   0 S :    0.115453
   1 C :   -0.143502
   2 C :   -0.063280
   3 C :    0.004754
   4 C :   -0.154301
   5 H :    0.021202
   6 C :    0.053329
   7 H :    0.019021
   8 H :    0.049802
   9 C :   -0.052584
  10 H :    0.005955
  11 H :    0.021742
  12 C :   -0.029969
  13 H :    0.031375
  14 H :    0.011242
  15 H :    0.037453
  16 S :    0.098490
  17 C :   -0.083823
  18 C :   -0.025516
  19 C :   -0.011195
  20 C :   -0.166171
  21 H :    0.002078
  22 C :    0.117873
  23 H :    0.013332
  24 H :    0.021571
  25 C :   -0.134651
  26 H :    0.028396
  27 H :    0.035021
  28 C :   -0.031270
  29 H :    0.026741
  30 H :    0.022753
  31 H :    0.039451
  32 H :    0.064272
  33 H :    0.054956
Sum of atomic charges:    0.0000000

LOEWDIN ATOMIC CHARGES
----------------------
   0 S :    0.437030
   1 C :   -0.225326
   2 C :   -0.065250
   3 C :   -0.069632
   4 C :   -0.192597
   5 H :    0.031318
   6 C :   -0.023461
   7 H :    0.019436
   8 H :    0.041321
   9 C :   -0.031821
  10 H :    0.010524
  11 H :    0.022045
  12 C :   -0.067181
  13 H :    0.032366
  14 H :    0.021517
  15 H :    0.027013
  16 S :    0.410693
  17 C :   -0.194855
  18 C :   -0.072581
  19 C :   -0.045702
  20 C :   -0.185346
  21 H :    0.025268
  22 C :   -0.038318
  23 H :    0.020416
  24 H :    0.031333
  25 C :   -0.044694
  26 H :    0.018118
  27 H :    0.031781
  28 C :   -0.061994
  29 H :    0.023246
  30 H :    0.019648
  31 H :    0.029243
  32 H :    0.038577
  33 H :    0.027867

  Mayer bond orders larger than 0.100000
B(  0-S ,  1-C ) :   1.1501 B(  0-S ,  4-C ) :   1.1546 B(  1-C ,  2-C ) :   1.6173
B(  1-C , 32-H ) :   0.9680 B(  2-C ,  3-C ) :   1.2030 B(  2-C ,  6-C ) :   1.0075
B(  3-C ,  4-C ) :   1.5969 B(  3-C ,  5-H ) :   0.9868 B(  4-C , 20-C ) :   1.0271
B(  6-C ,  7-H ) :   0.9562 B(  6-C ,  8-H ) :   0.9439 B(  6-C ,  9-C ) :   1.0628
B(  9-C , 10-H ) :   0.9648 B(  9-C , 11-H ) :   0.9608 B(  9-C , 12-C ) :   1.0807
B( 12-C , 13-H ) :   0.9723 B( 12-C , 14-H ) :   0.9735 B( 12-C , 15-H ) :   0.9790
B( 16-S , 17-C ) :   1.1661 B( 16-S , 20-C ) :   1.1412 B( 17-C , 18-C ) :   1.6211
B( 17-C , 33-H ) :   0.9672 B( 18-C , 19-C ) :   1.2147 B( 18-C , 21-H ) :   0.9977
B( 19-C , 20-C ) :   1.5852 B( 19-C , 22-C ) :   1.0577 B( 22-C , 23-H ) :   0.9186
B( 22-C , 24-H ) :   0.9256 B( 22-C , 25-C ) :   1.0694 B( 25-C , 26-H ) :   0.9578
B( 25-C , 27-H ) :   0.9556 B( 25-C , 28-C ) :   1.0829 B( 28-C , 29-H ) :   0.9740
B( 28-C , 30-H ) :   0.9734 B( 28-C , 31-H ) :   0.9758

Dispersion correction           -0.013571708
FINAL SINGLE POINT ENERGY     -1339.861622728327

DIPOLE MOMENT
-------------
                                X             Y             Z
Electronic contribution:     11.32536       4.87424      -7.44558
Nuclear contribution   :    -11.51245      -4.74162       7.61171
                        -----------------------------------------
Total Dipole Moment    :     -0.18709       0.13261       0.16613
                        -----------------------------------------
Magnitude (a.u.)       :      0.28318
Magnitude (Debye)      :      0.71978

Rotational constants in cm-1:     0.019721     0.007877     0.006315
Rotational constants in MHz :   591.213502   236.160315   189.321353

                             ****ORCA TERMINATED NORMALLY****
TOTAL RUN TIME: 0 days 0 hours 0 minutes 28 seconds 450 msec
