                         Program Version 4.2.1 -  RELEASE  -
|  1> ! wB97X-D3 SP def2-SVP
|  2> %pal
|  3> nprocs 16
|  4> end
|  5>
|  6> * xyz 0 1
|  7> S 	 -5.83999 	 -9.79356 	 85.4401
|  8> C 	 -5.99565 	 -9.99704 	 83.7152
|  9> C 	 -7.07269 	 -9.26616 	 83.2036
| 10> C 	 -7.55624 	 -8.32257 	 84.1664
| 11> C 	 -6.89165 	 -8.39461 	 85.3451
| 12> H 	 -8.32129 	 -7.59196 	 84.1309
| 13> C 	 -7.68253 	 -9.54732 	 81.8744
| 14> H 	 -6.93206 	 -9.7333 	 81.1344
| 15> H 	 -8.18949 	 -8.63229 	 81.4865
| 16> C 	 -8.75263 	 -10.7014 	 81.8622
| 17> H 	 -8.31973 	 -11.5113 	 82.2928
| 18> H 	 -9.52671 	 -10.2971 	 82.4557
| 19> C 	 -9.28743 	 -11.0384 	 80.4428
| 20> H 	 -9.68489 	 -10.1552 	 79.9926
| 21> H 	 -8.46454 	 -11.4209 	 79.861
| 22> H 	 -10.101 	 -11.7337 	 80.628
| 23> S 	 -7.45551 	 -8.52285 	 87.9862
| 24> C 	 -7.68637 	 -7.05511 	 88.8972
| 25> C 	 -7.58382 	 -5.92179 	 88.0956
| 26> C 	 -7.3148 	 -6.25378 	 86.739
| 27> C 	 -7.12981 	 -7.62703 	 86.5457
| 28> H 	 -7.75278 	 -4.94707 	 88.5615
| 29> C 	 -7.19524 	 -5.17201 	 85.722
| 30> H 	 -7.49121 	 -4.22268 	 86.1136
| 31> H 	 -7.95189 	 -5.45477 	 84.941
| 32> C 	 -5.76291 	 -4.99328 	 85.164
| 33> H 	 -5.56357 	 -5.83256 	 84.5189
| 34> H 	 -5.01623 	 -5.05194 	 85.9288
| 35> C 	 -5.58619 	 -3.73066 	 84.3353
| 36> H 	 -6.2277 	 -3.75246 	 83.4051
| 37> H 	 -4.65009 	 -3.55188 	 83.8759
| 38> H 	 -5.782 	 -2.82593 	 84.8634
| 39> H 	 -5.66578 	 -10.8122 	 83.224
| 40> H 	 -7.71242 	 -6.91012 	 90.0054
| 41> *
| 42>
| 43>                          ****END OF INPUT****

CARTESIAN COORDINATES (ANGSTROEM)
---------------------------------
  S     -5.839990   -9.793560   85.440100
  C     -5.995650   -9.997040   83.715200
  C     -7.072690   -9.266160   83.203600
  C     -7.556240   -8.322570   84.166400
  C     -6.891650   -8.394610   85.345100
  H     -8.321290   -7.591960   84.130900
  C     -7.682530   -9.547320   81.874400
  H     -6.932060   -9.733300   81.134400
  H     -8.189490   -8.632290   81.486500
  C     -8.752630  -10.701400   81.862200
  H     -8.319730  -11.511300   82.292800
  H     -9.526710  -10.297100   82.455700
  C     -9.287430  -11.038400   80.442800
  H     -9.684890  -10.155200   79.992600
  H     -8.464540  -11.420900   79.861000
  H    -10.101000  -11.733700   80.628000
  S     -7.455510   -8.522850   87.986200
  C     -7.686370   -7.055110   88.897200
  C     -7.583820   -5.921790   88.095600
  C     -7.314800   -6.253780   86.739000
  C     -7.129810   -7.627030   86.545700
  H     -7.752780   -4.947070   88.561500
  C     -7.195240   -5.172010   85.722000
  H     -7.491210   -4.222680   86.113600
  H     -7.951890   -5.454770   84.941000
  C     -5.762910   -4.993280   85.164000
  H     -5.563570   -5.832560   84.518900
  H     -5.016230   -5.051940   85.928800
  C     -5.586190   -3.730660   84.335300
  H     -6.227700   -3.752460   83.405100
  H     -4.650090   -3.551880   83.875900
  H     -5.782000   -2.825930   84.863400
  H     -5.665780  -10.812200   83.224000
  H     -7.712420   -6.910120   90.005400

 Total Charge           Charge          ....    0
 Multiplicity           Mult            ....    1
 Number of Electrons    NEL             ....  134
 Basis Dimension        Dim             ....  322

ORBITAL ENERGIES
----------------

  NO   OCC          E(Eh)            E(eV)
   0   2.0000     -88.968458     -2420.9548
   1   2.0000     -88.965236     -2420.8672
   2   2.0000     -10.324703      -280.9495
   3   2.0000     -10.322125      -280.8793
   4   2.0000     -10.316747      -280.7330
   5   2.0000     -10.304433      -280.3979
   6   2.0000     -10.303812      -280.3810
   7   2.0000     -10.301016      -280.3049
   8   2.0000     -10.293067      -280.0886
   9   2.0000     -10.290647      -280.0227
  10   2.0000     -10.290373      -280.0153
  11   2.0000     -10.289581      -279.9937
  12   2.0000     -10.279356      -279.7155
  13   2.0000     -10.277780      -279.6726
  14   2.0000     -10.277397      -279.6622
  15   2.0000     -10.271606      -279.5046
  16   2.0000      -8.083371      -219.9597
  17   2.0000      -8.080249      -219.8747
  18   2.0000      -6.041891      -164.4082
  19   2.0000      -6.038647      -164.3199
  20   2.0000      -6.037805      -164.2970
  21   2.0000      -6.034981      -164.2202
  22   2.0000      -6.034173      -164.1982
  23   2.0000      -6.030847      -164.1077
  24   2.0000      -1.011908       -27.5354
  25   2.0000      -0.985948       -26.8290
  26   2.0000      -0.911983       -24.8163
  27   2.0000      -0.909043       -24.7363
  28   2.0000      -0.871629       -23.7182
  29   2.0000      -0.855524       -23.2800
  30   2.0000      -0.849109       -23.1054
  31   2.0000      -0.818639       -22.2763
  32   2.0000      -0.782120       -21.2826
  33   2.0000      -0.768846       -20.9214
  34   2.0000      -0.711433       -19.3591
  35   2.0000      -0.707284       -19.2462
  36   2.0000      -0.693372       -18.8676
  37   2.0000      -0.664682       -18.0869
  38   2.0000      -0.647879       -17.6297
  39   2.0000      -0.619581       -16.8597
  40   2.0000      -0.591360       -16.0917
  41   2.0000      -0.576594       -15.6899
  42   2.0000      -0.567987       -15.4557
  43   2.0000      -0.558875       -15.2078
  44   2.0000      -0.526968       -14.3395
  45   2.0000      -0.521229       -14.1834
  46   2.0000      -0.515753       -14.0344
  47   2.0000      -0.512056       -13.9338
  48   2.0000      -0.509329       -13.8595
  49   2.0000      -0.505654       -13.7595
  50   2.0000      -0.491415       -13.3721
  51   2.0000      -0.485867       -13.2211
  52   2.0000      -0.470764       -12.8101
  53   2.0000      -0.464169       -12.6307
  54   2.0000      -0.460487       -12.5305
  55   2.0000      -0.451780       -12.2936
  56   2.0000      -0.445451       -12.1213
  57   2.0000      -0.433404       -11.7935
  58   2.0000      -0.432889       -11.7795
  59   2.0000      -0.430582       -11.7167
  60   2.0000      -0.426841       -11.6149
  61   2.0000      -0.421043       -11.4572
  62   2.0000      -0.412131       -11.2146
  63   2.0000      -0.348824        -9.4920
  64   2.0000      -0.333304        -9.0697
  65   2.0000      -0.326848        -8.8940
  66   2.0000      -0.287317        -7.8183
  67   0.0000       0.025325         0.6891
  68   0.0000       0.065467         1.7814
  69   0.0000       0.105629         2.8743
  70   0.0000       0.125037         3.4024
  71   0.0000       0.136268         3.7080

MULLIKEN ATOMIC CHARGES
-----------------------
   0 S :    0.100046
   1 C :   -0.042751
   2 C :   -0.094368
   3 C :    0.046417
   4 C :   -0.156327
   5 H :   -0.007353
   6 C :    0.034381
   7 H :    0.014721
   8 H :    0.017346
   9 C :   -0.036543
  10 H :    0.005443
  11 H :    0.019374
  12 C :   -0.019978
  13 H :    0.024020
  14 H :    0.035321
  15 H :    0.042144
  16 S :    0.118670
  17 C :   -0.106664
  18 C :   -0.058495
  19 C :   -0.042742
  20 C :   -0.150462
  21 H :    0.025348
  22 C :    0.082531
  23 H :    0.001322
  24 H :    0.032004
  25 C :   -0.040137
  26 H :    0.033262
  27 H :    0.027213
  28 C :   -0.041638
  29 H :    0.024019
  30 H :    0.019055
  31 H :    0.021308
  32 H :    0.004075
  33 H :    0.069436
Sum of atomic charges:    0.0000000

LOEWDIN ATOMIC CHARGES
----------------------
   0 S :    0.402862
   1 C :   -0.183443
   2 C :   -0.050672
   3 C :   -0.058463
   4 C :   -0.185574
   5 H :    0.026581
   6 C :   -0.037276
   7 H :    0.023902
   8 H :    0.029702
   9 C :   -0.018959
  10 H :    0.006809
  11 H :    0.019733
  12 C :   -0.054126
  13 H :    0.021096
  14 H :    0.024714
  15 H :    0.031049
  16 S :    0.423574
  17 C :   -0.204123
  18 C :   -0.072381
  19 C :   -0.058645
  20 C :   -0.211680
  21 H :    0.035674
  22 C :   -0.028789
  23 H :    0.022990
  24 H :    0.036188
  25 C :   -0.033608
  26 H :    0.026800
  27 H :    0.023143
  28 C :   -0.069486
  29 H :    0.031121
  30 H :    0.021779
  31 H :    0.017927
  32 H :    0.001134
  33 H :    0.040447

  Mayer bond orders larger than 0.100000
B(  0-S ,  1-C ) :   1.1347 B(  0-S ,  4-C ) :   1.1455 B(  1-C ,  2-C ) :   1.6136
B(  1-C , 32-H ) :   0.9751 B(  2-C ,  3-C ) :   1.2107 B(  2-C ,  6-C ) :   1.0448
B(  3-C ,  4-C ) :   1.5875 B(  3-C ,  5-H ) :   1.0042 B(  4-C , 20-C ) :   1.0411
B(  6-C ,  7-H ) :   0.9373 B(  6-C ,  8-H ) :   0.9398 B(  6-C ,  9-C ) :   1.0519
B(  9-C , 10-H ) :   0.9600 B(  9-C , 11-H ) :   0.9566 B(  9-C , 12-C ) :   1.0829
B( 12-C , 13-H ) :   0.9753 B( 12-C , 14-H ) :   0.9767 B( 12-C , 15-H ) :   0.9746
B( 16-S , 17-C ) :   1.1575 B( 16-S , 20-C ) :   1.1540 B( 17-C , 18-C ) :   1.6088
B( 17-C , 20-C ) :   0.1050 B( 17-C , 33-H ) :   0.9570 B( 18-C , 19-C ) :   1.2585
B( 18-C , 21-H ) :   0.9883 B( 19-C , 20-C ) :   1.5662 B( 19-C , 22-C ) :   1.0525
B( 22-C , 23-H ) :   0.9343 B( 22-C , 24-H ) :   0.9224 B( 22-C , 25-C ) :   1.0579
B( 25-C , 26-H ) :   0.9491 B( 25-C , 27-H ) :   0.9582 B( 25-C , 28-C ) :   1.0936
B( 28-C , 29-H ) :   0.9709 B( 28-C , 30-H ) :   0.9722 B( 28-C , 31-H ) :   0.9753

Dispersion correction           -0.014113487
FINAL SINGLE POINT ENERGY     -1339.867890912827

DIPOLE MOMENT
-------------
                                X             Y             Z
Electronic contribution:      4.82943      -9.89480      23.62641
Nuclear contribution   :     -5.11539      10.16990     -23.99507
                        -----------------------------------------
Total Dipole Moment    :     -0.28596       0.27510      -0.36866
                        -----------------------------------------
Magnitude (a.u.)       :      0.54163
Magnitude (Debye)      :      1.37671

Rotational constants in cm-1:     0.018801     0.008128     0.006678
Rotational constants in MHz :   563.650148   243.677568   200.195989

                             ****ORCA TERMINATED NORMALLY****
TOTAL RUN TIME: 0 days 0 hours 0 minutes 32 seconds 441 msec
