                         Program Version 4.2.1 -  RELEASE  -
|  1> ! wB97X-D3 SP def2-SVP
|  2> %pal
|  3> nprocs 16
|  4> end
|  5>
|  6> * xyz 0 1
|  7> S 	 5.60713 	 -5.02928 	 97.5121
|  8> C 	 5.29465 	 -6.73649 	 97.479
|  9> C 	 6.23728 	 -7.34938 	 96.6305
| 10> C 	 7.20136 	 -6.5024 	 96.153
| 11> C 	 7.08921 	 -5.22743 	 96.5874
| 12> H 	 8.00815 	 -6.82805 	 95.4252
| 13> C 	 6.36036 	 -8.84202 	 96.3821
| 14> H 	 6.39366 	 -8.96525 	 95.3251
| 15> H 	 5.37248 	 -9.28841 	 96.5486
| 16> C 	 7.46434 	 -9.66523 	 97.0506
| 17> H 	 7.48738 	 -10.672 	 96.6277
| 18> H 	 8.4118 	 -9.18121 	 96.742
| 19> C 	 7.50913 	 -9.64907 	 98.6166
| 20> H 	 7.59084 	 -8.66749 	 99.0037
| 21> H 	 6.46811 	 -9.95982 	 98.8719
| 22> H 	 8.14895 	 -10.3355 	 99.1443
| 23> S 	 8.51268 	 -3.04192 	 97.5456
| 24> C 	 9.27572 	 -1.90018 	 96.3806
| 25> C 	 9.23165 	 -2.45463 	 95.1298
| 26> C 	 8.39558 	 -3.61816 	 95.0057
| 27> C 	 7.90635 	 -4.0504 	 96.2522
| 28> H 	 9.77388 	 -1.98568 	 94.3614
| 29> C 	 7.98964 	 -4.24252 	 93.7127
| 30> H 	 6.93825 	 -4.5251 	 93.8389
| 31> H 	 8.62585 	 -5.12746 	 93.4659
| 32> C 	 7.9611 	 -3.42976 	 92.4094
| 33> H 	 8.91666 	 -3.26046 	 91.9333
| 34> H 	 7.51388 	 -2.45596 	 92.6133
| 35> C 	 7.05983 	 -4.10884 	 91.4541
| 36> H 	 6.74891 	 -3.28433 	 90.719
| 37> H 	 6.1055 	 -4.37336 	 91.8723
| 38> H 	 7.47337 	 -4.97506 	 90.9492
| 39> H 	 4.43313 	 -7.11555 	 98.0381
| 40> H 	 9.88849 	 -1.0699 	 96.716
| 41> *
| 42>
| 43>                          ****END OF INPUT****

CARTESIAN COORDINATES (ANGSTROEM)
---------------------------------
  S      5.607130   -5.029280   97.512100
  C      5.294650   -6.736490   97.479000
  C      6.237280   -7.349380   96.630500
  C      7.201360   -6.502400   96.153000
  C      7.089210   -5.227430   96.587400
  H      8.008150   -6.828050   95.425200
  C      6.360360   -8.842020   96.382100
  H      6.393660   -8.965250   95.325100
  H      5.372480   -9.288410   96.548600
  C      7.464340   -9.665230   97.050600
  H      7.487380  -10.672000   96.627700
  H      8.411800   -9.181210   96.742000
  C      7.509130   -9.649070   98.616600
  H      7.590840   -8.667490   99.003700
  H      6.468110   -9.959820   98.871900
  H      8.148950  -10.335500   99.144300
  S      8.512680   -3.041920   97.545600
  C      9.275720   -1.900180   96.380600
  C      9.231650   -2.454630   95.129800
  C      8.395580   -3.618160   95.005700
  C      7.906350   -4.050400   96.252200
  H      9.773880   -1.985680   94.361400
  C      7.989640   -4.242520   93.712700
  H      6.938250   -4.525100   93.838900
  H      8.625850   -5.127460   93.465900
  C      7.961100   -3.429760   92.409400
  H      8.916660   -3.260460   91.933300
  H      7.513880   -2.455960   92.613300
  C      7.059830   -4.108840   91.454100
  H      6.748910   -3.284330   90.719000
  H      6.105500   -4.373360   91.872300
  H      7.473370   -4.975060   90.949200
  H      4.433130   -7.115550   98.038100
  H      9.888490   -1.069900   96.716000

 Total Charge           Charge          ....    0
 Multiplicity           Mult            ....    1
 Number of Electrons    NEL             ....  134
 Basis Dimension        Dim             ....  322

ORBITAL ENERGIES
----------------

  NO   OCC          E(Eh)            E(eV)
   0   2.0000     -88.965433     -2420.8725
   1   2.0000     -88.962488     -2420.7924
   2   2.0000     -10.327452      -281.0243
   3   2.0000     -10.327286      -281.0197
   4   2.0000     -10.319823      -280.8167
   5   2.0000     -10.319495      -280.8077
   6   2.0000     -10.304048      -280.3874
   7   2.0000     -10.299475      -280.2630
   8   2.0000     -10.292632      -280.0768
   9   2.0000     -10.291875      -280.0562
  10   2.0000     -10.291325      -280.0412
  11   2.0000     -10.290766      -280.0260
  12   2.0000     -10.288500      -279.9643
  13   2.0000     -10.281841      -279.7831
  14   2.0000     -10.276916      -279.6491
  15   2.0000     -10.274193      -279.5750
  16   2.0000      -8.080482      -219.8811
  17   2.0000      -8.076615      -219.7759
  18   2.0000      -6.038782      -164.3236
  19   2.0000      -6.035148      -164.2247
  20   2.0000      -6.034871      -164.2172
  21   2.0000      -6.031509      -164.1257
  22   2.0000      -6.031219      -164.1178
  23   2.0000      -6.027368      -164.0130
  24   2.0000      -1.008937       -27.4546
  25   2.0000      -0.983277       -26.7563
  26   2.0000      -0.916823       -24.9480
  27   2.0000      -0.907674       -24.6991
  28   2.0000      -0.867582       -23.6081
  29   2.0000      -0.854198       -23.2439
  30   2.0000      -0.847752       -23.0685
  31   2.0000      -0.816863       -22.2280
  32   2.0000      -0.782778       -21.3005
  33   2.0000      -0.766197       -20.8493
  34   2.0000      -0.706090       -19.2137
  35   2.0000      -0.699497       -19.0343
  36   2.0000      -0.694407       -18.8958
  37   2.0000      -0.653780       -17.7902
  38   2.0000      -0.642614       -17.4864
  39   2.0000      -0.626759       -17.0550
  40   2.0000      -0.599046       -16.3009
  41   2.0000      -0.582082       -15.8393
  42   2.0000      -0.566111       -15.4047
  43   2.0000      -0.547852       -14.9078
  44   2.0000      -0.538409       -14.6508
  45   2.0000      -0.526986       -14.3400
  46   2.0000      -0.517794       -14.0899
  47   2.0000      -0.515634       -14.0311
  48   2.0000      -0.500694       -13.6246
  49   2.0000      -0.493609       -13.4318
  50   2.0000      -0.488372       -13.2893
  51   2.0000      -0.482981       -13.1426
  52   2.0000      -0.470469       -12.8021
  53   2.0000      -0.463408       -12.6100
  54   2.0000      -0.457002       -12.4357
  55   2.0000      -0.448162       -12.1951
  56   2.0000      -0.446276       -12.1438
  57   2.0000      -0.441697       -12.0192
  58   2.0000      -0.433777       -11.8037
  59   2.0000      -0.420519       -11.4429
  60   2.0000      -0.419099       -11.4043
  61   2.0000      -0.413009       -11.2386
  62   2.0000      -0.401199       -10.9172
  63   2.0000      -0.347697        -9.4613
  64   2.0000      -0.335595        -9.1320
  65   2.0000      -0.326243        -8.8775
  66   2.0000      -0.292610        -7.9623
  67   0.0000       0.026731         0.7274
  68   0.0000       0.070177         1.9096
  69   0.0000       0.114631         3.1193
  70   0.0000       0.115929         3.1546
  71   0.0000       0.138829         3.7777

MULLIKEN ATOMIC CHARGES
-----------------------
   0 S :    0.109702
   1 C :   -0.140752
   2 C :   -0.083839
   3 C :    0.003816
   4 C :   -0.149932
   5 H :    0.038317
   6 C :    0.070257
   7 H :    0.015261
   8 H :    0.006928
   9 C :   -0.058000
  10 H :    0.035503
  11 H :    0.021484
  12 C :   -0.038298
  13 H :    0.037186
  14 H :    0.012136
  15 H :    0.039355
  16 S :    0.091710
  17 C :   -0.098585
  18 C :   -0.009974
  19 C :   -0.014240
  20 C :   -0.153155
  21 H :    0.004883
  22 C :    0.021107
  23 H :    0.037896
  24 H :    0.043470
  25 C :   -0.058097
  26 H :    0.029629
  27 H :    0.024379
  28 C :   -0.061546
  29 H :    0.035388
  30 H :    0.022699
  31 H :    0.037166
  32 H :    0.063568
  33 H :    0.064576
Sum of atomic charges:   -0.0000000

LOEWDIN ATOMIC CHARGES
----------------------
   0 S :    0.415353
   1 C :   -0.198989
   2 C :   -0.071206
   3 C :   -0.068936
   4 C :   -0.193003
   5 H :    0.047049
   6 C :   -0.036441
   7 H :    0.030286
   8 H :    0.026513
   9 C :   -0.038278
  10 H :    0.027249
  11 H :    0.021388
  12 C :   -0.064590
  13 H :    0.022901
  14 H :    0.025035
  15 H :    0.025554
  16 S :    0.383614
  17 C :   -0.169133
  18 C :   -0.063192
  19 C :   -0.059051
  20 C :   -0.200971
  21 H :    0.024990
  22 C :   -0.040956
  23 H :    0.038054
  24 H :    0.035997
  25 C :   -0.045372
  26 H :    0.022147
  27 H :    0.024960
  28 C :   -0.065156
  29 H :    0.037345
  30 H :    0.020389
  31 H :    0.023136
  32 H :    0.032215
  33 H :    0.031098

  Mayer bond orders larger than 0.100000
B(  0-S ,  1-C ) :   1.1634 B(  0-S ,  4-C ) :   1.1699 B(  1-C ,  2-C ) :   1.5366
B(  1-C ,  4-C ) :   0.1108 B(  1-C , 32-H ) :   0.9765 B(  2-C ,  3-C ) :   1.2873
B(  2-C ,  6-C ) :   1.0279 B(  3-C ,  4-C ) :   1.5497 B(  3-C ,  5-H ) :   0.9898
B(  4-C , 20-C ) :   1.0212 B(  6-C ,  7-H ) :   0.9293 B(  6-C ,  8-H ) :   0.9351
B(  6-C ,  9-C ) :   1.0746 B(  9-C , 10-H ) :   0.9551 B(  9-C , 11-H ) :   0.9541
B(  9-C , 12-C ) :   1.0605 B( 12-C , 13-H ) :   0.9763 B( 12-C , 14-H ) :   0.9764
B( 12-C , 15-H ) :   0.9781 B( 16-S , 17-C ) :   1.1367 B( 16-S , 20-C ) :   1.1525
B( 17-C , 18-C ) :   1.6088 B( 17-C , 33-H ) :   0.9680 B( 18-C , 19-C ) :   1.2351
B( 18-C , 21-H ) :   0.9953 B( 19-C , 20-C ) :   1.5803 B( 19-C , 22-C ) :   1.0477
B( 22-C , 23-H ) :   0.9417 B( 22-C , 24-H ) :   0.9200 B( 22-C , 25-C ) :   1.0794
B( 25-C , 26-H ) :   0.9433 B( 25-C , 27-H ) :   0.9540 B( 25-C , 28-C ) :   1.0988
B( 28-C , 29-H ) :   0.9721 B( 28-C , 30-H ) :   0.9713 B( 28-C , 31-H ) :   0.9746

Dispersion correction           -0.014114143
FINAL SINGLE POINT ENERGY     -1339.876155536606

DIPOLE MOMENT
-------------
                                X             Y             Z
Electronic contribution:     -1.20173      16.83990      16.02533
Nuclear contribution   :      1.33121     -17.14542     -16.59375
                        -----------------------------------------
Total Dipole Moment    :      0.12949      -0.30552      -0.56842
                        -----------------------------------------
Magnitude (a.u.)       :      0.65818
Magnitude (Debye)      :      1.67297

Rotational constants in cm-1:     0.018091     0.008395     0.006876
Rotational constants in MHz :   542.352226   251.664449   206.127520

                             ****ORCA TERMINATED NORMALLY****
TOTAL RUN TIME: 0 days 0 hours 0 minutes 33 seconds 638 msec
