                         Program Version 4.2.1 -  RELEASE  -
|  1> ! wB97X-D3 SP def2-SVP
|  2> %pal
|  3> nprocs 16
|  4> end
|  5>
|  6> * xyz 0 1
|  7> S 	 -43.018 	 25.923 	 78.3882
|  8> C 	 -44.3537 	 25.0067 	 79.0212
|  9> C 	 -44.0207 	 23.6788 	 79.3603
| 10> C 	 -42.6297 	 23.4593 	 79.0474
| 11> C 	 -41.9299 	 24.5424 	 78.5587
| 12> H 	 -42.1136 	 22.5045 	 79.2975
| 13> C 	 -44.9188 	 22.6763 	 80.0139
| 14> H 	 -45.5073 	 23.1831 	 80.9023
| 15> H 	 -44.4435 	 21.8366 	 80.5644
| 16> C 	 -45.9981 	 22.0498 	 79.0787
| 17> H 	 -46.6004 	 21.4291 	 79.8055
| 18> H 	 -46.655 	 22.8055 	 78.7623
| 19> C 	 -45.6252 	 21.16 	 77.8895
| 20> H 	 -45.2769 	 20.2401 	 78.2399
| 21> H 	 -46.3815 	 20.9457 	 77.1502
| 22> H 	 -44.7248 	 21.6571 	 77.5352
| 23> S 	 -39.9725 	 23.0739 	 77.3959
| 24> C 	 -38.4862 	 23.7706 	 77.084
| 25> C 	 -38.3568 	 25.1474 	 77.423
| 26> C 	 -39.5795 	 25.592 	 78.0478
| 27> C 	 -40.5584 	 24.5524 	 78.1159
| 28> H 	 -37.493 	 25.7363 	 77.114
| 29> C 	 -39.7664 	 27.111 	 78.4628
| 30> H 	 -39.0232 	 27.5375 	 79.0969
| 31> H 	 -40.7374 	 27.2639 	 78.9749
| 32> C 	 -39.8408 	 27.9384 	 77.1928
| 33> H 	 -40.4981 	 27.4873 	 76.4126
| 34> H 	 -38.863 	 28.008 	 76.8149
| 35> C 	 -40.4007 	 29.3027 	 77.5375
| 36> H 	 -41.3864 	 29.0835 	 77.8982
| 37> H 	 -40.5031 	 29.9976 	 76.7262
| 38> H 	 -39.9114 	 29.7591 	 78.4264
| 39> H 	 -45.3881 	 25.4215 	 78.988
| 40> H 	 -37.6825 	 23.1657 	 76.694
| 41> *
| 42>
| 43>                          ****END OF INPUT****

CARTESIAN COORDINATES (ANGSTROEM)
---------------------------------
  S    -43.018000   25.923000   78.388200
  C    -44.353700   25.006700   79.021200
  C    -44.020700   23.678800   79.360300
  C    -42.629700   23.459300   79.047400
  C    -41.929900   24.542400   78.558700
  H    -42.113600   22.504500   79.297500
  C    -44.918800   22.676300   80.013900
  H    -45.507300   23.183100   80.902300
  H    -44.443500   21.836600   80.564400
  C    -45.998100   22.049800   79.078700
  H    -46.600400   21.429100   79.805500
  H    -46.655000   22.805500   78.762300
  C    -45.625200   21.160000   77.889500
  H    -45.276900   20.240100   78.239900
  H    -46.381500   20.945700   77.150200
  H    -44.724800   21.657100   77.535200
  S    -39.972500   23.073900   77.395900
  C    -38.486200   23.770600   77.084000
  C    -38.356800   25.147400   77.423000
  C    -39.579500   25.592000   78.047800
  C    -40.558400   24.552400   78.115900
  H    -37.493000   25.736300   77.114000
  C    -39.766400   27.111000   78.462800
  H    -39.023200   27.537500   79.096900
  H    -40.737400   27.263900   78.974900
  C    -39.840800   27.938400   77.192800
  H    -40.498100   27.487300   76.412600
  H    -38.863000   28.008000   76.814900
  C    -40.400700   29.302700   77.537500
  H    -41.386400   29.083500   77.898200
  H    -40.503100   29.997600   76.726200
  H    -39.911400   29.759100   78.426400
  H    -45.388100   25.421500   78.988000
  H    -37.682500   23.165700   76.694000

 Total Charge           Charge          ....    0
 Multiplicity           Mult            ....    1
 Number of Electrons    NEL             ....  134
 Basis Dimension        Dim             ....  322

ORBITAL ENERGIES
----------------

  NO   OCC          E(Eh)            E(eV)
   0   2.0000     -88.971073     -2421.0260
   1   2.0000     -88.970599     -2421.0131
   2   2.0000     -10.330527      -281.1079
   3   2.0000     -10.328366      -281.0491
   4   2.0000     -10.319362      -280.8041
   5   2.0000     -10.315518      -280.6995
   6   2.0000     -10.314974      -280.6847
   7   2.0000     -10.307527      -280.4821
   8   2.0000     -10.306420      -280.4520
   9   2.0000     -10.300775      -280.2983
  10   2.0000     -10.296570      -280.1839
  11   2.0000     -10.293680      -280.1053
  12   2.0000     -10.284941      -279.8675
  13   2.0000     -10.278481      -279.6917
  14   2.0000     -10.271452      -279.5004
  15   2.0000     -10.268791      -279.4280
  16   2.0000      -8.087000      -220.0585
  17   2.0000      -8.084610      -219.9934
  18   2.0000      -6.045164      -164.4973
  19   2.0000      -6.043132      -164.4420
  20   2.0000      -6.041316      -164.3926
  21   2.0000      -6.039196      -164.3349
  22   2.0000      -6.038092      -164.3048
  23   2.0000      -6.035454      -164.2330
  24   2.0000      -1.007571       -27.4174
  25   2.0000      -0.983745       -26.7691
  26   2.0000      -0.915525       -24.9127
  27   2.0000      -0.907975       -24.7073
  28   2.0000      -0.867707       -23.6115
  29   2.0000      -0.854232       -23.2448
  30   2.0000      -0.846132       -23.0244
  31   2.0000      -0.807202       -21.9651
  32   2.0000      -0.783714       -21.3259
  33   2.0000      -0.770297       -20.9608
  34   2.0000      -0.701524       -19.0894
  35   2.0000      -0.697633       -18.9836
  36   2.0000      -0.691144       -18.8070
  37   2.0000      -0.663718       -18.0607
  38   2.0000      -0.633229       -17.2310
  39   2.0000      -0.614669       -16.7260
  40   2.0000      -0.600760       -16.3475
  41   2.0000      -0.573459       -15.6046
  42   2.0000      -0.572312       -15.5734
  43   2.0000      -0.549440       -14.9510
  44   2.0000      -0.534273       -14.5383
  45   2.0000      -0.523261       -14.2387
  46   2.0000      -0.514788       -14.0081
  47   2.0000      -0.509914       -13.8755
  48   2.0000      -0.505082       -13.7440
  49   2.0000      -0.494456       -13.4548
  50   2.0000      -0.488178       -13.2840
  51   2.0000      -0.475804       -12.9473
  52   2.0000      -0.473595       -12.8872
  53   2.0000      -0.466907       -12.7052
  54   2.0000      -0.460477       -12.5302
  55   2.0000      -0.452893       -12.3239
  56   2.0000      -0.445935       -12.1345
  57   2.0000      -0.440901       -11.9975
  58   2.0000      -0.433003       -11.7826
  59   2.0000      -0.422964       -11.5094
  60   2.0000      -0.420218       -11.4347
  61   2.0000      -0.415242       -11.2993
  62   2.0000      -0.404238       -10.9999
  63   2.0000      -0.355008        -9.6602
  64   2.0000      -0.334332        -9.0976
  65   2.0000      -0.331445        -9.0191
  66   2.0000      -0.278908        -7.5895
  67   0.0000       0.022623         0.6156
  68   0.0000       0.074285         2.0214
  69   0.0000       0.102729         2.7954
  70   0.0000       0.110332         3.0023
  71   0.0000       0.129345         3.5197

MULLIKEN ATOMIC CHARGES
-----------------------
   0 S :    0.108379
   1 C :   -0.140212
   2 C :   -0.048748
   3 C :   -0.030795
   4 C :   -0.112647
   5 H :    0.028395
   6 C :   -0.010687
   7 H :    0.054555
   8 H :    0.034812
   9 C :   -0.093502
  10 H :    0.022530
  11 H :    0.016945
  12 C :    0.007446
  13 H :    0.004174
  14 H :    0.044739
  15 H :    0.025820
  16 S :    0.134636
  17 C :   -0.102739
  18 C :   -0.040134
  19 C :   -0.040612
  20 C :   -0.146387
  21 H :    0.032311
  22 C :    0.047355
  23 H :    0.030562
  24 H :    0.017924
  25 C :   -0.077043
  26 H :    0.043724
  27 H :    0.016737
  28 C :   -0.028289
  29 H :    0.013771
  30 H :    0.035586
  31 H :    0.025653
  32 H :    0.067879
  33 H :    0.057858
Sum of atomic charges:    0.0000000

LOEWDIN ATOMIC CHARGES
----------------------
   0 S :    0.415738
   1 C :   -0.205748
   2 C :   -0.068067
   3 C :   -0.080280
   4 C :   -0.189891
   5 H :    0.033121
   6 C :   -0.043682
   7 H :    0.050670
   8 H :    0.033172
   9 C :   -0.040715
  10 H :    0.024085
  11 H :    0.012349
  12 C :   -0.062316
  13 H :    0.015624
  14 H :    0.030303
  15 H :    0.029952
  16 S :    0.461248
  17 C :   -0.209276
  18 C :   -0.074538
  19 C :   -0.043326
  20 C :   -0.210504
  21 H :    0.035427
  22 C :   -0.027410
  23 H :    0.027755
  24 H :    0.017507
  25 C :   -0.038897
  26 H :    0.030985
  27 H :    0.011679
  28 C :   -0.064436
  29 H :    0.021138
  30 H :    0.022391
  31 H :    0.027016
  32 H :    0.034678
  33 H :    0.024251

  Mayer bond orders larger than 0.100000
B(  0-S ,  1-C ) :   1.1545 B(  0-S ,  4-C ) :   1.1343 B(  1-C ,  2-C ) :   1.5862
B(  1-C , 32-H ) :   0.9598 B(  2-C ,  3-C ) :   1.2568 B(  2-C ,  6-C ) :   1.0183
B(  3-C ,  4-C ) :   1.5531 B(  3-C ,  5-H ) :   0.9818 B(  4-C , 20-C ) :   1.0924
B(  6-C ,  7-H ) :   0.9429 B(  6-C ,  8-H ) :   0.9510 B(  6-C ,  9-C ) :   1.0690
B(  9-C , 10-H ) :   0.9563 B(  9-C , 11-H ) :   0.9617 B(  9-C , 12-C ) :   1.0648
B( 12-C , 13-H ) :   0.9710 B( 12-C , 14-H ) :   0.9749 B( 12-C , 15-H ) :   0.9744
B( 16-S , 17-C ) :   1.2073 B( 16-S , 20-C ) :   1.1565 B( 17-C , 18-C ) :   1.5500
B( 17-C , 33-H ) :   0.9673 B( 18-C , 19-C ) :   1.2722 B( 18-C , 21-H ) :   0.9917
B( 19-C , 20-C ) :   1.5336 B( 19-C , 22-C ) :   1.0296 B( 22-C , 23-H ) :   0.9393
B( 22-C , 24-H ) :   0.9437 B( 22-C , 25-C ) :   1.0510 B( 25-C , 26-H ) :   0.9571
B( 25-C , 27-H ) :   0.9536 B( 25-C , 28-C ) :   1.0850 B( 28-C , 29-H ) :   0.9725
B( 28-C , 30-H ) :   0.9733 B( 28-C , 31-H ) :   0.9686

Dispersion correction           -0.014261304
FINAL SINGLE POINT ENERGY     -1339.873048233224

DIPOLE MOMENT
-------------
                                X             Y             Z
Electronic contribution:      9.67739      -3.78700      -1.25638
Nuclear contribution   :     -9.70113       3.74212       1.27315
                        -----------------------------------------
Total Dipole Moment    :     -0.02373      -0.04488       0.01677
                        -----------------------------------------
Magnitude (a.u.)       :      0.05347
Magnitude (Debye)      :      0.13591

Rotational constants in cm-1:     0.021980     0.008196     0.006325
Rotational constants in MHz :   658.941322   245.697144   189.620418

                             ****ORCA TERMINATED NORMALLY****
TOTAL RUN TIME: 0 days 0 hours 0 minutes 27 seconds 753 msec
