                         Program Version 4.2.1 -  RELEASE  -
|  1> ! wB97X-D3 SP def2-SVP
|  2> %pal
|  3> nprocs 16
|  4> end
|  5>
|  6> * xyz 0 1
|  7> S 	 -48.2467 	 -1.71988 	 97.5211
|  8> C 	 -49.2107 	 -2.9161 	 96.6003
|  9> C 	 -49.7073 	 -2.31592 	 95.4077
| 10> C 	 -49.4117 	 -0.916475 	 95.3521
| 11> C 	 -48.6738 	 -0.435201 	 96.3856
| 12> H 	 -49.5576 	 -0.278963 	 94.4777
| 13> C 	 -50.547 	 -3.15425 	 94.4063
| 14> H 	 -49.8499 	 -3.83571 	 93.968
| 15> H 	 -50.891 	 -2.59831 	 93.5622
| 16> C 	 -51.8416 	 -3.93684 	 94.9545
| 17> H 	 -52.4237 	 -4.40543 	 94.1158
| 18> H 	 -51.5111 	 -4.74264 	 95.5883
| 19> C 	 -52.9631 	 -3.1735 	 95.764
| 20> H 	 -52.4897 	 -2.54972 	 96.5474
| 21> H 	 -53.5539 	 -2.5606 	 95.0188
| 22> H 	 -53.5332 	 -3.91133 	 96.3498
| 23> S 	 -49.5117 	 2.06801 	 97.1114
| 24> C 	 -48.3786 	 3.25997 	 97.1026
| 25> C 	 -47.0985 	 2.90078 	 96.761
| 26> C 	 -46.9636 	 1.51005 	 96.5584
| 27> C 	 -48.2436 	 0.950237 	 96.6239
| 28> H 	 -46.4017 	 3.70951 	 96.7076
| 29> C 	 -45.7428 	 0.859082 	 96.0901
| 30> H 	 -46.0099 	 0.0304791 	 95.3795
| 31> H 	 -45.3292 	 0.438572 	 97.0235
| 32> C 	 -44.6741 	 1.63943 	 95.3477
| 33> H 	 -44.1154 	 2.20987 	 96.1269
| 34> H 	 -45.0817 	 2.30972 	 94.5216
| 35> C 	 -43.6754 	 0.559752 	 94.8138
| 36> H 	 -43.3231 	 -0.0996777 	 95.6337
| 37> H 	 -42.7675 	 0.994345 	 94.2487
| 38> H 	 -44.1177 	 -0.0311748 	 94.0092
| 39> H 	 -49.4489 	 -3.91255 	 96.9418
| 40> H 	 -48.5908 	 4.26483 	 97.2513
| 41> *
| 42>
| 43>                          ****END OF INPUT****

CARTESIAN COORDINATES (ANGSTROEM)
---------------------------------
  S    -48.246700   -1.719880   97.521100
  C    -49.210700   -2.916100   96.600300
  C    -49.707300   -2.315920   95.407700
  C    -49.411700   -0.916475   95.352100
  C    -48.673800   -0.435201   96.385600
  H    -49.557600   -0.278963   94.477700
  C    -50.547000   -3.154250   94.406300
  H    -49.849900   -3.835710   93.968000
  H    -50.891000   -2.598310   93.562200
  C    -51.841600   -3.936840   94.954500
  H    -52.423700   -4.405430   94.115800
  H    -51.511100   -4.742640   95.588300
  C    -52.963100   -3.173500   95.764000
  H    -52.489700   -2.549720   96.547400
  H    -53.553900   -2.560600   95.018800
  H    -53.533200   -3.911330   96.349800
  S    -49.511700    2.068010   97.111400
  C    -48.378600    3.259970   97.102600
  C    -47.098500    2.900780   96.761000
  C    -46.963600    1.510050   96.558400
  C    -48.243600    0.950237   96.623900
  H    -46.401700    3.709510   96.707600
  C    -45.742800    0.859082   96.090100
  H    -46.009900    0.030479   95.379500
  H    -45.329200    0.438572   97.023500
  C    -44.674100    1.639430   95.347700
  H    -44.115400    2.209870   96.126900
  H    -45.081700    2.309720   94.521600
  C    -43.675400    0.559752   94.813800
  H    -43.323100   -0.099678   95.633700
  H    -42.767500    0.994345   94.248700
  H    -44.117700   -0.031175   94.009200
  H    -49.448900   -3.912550   96.941800
  H    -48.590800    4.264830   97.251300

 Total Charge           Charge          ....    0
 Multiplicity           Mult            ....    1
 Number of Electrons    NEL             ....  134
 Basis Dimension        Dim             ....  322

ORBITAL ENERGIES
----------------

  NO   OCC          E(Eh)            E(eV)
   0   2.0000     -88.966941     -2420.9135
   1   2.0000     -88.963106     -2420.8092
   2   2.0000     -10.324710      -280.9496
   3   2.0000     -10.320153      -280.8256
   4   2.0000     -10.318231      -280.7733
   5   2.0000     -10.308504      -280.5087
   6   2.0000     -10.300776      -280.2984
   7   2.0000     -10.298817      -280.2451
   8   2.0000     -10.298196      -280.2282
   9   2.0000     -10.295227      -280.1474
  10   2.0000     -10.294611      -280.1306
  11   2.0000     -10.292031      -280.0604
  12   2.0000     -10.290358      -280.0149
  13   2.0000     -10.288418      -279.9621
  14   2.0000     -10.284377      -279.8521
  15   2.0000     -10.283710      -279.8340
  16   2.0000      -8.083598      -219.9659
  17   2.0000      -8.076842      -219.7820
  18   2.0000      -6.041625      -164.4010
  19   2.0000      -6.037932      -164.3005
  20   2.0000      -6.035430      -164.2324
  21   2.0000      -6.034662      -164.2115
  22   2.0000      -6.031397      -164.1227
  23   2.0000      -6.027678      -164.0215
  24   2.0000      -1.011237       -27.5172
  25   2.0000      -0.980041       -26.6683
  26   2.0000      -0.918521       -24.9942
  27   2.0000      -0.894171       -24.3316
  28   2.0000      -0.860351       -23.4113
  29   2.0000      -0.856521       -23.3071
  30   2.0000      -0.839774       -22.8514
  31   2.0000      -0.811458       -22.0809
  32   2.0000      -0.782281       -21.2869
  33   2.0000      -0.767213       -20.8769
  34   2.0000      -0.703525       -19.1439
  35   2.0000      -0.694512       -18.8986
  36   2.0000      -0.693242       -18.8641
  37   2.0000      -0.651347       -17.7241
  38   2.0000      -0.636148       -17.3105
  39   2.0000      -0.612606       -16.6699
  40   2.0000      -0.599419       -16.3110
  41   2.0000      -0.577742       -15.7212
  42   2.0000      -0.568826       -15.4785
  43   2.0000      -0.544020       -14.8035
  44   2.0000      -0.531313       -14.4578
  45   2.0000      -0.523357       -14.2413
  46   2.0000      -0.516863       -14.0646
  47   2.0000      -0.514359       -13.9964
  48   2.0000      -0.500173       -13.6104
  49   2.0000      -0.488948       -13.3050
  50   2.0000      -0.479557       -13.0494
  51   2.0000      -0.472066       -12.8456
  52   2.0000      -0.464939       -12.6516
  53   2.0000      -0.461401       -12.5554
  54   2.0000      -0.460568       -12.5327
  55   2.0000      -0.448059       -12.1923
  56   2.0000      -0.442790       -12.0489
  57   2.0000      -0.436837       -11.8869
  58   2.0000      -0.433816       -11.8047
  59   2.0000      -0.428329       -11.6554
  60   2.0000      -0.416757       -11.3405
  61   2.0000      -0.415239       -11.2992
  62   2.0000      -0.412147       -11.2151
  63   2.0000      -0.337095        -9.1728
  64   2.0000      -0.331236        -9.0134
  65   2.0000      -0.323455        -8.8017
  66   2.0000      -0.296509        -8.0684
  67   0.0000       0.040659         1.1064
  68   0.0000       0.061847         1.6829
  69   0.0000       0.110516         3.0073
  70   0.0000       0.120608         3.2819
  71   0.0000       0.131261         3.5718

MULLIKEN ATOMIC CHARGES
-----------------------
   0 S :    0.104478
   1 C :   -0.137188
   2 C :   -0.096720
   3 C :    0.035874
   4 C :   -0.170253
   5 H :    0.019597
   6 C :    0.103253
   7 H :    0.035877
   8 H :    0.009829
   9 C :   -0.118890
  10 H :    0.039085
  11 H :    0.023433
  12 C :   -0.075913
  13 H :    0.044301
  14 H :    0.049746
  15 H :    0.040085
  16 S :    0.154221
  17 C :   -0.047682
  18 C :   -0.065926
  19 C :    0.042942
  20 C :   -0.218370
  21 H :    0.002892
  22 C :    0.017807
  23 H :    0.043575
  24 H :    0.044463
  25 C :   -0.081874
  26 H :    0.038188
  27 H :    0.056554
  28 C :   -0.086071
  29 H :    0.044986
  30 H :    0.040585
  31 H :    0.036875
  32 H :    0.052055
  33 H :    0.018183
Sum of atomic charges:    0.0000000

LOEWDIN ATOMIC CHARGES
----------------------
   0 S :    0.381525
   1 C :   -0.188057
   2 C :   -0.058448
   3 C :   -0.072141
   4 C :   -0.192845
   5 H :    0.036611
   6 C :   -0.030103
   7 H :    0.033790
   8 H :    0.023754
   9 C :   -0.044308
  10 H :    0.029996
  11 H :    0.014049
  12 C :   -0.073609
  13 H :    0.027693
  14 H :    0.031142
  15 H :    0.029823
  16 S :    0.460374
  17 C :   -0.207362
  18 C :   -0.075482
  19 C :   -0.048358
  20 C :   -0.209932
  21 H :    0.027356
  22 C :   -0.045860
  23 H :    0.039979
  24 H :    0.043542
  25 C :   -0.045729
  26 H :    0.027929
  27 H :    0.035037
  28 C :   -0.074404
  29 H :    0.030554
  30 H :    0.032105
  31 H :    0.023158
  32 H :    0.025311
  33 H :    0.012910

  Mayer bond orders larger than 0.100000
B(  0-S ,  1-C ) :   1.1402 B(  0-S ,  4-C ) :   1.1368 B(  1-C ,  2-C ) :   1.5893
B(  1-C ,  4-C ) :   0.1015 B(  1-C , 32-H ) :   0.9749 B(  2-C ,  3-C ) :   1.2416
B(  2-C ,  6-C ) :   1.0091 B(  3-C ,  4-C ) :   1.6062 B(  3-C ,  5-H ) :   0.9891
B(  4-C , 20-C ) :   1.0103 B(  6-C ,  7-H ) :   0.9395 B(  6-C ,  8-H ) :   0.9485
B(  6-C ,  9-C ) :   1.0550 B(  9-C , 10-H ) :   0.9614 B(  9-C , 11-H ) :   0.9623
B(  9-C , 12-C ) :   1.0689 B( 12-C , 13-H ) :   0.9749 B( 12-C , 14-H ) :   0.9792
B( 12-C , 15-H ) :   0.9744 B( 16-S , 17-C ) :   1.1878 B( 16-S , 20-C ) :   1.1672
B( 17-C , 18-C ) :   1.6046 B( 17-C , 33-H ) :   0.9649 B( 18-C , 19-C ) :   1.2362
B( 18-C , 21-H ) :   0.9972 B( 19-C , 20-C ) :   1.5688 B( 19-C , 22-C ) :   1.0385
B( 22-C , 23-H ) :   0.9436 B( 22-C , 24-H ) :   0.9030 B( 22-C , 25-C ) :   1.0823
B( 25-C , 26-H ) :   0.9416 B( 25-C , 27-H ) :   0.9572 B( 25-C , 28-C ) :   1.0759
B( 28-C , 29-H ) :   0.9716 B( 28-C , 30-H ) :   0.9735 B( 28-C , 31-H ) :   0.9757

Dispersion correction           -0.014039469
FINAL SINGLE POINT ENERGY     -1339.864617459138

DIPOLE MOMENT
-------------
                                X             Y             Z
Electronic contribution:     -3.50236       9.62445      13.01636
Nuclear contribution   :      3.63321      -9.61710     -13.43347
                        -----------------------------------------
Total Dipole Moment    :      0.13085       0.00735      -0.41711
                        -----------------------------------------
Magnitude (a.u.)       :      0.43721
Magnitude (Debye)      :      1.11131

Rotational constants in cm-1:     0.021082     0.007552     0.006294
Rotational constants in MHz :   632.008443   226.408453   188.683884

                             ****ORCA TERMINATED NORMALLY****
TOTAL RUN TIME: 0 days 0 hours 0 minutes 27 seconds 78 msec
