                         Program Version 4.2.1 -  RELEASE  -
|  1> ! wB97X-D3 SP def2-SVP
|  2> %pal
|  3> nprocs 16
|  4> end
|  5>
|  6> * xyz 0 1
|  7> S 	 -2.92099 	 -21.1338 	 85.1488
|  8> C 	 -1.36997 	 -21.1455 	 84.3259
|  9> C 	 -0.560775 	 -20.1629 	 84.8254
| 10> C 	 -1.1674 	 -19.2334 	 85.7505
| 11> C 	 -2.46913 	 -19.6174 	 85.9653
| 12> H 	 -0.677038 	 -18.3843 	 86.2093
| 13> C 	 0.953258 	 -20.0925 	 84.5184
| 14> H 	 1.36751 	 -19.1744 	 84.9862
| 15> H 	 1.19813 	 -20.0743 	 83.403
| 16> C 	 1.75902 	 -21.2392 	 85.2479
| 17> H 	 1.20983 	 -21.6246 	 86.0564
| 18> H 	 1.78646 	 -22.0326 	 84.5252
| 19> C 	 3.15341 	 -20.8106 	 85.6055
| 20> H 	 3.83377 	 -21.4671 	 86.2054
| 21> H 	 3.63987 	 -20.5762 	 84.6791
| 22> H 	 3.09171 	 -19.9036 	 86.2112
| 23> S 	 -3.65538 	 -20.3361 	 88.3075
| 24> C 	 -4.52823 	 -19.2427 	 89.3799
| 25> C 	 -4.45488 	 -17.9781 	 88.7973
| 26> C 	 -3.71639 	 -17.8991 	 87.5206
| 27> C 	 -3.19632 	 -19.1541 	 87.122
| 28> H 	 -5.00869 	 -17.1797 	 89.2634
| 29> C 	 -3.75728 	 -16.591 	 86.7018
| 30> H 	 -3.0798 	 -16.73 	 85.8487
| 31> H 	 -3.31812 	 -15.7114 	 87.281
| 32> C 	 -5.05423 	 -16.1103 	 86.1571
| 33> H 	 -5.65646 	 -15.8504 	 87.0257
| 34> H 	 -5.4632 	 -16.785 	 85.4373
| 35> C 	 -4.73533 	 -14.8467 	 85.3302
| 36> H 	 -4.67027 	 -14.0162 	 85.9857
| 37> H 	 -5.5401 	 -14.5513 	 84.6606
| 38> H 	 -3.76207 	 -14.9151 	 84.8084
| 39> H 	 -1.09051 	 -21.938 	 83.6574
| 40> H 	 -5.02125 	 -19.524 	 90.2867
| 41> *
| 42>
| 43>                          ****END OF INPUT****

CARTESIAN COORDINATES (ANGSTROEM)
---------------------------------
  S     -2.920990  -21.133800   85.148800
  C     -1.369970  -21.145500   84.325900
  C     -0.560775  -20.162900   84.825400
  C     -1.167400  -19.233400   85.750500
  C     -2.469130  -19.617400   85.965300
  H     -0.677038  -18.384300   86.209300
  C      0.953258  -20.092500   84.518400
  H      1.367510  -19.174400   84.986200
  H      1.198130  -20.074300   83.403000
  C      1.759020  -21.239200   85.247900
  H      1.209830  -21.624600   86.056400
  H      1.786460  -22.032600   84.525200
  C      3.153410  -20.810600   85.605500
  H      3.833770  -21.467100   86.205400
  H      3.639870  -20.576200   84.679100
  H      3.091710  -19.903600   86.211200
  S     -3.655380  -20.336100   88.307500
  C     -4.528230  -19.242700   89.379900
  C     -4.454880  -17.978100   88.797300
  C     -3.716390  -17.899100   87.520600
  C     -3.196320  -19.154100   87.122000
  H     -5.008690  -17.179700   89.263400
  C     -3.757280  -16.591000   86.701800
  H     -3.079800  -16.730000   85.848700
  H     -3.318120  -15.711400   87.281000
  C     -5.054230  -16.110300   86.157100
  H     -5.656460  -15.850400   87.025700
  H     -5.463200  -16.785000   85.437300
  C     -4.735330  -14.846700   85.330200
  H     -4.670270  -14.016200   85.985700
  H     -5.540100  -14.551300   84.660600
  H     -3.762070  -14.915100   84.808400
  H     -1.090510  -21.938000   83.657400
  H     -5.021250  -19.524000   90.286700

 Total Charge           Charge          ....    0
 Multiplicity           Mult            ....    1
 Number of Electrons    NEL             ....  134
 Basis Dimension        Dim             ....  322

ORBITAL ENERGIES
----------------

  NO   OCC          E(Eh)            E(eV)
   0   2.0000     -88.970372     -2421.0069
   1   2.0000     -88.960223     -2420.7307
   2   2.0000     -10.333554      -281.1903
   3   2.0000     -10.329856      -281.0897
   4   2.0000     -10.318119      -280.7703
   5   2.0000     -10.315608      -280.7020
   6   2.0000     -10.309038      -280.5232
   7   2.0000     -10.305755      -280.4338
   8   2.0000     -10.301854      -280.3277
   9   2.0000     -10.301604      -280.3209
  10   2.0000     -10.296950      -280.1943
  11   2.0000     -10.292203      -280.0651
  12   2.0000     -10.279411      -279.7170
  13   2.0000     -10.279277      -279.7133
  14   2.0000     -10.278052      -279.6800
  15   2.0000     -10.272831      -279.5380
  16   2.0000      -8.084589      -219.9928
  17   2.0000      -8.075077      -219.7340
  18   2.0000      -6.043179      -164.4433
  19   2.0000      -6.039276      -164.3371
  20   2.0000      -6.035164      -164.2252
  21   2.0000      -6.033711      -164.1856
  22   2.0000      -6.029307      -164.0658
  23   2.0000      -6.025919      -163.9736
  24   2.0000      -1.006439       -27.3866
  25   2.0000      -0.978779       -26.6339
  26   2.0000      -0.914066       -24.8730
  27   2.0000      -0.908488       -24.7212
  28   2.0000      -0.873584       -23.7714
  29   2.0000      -0.852908       -23.2088
  30   2.0000      -0.839168       -22.8349
  31   2.0000      -0.815037       -22.1783
  32   2.0000      -0.773378       -21.0447
  33   2.0000      -0.765703       -20.8358
  34   2.0000      -0.707328       -19.2474
  35   2.0000      -0.701577       -19.0909
  36   2.0000      -0.692988       -18.8572
  37   2.0000      -0.659384       -17.9428
  38   2.0000      -0.645404       -17.5623
  39   2.0000      -0.618087       -16.8190
  40   2.0000      -0.595323       -16.1996
  41   2.0000      -0.577095       -15.7035
  42   2.0000      -0.565913       -15.3993
  43   2.0000      -0.565368       -15.3845
  44   2.0000      -0.528210       -14.3733
  45   2.0000      -0.522845       -14.2273
  46   2.0000      -0.516903       -14.0657
  47   2.0000      -0.515152       -14.0180
  48   2.0000      -0.502564       -13.6755
  49   2.0000      -0.498813       -13.5734
  50   2.0000      -0.496659       -13.5148
  51   2.0000      -0.471271       -12.8239
  52   2.0000      -0.468771       -12.7559
  53   2.0000      -0.462331       -12.5807
  54   2.0000      -0.456697       -12.4274
  55   2.0000      -0.454881       -12.3779
  56   2.0000      -0.440510       -11.9869
  57   2.0000      -0.432019       -11.7558
  58   2.0000      -0.429831       -11.6963
  59   2.0000      -0.424043       -11.5388
  60   2.0000      -0.422577       -11.4989
  61   2.0000      -0.413211       -11.2441
  62   2.0000      -0.407235       -11.0814
  63   2.0000      -0.353043        -9.6068
  64   2.0000      -0.330098        -8.9824
  65   2.0000      -0.323214        -8.7951
  66   2.0000      -0.294087        -8.0025
  67   0.0000       0.028463         0.7745
  68   0.0000       0.065283         1.7764
  69   0.0000       0.110954         3.0192
  70   0.0000       0.121687         3.3113
  71   0.0000       0.125139         3.4052

MULLIKEN ATOMIC CHARGES
-----------------------
   0 S :    0.104980
   1 C :   -0.110638
   2 C :   -0.085693
   3 C :    0.045434
   4 C :   -0.133403
   5 H :    0.033074
   6 C :    0.001596
   7 H :    0.015209
   8 H :    0.055368
   9 C :   -0.026500
  10 H :    0.027558
  11 H :    0.016579
  12 C :   -0.067537
  13 H :    0.044357
  14 H :    0.026870
  15 H :    0.028047
  16 S :    0.086443
  17 C :   -0.098058
  18 C :   -0.031486
  19 C :   -0.018942
  20 C :   -0.145680
  21 H :    0.019382
  22 C :   -0.015902
  23 H :    0.013494
  24 H :    0.034650
  25 C :   -0.023661
  26 H :    0.031545
  27 H :    0.034464
  28 C :   -0.051149
  29 H :    0.012187
  30 H :    0.032619
  31 H :    0.034729
  32 H :    0.050809
  33 H :    0.059258
Sum of atomic charges:   -0.0000000

LOEWDIN ATOMIC CHARGES
----------------------
   0 S :    0.394451
   1 C :   -0.189870
   2 C :   -0.061819
   3 C :   -0.044526
   4 C :   -0.184682
   5 H :    0.039536
   6 C :   -0.033254
   7 H :    0.024439
   8 H :    0.038406
   9 C :   -0.037017
  10 H :    0.017725
  11 H :    0.018969
  12 C :   -0.069233
  13 H :    0.032399
  14 H :    0.023437
  15 H :    0.023358
  16 S :    0.402507
  17 C :   -0.186249
  18 C :   -0.070028
  19 C :   -0.064733
  20 C :   -0.199691
  21 H :    0.026571
  22 C :   -0.043073
  23 H :    0.024456
  24 H :    0.035721
  25 C :   -0.034710
  26 H :    0.025728
  27 H :    0.025088
  28 C :   -0.063427
  29 H :    0.017446
  30 H :    0.025657
  31 H :    0.028553
  32 H :    0.028018
  33 H :    0.029844

  Mayer bond orders larger than 0.100000
B(  0-S ,  1-C ) :   1.1171 B(  0-S ,  4-C ) :   1.1496 B(  1-C ,  2-C ) :   1.6236
B(  1-C , 32-H ) :   0.9772 B(  2-C ,  3-C ) :   1.2331 B(  2-C ,  6-C ) :   1.0255
B(  3-C ,  4-C ) :   1.5618 B(  3-C ,  5-H ) :   0.9941 B(  4-C , 20-C ) :   1.0414
B(  6-C ,  7-H ) :   0.9537 B(  6-C ,  8-H ) :   0.9451 B(  6-C ,  9-C ) :   1.0332
B(  9-C , 10-H ) :   0.9639 B(  9-C , 11-H ) :   0.9525 B(  9-C , 12-C ) :   1.0829
B( 12-C , 13-H ) :   0.9746 B( 12-C , 14-H ) :   0.9744 B( 12-C , 15-H ) :   0.9754
B( 16-S , 17-C ) :   1.1451 B( 16-S , 20-C ) :   1.1502 B( 17-C , 18-C ) :   1.5980
B( 17-C , 33-H ) :   0.9757 B( 18-C , 19-C ) :   1.2366 B( 18-C , 21-H ) :   0.9906
B( 19-C , 20-C ) :   1.5778 B( 19-C , 22-C ) :   1.0386 B( 22-C , 23-H ) :   0.9336
B( 22-C , 24-H ) :   0.9414 B( 22-C , 25-C ) :   1.0836 B( 25-C , 26-H ) :   0.9514
B( 25-C , 27-H ) :   0.9540 B( 25-C , 28-C ) :   1.0761 B( 28-C , 29-H ) :   0.9729
B( 28-C , 30-H ) :   0.9741 B( 28-C , 31-H ) :   0.9735

Dispersion correction           -0.013292718
FINAL SINGLE POINT ENERGY     -1339.866882565507

DIPOLE MOMENT
-------------
                                X             Y             Z
Electronic contribution:    -13.90926     -15.80896       7.03158
Nuclear contribution   :     14.24366      16.12572      -7.08042
                        -----------------------------------------
Total Dipole Moment    :      0.33440       0.31676      -0.04884
                        -----------------------------------------
Magnitude (a.u.)       :      0.46320
Magnitude (Debye)      :      1.17735

Rotational constants in cm-1:     0.019102     0.007418     0.006527
Rotational constants in MHz :   572.656909   222.386297   195.660141

                             ****ORCA TERMINATED NORMALLY****
TOTAL RUN TIME: 0 days 0 hours 0 minutes 30 seconds 284 msec
