                         Program Version 4.2.1 -  RELEASE  -
|  1> ! wB97X-D3 SP def2-SVP
|  2> %pal
|  3> nprocs 16
|  4> end
|  5>
|  6> * xyz 0 1
|  7> S 	 -38.7396 	 48.756 	 106.637
|  8> C 	 -37.5348 	 47.9837 	 105.674
|  9> C 	 -37.5614 	 48.2915 	 104.326
| 10> C 	 -38.7793 	 48.9988 	 104.043
| 11> C 	 -39.4971 	 49.3229 	 105.172
| 12> H 	 -39.0861 	 49.5153 	 103.179
| 13> C 	 -36.5853 	 47.8771 	 103.22
| 14> H 	 -35.6483 	 48.4806 	 103.275
| 15> H 	 -36.9191 	 48.1393 	 102.187
| 16> C 	 -36.1377 	 46.4153 	 103.31
| 17> H 	 -35.3175 	 46.1174 	 102.668
| 18> H 	 -35.8028 	 46.2614 	 104.38
| 19> C 	 -37.3113 	 45.4449 	 103.024
| 20> H 	 -37.6971 	 45.512 	 102.016
| 21> H 	 -37.0645 	 44.3481 	 103.01
| 22> H 	 -38.1473 	 45.6239 	 103.712
| 23> S 	 -41.0344 	 51.1682 	 106.581
| 24> C 	 -42.7338 	 51.2838 	 106.167
| 25> C 	 -42.9547 	 50.9624 	 104.894
| 26> C 	 -41.8266 	 50.1872 	 104.331
| 27> C 	 -40.7268 	 50.1793 	 105.224
| 28> H 	 -43.8906 	 51.0978 	 104.414
| 29> C 	 -41.8817 	 49.476 	 103.011
| 30> H 	 -41.2153 	 48.6016 	 103.12
| 31> H 	 -41.369 	 50.0375 	 102.214
| 32> C 	 -43.3189 	 49.0631 	 102.552
| 33> H 	 -43.9419 	 49.9602 	 102.344
| 34> H 	 -43.7367 	 48.5983 	 103.491
| 35> C 	 -43.1893 	 48.2576 	 101.288
| 36> H 	 -44.1928 	 48.0178 	 100.85
| 37> H 	 -42.5747 	 47.3652 	 101.48
| 38> H 	 -42.6987 	 48.7798 	 100.473
| 39> H 	 -36.9263 	 47.2134 	 106.041
| 40> H 	 -43.4791 	 51.6167 	 106.89
| 41> *
| 42>
| 43>                          ****END OF INPUT****

CARTESIAN COORDINATES (ANGSTROEM)
---------------------------------
  S    -38.739600   48.756000  106.637000
  C    -37.534800   47.983700  105.674000
  C    -37.561400   48.291500  104.326000
  C    -38.779300   48.998800  104.043000
  C    -39.497100   49.322900  105.172000
  H    -39.086100   49.515300  103.179000
  C    -36.585300   47.877100  103.220000
  H    -35.648300   48.480600  103.275000
  H    -36.919100   48.139300  102.187000
  C    -36.137700   46.415300  103.310000
  H    -35.317500   46.117400  102.668000
  H    -35.802800   46.261400  104.380000
  C    -37.311300   45.444900  103.024000
  H    -37.697100   45.512000  102.016000
  H    -37.064500   44.348100  103.010000
  H    -38.147300   45.623900  103.712000
  S    -41.034400   51.168200  106.581000
  C    -42.733800   51.283800  106.167000
  C    -42.954700   50.962400  104.894000
  C    -41.826600   50.187200  104.331000
  C    -40.726800   50.179300  105.224000
  H    -43.890600   51.097800  104.414000
  C    -41.881700   49.476000  103.011000
  H    -41.215300   48.601600  103.120000
  H    -41.369000   50.037500  102.214000
  C    -43.318900   49.063100  102.552000
  H    -43.941900   49.960200  102.344000
  H    -43.736700   48.598300  103.491000
  C    -43.189300   48.257600  101.288000
  H    -44.192800   48.017800  100.850000
  H    -42.574700   47.365200  101.480000
  H    -42.698700   48.779800  100.473000
  H    -36.926300   47.213400  106.041000
  H    -43.479100   51.616700  106.890000

 Total Charge           Charge          ....    0
 Multiplicity           Mult            ....    1
 Number of Electrons    NEL             ....  134
 Basis Dimension        Dim             ....  322

ORBITAL ENERGIES
----------------

  NO   OCC          E(Eh)            E(eV)
   0   2.0000     -88.969990     -2420.9965
   1   2.0000     -88.960736     -2420.7447
   2   2.0000     -10.330732      -281.1135
   3   2.0000     -10.325495      -280.9710
   4   2.0000     -10.312761      -280.6245
   5   2.0000     -10.309937      -280.5476
   6   2.0000     -10.307789      -280.4892
   7   2.0000     -10.305446      -280.4254
   8   2.0000     -10.302133      -280.3353
   9   2.0000     -10.294542      -280.1287
  10   2.0000     -10.293991      -280.1137
  11   2.0000     -10.291915      -280.0572
  12   2.0000     -10.291650      -280.0500
  13   2.0000     -10.290461      -280.0177
  14   2.0000     -10.282272      -279.7949
  15   2.0000     -10.277339      -279.6606
  16   2.0000      -8.085134      -220.0077
  17   2.0000      -8.076697      -219.7781
  18   2.0000      -6.043527      -164.4527
  19   2.0000      -6.039680      -164.3480
  20   2.0000      -6.035901      -164.2452
  21   2.0000      -6.035242      -164.2273
  22   2.0000      -6.031239      -164.1184
  23   2.0000      -6.027158      -164.0073
  24   2.0000      -1.009423       -27.4678
  25   2.0000      -0.988324       -26.8937
  26   2.0000      -0.910918       -24.7873
  27   2.0000      -0.909491       -24.7485
  28   2.0000      -0.868197       -23.6248
  29   2.0000      -0.854001       -23.2386
  30   2.0000      -0.844024       -22.9671
  31   2.0000      -0.816813       -22.2266
  32   2.0000      -0.782379       -21.2896
  33   2.0000      -0.766487       -20.8572
  34   2.0000      -0.707095       -19.2410
  35   2.0000      -0.703885       -19.1537
  36   2.0000      -0.689759       -18.7693
  37   2.0000      -0.655944       -17.8492
  38   2.0000      -0.642804       -17.4916
  39   2.0000      -0.613381       -16.6910
  40   2.0000      -0.598985       -16.2992
  41   2.0000      -0.580982       -15.8093
  42   2.0000      -0.566644       -15.4192
  43   2.0000      -0.548457       -14.9243
  44   2.0000      -0.541026       -14.7221
  45   2.0000      -0.524996       -14.2859
  46   2.0000      -0.513253       -13.9663
  47   2.0000      -0.510588       -13.8938
  48   2.0000      -0.502519       -13.6742
  49   2.0000      -0.496491       -13.5102
  50   2.0000      -0.485068       -13.1994
  51   2.0000      -0.478188       -13.0121
  52   2.0000      -0.471446       -12.8287
  53   2.0000      -0.469891       -12.7864
  54   2.0000      -0.459437       -12.5019
  55   2.0000      -0.453272       -12.3342
  56   2.0000      -0.447083       -12.1658
  57   2.0000      -0.437411       -11.9026
  58   2.0000      -0.430561       -11.7162
  59   2.0000      -0.425430       -11.5765
  60   2.0000      -0.422460       -11.4957
  61   2.0000      -0.417660       -11.3651
  62   2.0000      -0.410530       -11.1711
  63   2.0000      -0.354283        -9.6405
  64   2.0000      -0.334054        -9.0901
  65   2.0000      -0.325736        -8.8637
  66   2.0000      -0.283833        -7.7235
  67   0.0000       0.025479         0.6933
  68   0.0000       0.075250         2.0476
  69   0.0000       0.102264         2.7828
  70   0.0000       0.122818         3.3420
  71   0.0000       0.134688         3.6651

MULLIKEN ATOMIC CHARGES
-----------------------
   0 S :    0.127959
   1 C :   -0.112729
   2 C :   -0.061441
   3 C :    0.008948
   4 C :   -0.143391
   5 H :    0.001248
   6 C :    0.066695
   7 H :    0.046485
   8 H :    0.026699
   9 C :   -0.088945
  10 H :    0.032903
  11 H :    0.036118
  12 C :   -0.076100
  13 H :    0.018297
  14 H :    0.034823
  15 H :    0.046289
  16 S :    0.089917
  17 C :   -0.111193
  18 C :    0.019826
  19 C :   -0.079477
  20 C :   -0.120925
  21 H :    0.009697
  22 C :   -0.000333
  23 H :    0.033117
  24 H :    0.039386
  25 C :   -0.102205
  26 H :    0.038785
  27 H :    0.050143
  28 C :   -0.023730
  29 H :    0.037939
  30 H :    0.034570
  31 H :    0.025018
  32 H :    0.031503
  33 H :    0.064107
Sum of atomic charges:    0.0000000

LOEWDIN ATOMIC CHARGES
----------------------
   0 S :    0.421667
   1 C :   -0.196936
   2 C :   -0.054241
   3 C :   -0.064409
   4 C :   -0.184666
   5 H :    0.025272
   6 C :   -0.035526
   7 H :    0.040738
   8 H :    0.031676
   9 C :   -0.042678
  10 H :    0.024187
  11 H :    0.027796
  12 C :   -0.078367
  13 H :    0.020435
  14 H :    0.029908
  15 H :    0.026815
  16 S :    0.398957
  17 C :   -0.176878
  18 C :   -0.065109
  19 C :   -0.055750
  20 C :   -0.212494
  21 H :    0.027163
  22 C :   -0.045983
  23 H :    0.034777
  24 H :    0.029712
  25 C :   -0.047562
  26 H :    0.024766
  27 H :    0.033615
  28 C :   -0.068363
  29 H :    0.030612
  30 H :    0.028824
  31 H :    0.025778
  32 H :    0.014162
  33 H :    0.032102

  Mayer bond orders larger than 0.100000
B(  0-S ,  1-C ) :   1.1472 B(  0-S ,  4-C ) :   1.1485 B(  1-C ,  2-C ) :   1.6077
B(  1-C , 32-H ) :   0.9669 B(  2-C ,  3-C ) :   1.2251 B(  2-C ,  6-C ) :   1.0101
B(  3-C ,  4-C ) :   1.5776 B(  3-C ,  5-H ) :   0.9928 B(  4-C , 20-C ) :   1.0435
B(  6-C ,  7-H ) :   0.9331 B(  6-C ,  8-H ) :   0.9520 B(  6-C ,  9-C ) :   1.0695
B(  9-C , 10-H ) :   0.9567 B(  9-C , 11-H ) :   0.9556 B(  9-C , 12-C ) :   1.0675
B( 12-C , 13-H ) :   0.9735 B( 12-C , 14-H ) :   0.9756 B( 12-C , 15-H ) :   0.9762
B( 16-S , 17-C ) :   1.1373 B( 16-S , 20-C ) :   1.1329 B( 17-C , 18-C ) :   1.6340
B( 17-C , 33-H ) :   0.9667 B( 18-C , 19-C ) :   1.2098 B( 18-C , 21-H ) :   0.9930
B( 19-C , 20-C ) :   1.5966 B( 19-C , 22-C ) :   1.0544 B( 22-C , 23-H ) :   0.9265
B( 22-C , 24-H ) :   0.9264 B( 22-C , 25-C ) :   1.0568 B( 25-C , 26-H ) :   0.9452
B( 25-C , 27-H ) :   0.9593 B( 25-C , 28-C ) :   1.0849 B( 28-C , 29-H ) :   0.9713
B( 28-C , 30-H ) :   0.9733 B( 28-C , 31-H ) :   0.9683

Dispersion correction           -0.013936988
FINAL SINGLE POINT ENERGY     -1339.872192062697

DIPOLE MOMENT
-------------
                                X             Y             Z
Electronic contribution:      0.13243      16.69600      25.10413
Nuclear contribution   :     -0.20790     -16.92837     -25.73395
                        -----------------------------------------
Total Dipole Moment    :     -0.07547      -0.23237      -0.62982
                        -----------------------------------------
Magnitude (a.u.)       :      0.67555
Magnitude (Debye)      :      1.71710

Rotational constants in cm-1:     0.017838     0.009045     0.006380
Rotational constants in MHz :   534.771029   271.158904   191.255308

                             ****ORCA TERMINATED NORMALLY****
TOTAL RUN TIME: 0 days 0 hours 0 minutes 30 seconds 128 msec
