                         Program Version 4.2.1 -  RELEASE  -
|  1> ! wB97X-D3 SP def2-SVP
|  2> %pal
|  3> nprocs 16
|  4> end
|  5>
|  6> * xyz 0 1
|  7> S 	 -30.4163 	 57.2132 	 108.239
|  8> C 	 -30.2912 	 57.6284 	 106.511
|  9> C 	 -30.8903 	 58.8376 	 106.213
| 10> C 	 -31.7599 	 59.2265 	 107.321
| 11> C 	 -31.7505 	 58.34 	 108.39
| 12> H 	 -32.4754 	 60.0171 	 107.371
| 13> C 	 -30.8478 	 59.5562 	 104.965
| 14> H 	 -31.886 	 59.5444 	 104.517
| 15> H 	 -30.2388 	 58.9563 	 104.204
| 16> C 	 -30.2958 	 61.0053 	 105
| 17> H 	 -29.6381 	 61.1028 	 105.825
| 18> H 	 -29.7938 	 61.3032 	 104.092
| 19> C 	 -31.3948 	 62.0461 	 105.137
| 20> H 	 -30.9049 	 62.9094 	 105.466
| 21> H 	 -31.9014 	 62.1237 	 104.182
| 22> H 	 -32.0745 	 61.6267 	 105.834
| 23> S 	 -31.5255 	 59.2461 	 110.966
| 24> C 	 -32.9795 	 59.3146 	 111.927
| 25> C 	 -34.0889 	 58.8189 	 111.244
| 26> C 	 -33.81 	 58.4417 	 109.906
| 27> C 	 -32.4434 	 58.5066 	 109.594
| 28> H 	 -35.0448 	 58.8427 	 111.777
| 29> C 	 -34.881 	 57.8356 	 109.082
| 30> H 	 -35.8071 	 57.5527 	 109.593
| 31> H 	 -34.4546 	 57.0671 	 108.501
| 32> C 	 -35.4263 	 58.8657 	 108.072
| 33> H 	 -34.8339 	 58.6821 	 107.218
| 34> H 	 -35.2332 	 59.8486 	 108.512
| 35> C 	 -36.8756 	 58.6988 	 107.632
| 36> H 	 -36.9889 	 57.8054 	 107.107
| 37> H 	 -37.2899 	 59.5566 	 107.115
| 38> H 	 -37.5189 	 58.6074 	 108.504
| 39> H 	 -29.6722 	 57.1807 	 105.849
| 40> H 	 -33.0181 	 59.6865 	 112.966
| 41> *
| 42>
| 43>                          ****END OF INPUT****

CARTESIAN COORDINATES (ANGSTROEM)
---------------------------------
  S    -30.416300   57.213200  108.239000
  C    -30.291200   57.628400  106.511000
  C    -30.890300   58.837600  106.213000
  C    -31.759900   59.226500  107.321000
  C    -31.750500   58.340000  108.390000
  H    -32.475400   60.017100  107.371000
  C    -30.847800   59.556200  104.965000
  H    -31.886000   59.544400  104.517000
  H    -30.238800   58.956300  104.204000
  C    -30.295800   61.005300  105.000000
  H    -29.638100   61.102800  105.825000
  H    -29.793800   61.303200  104.092000
  C    -31.394800   62.046100  105.137000
  H    -30.904900   62.909400  105.466000
  H    -31.901400   62.123700  104.182000
  H    -32.074500   61.626700  105.834000
  S    -31.525500   59.246100  110.966000
  C    -32.979500   59.314600  111.927000
  C    -34.088900   58.818900  111.244000
  C    -33.810000   58.441700  109.906000
  C    -32.443400   58.506600  109.594000
  H    -35.044800   58.842700  111.777000
  C    -34.881000   57.835600  109.082000
  H    -35.807100   57.552700  109.593000
  H    -34.454600   57.067100  108.501000
  C    -35.426300   58.865700  108.072000
  H    -34.833900   58.682100  107.218000
  H    -35.233200   59.848600  108.512000
  C    -36.875600   58.698800  107.632000
  H    -36.988900   57.805400  107.107000
  H    -37.289900   59.556600  107.115000
  H    -37.518900   58.607400  108.504000
  H    -29.672200   57.180700  105.849000
  H    -33.018100   59.686500  112.966000

 Total Charge           Charge          ....    0
 Multiplicity           Mult            ....    1
 Number of Electrons    NEL             ....  134
 Basis Dimension        Dim             ....  322

ORBITAL ENERGIES
----------------

  NO   OCC          E(Eh)            E(eV)
   0   2.0000     -88.964387     -2420.8440
   1   2.0000     -88.964239     -2420.8400
   2   2.0000     -10.324410      -280.9415
   3   2.0000     -10.323949      -280.9289
   4   2.0000     -10.319793      -280.8158
   5   2.0000     -10.310151      -280.5535
   6   2.0000     -10.304585      -280.4020
   7   2.0000     -10.303132      -280.3625
   8   2.0000     -10.297700      -280.2147
   9   2.0000     -10.296095      -280.1710
  10   2.0000     -10.293366      -280.0967
  11   2.0000     -10.282227      -279.7936
  12   2.0000     -10.280931      -279.7584
  13   2.0000     -10.276080      -279.6264
  14   2.0000     -10.271319      -279.4968
  15   2.0000     -10.268097      -279.4091
  16   2.0000      -8.078748      -219.8339
  17   2.0000      -8.078539      -219.8282
  18   2.0000      -6.037274      -164.2826
  19   2.0000      -6.037032      -164.2760
  20   2.0000      -6.033619      -164.1831
  21   2.0000      -6.033158      -164.1706
  22   2.0000      -6.029315      -164.0660
  23   2.0000      -6.029165      -164.0619
  24   2.0000      -1.005031       -27.3483
  25   2.0000      -0.979598       -26.6562
  26   2.0000      -0.920054       -25.0359
  27   2.0000      -0.914780       -24.8924
  28   2.0000      -0.876969       -23.8635
  29   2.0000      -0.852967       -23.2104
  30   2.0000      -0.848606       -23.0918
  31   2.0000      -0.813139       -22.1266
  32   2.0000      -0.786570       -21.4037
  33   2.0000      -0.772086       -21.0095
  34   2.0000      -0.711626       -19.3643
  35   2.0000      -0.702147       -19.1064
  36   2.0000      -0.690595       -18.7921
  37   2.0000      -0.659692       -17.9511
  38   2.0000      -0.648502       -17.6466
  39   2.0000      -0.617770       -16.8104
  40   2.0000      -0.601098       -16.3567
  41   2.0000      -0.575286       -15.6543
  42   2.0000      -0.571521       -15.5519
  43   2.0000      -0.556607       -15.1461
  44   2.0000      -0.541814       -14.7435
  45   2.0000      -0.532634       -14.4937
  46   2.0000      -0.524958       -14.2848
  47   2.0000      -0.512400       -13.9431
  48   2.0000      -0.505655       -13.7596
  49   2.0000      -0.504529       -13.7289
  50   2.0000      -0.497329       -13.5330
  51   2.0000      -0.482947       -13.1416
  52   2.0000      -0.468675       -12.7533
  53   2.0000      -0.464097       -12.6287
  54   2.0000      -0.458999       -12.4900
  55   2.0000      -0.450273       -12.2526
  56   2.0000      -0.442260       -12.0345
  57   2.0000      -0.437230       -11.8976
  58   2.0000      -0.431906       -11.7528
  59   2.0000      -0.427503       -11.6330
  60   2.0000      -0.423467       -11.5231
  61   2.0000      -0.411257       -11.1909
  62   2.0000      -0.409682       -11.1480
  63   2.0000      -0.336526        -9.1573
  64   2.0000      -0.327761        -8.9188
  65   2.0000      -0.324034        -8.8174
  66   2.0000      -0.296256        -8.0615
  67   0.0000       0.031185         0.8486
  68   0.0000       0.050211         1.3663
  69   0.0000       0.104525         2.8443
  70   0.0000       0.117219         3.1897
  71   0.0000       0.128451         3.4953

MULLIKEN ATOMIC CHARGES
-----------------------
   0 S :    0.102157
   1 C :   -0.054358
   2 C :   -0.056742
   3 C :    0.049383
   4 C :   -0.186869
   5 H :    0.012603
   6 C :   -0.008785
   7 H :    0.046719
   8 H :    0.026048
   9 C :   -0.060543
  10 H :    0.027810
  11 H :    0.028051
  12 C :   -0.005928
  13 H :    0.030012
  14 H :    0.030564
  15 H :    0.010464
  16 S :    0.104495
  17 C :   -0.108682
  18 C :   -0.045723
  19 C :   -0.024877
  20 C :   -0.166597
  21 H :    0.025444
  22 C :    0.115592
  23 H :    0.015889
  24 H :    0.023640
  25 C :   -0.115586
  26 H :    0.025119
  27 H :    0.037012
  28 C :   -0.013095
  29 H :    0.020571
  30 H :    0.037359
  31 H :    0.013324
  32 H :   -0.003078
  33 H :    0.068607
Sum of atomic charges:   -0.0000000

LOEWDIN ATOMIC CHARGES
----------------------
   0 S :    0.385861
   1 C :   -0.161013
   2 C :   -0.059147
   3 C :   -0.045378
   4 C :   -0.202704
   5 H :    0.024564
   6 C :   -0.045771
   7 H :    0.039169
   8 H :    0.037031
   9 C :   -0.031757
  10 H :    0.019658
  11 H :    0.024179
  12 C :   -0.049153
  13 H :    0.021796
  14 H :    0.025091
  15 H :    0.015251
  16 S :    0.386390
  17 C :   -0.187508
  18 C :   -0.077712
  19 C :   -0.045488
  20 C :   -0.193204
  21 H :    0.035700
  22 C :   -0.023359
  23 H :    0.030661
  24 H :    0.028554
  25 C :   -0.037317
  26 H :    0.017370
  27 H :    0.021905
  28 C :   -0.061052
  29 H :    0.018344
  30 H :    0.030176
  31 H :    0.020742
  32 H :    0.002816
  33 H :    0.035304

  Mayer bond orders larger than 0.100000
B(  0-S ,  1-C ) :   1.1228 B(  0-S ,  4-C ) :   1.1227 B(  1-C ,  2-C ) :   1.6336
B(  1-C , 32-H ) :   0.9767 B(  2-C ,  3-C ) :   1.1680 B(  2-C ,  6-C ) :   1.0643
B(  3-C ,  4-C ) :   1.6126 B(  3-C ,  5-H ) :   0.9897 B(  4-C , 20-C ) :   1.0662
B(  6-C ,  7-H ) :   0.9426 B(  6-C ,  8-H ) :   0.9347 B(  6-C ,  9-C ) :   1.0401
B(  9-C , 10-H ) :   0.9638 B(  9-C , 11-H ) :   0.9601 B(  9-C , 12-C ) :   1.0745
B( 12-C , 13-H ) :   0.9724 B( 12-C , 14-H ) :   0.9751 B( 12-C , 15-H ) :   0.9793
B( 16-S , 17-C ) :   1.1626 B( 16-S , 20-C ) :   1.1221 B( 17-C , 18-C ) :   1.6097
B( 17-C , 20-C ) :   0.1092 B( 17-C , 33-H ) :   0.9611 B( 18-C , 19-C ) :   1.2306
B( 18-C , 21-H ) :   0.9906 B( 19-C , 20-C ) :   1.5883 B( 19-C , 22-C ) :   1.0701
B( 22-C , 23-H ) :   0.9459 B( 22-C , 24-H ) :   0.9274 B( 22-C , 25-C ) :   1.0331
B( 25-C , 26-H ) :   0.9530 B( 25-C , 27-H ) :   0.9644 B( 25-C , 28-C ) :   1.0930
B( 28-C , 29-H ) :   0.9709 B( 28-C , 30-H ) :   0.9734 B( 28-C , 31-H ) :   0.9710

Dispersion correction           -0.014558328
FINAL SINGLE POINT ENERGY     -1339.847972635154

DIPOLE MOMENT
-------------
                                X             Y             Z
Electronic contribution:     16.05832     -11.17222      19.14048
Nuclear contribution   :    -16.45979      11.52267     -19.56214
                        -----------------------------------------
Total Dipole Moment    :     -0.40147       0.35045      -0.42166
                        -----------------------------------------
Magnitude (a.u.)       :      0.67956
Magnitude (Debye)      :      1.72730

Rotational constants in cm-1:     0.016163     0.009472     0.007678
Rotational constants in MHz :   484.550626   283.969922   230.189733

                             ****ORCA TERMINATED NORMALLY****
TOTAL RUN TIME: 0 days 0 hours 0 minutes 31 seconds 411 msec
