                         Program Version 4.2.1 -  RELEASE  -
|  1> ! wB97X-D3 SP def2-SVP
|  2> %pal
|  3> nprocs 16
|  4> end
|  5>
|  6> * xyz 0 1
|  7> S 	 6.44734 	 -7.81177 	 80.9976
|  8> C 	 6.22234 	 -8.08124 	 82.7214
|  9> C 	 5.35163 	 -7.23637 	 83.336
| 10> C 	 4.65205 	 -6.4797 	 82.3576
| 11> C 	 4.98985 	 -6.75987 	 81.0172
| 12> H 	 3.85929 	 -5.82089 	 82.5352
| 13> C 	 5.06379 	 -7.25855 	 84.7865
| 14> H 	 4.52688 	 -8.11619 	 85.1016
| 15> H 	 4.34027 	 -6.45155 	 84.9915
| 16> C 	 6.38801 	 -7.13992 	 85.6183
| 17> H 	 6.17018 	 -6.96255 	 86.631
| 18> H 	 6.92227 	 -8.04314 	 85.5304
| 19> C 	 7.326 	 -6.04544 	 85.1357
| 20> H 	 8.02154 	 -5.71214 	 85.8475
| 21> H 	 7.9049 	 -6.40829 	 84.2674
| 22> H 	 6.79316 	 -5.24871 	 84.831
| 23> S 	 5.66974 	 -5.4727 	 78.7868
| 24> C 	 4.42208 	 -4.87201 	 77.6937
| 25> C 	 3.17607 	 -5.38827 	 77.9973
| 26> C 	 3.18343 	 -6.03003 	 79.3099
| 27> C 	 4.45828 	 -6.24138 	 79.7853
| 28> H 	 2.37546 	 -5.1579 	 77.4083
| 29> C 	 2.01881 	 -6.58076 	 79.9694
| 30> H 	 1.51246 	 -5.6477 	 80.1379
| 31> H 	 2.16195 	 -6.90509 	 80.9672
| 32> C 	 1.18197 	 -7.65525 	 79.1609
| 33> H 	 0.569076 	 -7.22624 	 78.3194
| 34> H 	 0.485361 	 -8.18408 	 79.778
| 35> C 	 2.01127 	 -8.79362 	 78.6212
| 36> H 	 2.57145 	 -9.226 	 79.4297
| 37> H 	 2.7002 	 -8.50971 	 77.861
| 38> H 	 1.50894 	 -9.44639 	 77.9996
| 39> H 	 6.8685 	 -8.7654 	 83.2753
| 40> H 	 4.57861 	 -4.29958 	 76.7615
| 41> *
| 42>
| 43>                          ****END OF INPUT****

CARTESIAN COORDINATES (ANGSTROEM)
---------------------------------
  S      6.447340   -7.811770   80.997600
  C      6.222340   -8.081240   82.721400
  C      5.351630   -7.236370   83.336000
  C      4.652050   -6.479700   82.357600
  C      4.989850   -6.759870   81.017200
  H      3.859290   -5.820890   82.535200
  C      5.063790   -7.258550   84.786500
  H      4.526880   -8.116190   85.101600
  H      4.340270   -6.451550   84.991500
  C      6.388010   -7.139920   85.618300
  H      6.170180   -6.962550   86.631000
  H      6.922270   -8.043140   85.530400
  C      7.326000   -6.045440   85.135700
  H      8.021540   -5.712140   85.847500
  H      7.904900   -6.408290   84.267400
  H      6.793160   -5.248710   84.831000
  S      5.669740   -5.472700   78.786800
  C      4.422080   -4.872010   77.693700
  C      3.176070   -5.388270   77.997300
  C      3.183430   -6.030030   79.309900
  C      4.458280   -6.241380   79.785300
  H      2.375460   -5.157900   77.408300
  C      2.018810   -6.580760   79.969400
  H      1.512460   -5.647700   80.137900
  H      2.161950   -6.905090   80.967200
  C      1.181970   -7.655250   79.160900
  H      0.569076   -7.226240   78.319400
  H      0.485361   -8.184080   79.778000
  C      2.011270   -8.793620   78.621200
  H      2.571450   -9.226000   79.429700
  H      2.700200   -8.509710   77.861000
  H      1.508940   -9.446390   77.999600
  H      6.868500   -8.765400   83.275300
  H      4.578610   -4.299580   76.761500

 Total Charge           Charge          ....    0
 Multiplicity           Mult            ....    1
 Number of Electrons    NEL             ....  134
 Basis Dimension        Dim             ....  322

ORBITAL ENERGIES
----------------

  NO   OCC          E(Eh)            E(eV)
   0   2.0000     -88.965105     -2420.8636
   1   2.0000     -88.961272     -2420.7593
   2   2.0000     -10.332262      -281.1552
   3   2.0000     -10.320871      -280.8452
   4   2.0000     -10.320246      -280.8282
   5   2.0000     -10.310092      -280.5519
   6   2.0000     -10.302555      -280.3468
   7   2.0000     -10.295840      -280.1640
   8   2.0000     -10.293183      -280.0917
   9   2.0000     -10.292394      -280.0703
  10   2.0000     -10.290977      -280.0317
  11   2.0000     -10.288856      -279.9740
  12   2.0000     -10.284622      -279.8588
  13   2.0000     -10.278661      -279.6966
  14   2.0000     -10.258300      -279.1425
  15   2.0000     -10.258265      -279.1416
  16   2.0000      -8.079164      -219.8452
  17   2.0000      -8.076243      -219.7657
  18   2.0000      -6.037650      -164.2928
  19   2.0000      -6.034848      -164.2166
  20   2.0000      -6.033948      -164.1921
  21   2.0000      -6.030785      -164.1060
  22   2.0000      -6.029810      -164.0795
  23   2.0000      -6.026795      -163.9974
  24   2.0000      -1.005346       -27.3568
  25   2.0000      -0.982045       -26.7228
  26   2.0000      -0.915862       -24.9219
  27   2.0000      -0.910677       -24.7808
  28   2.0000      -0.869970       -23.6731
  29   2.0000      -0.855399       -23.2766
  30   2.0000      -0.847383       -23.0585
  31   2.0000      -0.816112       -22.2075
  32   2.0000      -0.787997       -21.4425
  33   2.0000      -0.773948       -21.0602
  34   2.0000      -0.710862       -19.3435
  35   2.0000      -0.710439       -19.3320
  36   2.0000      -0.695672       -18.9302
  37   2.0000      -0.666524       -18.1370
  38   2.0000      -0.639474       -17.4010
  39   2.0000      -0.615227       -16.7412
  40   2.0000      -0.594282       -16.1712
  41   2.0000      -0.580736       -15.8026
  42   2.0000      -0.565225       -15.3805
  43   2.0000      -0.557604       -15.1732
  44   2.0000      -0.549852       -14.9622
  45   2.0000      -0.535003       -14.5582
  46   2.0000      -0.522380       -14.2147
  47   2.0000      -0.513765       -13.9803
  48   2.0000      -0.496686       -13.5155
  49   2.0000      -0.494376       -13.4527
  50   2.0000      -0.488023       -13.2798
  51   2.0000      -0.479575       -13.0499
  52   2.0000      -0.469166       -12.7667
  53   2.0000      -0.464333       -12.6351
  54   2.0000      -0.460843       -12.5402
  55   2.0000      -0.449066       -12.2197
  56   2.0000      -0.440002       -11.9731
  57   2.0000      -0.438599       -11.9349
  58   2.0000      -0.435224       -11.8431
  59   2.0000      -0.426058       -11.5936
  60   2.0000      -0.421873       -11.4798
  61   2.0000      -0.416773       -11.3410
  62   2.0000      -0.409235       -11.1358
  63   2.0000      -0.348400        -9.4804
  64   2.0000      -0.331778        -9.0281
  65   2.0000      -0.324776        -8.8376
  66   2.0000      -0.285368        -7.7652
  67   0.0000       0.029334         0.7982
  68   0.0000       0.062440         1.6991
  69   0.0000       0.105830         2.8798
  70   0.0000       0.117922         3.2088
  71   0.0000       0.136464         3.7134

MULLIKEN ATOMIC CHARGES
-----------------------
   0 S :    0.098441
   1 C :   -0.127754
   2 C :   -0.089320
   3 C :    0.059877
   4 C :   -0.162029
   5 H :   -0.013676
   6 C :    0.098333
   7 H :    0.036198
   8 H :    0.015132
   9 C :   -0.073816
  10 H :    0.018985
  11 H :    0.018792
  12 C :    0.012227
  13 H :    0.022015
  14 H :    0.029405
  15 H :   -0.001355
  16 S :    0.094032
  17 C :   -0.096667
  18 C :    0.006060
  19 C :   -0.066889
  20 C :   -0.132503
  21 H :   -0.013989
  22 C :    0.091116
  23 H :    0.026238
  24 H :    0.006427
  25 C :   -0.071547
  26 H :    0.030025
  27 H :    0.024891
  28 C :   -0.004424
  29 H :    0.034519
  30 H :    0.011786
  31 H :    0.007342
  32 H :    0.045221
  33 H :    0.066911
Sum of atomic charges:    0.0000000

LOEWDIN ATOMIC CHARGES
----------------------
   0 S :    0.377564
   1 C :   -0.184582
   2 C :   -0.067241
   3 C :   -0.053009
   4 C :   -0.175315
   5 H :    0.018966
   6 C :   -0.026384
   7 H :    0.031609
   8 H :    0.031067
   9 C :   -0.026930
  10 H :    0.017811
  11 H :    0.016000
  12 C :   -0.053501
  13 H :    0.020932
  14 H :    0.030954
  15 H :    0.009508
  16 S :    0.392324
  17 C :   -0.176437
  18 C :   -0.056075
  19 C :   -0.050041
  20 C :   -0.203250
  21 H :    0.016030
  22 C :   -0.035642
  23 H :    0.038845
  24 H :    0.026279
  25 C :   -0.034799
  26 H :    0.025861
  27 H :    0.023107
  28 C :   -0.064065
  29 H :    0.027922
  30 H :    0.023365
  31 H :    0.018904
  32 H :    0.024017
  33 H :    0.036207

  Mayer bond orders larger than 0.100000
B(  0-S ,  1-C ) :   1.1335 B(  0-S ,  4-C ) :   1.1317 B(  1-C ,  2-C ) :   1.6202
B(  1-C ,  4-C ) :   0.1024 B(  1-C , 32-H ) :   0.9643 B(  2-C ,  3-C ) :   1.2297
B(  2-C ,  6-C ) :   1.0204 B(  3-C ,  4-C ) :   1.5694 B(  3-C ,  5-H ) :   1.0013
B(  4-C , 20-C ) :   1.0491 B(  6-C ,  7-H ) :   0.9392 B(  6-C ,  8-H ) :   0.9359
B(  6-C ,  9-C ) :   1.0657 B(  9-C , 10-H ) :   0.9583 B(  9-C , 11-H ) :   0.9580
B(  9-C , 12-C ) :   1.0891 B( 12-C , 13-H ) :   0.9721 B( 12-C , 14-H ) :   0.9652
B( 12-C , 15-H ) :   0.9729 B( 16-S , 17-C ) :   1.1453 B( 16-S , 20-C ) :   1.1172
B( 17-C , 18-C ) :   1.6436 B( 17-C , 33-H ) :   0.9613 B( 18-C , 19-C ) :   1.1849
B( 18-C , 21-H ) :   1.0021 B( 19-C , 20-C ) :   1.6210 B( 19-C , 22-C ) :   1.0620
B( 22-C , 23-H ) :   0.9160 B( 22-C , 24-H ) :   0.9342 B( 22-C , 25-C ) :   1.0575
B( 25-C , 26-H ) :   0.9551 B( 25-C , 27-H ) :   0.9599 B( 25-C , 28-C ) :   1.0868
B( 28-C , 29-H ) :   0.9754 B( 28-C , 30-H ) :   0.9612 B( 28-C , 31-H ) :   0.9661

Dispersion correction           -0.015156435
FINAL SINGLE POINT ENERGY     -1339.847157284496

DIPOLE MOMENT
-------------
                                X             Y             Z
Electronic contribution:     10.40436       4.49969     -13.59237
Nuclear contribution   :    -10.95009      -4.45170      13.90613
                        -----------------------------------------
Total Dipole Moment    :     -0.54573       0.04799       0.31376
                        -----------------------------------------
Magnitude (a.u.)       :      0.63133
Magnitude (Debye)      :      1.60471

Rotational constants in cm-1:     0.023553     0.008041     0.007035
Rotational constants in MHz :   706.112469   241.060560   210.896591

                             ****ORCA TERMINATED NORMALLY****
TOTAL RUN TIME: 0 days 0 hours 0 minutes 35 seconds 829 msec
