                         Program Version 4.2.1 -  RELEASE  -
|  1> ! wB97X-D3 SP def2-SVP
|  2> %pal
|  3> nprocs 16
|  4> end
|  5>
|  6> * xyz 0 1
|  7> S 	 -1.7416 	 26.9266 	 41.8527
|  8> C 	 -1.13442 	 25.5158 	 40.9643
|  9> C 	 -0.0252546 	 25.8544 	 40.2067
| 10> C 	 0.441023 	 27.1822 	 40.4301
| 11> C 	 -0.446994 	 27.9236 	 41.2091
| 12> H 	 1.21131 	 27.6311 	 39.8934
| 13> C 	 0.627695 	 25.0769 	 39.1068
| 14> H 	 0.0132308 	 24.1871 	 38.8188
| 15> H 	 1.51003 	 24.5987 	 39.5618
| 16> C 	 0.979355 	 25.945 	 37.8598
| 17> H 	 0.11932 	 26.6122 	 37.5636
| 18> H 	 1.79991 	 26.6164 	 38.2023
| 19> C 	 1.54244 	 25.0903 	 36.6841
| 20> H 	 0.827986 	 24.4433 	 36.2035
| 21> H 	 2.00947 	 25.8159 	 35.9728
| 22> H 	 2.43572 	 24.4674 	 37.0066
| 23> S 	 -0.855462 	 29.9197 	 43.0387
| 24> C 	 -0.465381 	 31.6216 	 42.6558
| 25> C 	 0.105453 	 31.6885 	 41.4103
| 26> C 	 0.148125 	 30.4389 	 40.7478
| 27> C 	 -0.44573 	 29.4155 	 41.3879
| 28> H 	 0.306412 	 32.597 	 40.9354
| 29> C 	 0.590087 	 30.3054 	 39.3041
| 30> H 	 -0.230799 	 29.7937 	 38.7094
| 31> H 	 1.48058 	 29.6884 	 39.187
| 32> C 	 0.767798 	 31.6303 	 38.5793
| 33> H 	 1.54792 	 32.0792 	 39.1642
| 34> H 	 -0.164469 	 32.1828 	 38.5904
| 35> C 	 1.26094 	 31.4286 	 37.1296
| 36> H 	 0.620265 	 30.7417 	 36.6076
| 37> H 	 2.28506 	 30.943 	 37.1058
| 38> H 	 1.29727 	 32.2542 	 36.4835
| 39> H 	 -1.56784 	 24.5 	 40.9928
| 40> H 	 -0.676933 	 32.4744 	 43.2437
| 41> *
| 42>
| 43>                          ****END OF INPUT****

CARTESIAN COORDINATES (ANGSTROEM)
---------------------------------
  S     -1.741600   26.926600   41.852700
  C     -1.134420   25.515800   40.964300
  C     -0.025255   25.854400   40.206700
  C      0.441023   27.182200   40.430100
  C     -0.446994   27.923600   41.209100
  H      1.211310   27.631100   39.893400
  C      0.627695   25.076900   39.106800
  H      0.013231   24.187100   38.818800
  H      1.510030   24.598700   39.561800
  C      0.979355   25.945000   37.859800
  H      0.119320   26.612200   37.563600
  H      1.799910   26.616400   38.202300
  C      1.542440   25.090300   36.684100
  H      0.827986   24.443300   36.203500
  H      2.009470   25.815900   35.972800
  H      2.435720   24.467400   37.006600
  S     -0.855462   29.919700   43.038700
  C     -0.465381   31.621600   42.655800
  C      0.105453   31.688500   41.410300
  C      0.148125   30.438900   40.747800
  C     -0.445730   29.415500   41.387900
  H      0.306412   32.597000   40.935400
  C      0.590087   30.305400   39.304100
  H     -0.230799   29.793700   38.709400
  H      1.480580   29.688400   39.187000
  C      0.767798   31.630300   38.579300
  H      1.547920   32.079200   39.164200
  H     -0.164469   32.182800   38.590400
  C      1.260940   31.428600   37.129600
  H      0.620265   30.741700   36.607600
  H      2.285060   30.943000   37.105800
  H      1.297270   32.254200   36.483500
  H     -1.567840   24.500000   40.992800
  H     -0.676933   32.474400   43.243700

 Total Charge           Charge          ....    0
 Multiplicity           Mult            ....    1
 Number of Electrons    NEL             ....  134
 Basis Dimension        Dim             ....  322

ORBITAL ENERGIES
----------------

  NO   OCC          E(Eh)            E(eV)
   0   2.0000     -88.968482     -2420.9555
   1   2.0000     -88.961450     -2420.7641
   2   2.0000     -10.335661      -281.2476
   3   2.0000     -10.326705      -281.0039
   4   2.0000     -10.318565      -280.7824
   5   2.0000     -10.316484      -280.7258
   6   2.0000     -10.301551      -280.3194
   7   2.0000     -10.299348      -280.2595
   8   2.0000     -10.298600      -280.2392
   9   2.0000     -10.295833      -280.1639
  10   2.0000     -10.293961      -280.1129
  11   2.0000     -10.290077      -280.0072
  12   2.0000     -10.289684      -279.9965
  13   2.0000     -10.288725      -279.9704
  14   2.0000     -10.286761      -279.9170
  15   2.0000     -10.279786      -279.7272
  16   2.0000      -8.082418      -219.9338
  17   2.0000      -8.075564      -219.7473
  18   2.0000      -6.041060      -164.3856
  19   2.0000      -6.037037      -164.2761
  20   2.0000      -6.034263      -164.2006
  21   2.0000      -6.033091      -164.1687
  22   2.0000      -6.030136      -164.0883
  23   2.0000      -6.026179      -163.9807
  24   2.0000      -1.005228       -27.3536
  25   2.0000      -0.983517       -26.7628
  26   2.0000      -0.914402       -24.8822
  27   2.0000      -0.908186       -24.7130
  28   2.0000      -0.867141       -23.5961
  29   2.0000      -0.851618       -23.1737
  30   2.0000      -0.842802       -22.9338
  31   2.0000      -0.816324       -22.2133
  32   2.0000      -0.779100       -21.2004
  33   2.0000      -0.772776       -21.0283
  34   2.0000      -0.712639       -19.3919
  35   2.0000      -0.705774       -19.2051
  36   2.0000      -0.690597       -18.7921
  37   2.0000      -0.657755       -17.8984
  38   2.0000      -0.638635       -17.3782
  39   2.0000      -0.625513       -17.0211
  40   2.0000      -0.602559       -16.3965
  41   2.0000      -0.581102       -15.8126
  42   2.0000      -0.565969       -15.4008
  43   2.0000      -0.562032       -15.2937
  44   2.0000      -0.527033       -14.3413
  45   2.0000      -0.521175       -14.1819
  46   2.0000      -0.515032       -14.0147
  47   2.0000      -0.509058       -13.8522
  48   2.0000      -0.504908       -13.7393
  49   2.0000      -0.497349       -13.5336
  50   2.0000      -0.492569       -13.4035
  51   2.0000      -0.479712       -13.0536
  52   2.0000      -0.474282       -12.9059
  53   2.0000      -0.471443       -12.8286
  54   2.0000      -0.457994       -12.4627
  55   2.0000      -0.451740       -12.2925
  56   2.0000      -0.449459       -12.2304
  57   2.0000      -0.439236       -11.9522
  58   2.0000      -0.435985       -11.8638
  59   2.0000      -0.423690       -11.5292
  60   2.0000      -0.419698       -11.4206
  61   2.0000      -0.414214       -11.2713
  62   2.0000      -0.411351       -11.1934
  63   2.0000      -0.350982        -9.5507
  64   2.0000      -0.331802        -9.0288
  65   2.0000      -0.328807        -8.9473
  66   2.0000      -0.290257        -7.8983
  67   0.0000       0.022031         0.5995
  68   0.0000       0.078237         2.1290
  69   0.0000       0.100464         2.7338
  70   0.0000       0.119626         3.2552
  71   0.0000       0.126642         3.4461

MULLIKEN ATOMIC CHARGES
-----------------------
   0 S :    0.107091
   1 C :   -0.131011
   2 C :   -0.087692
   3 C :    0.049896
   4 C :   -0.124793
   5 H :   -0.029283
   6 C :    0.056814
   7 H :    0.021509
   8 H :    0.039143
   9 C :   -0.136416
  10 H :    0.059155
  11 H :    0.041887
  12 C :   -0.054308
  13 H :    0.044907
  14 H :    0.039946
  15 H :    0.035569
  16 S :    0.069953
  17 C :   -0.057524
  18 C :   -0.012402
  19 C :   -0.054856
  20 C :   -0.093385
  21 H :    0.003311
  22 C :   -0.018598
  23 H :    0.047036
  24 H :    0.038423
  25 C :   -0.087213
  26 H :    0.035635
  27 H :    0.042866
  28 C :   -0.015361
  29 H :    0.013884
  30 H :    0.030776
  31 H :    0.023994
  32 H :    0.057767
  33 H :    0.043284
Sum of atomic charges:   -0.0000000

LOEWDIN ATOMIC CHARGES
----------------------
   0 S :    0.395071
   1 C :   -0.202554
   2 C :   -0.062716
   3 C :   -0.056739
   4 C :   -0.181154
   5 H :    0.016013
   6 C :   -0.040664
   7 H :    0.029791
   8 H :    0.036425
   9 C :   -0.045395
  10 H :    0.034138
  11 H :    0.025982
  12 C :   -0.071219
  13 H :    0.022447
  14 H :    0.032462
  15 H :    0.032768
  16 S :    0.373595
  17 C :   -0.156615
  18 C :   -0.065938
  19 C :   -0.066902
  20 C :   -0.178074
  21 H :    0.023965
  22 C :   -0.035021
  23 H :    0.039149
  24 H :    0.025255
  25 C :   -0.041543
  26 H :    0.021769
  27 H :    0.026598
  28 C :   -0.063166
  29 H :    0.020901
  30 H :    0.032285
  31 H :    0.018700
  32 H :    0.036054
  33 H :    0.024332

  Mayer bond orders larger than 0.100000
B(  0-S ,  1-C ) :   1.1179 B(  0-S ,  4-C ) :   1.1593 B(  1-C ,  2-C ) :   1.6232
B(  1-C , 32-H ) :   0.9641 B(  2-C ,  3-C ) :   1.2433 B(  2-C ,  6-C ) :   1.0227
B(  3-C ,  4-C ) :   1.5776 B(  3-C ,  5-H ) :   0.9927 B(  4-C , 20-C ) :   1.0076
B(  6-C ,  7-H ) :   0.9497 B(  6-C ,  8-H ) :   0.9274 B(  6-C ,  9-C ) :   1.0573
B(  9-C , 10-H ) :   0.9601 B(  9-C , 11-H ) :   0.9452 B(  9-C , 12-C ) :   1.0803
B( 12-C , 13-H ) :   0.9775 B( 12-C , 14-H ) :   0.9746 B( 12-C , 15-H ) :   0.9721
B( 16-S , 17-C ) :   1.1480 B( 16-S , 20-C ) :   1.1149 B( 17-C , 18-C ) :   1.6069
B( 17-C , 33-H ) :   0.9679 B( 18-C , 19-C ) :   1.2431 B( 18-C , 21-H ) :   0.9885
B( 19-C , 20-C ) :   1.6649 B( 19-C , 22-C ) :   1.0042 B( 22-C , 23-H ) :   0.9461
B( 22-C , 24-H ) :   0.9298 B( 22-C , 25-C ) :   1.0831 B( 25-C , 26-H ) :   0.9433
B( 25-C , 27-H ) :   0.9535 B( 25-C , 28-C ) :   1.0847 B( 28-C , 29-H ) :   0.9720
B( 28-C , 30-H ) :   0.9717 B( 28-C , 31-H ) :   0.9741

Dispersion correction           -0.013973390
FINAL SINGLE POINT ENERGY     -1339.872880699806

DIPOLE MOMENT
-------------
                                X             Y             Z
Electronic contribution:    -15.00885       1.04110      30.40627
Nuclear contribution   :     15.38997      -0.95437     -31.22449
                        -----------------------------------------
Total Dipole Moment    :      0.38112       0.08673      -0.81821
                        -----------------------------------------
Magnitude (a.u.)       :      0.90678
Magnitude (Debye)      :      2.30485

Rotational constants in cm-1:     0.015666     0.010252     0.006427
Rotational constants in MHz :   469.649606   307.334423   192.664391

                             ****ORCA TERMINATED NORMALLY****
TOTAL RUN TIME: 0 days 0 hours 0 minutes 33 seconds 967 msec
