                         Program Version 4.2.1 -  RELEASE  -
|  1> ! wB97X-D3 SP def2-SVP
|  2> %pal
|  3> nprocs 16
|  4> end
|  5>
|  6> * xyz 0 1
|  7> S 	 50.5981 	 11.9787 	 87.1521
|  8> C 	 50.9564 	 12.9448 	 88.6045
|  9> C 	 51.5919 	 14.1886 	 88.3854
| 10> C 	 51.9548 	 14.2042 	 86.9714
| 11> C 	 51.6211 	 13.0875 	 86.2485
| 12> H 	 52.3659 	 15.011 	 86.4075
| 13> C 	 51.9716 	 15.2294 	 89.4281
| 14> H 	 52.1588 	 14.6939 	 90.3656
| 15> H 	 51.0677 	 15.7867 	 89.6764
| 16> C 	 53.1482 	 16.0614 	 89.004
| 17> H 	 53.8427 	 16.2597 	 89.8503
| 18> H 	 53.9031 	 15.4557 	 88.3274
| 19> C 	 52.6644 	 17.4131 	 88.4411
| 20> H 	 52.1624 	 17.8757 	 89.3276
| 21> H 	 53.5747 	 18.0836 	 88.2048
| 22> H 	 52.0118 	 17.3848 	 87.6376
| 23> S 	 53.2812 	 13.2731 	 84.1195
| 24> C 	 52.7364 	 13.0234 	 82.5469
| 25> C 	 51.3245 	 12.8398 	 82.4778
| 26> C 	 50.7454 	 12.6478 	 83.7891
| 27> C 	 51.6509 	 13.0034 	 84.7578
| 28> H 	 50.8845 	 12.5856 	 81.5638
| 29> C 	 49.2567 	 12.3214 	 84.0192
| 30> H 	 48.6611 	 12.8394 	 83.2782
| 31> H 	 48.8838 	 12.8856 	 84.9322
| 32> C 	 48.9688 	 10.83 	 84.074
| 33> H 	 49.5467 	 10.3094 	 84.8851
| 34> H 	 49.3663 	 10.4269 	 83.1133
| 35> C 	 47.4595 	 10.52 	 84.1216
| 36> H 	 46.7841 	 10.7261 	 83.2713
| 37> H 	 47.1853 	 11.0891 	 85.0006
| 38> H 	 47.321 	 9.49073 	 84.3266
| 39> H 	 50.4857 	 12.8055 	 89.5579
| 40> H 	 53.3257 	 12.9599 	 81.6812
| 41> *
| 42>
| 43>                          ****END OF INPUT****

CARTESIAN COORDINATES (ANGSTROEM)
---------------------------------
  S     50.598100   11.978700   87.152100
  C     50.956400   12.944800   88.604500
  C     51.591900   14.188600   88.385400
  C     51.954800   14.204200   86.971400
  C     51.621100   13.087500   86.248500
  H     52.365900   15.011000   86.407500
  C     51.971600   15.229400   89.428100
  H     52.158800   14.693900   90.365600
  H     51.067700   15.786700   89.676400
  C     53.148200   16.061400   89.004000
  H     53.842700   16.259700   89.850300
  H     53.903100   15.455700   88.327400
  C     52.664400   17.413100   88.441100
  H     52.162400   17.875700   89.327600
  H     53.574700   18.083600   88.204800
  H     52.011800   17.384800   87.637600
  S     53.281200   13.273100   84.119500
  C     52.736400   13.023400   82.546900
  C     51.324500   12.839800   82.477800
  C     50.745400   12.647800   83.789100
  C     51.650900   13.003400   84.757800
  H     50.884500   12.585600   81.563800
  C     49.256700   12.321400   84.019200
  H     48.661100   12.839400   83.278200
  H     48.883800   12.885600   84.932200
  C     48.968800   10.830000   84.074000
  H     49.546700   10.309400   84.885100
  H     49.366300   10.426900   83.113300
  C     47.459500   10.520000   84.121600
  H     46.784100   10.726100   83.271300
  H     47.185300   11.089100   85.000600
  H     47.321000    9.490730   84.326600
  H     50.485700   12.805500   89.557900
  H     53.325700   12.959900   81.681200

 Total Charge           Charge          ....    0
 Multiplicity           Mult            ....    1
 Number of Electrons    NEL             ....  134
 Basis Dimension        Dim             ....  322

ORBITAL ENERGIES
----------------

  NO   OCC          E(Eh)            E(eV)
   0   2.0000     -88.969127     -2420.9730
   1   2.0000     -88.965628     -2420.8778
   2   2.0000     -10.327598      -281.0282
   3   2.0000     -10.325713      -280.9769
   4   2.0000     -10.314005      -280.6584
   5   2.0000     -10.311354      -280.5862
   6   2.0000     -10.309303      -280.5304
   7   2.0000     -10.304799      -280.4078
   8   2.0000     -10.298498      -280.2364
   9   2.0000     -10.297351      -280.2052
  10   2.0000     -10.294117      -280.1172
  11   2.0000     -10.292469      -280.0723
  12   2.0000     -10.292137      -280.0633
  13   2.0000     -10.290805      -280.0270
  14   2.0000     -10.285852      -279.8922
  15   2.0000     -10.273909      -279.5673
  16   2.0000      -8.082548      -219.9373
  17   2.0000      -8.081072      -219.8972
  18   2.0000      -6.041076      -164.3860
  19   2.0000      -6.039397      -164.3404
  20   2.0000      -6.037523      -164.2893
  21   2.0000      -6.035427      -164.2323
  22   2.0000      -6.033103      -164.1691
  23   2.0000      -6.032052      -164.1405
  24   2.0000      -1.003239       -27.2995
  25   2.0000      -0.978866       -26.6363
  26   2.0000      -0.916428       -24.9373
  27   2.0000      -0.907696       -24.6997
  28   2.0000      -0.862156       -23.4605
  29   2.0000      -0.852471       -23.1969
  30   2.0000      -0.842273       -22.9194
  31   2.0000      -0.809436       -22.0259
  32   2.0000      -0.784298       -21.3418
  33   2.0000      -0.772711       -21.0265
  34   2.0000      -0.704501       -19.1705
  35   2.0000      -0.694971       -18.9111
  36   2.0000      -0.684506       -18.6263
  37   2.0000      -0.669057       -18.2060
  38   2.0000      -0.634859       -17.2754
  39   2.0000      -0.620645       -16.8886
  40   2.0000      -0.596565       -16.2334
  41   2.0000      -0.564139       -15.3510
  42   2.0000      -0.559813       -15.2333
  43   2.0000      -0.549364       -14.9490
  44   2.0000      -0.537302       -14.6207
  45   2.0000      -0.524609       -14.2753
  46   2.0000      -0.516362       -14.0509
  47   2.0000      -0.512307       -13.9406
  48   2.0000      -0.508242       -13.8300
  49   2.0000      -0.491680       -13.3793
  50   2.0000      -0.489024       -13.3070
  51   2.0000      -0.479620       -13.0511
  52   2.0000      -0.467443       -12.7198
  53   2.0000      -0.459946       -12.5158
  54   2.0000      -0.454477       -12.3669
  55   2.0000      -0.450409       -12.2562
  56   2.0000      -0.446779       -12.1575
  57   2.0000      -0.440567       -11.9884
  58   2.0000      -0.435871       -11.8607
  59   2.0000      -0.421450       -11.4682
  60   2.0000      -0.419458       -11.4140
  61   2.0000      -0.413367       -11.2483
  62   2.0000      -0.405197       -11.0260
  63   2.0000      -0.346967        -9.4415
  64   2.0000      -0.331978        -9.0336
  65   2.0000      -0.326591        -8.8870
  66   2.0000      -0.286450        -7.7947
  67   0.0000       0.033698         0.9170
  68   0.0000       0.068371         1.8605
  69   0.0000       0.096566         2.6277
  70   0.0000       0.118997         3.2381
  71   0.0000       0.128678         3.5015

MULLIKEN ATOMIC CHARGES
-----------------------
   0 S :    0.094663
   1 C :   -0.099936
   2 C :   -0.110207
   3 C :   -0.001115
   4 C :   -0.096369
   5 H :    0.008635
   6 C :    0.102188
   7 H :    0.029623
   8 H :    0.038995
   9 C :   -0.130077
  10 H :    0.034675
  11 H :    0.055934
  12 C :   -0.055466
  13 H :    0.036406
  14 H :    0.047818
  15 H :    0.032878
  16 S :    0.120390
  17 C :   -0.077989
  18 C :   -0.014154
  19 C :   -0.049790
  20 C :   -0.169679
  21 H :    0.000164
  22 C :    0.020542
  23 H :    0.020015
  24 H :    0.036618
  25 C :   -0.089984
  26 H :    0.045336
  27 H :    0.025724
  28 C :   -0.021733
  29 H :    0.043949
  30 H :    0.024153
  31 H :    0.023731
  32 H :    0.033780
  33 H :    0.040284
Sum of atomic charges:    0.0000000

LOEWDIN ATOMIC CHARGES
----------------------
   0 S :    0.397882
   1 C :   -0.192573
   2 C :   -0.048276
   3 C :   -0.066504
   4 C :   -0.193375
   5 H :    0.023296
   6 C :   -0.036545
   7 H :    0.038005
   8 H :    0.037290
   9 C :   -0.057389
  10 H :    0.028929
  11 H :    0.038031
  12 C :   -0.062721
  13 H :    0.031933
  14 H :    0.036527
  15 H :    0.011447
  16 S :    0.433915
  17 C :   -0.199462
  18 C :   -0.064922
  19 C :   -0.057925
  20 C :   -0.187385
  21 H :    0.018607
  22 C :   -0.043238
  23 H :    0.029892
  24 H :    0.029778
  25 C :   -0.044843
  26 H :    0.026919
  27 H :    0.023863
  28 C :   -0.066733
  29 H :    0.030473
  30 H :    0.025862
  31 H :    0.021738
  32 H :    0.018591
  33 H :    0.018918

  Mayer bond orders larger than 0.100000
B(  0-S ,  1-C ) :   1.1326 B(  0-S ,  4-C ) :   1.1246 B(  1-C ,  2-C ) :   1.6464
B(  1-C , 32-H ) :   0.9620 B(  2-C ,  3-C ) :   1.2204 B(  2-C ,  6-C ) :   1.0110
B(  3-C ,  4-C ) :   1.6073 B(  3-C ,  5-H ) :   0.9850 B(  4-C , 20-C ) :   0.9958
B(  6-C ,  7-H ) :   0.9378 B(  6-C ,  8-H ) :   0.9309 B(  6-C ,  9-C ) :   1.0537
B(  9-C , 10-H ) :   0.9576 B(  9-C , 11-H ) :   0.9569 B(  9-C , 12-C ) :   1.0590
B( 12-C , 13-H ) :   0.9744 B( 12-C , 14-H ) :   0.9736 B( 12-C , 15-H ) :   0.9825
B( 16-S , 17-C ) :   1.1825 B( 16-S , 20-C ) :   1.1456 B( 17-C , 18-C ) :   1.5906
B( 17-C , 33-H ) :   0.9728 B( 18-C , 19-C ) :   1.2421 B( 18-C , 21-H ) :   0.9892
B( 19-C , 20-C ) :   1.6194 B( 19-C , 22-C ) :   1.0272 B( 22-C , 23-H ) :   0.9404
B( 22-C , 24-H ) :   0.9381 B( 22-C , 25-C ) :   1.0521 B( 25-C , 26-H ) :   0.9525
B( 25-C , 27-H ) :   0.9553 B( 25-C , 28-C ) :   1.0725 B( 28-C , 29-H ) :   0.9766
B( 28-C , 30-H ) :   0.9730 B( 28-C , 31-H ) :   0.9731

Dispersion correction           -0.014349865
FINAL SINGLE POINT ENERGY     -1339.856915268346

DIPOLE MOMENT
-------------
                                X             Y             Z
Electronic contribution:      9.40238      -7.25342      -5.33766
Nuclear contribution   :     -9.64846       7.56425       5.46902
                        -----------------------------------------
Total Dipole Moment    :     -0.24608       0.31084       0.13136
                        -----------------------------------------
Magnitude (a.u.)       :      0.41765
Magnitude (Debye)      :      1.06158

Rotational constants in cm-1:     0.019605     0.008685     0.006654
Rotational constants in MHz :   587.748403   260.384558   199.486067

                             ****ORCA TERMINATED NORMALLY****
TOTAL RUN TIME: 0 days 0 hours 0 minutes 31 seconds 764 msec
