                         Program Version 4.2.1 -  RELEASE  -
|  1> ! wB97X-D3 SP def2-SVP
|  2> %pal
|  3> nprocs 16
|  4> end
|  5>
|  6> * xyz 0 1
|  7> S 	 -101.576 	 57.7581 	 117.838
|  8> C 	 -100.186 	 57.1978 	 116.902
|  9> C 	 -100.437 	 55.9833 	 116.287
| 10> C 	 -101.684 	 55.4424 	 116.649
| 11> C 	 -102.387 	 56.1793 	 117.585
| 12> H 	 -102.098 	 54.4963 	 116.344
| 13> C 	 -99.4382 	 55.2962 	 115.269
| 14> H 	 -98.9823 	 56.1236 	 114.727
| 15> H 	 -100.055 	 54.7971 	 114.531
| 16> C 	 -98.443 	 54.2064 	 115.733
| 17> H 	 -98.0661 	 53.9873 	 114.751
| 18> H 	 -97.6841 	 54.7312 	 116.24
| 19> C 	 -98.9457 	 52.9208 	 116.554
| 20> H 	 -99.3976 	 53.2236 	 117.487
| 21> H 	 -99.8147 	 52.554 	 116.041
| 22> H 	 -98.2302 	 52.1193 	 116.74
| 23> S 	 -104.987 	 57.0945 	 117.576
| 24> C 	 -106.156 	 56.2605 	 118.537
| 25> C 	 -105.663 	 55.0341 	 118.998
| 26> C 	 -104.252 	 54.8003 	 118.743
| 27> C 	 -103.737 	 55.9308 	 118.065
| 28> H 	 -106.329 	 54.2703 	 119.5
| 29> C 	 -103.5 	 53.5783 	 119.234
| 30> H 	 -103.075 	 53.7851 	 120.244
| 31> H 	 -102.724 	 53.403 	 118.547
| 32> C 	 -104.462 	 52.3488 	 119.213
| 33> H 	 -105.259 	 52.442 	 119.915
| 34> H 	 -103.832 	 51.4867 	 119.453
| 35> C 	 -104.952 	 51.949 	 117.778
| 36> H 	 -105.449 	 52.7684 	 117.323
| 37> H 	 -105.631 	 51.1002 	 117.82
| 38> H 	 -104.053 	 51.7504 	 117.162
| 39> H 	 -99.2325 	 57.754 	 116.684
| 40> H 	 -107.244 	 56.4265 	 118.545
| 41> *
| 42>
| 43>                          ****END OF INPUT****

CARTESIAN COORDINATES (ANGSTROEM)
---------------------------------
  S    -101.576000   57.758100  117.838000
  C    -100.186000   57.197800  116.902000
  C    -100.437000   55.983300  116.287000
  C    -101.684000   55.442400  116.649000
  C    -102.387000   56.179300  117.585000
  H    -102.098000   54.496300  116.344000
  C    -99.438200   55.296200  115.269000
  H    -98.982300   56.123600  114.727000
  H    -100.055000   54.797100  114.531000
  C    -98.443000   54.206400  115.733000
  H    -98.066100   53.987300  114.751000
  H    -97.684100   54.731200  116.240000
  C    -98.945700   52.920800  116.554000
  H    -99.397600   53.223600  117.487000
  H    -99.814700   52.554000  116.041000
  H    -98.230200   52.119300  116.740000
  S    -104.987000   57.094500  117.576000
  C    -106.156000   56.260500  118.537000
  C    -105.663000   55.034100  118.998000
  C    -104.252000   54.800300  118.743000
  C    -103.737000   55.930800  118.065000
  H    -106.329000   54.270300  119.500000
  C    -103.500000   53.578300  119.234000
  H    -103.075000   53.785100  120.244000
  H    -102.724000   53.403000  118.547000
  C    -104.462000   52.348800  119.213000
  H    -105.259000   52.442000  119.915000
  H    -103.832000   51.486700  119.453000
  C    -104.952000   51.949000  117.778000
  H    -105.449000   52.768400  117.323000
  H    -105.631000   51.100200  117.820000
  H    -104.053000   51.750400  117.162000
  H    -99.232500   57.754000  116.684000
  H    -107.244000   56.426500  118.545000

 Total Charge           Charge          ....    0
 Multiplicity           Mult            ....    1
 Number of Electrons    NEL             ....  134
 Basis Dimension        Dim             ....  322

ORBITAL ENERGIES
----------------

  NO   OCC          E(Eh)            E(eV)
   0   2.0000     -88.968433     -2420.9541
   1   2.0000     -88.967323     -2420.9239
   2   2.0000     -10.329318      -281.0750
   3   2.0000     -10.328641      -281.0566
   4   2.0000     -10.318052      -280.7685
   5   2.0000     -10.317393      -280.7505
   6   2.0000     -10.308086      -280.4973
   7   2.0000     -10.300613      -280.2939
   8   2.0000     -10.299870      -280.2737
   9   2.0000     -10.298165      -280.2273
  10   2.0000     -10.296216      -280.1743
  11   2.0000     -10.292772      -280.0806
  12   2.0000     -10.289946      -280.0037
  13   2.0000     -10.289442      -279.9899
  14   2.0000     -10.285023      -279.8697
  15   2.0000     -10.278836      -279.7013
  16   2.0000      -8.082856      -219.9457
  17   2.0000      -8.080907      -219.8927
  18   2.0000      -6.041418      -164.3953
  19   2.0000      -6.039462      -164.3421
  20   2.0000      -6.037454      -164.2875
  21   2.0000      -6.035655      -164.2385
  22   2.0000      -6.033530      -164.1807
  23   2.0000      -6.031606      -164.1283
  24   2.0000      -1.000514       -27.2254
  25   2.0000      -0.977795       -26.6072
  26   2.0000      -0.910700       -24.7814
  27   2.0000      -0.901662       -24.5355
  28   2.0000      -0.864301       -23.5188
  29   2.0000      -0.845879       -23.0175
  30   2.0000      -0.839877       -22.8542
  31   2.0000      -0.809867       -22.0376
  32   2.0000      -0.789166       -21.4743
  33   2.0000      -0.774771       -21.0826
  34   2.0000      -0.708667       -19.2838
  35   2.0000      -0.702617       -19.1192
  36   2.0000      -0.695275       -18.9194
  37   2.0000      -0.649005       -17.6603
  38   2.0000      -0.635788       -17.3007
  39   2.0000      -0.612454       -16.6657
  40   2.0000      -0.596815       -16.2402
  41   2.0000      -0.570032       -15.5114
  42   2.0000      -0.558061       -15.1856
  43   2.0000      -0.544202       -14.8085
  44   2.0000      -0.535631       -14.5752
  45   2.0000      -0.533214       -14.5095
  46   2.0000      -0.515378       -14.0242
  47   2.0000      -0.503833       -13.7100
  48   2.0000      -0.499654       -13.5963
  49   2.0000      -0.492676       -13.4064
  50   2.0000      -0.490210       -13.3393
  51   2.0000      -0.474579       -12.9139
  52   2.0000      -0.472356       -12.8535
  53   2.0000      -0.470084       -12.7916
  54   2.0000      -0.459887       -12.5141
  55   2.0000      -0.450499       -12.2587
  56   2.0000      -0.448093       -12.1932
  57   2.0000      -0.441479       -12.0133
  58   2.0000      -0.437226       -11.8975
  59   2.0000      -0.430527       -11.7152
  60   2.0000      -0.420417       -11.4401
  61   2.0000      -0.413797       -11.2600
  62   2.0000      -0.411972       -11.2103
  63   2.0000      -0.342741        -9.3264
  64   2.0000      -0.332675        -9.0525
  65   2.0000      -0.327919        -8.9231
  66   2.0000      -0.290654        -7.9091
  67   0.0000       0.028583         0.7778
  68   0.0000       0.061433         1.6717
  69   0.0000       0.106569         2.8999
  70   0.0000       0.116991         3.1835
  71   0.0000       0.125163         3.4059

MULLIKEN ATOMIC CHARGES
-----------------------
   0 S :    0.106879
   1 C :   -0.139134
   2 C :   -0.089143
   3 C :    0.047715
   4 C :   -0.181094
   5 H :    0.004266
   6 C :    0.032056
   7 H :    0.029671
   8 H :    0.017985
   9 C :   -0.027701
  10 H :    0.027062
  11 H :    0.018244
  12 C :   -0.041200
  13 H :    0.034796
  14 H :    0.015124
  15 H :    0.052767
  16 S :    0.122735
  17 C :   -0.084763
  18 C :   -0.082711
  19 C :   -0.076712
  20 C :   -0.171386
  21 H :    0.040011
  22 C :    0.148452
  23 H :    0.061073
  24 H :   -0.003193
  25 C :   -0.113744
  26 H :    0.034265
  27 H :    0.032102
  28 C :   -0.052473
  29 H :    0.034995
  30 H :    0.042435
  31 H :    0.031117
  32 H :    0.063987
  33 H :    0.065519
Sum of atomic charges:    0.0000000

LOEWDIN ATOMIC CHARGES
----------------------
   0 S :    0.384012
   1 C :   -0.202434
   2 C :   -0.072206
   3 C :   -0.059921
   4 C :   -0.185716
   5 H :    0.027724
   6 C :   -0.027501
   7 H :    0.033303
   8 H :    0.026113
   9 C :   -0.031273
  10 H :    0.025545
  11 H :    0.014336
  12 C :   -0.063812
  13 H :    0.027252
  14 H :    0.021101
  15 H :    0.032211
  16 S :    0.410715
  17 C :   -0.206615
  18 C :   -0.079773
  19 C :   -0.053550
  20 C :   -0.197139
  21 H :    0.037604
  22 C :   -0.021727
  23 H :    0.045339
  24 H :    0.020561
  25 C :   -0.037205
  26 H :    0.014817
  27 H :    0.027699
  28 C :   -0.060605
  29 H :    0.017820
  30 H :    0.028138
  31 H :    0.028272
  32 H :    0.040590
  33 H :    0.036326

  Mayer bond orders larger than 0.100000
B(  0-S ,  1-C ) :   1.1372 B(  0-S ,  4-C ) :   1.1362 B(  1-C ,  2-C ) :   1.6220
B(  1-C ,  4-C ) :   0.1011 B(  1-C , 32-H ) :   0.9586 B(  2-C ,  3-C ) :   1.2519
B(  2-C ,  6-C ) :   0.9974 B(  3-C ,  4-C ) :   1.5776 B(  3-C ,  5-H ) :   0.9909
B(  4-C , 20-C ) :   1.0473 B(  6-C ,  7-H ) :   0.9448 B(  6-C ,  8-H ) :   0.9471
B(  6-C ,  9-C ) :   1.0595 B(  9-C , 10-H ) :   0.9562 B(  9-C , 11-H ) :   0.9605
B(  9-C , 12-C ) :   1.0586 B( 12-C , 13-H ) :   0.9745 B( 12-C , 14-H ) :   0.9755
B( 12-C , 15-H ) :   0.9781 B( 16-S , 17-C ) :   1.1472 B( 16-S , 20-C ) :   1.1567
B( 17-C , 18-C ) :   1.6161 B( 17-C , 33-H ) :   0.9600 B( 18-C , 19-C ) :   1.2439
B( 18-C , 21-H ) :   0.9714 B( 19-C , 20-C ) :   1.5800 B( 19-C , 22-C ) :   1.0294
B( 22-C , 23-H ) :   0.9311 B( 22-C , 24-H ) :   0.9243 B( 22-C , 25-C ) :   1.0742
B( 25-C , 26-H ) :   0.9566 B( 25-C , 27-H ) :   0.9581 B( 25-C , 28-C ) :   1.0654
B( 28-C , 29-H ) :   0.9763 B( 28-C , 30-H ) :   0.9753 B( 28-C , 31-H ) :   0.9748

Dispersion correction           -0.014779274
FINAL SINGLE POINT ENERGY     -1339.867059313076

DIPOLE MOMENT
-------------
                                X             Y             Z
Electronic contribution:     -9.49312      27.37478       3.69477
Nuclear contribution   :      9.62898     -28.10690      -3.90982
                        -----------------------------------------
Total Dipole Moment    :      0.13587      -0.73213      -0.21505
                        -----------------------------------------
Magnitude (a.u.)       :      0.77506
Magnitude (Debye)      :      1.97005

Rotational constants in cm-1:     0.017834     0.009476     0.006752
Rotational constants in MHz :   534.652183   284.095573   202.407597

                             ****ORCA TERMINATED NORMALLY****
TOTAL RUN TIME: 0 days 0 hours 0 minutes 33 seconds 708 msec
