                         Program Version 4.2.1 -  RELEASE  -
|  1> ! wB97X-D3 SP def2-SVP
|  2> %pal
|  3> nprocs 16
|  4> end
|  5>
|  6> * xyz 0 1
|  7> S 	 7.91968 	 24.749 	 39.1274
|  8> C 	 6.1851 	 24.7857 	 39.1271
|  9> C 	 5.73298 	 23.4796 	 39.0663
| 10> C 	 6.71891 	 22.4491 	 39.2208
| 11> C 	 7.99597 	 23.0343 	 39.3548
| 12> H 	 6.5527 	 21.3899 	 39.3544
| 13> C 	 4.30268 	 23.051 	 38.891
| 14> H 	 3.72717 	 23.8128 	 39.4867
| 15> H 	 4.00839 	 22.2087 	 39.4436
| 16> C 	 3.75398 	 22.8615 	 37.5126
| 17> H 	 3.94023 	 23.7883 	 36.9714
| 18> H 	 4.3149 	 22.1339 	 36.9091
| 19> C 	 2.22952 	 22.5479 	 37.6915
| 20> H 	 2.13132 	 21.4387 	 37.6875
| 21> H 	 1.82274 	 22.9389 	 38.609
| 22> H 	 1.69673 	 22.9518 	 36.8494
| 23> S 	 10.0924 	 22.9018 	 41.1143
| 24> C 	 11.4024 	 21.6885 	 40.9239
| 25> C 	 10.9899 	 20.7772 	 39.9402
| 26> C 	 9.68016 	 21.0563 	 39.391
| 27> C 	 9.19385 	 22.3223 	 39.743
| 28> H 	 11.5377 	 19.894 	 39.6402
| 29> C 	 9.02435 	 20.2592 	 38.2856
| 30> H 	 9.9313 	 19.9955 	 37.676
| 31> H 	 8.39629 	 20.8318 	 37.6736
| 32> C 	 8.35633 	 19.0006 	 38.7984
| 33> H 	 7.66267 	 19.2915 	 39.5542
| 34> H 	 9.07223 	 18.3688 	 39.2308
| 35> C 	 7.60254 	 18.2907 	 37.7405
| 36> H 	 8.11915 	 17.9137 	 36.8644
| 37> H 	 6.64948 	 18.7177 	 37.5112
| 38> H 	 7.44631 	 17.2993 	 38.2452
| 39> H 	 5.65831 	 25.7021 	 39.0303
| 40> H 	 12.2635 	 21.5608 	 41.5795
| 41> *
| 42>
| 43>                          ****END OF INPUT****

CARTESIAN COORDINATES (ANGSTROEM)
---------------------------------
  S      7.919680   24.749000   39.127400
  C      6.185100   24.785700   39.127100
  C      5.732980   23.479600   39.066300
  C      6.718910   22.449100   39.220800
  C      7.995970   23.034300   39.354800
  H      6.552700   21.389900   39.354400
  C      4.302680   23.051000   38.891000
  H      3.727170   23.812800   39.486700
  H      4.008390   22.208700   39.443600
  C      3.753980   22.861500   37.512600
  H      3.940230   23.788300   36.971400
  H      4.314900   22.133900   36.909100
  C      2.229520   22.547900   37.691500
  H      2.131320   21.438700   37.687500
  H      1.822740   22.938900   38.609000
  H      1.696730   22.951800   36.849400
  S     10.092400   22.901800   41.114300
  C     11.402400   21.688500   40.923900
  C     10.989900   20.777200   39.940200
  C      9.680160   21.056300   39.391000
  C      9.193850   22.322300   39.743000
  H     11.537700   19.894000   39.640200
  C      9.024350   20.259200   38.285600
  H      9.931300   19.995500   37.676000
  H      8.396290   20.831800   37.673600
  C      8.356330   19.000600   38.798400
  H      7.662670   19.291500   39.554200
  H      9.072230   18.368800   39.230800
  C      7.602540   18.290700   37.740500
  H      8.119150   17.913700   36.864400
  H      6.649480   18.717700   37.511200
  H      7.446310   17.299300   38.245200
  H      5.658310   25.702100   39.030300
  H     12.263500   21.560800   41.579500

 Total Charge           Charge          ....    0
 Multiplicity           Mult            ....    1
 Number of Electrons    NEL             ....  134
 Basis Dimension        Dim             ....  322

ORBITAL ENERGIES
----------------

  NO   OCC          E(Eh)            E(eV)
   0   2.0000     -88.967837     -2420.9379
   1   2.0000     -88.962033     -2420.7800
   2   2.0000     -10.331564      -281.1361
   3   2.0000     -10.324689      -280.9491
   4   2.0000     -10.324469      -280.9431
   5   2.0000     -10.314332      -280.6673
   6   2.0000     -10.302234      -280.3380
   7   2.0000     -10.301599      -280.3208
   8   2.0000     -10.300220      -280.2832
   9   2.0000     -10.297050      -280.1970
  10   2.0000     -10.285837      -279.8919
  11   2.0000     -10.282949      -279.8133
  12   2.0000     -10.282920      -279.8125
  13   2.0000     -10.281211      -279.7660
  14   2.0000     -10.277110      -279.6544
  15   2.0000     -10.275150      -279.6011
  16   2.0000      -8.083036      -219.9506
  17   2.0000      -8.076214      -219.7650
  18   2.0000      -6.041481      -164.3971
  19   2.0000      -6.037375      -164.2853
  20   2.0000      -6.034894      -164.2178
  21   2.0000      -6.033938      -164.1918
  22   2.0000      -6.030674      -164.1030
  23   2.0000      -6.026925      -164.0010
  24   2.0000      -1.007367       -27.4118
  25   2.0000      -0.981599       -26.7107
  26   2.0000      -0.919194       -25.0126
  27   2.0000      -0.915606       -24.9149
  28   2.0000      -0.870570       -23.6894
  29   2.0000      -0.854016       -23.2390
  30   2.0000      -0.846954       -23.0468
  31   2.0000      -0.813160       -22.1272
  32   2.0000      -0.778194       -21.1757
  33   2.0000      -0.769207       -20.9312
  34   2.0000      -0.707317       -19.2471
  35   2.0000      -0.704368       -19.1668
  36   2.0000      -0.698909       -19.0183
  37   2.0000      -0.665420       -18.1070
  38   2.0000      -0.648138       -17.6367
  39   2.0000      -0.618219       -16.8226
  40   2.0000      -0.596766       -16.2388
  41   2.0000      -0.578158       -15.7325
  42   2.0000      -0.573839       -15.6150
  43   2.0000      -0.555563       -15.1176
  44   2.0000      -0.530877       -14.4459
  45   2.0000      -0.524343       -14.2681
  46   2.0000      -0.520347       -14.1594
  47   2.0000      -0.517885       -14.0924
  48   2.0000      -0.510469       -13.8906
  49   2.0000      -0.500879       -13.6296
  50   2.0000      -0.495012       -13.4700
  51   2.0000      -0.484893       -13.1946
  52   2.0000      -0.474446       -12.9103
  53   2.0000      -0.468286       -12.7427
  54   2.0000      -0.460925       -12.5424
  55   2.0000      -0.451985       -12.2991
  56   2.0000      -0.449409       -12.2290
  57   2.0000      -0.439835       -11.9685
  58   2.0000      -0.434708       -11.8290
  59   2.0000      -0.422207       -11.4888
  60   2.0000      -0.416148       -11.3239
  61   2.0000      -0.404113       -10.9965
  62   2.0000      -0.400512       -10.8985
  63   2.0000      -0.349794        -9.5184
  64   2.0000      -0.330348        -8.9892
  65   2.0000      -0.323331        -8.7983
  66   2.0000      -0.289062        -7.8658
  67   0.0000       0.021266         0.5787
  68   0.0000       0.074613         2.0303
  69   0.0000       0.114842         3.1250
  70   0.0000       0.118080         3.2131
  71   0.0000       0.126113         3.4317

MULLIKEN ATOMIC CHARGES
-----------------------
   0 S :    0.120595
   1 C :   -0.111034
   2 C :   -0.063303
   3 C :    0.034754
   4 C :   -0.154529
   5 H :    0.007462
   6 C :    0.014072
   7 H :    0.021512
   8 H :    0.001427
   9 C :   -0.046464
  10 H :    0.017788
  11 H :    0.029038
  12 C :   -0.039890
  13 H :    0.041256
  14 H :    0.032744
  15 H :    0.035172
  16 S :    0.096338
  17 C :   -0.097459
  18 C :   -0.016633
  19 C :   -0.053459
  20 C :   -0.134996
  21 H :    0.019088
  22 C :    0.044245
  23 H :    0.028062
  24 H :    0.013561
  25 C :   -0.041202
  26 H :    0.019537
  27 H :    0.010153
  28 C :   -0.023725
  29 H :    0.027667
  30 H :    0.033190
  31 H :    0.021426
  32 H :    0.044637
  33 H :    0.068969
Sum of atomic charges:   -0.0000000

LOEWDIN ATOMIC CHARGES
----------------------
   0 S :    0.428867
   1 C :   -0.198456
   2 C :   -0.060320
   3 C :   -0.059143
   4 C :   -0.198964
   5 H :    0.031207
   6 C :   -0.044981
   7 H :    0.034008
   8 H :    0.018816
   9 C :   -0.038895
  10 H :    0.019701
  11 H :    0.025072
  12 C :   -0.057876
  13 H :    0.032113
  14 H :    0.022851
  15 H :    0.025431
  16 S :    0.393884
  17 C :   -0.178875
  18 C :   -0.068479
  19 C :   -0.057125
  20 C :   -0.203799
  21 H :    0.029492
  22 C :   -0.031297
  23 H :    0.036085
  24 H :    0.019057
  25 C :   -0.035613
  26 H :    0.021485
  27 H :    0.018633
  28 C :   -0.065901
  29 H :    0.025321
  30 H :    0.021509
  31 H :    0.036117
  32 H :    0.025180
  33 H :    0.034893

  Mayer bond orders larger than 0.100000
B(  0-S ,  1-C ) :   1.1341 B(  0-S ,  4-C ) :   1.1829 B(  1-C ,  2-C ) :   1.5737
B(  1-C , 32-H ) :   0.9830 B(  2-C ,  3-C ) :   1.2623 B(  2-C ,  6-C ) :   1.0208
B(  3-C ,  4-C ) :   1.5074 B(  3-C ,  5-H ) :   0.9956 B(  4-C , 20-C ) :   1.0597
B(  6-C ,  7-H ) :   0.9400 B(  6-C ,  8-H ) :   0.9423 B(  6-C ,  9-C ) :   1.0632
B(  9-C , 10-H ) :   0.9573 B(  9-C , 11-H ) :   0.9558 B(  9-C , 12-C ) :   1.0561
B( 12-C , 13-H ) :   0.9766 B( 12-C , 14-H ) :   0.9776 B( 12-C , 15-H ) :   0.9766
B( 16-S , 17-C ) :   1.1437 B( 16-S , 20-C ) :   1.1446 B( 17-C , 18-C ) :   1.5805
B( 17-C , 20-C ) :   0.1054 B( 17-C , 33-H ) :   0.9707 B( 18-C , 19-C ) :   1.2638
B( 18-C , 21-H ) :   0.9830 B( 19-C , 20-C ) :   1.5561 B( 19-C , 22-C ) :   1.0464
B( 22-C , 23-H ) :   0.9357 B( 22-C , 24-H ) :   0.9422 B( 22-C , 25-C ) :   1.0612
B( 25-C , 26-H ) :   0.9475 B( 25-C , 27-H ) :   0.9517 B( 25-C , 28-C ) :   1.1024
B( 28-C , 29-H ) :   0.9695 B( 28-C , 30-H ) :   0.9725 B( 28-C , 31-H ) :   0.9685

Dispersion correction           -0.014050280
FINAL SINGLE POINT ENERGY     -1339.861498206726

DIPOLE MOMENT
-------------
                                X             Y             Z
Electronic contribution:     22.15684      19.18047      12.85420
Nuclear contribution   :    -22.56737     -19.75713     -13.07078
                        -----------------------------------------
Total Dipole Moment    :     -0.41053      -0.57666      -0.21658
                        -----------------------------------------
Magnitude (a.u.)       :      0.74026
Magnitude (Debye)      :      1.88158

Rotational constants in cm-1:     0.018331     0.009002     0.006390
Rotational constants in MHz :   549.550952   269.883078   191.563038

                             ****ORCA TERMINATED NORMALLY****
TOTAL RUN TIME: 0 days 0 hours 0 minutes 33 seconds 268 msec
