                         Program Version 4.2.1 -  RELEASE  -
|  1> ! wB97X-D3 SP def2-SVP
|  2> %pal
|  3> nprocs 16
|  4> end
|  5>
|  6> * xyz 0 1
|  7> S 	 42.9812 	 12.8432 	 101.046
|  8> C 	 43.7629 	 14.374 	 101.532
|  9> C 	 45.0728 	 14.0864 	 101.904
| 10> C 	 45.5355 	 12.8615 	 101.321
| 11> C 	 44.5501 	 12.0111 	 100.918
| 12> H 	 46.539 	 12.4781 	 101.458
| 13> C 	 46.0585 	 15.1159 	 102.517
| 14> H 	 45.5151 	 15.9215 	 102.92
| 15> H 	 46.608 	 15.7742 	 101.793
| 16> C 	 46.9805 	 14.5691 	 103.618
| 17> H 	 47.3685 	 13.6605 	 103.212
| 18> H 	 47.8283 	 15.2324 	 103.845
| 19> C 	 46.3142 	 14.1857 	 104.956
| 20> H 	 45.6847 	 13.3047 	 104.814
| 21> H 	 47.0556 	 13.8631 	 105.6
| 22> H 	 45.74 	 14.9983 	 105.43
| 23> S 	 44.0836 	 9.43051 	 101.589
| 24> C 	 44.5489 	 8.02136 	 100.658
| 25> C 	 45.2486 	 8.48446 	 99.5296
| 26> C 	 45.3436 	 9.94264 	 99.4383
| 27> C 	 44.7434 	 10.6061 	 100.52
| 28> H 	 45.6372 	 7.72694 	 98.8457
| 29> C 	 45.8971 	 10.7668 	 98.3065
| 30> H 	 46.6557 	 11.3695 	 98.818
| 31> H 	 45.1756 	 11.5477 	 97.9583
| 32> C 	 46.6209 	 9.95907 	 97.1962
| 33> H 	 47.2207 	 9.12734 	 97.5411
| 34> H 	 47.3311 	 10.5023 	 96.6167
| 35> C 	 45.6118 	 9.37541 	 96.2259
| 36> H 	 46.0365 	 8.6998 	 95.478
| 37> H 	 45.0268 	 10.1023 	 95.6581
| 38> H 	 44.9031 	 8.77847 	 96.7258
| 39> H 	 43.2361 	 15.2172 	 101.68
| 40> H 	 44.4518 	 6.92774 	 100.875
| 41> *
| 42>
| 43>                          ****END OF INPUT****

CARTESIAN COORDINATES (ANGSTROEM)
---------------------------------
  S     42.981200   12.843200  101.046000
  C     43.762900   14.374000  101.532000
  C     45.072800   14.086400  101.904000
  C     45.535500   12.861500  101.321000
  C     44.550100   12.011100  100.918000
  H     46.539000   12.478100  101.458000
  C     46.058500   15.115900  102.517000
  H     45.515100   15.921500  102.920000
  H     46.608000   15.774200  101.793000
  C     46.980500   14.569100  103.618000
  H     47.368500   13.660500  103.212000
  H     47.828300   15.232400  103.845000
  C     46.314200   14.185700  104.956000
  H     45.684700   13.304700  104.814000
  H     47.055600   13.863100  105.600000
  H     45.740000   14.998300  105.430000
  S     44.083600    9.430510  101.589000
  C     44.548900    8.021360  100.658000
  C     45.248600    8.484460   99.529600
  C     45.343600    9.942640   99.438300
  C     44.743400   10.606100  100.520000
  H     45.637200    7.726940   98.845700
  C     45.897100   10.766800   98.306500
  H     46.655700   11.369500   98.818000
  H     45.175600   11.547700   97.958300
  C     46.620900    9.959070   97.196200
  H     47.220700    9.127340   97.541100
  H     47.331100   10.502300   96.616700
  C     45.611800    9.375410   96.225900
  H     46.036500    8.699800   95.478000
  H     45.026800   10.102300   95.658100
  H     44.903100    8.778470   96.725800
  H     43.236100   15.217200  101.680000
  H     44.451800    6.927740  100.875000

 Total Charge           Charge          ....    0
 Multiplicity           Mult            ....    1
 Number of Electrons    NEL             ....  134
 Basis Dimension        Dim             ....  322

ORBITAL ENERGIES
----------------

  NO   OCC          E(Eh)            E(eV)
   0   2.0000     -88.967489     -2420.9285
   1   2.0000     -88.963655     -2420.8241
   2   2.0000     -10.335879      -281.2536
   3   2.0000     -10.326514      -280.9987
   4   2.0000     -10.324061      -280.9320
   5   2.0000     -10.317547      -280.7547
   6   2.0000     -10.310369      -280.5594
   7   2.0000     -10.310269      -280.5567
   8   2.0000     -10.301620      -280.3213
   9   2.0000     -10.296012      -280.1687
  10   2.0000     -10.294182      -280.1189
  11   2.0000     -10.293292      -280.0947
  12   2.0000     -10.286575      -279.9119
  13   2.0000     -10.283324      -279.8235
  14   2.0000     -10.271157      -279.4924
  15   2.0000     -10.266911      -279.3769
  16   2.0000      -8.081291      -219.9031
  17   2.0000      -8.078580      -219.8293
  18   2.0000      -6.039943      -164.3552
  19   2.0000      -6.037189      -164.2803
  20   2.0000      -6.035983      -164.2474
  21   2.0000      -6.032687      -164.1577
  22   2.0000      -6.031866      -164.1354
  23   2.0000      -6.029569      -164.0729
  24   2.0000      -1.005301       -27.3556
  25   2.0000      -0.982561       -26.7369
  26   2.0000      -0.908356       -24.7176
  27   2.0000      -0.907227       -24.6869
  28   2.0000      -0.871794       -23.7227
  29   2.0000      -0.846202       -23.0263
  30   2.0000      -0.842013       -22.9123
  31   2.0000      -0.820977       -22.3399
  32   2.0000      -0.784455       -21.3461
  33   2.0000      -0.770961       -20.9789
  34   2.0000      -0.711293       -19.3553
  35   2.0000      -0.702637       -19.1197
  36   2.0000      -0.696631       -18.9563
  37   2.0000      -0.651284       -17.7223
  38   2.0000      -0.650655       -17.7052
  39   2.0000      -0.627127       -17.0650
  40   2.0000      -0.593821       -16.1587
  41   2.0000      -0.572768       -15.5858
  42   2.0000      -0.551188       -14.9986
  43   2.0000      -0.546773       -14.8785
  44   2.0000      -0.536016       -14.5857
  45   2.0000      -0.532246       -14.4832
  46   2.0000      -0.525088       -14.2884
  47   2.0000      -0.519996       -14.1498
  48   2.0000      -0.507832       -13.8188
  49   2.0000      -0.496633       -13.5141
  50   2.0000      -0.486979       -13.2514
  51   2.0000      -0.478307       -13.0154
  52   2.0000      -0.472344       -12.8531
  53   2.0000      -0.468365       -12.7449
  54   2.0000      -0.461579       -12.5602
  55   2.0000      -0.445861       -12.1325
  56   2.0000      -0.438483       -11.9317
  57   2.0000      -0.434758       -11.8304
  58   2.0000      -0.433139       -11.7863
  59   2.0000      -0.421995       -11.4831
  60   2.0000      -0.417637       -11.3645
  61   2.0000      -0.415881       -11.3167
  62   2.0000      -0.410613       -11.1733
  63   2.0000      -0.343571        -9.3490
  64   2.0000      -0.329830        -8.9751
  65   2.0000      -0.324166        -8.8210
  66   2.0000      -0.299799        -8.1579
  67   0.0000       0.033754         0.9185
  68   0.0000       0.052902         1.4395
  69   0.0000       0.106957         2.9105
  70   0.0000       0.125433         3.4132
  71   0.0000       0.126231         3.4349

MULLIKEN ATOMIC CHARGES
-----------------------
   0 S :    0.104910
   1 C :   -0.073953
   2 C :   -0.075096
   3 C :    0.035989
   4 C :   -0.143922
   5 H :    0.026809
   6 C :    0.076145
   7 H :   -0.012762
   8 H :    0.041666
   9 C :   -0.085657
  10 H :    0.013149
  11 H :    0.033673
  12 C :   -0.031172
  13 H :    0.036399
  14 H :    0.017446
  15 H :    0.035498
  16 S :    0.107275
  17 C :   -0.107671
  18 C :   -0.068280
  19 C :   -0.034128
  20 C :   -0.175370
  21 H :    0.029253
  22 C :    0.053084
  23 H :    0.027766
  24 H :    0.056718
  25 C :   -0.031438
  26 H :    0.020967
  27 H :    0.018110
  28 C :   -0.048016
  29 H :    0.024233
  30 H :    0.025174
  31 H :    0.011171
  32 H :    0.013770
  33 H :    0.078259
Sum of atomic charges:   -0.0000000

LOEWDIN ATOMIC CHARGES
----------------------
   0 S :    0.380520
   1 C :   -0.152058
   2 C :   -0.054650
   3 C :   -0.059373
   4 C :   -0.188389
   5 H :    0.032387
   6 C :   -0.040462
   7 H :    0.018650
   8 H :    0.041280
   9 C :   -0.039573
  10 H :    0.017420
  11 H :    0.027478
  12 C :   -0.059330
  13 H :    0.029020
  14 H :    0.017360
  15 H :    0.026214
  16 S :    0.426032
  17 C :   -0.203087
  18 C :   -0.082300
  19 C :   -0.055025
  20 C :   -0.214504
  21 H :    0.032558
  22 C :   -0.036453
  23 H :    0.036659
  24 H :    0.043823
  25 C :   -0.039047
  26 H :    0.025618
  27 H :    0.021537
  28 C :   -0.066203
  29 H :    0.024219
  30 H :    0.023921
  31 H :    0.014257
  32 H :    0.004267
  33 H :    0.047233

  Mayer bond orders larger than 0.100000
B(  0-S ,  1-C ) :   1.1381 B(  0-S ,  4-C ) :   1.1266 B(  1-C ,  2-C ) :   1.6022
B(  1-C ,  4-C ) :   0.1011 B(  1-C , 32-H ) :   0.9873 B(  2-C ,  3-C ) :   1.2178
B(  2-C ,  6-C ) :   1.0256 B(  3-C ,  4-C ) :   1.6186 B(  3-C ,  5-H ) :   0.9782
B(  4-C , 20-C ) :   1.0240 B(  6-C ,  7-H ) :   0.9351 B(  6-C ,  8-H ) :   0.9424
B(  6-C ,  9-C ) :   1.0611 B(  9-C , 10-H ) :   0.9592 B(  9-C , 11-H ) :   0.9569
B(  9-C , 12-C ) :   1.0846 B( 12-C , 13-H ) :   0.9742 B( 12-C , 14-H ) :   0.9717
B( 12-C , 15-H ) :   0.9759 B( 16-S , 17-C ) :   1.1672 B( 16-S , 20-C ) :   1.1630
B( 17-C , 18-C ) :   1.5875 B( 17-C , 20-C ) :   0.1063 B( 17-C , 33-H ) :   0.9612
B( 18-C , 19-C ) :   1.2476 B( 18-C , 21-H ) :   0.9840 B( 19-C , 20-C ) :   1.5750
B( 19-C , 22-C ) :   1.0299 B( 22-C , 23-H ) :   0.9262 B( 22-C , 24-H ) :   0.9388
B( 22-C , 25-C ) :   1.0718 B( 25-C , 26-H ) :   0.9527 B( 25-C , 27-H ) :   0.9560
B( 25-C , 28-C ) :   1.0775 B( 28-C , 29-H ) :   0.9731 B( 28-C , 30-H ) :   0.9736
B( 28-C , 31-H ) :   0.9754

Dispersion correction           -0.014155123
FINAL SINGLE POINT ENERGY     -1339.855945173270

DIPOLE MOMENT
-------------
                                X             Y             Z
Electronic contribution:    -16.44305      -5.83418       4.61075
Nuclear contribution   :     17.01264       6.03956      -4.66040
                        -----------------------------------------
Total Dipole Moment    :      0.56958       0.20539      -0.04964
                        -----------------------------------------
Magnitude (a.u.)       :      0.60751
Magnitude (Debye)      :      1.54418

Rotational constants in cm-1:     0.021027     0.007414     0.006926
Rotational constants in MHz :   630.360519   222.259150   207.634505

                             ****ORCA TERMINATED NORMALLY****
TOTAL RUN TIME: 0 days 0 hours 0 minutes 29 seconds 612 msec
