                         Program Version 4.2.1 -  RELEASE  -
|  1> ! wB97X-D3 SP def2-SVP
|  2> %pal
|  3> nprocs 16
|  4> end
|  5>
|  6> * xyz 0 1
|  7> S 	 -18.257 	 33.528 	 35.9153
|  8> C 	 -19.2176 	 34.2308 	 34.6956
|  9> C 	 -20.551 	 34.0802 	 34.8747
| 10> C 	 -20.7478 	 33.5678 	 36.1615
| 11> C 	 -19.6933 	 33.0781 	 36.8437
| 12> H 	 -21.6888 	 33.4415 	 36.5161
| 13> C 	 -21.634 	 34.743 	 34.05
| 14> H 	 -21.182 	 35.4586 	 33.3904
| 15> H 	 -22.2603 	 35.4109 	 34.616
| 16> C 	 -22.5951 	 33.653 	 33.4035
| 17> H 	 -22.1002 	 32.9805 	 32.705
| 18> H 	 -23.1233 	 33.1105 	 34.1021
| 19> C 	 -23.5952 	 34.3714 	 32.5243
| 20> H 	 -24.1975 	 35.0947 	 33.0905
| 21> H 	 -23.1913 	 34.949 	 31.6353
| 22> H 	 -24.1643 	 33.5166 	 32.1585
| 23> S 	 -20.4141 	 33.4482 	 39.4989
| 24> C 	 -19.8393 	 32.2939 	 40.7035
| 25> C 	 -19.2396 	 31.2243 	 40.0413
| 26> C 	 -19.0983 	 31.3879 	 38.6136
| 27> C 	 -19.6867 	 32.5742 	 38.1925
| 28> H 	 -18.9252 	 30.3297 	 40.6748
| 29> C 	 -18.6973 	 30.2386 	 37.6645
| 30> H 	 -18.3417 	 29.3816 	 38.2918
| 31> H 	 -17.8795 	 30.6415 	 36.9979
| 32> C 	 -19.9245 	 29.8122 	 36.8152
| 33> H 	 -19.5611 	 29.2789 	 35.8937
| 34> H 	 -20.433 	 30.728 	 36.3895
| 35> C 	 -20.9394 	 29.008 	 37.7027
| 36> H 	 -21.3904 	 29.7391 	 38.4678
| 37> H 	 -20.3414 	 28.1561 	 38.2326
| 38> H 	 -21.721 	 28.7707 	 37.1527
| 39> H 	 -18.8817 	 34.9708 	 33.8549
| 40> H 	 -19.983 	 32.3845 	 41.7875
| 41> *
| 42>
| 43>                          ****END OF INPUT****

CARTESIAN COORDINATES (ANGSTROEM)
---------------------------------
  S    -18.257000   33.528000   35.915300
  C    -19.217600   34.230800   34.695600
  C    -20.551000   34.080200   34.874700
  C    -20.747800   33.567800   36.161500
  C    -19.693300   33.078100   36.843700
  H    -21.688800   33.441500   36.516100
  C    -21.634000   34.743000   34.050000
  H    -21.182000   35.458600   33.390400
  H    -22.260300   35.410900   34.616000
  C    -22.595100   33.653000   33.403500
  H    -22.100200   32.980500   32.705000
  H    -23.123300   33.110500   34.102100
  C    -23.595200   34.371400   32.524300
  H    -24.197500   35.094700   33.090500
  H    -23.191300   34.949000   31.635300
  H    -24.164300   33.516600   32.158500
  S    -20.414100   33.448200   39.498900
  C    -19.839300   32.293900   40.703500
  C    -19.239600   31.224300   40.041300
  C    -19.098300   31.387900   38.613600
  C    -19.686700   32.574200   38.192500
  H    -18.925200   30.329700   40.674800
  C    -18.697300   30.238600   37.664500
  H    -18.341700   29.381600   38.291800
  H    -17.879500   30.641500   36.997900
  C    -19.924500   29.812200   36.815200
  H    -19.561100   29.278900   35.893700
  H    -20.433000   30.728000   36.389500
  C    -20.939400   29.008000   37.702700
  H    -21.390400   29.739100   38.467800
  H    -20.341400   28.156100   38.232600
  H    -21.721000   28.770700   37.152700
  H    -18.881700   34.970800   33.854900
  H    -19.983000   32.384500   41.787500

 Total Charge           Charge          ....    0
 Multiplicity           Mult            ....    1
 Number of Electrons    NEL             ....  134
 Basis Dimension        Dim             ....  322

ORBITAL ENERGIES
----------------

  NO   OCC          E(Eh)            E(eV)
   0   2.0000     -88.967244     -2420.9218
   1   2.0000     -88.966461     -2420.9005
   2   2.0000     -10.323207      -280.9087
   3   2.0000     -10.322940      -280.9015
   4   2.0000     -10.320872      -280.8452
   5   2.0000     -10.315191      -280.6906
   6   2.0000     -10.301959      -280.3306
   7   2.0000     -10.301287      -280.3123
   8   2.0000     -10.298396      -280.2336
   9   2.0000     -10.294600      -280.1303
  10   2.0000     -10.290780      -280.0264
  11   2.0000     -10.288674      -279.9690
  12   2.0000     -10.285756      -279.8897
  13   2.0000     -10.281158      -279.7645
  14   2.0000     -10.279214      -279.7116
  15   2.0000     -10.278448      -279.6908
  16   2.0000      -8.081743      -219.9154
  17   2.0000      -8.081548      -219.9101
  18   2.0000      -6.040321      -164.3655
  19   2.0000      -6.040060      -164.3584
  20   2.0000      -6.036211      -164.2536
  21   2.0000      -6.036025      -164.2486
  22   2.0000      -6.032522      -164.1533
  23   2.0000      -6.032242      -164.1456
  24   2.0000      -1.014341       -27.6016
  25   2.0000      -0.987837       -26.8804
  26   2.0000      -0.913240       -24.8505
  27   2.0000      -0.899434       -24.4748
  28   2.0000      -0.873998       -23.7827
  29   2.0000      -0.856247       -23.2997
  30   2.0000      -0.837428       -22.7876
  31   2.0000      -0.815319       -22.1860
  32   2.0000      -0.779862       -21.2211
  33   2.0000      -0.768046       -20.8996
  34   2.0000      -0.710111       -19.3231
  35   2.0000      -0.698755       -19.0141
  36   2.0000      -0.680818       -18.5260
  37   2.0000      -0.661510       -18.0006
  38   2.0000      -0.639567       -17.4035
  39   2.0000      -0.623309       -16.9611
  40   2.0000      -0.583966       -15.8905
  41   2.0000      -0.574957       -15.6454
  42   2.0000      -0.560124       -15.2418
  43   2.0000      -0.555563       -15.1176
  44   2.0000      -0.538828       -14.6623
  45   2.0000      -0.535497       -14.5716
  46   2.0000      -0.514289       -13.9945
  47   2.0000      -0.509709       -13.8699
  48   2.0000      -0.502215       -13.6660
  49   2.0000      -0.497411       -13.5352
  50   2.0000      -0.476989       -12.9795
  51   2.0000      -0.474142       -12.9021
  52   2.0000      -0.470425       -12.8009
  53   2.0000      -0.462341       -12.5810
  54   2.0000      -0.459748       -12.5104
  55   2.0000      -0.449574       -12.2335
  56   2.0000      -0.440730       -11.9929
  57   2.0000      -0.434332       -11.8188
  58   2.0000      -0.430116       -11.7041
  59   2.0000      -0.428269       -11.6538
  60   2.0000      -0.422792       -11.5048
  61   2.0000      -0.413691       -11.2571
  62   2.0000      -0.407439       -11.0870
  63   2.0000      -0.345683        -9.4065
  64   2.0000      -0.333290        -9.0693
  65   2.0000      -0.328129        -8.9289
  66   2.0000      -0.291786        -7.9399
  67   0.0000       0.034937         0.9507
  68   0.0000       0.062162         1.6915
  69   0.0000       0.108329         2.9478
  70   0.0000       0.120323         3.2742
  71   0.0000       0.134793         3.6679

MULLIKEN ATOMIC CHARGES
-----------------------
   0 S :    0.122989
   1 C :   -0.156539
   2 C :   -0.054291
   3 C :    0.033237
   4 C :   -0.123841
   5 H :   -0.039728
   6 C :    0.063592
   7 H :    0.004768
   8 H :    0.019569
   9 C :   -0.053028
  10 H :    0.034502
  11 H :    0.021601
  12 C :   -0.069804
  13 H :    0.029081
  14 H :    0.041672
  15 H :    0.033663
  16 S :    0.121811
  17 C :   -0.120607
  18 C :   -0.055638
  19 C :   -0.045380
  20 C :   -0.167854
  21 H :    0.044129
  22 C :    0.053077
  23 H :    0.030464
  24 H :    0.043618
  25 C :   -0.115154
  26 H :    0.037024
  27 H :    0.048466
  28 C :   -0.026107
  29 H :    0.048868
  30 H :    0.047618
  31 H :    0.003215
  32 H :    0.076092
  33 H :    0.068916
Sum of atomic charges:    0.0000000

LOEWDIN ATOMIC CHARGES
----------------------
   0 S :    0.417886
   1 C :   -0.215821
   2 C :   -0.077499
   3 C :   -0.050496
   4 C :   -0.190111
   5 H :    0.009184
   6 C :   -0.023640
   7 H :    0.025888
   8 H :    0.029407
   9 C :   -0.025907
  10 H :    0.028270
  11 H :    0.015163
  12 C :   -0.069893
  13 H :    0.020208
  14 H :    0.029519
  15 H :    0.027620
  16 S :    0.413880
  17 C :   -0.194149
  18 C :   -0.079961
  19 C :   -0.063088
  20 C :   -0.209100
  21 H :    0.041824
  22 C :   -0.035527
  23 H :    0.031183
  24 H :    0.034246
  25 C :   -0.048413
  26 H :    0.024752
  27 H :    0.031795
  28 C :   -0.060784
  29 H :    0.039811
  30 H :    0.036367
  31 H :   -0.000301
  32 H :    0.051247
  33 H :    0.036440

  Mayer bond orders larger than 0.100000
B(  0-S ,  1-C ) :   1.1632 B(  0-S ,  4-C ) :   1.1141 B(  1-C ,  2-C ) :   1.6156
B(  1-C , 32-H ) :   0.9416 B(  2-C ,  3-C ) :   1.2481 B(  2-C ,  6-C ) :   1.0284
B(  3-C ,  4-C ) :   1.5666 B(  3-C ,  5-H ) :   1.0146 B(  4-C , 20-C ) :   1.0751
B(  6-C ,  7-H ) :   0.9470 B(  6-C ,  8-H ) :   0.9450 B(  6-C ,  9-C ) :   1.0433
B(  9-C , 10-H ) :   0.9608 B(  9-C , 11-H ) :   0.9596 B(  9-C , 12-C ) :   1.0818
B( 12-C , 13-H ) :   0.9733 B( 12-C , 14-H ) :   0.9768 B( 12-C , 15-H ) :   0.9757
B( 16-S , 17-C ) :   1.1490 B( 16-S , 20-C ) :   1.1494 B( 17-C , 18-C ) :   1.6024
B( 17-C , 20-C ) :   0.1005 B( 17-C , 33-H ) :   0.9680 B( 18-C , 19-C ) :   1.2557
B( 18-C , 21-H ) :   0.9750 B( 19-C , 20-C ) :   1.5494 B( 19-C , 22-C ) :   1.0405
B( 22-C , 23-H ) :   0.9455 B( 22-C , 24-H ) :   0.9244 B( 22-C , 25-C ) :   1.0628
B( 25-C , 26-H ) :   0.9566 B( 25-C , 27-H ) :   0.9512 B( 25-C , 28-C ) :   1.0604
B( 28-C , 29-H ) :   0.9717 B( 28-C , 30-H ) :   0.9748 B( 28-C , 31-H ) :   0.9727

Dispersion correction           -0.015209998
FINAL SINGLE POINT ENERGY     -1339.846857481267

DIPOLE MOMENT
-------------
                                X             Y             Z
Electronic contribution:     14.92232       9.46149      15.68987
Nuclear contribution   :    -15.35170      -9.51482     -15.92214
                        -----------------------------------------
Total Dipole Moment    :     -0.42938      -0.05333      -0.23228
                        -----------------------------------------
Magnitude (a.u.)       :      0.49108
Magnitude (Debye)      :      1.24823

Rotational constants in cm-1:     0.020732     0.007980     0.007582
Rotational constants in MHz :   621.536503   239.242442   227.315976

                             ****ORCA TERMINATED NORMALLY****
TOTAL RUN TIME: 0 days 0 hours 0 minutes 34 seconds 626 msec
