                         Program Version 4.2.1 -  RELEASE  -
|  1> ! wB97X-D3 SP def2-SVP
|  2> %pal
|  3> nprocs 16
|  4> end
|  5>
|  6> * xyz 0 1
|  7> S 	 -37.2252 	 48.6413 	 96.6603
|  8> C 	 -35.8723 	 48.1184 	 95.8838
|  9> C 	 -35.0357 	 49.1904 	 95.5238
| 10> C 	 -35.6541 	 50.4417 	 95.7331
| 11> C 	 -36.8935 	 50.2972 	 96.3828
| 12> H 	 -35.205 	 51.4006 	 95.6486
| 13> C 	 -33.5704 	 49.0998 	 95.0775
| 14> H 	 -33.1433 	 50.1056 	 94.9973
| 15> H 	 -33.4474 	 48.6165 	 94.0694
| 16> C 	 -32.7254 	 48.2952 	 96.0386
| 17> H 	 -33.0049 	 47.2517 	 95.9425
| 18> H 	 -31.6864 	 48.4264 	 95.7519
| 19> C 	 -32.9404 	 48.6657 	 97.482
| 20> H 	 -32.9322 	 49.7251 	 97.6419
| 21> H 	 -33.864 	 48.2784 	 97.8028
| 22> H 	 -32.1854 	 48.389 	 98.1448
| 23> S 	 -39.5565 	 50.6835 	 96.5784
| 24> C 	 -40.1078 	 52.2413 	 97.1475
| 25> C 	 -39.1365 	 53.2049 	 97.3142
| 26> C 	 -37.8781 	 52.626 	 97.0399
| 27> C 	 -37.8869 	 51.2315 	 96.7684
| 28> H 	 -39.5031 	 54.1821 	 97.5484
| 29> C 	 -36.5564 	 53.3672 	 97.2569
| 30> H 	 -35.7432 	 52.6895 	 97.3907
| 31> H 	 -36.6059 	 53.92 	 98.2171
| 32> C 	 -36.058 	 54.1566 	 96.0488
| 33> H 	 -36.6572 	 55.0555 	 95.8115
| 34> H 	 -36.0595 	 53.5703 	 95.0788
| 35> C 	 -34.6452 	 54.7224 	 96.4014
| 36> H 	 -34.6848 	 55.3152 	 97.3458
| 37> H 	 -34.2339 	 55.2834 	 95.5801
| 38> H 	 -33.9275 	 53.9729 	 96.6017
| 39> H 	 -35.5854 	 47.0768 	 95.685
| 40> H 	 -41.2158 	 52.5208 	 97.1473
| 41> *
| 42>
| 43>                          ****END OF INPUT****

CARTESIAN COORDINATES (ANGSTROEM)
---------------------------------
  S    -37.225200   48.641300   96.660300
  C    -35.872300   48.118400   95.883800
  C    -35.035700   49.190400   95.523800
  C    -35.654100   50.441700   95.733100
  C    -36.893500   50.297200   96.382800
  H    -35.205000   51.400600   95.648600
  C    -33.570400   49.099800   95.077500
  H    -33.143300   50.105600   94.997300
  H    -33.447400   48.616500   94.069400
  C    -32.725400   48.295200   96.038600
  H    -33.004900   47.251700   95.942500
  H    -31.686400   48.426400   95.751900
  C    -32.940400   48.665700   97.482000
  H    -32.932200   49.725100   97.641900
  H    -33.864000   48.278400   97.802800
  H    -32.185400   48.389000   98.144800
  S    -39.556500   50.683500   96.578400
  C    -40.107800   52.241300   97.147500
  C    -39.136500   53.204900   97.314200
  C    -37.878100   52.626000   97.039900
  C    -37.886900   51.231500   96.768400
  H    -39.503100   54.182100   97.548400
  C    -36.556400   53.367200   97.256900
  H    -35.743200   52.689500   97.390700
  H    -36.605900   53.920000   98.217100
  C    -36.058000   54.156600   96.048800
  H    -36.657200   55.055500   95.811500
  H    -36.059500   53.570300   95.078800
  C    -34.645200   54.722400   96.401400
  H    -34.684800   55.315200   97.345800
  H    -34.233900   55.283400   95.580100
  H    -33.927500   53.972900   96.601700
  H    -35.585400   47.076800   95.685000
  H    -41.215800   52.520800   97.147300

 Total Charge           Charge          ....    0
 Multiplicity           Mult            ....    1
 Number of Electrons    NEL             ....  134
 Basis Dimension        Dim             ....  322

ORBITAL ENERGIES
----------------

  NO   OCC          E(Eh)            E(eV)
   0   2.0000     -88.968812     -2420.9645
   1   2.0000     -88.966712     -2420.9073
   2   2.0000     -10.326604      -281.0012
   3   2.0000     -10.324801      -280.9521
   4   2.0000     -10.320104      -280.8243
   5   2.0000     -10.308429      -280.5066
   6   2.0000     -10.307270      -280.4751
   7   2.0000     -10.299951      -280.2759
   8   2.0000     -10.294505      -280.1277
   9   2.0000     -10.294471      -280.1268
  10   2.0000     -10.292689      -280.0783
  11   2.0000     -10.291271      -280.0397
  12   2.0000     -10.290063      -280.0069
  13   2.0000     -10.279227      -279.7120
  14   2.0000     -10.277660      -279.6693
  15   2.0000     -10.257440      -279.1191
  16   2.0000      -8.085941      -220.0296
  17   2.0000      -8.081275      -219.9027
  18   2.0000      -6.044087      -164.4680
  19   2.0000      -6.039926      -164.3547
  20   2.0000      -6.039660      -164.3475
  21   2.0000      -6.037123      -164.2785
  22   2.0000      -6.035903      -164.2453
  23   2.0000      -6.032069      -164.1409
  24   2.0000      -1.019331       -27.7374
  25   2.0000      -0.988263       -26.8920
  26   2.0000      -0.918088       -24.9824
  27   2.0000      -0.908353       -24.7175
  28   2.0000      -0.875494       -23.8234
  29   2.0000      -0.857173       -23.3249
  30   2.0000      -0.846559       -23.0361
  31   2.0000      -0.811684       -22.0870
  32   2.0000      -0.786935       -21.4136
  33   2.0000      -0.768252       -20.9052
  34   2.0000      -0.706179       -19.2161
  35   2.0000      -0.701015       -19.0756
  36   2.0000      -0.693220       -18.8635
  37   2.0000      -0.664901       -18.0929
  38   2.0000      -0.639183       -17.3930
  39   2.0000      -0.615258       -16.7420
  40   2.0000      -0.594624       -16.1806
  41   2.0000      -0.582265       -15.8442
  42   2.0000      -0.564375       -15.3574
  43   2.0000      -0.550923       -14.9914
  44   2.0000      -0.550394       -14.9770
  45   2.0000      -0.526483       -14.3263
  46   2.0000      -0.514582       -14.0025
  47   2.0000      -0.506143       -13.7729
  48   2.0000      -0.505323       -13.7505
  49   2.0000      -0.497650       -13.5417
  50   2.0000      -0.489968       -13.3327
  51   2.0000      -0.478653       -13.0248
  52   2.0000      -0.472328       -12.8527
  53   2.0000      -0.471505       -12.8303
  54   2.0000      -0.458169       -12.4674
  55   2.0000      -0.455037       -12.3822
  56   2.0000      -0.447996       -12.1906
  57   2.0000      -0.437762       -11.9121
  58   2.0000      -0.436066       -11.8660
  59   2.0000      -0.421117       -11.4592
  60   2.0000      -0.419476       -11.4145
  61   2.0000      -0.417130       -11.3507
  62   2.0000      -0.409597       -11.1457
  63   2.0000      -0.358831        -9.7643
  64   2.0000      -0.335464        -9.1284
  65   2.0000      -0.331706        -9.0262
  66   2.0000      -0.276195        -7.5157
  67   0.0000       0.019472         0.5299
  68   0.0000       0.078064         2.1242
  69   0.0000       0.105634         2.8744
  70   0.0000       0.115202         3.1348
  71   0.0000       0.127549         3.4708

MULLIKEN ATOMIC CHARGES
-----------------------
   0 S :    0.136556
   1 C :   -0.120993
   2 C :   -0.121894
   3 C :    0.050272
   4 C :   -0.162959
   5 H :   -0.014038
   6 C :    0.070438
   7 H :    0.018544
   8 H :    0.042085
   9 C :   -0.087162
  10 H :    0.023134
  11 H :    0.027229
  12 C :    0.018285
  13 H :    0.003682
  14 H :    0.023147
  15 H :    0.013015
  16 S :    0.098383
  17 C :   -0.115709
  18 C :   -0.020588
  19 C :   -0.016257
  20 C :   -0.107746
  21 H :    0.014655
  22 C :    0.039860
  23 H :    0.002937
  24 H :    0.038175
  25 C :   -0.109580
  26 H :    0.031408
  27 H :    0.050244
  28 C :   -0.037653
  29 H :    0.034761
  30 H :    0.034058
  31 H :    0.012899
  32 H :    0.055972
  33 H :    0.074839
Sum of atomic charges:   -0.0000000

LOEWDIN ATOMIC CHARGES
----------------------
   0 S :    0.479316
   1 C :   -0.243572
   2 C :   -0.061554
   3 C :   -0.063560
   4 C :   -0.207031
   5 H :    0.023888
   6 C :   -0.031975
   7 H :    0.027121
   8 H :    0.037078
   9 C :   -0.040533
  10 H :    0.020486
  11 H :    0.023646
  12 C :   -0.058322
  13 H :    0.021418
  14 H :    0.020745
  15 H :    0.018779
  16 S :    0.397580
  17 C :   -0.190142
  18 C :   -0.071251
  19 C :   -0.050626
  20 C :   -0.196495
  21 H :    0.035904
  22 C :   -0.035573
  23 H :    0.022197
  24 H :    0.035913
  25 C :   -0.044882
  26 H :    0.023446
  27 H :    0.031273
  28 C :   -0.065799
  29 H :    0.031349
  30 H :    0.024257
  31 H :    0.013643
  32 H :    0.033859
  33 H :    0.039414

  Mayer bond orders larger than 0.100000
B(  0-S ,  1-C ) :   1.1822 B(  0-S ,  4-C ) :   1.1917 B(  1-C ,  2-C ) :   1.5269
B(  1-C ,  4-C ) :   0.1030 B(  1-C , 32-H ) :   0.9675 B(  2-C ,  3-C ) :   1.3224
B(  2-C ,  6-C ) :   1.0165 B(  3-C ,  4-C ) :   1.4824 B(  3-C ,  5-H ) :   0.9928
B(  4-C , 20-C ) :   1.0886 B(  6-C ,  7-H ) :   0.9447 B(  6-C ,  8-H ) :   0.9385
B(  6-C ,  9-C ) :   1.0810 B(  9-C , 10-H ) :   0.9536 B(  9-C , 11-H ) :   0.9570
B(  9-C , 12-C ) :   1.0867 B( 12-C , 13-H ) :   0.9708 B( 12-C , 14-H ) :   0.9651
B( 12-C , 15-H ) :   0.9699 B( 16-S , 17-C ) :   1.1625 B( 16-S , 20-C ) :   1.1303
B( 17-C , 18-C ) :   1.6095 B( 17-C , 20-C ) :   0.1028 B( 17-C , 33-H ) :   0.9531
B( 18-C , 19-C ) :   1.2299 B( 18-C , 21-H ) :   1.0051 B( 19-C , 20-C ) :   1.5651
B( 19-C , 22-C ) :   1.0382 B( 22-C , 23-H ) :   0.9427 B( 22-C , 24-H ) :   0.9439
B( 22-C , 25-C ) :   1.0454 B( 25-C , 26-H ) :   0.9545 B( 25-C , 27-H ) :   0.9528
B( 25-C , 28-C ) :   1.0750 B( 28-C , 29-H ) :   0.9723 B( 28-C , 30-H ) :   0.9741
B( 28-C , 31-H ) :   0.9747

Dispersion correction           -0.014978559
FINAL SINGLE POINT ENERGY     -1339.871530142596

DIPOLE MOMENT
-------------
                                X             Y             Z
Electronic contribution:    -26.73740     -10.91287       0.28548
Nuclear contribution   :     27.15856      11.27462      -0.31107
                        -----------------------------------------
Total Dipole Moment    :      0.42116       0.36175      -0.02559
                        -----------------------------------------
Magnitude (a.u.)       :      0.55578
Magnitude (Debye)      :      1.41269

Rotational constants in cm-1:     0.018609     0.010001     0.006998
Rotational constants in MHz :   557.873706   299.832323   209.783363

                             ****ORCA TERMINATED NORMALLY****
TOTAL RUN TIME: 0 days 0 hours 0 minutes 31 seconds 618 msec
