                         Program Version 4.2.1 -  RELEASE  -
|  1> ! wB97X-D3 SP def2-SVP
|  2> %pal
|  3> nprocs 16
|  4> end
|  5>
|  6> * xyz 0 1
|  7> S 	 51.17 	 14.2694 	 82.7289
|  8> C 	 50.774 	 13.5676 	 84.3351
|  9> C 	 49.9098 	 14.4037 	 84.9974
| 10> C 	 49.5139 	 15.5426 	 84.1985
| 11> C 	 50.1585 	 15.631 	 82.9555
| 12> H 	 48.7726 	 16.2982 	 84.5343
| 13> C 	 49.2768 	 14.1252 	 86.4258
| 14> H 	 49.5037 	 14.973 	 87.0474
| 15> H 	 49.7486 	 13.2832 	 86.9274
| 16> C 	 47.8047 	 13.75 	 86.2814
| 17> H 	 47.3182 	 14.5789 	 85.8605
| 18> H 	 47.6005 	 12.9488 	 85.6476
| 19> C 	 47.024 	 13.4251 	 87.5302
| 20> H 	 47.5947 	 12.8308 	 88.2456
| 21> H 	 46.7751 	 14.3595 	 87.9568
| 22> H 	 46.1649 	 12.7825 	 87.238
| 23> S 	 49.5812 	 15.8684 	 80.3321
| 24> C 	 49.1704 	 17.3554 	 79.6341
| 25> C 	 49.2284 	 18.379 	 80.5508
| 26> C 	 49.7699 	 17.9744 	 81.833
| 27> C 	 49.9651 	 16.6069 	 81.903
| 28> H 	 48.8495 	 19.3649 	 80.2826
| 29> C 	 49.9301 	 18.8477 	 83.0475
| 30> H 	 50.9561 	 19.2645 	 82.8495
| 31> H 	 50.0215 	 18.3373 	 83.9531
| 32> C 	 48.9202 	 19.9396 	 83.2551
| 33> H 	 47.8644 	 19.5984 	 82.9873
| 34> H 	 49.1256 	 20.6166 	 82.4206
| 35> C 	 48.8512 	 20.7941 	 84.541
| 36> H 	 49.8026 	 21.2407 	 84.7638
| 37> H 	 48.3856 	 20.1522 	 85.3233
| 38> H 	 48.2426 	 21.6018 	 84.3192
| 39> H 	 51.1253 	 12.6033 	 84.762
| 40> H 	 48.5369 	 17.4834 	 78.7344
| 41> *
| 42>
| 43>                          ****END OF INPUT****

CARTESIAN COORDINATES (ANGSTROEM)
---------------------------------
  S     51.170000   14.269400   82.728900
  C     50.774000   13.567600   84.335100
  C     49.909800   14.403700   84.997400
  C     49.513900   15.542600   84.198500
  C     50.158500   15.631000   82.955500
  H     48.772600   16.298200   84.534300
  C     49.276800   14.125200   86.425800
  H     49.503700   14.973000   87.047400
  H     49.748600   13.283200   86.927400
  C     47.804700   13.750000   86.281400
  H     47.318200   14.578900   85.860500
  H     47.600500   12.948800   85.647600
  C     47.024000   13.425100   87.530200
  H     47.594700   12.830800   88.245600
  H     46.775100   14.359500   87.956800
  H     46.164900   12.782500   87.238000
  S     49.581200   15.868400   80.332100
  C     49.170400   17.355400   79.634100
  C     49.228400   18.379000   80.550800
  C     49.769900   17.974400   81.833000
  C     49.965100   16.606900   81.903000
  H     48.849500   19.364900   80.282600
  C     49.930100   18.847700   83.047500
  H     50.956100   19.264500   82.849500
  H     50.021500   18.337300   83.953100
  C     48.920200   19.939600   83.255100
  H     47.864400   19.598400   82.987300
  H     49.125600   20.616600   82.420600
  C     48.851200   20.794100   84.541000
  H     49.802600   21.240700   84.763800
  H     48.385600   20.152200   85.323300
  H     48.242600   21.601800   84.319200
  H     51.125300   12.603300   84.762000
  H     48.536900   17.483400   78.734400

 Total Charge           Charge          ....    0
 Multiplicity           Mult            ....    1
 Number of Electrons    NEL             ....  134
 Basis Dimension        Dim             ....  322

ORBITAL ENERGIES
----------------

  NO   OCC          E(Eh)            E(eV)
   0   2.0000     -88.965439     -2420.8727
   1   2.0000     -88.962202     -2420.7846
   2   2.0000     -10.331580      -281.1366
   3   2.0000     -10.326947      -281.0105
   4   2.0000     -10.318135      -280.7707
   5   2.0000     -10.315363      -280.6953
   6   2.0000     -10.309581      -280.5380
   7   2.0000     -10.305960      -280.4394
   8   2.0000     -10.298322      -280.2316
   9   2.0000     -10.297335      -280.2047
  10   2.0000     -10.296821      -280.1907
  11   2.0000     -10.289358      -279.9877
  12   2.0000     -10.287947      -279.9493
  13   2.0000     -10.279873      -279.7296
  14   2.0000     -10.273935      -279.5680
  15   2.0000     -10.271723      -279.5078
  16   2.0000      -8.080071      -219.8699
  17   2.0000      -8.077868      -219.8100
  18   2.0000      -6.038706      -164.3216
  19   2.0000      -6.036314      -164.2564
  20   2.0000      -6.034484      -164.2067
  21   2.0000      -6.032156      -164.1433
  22   2.0000      -6.030787      -164.1060
  23   2.0000      -6.028695      -164.0491
  24   2.0000      -1.009273       -27.4637
  25   2.0000      -0.983391       -26.7594
  26   2.0000      -0.914659       -24.8891
  27   2.0000      -0.913771       -24.8650
  28   2.0000      -0.873886       -23.7796
  29   2.0000      -0.855746       -23.2860
  30   2.0000      -0.839974       -22.8568
  31   2.0000      -0.812094       -22.0982
  32   2.0000      -0.789479       -21.4828
  33   2.0000      -0.778733       -21.1904
  34   2.0000      -0.707453       -19.2508
  35   2.0000      -0.698948       -19.0193
  36   2.0000      -0.695135       -18.9156
  37   2.0000      -0.652359       -17.7516
  38   2.0000      -0.634992       -17.2790
  39   2.0000      -0.619249       -16.8506
  40   2.0000      -0.600871       -16.3505
  41   2.0000      -0.575656       -15.6644
  42   2.0000      -0.568919       -15.4811
  43   2.0000      -0.561782       -15.2869
  44   2.0000      -0.531440       -14.4612
  45   2.0000      -0.528899       -14.3921
  46   2.0000      -0.516324       -14.0499
  47   2.0000      -0.513360       -13.9692
  48   2.0000      -0.507366       -13.8061
  49   2.0000      -0.503207       -13.6930
  50   2.0000      -0.498360       -13.5611
  51   2.0000      -0.482573       -13.1315
  52   2.0000      -0.470362       -12.7992
  53   2.0000      -0.466865       -12.7040
  54   2.0000      -0.464624       -12.6431
  55   2.0000      -0.454719       -12.3735
  56   2.0000      -0.446669       -12.1545
  57   2.0000      -0.438017       -11.9190
  58   2.0000      -0.430823       -11.7233
  59   2.0000      -0.422155       -11.4874
  60   2.0000      -0.419996       -11.4287
  61   2.0000      -0.408203       -11.1078
  62   2.0000      -0.404428       -11.0051
  63   2.0000      -0.350210        -9.5297
  64   2.0000      -0.330429        -8.9914
  65   2.0000      -0.328727        -8.9451
  66   2.0000      -0.290899        -7.9158
  67   0.0000       0.030389         0.8269
  68   0.0000       0.070635         1.9221
  69   0.0000       0.112682         3.0662
  70   0.0000       0.120749         3.2857
  71   0.0000       0.131955         3.5907

MULLIKEN ATOMIC CHARGES
-----------------------
   0 S :    0.105272
   1 C :   -0.138042
   2 C :   -0.094647
   3 C :    0.012863
   4 C :   -0.145802
   5 H :    0.028005
   6 C :    0.086850
   7 H :    0.031385
   8 H :    0.010408
   9 C :   -0.057498
  10 H :    0.008817
  11 H :    0.015558
  12 C :   -0.029710
  13 H :    0.021208
  14 H :    0.024727
  15 H :    0.039719
  16 S :    0.100381
  17 C :   -0.078007
  18 C :   -0.074352
  19 C :   -0.037055
  20 C :   -0.147403
  21 H :    0.023963
  22 C :    0.121961
  23 H :    0.042154
  24 H :   -0.000750
  25 C :   -0.169214
  26 H :    0.034060
  27 H :    0.020440
  28 C :    0.017183
  29 H :    0.027492
  30 H :    0.045680
  31 H :    0.018614
  32 H :    0.060359
  33 H :    0.075378
Sum of atomic charges:    0.0000000

LOEWDIN ATOMIC CHARGES
----------------------
   0 S :    0.404506
   1 C :   -0.197517
   2 C :   -0.057921
   3 C :   -0.075874
   4 C :   -0.206081
   5 H :    0.033383
   6 C :   -0.019625
   7 H :    0.028603
   8 H :    0.025355
   9 C :   -0.039919
  10 H :    0.016930
  11 H :    0.019678
  12 C :   -0.058208
  13 H :    0.020491
  14 H :    0.018868
  15 H :    0.034316
  16 S :    0.417488
  17 C :   -0.209550
  18 C :   -0.076819
  19 C :   -0.046418
  20 C :   -0.191699
  21 H :    0.031372
  22 C :   -0.033988
  23 H :    0.045787
  24 H :    0.017114
  25 C :   -0.054608
  26 H :    0.027980
  27 H :    0.019135
  28 C :   -0.053527
  29 H :    0.025217
  30 H :    0.032645
  31 H :    0.021592
  32 H :    0.039021
  33 H :    0.042271

  Mayer bond orders larger than 0.100000
B(  0-S ,  1-C ) :   1.1150 B(  0-S ,  4-C ) :   1.1671 B(  1-C ,  2-C ) :   1.6390
B(  1-C , 32-H ) :   0.9636 B(  2-C ,  3-C ) :   1.2393 B(  2-C ,  6-C ) :   1.0119
B(  3-C ,  4-C ) :   1.5593 B(  3-C ,  5-H ) :   0.9828 B(  4-C , 20-C ) :   1.0339
B(  6-C ,  7-H ) :   0.9446 B(  6-C ,  8-H ) :   0.9440 B(  6-C ,  9-C ) :   1.0603
B(  9-C , 10-H ) :   0.9566 B(  9-C , 11-H ) :   0.9593 B(  9-C , 12-C ) :   1.0856
B( 12-C , 13-H ) :   0.9743 B( 12-C , 14-H ) :   0.9787 B( 12-C , 15-H ) :   0.9765
B( 16-S , 17-C ) :   1.1739 B( 16-S , 20-C ) :   1.1363 B( 17-C , 18-C ) :   1.6130
B( 17-C , 33-H ) :   0.9557 B( 18-C , 19-C ) :   1.2265 B( 18-C , 21-H ) :   0.9899
B( 19-C , 20-C ) :   1.6072 B( 19-C , 22-C ) :   1.0353 B( 22-C , 23-H ) :   0.9171
B( 22-C , 24-H ) :   0.9429 B( 22-C , 25-C ) :   1.0534 B( 25-C , 26-H ) :   0.9614
B( 25-C , 27-H ) :   0.9453 B( 25-C , 28-C ) :   1.0929 B( 28-C , 29-H ) :   0.9716
B( 28-C , 30-H ) :   0.9738 B( 28-C , 31-H ) :   0.9696

Dispersion correction           -0.013420318
FINAL SINGLE POINT ENERGY     -1339.862607036849

DIPOLE MOMENT
-------------
                                X             Y             Z
Electronic contribution:     13.82971     -10.99229     -24.25253
Nuclear contribution   :    -14.36039      11.40957      24.74382
                        -----------------------------------------
Total Dipole Moment    :     -0.53068       0.41728       0.49129
                        -----------------------------------------
Magnitude (a.u.)       :      0.83493
Magnitude (Debye)      :      2.12222

Rotational constants in cm-1:     0.016057     0.008609     0.006420
Rotational constants in MHz :   481.378372   258.078443   192.466961

                             ****ORCA TERMINATED NORMALLY****
TOTAL RUN TIME: 0 days 0 hours 0 minutes 29 seconds 353 msec
