                         Program Version 4.2.1 -  RELEASE  -
|  1> ! wB97X-D3 SP def2-SVP
|  2> %pal
|  3> nprocs 16
|  4> end
|  5>
|  6> * xyz 0 1
|  7> S 	 42.8811 	 15.2336 	 86.756
|  8> C 	 44.216 	 15.1981 	 85.6822
|  9> C 	 43.8529 	 14.718 	 84.4477
| 10> C 	 42.5133 	 14.2164 	 84.3846
| 11> C 	 41.8258 	 14.5313 	 85.5217
| 12> H 	 42.1285 	 13.7737 	 83.4181
| 13> C 	 44.8144 	 14.5715 	 83.3251
| 14> H 	 45.7085 	 14.939 	 83.8061
| 15> H 	 44.5353 	 15.1655 	 82.4142
| 16> C 	 45.1718 	 13.1373 	 82.8447
| 17> H 	 45.4008 	 12.5905 	 83.7119
| 18> H 	 44.254 	 12.8599 	 82.383
| 19> C 	 46.2227 	 12.9566 	 81.7108
| 20> H 	 46.3306 	 11.8579 	 81.5894
| 21> H 	 45.9449 	 13.3836 	 80.8052
| 22> H 	 47.1733 	 13.3469 	 81.9759
| 23> S 	 39.4364 	 15.7154 	 85.4031
| 24> C 	 37.9556 	 14.7622 	 85.5738
| 25> C 	 38.2967 	 13.39 	 85.7506
| 26> C 	 39.6546 	 13.1167 	 85.7397
| 27> C 	 40.3884 	 14.3044 	 85.6379
| 28> H 	 37.4714 	 12.733 	 85.9944
| 29> C 	 40.2059 	 11.8376 	 85.9132
| 30> H 	 40.971 	 11.7731 	 86.6561
| 31> H 	 40.7305 	 11.7213 	 85.0072
| 32> C 	 39.1522 	 10.6383 	 85.9252
| 33> H 	 38.4351 	 10.6569 	 85.1221
| 34> H 	 38.4621 	 10.704 	 86.7456
| 35> C 	 39.6496 	 9.16512 	 85.9903
| 36> H 	 38.7578 	 8.54222 	 86.1625
| 37> H 	 40.3294 	 9.083 	 86.7831
| 38> H 	 40.0654 	 9.06897 	 84.9752
| 39> H 	 45.1589 	 15.6388 	 85.8824
| 40> H 	 36.9549 	 15.1785 	 85.6811
| 41> *
| 42>
| 43>                          ****END OF INPUT****

CARTESIAN COORDINATES (ANGSTROEM)
---------------------------------
  S     42.881100   15.233600   86.756000
  C     44.216000   15.198100   85.682200
  C     43.852900   14.718000   84.447700
  C     42.513300   14.216400   84.384600
  C     41.825800   14.531300   85.521700
  H     42.128500   13.773700   83.418100
  C     44.814400   14.571500   83.325100
  H     45.708500   14.939000   83.806100
  H     44.535300   15.165500   82.414200
  C     45.171800   13.137300   82.844700
  H     45.400800   12.590500   83.711900
  H     44.254000   12.859900   82.383000
  C     46.222700   12.956600   81.710800
  H     46.330600   11.857900   81.589400
  H     45.944900   13.383600   80.805200
  H     47.173300   13.346900   81.975900
  S     39.436400   15.715400   85.403100
  C     37.955600   14.762200   85.573800
  C     38.296700   13.390000   85.750600
  C     39.654600   13.116700   85.739700
  C     40.388400   14.304400   85.637900
  H     37.471400   12.733000   85.994400
  C     40.205900   11.837600   85.913200
  H     40.971000   11.773100   86.656100
  H     40.730500   11.721300   85.007200
  C     39.152200   10.638300   85.925200
  H     38.435100   10.656900   85.122100
  H     38.462100   10.704000   86.745600
  C     39.649600    9.165120   85.990300
  H     38.757800    8.542220   86.162500
  H     40.329400    9.083000   86.783100
  H     40.065400    9.068970   84.975200
  H     45.158900   15.638800   85.882400
  H     36.954900   15.178500   85.681100

 Total Charge           Charge          ....    0
 Multiplicity           Mult            ....    1
 Number of Electrons    NEL             ....  134
 Basis Dimension        Dim             ....  322

ORBITAL ENERGIES
----------------

  NO   OCC          E(Eh)            E(eV)
   0   2.0000     -88.967946     -2420.9409
   1   2.0000     -88.965421     -2420.8722
   2   2.0000     -10.327166      -281.0165
   3   2.0000     -10.316620      -280.7295
   4   2.0000     -10.316377      -280.7229
   5   2.0000     -10.308499      -280.5085
   6   2.0000     -10.295817      -280.1634
   7   2.0000     -10.294181      -280.1189
   8   2.0000     -10.293801      -280.1086
   9   2.0000     -10.289593      -279.9941
  10   2.0000     -10.287088      -279.9259
  11   2.0000     -10.285236      -279.8755
  12   2.0000     -10.283465      -279.8273
  13   2.0000     -10.281283      -279.7679
  14   2.0000     -10.278269      -279.6859
  15   2.0000     -10.275748      -279.6173
  16   2.0000      -8.082885      -219.9465
  17   2.0000      -8.080015      -219.8684
  18   2.0000      -6.041405      -164.3950
  19   2.0000      -6.038337      -164.3115
  20   2.0000      -6.037332      -164.2842
  21   2.0000      -6.034409      -164.2046
  22   2.0000      -6.033667      -164.1844
  23   2.0000      -6.031137      -164.1156
  24   2.0000      -1.009901       -27.4808
  25   2.0000      -0.987577       -26.8733
  26   2.0000      -0.915409       -24.9095
  27   2.0000      -0.909602       -24.7515
  28   2.0000      -0.869283       -23.6544
  29   2.0000      -0.858653       -23.3651
  30   2.0000      -0.851380       -23.1672
  31   2.0000      -0.816012       -22.2048
  32   2.0000      -0.783357       -21.3162
  33   2.0000      -0.768896       -20.9227
  34   2.0000      -0.710768       -19.3410
  35   2.0000      -0.705513       -19.1980
  36   2.0000      -0.693686       -18.8762
  37   2.0000      -0.650885       -17.7115
  38   2.0000      -0.639285       -17.3958
  39   2.0000      -0.620845       -16.8941
  40   2.0000      -0.599232       -16.3059
  41   2.0000      -0.580611       -15.7992
  42   2.0000      -0.571065       -15.5395
  43   2.0000      -0.559028       -15.2119
  44   2.0000      -0.536426       -14.5969
  45   2.0000      -0.525313       -14.2945
  46   2.0000      -0.519693       -14.1416
  47   2.0000      -0.514097       -13.9893
  48   2.0000      -0.505105       -13.7446
  49   2.0000      -0.498610       -13.5679
  50   2.0000      -0.495178       -13.4745
  51   2.0000      -0.478704       -13.0262
  52   2.0000      -0.476745       -12.9729
  53   2.0000      -0.462614       -12.5884
  54   2.0000      -0.459721       -12.5096
  55   2.0000      -0.453383       -12.3372
  56   2.0000      -0.446075       -12.1383
  57   2.0000      -0.437136       -11.8951
  58   2.0000      -0.434798       -11.8314
  59   2.0000      -0.426573       -11.6076
  60   2.0000      -0.424411       -11.5488
  61   2.0000      -0.412293       -11.2191
  62   2.0000      -0.403993       -10.9932
  63   2.0000      -0.341494        -9.2925
  64   2.0000      -0.329634        -8.9698
  65   2.0000      -0.318221        -8.6592
  66   2.0000      -0.297065        -8.0835
  67   0.0000       0.038822         1.0564
  68   0.0000       0.060590         1.6487
  69   0.0000       0.121255         3.2995
  70   0.0000       0.124344         3.3836
  71   0.0000       0.128531         3.4975

MULLIKEN ATOMIC CHARGES
-----------------------
   0 S :    0.125083
   1 C :   -0.107348
   2 C :   -0.103133
   3 C :    0.028420
   4 C :   -0.176866
   5 H :    0.043858
   6 C :    0.060917
   7 H :   -0.003661
   8 H :    0.039865
   9 C :   -0.073782
  10 H :    0.024849
  11 H :    0.013398
  12 C :   -0.007299
  13 H :    0.039410
  14 H :    0.017745
  15 H :    0.019776
  16 S :    0.126917
  17 C :   -0.104444
  18 C :   -0.070589
  19 C :   -0.008889
  20 C :   -0.197320
  21 H :    0.018852
  22 C :    0.171358
  23 H :    0.033433
  24 H :    0.006049
  25 C :   -0.148559
  26 H :    0.018889
  27 H :    0.014905
  28 C :   -0.008101
  29 H :    0.040201
  30 H :    0.029475
  31 H :    0.039041
  32 H :    0.038870
  33 H :    0.058676
Sum of atomic charges:   -0.0000000

LOEWDIN ATOMIC CHARGES
----------------------
   0 S :    0.414018
   1 C :   -0.204208
   2 C :   -0.069447
   3 C :   -0.060633
   4 C :   -0.200026
   5 H :    0.044713
   6 C :   -0.038645
   7 H :    0.022685
   8 H :    0.034034
   9 C :   -0.031179
  10 H :    0.018223
  11 H :    0.016474
  12 C :   -0.051871
  13 H :    0.036104
  14 H :    0.015719
  15 H :    0.017708
  16 S :    0.429692
  17 C :   -0.193752
  18 C :   -0.070113
  19 C :   -0.059193
  20 C :   -0.215514
  21 H :    0.031761
  22 C :   -0.028365
  23 H :    0.036058
  24 H :    0.038232
  25 C :   -0.041664
  26 H :    0.019968
  27 H :    0.013333
  28 C :   -0.053437
  29 H :    0.032714
  30 H :    0.015914
  31 H :    0.028948
  32 H :    0.022924
  33 H :    0.028827

  Mayer bond orders larger than 0.100000
B(  0-S ,  1-C ) :   1.1372 B(  0-S ,  4-C ) :   1.1483 B(  1-C ,  2-C ) :   1.6220
B(  1-C , 32-H ) :   0.9632 B(  2-C ,  3-C ) :   1.2352 B(  2-C ,  6-C ) :   1.0452
B(  3-C ,  4-C ) :   1.5858 B(  3-C ,  5-H ) :   0.9818 B(  4-C , 20-C ) :   1.0150
B(  6-C ,  7-H ) :   0.9335 B(  6-C ,  8-H ) :   0.9333 B(  6-C ,  9-C ) :   1.0609
B(  9-C , 10-H ) :   0.9600 B(  9-C , 11-H ) :   0.9547 B(  9-C , 12-C ) :   1.0870
B( 12-C , 13-H ) :   0.9737 B( 12-C , 14-H ) :   0.9741 B( 12-C , 15-H ) :   0.9772
B( 16-S , 17-C ) :   1.1727 B( 16-S , 20-C ) :   1.1860 B( 17-C , 18-C ) :   1.5479
B( 17-C , 20-C ) :   0.1242 B( 17-C , 33-H ) :   0.9654 B( 18-C , 19-C ) :   1.2896
B( 18-C , 21-H ) :   0.9850 B( 19-C , 20-C ) :   1.5352 B( 19-C , 22-C ) :   1.0532
B( 22-C , 23-H ) :   0.9160 B( 22-C , 24-H ) :   0.8895 B( 22-C , 25-C ) :   1.0654
B( 25-C , 26-H ) :   0.9552 B( 25-C , 27-H ) :   0.9532 B( 25-C , 28-C ) :   1.0751
B( 28-C , 29-H ) :   0.9727 B( 28-C , 30-H ) :   0.9778 B( 28-C , 31-H ) :   0.9812

Dispersion correction           -0.013522366
FINAL SINGLE POINT ENERGY     -1339.847881066773

DIPOLE MOMENT
-------------
                                X             Y             Z
Electronic contribution:     -9.29610      23.56405      12.63615
Nuclear contribution   :      9.41524     -24.03398     -12.93727
                        -----------------------------------------
Total Dipole Moment    :      0.11914      -0.46993      -0.30112
                        -----------------------------------------
Magnitude (a.u.)       :      0.57070
Magnitude (Debye)      :      1.45061

Rotational constants in cm-1:     0.016535     0.008152     0.006405
Rotational constants in MHz :   495.692539   244.382427   192.005502

                             ****ORCA TERMINATED NORMALLY****
TOTAL RUN TIME: 0 days 0 hours 0 minutes 27 seconds 351 msec
