                         Program Version 4.2.1 -  RELEASE  -
|  1> ! wB97X-D3 SP def2-SVP
|  2> %pal
|  3> nprocs 16
|  4> end
|  5>
|  6> * xyz 0 1
|  7> S 	 -8.0963 	 55.1312 	 29.9012
|  8> C 	 -8.19822 	 53.4234 	 29.5809
|  9> C 	 -7.07066 	 52.7223 	 29.9249
| 10> C 	 -6.11966 	 53.5345 	 30.5789
| 11> C 	 -6.70337 	 54.7851 	 30.9067
| 12> H 	 -5.15048 	 53.2723 	 30.9811
| 13> C 	 -6.74541 	 51.3222 	 29.5817
| 14> H 	 -7.71444 	 50.9834 	 29.0981
| 15> H 	 -6.58127 	 50.8703 	 30.5809
| 16> C 	 -5.46055 	 51.2085 	 28.7461
| 17> H 	 -5.76969 	 51.5006 	 27.7792
| 18> H 	 -4.69976 	 51.8917 	 29.0739
| 19> C 	 -5.05655 	 49.7987 	 28.4594
| 20> H 	 -4.16196 	 49.8454 	 27.88
| 21> H 	 -4.77085 	 49.3699 	 29.4492
| 22> H 	 -5.82237 	 49.0659 	 28.0944
| 23> S 	 -6.19728 	 57.4988 	 30.9849
| 24> C 	 -5.39781 	 58.1613 	 32.3292
| 25> C 	 -4.89562 	 57.1813 	 33.1383
| 26> C 	 -5.23802 	 55.8741 	 32.7001
| 27> C 	 -6.00539 	 55.9066 	 31.5717
| 28> H 	 -4.4609 	 57.5097 	 34.0493
| 29> C 	 -4.88591 	 54.5833 	 33.4645
| 30> H 	 -4.30746 	 54.9787 	 34.2937
| 31> H 	 -4.25932 	 53.8446 	 32.9607
| 32> C 	 -6.18317 	 53.8761 	 34.1529
| 33> H 	 -6.00417 	 52.907 	 34.5941
| 34> H 	 -6.78865 	 53.5742 	 33.2596
| 35> C 	 -7.00146 	 54.6902 	 35.1672
| 36> H 	 -7.36236 	 55.6193 	 34.7886
| 37> H 	 -6.33043 	 54.9394 	 35.9849
| 38> H 	 -7.84852 	 54.1271 	 35.5488
| 39> H 	 -8.86993 	 52.9512 	 28.9333
| 40> H 	 -5.34769 	 59.1815 	 32.616
| 41> *
| 42>
| 43>                          ****END OF INPUT****

CARTESIAN COORDINATES (ANGSTROEM)
---------------------------------
  S     -8.096300   55.131200   29.901200
  C     -8.198220   53.423400   29.580900
  C     -7.070660   52.722300   29.924900
  C     -6.119660   53.534500   30.578900
  C     -6.703370   54.785100   30.906700
  H     -5.150480   53.272300   30.981100
  C     -6.745410   51.322200   29.581700
  H     -7.714440   50.983400   29.098100
  H     -6.581270   50.870300   30.580900
  C     -5.460550   51.208500   28.746100
  H     -5.769690   51.500600   27.779200
  H     -4.699760   51.891700   29.073900
  C     -5.056550   49.798700   28.459400
  H     -4.161960   49.845400   27.880000
  H     -4.770850   49.369900   29.449200
  H     -5.822370   49.065900   28.094400
  S     -6.197280   57.498800   30.984900
  C     -5.397810   58.161300   32.329200
  C     -4.895620   57.181300   33.138300
  C     -5.238020   55.874100   32.700100
  C     -6.005390   55.906600   31.571700
  H     -4.460900   57.509700   34.049300
  C     -4.885910   54.583300   33.464500
  H     -4.307460   54.978700   34.293700
  H     -4.259320   53.844600   32.960700
  C     -6.183170   53.876100   34.152900
  H     -6.004170   52.907000   34.594100
  H     -6.788650   53.574200   33.259600
  C     -7.001460   54.690200   35.167200
  H     -7.362360   55.619300   34.788600
  H     -6.330430   54.939400   35.984900
  H     -7.848520   54.127100   35.548800
  H     -8.869930   52.951200   28.933300
  H     -5.347690   59.181500   32.616000

 Total Charge           Charge          ....    0
 Multiplicity           Mult            ....    1
 Number of Electrons    NEL             ....  134
 Basis Dimension        Dim             ....  322

ORBITAL ENERGIES
----------------

  NO   OCC          E(Eh)            E(eV)
   0   2.0000     -88.969946     -2420.9953
   1   2.0000     -88.964669     -2420.8517
   2   2.0000     -10.332846      -281.1710
   3   2.0000     -10.318893      -280.7914
   4   2.0000     -10.306784      -280.4619
   5   2.0000     -10.304145      -280.3900
   6   2.0000     -10.299322      -280.2588
   7   2.0000     -10.298585      -280.2388
   8   2.0000     -10.295347      -280.1506
   9   2.0000     -10.294886      -280.1381
  10   2.0000     -10.293845      -280.1098
  11   2.0000     -10.287876      -279.9473
  12   2.0000     -10.285949      -279.8949
  13   2.0000     -10.282657      -279.8053
  14   2.0000     -10.280727      -279.7528
  15   2.0000     -10.269834      -279.4564
  16   2.0000      -8.084579      -219.9926
  17   2.0000      -8.081196      -219.9005
  18   2.0000      -6.042948      -164.4370
  19   2.0000      -6.039567      -164.3450
  20   2.0000      -6.039521      -164.3437
  21   2.0000      -6.035415      -164.2320
  22   2.0000      -6.035084      -164.2230
  23   2.0000      -6.032055      -164.1406
  24   2.0000      -1.016332       -27.6558
  25   2.0000      -0.992704       -27.0128
  26   2.0000      -0.921851       -25.0848
  27   2.0000      -0.896622       -24.3983
  28   2.0000      -0.873320       -23.7642
  29   2.0000      -0.854632       -23.2557
  30   2.0000      -0.847245       -23.0547
  31   2.0000      -0.816801       -22.2263
  32   2.0000      -0.782831       -21.3019
  33   2.0000      -0.773117       -21.0376
  34   2.0000      -0.711956       -19.3733
  35   2.0000      -0.700377       -19.0582
  36   2.0000      -0.689675       -18.7670
  37   2.0000      -0.665467       -18.1083
  38   2.0000      -0.637359       -17.3434
  39   2.0000      -0.622410       -16.9366
  40   2.0000      -0.589806       -16.0494
  41   2.0000      -0.573173       -15.5968
  42   2.0000      -0.567291       -15.4368
  43   2.0000      -0.545104       -14.8330
  44   2.0000      -0.542881       -14.7725
  45   2.0000      -0.531916       -14.4742
  46   2.0000      -0.515668       -14.0320
  47   2.0000      -0.510634       -13.8951
  48   2.0000      -0.506481       -13.7820
  49   2.0000      -0.495104       -13.4725
  50   2.0000      -0.489660       -13.3243
  51   2.0000      -0.482137       -13.1196
  52   2.0000      -0.474919       -12.9232
  53   2.0000      -0.468506       -12.7487
  54   2.0000      -0.459532       -12.5045
  55   2.0000      -0.456450       -12.4206
  56   2.0000      -0.443011       -12.0550
  57   2.0000      -0.439655       -11.9636
  58   2.0000      -0.434748       -11.8301
  59   2.0000      -0.426806       -11.6140
  60   2.0000      -0.425352       -11.5744
  61   2.0000      -0.408051       -11.1036
  62   2.0000      -0.400365       -10.8945
  63   2.0000      -0.351128        -9.5547
  64   2.0000      -0.335360        -9.1256
  65   2.0000      -0.328162        -8.9297
  66   2.0000      -0.284553        -7.7431
  67   0.0000       0.019829         0.5396
  68   0.0000       0.079599         2.1660
  69   0.0000       0.101841         2.7712
  70   0.0000       0.122978         3.3464
  71   0.0000       0.138761         3.7759

MULLIKEN ATOMIC CHARGES
-----------------------
   0 S :    0.107889
   1 C :   -0.072297
   2 C :   -0.102259
   3 C :   -0.001128
   4 C :   -0.138531
   5 H :    0.014754
   6 C :    0.066778
   7 H :    0.026678
   8 H :    0.035649
   9 C :   -0.067981
  10 H :    0.015159
  11 H :    0.038916
  12 C :   -0.028728
  13 H :    0.033613
  14 H :    0.013096
  15 H :    0.047296
  16 S :    0.115651
  17 C :   -0.083718
  18 C :   -0.033716
  19 C :   -0.048690
  20 C :   -0.138997
  21 H :    0.005706
  22 C :    0.055223
  23 H :    0.010761
  24 H :    0.045637
  25 C :   -0.099087
  26 H :    0.019560
  27 H :    0.042854
  28 C :   -0.025366
  29 H :    0.032231
  30 H :    0.021163
  31 H :    0.036824
  32 H :    0.013164
  33 H :    0.041895
Sum of atomic charges:    0.0000000

LOEWDIN ATOMIC CHARGES
----------------------
   0 S :    0.409117
   1 C :   -0.202592
   2 C :   -0.064201
   3 C :   -0.057154
   4 C :   -0.176863
   5 H :    0.028250
   6 C :   -0.032560
   7 H :    0.036931
   8 H :    0.033571
   9 C :   -0.039801
  10 H :    0.023999
  11 H :    0.027344
  12 C :   -0.065523
  13 H :    0.025039
  14 H :    0.021768
  15 H :    0.035528
  16 S :    0.435916
  17 C :   -0.199108
  18 C :   -0.068959
  19 C :   -0.066343
  20 C :   -0.209573
  21 H :    0.027362
  22 C :   -0.028859
  23 H :    0.025750
  24 H :    0.028490
  25 C :   -0.044976
  26 H :    0.019219
  27 H :    0.026034
  28 C :   -0.061322
  29 H :    0.021299
  30 H :    0.022669
  31 H :    0.029974
  32 H :    0.013637
  33 H :    0.025939

  Mayer bond orders larger than 0.100000
B(  0-S ,  1-C ) :   1.1245 B(  0-S ,  4-C ) :   1.1662 B(  1-C ,  2-C ) :   1.6251
B(  1-C , 32-H ) :   0.9616 B(  2-C ,  3-C ) :   1.2389 B(  2-C ,  6-C ) :   1.0203
B(  3-C ,  4-C ) :   1.5333 B(  3-C ,  5-H ) :   0.9883 B(  4-C , 20-C ) :   1.0593
B(  6-C ,  7-H ) :   0.9379 B(  6-C ,  8-H ) :   0.9304 B(  6-C ,  9-C ) :   1.0635
B(  9-C , 10-H ) :   0.9470 B(  9-C , 11-H ) :   0.9557 B(  9-C , 12-C ) :   1.0863
B( 12-C , 13-H ) :   0.9710 B( 12-C , 14-H ) :   0.9720 B( 12-C , 15-H ) :   0.9709
B( 16-S , 17-C ) :   1.1606 B( 16-S , 20-C ) :   1.1544 B( 17-C , 18-C ) :   1.6155
B( 17-C , 33-H ) :   0.9683 B( 18-C , 19-C ) :   1.2536 B( 18-C , 21-H ) :   0.9958
B( 19-C , 20-C ) :   1.5925 B( 19-C , 22-C ) :   1.0260 B( 22-C , 23-H ) :   0.9356
B( 22-C , 24-H ) :   0.9457 B( 22-C , 25-C ) :   1.0466 B( 25-C , 26-H ) :   0.9587
B( 25-C , 27-H ) :   0.9555 B( 25-C , 28-C ) :   1.0759 B( 28-C , 29-H ) :   0.9764
B( 28-C , 30-H ) :   0.9749 B( 28-C , 31-H ) :   0.9729

Dispersion correction           -0.014961147
FINAL SINGLE POINT ENERGY     -1339.855320703872

DIPOLE MOMENT
-------------
                                X             Y             Z
Electronic contribution:     -7.01563      24.10646      -7.64139
Nuclear contribution   :      7.30751     -24.52226       7.76032
                        -----------------------------------------
Total Dipole Moment    :      0.29188      -0.41580       0.11893
                        -----------------------------------------
Magnitude (a.u.)       :      0.52176
Magnitude (Debye)      :      1.32621

Rotational constants in cm-1:     0.020309     0.008592     0.007397
Rotational constants in MHz :   608.855404   257.585815   221.768663

                             ****ORCA TERMINATED NORMALLY****
TOTAL RUN TIME: 0 days 0 hours 0 minutes 33 seconds 107 msec
