                         Program Version 4.2.1 -  RELEASE  -
|  1> ! wB97X-D3 SP def2-SVP
|  2> %pal
|  3> nprocs 16
|  4> end
|  5>
|  6> * xyz 0 1
|  7> S 	 39.9221 	 6.64928 	 85.4912
|  8> C 	 40.4194 	 7.38626 	 84.0101
|  9> C 	 41.1901 	 8.5095 	 84.2622
| 10> C 	 41.5049 	 8.65195 	 85.6736
| 11> C 	 40.9567 	 7.64585 	 86.4911
| 12> H 	 42.0013 	 9.49569 	 86.0775
| 13> C 	 41.6725 	 9.39199 	 83.1585
| 14> H 	 41.5956 	 10.3828 	 83.551
| 15> H 	 41.0875 	 9.29681 	 82.2805
| 16> C 	 43.117 	 9.19177 	 82.6911
| 17> H 	 43.0838 	 8.10844 	 82.6414
| 18> H 	 43.2966 	 9.7369 	 81.818
| 19> C 	 44.2008 	 9.49593 	 83.6951
| 20> H 	 44.0305 	 10.4996 	 84.1822
| 21> H 	 44.1634 	 8.75087 	 84.4602
| 22> H 	 45.2649 	 9.36701 	 83.351
| 23> S 	 39.2812 	 7.32091 	 88.7023
| 24> C 	 40.0413 	 7.30663 	 90.2898
| 25> C 	 41.3254 	 7.77174 	 90.2258
| 26> C 	 41.7447 	 7.94432 	 88.8964
| 27> C 	 40.8032 	 7.71139 	 87.9539
| 28> H 	 41.9916 	 7.82239 	 91.1039
| 29> C 	 43.1934 	 8.39123 	 88.5647
| 30> H 	 43.507 	 7.91409 	 87.6169
| 31> H 	 43.8905 	 7.96634 	 89.2191
| 32> C 	 43.3328 	 9.91317 	 88.4571
| 33> H 	 43.2801 	 10.4684 	 89.4186
| 34> H 	 42.6049 	 10.3283 	 87.7562
| 35> C 	 44.6539 	 10.3556 	 87.7996
| 36> H 	 44.5531 	 11.4637 	 87.5183
| 37> H 	 44.9505 	 9.77516 	 86.9202
| 38> H 	 45.5431 	 10.2765 	 88.3751
| 39> H 	 40.1488 	 7.07266 	 83.0327
| 40> H 	 39.4555 	 7.18962 	 91.2071
| 41> *
| 42>
| 43>                          ****END OF INPUT****

CARTESIAN COORDINATES (ANGSTROEM)
---------------------------------
  S     39.922100    6.649280   85.491200
  C     40.419400    7.386260   84.010100
  C     41.190100    8.509500   84.262200
  C     41.504900    8.651950   85.673600
  C     40.956700    7.645850   86.491100
  H     42.001300    9.495690   86.077500
  C     41.672500    9.391990   83.158500
  H     41.595600   10.382800   83.551000
  H     41.087500    9.296810   82.280500
  C     43.117000    9.191770   82.691100
  H     43.083800    8.108440   82.641400
  H     43.296600    9.736900   81.818000
  C     44.200800    9.495930   83.695100
  H     44.030500   10.499600   84.182200
  H     44.163400    8.750870   84.460200
  H     45.264900    9.367010   83.351000
  S     39.281200    7.320910   88.702300
  C     40.041300    7.306630   90.289800
  C     41.325400    7.771740   90.225800
  C     41.744700    7.944320   88.896400
  C     40.803200    7.711390   87.953900
  H     41.991600    7.822390   91.103900
  C     43.193400    8.391230   88.564700
  H     43.507000    7.914090   87.616900
  H     43.890500    7.966340   89.219100
  C     43.332800    9.913170   88.457100
  H     43.280100   10.468400   89.418600
  H     42.604900   10.328300   87.756200
  C     44.653900   10.355600   87.799600
  H     44.553100   11.463700   87.518300
  H     44.950500    9.775160   86.920200
  H     45.543100   10.276500   88.375100
  H     40.148800    7.072660   83.032700
  H     39.455500    7.189620   91.207100

 Total Charge           Charge          ....    0
 Multiplicity           Mult            ....    1
 Number of Electrons    NEL             ....  134
 Basis Dimension        Dim             ....  322

ORBITAL ENERGIES
----------------

  NO   OCC          E(Eh)            E(eV)
   0   2.0000     -88.967321     -2420.9239
   1   2.0000     -88.965273     -2420.8682
   2   2.0000     -10.335459      -281.2421
   3   2.0000     -10.324556      -280.9455
   4   2.0000     -10.317959      -280.7659
   5   2.0000     -10.313729      -280.6508
   6   2.0000     -10.302862      -280.3551
   7   2.0000     -10.298960      -280.2489
   8   2.0000     -10.296229      -280.1746
   9   2.0000     -10.293946      -280.1125
  10   2.0000     -10.291451      -280.0446
  11   2.0000     -10.289734      -279.9979
  12   2.0000     -10.285022      -279.8697
  13   2.0000     -10.279497      -279.7193
  14   2.0000     -10.279064      -279.7076
  15   2.0000     -10.278790      -279.7001
  16   2.0000      -8.082266      -219.9296
  17   2.0000      -8.080232      -219.8743
  18   2.0000      -6.040813      -164.3789
  19   2.0000      -6.038820      -164.3247
  20   2.0000      -6.036602      -164.2643
  21   2.0000      -6.034764      -164.2143
  22   2.0000      -6.033105      -164.1691
  23   2.0000      -6.030839      -164.1075
  24   2.0000      -1.011252       -27.5176
  25   2.0000      -0.988930       -26.9101
  26   2.0000      -0.920679       -25.0530
  27   2.0000      -0.907174       -24.6855
  28   2.0000      -0.872182       -23.7333
  29   2.0000      -0.851762       -23.1776
  30   2.0000      -0.844704       -22.9856
  31   2.0000      -0.819199       -22.2915
  32   2.0000      -0.784396       -21.3445
  33   2.0000      -0.774698       -21.0806
  34   2.0000      -0.703920       -19.1546
  35   2.0000      -0.699669       -19.0390
  36   2.0000      -0.698148       -18.9976
  37   2.0000      -0.666752       -18.1433
  38   2.0000      -0.643903       -17.5215
  39   2.0000      -0.618401       -16.8275
  40   2.0000      -0.598036       -16.2734
  41   2.0000      -0.585703       -15.9378
  42   2.0000      -0.565059       -15.3761
  43   2.0000      -0.553141       -15.0517
  44   2.0000      -0.548164       -14.9163
  45   2.0000      -0.531466       -14.4619
  46   2.0000      -0.513055       -13.9609
  47   2.0000      -0.512891       -13.9565
  48   2.0000      -0.508763       -13.8441
  49   2.0000      -0.501297       -13.6410
  50   2.0000      -0.496304       -13.5051
  51   2.0000      -0.480149       -13.0655
  52   2.0000      -0.468655       -12.7527
  53   2.0000      -0.464382       -12.6365
  54   2.0000      -0.459462       -12.5026
  55   2.0000      -0.447615       -12.1802
  56   2.0000      -0.443267       -12.0619
  57   2.0000      -0.438476       -11.9315
  58   2.0000      -0.434448       -11.8219
  59   2.0000      -0.423226       -11.5166
  60   2.0000      -0.419048       -11.4029
  61   2.0000      -0.416557       -11.3351
  62   2.0000      -0.408382       -11.1126
  63   2.0000      -0.357979        -9.7411
  64   2.0000      -0.335232        -9.1221
  65   2.0000      -0.327627        -8.9152
  66   2.0000      -0.290806        -7.9132
  67   0.0000       0.024876         0.6769
  68   0.0000       0.075135         2.0445
  69   0.0000       0.107585         2.9275
  70   0.0000       0.122436         3.3317
  71   0.0000       0.129908         3.5350

MULLIKEN ATOMIC CHARGES
-----------------------
   0 S :    0.104588
   1 C :   -0.096579
   2 C :   -0.125262
   3 C :    0.043726
   4 C :   -0.110551
   5 H :   -0.023821
   6 C :    0.100583
   7 H :    0.011714
   8 H :    0.013838
   9 C :   -0.026537
  10 H :    0.017234
  11 H :    0.027337
  12 C :   -0.084130
  13 H :    0.033732
  14 H :    0.024977
  15 H :    0.042680
  16 S :    0.098430
  17 C :   -0.105783
  18 C :   -0.018359
  19 C :   -0.069462
  20 C :   -0.133330
  21 H :    0.031149
  22 C :    0.090885
  23 H :    0.024545
  24 H :    0.004434
  25 C :   -0.061937
  26 H :    0.039326
  27 H :    0.034445
  28 C :   -0.077973
  29 H :    0.042472
  30 H :    0.025310
  31 H :    0.020768
  32 H :    0.035402
  33 H :    0.066148
Sum of atomic charges:   -0.0000000

LOEWDIN ATOMIC CHARGES
----------------------
   0 S :    0.417392
   1 C :   -0.194968
   2 C :   -0.062514
   3 C :   -0.054063
   4 C :   -0.189135
   5 H :    0.019999
   6 C :   -0.025076
   7 H :    0.024386
   8 H :    0.028184
   9 C :   -0.033900
  10 H :    0.027664
  11 H :    0.017055
  12 C :   -0.075267
  13 H :    0.025170
  14 H :    0.018271
  15 H :    0.034341
  16 S :    0.399153
  17 C :   -0.179419
  18 C :   -0.071865
  19 C :   -0.062274
  20 C :   -0.198359
  21 H :    0.039295
  22 C :   -0.027108
  23 H :    0.033253
  24 H :    0.020258
  25 C :   -0.039798
  26 H :    0.031277
  27 H :    0.022880
  28 C :   -0.074681
  29 H :    0.035273
  30 H :    0.023018
  31 H :    0.015639
  32 H :    0.023858
  33 H :    0.032061

  Mayer bond orders larger than 0.100000
B(  0-S ,  1-C ) :   1.1504 B(  0-S ,  4-C ) :   1.1559 B(  1-C ,  2-C ) :   1.5778
B(  1-C , 32-H ) :   0.9735 B(  2-C ,  3-C ) :   1.2659 B(  2-C ,  6-C ) :   1.0424
B(  3-C ,  4-C ) :   1.5183 B(  3-C ,  5-H ) :   0.9950 B(  4-C , 20-C ) :   1.0466
B(  6-C ,  7-H ) :   0.9287 B(  6-C ,  8-H ) :   0.9382 B(  6-C ,  9-C ) :   1.0647
B(  9-C , 10-H ) :   0.9515 B(  9-C , 11-H ) :   0.9577 B(  9-C , 12-C ) :   1.0899
B( 12-C , 13-H ) :   0.9728 B( 12-C , 14-H ) :   0.9684 B( 12-C , 15-H ) :   0.9698
B( 16-S , 17-C ) :   1.1522 B( 16-S , 20-C ) :   1.1279 B( 17-C , 18-C ) :   1.6003
B( 17-C , 33-H ) :   0.9645 B( 18-C , 19-C ) :   1.2634 B( 18-C , 21-H ) :   0.9878
B( 19-C , 20-C ) :   1.6257 B( 19-C , 22-C ) :   1.0417 B( 22-C , 23-H ) :   0.9308
B( 22-C , 24-H ) :   0.9339 B( 22-C , 25-C ) :   1.0604 B( 25-C , 26-H ) :   0.9496
B( 25-C , 27-H ) :   0.9585 B( 25-C , 28-C ) :   1.0741 B( 28-C , 29-H ) :   0.9764
B( 28-C , 30-H ) :   0.9720 B( 28-C , 31-H ) :   0.9741

Dispersion correction           -0.015719561
FINAL SINGLE POINT ENERGY     -1339.875310048739

DIPOLE MOMENT
-------------
                                X             Y             Z
Electronic contribution:    -25.93113     -16.92014       9.10031
Nuclear contribution   :     26.40613      17.31892      -9.18145
                        -----------------------------------------
Total Dipole Moment    :      0.47500       0.39878      -0.08115
                        -----------------------------------------
Magnitude (a.u.)       :      0.62549
Magnitude (Debye)      :      1.58986

Rotational constants in cm-1:     0.018443     0.010548     0.007034
Rotational constants in MHz :   552.915197   316.216749   210.859077

                             ****ORCA TERMINATED NORMALLY****
TOTAL RUN TIME: 0 days 0 hours 0 minutes 32 seconds 790 msec
