                         Program Version 4.2.1 -  RELEASE  -
|  1> ! wB97X-D3 SP def2-SVP
|  2> %pal
|  3> nprocs 16
|  4> end
|  5>
|  6> * xyz 0 1
|  7> S 	 14.5478 	 -3.12743 	 63.9387
|  8> C 	 14.3972 	 -4.27676 	 62.5562
|  9> C 	 15.6385 	 -4.78502 	 62.2078
| 10> C 	 16.6809 	 -4.13259 	 62.9509
| 11> C 	 16.246 	 -3.12665 	 63.8682
| 12> H 	 17.702 	 -4.22686 	 62.8917
| 13> C 	 15.9108 	 -5.6216 	 60.965
| 14> H 	 15.0306 	 -5.62638 	 60.3377
| 15> H 	 16.1107 	 -6.61514 	 61.2398
| 16> C 	 17.0529 	 -5.07133 	 60.146
| 17> H 	 16.8605 	 -4.01556 	 60.0174
| 18> H 	 17.97 	 -5.15506 	 60.6346
| 19> C 	 17.1618 	 -5.76488 	 58.8057
| 20> H 	 18.1717 	 -5.69529 	 58.3492
| 21> H 	 17.1697 	 -6.89406 	 58.8939
| 22> H 	 16.388 	 -5.57389 	 58.0359
| 23> S 	 17.6623 	 -3.35712 	 66.1567
| 24> C 	 18.3932 	 -1.90829 	 66.9082
| 25> C 	 18.2064 	 -0.815778 	 66.0487
| 26> C 	 17.3392 	 -1.0792 	 64.9445
| 27> C 	 17.092 	 -2.41602 	 64.7868
| 28> H 	 18.6005 	 0.158882 	 66.2832
| 29> C 	 16.9719 	 -0.134493 	 63.8775
| 30> H 	 16.0945 	 -0.516684 	 63.3351
| 31> H 	 17.7145 	 -0.0661744 	 63.1234
| 32> C 	 16.5211 	 1.26392 	 64.3026
| 33> H 	 16.3838 	 1.74669 	 63.3916
| 34> H 	 17.318 	 1.7298 	 64.8727
| 35> C 	 15.1546 	 1.32504 	 65.1456
| 36> H 	 14.4007 	 0.536061 	 64.9195
| 37> H 	 14.7075 	 2.3283 	 65.0583
| 38> H 	 15.3176 	 1.17789 	 66.2291
| 39> H 	 13.4113 	 -4.60932 	 62.2075
| 40> H 	 18.9289 	 -1.82033 	 67.8004
| 41> *
| 42>
| 43>                          ****END OF INPUT****

CARTESIAN COORDINATES (ANGSTROEM)
---------------------------------
  S     14.547800   -3.127430   63.938700
  C     14.397200   -4.276760   62.556200
  C     15.638500   -4.785020   62.207800
  C     16.680900   -4.132590   62.950900
  C     16.246000   -3.126650   63.868200
  H     17.702000   -4.226860   62.891700
  C     15.910800   -5.621600   60.965000
  H     15.030600   -5.626380   60.337700
  H     16.110700   -6.615140   61.239800
  C     17.052900   -5.071330   60.146000
  H     16.860500   -4.015560   60.017400
  H     17.970000   -5.155060   60.634600
  C     17.161800   -5.764880   58.805700
  H     18.171700   -5.695290   58.349200
  H     17.169700   -6.894060   58.893900
  H     16.388000   -5.573890   58.035900
  S     17.662300   -3.357120   66.156700
  C     18.393200   -1.908290   66.908200
  C     18.206400   -0.815778   66.048700
  C     17.339200   -1.079200   64.944500
  C     17.092000   -2.416020   64.786800
  H     18.600500    0.158882   66.283200
  C     16.971900   -0.134493   63.877500
  H     16.094500   -0.516684   63.335100
  H     17.714500   -0.066174   63.123400
  C     16.521100    1.263920   64.302600
  H     16.383800    1.746690   63.391600
  H     17.318000    1.729800   64.872700
  C     15.154600    1.325040   65.145600
  H     14.400700    0.536061   64.919500
  H     14.707500    2.328300   65.058300
  H     15.317600    1.177890   66.229100
  H     13.411300   -4.609320   62.207500
  H     18.928900   -1.820330   67.800400

 Total Charge           Charge          ....    0
 Multiplicity           Mult            ....    1
 Number of Electrons    NEL             ....  134
 Basis Dimension        Dim             ....  322

ORBITAL ENERGIES
----------------

  NO   OCC          E(Eh)            E(eV)
   0   2.0000     -88.966075     -2420.8900
   1   2.0000     -88.965388     -2420.8713
   2   2.0000     -10.326358      -280.9945
   3   2.0000     -10.320782      -280.8427
   4   2.0000     -10.320120      -280.8248
   5   2.0000     -10.319501      -280.8079
   6   2.0000     -10.305442      -280.4253
   7   2.0000     -10.297960      -280.2217
   8   2.0000     -10.296548      -280.1833
   9   2.0000     -10.290830      -280.0277
  10   2.0000     -10.286919      -279.9213
  11   2.0000     -10.284399      -279.8527
  12   2.0000     -10.283786      -279.8360
  13   2.0000     -10.282311      -279.7959
  14   2.0000     -10.281463      -279.7728
  15   2.0000     -10.279483      -279.7190
  16   2.0000      -8.080514      -219.8820
  17   2.0000      -8.079311      -219.8492
  18   2.0000      -6.038901      -164.3268
  19   2.0000      -6.037956      -164.3011
  20   2.0000      -6.034946      -164.2192
  21   2.0000      -6.033840      -164.1891
  22   2.0000      -6.031535      -164.1264
  23   2.0000      -6.030043      -164.0858
  24   2.0000      -1.006100       -27.3774
  25   2.0000      -0.979689       -26.6587
  26   2.0000      -0.920260       -25.0415
  27   2.0000      -0.907493       -24.6941
  28   2.0000      -0.871528       -23.7155
  29   2.0000      -0.844485       -22.9796
  30   2.0000      -0.840627       -22.8746
  31   2.0000      -0.810520       -22.0554
  32   2.0000      -0.783195       -21.3118
  33   2.0000      -0.773594       -21.0506
  34   2.0000      -0.714402       -19.4399
  35   2.0000      -0.703299       -19.1377
  36   2.0000      -0.695471       -18.9247
  37   2.0000      -0.661719       -18.0063
  38   2.0000      -0.645301       -17.5595
  39   2.0000      -0.613985       -16.7074
  40   2.0000      -0.601569       -16.3695
  41   2.0000      -0.579420       -15.7668
  42   2.0000      -0.566310       -15.4101
  43   2.0000      -0.551978       -15.0201
  44   2.0000      -0.537687       -14.6312
  45   2.0000      -0.523208       -14.2372
  46   2.0000      -0.518821       -14.1178
  47   2.0000      -0.509467       -13.8633
  48   2.0000      -0.503245       -13.6940
  49   2.0000      -0.500037       -13.6067
  50   2.0000      -0.490025       -13.3342
  51   2.0000      -0.478130       -13.0106
  52   2.0000      -0.473950       -12.8968
  53   2.0000      -0.463613       -12.6156
  54   2.0000      -0.454911       -12.3788
  55   2.0000      -0.446463       -12.1489
  56   2.0000      -0.442431       -12.0392
  57   2.0000      -0.434666       -11.8279
  58   2.0000      -0.434151       -11.8139
  59   2.0000      -0.424402       -11.5486
  60   2.0000      -0.419470       -11.4144
  61   2.0000      -0.417177       -11.3520
  62   2.0000      -0.413268       -11.2456
  63   2.0000      -0.337266        -9.1775
  64   2.0000      -0.327898        -8.9226
  65   2.0000      -0.324657        -8.8344
  66   2.0000      -0.302422        -8.2293
  67   0.0000       0.035637         0.9697
  68   0.0000       0.055441         1.5086
  69   0.0000       0.115506         3.1431
  70   0.0000       0.116116         3.1597
  71   0.0000       0.128495         3.4965

MULLIKEN ATOMIC CHARGES
-----------------------
   0 S :    0.117899
   1 C :   -0.154249
   2 C :   -0.044938
   3 C :    0.037981
   4 C :   -0.175739
   5 H :   -0.024997
   6 C :    0.107453
   7 H :    0.016211
   8 H :    0.020321
   9 C :   -0.054381
  10 H :    0.036402
  11 H :    0.023193
  12 C :   -0.082475
  13 H :    0.031730
  14 H :    0.019814
  15 H :    0.044548
  16 S :    0.115230
  17 C :   -0.074483
  18 C :   -0.028384
  19 C :   -0.002472
  20 C :   -0.166145
  21 H :    0.015032
  22 C :    0.036730
  23 H :    0.023095
  24 H :    0.033198
  25 C :   -0.041494
  26 H :    0.018737
  27 H :    0.026189
  28 C :   -0.094341
  29 H :    0.041739
  30 H :    0.041992
  31 H :    0.037544
  32 H :    0.059918
  33 H :    0.039143
Sum of atomic charges:    0.0000000

LOEWDIN ATOMIC CHARGES
----------------------
   0 S :    0.413066
   1 C :   -0.186273
   2 C :   -0.056992
   3 C :   -0.056069
   4 C :   -0.215236
   5 H :    0.013222
   6 C :   -0.019611
   7 H :    0.029851
   8 H :    0.024820
   9 C :   -0.037330
  10 H :    0.028925
  11 H :    0.018563
  12 C :   -0.078461
  13 H :    0.030314
  14 H :    0.028630
  15 H :    0.027797
  16 S :    0.397792
  17 C :   -0.165468
  18 C :   -0.063363
  19 C :   -0.057314
  20 C :   -0.199707
  21 H :    0.027321
  22 C :   -0.034278
  23 H :    0.032282
  24 H :    0.031196
  25 C :   -0.029836
  26 H :    0.018046
  27 H :    0.019365
  28 C :   -0.077338
  29 H :    0.028912
  30 H :    0.028499
  31 H :    0.027892
  32 H :    0.030312
  33 H :    0.020469

  Mayer bond orders larger than 0.100000
B(  0-S ,  1-C ) :   1.1411 B(  0-S ,  4-C ) :   1.1689 B(  1-C ,  2-C ) :   1.5926
B(  1-C ,  4-C ) :   0.1013 B(  1-C , 32-H ) :   0.9683 B(  2-C ,  3-C ) :   1.2301
B(  2-C ,  6-C ) :   1.0213 B(  3-C ,  4-C ) :   1.5453 B(  3-C ,  5-H ) :   1.0079
B(  4-C , 20-C ) :   1.0436 B(  6-C ,  7-H ) :   0.9529 B(  6-C ,  8-H ) :   0.9198
B(  6-C ,  9-C ) :   1.0822 B(  9-C , 10-H ) :   0.9569 B(  9-C , 11-H ) :   0.9429
B(  9-C , 12-C ) :   1.0892 B( 12-C , 13-H ) :   0.9721 B( 12-C , 14-H ) :   0.9683
B( 12-C , 15-H ) :   0.9757 B( 16-S , 17-C ) :   1.1482 B( 16-S , 20-C ) :   1.1343
B( 17-C , 18-C ) :   1.6106 B( 17-C , 20-C ) :   0.1021 B( 17-C , 33-H ) :   0.9754
B( 18-C , 19-C ) :   1.2268 B( 18-C , 21-H ) :   0.9861 B( 19-C , 20-C ) :   1.5940
B( 19-C , 22-C ) :   1.0607 B( 22-C , 23-H ) :   0.9229 B( 22-C , 24-H ) :   0.9357
B( 22-C , 25-C ) :   1.0810 B( 25-C , 26-H ) :   0.9570 B( 25-C , 27-H ) :   0.9569
B( 25-C , 28-C ) :   1.0577 B( 28-C , 29-H ) :   0.9779 B( 28-C , 30-H ) :   0.9790
B( 28-C , 31-H ) :   0.9765

Dispersion correction           -0.014327834
FINAL SINGLE POINT ENERGY     -1339.868198326711

DIPOLE MOMENT
-------------
                                X             Y             Z
Electronic contribution:     -1.20625      -5.97685      18.53542
Nuclear contribution   :      1.41345       6.10910     -18.94558
                        -----------------------------------------
Total Dipole Moment    :      0.20720       0.13226      -0.41016
                        -----------------------------------------
Magnitude (a.u.)       :      0.47818
Magnitude (Debye)      :      1.21544

Rotational constants in cm-1:     0.020863     0.007571     0.006966
Rotational constants in MHz :   625.447045   226.958356   208.849591

                             ****ORCA TERMINATED NORMALLY****
TOTAL RUN TIME: 0 days 0 hours 0 minutes 32 seconds 489 msec
