                         Program Version 4.2.1 -  RELEASE  -
|  1> ! wB97X-D3 SP def2-SVP
|  2> %pal
|  3> nprocs 16
|  4> end
|  5>
|  6> * xyz 0 1
|  7> S 	 -55.2369 	 8.23177 	 89.1347
|  8> C 	 -54.5148 	 7.92882 	 90.7214
|  9> C 	 -53.8409 	 9.0356 	 91.1603
| 10> C 	 -53.7545 	 10.1081 	 90.1508
| 11> C 	 -54.4734 	 9.82703 	 89.0262
| 12> H 	 -53.1177 	 11.0077 	 90.2597
| 13> C 	 -53.1833 	 9.24796 	 92.5299
| 14> H 	 -53.9139 	 8.64934 	 93.1488
| 15> H 	 -53.1409 	 10.3231 	 92.8407
| 16> C 	 -51.7599 	 8.72986 	 92.6819
| 17> H 	 -51.5229 	 8.64141 	 93.8101
| 18> H 	 -51.7358 	 7.70165 	 92.2875
| 19> C 	 -50.6399 	 9.56851 	 92.0101
| 20> H 	 -50.2835 	 10.1644 	 92.8692
| 21> H 	 -49.8854 	 8.8251 	 91.8249
| 22> H 	 -50.9096 	 10.1755 	 91.182
| 23> S 	 -54.1643 	 9.78927 	 86.4354
| 24> C 	 -54.3639 	 11.2439 	 85.4845
| 25> C 	 -54.6307 	 12.3726 	 86.2346
| 26> C 	 -54.6597 	 12.0559 	 87.6158
| 27> C 	 -54.5245 	 10.6503 	 87.8212
| 28> H 	 -54.7978 	 13.3858 	 85.8376
| 29> C 	 -55.0186 	 13.0151 	 88.7128
| 30> H 	 -54.3266 	 12.6999 	 89.4999
| 31> H 	 -56.0544 	 12.7757 	 89.0033
| 32> C 	 -54.9379 	 14.5186 	 88.4336
| 33> H 	 -55.5529 	 15.02 	 89.193
| 34> H 	 -55.4391 	 14.7898 	 87.5397
| 35> C 	 -53.5318 	 15.1342 	 88.2913
| 36> H 	 -53.555 	 16.1794 	 88.4112
| 37> H 	 -53.1365 	 14.8323 	 87.3461
| 38> H 	 -52.8679 	 14.728 	 89.0612
| 39> H 	 -54.6784 	 6.99861 	 91.2937
| 40> H 	 -54.1987 	 11.1927 	 84.397
| 41> *
| 42>
| 43>                          ****END OF INPUT****

CARTESIAN COORDINATES (ANGSTROEM)
---------------------------------
  S    -55.236900    8.231770   89.134700
  C    -54.514800    7.928820   90.721400
  C    -53.840900    9.035600   91.160300
  C    -53.754500   10.108100   90.150800
  C    -54.473400    9.827030   89.026200
  H    -53.117700   11.007700   90.259700
  C    -53.183300    9.247960   92.529900
  H    -53.913900    8.649340   93.148800
  H    -53.140900   10.323100   92.840700
  C    -51.759900    8.729860   92.681900
  H    -51.522900    8.641410   93.810100
  H    -51.735800    7.701650   92.287500
  C    -50.639900    9.568510   92.010100
  H    -50.283500   10.164400   92.869200
  H    -49.885400    8.825100   91.824900
  H    -50.909600   10.175500   91.182000
  S    -54.164300    9.789270   86.435400
  C    -54.363900   11.243900   85.484500
  C    -54.630700   12.372600   86.234600
  C    -54.659700   12.055900   87.615800
  C    -54.524500   10.650300   87.821200
  H    -54.797800   13.385800   85.837600
  C    -55.018600   13.015100   88.712800
  H    -54.326600   12.699900   89.499900
  H    -56.054400   12.775700   89.003300
  C    -54.937900   14.518600   88.433600
  H    -55.552900   15.020000   89.193000
  H    -55.439100   14.789800   87.539700
  C    -53.531800   15.134200   88.291300
  H    -53.555000   16.179400   88.411200
  H    -53.136500   14.832300   87.346100
  H    -52.867900   14.728000   89.061200
  H    -54.678400    6.998610   91.293700
  H    -54.198700   11.192700   84.397000

 Total Charge           Charge          ....    0
 Multiplicity           Mult            ....    1
 Number of Electrons    NEL             ....  134
 Basis Dimension        Dim             ....  322

ORBITAL ENERGIES
----------------

  NO   OCC          E(Eh)            E(eV)
   0   2.0000     -88.967093     -2420.9177
   1   2.0000     -88.964958     -2420.8596
   2   2.0000     -10.329086      -281.0687
   3   2.0000     -10.319166      -280.7988
   4   2.0000     -10.317358      -280.7496
   5   2.0000     -10.316019      -280.7132
   6   2.0000     -10.304167      -280.3906
   7   2.0000     -10.302585      -280.3476
   8   2.0000     -10.297850      -280.2187
   9   2.0000     -10.296790      -280.1899
  10   2.0000     -10.295354      -280.1508
  11   2.0000     -10.292018      -280.0600
  12   2.0000     -10.290770      -280.0261
  13   2.0000     -10.285364      -279.8790
  14   2.0000     -10.276083      -279.6264
  15   2.0000     -10.273746      -279.5628
  16   2.0000      -8.083299      -219.9578
  17   2.0000      -8.079186      -219.8458
  18   2.0000      -6.041461      -164.3965
  19   2.0000      -6.037951      -164.3010
  20   2.0000      -6.037557      -164.2903
  21   2.0000      -6.034365      -164.2034
  22   2.0000      -6.033822      -164.1886
  23   2.0000      -6.029641      -164.0749
  24   2.0000      -1.011340       -27.5200
  25   2.0000      -0.981906       -26.7190
  26   2.0000      -0.913171       -24.8486
  27   2.0000      -0.906798       -24.6752
  28   2.0000      -0.870911       -23.6987
  29   2.0000      -0.853879       -23.2352
  30   2.0000      -0.840800       -22.8793
  31   2.0000      -0.816515       -22.2185
  32   2.0000      -0.783683       -21.3251
  33   2.0000      -0.770924       -20.9779
  34   2.0000      -0.710420       -19.3315
  35   2.0000      -0.694524       -18.8990
  36   2.0000      -0.687765       -18.7150
  37   2.0000      -0.658394       -17.9158
  38   2.0000      -0.636284       -17.3142
  39   2.0000      -0.612395       -16.6641
  40   2.0000      -0.595039       -16.1918
  41   2.0000      -0.572517       -15.5790
  42   2.0000      -0.557248       -15.1635
  43   2.0000      -0.549638       -14.9564
  44   2.0000      -0.540878       -14.7180
  45   2.0000      -0.536482       -14.5984
  46   2.0000      -0.519109       -14.1257
  47   2.0000      -0.514322       -13.9954
  48   2.0000      -0.506395       -13.7797
  49   2.0000      -0.496163       -13.5013
  50   2.0000      -0.493280       -13.4228
  51   2.0000      -0.476455       -12.9650
  52   2.0000      -0.474615       -12.9149
  53   2.0000      -0.464319       -12.6348
  54   2.0000      -0.461062       -12.5461
  55   2.0000      -0.452497       -12.3131
  56   2.0000      -0.439439       -11.9577
  57   2.0000      -0.438333       -11.9276
  58   2.0000      -0.435465       -11.8496
  59   2.0000      -0.426910       -11.6168
  60   2.0000      -0.417846       -11.3702
  61   2.0000      -0.414454       -11.2779
  62   2.0000      -0.403546       -10.9811
  63   2.0000      -0.353175        -9.6104
  64   2.0000      -0.331568        -9.0224
  65   2.0000      -0.325428        -8.8554
  66   2.0000      -0.286851        -7.8056
  67   0.0000       0.030019         0.8169
  68   0.0000       0.075579         2.0566
  69   0.0000       0.107186         2.9167
  70   0.0000       0.114490         3.1154
  71   0.0000       0.133320         3.6278

MULLIKEN ATOMIC CHARGES
-----------------------
   0 S :    0.097585
   1 C :   -0.142769
   2 C :   -0.079933
   3 C :   -0.001200
   4 C :   -0.136659
   5 H :    0.041088
   6 C :    0.035902
   7 H :    0.036216
   8 H :    0.034346
   9 C :   -0.116972
  10 H :    0.042624
  11 H :    0.025463
  12 C :   -0.027440
  13 H :    0.032967
  14 H :    0.035480
  15 H :    0.040523
  16 S :    0.128905
  17 C :   -0.105638
  18 C :   -0.033337
  19 C :   -0.064618
  20 C :   -0.166812
  21 H :    0.028939
  22 C :    0.080635
  23 H :    0.014050
  24 H :    0.051944
  25 C :   -0.077511
  26 H :    0.026197
  27 H :    0.012729
  28 C :   -0.015826
  29 H :    0.031328
  30 H :    0.025821
  31 H :    0.022947
  32 H :    0.061739
  33 H :    0.061286
Sum of atomic charges:   -0.0000000

LOEWDIN ATOMIC CHARGES
----------------------
   0 S :    0.377201
   1 C :   -0.199161
   2 C :   -0.060550
   3 C :   -0.073229
   4 C :   -0.188070
   5 H :    0.034395
   6 C :   -0.042200
   7 H :    0.038504
   8 H :    0.033244
   9 C :   -0.048506
  10 H :    0.031583
  11 H :    0.018903
  12 C :   -0.063889
  13 H :    0.031599
  14 H :    0.030722
  15 H :    0.019679
  16 S :    0.456136
  17 C :   -0.192717
  18 C :   -0.073609
  19 C :   -0.058627
  20 C :   -0.229777
  21 H :    0.037792
  22 C :   -0.034274
  23 H :    0.031108
  24 H :    0.043954
  25 C :   -0.042463
  26 H :    0.028190
  27 H :    0.016281
  28 C :   -0.054658
  29 H :    0.022207
  30 H :    0.021514
  31 H :    0.024677
  32 H :    0.036372
  33 H :    0.027671

  Mayer bond orders larger than 0.100000
B(  0-S ,  1-C ) :   1.1059 B(  0-S ,  4-C ) :   1.1344 B(  1-C ,  2-C ) :   1.6589
B(  1-C , 32-H ) :   0.9643 B(  2-C ,  3-C ) :   1.1996 B(  2-C ,  6-C ) :   1.0123
B(  3-C ,  4-C ) :   1.6206 B(  3-C ,  5-H ) :   0.9742 B(  4-C , 20-C ) :   1.0280
B(  6-C ,  7-H ) :   0.9379 B(  6-C ,  8-H ) :   0.9471 B(  6-C ,  9-C ) :   1.0736
B(  9-C , 10-H ) :   0.9606 B(  9-C , 11-H ) :   0.9616 B(  9-C , 12-C ) :   1.0501
B( 12-C , 13-H ) :   0.9785 B( 12-C , 14-H ) :   0.9760 B( 12-C , 15-H ) :   0.9807
B( 16-S , 17-C ) :   1.1770 B( 16-S , 20-C ) :   1.1941 B( 17-C , 18-C ) :   1.5552
B( 17-C , 20-C ) :   0.1060 B( 17-C , 33-H ) :   0.9663 B( 18-C , 19-C ) :   1.2915
B( 18-C , 21-H ) :   0.9844 B( 19-C , 20-C ) :   1.5337 B( 19-C , 22-C ) :   1.0201
B( 22-C , 23-H ) :   0.9292 B( 22-C , 24-H ) :   0.9308 B( 22-C , 25-C ) :   1.0941
B( 25-C , 26-H ) :   0.9529 B( 25-C , 27-H ) :   0.9480 B( 25-C , 28-C ) :   1.0713
B( 28-C , 29-H ) :   0.9750 B( 28-C , 30-H ) :   0.9762 B( 28-C , 31-H ) :   0.9764

Dispersion correction           -0.014138482
FINAL SINGLE POINT ENERGY     -1339.874847825736

DIPOLE MOMENT
-------------
                                X             Y             Z
Electronic contribution:    -12.29303     -17.47335     -16.53066
Nuclear contribution   :     12.52482      17.92610      16.86977
                        -----------------------------------------
Total Dipole Moment    :      0.23179       0.45274       0.33912
                        -----------------------------------------
Magnitude (a.u.)       :      0.61131
Magnitude (Debye)      :      1.55384

Rotational constants in cm-1:     0.017815     0.008782     0.006864
Rotational constants in MHz :   534.070107   263.281702   205.772892

                             ****ORCA TERMINATED NORMALLY****
TOTAL RUN TIME: 0 days 0 hours 0 minutes 29 seconds 985 msec
